MODEL 1
REMARK VINA RESULT:      -6.7      0.000      0.000
REMARK  7 active torsions:
REMARK  status: ('A' for Active; 'I' for Inactive)
REMARK    1  A    between atoms: O_1  and  C_2 
REMARK    2  A    between atoms: C_2  and  C_3 
REMARK    3  A    between atoms: C_2  and  C_8 
REMARK    4  A    between atoms: C_3  and  C_4 
REMARK    5  A    between atoms: C_4  and  C_5 
REMARK    6  A    between atoms: C_8  and  C_9 
REMARK    7  A    between atoms: C_11  and  O_15 
ROOT
HETATM    1  O   UNL     1      32.945  76.688  22.902  1.00  0.00    -0.395 OA
HETATM    2  H   UNL     1      33.883  76.557  22.692  1.00  0.00     0.210 HD
ENDROOT
BRANCH   1   3
HETATM    3  C   UNL     1      32.262  77.177  21.745  1.00  0.00     0.122 C 
BRANCH   3   4
HETATM    4  C   UNL     1      31.042  77.980  22.208  1.00  0.00     0.042 C 
BRANCH   4   5
HETATM    5  C   UNL     1      31.100  79.431  21.740  1.00  0.00     0.116 C 
BRANCH   5   6
HETATM    6  C   UNL     1      31.919  80.252  22.689  1.00  0.00     0.172 C 
HETATM    7  O   UNL     1      31.741  81.426  22.966  1.00  0.00    -0.648 OA
HETATM    8  O   UNL     1      32.906  79.548  23.274  1.00  0.00    -0.648 OA
ENDBRANCH   5   6
ENDBRANCH   4   5
ENDBRANCH   3   4
BRANCH   3   9
HETATM    9  C   UNL     1      31.838  76.020  20.825  1.00  0.00     0.070 C 
BRANCH   9  10
HETATM   10  C   UNL     1      31.775  76.418  19.368  1.00  0.00    -0.053 A 
HETATM   11  C   UNL     1      32.332  77.628  18.935  1.00  0.00     0.043 A 
HETATM   12  C   UNL     1      32.262  77.988  17.593  1.00  0.00     0.066 A 
HETATM   13  C   UNL     1      31.643  77.160  16.662  1.00  0.00     0.036 A 
HETATM   14  C   UNL     1      31.084  75.955  17.085  1.00  0.00     0.003 A 
HETATM   15  C   UNL     1      31.148  75.584  18.430  1.00  0.00     0.007 A 
BRANCH  12  16
HETATM   16  O   UNL     1      32.823  79.176  17.226  1.00  0.00    -0.361 OA
HETATM   17  H   UNL     1      32.326  79.794  16.727  1.00  0.00     0.217 HD
ENDBRANCH  12  16
ENDBRANCH   9  10
ENDBRANCH   3   9
ENDBRANCH   1   3
TORSDOF 7
ENDMDL
MODEL 2
REMARK VINA RESULT:      -6.6      2.217      4.292
REMARK  7 active torsions:
REMARK  status: ('A' for Active; 'I' for Inactive)
REMARK    1  A    between atoms: O_1  and  C_2 
REMARK    2  A    between atoms: C_2  and  C_3 
REMARK    3  A    between atoms: C_2  and  C_8 
REMARK    4  A    between atoms: C_3  and  C_4 
REMARK    5  A    between atoms: C_4  and  C_5 
REMARK    6  A    between atoms: C_8  and  C_9 
REMARK    7  A    between atoms: C_11  and  O_15 
ROOT
HETATM    1  O   UNL     1      30.832  77.370  18.594  1.00  0.00    -0.395 OA
HETATM    2  H   UNL     1      30.431  76.529  18.324  1.00  0.00     0.210 HD
ENDROOT
BRANCH   1   3
HETATM    3  C   UNL     1      31.073  77.351  20.003  1.00  0.00     0.122 C 
BRANCH   3   4
HETATM    4  C   UNL     1      31.468  78.764  20.444  1.00  0.00     0.042 C 
BRANCH   4   5
HETATM    5  C   UNL     1      31.094  79.034  21.899  1.00  0.00     0.116 C 
BRANCH   5   6
HETATM    6  C   UNL     1      32.006  80.067  22.489  1.00  0.00     0.172 C 
HETATM    7  O   UNL     1      31.933  81.272  22.323  1.00  0.00    -0.648 OA
HETATM    8  O   UNL     1      32.949  79.537  23.290  1.00  0.00    -0.648 OA
ENDBRANCH   5   6
ENDBRANCH   4   5
ENDBRANCH   3   4
BRANCH   3   9
HETATM    9  C   UNL     1      32.176  76.339  20.361  1.00  0.00     0.070 C 
BRANCH   9  10
HETATM   10  C   UNL     1      31.664  75.171  21.170  1.00  0.00    -0.053 A 
HETATM   11  C   UNL     1      31.046  75.378  22.411  1.00  0.00     0.043 A 
HETATM   12  C   UNL     1      30.584  74.295  23.151  1.00  0.00     0.066 A 
HETATM   13  C   UNL     1      30.727  72.994  22.679  1.00  0.00     0.036 A 
HETATM   14  C   UNL     1      31.343  72.778  21.448  1.00  0.00     0.003 A 
HETATM   15  C   UNL     1      31.810  73.859  20.696  1.00  0.00     0.007 A 
BRANCH  12  16
HETATM   16  O   UNL     1      29.988  74.554  24.350  1.00  0.00    -0.361 OA
HETATM   17  H   UNL     1      30.492  74.525  25.139  1.00  0.00     0.217 HD
ENDBRANCH  12  16
ENDBRANCH   9  10
ENDBRANCH   3   9
ENDBRANCH   1   3
TORSDOF 7
ENDMDL
MODEL 3
REMARK VINA RESULT:      -6.6      3.196      5.271
REMARK  7 active torsions:
REMARK  status: ('A' for Active; 'I' for Inactive)
REMARK    1  A    between atoms: O_1  and  C_2 
REMARK    2  A    between atoms: C_2  and  C_3 
REMARK    3  A    between atoms: C_2  and  C_8 
REMARK    4  A    between atoms: C_3  and  C_4 
REMARK    5  A    between atoms: C_4  and  C_5 
REMARK    6  A    between atoms: C_8  and  C_9 
REMARK    7  A    between atoms: C_11  and  O_15 
ROOT
HETATM    1  O   UNL     1      29.999  74.747  24.220  1.00  0.00    -0.395 OA
HETATM    2  H   UNL     1      30.665  75.272  24.690  1.00  0.00     0.210 HD
ENDROOT
BRANCH   1   3
HETATM    3  C   UNL     1      30.504  74.375  22.936  1.00  0.00     0.122 C 
BRANCH   3   4
HETATM    4  C   UNL     1      30.733  72.859  22.928  1.00  0.00     0.042 C 
BRANCH   4   5
HETATM    5  C   UNL     1      31.964  72.472  22.113  1.00  0.00     0.116 C 
BRANCH   5   6
HETATM    6  C   UNL     1      32.889  71.628  22.935  1.00  0.00     0.172 C 
HETATM    7  O   UNL     1      32.660  70.508  23.358  1.00  0.00    -0.648 OA
HETATM    8  O   UNL     1      34.078  72.220  23.160  1.00  0.00    -0.648 OA
ENDBRANCH   5   6
ENDBRANCH   4   5
ENDBRANCH   3   4
BRANCH   3   9
HETATM    9  C   UNL     1      31.809  75.126  22.618  1.00  0.00     0.070 C 
BRANCH   9  10
HETATM   10  C   UNL     1      31.646  76.154  21.523  1.00  0.00    -0.053 A 
HETATM   11  C   UNL     1      31.655  77.523  21.823  1.00  0.00     0.043 A 
HETATM   12  C   UNL     1      31.498  78.460  20.808  1.00  0.00     0.066 A 
HETATM   13  C   UNL     1      31.327  78.062  19.486  1.00  0.00     0.036 A 
HETATM   14  C   UNL     1      31.314  76.702  19.179  1.00  0.00     0.003 A 
HETATM   15  C   UNL     1      31.472  75.752  20.191  1.00  0.00     0.007 A 
BRANCH  12  16
HETATM   16  O   UNL     1      31.517  79.779  21.155  1.00  0.00    -0.361 OA
HETATM   17  H   UNL     1      32.308  80.168  21.474  1.00  0.00     0.217 HD
ENDBRANCH  12  16
ENDBRANCH   9  10
ENDBRANCH   3   9
ENDBRANCH   1   3
TORSDOF 7
ENDMDL
MODEL 4
REMARK VINA RESULT:      -6.6      1.555      4.510
REMARK  7 active torsions:
REMARK  status: ('A' for Active; 'I' for Inactive)
REMARK    1  A    between atoms: O_1  and  C_2 
REMARK    2  A    between atoms: C_2  and  C_3 
REMARK    3  A    between atoms: C_2  and  C_8 
REMARK    4  A    between atoms: C_3  and  C_4 
REMARK    5  A    between atoms: C_4  and  C_5 
REMARK    6  A    between atoms: C_8  and  C_9 
REMARK    7  A    between atoms: C_11  and  O_15 
ROOT
HETATM    1  O   UNL     1      32.816  74.005  21.250  1.00  0.00    -0.395 OA
HETATM    2  H   UNL     1      32.774  73.500  20.423  1.00  0.00     0.210 HD
ENDROOT
BRANCH   1   3
HETATM    3  C   UNL     1      32.227  75.292  21.052  1.00  0.00     0.122 C 
BRANCH   3   4
HETATM    4  C   UNL     1      32.568  75.767  19.636  1.00  0.00     0.042 C 
BRANCH   4   5
HETATM    5  C   UNL     1      31.328  76.227  18.874  1.00  0.00     0.116 C 
BRANCH   5   6
HETATM    6  C   UNL     1      31.295  77.723  18.787  1.00  0.00     0.172 C 
HETATM    7  O   UNL     1      30.338  78.438  19.029  1.00  0.00    -0.648 OA
HETATM    8  O   UNL     1      32.480  78.253  18.431  1.00  0.00    -0.648 OA
ENDBRANCH   5   6
ENDBRANCH   4   5
ENDBRANCH   3   4
BRANCH   3   9
HETATM    9  C   UNL     1      32.733  76.298  22.102  1.00  0.00     0.070 C 
BRANCH   9  10
HETATM   10  C   UNL     1      31.805  77.476  22.285  1.00  0.00    -0.053 A 
HETATM   11  C   UNL     1      32.277  78.786  22.130  1.00  0.00     0.043 A 
HETATM   12  C   UNL     1      31.416  79.864  22.307  1.00  0.00     0.066 A 
HETATM   13  C   UNL     1      30.080  79.665  22.642  1.00  0.00     0.036 A 
HETATM   14  C   UNL     1      29.603  78.365  22.801  1.00  0.00     0.003 A 
HETATM   15  C   UNL     1      30.459  77.275  22.625  1.00  0.00     0.007 A 
BRANCH  12  16
HETATM   16  O   UNL     1      31.927  81.117  22.141  1.00  0.00    -0.361 OA
HETATM   17  H   UNL     1      31.698  81.621  21.385  1.00  0.00     0.217 HD
ENDBRANCH  12  16
ENDBRANCH   9  10
ENDBRANCH   3   9
ENDBRANCH   1   3
TORSDOF 7
ENDMDL
MODEL 5
REMARK VINA RESULT:      -6.5      2.978      4.483
REMARK  7 active torsions:
REMARK  status: ('A' for Active; 'I' for Inactive)
REMARK    1  A    between atoms: O_1  and  C_2 
REMARK    2  A    between atoms: C_2  and  C_3 
REMARK    3  A    between atoms: C_2  and  C_8 
REMARK    4  A    between atoms: C_3  and  C_4 
REMARK    5  A    between atoms: C_4  and  C_5 
REMARK    6  A    between atoms: C_8  and  C_9 
REMARK    7  A    between atoms: C_11  and  O_15 
ROOT
HETATM    1  O   UNL     1      31.745  76.140  23.787  1.00  0.00    -0.395 OA
HETATM    2  H   UNL     1      32.338  76.158  24.554  1.00  0.00     0.210 HD
ENDROOT
BRANCH   1   3
HETATM    3  C   UNL     1      32.505  76.340  22.593  1.00  0.00     0.122 C 
BRANCH   3   4
HETATM    4  C   UNL     1      32.399  77.816  22.194  1.00  0.00     0.042 C 
BRANCH   4   5
HETATM    5  C   UNL     1      31.030  78.153  21.610  1.00  0.00     0.116 C 
BRANCH   5   6
HETATM    6  C   UNL     1      30.396  79.271  22.380  1.00  0.00     0.172 C 
HETATM    7  O   UNL     1      29.200  79.476  22.502  1.00  0.00    -0.648 OA
HETATM    8  O   UNL     1      31.297  80.063  22.992  1.00  0.00    -0.648 OA
ENDBRANCH   5   6
ENDBRANCH   4   5
ENDBRANCH   3   4
BRANCH   3   9
HETATM    9  C   UNL     1      32.001  75.431  21.459  1.00  0.00     0.070 C 
BRANCH   9  10
HETATM   10  C   UNL     1      32.923  74.266  21.183  1.00  0.00    -0.053 A 
HETATM   11  C   UNL     1      33.182  73.311  22.175  1.00  0.00     0.043 A 
HETATM   12  C   UNL     1      34.038  72.246  21.912  1.00  0.00     0.066 A 
HETATM   13  C   UNL     1      34.650  72.111  20.670  1.00  0.00     0.036 A 
HETATM   14  C   UNL     1      34.400  73.058  19.678  1.00  0.00     0.003 A 
HETATM   15  C   UNL     1      33.542  74.131  19.932  1.00  0.00     0.007 A 
BRANCH  12  16
HETATM   16  O   UNL     1      34.253  71.344  22.912  1.00  0.00    -0.361 OA
HETATM   17  H   UNL     1      35.122  71.048  23.097  1.00  0.00     0.217 HD
ENDBRANCH  12  16
ENDBRANCH   9  10
ENDBRANCH   3   9
ENDBRANCH   1   3
TORSDOF 7
ENDMDL
MODEL 6
REMARK VINA RESULT:      -6.5      2.069      5.354
REMARK  7 active torsions:
REMARK  status: ('A' for Active; 'I' for Inactive)
REMARK    1  A    between atoms: O_1  and  C_2 
REMARK    2  A    between atoms: C_2  and  C_3 
REMARK    3  A    between atoms: C_2  and  C_8 
REMARK    4  A    between atoms: C_3  and  C_4 
REMARK    5  A    between atoms: C_4  and  C_5 
REMARK    6  A    between atoms: C_8  and  C_9 
REMARK    7  A    between atoms: C_11  and  O_15 
ROOT
HETATM    1  O   UNL     1      30.756  74.298  17.552  1.00  0.00    -0.395 OA
HETATM    2  H   UNL     1      30.148  74.048  18.266  1.00  0.00     0.210 HD
ENDROOT
BRANCH   1   3
HETATM    3  C   UNL     1      31.200  75.641  17.754  1.00  0.00     0.122 C 
BRANCH   3   4
HETATM    4  C   UNL     1      31.781  76.161  16.435  1.00  0.00     0.042 C 
BRANCH   4   5
HETATM    5  C   UNL     1      30.838  77.140  15.742  1.00  0.00     0.116 C 
BRANCH   5   6
HETATM    6  C   UNL     1      30.996  78.514  16.320  1.00  0.00     0.172 C 
HETATM    7  O   UNL     1      30.096  79.273  16.632  1.00  0.00    -0.648 OA
HETATM    8  O   UNL     1      32.284  78.856  16.511  1.00  0.00    -0.648 OA
ENDBRANCH   5   6
ENDBRANCH   4   5
ENDBRANCH   3   4
BRANCH   3   9
HETATM    9  C   UNL     1      32.249  75.712  18.878  1.00  0.00     0.070 C 
BRANCH   9  10
HETATM   10  C   UNL     1      31.775  76.497  20.079  1.00  0.00    -0.053 A 
HETATM   11  C   UNL     1      31.884  75.964  21.369  1.00  0.00     0.043 A 
HETATM   12  C   UNL     1      31.438  76.693  22.467  1.00  0.00     0.066 A 
HETATM   13  C   UNL     1      30.877  77.955  22.306  1.00  0.00     0.036 A 
HETATM   14  C   UNL     1      30.762  78.493  21.025  1.00  0.00     0.003 A 
HETATM   15  C   UNL     1      31.207  77.770  19.916  1.00  0.00     0.007 A 
BRANCH  12  16
HETATM   16  O   UNL     1      31.572  76.126  23.700  1.00  0.00    -0.361 OA
HETATM   17  H   UNL     1      31.095  75.348  23.913  1.00  0.00     0.217 HD
ENDBRANCH  12  16
ENDBRANCH   9  10
ENDBRANCH   3   9
ENDBRANCH   1   3
TORSDOF 7
ENDMDL
MODEL 7
REMARK VINA RESULT:      -6.4      2.395      4.296
REMARK  7 active torsions:
REMARK  status: ('A' for Active; 'I' for Inactive)
REMARK    1  A    between atoms: O_1  and  C_2 
REMARK    2  A    between atoms: C_2  and  C_3 
REMARK    3  A    between atoms: C_2  and  C_8 
REMARK    4  A    between atoms: C_3  and  C_4 
REMARK    5  A    between atoms: C_4  and  C_5 
REMARK    6  A    between atoms: C_8  and  C_9 
REMARK    7  A    between atoms: C_11  and  O_15 
ROOT
HETATM    1  O   UNL     1      31.491  75.948  23.710  1.00  0.00    -0.395 OA
HETATM    2  H   UNL     1      30.654  75.466  23.802  1.00  0.00     0.210 HD
ENDROOT
BRANCH   1   3
HETATM    3  C   UNL     1      32.020  75.736  22.399  1.00  0.00     0.122 C 
BRANCH   3   4
HETATM    4  C   UNL     1      33.367  75.016  22.533  1.00  0.00     0.042 C 
BRANCH   4   5
HETATM    5  C   UNL     1      33.396  73.708  21.747  1.00  0.00     0.116 C 
BRANCH   5   6
HETATM    6  C   UNL     1      33.160  72.545  22.662  1.00  0.00     0.172 C 
HETATM    7  O   UNL     1      34.014  71.915  23.263  1.00  0.00    -0.648 OA
HETATM    8  O   UNL     1      31.855  72.248  22.807  1.00  0.00    -0.648 OA
ENDBRANCH   5   6
ENDBRANCH   4   5
ENDBRANCH   3   4
BRANCH   3   9
HETATM    9  C   UNL     1      32.187  77.069  21.649  1.00  0.00     0.070 C 
BRANCH   9  10
HETATM   10  C   UNL     1      31.969  76.938  20.159  1.00  0.00    -0.053 A 
HETATM   11  C   UNL     1      32.255  78.007  19.300  1.00  0.00     0.043 A 
HETATM   12  C   UNL     1      32.044  77.878  17.931  1.00  0.00     0.066 A 
HETATM   13  C   UNL     1      31.547  76.696  17.392  1.00  0.00     0.036 A 
HETATM   14  C   UNL     1      31.257  75.628  18.240  1.00  0.00     0.003 A 
HETATM   15  C   UNL     1      31.465  75.747  19.616  1.00  0.00     0.007 A 
BRANCH  12  16
HETATM   16  O   UNL     1      32.343  78.949  17.140  1.00  0.00    -0.361 OA
HETATM   17  H   UNL     1      33.226  79.254  17.079  1.00  0.00     0.217 HD
ENDBRANCH  12  16
ENDBRANCH   9  10
ENDBRANCH   3   9
ENDBRANCH   1   3
TORSDOF 7
ENDMDL
MODEL 8
REMARK VINA RESULT:      -6.3      2.140      3.997
REMARK  7 active torsions:
REMARK  status: ('A' for Active; 'I' for Inactive)
REMARK    1  A    between atoms: O_1  and  C_2 
REMARK    2  A    between atoms: C_2  and  C_3 
REMARK    3  A    between atoms: C_2  and  C_8 
REMARK    4  A    between atoms: C_3  and  C_4 
REMARK    5  A    between atoms: C_4  and  C_5 
REMARK    6  A    between atoms: C_8  and  C_9 
REMARK    7  A    between atoms: C_11  and  O_15 
ROOT
HETATM    1  O   UNL     1      31.064  78.356  19.319  1.00  0.00    -0.395 OA
HETATM    2  H   UNL     1      31.297  79.183  19.770  1.00  0.00     0.210 HD
ENDROOT
BRANCH   1   3
HETATM    3  C   UNL     1      31.165  77.267  20.239  1.00  0.00     0.122 C 
BRANCH   3   4
HETATM    4  C   UNL     1      31.389  77.840  21.643  1.00  0.00     0.042 C 
BRANCH   4   5
HETATM    5  C   UNL     1      30.905  79.283  21.755  1.00  0.00     0.116 C 
BRANCH   5   6
HETATM    6  C   UNL     1      31.887  80.102  22.537  1.00  0.00     0.172 C 
HETATM    7  O   UNL     1      31.824  81.302  22.741  1.00  0.00    -0.648 OA
HETATM    8  O   UNL     1      32.887  79.366  23.057  1.00  0.00    -0.648 OA
ENDBRANCH   5   6
ENDBRANCH   4   5
ENDBRANCH   3   4
BRANCH   3   9
HETATM    9  C   UNL     1      32.313  76.320  19.848  1.00  0.00     0.070 C 
BRANCH   9  10
HETATM   10  C   UNL     1      32.260  74.997  20.575  1.00  0.00    -0.053 A 
HETATM   11  C   UNL     1      33.182  74.701  21.588  1.00  0.00     0.043 A 
HETATM   12  C   UNL     1      33.127  73.477  22.246  1.00  0.00     0.066 A 
HETATM   13  C   UNL     1      32.165  72.529  21.914  1.00  0.00     0.036 A 
HETATM   14  C   UNL     1      31.246  72.813  20.906  1.00  0.00     0.003 A 
HETATM   15  C   UNL     1      31.291  74.039  20.239  1.00  0.00     0.007 A 
BRANCH  12  16
HETATM   16  O   UNL     1      34.047  73.243  23.226  1.00  0.00    -0.361 OA
HETATM   17  H   UNL     1      34.270  72.364  23.459  1.00  0.00     0.217 HD
ENDBRANCH  12  16
ENDBRANCH   9  10
ENDBRANCH   3   9
ENDBRANCH   1   3
TORSDOF 7
ENDMDL
MODEL 9
REMARK VINA RESULT:      -6.3      2.435      3.596
REMARK  7 active torsions:
REMARK  status: ('A' for Active; 'I' for Inactive)
REMARK    1  A    between atoms: O_1  and  C_2 
REMARK    2  A    between atoms: C_2  and  C_3 
REMARK    3  A    between atoms: C_2  and  C_8 
REMARK    4  A    between atoms: C_3  and  C_4 
REMARK    5  A    between atoms: C_4  and  C_5 
REMARK    6  A    between atoms: C_8  and  C_9 
REMARK    7  A    between atoms: C_11  and  O_15 
ROOT
HETATM    1  O   UNL     1      30.449  78.718  19.839  1.00  0.00    -0.395 OA
HETATM    2  H   UNL     1      30.047  79.274  19.154  1.00  0.00     0.210 HD
ENDROOT
BRANCH   1   3
HETATM    3  C   UNL     1      30.904  77.496  19.254  1.00  0.00     0.122 C 
BRANCH   3   4
HETATM    4  C   UNL     1      32.017  76.922  20.137  1.00  0.00     0.042 C 
BRANCH   4   5
HETATM    5  C   UNL     1      31.467  76.005  21.226  1.00  0.00     0.116 C 
BRANCH   5   6
HETATM    6  C   UNL     1      31.344  76.749  22.521  1.00  0.00     0.172 C 
HETATM    7  O   UNL     1      30.553  77.643  22.768  1.00  0.00    -0.648 OA
HETATM    8  O   UNL     1      32.202  76.309  23.461  1.00  0.00    -0.648 OA
ENDBRANCH   5   6
ENDBRANCH   4   5
ENDBRANCH   3   4
BRANCH   3   9
HETATM    9  C   UNL     1      31.411  77.726  17.819  1.00  0.00     0.070 C 
BRANCH   9  10
HETATM   10  C   UNL     1      30.576  77.017  16.778  1.00  0.00    -0.053 A 
HETATM   11  C   UNL     1      29.723  77.739  15.933  1.00  0.00     0.043 A 
HETATM   12  C   UNL     1      28.954  77.075  14.983  1.00  0.00     0.066 A 
HETATM   13  C   UNL     1      29.015  75.691  14.855  1.00  0.00     0.036 A 
HETATM   14  C   UNL     1      29.858  74.964  15.693  1.00  0.00     0.003 A 
HETATM   15  C   UNL     1      30.635  75.621  16.651  1.00  0.00     0.007 A 
BRANCH  12  16
HETATM   16  O   UNL     1      28.144  77.828  14.186  1.00  0.00    -0.361 OA
HETATM   17  H   UNL     1      27.786  78.632  14.507  1.00  0.00     0.217 HD
ENDBRANCH  12  16
ENDBRANCH   9  10
ENDBRANCH   3   9
ENDBRANCH   1   3
TORSDOF 7
ENDMDL
