MODEL 1
REMARK VINA RESULT:      -5.8      0.000      0.000
REMARK  4 active torsions:
REMARK  status: ('A' for Active; 'I' for Inactive)
REMARK    1  A    between atoms: O_1  and  C_11 
REMARK    2  A    between atoms: C_4  and  C_5 
REMARK    3  A    between atoms: C_4  and  C_6 
REMARK    4  A    between atoms: C_6  and  C_12 
ROOT
ATOM      1  O   UNL A   1      10.600   8.457  14.748  1.00  0.00    -0.361 OA
ATOM      2  H   UNL A   1      10.725   9.231  15.262  1.00  0.00     0.217 HD
ENDROOT
BRANCH   1   3
ATOM      3  C   UNL A   1      11.032   8.420  13.459  1.00  0.00     0.065 A 
ATOM      4  C   UNL A   1      10.398   9.195  12.487  1.00  0.00     0.037 A 
ATOM      5  C   UNL A   1      10.839   9.157  11.165  1.00  0.00     0.010 A 
ATOM      6  C   UNL A   1      11.917   8.343  10.813  1.00  0.00    -0.058 A 
ATOM      7  C   UNL A   1      12.551   7.568  11.784  1.00  0.00     0.010 A 
ATOM      8  C   UNL A   1      12.110   7.606  13.106  1.00  0.00     0.037 A 
BRANCH   6   9
ATOM      9  C   UNL A   1      12.390   8.302   9.400  1.00  0.00     0.049 C 
BRANCH   9  10
ATOM     10  C   UNL A   1      12.351   6.902   8.776  1.00  0.00     0.117 C 
BRANCH  10  11
ATOM     11  C   UNL A   1      11.359   6.825   7.641  1.00  0.00     0.172 C 
ATOM     12  O   UNL A   1      11.941   6.533   6.451  1.00  0.00    -0.648 OA
ATOM     13  O   UNL A   1      10.153   6.982   7.778  1.00  0.00    -0.648 OA
ENDBRANCH  10  11
ENDBRANCH   9  10
ENDBRANCH   6   9
ENDBRANCH   1   3
TORSDOF 4
ENDMDL
MODEL 2
REMARK VINA RESULT:      -5.8      0.348      1.650
REMARK  4 active torsions:
REMARK  status: ('A' for Active; 'I' for Inactive)
REMARK    1  A    between atoms: O_1  and  C_11 
REMARK    2  A    between atoms: C_4  and  C_5 
REMARK    3  A    between atoms: C_4  and  C_6 
REMARK    4  A    between atoms: C_6  and  C_12 
ROOT
ATOM      1  O   UNL A   1      10.500   8.487  14.591  1.00  0.00    -0.361 OA
ATOM      2  H   UNL A   1      11.084   8.377  15.315  1.00  0.00     0.217 HD
ENDROOT
BRANCH   1   3
ATOM      3  C   UNL A   1      10.979   8.435  13.318  1.00  0.00     0.065 A 
ATOM      4  C   UNL A   1      11.658   7.301  12.873  1.00  0.00     0.037 A 
ATOM      5  C   UNL A   1      12.150   7.248  11.570  1.00  0.00     0.010 A 
ATOM      6  C   UNL A   1      11.964   8.331  10.709  1.00  0.00    -0.058 A 
ATOM      7  C   UNL A   1      11.285   9.465  11.154  1.00  0.00     0.010 A 
ATOM      8  C   UNL A   1      10.793   9.518  12.457  1.00  0.00     0.037 A 
BRANCH   6   9
ATOM      9  C   UNL A   1      12.489   8.274   9.315  1.00  0.00     0.049 C 
BRANCH   9  10
ATOM     10  C   UNL A   1      12.407   6.881   8.680  1.00  0.00     0.117 C 
BRANCH  10  11
ATOM     11  C   UNL A   1      11.416   6.845   7.542  1.00  0.00     0.172 C 
ATOM     12  O   UNL A   1      10.131   6.979   7.956  1.00  0.00    -0.648 OA
ATOM     13  O   UNL A   1      11.734   6.733   6.365  1.00  0.00    -0.648 OA
ENDBRANCH  10  11
ENDBRANCH   9  10
ENDBRANCH   6   9
ENDBRANCH   1   3
TORSDOF 4
ENDMDL
MODEL 3
REMARK VINA RESULT:      -5.8      3.825      4.752
REMARK  4 active torsions:
REMARK  status: ('A' for Active; 'I' for Inactive)
REMARK    1  A    between atoms: O_1  and  C_11 
REMARK    2  A    between atoms: C_4  and  C_5 
REMARK    3  A    between atoms: C_4  and  C_6 
REMARK    4  A    between atoms: C_6  and  C_12 
ROOT
ATOM      1  O   UNL A   1      17.488   7.258   9.073  1.00  0.00    -0.361 OA
ATOM      2  H   UNL A   1      17.957   6.679   9.642  1.00  0.00     0.217 HD
ENDROOT
BRANCH   1   3
ATOM      3  C   UNL A   1      16.141   7.130   8.933  1.00  0.00     0.065 A 
ATOM      4  C   UNL A   1      15.346   6.867  10.048  1.00  0.00     0.037 A 
ATOM      5  C   UNL A   1      13.965   6.735   9.907  1.00  0.00     0.010 A 
ATOM      6  C   UNL A   1      13.377   6.866   8.648  1.00  0.00    -0.058 A 
ATOM      7  C   UNL A   1      14.172   7.130   7.533  1.00  0.00     0.010 A 
ATOM      8  C   UNL A   1      15.553   7.262   7.674  1.00  0.00     0.037 A 
BRANCH   6   9
ATOM      9  C   UNL A   1      11.901   6.726   8.495  1.00  0.00     0.049 C 
BRANCH   9  10
ATOM     10  C   UNL A   1      11.385   7.108   7.104  1.00  0.00     0.117 C 
BRANCH  10  11
ATOM     11  C   UNL A   1      10.814   5.916   6.374  1.00  0.00     0.172 C 
ATOM     12  O   UNL A   1      11.240   5.831   5.089  1.00  0.00    -0.648 OA
ATOM     13  O   UNL A   1      10.068   5.094   6.889  1.00  0.00    -0.648 OA
ENDBRANCH  10  11
ENDBRANCH   9  10
ENDBRANCH   6   9
ENDBRANCH   1   3
TORSDOF 4
ENDMDL
MODEL 4
REMARK VINA RESULT:      -5.7      1.568      2.104
REMARK  4 active torsions:
REMARK  status: ('A' for Active; 'I' for Inactive)
REMARK    1  A    between atoms: O_1  and  C_11 
REMARK    2  A    between atoms: C_4  and  C_5 
REMARK    3  A    between atoms: C_4  and  C_6 
REMARK    4  A    between atoms: C_6  and  C_12 
ROOT
ATOM      1  O   UNL A   1      12.185  11.365  13.013  1.00  0.00    -0.361 OA
ATOM      2  H   UNL A   1      12.925  11.420  13.586  1.00  0.00     0.217 HD
ENDROOT
BRANCH   1   3
ATOM      3  C   UNL A   1      12.008  10.263  12.236  1.00  0.00     0.065 A 
ATOM      4  C   UNL A   1      12.995   9.279  12.184  1.00  0.00     0.037 A 
ATOM      5  C   UNL A   1      12.815   8.149  11.387  1.00  0.00     0.010 A 
ATOM      6  C   UNL A   1      11.645   8.003  10.639  1.00  0.00    -0.058 A 
ATOM      7  C   UNL A   1      10.658   8.987  10.690  1.00  0.00     0.010 A 
ATOM      8  C   UNL A   1      10.839  10.116  11.488  1.00  0.00     0.037 A 
BRANCH   6   9
ATOM      9  C   UNL A   1      11.452   6.795   9.787  1.00  0.00     0.049 C 
BRANCH   9  10
ATOM     10  C   UNL A   1      12.197   6.858   8.449  1.00  0.00     0.117 C 
BRANCH  10  11
ATOM     11  C   UNL A   1      11.251   6.743   7.278  1.00  0.00     0.172 C 
ATOM     12  O   UNL A   1      11.864   6.321   6.144  1.00  0.00    -0.648 OA
ATOM     13  O   UNL A   1      10.052   6.980   7.345  1.00  0.00    -0.648 OA
ENDBRANCH  10  11
ENDBRANCH   9  10
ENDBRANCH   6   9
ENDBRANCH   1   3
TORSDOF 4
ENDMDL
MODEL 5
REMARK VINA RESULT:      -5.7      2.348      4.991
REMARK  4 active torsions:
REMARK  status: ('A' for Active; 'I' for Inactive)
REMARK    1  A    between atoms: O_1  and  C_11 
REMARK    2  A    between atoms: C_4  and  C_5 
REMARK    3  A    between atoms: C_4  and  C_6 
REMARK    4  A    between atoms: C_6  and  C_12 
ROOT
ATOM      1  O   UNL A   1      15.773   7.469   6.885  1.00  0.00    -0.361 OA
ATOM      2  H   UNL A   1      15.638   8.032   6.149  1.00  0.00     0.217 HD
ENDROOT
BRANCH   1   3
ATOM      3  C   UNL A   1      14.745   7.206   7.738  1.00  0.00     0.065 A 
ATOM      4  C   UNL A   1      13.440   7.128   7.254  1.00  0.00     0.037 A 
ATOM      5  C   UNL A   1      12.386   6.861   8.128  1.00  0.00     0.010 A 
ATOM      6  C   UNL A   1      12.638   6.671   9.487  1.00  0.00    -0.058 A 
ATOM      7  C   UNL A   1      13.944   6.749   9.971  1.00  0.00     0.010 A 
ATOM      8  C   UNL A   1      14.997   7.017   9.098  1.00  0.00     0.037 A 
BRANCH   6   9
ATOM      9  C   UNL A   1      11.512   6.385  10.421  1.00  0.00     0.049 C 
BRANCH   9  10
ATOM     10  C   UNL A   1      11.243   7.509  11.428  1.00  0.00     0.117 C 
BRANCH  10  11
ATOM     11  C   UNL A   1      10.541   8.679  10.782  1.00  0.00     0.172 C 
ATOM     12  O   UNL A   1       9.594   8.298   9.889  1.00  0.00    -0.648 OA
ATOM     13  O   UNL A   1      10.778   9.849  11.052  1.00  0.00    -0.648 OA
ENDBRANCH  10  11
ENDBRANCH   9  10
ENDBRANCH   6   9
ENDBRANCH   1   3
TORSDOF 4
ENDMDL
MODEL 6
REMARK VINA RESULT:      -5.7      2.664      3.352
REMARK  4 active torsions:
REMARK  status: ('A' for Active; 'I' for Inactive)
REMARK    1  A    between atoms: O_1  and  C_11 
REMARK    2  A    between atoms: C_4  and  C_5 
REMARK    3  A    between atoms: C_4  and  C_6 
REMARK    4  A    between atoms: C_6  and  C_12 
ROOT
ATOM      1  O   UNL A   1      14.720   6.348  11.890  1.00  0.00    -0.361 OA
ATOM      2  H   UNL A   1      14.989   7.097  12.385  1.00  0.00     0.217 HD
ENDROOT
BRANCH   1   3
ATOM      3  C   UNL A   1      13.691   6.452  11.006  1.00  0.00     0.065 A 
ATOM      4  C   UNL A   1      12.379   6.250  11.435  1.00  0.00     0.037 A 
ATOM      5  C   UNL A   1      11.324   6.355  10.530  1.00  0.00     0.010 A 
ATOM      6  C   UNL A   1      11.579   6.662   9.193  1.00  0.00    -0.058 A 
ATOM      7  C   UNL A   1      12.891   6.863   8.764  1.00  0.00     0.010 A 
ATOM      8  C   UNL A   1      13.946   6.759   9.669  1.00  0.00     0.037 A 
BRANCH   6   9
ATOM      9  C   UNL A   1      10.451   6.774   8.225  1.00  0.00     0.049 C 
BRANCH   9  10
ATOM     10  C   UNL A   1      10.426   5.659   7.174  1.00  0.00     0.117 C 
BRANCH  10  11
ATOM     11  C   UNL A   1      10.721   6.188   5.792  1.00  0.00     0.172 C 
ATOM     12  O   UNL A   1      10.483   7.518   5.674  1.00  0.00    -0.648 OA
ATOM     13  O   UNL A   1      11.155   5.500   4.877  1.00  0.00    -0.648 OA
ENDBRANCH  10  11
ENDBRANCH   9  10
ENDBRANCH   6   9
ENDBRANCH   1   3
TORSDOF 4
ENDMDL
MODEL 7
REMARK VINA RESULT:      -5.6      3.401      4.948
REMARK  4 active torsions:
REMARK  status: ('A' for Active; 'I' for Inactive)
REMARK    1  A    between atoms: O_1  and  C_11 
REMARK    2  A    between atoms: C_4  and  C_5 
REMARK    3  A    between atoms: C_4  and  C_6 
REMARK    4  A    between atoms: C_6  and  C_12 
ROOT
ATOM      1  O   UNL A   1       9.383   6.367   9.432  1.00  0.00    -0.361 OA
ATOM      2  H   UNL A   1       9.125   6.326  10.332  1.00  0.00     0.217 HD
ENDROOT
BRANCH   1   3
ATOM      3  C   UNL A   1      10.692   6.547   9.108  1.00  0.00     0.065 A 
ATOM      4  C   UNL A   1      11.058   6.773   7.781  1.00  0.00     0.037 A 
ATOM      5  C   UNL A   1      12.399   6.957   7.448  1.00  0.00     0.010 A 
ATOM      6  C   UNL A   1      13.377   6.913   8.443  1.00  0.00    -0.058 A 
ATOM      7  C   UNL A   1      13.012   6.687   9.769  1.00  0.00     0.010 A 
ATOM      8  C   UNL A   1      11.670   6.504  10.103  1.00  0.00     0.037 A 
BRANCH   6   9
ATOM      9  C   UNL A   1      14.812   7.110   8.087  1.00  0.00     0.049 C 
BRANCH   9  10
ATOM     10  C   UNL A   1      15.781   6.784   9.229  1.00  0.00     0.117 C 
BRANCH  10  11
ATOM     11  C   UNL A   1      17.197   7.185   8.890  1.00  0.00     0.172 C 
ATOM     12  O   UNL A   1      17.928   7.516   9.983  1.00  0.00    -0.648 OA
ATOM     13  O   UNL A   1      17.650   7.187   7.753  1.00  0.00    -0.648 OA
ENDBRANCH  10  11
ENDBRANCH   9  10
ENDBRANCH   6   9
ENDBRANCH   1   3
TORSDOF 4
ENDMDL
MODEL 8
REMARK VINA RESULT:      -5.6      3.174      4.842
REMARK  4 active torsions:
REMARK  status: ('A' for Active; 'I' for Inactive)
REMARK    1  A    between atoms: O_1  and  C_11 
REMARK    2  A    between atoms: C_4  and  C_5 
REMARK    3  A    between atoms: C_4  and  C_6 
REMARK    4  A    between atoms: C_6  and  C_12 
ROOT
ATOM      1  O   UNL A   1       9.287   6.489   9.605  1.00  0.00    -0.361 OA
ATOM      2  H   UNL A   1       9.138   6.117  10.452  1.00  0.00     0.217 HD
ENDROOT
BRANCH   1   3
ATOM      3  C   UNL A   1      10.558   6.632   9.140  1.00  0.00     0.065 A 
ATOM      4  C   UNL A   1      11.635   6.577  10.024  1.00  0.00     0.037 A 
ATOM      5  C   UNL A   1      12.938   6.724   9.548  1.00  0.00     0.010 A 
ATOM      6  C   UNL A   1      13.164   6.927   8.186  1.00  0.00    -0.058 A 
ATOM      7  C   UNL A   1      12.087   6.982   7.302  1.00  0.00     0.010 A 
ATOM      8  C   UNL A   1      10.785   6.835   7.778  1.00  0.00     0.037 A 
BRANCH   6   9
ATOM      9  C   UNL A   1      14.557   7.083   7.677  1.00  0.00     0.049 C 
BRANCH   9  10
ATOM     10  C   UNL A   1      15.527   7.677   8.705  1.00  0.00     0.117 C 
BRANCH  10  11
ATOM     11  C   UNL A   1      16.814   6.892   8.775  1.00  0.00     0.172 C 
ATOM     12  O   UNL A   1      17.641   7.141   7.729  1.00  0.00    -0.648 OA
ATOM     13  O   UNL A   1      17.099   6.130   9.690  1.00  0.00    -0.648 OA
ENDBRANCH  10  11
ENDBRANCH   9  10
ENDBRANCH   6   9
ENDBRANCH   1   3
TORSDOF 4
ENDMDL
MODEL 9
REMARK VINA RESULT:      -5.5      3.322      5.542
REMARK  4 active torsions:
REMARK  status: ('A' for Active; 'I' for Inactive)
REMARK    1  A    between atoms: O_1  and  C_11 
REMARK    2  A    between atoms: C_4  and  C_5 
REMARK    3  A    between atoms: C_4  and  C_6 
REMARK    4  A    between atoms: C_6  and  C_12 
ROOT
ATOM      1  O   UNL A   1      18.385   6.901   7.627  1.00  0.00    -0.361 OA
ATOM      2  H   UNL A   1      19.061   7.317   8.125  1.00  0.00     0.217 HD
ENDROOT
BRANCH   1   3
ATOM      3  C   UNL A   1      17.101   6.918   8.077  1.00  0.00     0.065 A 
ATOM      4  C   UNL A   1      16.826   6.636   9.415  1.00  0.00     0.037 A 
ATOM      5  C   UNL A   1      15.510   6.652   9.876  1.00  0.00     0.010 A 
ATOM      6  C   UNL A   1      14.467   6.951   8.998  1.00  0.00    -0.058 A 
ATOM      7  C   UNL A   1      14.742   7.233   7.660  1.00  0.00     0.010 A 
ATOM      8  C   UNL A   1      16.058   7.217   7.199  1.00  0.00     0.037 A 
BRANCH   6   9
ATOM      9  C   UNL A   1      13.060   6.969   9.491  1.00  0.00     0.049 C 
BRANCH   9  10
ATOM     10  C   UNL A   1      12.069   7.599   8.506  1.00  0.00     0.117 C 
BRANCH  10  11
ATOM     11  C   UNL A   1      10.811   6.774   8.376  1.00  0.00     0.172 C 
ATOM     12  O   UNL A   1      10.529   6.062   9.496  1.00  0.00    -0.648 OA
ATOM     13  O   UNL A   1      10.102   6.765   7.378  1.00  0.00    -0.648 OA
ENDBRANCH  10  11
ENDBRANCH   9  10
ENDBRANCH   6   9
ENDBRANCH   1   3
TORSDOF 4
ENDMDL
