MODEL 1
REMARK VINA RESULT:      -5.8      0.000      0.000
REMARK  4 active torsions:
REMARK  status: ('A' for Active; 'I' for Inactive)
REMARK    1  A    between atoms: O_1  and  C_11 
REMARK    2  A    between atoms: C_4  and  C_5 
REMARK    3  A    between atoms: C_4  and  C_6 
REMARK    4  A    between atoms: C_6  and  C_12 
ROOT
ATOM      1  O   UNL A   1      18.687   6.349  12.482  1.00  0.00    -0.361 OA
ATOM      2  H   UNL A   1      18.892   7.260  12.561  1.00  0.00     0.217 HD
ENDROOT
BRANCH   1   3
ATOM      3  C   UNL A   1      17.439   5.964  12.100  1.00  0.00     0.065 A 
ATOM      4  C   UNL A   1      16.460   5.716  13.062  1.00  0.00     0.037 A 
ATOM      5  C   UNL A   1      15.182   5.321  12.671  1.00  0.00     0.010 A 
ATOM      6  C   UNL A   1      14.881   5.172  11.316  1.00  0.00    -0.058 A 
ATOM      7  C   UNL A   1      15.860   5.419  10.355  1.00  0.00     0.010 A 
ATOM      8  C   UNL A   1      17.139   5.815  10.745  1.00  0.00     0.037 A 
BRANCH   6   9
ATOM      9  C   UNL A   1      13.514   4.749  10.898  1.00  0.00     0.049 C 
BRANCH   9  10
ATOM     10  C   UNL A   1      13.334   4.660   9.378  1.00  0.00     0.117 C 
BRANCH  10  11
ATOM     11  C   UNL A   1      13.380   3.230   8.894  1.00  0.00     0.172 C 
ATOM     12  O   UNL A   1      14.097   3.082   7.753  1.00  0.00    -0.648 OA
ATOM     13  O   UNL A   1      12.850   2.295   9.480  1.00  0.00    -0.648 OA
ENDBRANCH  10  11
ENDBRANCH   9  10
ENDBRANCH   6   9
ENDBRANCH   1   3
TORSDOF 4
ENDMDL
MODEL 2
REMARK VINA RESULT:      -5.8      3.676      4.571
REMARK  4 active torsions:
REMARK  status: ('A' for Active; 'I' for Inactive)
REMARK    1  A    between atoms: O_1  and  C_11 
REMARK    2  A    between atoms: C_4  and  C_5 
REMARK    3  A    between atoms: C_4  and  C_6 
REMARK    4  A    between atoms: C_6  and  C_12 
ROOT
ATOM      1  O   UNL A   1      11.203   7.263  16.385  1.00  0.00    -0.361 OA
ATOM      2  H   UNL A   1      10.596   7.972  16.462  1.00  0.00     0.217 HD
ENDROOT
BRANCH   1   3
ATOM      3  C   UNL A   1      11.912   7.096  15.235  1.00  0.00     0.065 A 
ATOM      4  C   UNL A   1      11.521   7.760  14.072  1.00  0.00     0.037 A 
ATOM      5  C   UNL A   1      12.245   7.588  12.893  1.00  0.00     0.010 A 
ATOM      6  C   UNL A   1      13.362   6.752  12.876  1.00  0.00    -0.058 A 
ATOM      7  C   UNL A   1      13.753   6.088  14.039  1.00  0.00     0.010 A 
ATOM      8  C   UNL A   1      13.028   6.260  15.218  1.00  0.00     0.037 A 
BRANCH   6   9
ATOM      9  C   UNL A   1      14.137   6.569  11.616  1.00  0.00     0.049 C 
BRANCH   9  10
ATOM     10  C   UNL A   1      14.417   5.102  11.271  1.00  0.00     0.117 C 
BRANCH  10  11
ATOM     11  C   UNL A   1      13.688   4.675  10.019  1.00  0.00     0.172 C 
ATOM     12  O   UNL A   1      12.343   4.611  10.188  1.00  0.00    -0.648 OA
ATOM     13  O   UNL A   1      14.243   4.436   8.955  1.00  0.00    -0.648 OA
ENDBRANCH  10  11
ENDBRANCH   9  10
ENDBRANCH   6   9
ENDBRANCH   1   3
TORSDOF 4
ENDMDL
MODEL 3
REMARK VINA RESULT:      -5.8      2.841      3.515
REMARK  4 active torsions:
REMARK  status: ('A' for Active; 'I' for Inactive)
REMARK    1  A    between atoms: O_1  and  C_11 
REMARK    2  A    between atoms: C_4  and  C_5 
REMARK    3  A    between atoms: C_4  and  C_6 
REMARK    4  A    between atoms: C_6  and  C_12 
ROOT
ATOM      1  O   UNL A   1      18.060   5.980   9.922  1.00  0.00    -0.361 OA
ATOM      2  H   UNL A   1      18.888   6.045  10.356  1.00  0.00     0.217 HD
ENDROOT
BRANCH   1   3
ATOM      3  C   UNL A   1      16.937   5.699  10.637  1.00  0.00     0.065 A 
ATOM      4  C   UNL A   1      16.949   5.813  12.027  1.00  0.00     0.037 A 
ATOM      5  C   UNL A   1      15.799   5.525  12.761  1.00  0.00     0.010 A 
ATOM      6  C   UNL A   1      14.635   5.121  12.105  1.00  0.00    -0.058 A 
ATOM      7  C   UNL A   1      14.624   5.007  10.715  1.00  0.00     0.010 A 
ATOM      8  C   UNL A   1      15.774   5.295   9.981  1.00  0.00     0.037 A 
BRANCH   6   9
ATOM      9  C   UNL A   1      13.406   4.813  12.889  1.00  0.00     0.049 C 
BRANCH   9  10
ATOM     10  C   UNL A   1      12.806   6.031  13.601  1.00  0.00     0.117 C 
BRANCH  10  11
ATOM     11  C   UNL A   1      11.959   6.862  12.667  1.00  0.00     0.172 C 
ATOM     12  O   UNL A   1      11.262   6.110  11.778  1.00  0.00    -0.648 OA
ATOM     13  O   UNL A   1      11.884   8.082  12.718  1.00  0.00    -0.648 OA
ENDBRANCH  10  11
ENDBRANCH   9  10
ENDBRANCH   6   9
ENDBRANCH   1   3
TORSDOF 4
ENDMDL
MODEL 4
REMARK VINA RESULT:      -5.7      0.385      1.447
REMARK  4 active torsions:
REMARK  status: ('A' for Active; 'I' for Inactive)
REMARK    1  A    between atoms: O_1  and  C_11 
REMARK    2  A    between atoms: C_4  and  C_5 
REMARK    3  A    between atoms: C_4  and  C_6 
REMARK    4  A    between atoms: C_6  and  C_12 
ROOT
ATOM      1  O   UNL A   1      19.114   6.399  12.508  1.00  0.00    -0.361 OA
ATOM      2  H   UNL A   1      19.721   6.685  11.854  1.00  0.00     0.217 HD
ENDROOT
BRANCH   1   3
ATOM      3  C   UNL A   1      17.853   6.033  12.151  1.00  0.00     0.065 A 
ATOM      4  C   UNL A   1      17.523   5.888  10.804  1.00  0.00     0.037 A 
ATOM      5  C   UNL A   1      16.231   5.514  10.437  1.00  0.00     0.010 A 
ATOM      6  C   UNL A   1      15.266   5.285  11.418  1.00  0.00    -0.058 A 
ATOM      7  C   UNL A   1      15.595   5.430  12.766  1.00  0.00     0.010 A 
ATOM      8  C   UNL A   1      16.888   5.804  13.133  1.00  0.00     0.037 A 
BRANCH   6   9
ATOM      9  C   UNL A   1      13.885   4.885  11.027  1.00  0.00     0.049 C 
BRANCH   9  10
ATOM     10  C   UNL A   1      13.654   4.863   9.511  1.00  0.00     0.117 C 
BRANCH  10  11
ATOM     11  C   UNL A   1      13.443   3.458   9.000  1.00  0.00     0.172 C 
ATOM     12  O   UNL A   1      14.098   3.217   7.837  1.00  0.00    -0.648 OA
ATOM     13  O   UNL A   1      12.776   2.614   9.582  1.00  0.00    -0.648 OA
ENDBRANCH  10  11
ENDBRANCH   9  10
ENDBRANCH   6   9
ENDBRANCH   1   3
TORSDOF 4
ENDMDL
MODEL 5
REMARK VINA RESULT:      -5.7      3.275      3.952
REMARK  4 active torsions:
REMARK  status: ('A' for Active; 'I' for Inactive)
REMARK    1  A    between atoms: O_1  and  C_11 
REMARK    2  A    between atoms: C_4  and  C_5 
REMARK    3  A    between atoms: C_4  and  C_6 
REMARK    4  A    between atoms: C_6  and  C_12 
ROOT
ATOM      1  O   UNL A   1      12.747   9.887  14.624  1.00  0.00    -0.361 OA
ATOM      2  H   UNL A   1      13.104   9.994  15.484  1.00  0.00     0.217 HD
ENDROOT
BRANCH   1   3
ATOM      3  C   UNL A   1      12.872   8.696  13.979  1.00  0.00     0.065 A 
ATOM      4  C   UNL A   1      14.034   7.939  14.130  1.00  0.00     0.037 A 
ATOM      5  C   UNL A   1      14.164   6.718  13.468  1.00  0.00     0.010 A 
ATOM      6  C   UNL A   1      13.130   6.253  12.654  1.00  0.00    -0.058 A 
ATOM      7  C   UNL A   1      11.969   7.010  12.503  1.00  0.00     0.010 A 
ATOM      8  C   UNL A   1      11.839   8.231  13.164  1.00  0.00     0.037 A 
BRANCH   6   9
ATOM      9  C   UNL A   1      13.268   4.948  11.947  1.00  0.00     0.049 C 
BRANCH   9  10
ATOM     10  C   UNL A   1      14.307   4.963  10.820  1.00  0.00     0.117 C 
BRANCH  10  11
ATOM     11  C   UNL A   1      13.752   4.380   9.542  1.00  0.00     0.172 C 
ATOM     12  O   UNL A   1      12.411   4.546   9.426  1.00  0.00    -0.648 OA
ATOM     13  O   UNL A   1      14.439   3.838   8.686  1.00  0.00    -0.648 OA
ENDBRANCH  10  11
ENDBRANCH   9  10
ENDBRANCH   6   9
ENDBRANCH   1   3
TORSDOF 4
ENDMDL
MODEL 6
REMARK VINA RESULT:      -5.7      2.887      3.717
REMARK  4 active torsions:
REMARK  status: ('A' for Active; 'I' for Inactive)
REMARK    1  A    between atoms: O_1  and  C_11 
REMARK    2  A    between atoms: C_4  and  C_5 
REMARK    3  A    between atoms: C_4  and  C_6 
REMARK    4  A    between atoms: C_6  and  C_12 
ROOT
ATOM      1  O   UNL A   1      17.826   6.057   9.932  1.00  0.00    -0.361 OA
ATOM      2  H   UNL A   1      17.705   6.442   9.086  1.00  0.00     0.217 HD
ENDROOT
BRANCH   1   3
ATOM      3  C   UNL A   1      16.745   5.740  10.695  1.00  0.00     0.065 A 
ATOM      4  C   UNL A   1      15.571   5.292  10.091  1.00  0.00     0.037 A 
ATOM      5  C   UNL A   1      14.462   4.968  10.871  1.00  0.00     0.010 A 
ATOM      6  C   UNL A   1      14.527   5.093  12.260  1.00  0.00    -0.058 A 
ATOM      7  C   UNL A   1      15.700   5.542  12.865  1.00  0.00     0.010 A 
ATOM      8  C   UNL A   1      16.809   5.866  12.084  1.00  0.00     0.037 A 
BRANCH   6   9
ATOM      9  C   UNL A   1      13.342   4.747  13.096  1.00  0.00     0.049 C 
BRANCH   9  10
ATOM     10  C   UNL A   1      12.640   5.964  13.707  1.00  0.00     0.117 C 
BRANCH  10  11
ATOM     11  C   UNL A   1      11.891   6.758  12.664  1.00  0.00     0.172 C 
ATOM     12  O   UNL A   1      12.046   8.098  12.808  1.00  0.00    -0.648 OA
ATOM     13  O   UNL A   1      11.233   6.251  11.765  1.00  0.00    -0.648 OA
ENDBRANCH  10  11
ENDBRANCH   9  10
ENDBRANCH   6   9
ENDBRANCH   1   3
TORSDOF 4
ENDMDL
MODEL 7
REMARK VINA RESULT:      -5.6      1.910      5.392
REMARK  4 active torsions:
REMARK  status: ('A' for Active; 'I' for Inactive)
REMARK    1  A    between atoms: O_1  and  C_11 
REMARK    2  A    between atoms: C_4  and  C_5 
REMARK    3  A    between atoms: C_4  and  C_6 
REMARK    4  A    between atoms: C_6  and  C_12 
ROOT
ATOM      1  O   UNL A   1      11.530   4.243  11.540  1.00  0.00    -0.361 OA
ATOM      2  H   UNL A   1      10.916   4.838  11.925  1.00  0.00     0.217 HD
ENDROOT
BRANCH   1   3
ATOM      3  C   UNL A   1      12.832   4.610  11.393  1.00  0.00     0.065 A 
ATOM      4  C   UNL A   1      13.385   4.723  10.118  1.00  0.00     0.037 A 
ATOM      5  C   UNL A   1      14.719   5.098   9.966  1.00  0.00     0.010 A 
ATOM      6  C   UNL A   1      15.503   5.359  11.090  1.00  0.00    -0.058 A 
ATOM      7  C   UNL A   1      14.950   5.245  12.366  1.00  0.00     0.010 A 
ATOM      8  C   UNL A   1      13.616   4.871  12.518  1.00  0.00     0.037 A 
BRANCH   6   9
ATOM      9  C   UNL A   1      16.929   5.760  10.928  1.00  0.00     0.049 C 
BRANCH   9  10
ATOM     10  C   UNL A   1      17.715   5.792  12.244  1.00  0.00     0.117 C 
BRANCH  10  11
ATOM     11  C   UNL A   1      19.204   5.710  12.006  1.00  0.00     0.172 C 
ATOM     12  O   UNL A   1      19.828   4.858  12.858  1.00  0.00    -0.648 OA
ATOM     13  O   UNL A   1      19.788   6.324  11.123  1.00  0.00    -0.648 OA
ENDBRANCH  10  11
ENDBRANCH   9  10
ENDBRANCH   6   9
ENDBRANCH   1   3
TORSDOF 4
ENDMDL
MODEL 8
REMARK VINA RESULT:      -5.6      3.112      3.997
REMARK  4 active torsions:
REMARK  status: ('A' for Active; 'I' for Inactive)
REMARK    1  A    between atoms: O_1  and  C_11 
REMARK    2  A    between atoms: C_4  and  C_5 
REMARK    3  A    between atoms: C_4  and  C_6 
REMARK    4  A    between atoms: C_6  and  C_12 
ROOT
ATOM      1  O   UNL A   1      11.521   6.634  15.719  1.00  0.00    -0.361 OA
ATOM      2  H   UNL A   1      12.037   7.093  16.352  1.00  0.00     0.217 HD
ENDROOT
BRANCH   1   3
ATOM      3  C   UNL A   1      12.077   6.254  14.536  1.00  0.00     0.065 A 
ATOM      4  C   UNL A   1      11.883   7.029  13.393  1.00  0.00     0.037 A 
ATOM      5  C   UNL A   1      12.451   6.640  12.180  1.00  0.00     0.010 A 
ATOM      6  C   UNL A   1      13.215   5.474  12.110  1.00  0.00    -0.058 A 
ATOM      7  C   UNL A   1      13.409   4.699  13.253  1.00  0.00     0.010 A 
ATOM      8  C   UNL A   1      12.841   5.088  14.466  1.00  0.00     0.037 A 
BRANCH   6   9
ATOM      9  C   UNL A   1      13.823   5.058  10.814  1.00  0.00     0.049 C 
BRANCH   9  10
ATOM     10  C   UNL A   1      13.053   3.940  10.101  1.00  0.00     0.117 C 
BRANCH  10  11
ATOM     11  C   UNL A   1      13.310   3.948   8.613  1.00  0.00     0.172 C 
ATOM     12  O   UNL A   1      12.753   5.015   7.988  1.00  0.00    -0.648 OA
ATOM     13  O   UNL A   1      13.973   3.099   8.032  1.00  0.00    -0.648 OA
ENDBRANCH  10  11
ENDBRANCH   9  10
ENDBRANCH   6   9
ENDBRANCH   1   3
TORSDOF 4
ENDMDL
MODEL 9
REMARK VINA RESULT:      -5.6      3.214      3.873
REMARK  4 active torsions:
REMARK  status: ('A' for Active; 'I' for Inactive)
REMARK    1  A    between atoms: O_1  and  C_11 
REMARK    2  A    between atoms: C_4  and  C_5 
REMARK    3  A    between atoms: C_4  and  C_6 
REMARK    4  A    between atoms: C_6  and  C_12 
ROOT
ATOM      1  O   UNL A   1      12.504   9.729  14.583  1.00  0.00    -0.361 OA
ATOM      2  H   UNL A   1      13.175  10.357  14.769  1.00  0.00     0.217 HD
ENDROOT
BRANCH   1   3
ATOM      3  C   UNL A   1      12.821   8.561  13.962  1.00  0.00     0.065 A 
ATOM      4  C   UNL A   1      11.909   7.961  13.095  1.00  0.00     0.037 A 
ATOM      5  C   UNL A   1      12.232   6.763  12.459  1.00  0.00     0.010 A 
ATOM      6  C   UNL A   1      13.471   6.162  12.691  1.00  0.00    -0.058 A 
ATOM      7  C   UNL A   1      14.383   6.762  13.558  1.00  0.00     0.010 A 
ATOM      8  C   UNL A   1      14.060   7.960  14.194  1.00  0.00     0.037 A 
BRANCH   6   9
ATOM      9  C   UNL A   1      13.818   4.882  12.011  1.00  0.00     0.049 C 
BRANCH   9  10
ATOM     10  C   UNL A   1      14.461   5.069  10.633  1.00  0.00     0.117 C 
BRANCH  10  11
ATOM     11  C   UNL A   1      13.625   4.449   9.539  1.00  0.00     0.172 C 
ATOM     12  O   UNL A   1      14.369   3.788   8.617  1.00  0.00    -0.648 OA
ATOM     13  O   UNL A   1      12.404   4.511   9.497  1.00  0.00    -0.648 OA
ENDBRANCH  10  11
ENDBRANCH   9  10
ENDBRANCH   6   9
ENDBRANCH   1   3
TORSDOF 4
ENDMDL
