MODEL 1
REMARK VINA RESULT:      -5.8      0.000      0.000
REMARK  4 active torsions:
REMARK  status: ('A' for Active; 'I' for Inactive)
REMARK    1  A    between atoms: O_1  and  C_11 
REMARK    2  A    between atoms: C_4  and  C_5 
REMARK    3  A    between atoms: C_4  and  C_6 
REMARK    4  A    between atoms: C_6  and  C_12 
ROOT
ATOM      1  O   UNL A   1      10.482   8.492  14.565  1.00  0.00    -0.361 OA
ATOM      2  H   UNL A   1      10.233   7.702  15.002  1.00  0.00     0.217 HD
ENDROOT
BRANCH   1   3
ATOM      3  C   UNL A   1      10.949   8.444  13.287  1.00  0.00     0.065 A 
ATOM      4  C   UNL A   1      10.803   9.549  12.449  1.00  0.00     0.037 A 
ATOM      5  C   UNL A   1      11.280   9.500  11.139  1.00  0.00     0.010 A 
ATOM      6  C   UNL A   1      11.903   8.344  10.667  1.00  0.00    -0.058 A 
ATOM      7  C   UNL A   1      12.049   7.239  11.505  1.00  0.00     0.010 A 
ATOM      8  C   UNL A   1      11.572   7.288  12.815  1.00  0.00     0.037 A 
BRANCH   6   9
ATOM      9  C   UNL A   1      12.413   8.291   9.267  1.00  0.00     0.049 C 
BRANCH   9  10
ATOM     10  C   UNL A   1      12.400   6.884   8.658  1.00  0.00     0.117 C 
BRANCH  10  11
ATOM     11  C   UNL A   1      11.420   6.782   7.513  1.00  0.00     0.172 C 
ATOM     12  O   UNL A   1      10.131   6.935   7.907  1.00  0.00    -0.648 OA
ATOM     13  O   UNL A   1      11.750   6.607   6.348  1.00  0.00    -0.648 OA
ENDBRANCH  10  11
ENDBRANCH   9  10
ENDBRANCH   6   9
ENDBRANCH   1   3
TORSDOF 4
ENDMDL
MODEL 2
REMARK VINA RESULT:      -5.8      0.174      1.674
REMARK  4 active torsions:
REMARK  status: ('A' for Active; 'I' for Inactive)
REMARK    1  A    between atoms: O_1  and  C_11 
REMARK    2  A    between atoms: C_4  and  C_5 
REMARK    3  A    between atoms: C_4  and  C_6 
REMARK    4  A    between atoms: C_6  and  C_12 
ROOT
ATOM      1  O   UNL A   1      10.488   8.481  14.553  1.00  0.00    -0.361 OA
ATOM      2  H   UNL A   1      11.068   8.453  15.289  1.00  0.00     0.217 HD
ENDROOT
BRANCH   1   3
ATOM      3  C   UNL A   1      10.990   8.442  13.290  1.00  0.00     0.065 A 
ATOM      4  C   UNL A   1      11.815   7.387  12.899  1.00  0.00     0.037 A 
ATOM      5  C   UNL A   1      12.331   7.346  11.604  1.00  0.00     0.010 A 
ATOM      6  C   UNL A   1      12.024   8.362  10.698  1.00  0.00    -0.058 A 
ATOM      7  C   UNL A   1      11.199   9.417  11.089  1.00  0.00     0.010 A 
ATOM      8  C   UNL A   1      10.683   9.458  12.384  1.00  0.00     0.037 A 
BRANCH   6   9
ATOM      9  C   UNL A   1      12.575   8.319   9.314  1.00  0.00     0.049 C 
BRANCH   9  10
ATOM     10  C   UNL A   1      12.469   6.941   8.650  1.00  0.00     0.117 C 
BRANCH  10  11
ATOM     11  C   UNL A   1      11.307   6.875   7.687  1.00  0.00     0.172 C 
ATOM     12  O   UNL A   1      11.700   6.733   6.397  1.00  0.00    -0.648 OA
ATOM     13  O   UNL A   1      10.133   6.917   8.031  1.00  0.00    -0.648 OA
ENDBRANCH  10  11
ENDBRANCH   9  10
ENDBRANCH   6   9
ENDBRANCH   1   3
TORSDOF 4
ENDMDL
MODEL 3
REMARK VINA RESULT:      -5.7      3.372      4.234
REMARK  4 active torsions:
REMARK  status: ('A' for Active; 'I' for Inactive)
REMARK    1  A    between atoms: O_1  and  C_11 
REMARK    2  A    between atoms: C_4  and  C_5 
REMARK    3  A    between atoms: C_4  and  C_6 
REMARK    4  A    between atoms: C_6  and  C_12 
ROOT
ATOM      1  O   UNL A   1      16.416   6.894   9.704  1.00  0.00    -0.361 OA
ATOM      2  H   UNL A   1      16.975   7.587   9.410  1.00  0.00     0.217 HD
ENDROOT
BRANCH   1   3
ATOM      3  C   UNL A   1      15.095   6.903   9.381  1.00  0.00     0.065 A 
ATOM      4  C   UNL A   1      14.134   6.674  10.365  1.00  0.00     0.037 A 
ATOM      5  C   UNL A   1      12.779   6.682  10.035  1.00  0.00     0.010 A 
ATOM      6  C   UNL A   1      12.384   6.920   8.718  1.00  0.00    -0.058 A 
ATOM      7  C   UNL A   1      13.345   7.149   7.733  1.00  0.00     0.010 A 
ATOM      8  C   UNL A   1      14.699   7.141   8.064  1.00  0.00     0.037 A 
BRANCH   6   9
ATOM      9  C   UNL A   1      10.936   6.929   8.364  1.00  0.00     0.049 C 
BRANCH   9  10
ATOM     10  C   UNL A   1      10.551   5.886   7.308  1.00  0.00     0.117 C 
BRANCH  10  11
ATOM     11  C   UNL A   1      10.577   6.468   5.915  1.00  0.00     0.172 C 
ATOM     12  O   UNL A   1      11.007   5.583   4.982  1.00  0.00    -0.648 OA
ATOM     13  O   UNL A   1      10.222   7.609   5.647  1.00  0.00    -0.648 OA
ENDBRANCH  10  11
ENDBRANCH   9  10
ENDBRANCH   6   9
ENDBRANCH   1   3
TORSDOF 4
ENDMDL
MODEL 4
REMARK VINA RESULT:      -5.7      1.547      1.956
REMARK  4 active torsions:
REMARK  status: ('A' for Active; 'I' for Inactive)
REMARK    1  A    between atoms: O_1  and  C_11 
REMARK    2  A    between atoms: C_4  and  C_5 
REMARK    3  A    between atoms: C_4  and  C_6 
REMARK    4  A    between atoms: C_6  and  C_12 
ROOT
ATOM      1  O   UNL A   1      12.073  11.189  13.013  1.00  0.00    -0.361 OA
ATOM      2  H   UNL A   1      12.439  11.988  12.687  1.00  0.00     0.217 HD
ENDROOT
BRANCH   1   3
ATOM      3  C   UNL A   1      11.942  10.115  12.189  1.00  0.00     0.065 A 
ATOM      4  C   UNL A   1      12.994   9.209  12.050  1.00  0.00     0.037 A 
ATOM      5  C   UNL A   1      12.861   8.108  11.205  1.00  0.00     0.010 A 
ATOM      6  C   UNL A   1      11.675   7.913  10.495  1.00  0.00    -0.058 A 
ATOM      7  C   UNL A   1      10.624   8.818  10.634  1.00  0.00     0.010 A 
ATOM      8  C   UNL A   1      10.757   9.919  11.479  1.00  0.00     0.037 A 
BRANCH   6   9
ATOM      9  C   UNL A   1      11.532   6.736   9.592  1.00  0.00     0.049 C 
BRANCH   9  10
ATOM     10  C   UNL A   1      12.278   6.885   8.261  1.00  0.00     0.117 C 
BRANCH  10  11
ATOM     11  C   UNL A   1      11.366   6.644   7.081  1.00  0.00     0.172 C 
ATOM     12  O   UNL A   1      10.076   6.976   7.335  1.00  0.00    -0.648 OA
ATOM     13  O   UNL A   1      11.750   6.218   6.000  1.00  0.00    -0.648 OA
ENDBRANCH  10  11
ENDBRANCH   9  10
ENDBRANCH   6   9
ENDBRANCH   1   3
TORSDOF 4
ENDMDL
MODEL 5
REMARK VINA RESULT:      -5.7      2.323      5.031
REMARK  4 active torsions:
REMARK  status: ('A' for Active; 'I' for Inactive)
REMARK    1  A    between atoms: O_1  and  C_11 
REMARK    2  A    between atoms: C_4  and  C_5 
REMARK    3  A    between atoms: C_4  and  C_6 
REMARK    4  A    between atoms: C_6  and  C_12 
ROOT
ATOM      1  O   UNL A   1      15.805   7.485   6.950  1.00  0.00    -0.361 OA
ATOM      2  H   UNL A   1      15.883   7.010   6.146  1.00  0.00     0.217 HD
ENDROOT
BRANCH   1   3
ATOM      3  C   UNL A   1      14.778   7.217   7.800  1.00  0.00     0.065 A 
ATOM      4  C   UNL A   1      15.029   7.017   9.158  1.00  0.00     0.037 A 
ATOM      5  C   UNL A   1      13.977   6.740  10.030  1.00  0.00     0.010 A 
ATOM      6  C   UNL A   1      12.671   6.663   9.545  1.00  0.00    -0.058 A 
ATOM      7  C   UNL A   1      12.419   6.862   8.188  1.00  0.00     0.010 A 
ATOM      8  C   UNL A   1      13.471   7.139   7.315  1.00  0.00     0.037 A 
BRANCH   6   9
ATOM      9  C   UNL A   1      11.546   6.367  10.477  1.00  0.00     0.049 C 
BRANCH   9  10
ATOM     10  C   UNL A   1      11.237   7.509  11.453  1.00  0.00     0.117 C 
BRANCH  10  11
ATOM     11  C   UNL A   1      10.546   8.660  10.764  1.00  0.00     0.172 C 
ATOM     12  O   UNL A   1       9.583   8.256   9.899  1.00  0.00    -0.648 OA
ATOM     13  O   UNL A   1      10.805   9.837  10.978  1.00  0.00    -0.648 OA
ENDBRANCH  10  11
ENDBRANCH   9  10
ENDBRANCH   6   9
ENDBRANCH   1   3
TORSDOF 4
ENDMDL
MODEL 6
REMARK VINA RESULT:      -5.6      1.032      1.833
REMARK  4 active torsions:
REMARK  status: ('A' for Active; 'I' for Inactive)
REMARK    1  A    between atoms: O_1  and  C_11 
REMARK    2  A    between atoms: C_4  and  C_5 
REMARK    3  A    between atoms: C_4  and  C_6 
REMARK    4  A    between atoms: C_6  and  C_12 
ROOT
ATOM      1  O   UNL A   1      10.767   8.477  14.721  1.00  0.00    -0.361 OA
ATOM      2  H   UNL A   1       9.913   8.515  15.104  1.00  0.00     0.217 HD
ENDROOT
BRANCH   1   3
ATOM      3  C   UNL A   1      10.905   8.223  13.391  1.00  0.00     0.065 A 
ATOM      4  C   UNL A   1      11.477   7.025  12.964  1.00  0.00     0.037 A 
ATOM      5  C   UNL A   1      11.619   6.765  11.602  1.00  0.00     0.010 A 
ATOM      6  C   UNL A   1      11.189   7.704  10.663  1.00  0.00    -0.058 A 
ATOM      7  C   UNL A   1      10.617   8.903  11.090  1.00  0.00     0.010 A 
ATOM      8  C   UNL A   1      10.474   9.163  12.452  1.00  0.00     0.037 A 
BRANCH   6   9
ATOM      9  C   UNL A   1      11.340   7.426   9.207  1.00  0.00     0.049 C 
BRANCH   9  10
ATOM     10  C   UNL A   1      12.759   7.015   8.800  1.00  0.00     0.117 C 
BRANCH  10  11
ATOM     11  C   UNL A   1      12.947   7.064   7.303  1.00  0.00     0.172 C 
ATOM     12  O   UNL A   1      11.820   7.430   6.642  1.00  0.00    -0.648 OA
ATOM     13  O   UNL A   1      14.008   6.825   6.741  1.00  0.00    -0.648 OA
ENDBRANCH  10  11
ENDBRANCH   9  10
ENDBRANCH   6   9
ENDBRANCH   1   3
TORSDOF 4
ENDMDL
MODEL 7
REMARK VINA RESULT:      -5.6      3.773      4.961
REMARK  4 active torsions:
REMARK  status: ('A' for Active; 'I' for Inactive)
REMARK    1  A    between atoms: O_1  and  C_11 
REMARK    2  A    between atoms: C_4  and  C_5 
REMARK    3  A    between atoms: C_4  and  C_6 
REMARK    4  A    between atoms: C_6  and  C_12 
ROOT
ATOM      1  O   UNL A   1      17.780   7.173   8.774  1.00  0.00    -0.361 OA
ATOM      2  H   UNL A   1      18.195   8.013   8.791  1.00  0.00     0.217 HD
ENDROOT
BRANCH   1   3
ATOM      3  C   UNL A   1      16.423   7.087   8.724  1.00  0.00     0.065 A 
ATOM      4  C   UNL A   1      15.693   6.872   9.892  1.00  0.00     0.037 A 
ATOM      5  C   UNL A   1      14.303   6.782   9.841  1.00  0.00     0.010 A 
ATOM      6  C   UNL A   1      13.640   6.907   8.619  1.00  0.00    -0.058 A 
ATOM      7  C   UNL A   1      14.370   7.122   7.450  1.00  0.00     0.010 A 
ATOM      8  C   UNL A   1      15.761   7.212   7.502  1.00  0.00     0.037 A 
BRANCH   6   9
ATOM      9  C   UNL A   1      12.153   6.812   8.564  1.00  0.00     0.049 C 
BRANCH   9  10
ATOM     10  C   UNL A   1      11.559   7.218   7.211  1.00  0.00     0.117 C 
BRANCH  10  11
ATOM     11  C   UNL A   1      10.851   6.063   6.544  1.00  0.00     0.172 C 
ATOM     12  O   UNL A   1      11.062   6.018   5.204  1.00  0.00    -0.648 OA
ATOM     13  O   UNL A   1      10.179   5.236   7.146  1.00  0.00    -0.648 OA
ENDBRANCH  10  11
ENDBRANCH   9  10
ENDBRANCH   6   9
ENDBRANCH   1   3
TORSDOF 4
ENDMDL
MODEL 8
REMARK VINA RESULT:      -5.6      2.447      3.045
REMARK  4 active torsions:
REMARK  status: ('A' for Active; 'I' for Inactive)
REMARK    1  A    between atoms: O_1  and  C_11 
REMARK    2  A    between atoms: C_4  and  C_5 
REMARK    3  A    between atoms: C_4  and  C_6 
REMARK    4  A    between atoms: C_6  and  C_12 
ROOT
ATOM      1  O   UNL A   1      11.558   4.730  13.401  1.00  0.00    -0.361 OA
ATOM      2  H   UNL A   1      11.221   3.885  13.627  1.00  0.00     0.217 HD
ENDROOT
BRANCH   1   3
ATOM      3  C   UNL A   1      11.358   5.230  12.151  1.00  0.00     0.065 A 
ATOM      4  C   UNL A   1      10.303   4.758  11.371  1.00  0.00     0.037 A 
ATOM      5  C   UNL A   1      10.098   5.269  10.090  1.00  0.00     0.010 A 
ATOM      6  C   UNL A   1      10.950   6.253   9.587  1.00  0.00    -0.058 A 
ATOM      7  C   UNL A   1      12.005   6.725  10.367  1.00  0.00     0.010 A 
ATOM      8  C   UNL A   1      12.210   6.214  11.649  1.00  0.00     0.037 A 
BRANCH   6   9
ATOM      9  C   UNL A   1      10.731   6.800   8.218  1.00  0.00     0.049 C 
BRANCH   9  10
ATOM     10  C   UNL A   1      10.395   5.731   7.172  1.00  0.00     0.117 C 
BRANCH  10  11
ATOM     11  C   UNL A   1      10.686   6.211   5.771  1.00  0.00     0.172 C 
ATOM     12  O   UNL A   1      10.440   7.534   5.605  1.00  0.00    -0.648 OA
ATOM     13  O   UNL A   1      11.122   5.492   4.881  1.00  0.00    -0.648 OA
ENDBRANCH  10  11
ENDBRANCH   9  10
ENDBRANCH   6   9
ENDBRANCH   1   3
TORSDOF 4
ENDMDL
MODEL 9
REMARK VINA RESULT:      -5.6      3.208      4.770
REMARK  4 active torsions:
REMARK  status: ('A' for Active; 'I' for Inactive)
REMARK    1  A    between atoms: O_1  and  C_11 
REMARK    2  A    between atoms: C_4  and  C_5 
REMARK    3  A    between atoms: C_4  and  C_6 
REMARK    4  A    between atoms: C_6  and  C_12 
ROOT
ATOM      1  O   UNL A   1       9.316   6.299   9.587  1.00  0.00    -0.361 OA
ATOM      2  H   UNL A   1       9.001   5.426   9.719  1.00  0.00     0.217 HD
ENDROOT
BRANCH   1   3
ATOM      3  C   UNL A   1      10.575   6.503   9.114  1.00  0.00     0.065 A 
ATOM      4  C   UNL A   1      10.786   6.689   7.748  1.00  0.00     0.037 A 
ATOM      5  C   UNL A   1      12.076   6.897   7.261  1.00  0.00     0.010 A 
ATOM      6  C   UNL A   1      13.158   6.918   8.142  1.00  0.00    -0.058 A 
ATOM      7  C   UNL A   1      12.948   6.731   9.508  1.00  0.00     0.010 A 
ATOM      8  C   UNL A   1      11.658   6.524   9.994  1.00  0.00     0.037 A 
BRANCH   6   9
ATOM      9  C   UNL A   1      14.538   7.140   7.623  1.00  0.00     0.049 C 
BRANCH   9  10
ATOM     10  C   UNL A   1      15.503   7.721   8.663  1.00  0.00     0.117 C 
BRANCH  10  11
ATOM     11  C   UNL A   1      16.771   6.907   8.761  1.00  0.00     0.172 C 
ATOM     12  O   UNL A   1      17.624   7.134   7.731  1.00  0.00    -0.648 OA
ATOM     13  O   UNL A   1      17.021   6.143   9.684  1.00  0.00    -0.648 OA
ENDBRANCH  10  11
ENDBRANCH   9  10
ENDBRANCH   6   9
ENDBRANCH   1   3
TORSDOF 4
ENDMDL
