MODEL 1
REMARK VINA RESULT:      -5.8      0.000      0.000
REMARK  4 active torsions:
REMARK  status: ('A' for Active; 'I' for Inactive)
REMARK    1  A    between atoms: O_1  and  C_11 
REMARK    2  A    between atoms: C_4  and  C_5 
REMARK    3  A    between atoms: C_4  and  C_6 
REMARK    4  A    between atoms: C_6  and  C_12 
ROOT
ATOM      1  O   UNL A   1      11.170   7.250  16.355  1.00  0.00    -0.361 OA
ATOM      2  H   UNL A   1      11.508   7.804  17.031  1.00  0.00     0.217 HD
ENDROOT
BRANCH   1   3
ATOM      3  C   UNL A   1      11.870   7.082  15.200  1.00  0.00     0.065 A 
ATOM      4  C   UNL A   1      12.811   6.057  15.097  1.00  0.00     0.037 A 
ATOM      5  C   UNL A   1      13.529   5.885  13.915  1.00  0.00     0.010 A 
ATOM      6  C   UNL A   1      13.307   6.738  12.833  1.00  0.00    -0.058 A 
ATOM      7  C   UNL A   1      12.367   7.763  12.936  1.00  0.00     0.010 A 
ATOM      8  C   UNL A   1      11.648   7.935  14.119  1.00  0.00     0.037 A 
BRANCH   6   9
ATOM      9  C   UNL A   1      14.075   6.554  11.568  1.00  0.00     0.049 C 
BRANCH   9  10
ATOM     10  C   UNL A   1      14.407   5.091  11.255  1.00  0.00     0.117 C 
BRANCH  10  11
ATOM     11  C   UNL A   1      13.703   4.614  10.008  1.00  0.00     0.172 C 
ATOM     12  O   UNL A   1      12.352   4.611  10.133  1.00  0.00    -0.648 OA
ATOM     13  O   UNL A   1      14.283   4.288   8.980  1.00  0.00    -0.648 OA
ENDBRANCH  10  11
ENDBRANCH   9  10
ENDBRANCH   6   9
ENDBRANCH   1   3
TORSDOF 4
ENDMDL
MODEL 2
REMARK VINA RESULT:      -5.8      0.165      1.671
REMARK  4 active torsions:
REMARK  status: ('A' for Active; 'I' for Inactive)
REMARK    1  A    between atoms: O_1  and  C_11 
REMARK    2  A    between atoms: C_4  and  C_5 
REMARK    3  A    between atoms: C_4  and  C_6 
REMARK    4  A    between atoms: C_6  and  C_12 
ROOT
ATOM      1  O   UNL A   1      11.216   7.270  16.381  1.00  0.00    -0.361 OA
ATOM      2  H   UNL A   1      11.162   8.115  16.784  1.00  0.00     0.217 HD
ENDROOT
BRANCH   1   3
ATOM      3  C   UNL A   1      11.926   7.110  15.231  1.00  0.00     0.065 A 
ATOM      4  C   UNL A   1      11.551   7.798  14.078  1.00  0.00     0.037 A 
ATOM      5  C   UNL A   1      12.277   7.634  12.899  1.00  0.00     0.010 A 
ATOM      6  C   UNL A   1      13.380   6.780  12.872  1.00  0.00    -0.058 A 
ATOM      7  C   UNL A   1      13.755   6.091  14.026  1.00  0.00     0.010 A 
ATOM      8  C   UNL A   1      13.029   6.256  15.205  1.00  0.00     0.037 A 
BRANCH   6   9
ATOM      9  C   UNL A   1      14.157   6.604  11.612  1.00  0.00     0.049 C 
BRANCH   9  10
ATOM     10  C   UNL A   1      14.428   5.139  11.253  1.00  0.00     0.117 C 
BRANCH  10  11
ATOM     11  C   UNL A   1      13.561   4.676  10.107  1.00  0.00     0.172 C 
ATOM     12  O   UNL A   1      14.279   4.323   9.012  1.00  0.00    -0.648 OA
ATOM     13  O   UNL A   1      12.341   4.599  10.163  1.00  0.00    -0.648 OA
ENDBRANCH  10  11
ENDBRANCH   9  10
ENDBRANCH   6   9
ENDBRANCH   1   3
TORSDOF 4
ENDMDL
MODEL 3
REMARK VINA RESULT:      -5.8      3.737      4.637
REMARK  4 active torsions:
REMARK  status: ('A' for Active; 'I' for Inactive)
REMARK    1  A    between atoms: O_1  and  C_11 
REMARK    2  A    between atoms: C_4  and  C_5 
REMARK    3  A    between atoms: C_4  and  C_6 
REMARK    4  A    between atoms: C_6  and  C_12 
ROOT
ATOM      1  O   UNL A   1      18.857   6.463  12.394  1.00  0.00    -0.361 OA
ATOM      2  H   UNL A   1      19.409   5.909  12.911  1.00  0.00     0.217 HD
ENDROOT
BRANCH   1   3
ATOM      3  C   UNL A   1      17.606   6.050  12.054  1.00  0.00     0.065 A 
ATOM      4  C   UNL A   1      17.271   5.872  10.712  1.00  0.00     0.037 A 
ATOM      5  C   UNL A   1      15.989   5.450  10.362  1.00  0.00     0.010 A 
ATOM      6  C   UNL A   1      15.040   5.205  11.356  1.00  0.00    -0.058 A 
ATOM      7  C   UNL A   1      15.375   5.382  12.697  1.00  0.00     0.010 A 
ATOM      8  C   UNL A   1      16.657   5.805  13.047  1.00  0.00     0.037 A 
BRANCH   6   9
ATOM      9  C   UNL A   1      13.670   4.752  10.982  1.00  0.00     0.049 C 
BRANCH   9  10
ATOM     10  C   UNL A   1      13.421   4.717   9.470  1.00  0.00     0.117 C 
BRANCH  10  11
ATOM     11  C   UNL A   1      13.372   3.302   8.946  1.00  0.00     0.172 C 
ATOM     12  O   UNL A   1      14.052   3.147   7.782  1.00  0.00    -0.648 OA
ATOM     13  O   UNL A   1      12.804   2.383   9.519  1.00  0.00    -0.648 OA
ENDBRANCH  10  11
ENDBRANCH   9  10
ENDBRANCH   6   9
ENDBRANCH   1   3
TORSDOF 4
ENDMDL
MODEL 4
REMARK VINA RESULT:      -5.8      3.079      3.766
REMARK  4 active torsions:
REMARK  status: ('A' for Active; 'I' for Inactive)
REMARK    1  A    between atoms: O_1  and  C_11 
REMARK    2  A    between atoms: C_4  and  C_5 
REMARK    3  A    between atoms: C_4  and  C_6 
REMARK    4  A    between atoms: C_6  and  C_12 
ROOT
ATOM      1  O   UNL A   1      17.497   5.874  13.728  1.00  0.00    -0.361 OA
ATOM      2  H   UNL A   1      18.057   5.171  13.996  1.00  0.00     0.217 HD
ENDROOT
BRANCH   1   3
ATOM      3  C   UNL A   1      16.389   5.613  12.982  1.00  0.00     0.065 A 
ATOM      4  C   UNL A   1      15.175   5.335  13.609  1.00  0.00     0.037 A 
ATOM      5  C   UNL A   1      14.040   5.066  12.846  1.00  0.00     0.010 A 
ATOM      6  C   UNL A   1      14.118   5.075  11.452  1.00  0.00    -0.058 A 
ATOM      7  C   UNL A   1      15.332   5.354  10.825  1.00  0.00     0.010 A 
ATOM      8  C   UNL A   1      16.468   5.622  11.589  1.00  0.00     0.037 A 
BRANCH   6   9
ATOM      9  C   UNL A   1      12.905   4.789  10.635  1.00  0.00     0.049 C 
BRANCH   9  10
ATOM     10  C   UNL A   1      12.981   3.471   9.856  1.00  0.00     0.117 C 
BRANCH  10  11
ATOM     11  C   UNL A   1      13.335   3.701   8.406  1.00  0.00     0.172 C 
ATOM     12  O   UNL A   1      12.819   4.855   7.914  1.00  0.00    -0.648 OA
ATOM     13  O   UNL A   1      14.034   2.943   7.747  1.00  0.00    -0.648 OA
ENDBRANCH  10  11
ENDBRANCH   9  10
ENDBRANCH   6   9
ENDBRANCH   1   3
TORSDOF 4
ENDMDL
MODEL 5
REMARK VINA RESULT:      -5.7      2.312      5.040
REMARK  4 active torsions:
REMARK  status: ('A' for Active; 'I' for Inactive)
REMARK    1  A    between atoms: O_1  and  C_11 
REMARK    2  A    between atoms: C_4  and  C_5 
REMARK    3  A    between atoms: C_4  and  C_6 
REMARK    4  A    between atoms: C_6  and  C_12 
ROOT
ATOM      1  O   UNL A   1      17.904   6.095   9.988  1.00  0.00    -0.361 OA
ATOM      2  H   UNL A   1      18.280   6.948  10.084  1.00  0.00     0.217 HD
ENDROOT
BRANCH   1   3
ATOM      3  C   UNL A   1      16.794   5.758  10.699  1.00  0.00     0.065 A 
ATOM      4  C   UNL A   1      15.646   5.324  10.036  1.00  0.00     0.037 A 
ATOM      5  C   UNL A   1      14.507   4.979  10.764  1.00  0.00     0.010 A 
ATOM      6  C   UNL A   1      14.516   5.069  12.157  1.00  0.00    -0.058 A 
ATOM      7  C   UNL A   1      15.664   5.503  12.819  1.00  0.00     0.010 A 
ATOM      8  C   UNL A   1      16.802   5.847  12.092  1.00  0.00     0.037 A 
BRANCH   6   9
ATOM      9  C   UNL A   1      13.299   4.699  12.935  1.00  0.00     0.049 C 
BRANCH   9  10
ATOM     10  C   UNL A   1      12.637   5.886  13.645  1.00  0.00     0.117 C 
BRANCH  10  11
ATOM     11  C   UNL A   1      11.940   6.802  12.668  1.00  0.00     0.172 C 
ATOM     12  O   UNL A   1      11.237   6.128  11.723  1.00  0.00    -0.648 OA
ATOM     13  O   UNL A   1      11.979   8.023  12.731  1.00  0.00    -0.648 OA
ENDBRANCH  10  11
ENDBRANCH   9  10
ENDBRANCH   6   9
ENDBRANCH   1   3
TORSDOF 4
ENDMDL
MODEL 6
REMARK VINA RESULT:      -5.6      3.829      5.024
REMARK  4 active torsions:
REMARK  status: ('A' for Active; 'I' for Inactive)
REMARK    1  A    between atoms: O_1  and  C_11 
REMARK    2  A    between atoms: C_4  and  C_5 
REMARK    3  A    between atoms: C_4  and  C_6 
REMARK    4  A    between atoms: C_6  and  C_12 
ROOT
ATOM      1  O   UNL A   1      19.640   6.460  11.850  1.00  0.00    -0.361 OA
ATOM      2  H   UNL A   1      20.233   5.883  12.289  1.00  0.00     0.217 HD
ENDROOT
BRANCH   1   3
ATOM      3  C   UNL A   1      18.342   6.092  11.671  1.00  0.00     0.065 A 
ATOM      4  C   UNL A   1      17.499   5.951  12.773  1.00  0.00     0.037 A 
ATOM      5  C   UNL A   1      16.169   5.573  12.591  1.00  0.00     0.010 A 
ATOM      6  C   UNL A   1      15.680   5.337  11.305  1.00  0.00    -0.058 A 
ATOM      7  C   UNL A   1      16.523   5.479  10.204  1.00  0.00     0.010 A 
ATOM      8  C   UNL A   1      17.853   5.856  10.385  1.00  0.00     0.037 A 
BRANCH   6   9
ATOM      9  C   UNL A   1      14.258   4.934  11.110  1.00  0.00     0.049 C 
BRANCH   9  10
ATOM     10  C   UNL A   1      13.790   5.009   9.652  1.00  0.00     0.117 C 
BRANCH  10  11
ATOM     11  C   UNL A   1      13.462   3.642   9.101  1.00  0.00     0.172 C 
ATOM     12  O   UNL A   1      14.110   3.373   7.940  1.00  0.00    -0.648 OA
ATOM     13  O   UNL A   1      12.713   2.847   9.653  1.00  0.00    -0.648 OA
ENDBRANCH  10  11
ENDBRANCH   9  10
ENDBRANCH   6   9
ENDBRANCH   1   3
TORSDOF 4
ENDMDL
MODEL 7
REMARK VINA RESULT:      -5.6      1.531      1.966
REMARK  4 active torsions:
REMARK  status: ('A' for Active; 'I' for Inactive)
REMARK    1  A    between atoms: O_1  and  C_11 
REMARK    2  A    between atoms: C_4  and  C_5 
REMARK    3  A    between atoms: C_4  and  C_6 
REMARK    4  A    between atoms: C_6  and  C_12 
ROOT
ATOM      1  O   UNL A   1      12.606   9.813  14.554  1.00  0.00    -0.361 OA
ATOM      2  H   UNL A   1      13.320  10.370  14.797  1.00  0.00     0.217 HD
ENDROOT
BRANCH   1   3
ATOM      3  C   UNL A   1      12.851   8.621  13.946  1.00  0.00     0.065 A 
ATOM      4  C   UNL A   1      11.904   8.070  13.083  1.00  0.00     0.037 A 
ATOM      5  C   UNL A   1      12.154   6.848  12.460  1.00  0.00     0.010 A 
ATOM      6  C   UNL A   1      13.352   6.174  12.700  1.00  0.00    -0.058 A 
ATOM      7  C   UNL A   1      14.299   6.725  13.563  1.00  0.00     0.010 A 
ATOM      8  C   UNL A   1      14.050   7.947  14.186  1.00  0.00     0.037 A 
BRANCH   6   9
ATOM      9  C   UNL A   1      13.620   4.868  12.034  1.00  0.00     0.049 C 
BRANCH   9  10
ATOM     10  C   UNL A   1      14.397   4.993  10.719  1.00  0.00     0.117 C 
BRANCH  10  11
ATOM     11  C   UNL A   1      13.637   4.389   9.562  1.00  0.00     0.172 C 
ATOM     12  O   UNL A   1      12.296   4.570   9.660  1.00  0.00    -0.648 OA
ATOM     13  O   UNL A   1      14.170   3.819   8.620  1.00  0.00    -0.648 OA
ENDBRANCH  10  11
ENDBRANCH   9  10
ENDBRANCH   6   9
ENDBRANCH   1   3
TORSDOF 4
ENDMDL
MODEL 8
REMARK VINA RESULT:      -5.6      3.424      4.980
REMARK  4 active torsions:
REMARK  status: ('A' for Active; 'I' for Inactive)
REMARK    1  A    between atoms: O_1  and  C_11 
REMARK    2  A    between atoms: C_4  and  C_5 
REMARK    3  A    between atoms: C_4  and  C_6 
REMARK    4  A    between atoms: C_6  and  C_12 
ROOT
ATOM      1  O   UNL A   1      11.529   4.270  11.519  1.00  0.00    -0.361 OA
ATOM      2  H   UNL A   1      10.989   4.710  12.145  1.00  0.00     0.217 HD
ENDROOT
BRANCH   1   3
ATOM      3  C   UNL A   1      12.834   4.627  11.376  1.00  0.00     0.065 A 
ATOM      4  C   UNL A   1      13.397   4.721  10.103  1.00  0.00     0.037 A 
ATOM      5  C   UNL A   1      14.734   5.086   9.956  1.00  0.00     0.010 A 
ATOM      6  C   UNL A   1      15.511   5.358  11.083  1.00  0.00    -0.058 A 
ATOM      7  C   UNL A   1      14.949   5.264  12.356  1.00  0.00     0.010 A 
ATOM      8  C   UNL A   1      13.611   4.899  12.503  1.00  0.00     0.037 A 
BRANCH   6   9
ATOM      9  C   UNL A   1      16.941   5.749  10.927  1.00  0.00     0.049 C 
BRANCH   9  10
ATOM     10  C   UNL A   1      17.730   5.746  12.241  1.00  0.00     0.117 C 
BRANCH  10  11
ATOM     11  C   UNL A   1      19.219   5.691  11.998  1.00  0.00     0.172 C 
ATOM     12  O   UNL A   1      19.861   4.850  12.845  1.00  0.00    -0.648 OA
ATOM     13  O   UNL A   1      19.788   6.318  11.113  1.00  0.00    -0.648 OA
ENDBRANCH  10  11
ENDBRANCH   9  10
ENDBRANCH   6   9
ENDBRANCH   1   3
TORSDOF 4
ENDMDL
MODEL 9
REMARK VINA RESULT:      -5.6      3.411      4.876
REMARK  4 active torsions:
REMARK  status: ('A' for Active; 'I' for Inactive)
REMARK    1  A    between atoms: O_1  and  C_11 
REMARK    2  A    between atoms: C_4  and  C_5 
REMARK    3  A    between atoms: C_4  and  C_6 
REMARK    4  A    between atoms: C_6  and  C_12 
ROOT
ATOM      1  O   UNL A   1      11.513   4.261  11.576  1.00  0.00    -0.361 OA
ATOM      2  H   UNL A   1      11.102   3.705  10.944  1.00  0.00     0.217 HD
ENDROOT
BRANCH   1   3
ATOM      3  C   UNL A   1      12.814   4.625  11.418  1.00  0.00     0.065 A 
ATOM      4  C   UNL A   1      13.592   4.939  12.533  1.00  0.00     0.037 A 
ATOM      5  C   UNL A   1      14.925   5.313  12.371  1.00  0.00     0.010 A 
ATOM      6  C   UNL A   1      15.483   5.375  11.093  1.00  0.00    -0.058 A 
ATOM      7  C   UNL A   1      14.705   5.061   9.979  1.00  0.00     0.010 A 
ATOM      8  C   UNL A   1      13.372   4.687  10.140  1.00  0.00     0.037 A 
BRANCH   6   9
ATOM      9  C   UNL A   1      16.909   5.774  10.920  1.00  0.00     0.049 C 
BRANCH   9  10
ATOM     10  C   UNL A   1      17.719   5.747  12.221  1.00  0.00     0.117 C 
BRANCH  10  11
ATOM     11  C   UNL A   1      19.204   5.705  11.951  1.00  0.00     0.172 C 
ATOM     12  O   UNL A   1      19.860   4.823  12.746  1.00  0.00    -0.648 OA
ATOM     13  O   UNL A   1      19.760   6.373  11.089  1.00  0.00    -0.648 OA
ENDBRANCH  10  11
ENDBRANCH   9  10
ENDBRANCH   6   9
ENDBRANCH   1   3
TORSDOF 4
ENDMDL
