MODEL 1
REMARK VINA RESULT:      -5.8      0.000      0.000
REMARK  4 active torsions:
REMARK  status: ('A' for Active; 'I' for Inactive)
REMARK    1  A    between atoms: O_1  and  C_11 
REMARK    2  A    between atoms: C_4  and  C_5 
REMARK    3  A    between atoms: C_4  and  C_6 
REMARK    4  A    between atoms: C_6  and  C_12 
ROOT
ATOM      1  O   UNL A   1      10.489   8.480  14.565  1.00  0.00    -0.361 OA
ATOM      2  H   UNL A   1      10.117   7.713  14.955  1.00  0.00     0.217 HD
ENDROOT
BRANCH   1   3
ATOM      3  C   UNL A   1      10.950   8.436  13.285  1.00  0.00     0.065 A 
ATOM      4  C   UNL A   1      10.819   9.550  12.458  1.00  0.00     0.037 A 
ATOM      5  C   UNL A   1      11.291   9.506  11.146  1.00  0.00     0.010 A 
ATOM      6  C   UNL A   1      11.893   8.344  10.661  1.00  0.00    -0.058 A 
ATOM      7  C   UNL A   1      12.024   7.230  11.488  1.00  0.00     0.010 A 
ATOM      8  C   UNL A   1      11.553   7.274  12.800  1.00  0.00     0.037 A 
BRANCH   6   9
ATOM      9  C   UNL A   1      12.398   8.296   9.259  1.00  0.00     0.049 C 
BRANCH   9  10
ATOM     10  C   UNL A   1      12.370   6.894   8.640  1.00  0.00     0.117 C 
BRANCH  10  11
ATOM     11  C   UNL A   1      11.356   6.797   7.525  1.00  0.00     0.172 C 
ATOM     12  O   UNL A   1      11.916   6.497   6.327  1.00  0.00    -0.648 OA
ATOM     13  O   UNL A   1      10.151   6.946   7.685  1.00  0.00    -0.648 OA
ENDBRANCH  10  11
ENDBRANCH   9  10
ENDBRANCH   6   9
ENDBRANCH   1   3
TORSDOF 4
ENDMDL
MODEL 2
REMARK VINA RESULT:      -5.8      0.094      1.675
REMARK  4 active torsions:
REMARK  status: ('A' for Active; 'I' for Inactive)
REMARK    1  A    between atoms: O_1  and  C_11 
REMARK    2  A    between atoms: C_4  and  C_5 
REMARK    3  A    between atoms: C_4  and  C_6 
REMARK    4  A    between atoms: C_6  and  C_12 
ROOT
ATOM      1  O   UNL A   1      10.487   8.480  14.571  1.00  0.00    -0.361 OA
ATOM      2  H   UNL A   1       9.596   8.255  14.756  1.00  0.00     0.217 HD
ENDROOT
BRANCH   1   3
ATOM      3  C   UNL A   1      10.949   8.433  13.292  1.00  0.00     0.065 A 
ATOM      4  C   UNL A   1      11.600   7.291  12.826  1.00  0.00     0.037 A 
ATOM      5  C   UNL A   1      12.074   7.242  11.516  1.00  0.00     0.010 A 
ATOM      6  C   UNL A   1      11.897   8.337  10.669  1.00  0.00    -0.058 A 
ATOM      7  C   UNL A   1      11.246   9.479  11.135  1.00  0.00     0.010 A 
ATOM      8  C   UNL A   1      10.772   9.528  12.445  1.00  0.00     0.037 A 
BRANCH   6   9
ATOM      9  C   UNL A   1      12.403   8.286   9.268  1.00  0.00     0.049 C 
BRANCH   9  10
ATOM     10  C   UNL A   1      12.382   6.881   8.655  1.00  0.00     0.117 C 
BRANCH  10  11
ATOM     11  C   UNL A   1      11.407   6.789   7.505  1.00  0.00     0.172 C 
ATOM     12  O   UNL A   1      10.117   6.949   7.893  1.00  0.00    -0.648 OA
ATOM     13  O   UNL A   1      11.742   6.616   6.341  1.00  0.00    -0.648 OA
ENDBRANCH  10  11
ENDBRANCH   9  10
ENDBRANCH   6   9
ENDBRANCH   1   3
TORSDOF 4
ENDMDL
MODEL 3
REMARK VINA RESULT:      -5.8      3.746      4.577
REMARK  4 active torsions:
REMARK  status: ('A' for Active; 'I' for Inactive)
REMARK    1  A    between atoms: O_1  and  C_11 
REMARK    2  A    between atoms: C_4  and  C_5 
REMARK    3  A    between atoms: C_4  and  C_6 
REMARK    4  A    between atoms: C_6  and  C_12 
ROOT
ATOM      1  O   UNL A   1      17.189   7.126   9.147  1.00  0.00    -0.361 OA
ATOM      2  H   UNL A   1      17.757   7.056   8.405  1.00  0.00     0.217 HD
ENDROOT
BRANCH   1   3
ATOM      3  C   UNL A   1      15.841   7.042   8.980  1.00  0.00     0.065 A 
ATOM      4  C   UNL A   1      15.018   6.769  10.073  1.00  0.00     0.037 A 
ATOM      5  C   UNL A   1      13.637   6.682   9.903  1.00  0.00     0.010 A 
ATOM      6  C   UNL A   1      13.076   6.867   8.639  1.00  0.00    -0.058 A 
ATOM      7  C   UNL A   1      13.899   7.140   7.546  1.00  0.00     0.010 A 
ATOM      8  C   UNL A   1      15.280   7.227   7.716  1.00  0.00     0.037 A 
BRANCH   6   9
ATOM      9  C   UNL A   1      11.600   6.775   8.457  1.00  0.00     0.049 C 
BRANCH   9  10
ATOM     10  C   UNL A   1      11.135   7.060   7.024  1.00  0.00     0.117 C 
BRANCH  10  11
ATOM     11  C   UNL A   1      10.725   5.794   6.309  1.00  0.00     0.172 C 
ATOM     12  O   UNL A   1      11.195   5.731   5.038  1.00  0.00    -0.648 OA
ATOM     13  O   UNL A   1      10.062   4.905   6.825  1.00  0.00    -0.648 OA
ENDBRANCH  10  11
ENDBRANCH   9  10
ENDBRANCH   6   9
ENDBRANCH   1   3
TORSDOF 4
ENDMDL
MODEL 4
REMARK VINA RESULT:      -5.8      2.345      5.119
REMARK  4 active torsions:
REMARK  status: ('A' for Active; 'I' for Inactive)
REMARK    1  A    between atoms: O_1  and  C_11 
REMARK    2  A    between atoms: C_4  and  C_5 
REMARK    3  A    between atoms: C_4  and  C_6 
REMARK    4  A    between atoms: C_6  and  C_12 
ROOT
ATOM      1  O   UNL A   1      15.834   7.309   6.657  1.00  0.00    -0.361 OA
ATOM      2  H   UNL A   1      16.693   7.563   6.930  1.00  0.00     0.217 HD
ENDROOT
BRANCH   1   3
ATOM      3  C   UNL A   1      14.854   7.120   7.582  1.00  0.00     0.065 A 
ATOM      4  C   UNL A   1      13.519   7.064   7.183  1.00  0.00     0.037 A 
ATOM      5  C   UNL A   1      12.514   6.872   8.131  1.00  0.00     0.010 A 
ATOM      6  C   UNL A   1      12.844   6.736   9.480  1.00  0.00    -0.058 A 
ATOM      7  C   UNL A   1      14.180   6.792   9.878  1.00  0.00     0.010 A 
ATOM      8  C   UNL A   1      15.184   6.984   8.931  1.00  0.00     0.037 A 
BRANCH   6   9
ATOM      9  C   UNL A   1      11.771   6.529  10.493  1.00  0.00     0.049 C 
BRANCH   9  10
ATOM     10  C   UNL A   1      11.518   7.752  11.383  1.00  0.00     0.117 C 
BRANCH  10  11
ATOM     11  C   UNL A   1      10.522   8.700  10.758  1.00  0.00     0.172 C 
ATOM     12  O   UNL A   1      10.708   9.987  11.140  1.00  0.00    -0.648 OA
ATOM     13  O   UNL A   1       9.654   8.352   9.968  1.00  0.00    -0.648 OA
ENDBRANCH  10  11
ENDBRANCH   9  10
ENDBRANCH   6   9
ENDBRANCH   1   3
TORSDOF 4
ENDMDL
MODEL 5
REMARK VINA RESULT:      -5.7      1.616      1.922
REMARK  4 active torsions:
REMARK  status: ('A' for Active; 'I' for Inactive)
REMARK    1  A    between atoms: O_1  and  C_11 
REMARK    2  A    between atoms: C_4  and  C_5 
REMARK    3  A    between atoms: C_4  and  C_6 
REMARK    4  A    between atoms: C_6  and  C_12 
ROOT
ATOM      1  O   UNL A   1      12.313  11.332  13.043  1.00  0.00    -0.361 OA
ATOM      2  H   UNL A   1      12.021  12.193  12.814  1.00  0.00     0.217 HD
ENDROOT
BRANCH   1   3
ATOM      3  C   UNL A   1      12.037  10.282  12.223  1.00  0.00     0.065 A 
ATOM      4  C   UNL A   1      10.790  10.187  11.605  1.00  0.00     0.037 A 
ATOM      5  C   UNL A   1      10.506   9.111  10.765  1.00  0.00     0.010 A 
ATOM      6  C   UNL A   1      11.470   8.126  10.544  1.00  0.00    -0.058 A 
ATOM      7  C   UNL A   1      12.716   8.220  11.162  1.00  0.00     0.010 A 
ATOM      8  C   UNL A   1      13.001   9.297  12.001  1.00  0.00     0.037 A 
BRANCH   6   9
ATOM      9  C   UNL A   1      11.167   6.975   9.646  1.00  0.00     0.049 C 
BRANCH   9  10
ATOM     10  C   UNL A   1      12.138   6.839   8.468  1.00  0.00     0.117 C 
BRANCH  10  11
ATOM     11  C   UNL A   1      11.406   6.684   7.157  1.00  0.00     0.172 C 
ATOM     12  O   UNL A   1      10.094   7.017   7.243  1.00  0.00    -0.648 OA
ATOM     13  O   UNL A   1      11.940   6.322   6.116  1.00  0.00    -0.648 OA
ENDBRANCH  10  11
ENDBRANCH   9  10
ENDBRANCH   6   9
ENDBRANCH   1   3
TORSDOF 4
ENDMDL
MODEL 6
REMARK VINA RESULT:      -5.7      2.378      5.130
REMARK  4 active torsions:
REMARK  status: ('A' for Active; 'I' for Inactive)
REMARK    1  A    between atoms: O_1  and  C_11 
REMARK    2  A    between atoms: C_4  and  C_5 
REMARK    3  A    between atoms: C_4  and  C_6 
REMARK    4  A    between atoms: C_6  and  C_12 
ROOT
ATOM      1  O   UNL A   1      15.936   7.467   6.817  1.00  0.00    -0.361 OA
ATOM      2  H   UNL A   1      15.759   7.547   5.900  1.00  0.00     0.217 HD
ENDROOT
BRANCH   1   3
ATOM      3  C   UNL A   1      14.919   7.214   7.685  1.00  0.00     0.065 A 
ATOM      4  C   UNL A   1      15.184   7.061   9.045  1.00  0.00     0.037 A 
ATOM      5  C   UNL A   1      14.143   6.801   9.936  1.00  0.00     0.010 A 
ATOM      6  C   UNL A   1      12.834   6.692   9.465  1.00  0.00    -0.058 A 
ATOM      7  C   UNL A   1      12.568   6.845   8.105  1.00  0.00     0.010 A 
ATOM      8  C   UNL A   1      13.609   7.105   7.214  1.00  0.00     0.037 A 
BRANCH   6   9
ATOM      9  C   UNL A   1      11.720   6.414  10.416  1.00  0.00     0.049 C 
BRANCH   9  10
ATOM     10  C   UNL A   1      11.401   7.586  11.352  1.00  0.00     0.117 C 
BRANCH  10  11
ATOM     11  C   UNL A   1      10.505   8.603  10.686  1.00  0.00     0.172 C 
ATOM     12  O   UNL A   1      10.772   9.875  11.073  1.00  0.00    -0.648 OA
ATOM     13  O   UNL A   1       9.645   8.318   9.862  1.00  0.00    -0.648 OA
ENDBRANCH  10  11
ENDBRANCH   9  10
ENDBRANCH   6   9
ENDBRANCH   1   3
TORSDOF 4
ENDMDL
MODEL 7
REMARK VINA RESULT:      -5.7      3.326      4.062
REMARK  4 active torsions:
REMARK  status: ('A' for Active; 'I' for Inactive)
REMARK    1  A    between atoms: O_1  and  C_11 
REMARK    2  A    between atoms: C_4  and  C_5 
REMARK    3  A    between atoms: C_4  and  C_6 
REMARK    4  A    between atoms: C_6  and  C_12 
ROOT
ATOM      1  O   UNL A   1      16.243   7.414   9.703  1.00  0.00    -0.361 OA
ATOM      2  H   UNL A   1      16.482   7.927  10.450  1.00  0.00     0.217 HD
ENDROOT
BRANCH   1   3
ATOM      3  C   UNL A   1      14.934   7.285   9.357  1.00  0.00     0.065 A 
ATOM      4  C   UNL A   1      14.510   7.647   8.079  1.00  0.00     0.037 A 
ATOM      5  C   UNL A   1      13.168   7.517   7.724  1.00  0.00     0.010 A 
ATOM      6  C   UNL A   1      12.247   7.023   8.649  1.00  0.00    -0.058 A 
ATOM      7  C   UNL A   1      12.670   6.661   9.928  1.00  0.00     0.010 A 
ATOM      8  C   UNL A   1      14.013   6.792  10.282  1.00  0.00     0.037 A 
BRANCH   6   9
ATOM      9  C   UNL A   1      10.812   6.882   8.271  1.00  0.00     0.049 C 
BRANCH   9  10
ATOM     10  C   UNL A   1      10.546   5.754   7.267  1.00  0.00     0.117 C 
BRANCH  10  11
ATOM     11  C   UNL A   1      10.695   6.230   5.842  1.00  0.00     0.172 C 
ATOM     12  O   UNL A   1      10.326   7.524   5.676  1.00  0.00    -0.648 OA
ATOM     13  O   UNL A   1      11.127   5.533   4.933  1.00  0.00    -0.648 OA
ENDBRANCH  10  11
ENDBRANCH   9  10
ENDBRANCH   6   9
ENDBRANCH   1   3
TORSDOF 4
ENDMDL
MODEL 8
REMARK VINA RESULT:      -5.6      0.703      1.627
REMARK  4 active torsions:
REMARK  status: ('A' for Active; 'I' for Inactive)
REMARK    1  A    between atoms: O_1  and  C_11 
REMARK    2  A    between atoms: C_4  and  C_5 
REMARK    3  A    between atoms: C_4  and  C_6 
REMARK    4  A    between atoms: C_6  and  C_12 
ROOT
ATOM      1  O   UNL A   1      10.471   8.454  14.567  1.00  0.00    -0.361 OA
ATOM      2  H   UNL A   1      10.754   7.813  15.189  1.00  0.00     0.217 HD
ENDROOT
BRANCH   1   3
ATOM      3  C   UNL A   1      10.925   8.404  13.285  1.00  0.00     0.065 A 
ATOM      4  C   UNL A   1      11.230   7.175  12.700  1.00  0.00     0.037 A 
ATOM      5  C   UNL A   1      11.696   7.122  11.387  1.00  0.00     0.010 A 
ATOM      6  C   UNL A   1      11.857   8.300  10.656  1.00  0.00    -0.058 A 
ATOM      7  C   UNL A   1      11.552   9.529  11.241  1.00  0.00     0.010 A 
ATOM      8  C   UNL A   1      11.087   9.582  12.554  1.00  0.00     0.037 A 
BRANCH   6   9
ATOM      9  C   UNL A   1      12.355   8.244   9.252  1.00  0.00     0.049 C 
BRANCH   9  10
ATOM     10  C   UNL A   1      12.269   6.849   8.622  1.00  0.00     0.117 C 
BRANCH  10  11
ATOM     11  C   UNL A   1      12.454   6.902   7.124  1.00  0.00     0.172 C 
ATOM     12  O   UNL A   1      13.756   6.839   6.751  1.00  0.00    -0.648 OA
ATOM     13  O   UNL A   1      11.528   6.969   6.325  1.00  0.00    -0.648 OA
ENDBRANCH  10  11
ENDBRANCH   9  10
ENDBRANCH   6   9
ENDBRANCH   1   3
TORSDOF 4
ENDMDL
MODEL 9
REMARK VINA RESULT:      -5.6      2.379      2.927
REMARK  4 active torsions:
REMARK  status: ('A' for Active; 'I' for Inactive)
REMARK    1  A    between atoms: O_1  and  C_11 
REMARK    2  A    between atoms: C_4  and  C_5 
REMARK    3  A    between atoms: C_4  and  C_6 
REMARK    4  A    between atoms: C_6  and  C_12 
ROOT
ATOM      1  O   UNL A   1      11.706   4.908  13.408  1.00  0.00    -0.361 OA
ATOM      2  H   UNL A   1      11.157   5.191  14.112  1.00  0.00     0.217 HD
ENDROOT
BRANCH   1   3
ATOM      3  C   UNL A   1      11.495   5.381  12.149  1.00  0.00     0.065 A 
ATOM      4  C   UNL A   1      12.346   6.350  11.617  1.00  0.00     0.037 A 
ATOM      5  C   UNL A   1      12.130   6.837  10.328  1.00  0.00     0.010 A 
ATOM      6  C   UNL A   1      11.062   6.355   9.570  1.00  0.00    -0.058 A 
ATOM      7  C   UNL A   1      10.211   5.386  10.103  1.00  0.00     0.010 A 
ATOM      8  C   UNL A   1      10.427   4.899  11.391  1.00  0.00     0.037 A 
BRANCH   6   9
ATOM      9  C   UNL A   1      10.831   6.874   8.192  1.00  0.00     0.049 C 
BRANCH   9  10
ATOM     10  C   UNL A   1      10.411   5.795   7.187  1.00  0.00     0.117 C 
BRANCH  10  11
ATOM     11  C   UNL A   1      10.688   6.220   5.765  1.00  0.00     0.172 C 
ATOM     12  O   UNL A   1      10.522   7.552   5.571  1.00  0.00    -0.648 OA
ATOM     13  O   UNL A   1      11.050   5.452   4.883  1.00  0.00    -0.648 OA
ENDBRANCH  10  11
ENDBRANCH   9  10
ENDBRANCH   6   9
ENDBRANCH   1   3
TORSDOF 4
ENDMDL
