MODEL 1
REMARK VINA RESULT:      -6.0      0.000      0.000
REMARK  4 active torsions:
REMARK  status: ('A' for Active; 'I' for Inactive)
REMARK    1  A    between atoms: O_1  and  C_11 
REMARK    2  A    between atoms: C_4  and  C_5 
REMARK    3  A    between atoms: C_4  and  C_6 
REMARK    4  A    between atoms: C_6  and  C_12 
ROOT
ATOM      1  O   UNL A   1      18.208   6.044  12.713  1.00  0.00    -0.361 OA
ATOM      2  H   UNL A   1      18.664   6.811  12.426  1.00  0.00     0.217 HD
ENDROOT
BRANCH   1   3
ATOM      3  C   UNL A   1      16.974   5.760  12.213  1.00  0.00     0.065 A 
ATOM      4  C   UNL A   1      15.914   5.500  13.081  1.00  0.00     0.037 A 
ATOM      5  C   UNL A   1      14.649   5.209  12.570  1.00  0.00     0.010 A 
ATOM      6  C   UNL A   1      14.445   5.176  11.190  1.00  0.00    -0.058 A 
ATOM      7  C   UNL A   1      15.505   5.436  10.323  1.00  0.00     0.010 A 
ATOM      8  C   UNL A   1      16.770   5.728  10.833  1.00  0.00     0.037 A 
BRANCH   6   9
ATOM      9  C   UNL A   1      13.093   4.865  10.644  1.00  0.00     0.049 C 
BRANCH   9  10
ATOM     10  C   UNL A   1      13.025   3.535   9.886  1.00  0.00     0.117 C 
BRANCH  10  11
ATOM     11  C   UNL A   1      13.322   3.714   8.416  1.00  0.00     0.172 C 
ATOM     12  O   UNL A   1      12.794   4.855   7.907  1.00  0.00    -0.648 OA
ATOM     13  O   UNL A   1      13.991   2.930   7.756  1.00  0.00    -0.648 OA
ENDBRANCH  10  11
ENDBRANCH   9  10
ENDBRANCH   6   9
ENDBRANCH   1   3
TORSDOF 4
ENDMDL
MODEL 2
REMARK VINA RESULT:      -5.9      3.446      4.201
REMARK  4 active torsions:
REMARK  status: ('A' for Active; 'I' for Inactive)
REMARK    1  A    between atoms: O_1  and  C_11 
REMARK    2  A    between atoms: C_4  and  C_5 
REMARK    3  A    between atoms: C_4  and  C_6 
REMARK    4  A    between atoms: C_6  and  C_12 
ROOT
ATOM      1  O   UNL A   1      11.184   7.257  16.358  1.00  0.00    -0.361 OA
ATOM      2  H   UNL A   1      11.005   8.120  16.675  1.00  0.00     0.217 HD
ENDROOT
BRANCH   1   3
ATOM      3  C   UNL A   1      11.896   7.088  15.211  1.00  0.00     0.065 A 
ATOM      4  C   UNL A   1      12.902   6.124  15.149  1.00  0.00     0.037 A 
ATOM      5  C   UNL A   1      13.633   5.951  13.974  1.00  0.00     0.010 A 
ATOM      6  C   UNL A   1      13.358   6.743  12.859  1.00  0.00    -0.058 A 
ATOM      7  C   UNL A   1      12.352   7.707  12.920  1.00  0.00     0.010 A 
ATOM      8  C   UNL A   1      11.621   7.880  14.095  1.00  0.00     0.037 A 
BRANCH   6   9
ATOM      9  C   UNL A   1      14.138   6.558  11.602  1.00  0.00     0.049 C 
BRANCH   9  10
ATOM     10  C   UNL A   1      14.421   5.090  11.261  1.00  0.00     0.117 C 
BRANCH  10  11
ATOM     11  C   UNL A   1      13.679   4.653  10.021  1.00  0.00     0.172 C 
ATOM     12  O   UNL A   1      12.334   4.618  10.196  1.00  0.00    -0.648 OA
ATOM     13  O   UNL A   1      14.225   4.383   8.960  1.00  0.00    -0.648 OA
ENDBRANCH  10  11
ENDBRANCH   9  10
ENDBRANCH   6   9
ENDBRANCH   1   3
TORSDOF 4
ENDMDL
MODEL 3
REMARK VINA RESULT:      -5.9      3.441      4.323
REMARK  4 active torsions:
REMARK  status: ('A' for Active; 'I' for Inactive)
REMARK    1  A    between atoms: O_1  and  C_11 
REMARK    2  A    between atoms: C_4  and  C_5 
REMARK    3  A    between atoms: C_4  and  C_6 
REMARK    4  A    between atoms: C_6  and  C_12 
ROOT
ATOM      1  O   UNL A   1      11.199   7.265  16.365  1.00  0.00    -0.361 OA
ATOM      2  H   UNL A   1      11.213   6.599  17.024  1.00  0.00     0.217 HD
ENDROOT
BRANCH   1   3
ATOM      3  C   UNL A   1      11.916   7.101  15.220  1.00  0.00     0.065 A 
ATOM      4  C   UNL A   1      11.518   7.745  14.049  1.00  0.00     0.037 A 
ATOM      5  C   UNL A   1      12.251   7.577  12.875  1.00  0.00     0.010 A 
ATOM      6  C   UNL A   1      13.385   6.763  12.871  1.00  0.00    -0.058 A 
ATOM      7  C   UNL A   1      13.784   6.119  14.042  1.00  0.00     0.010 A 
ATOM      8  C   UNL A   1      13.050   6.287  15.216  1.00  0.00     0.037 A 
BRANCH   6   9
ATOM      9  C   UNL A   1      14.170   6.583  11.617  1.00  0.00     0.049 C 
BRANCH   9  10
ATOM     10  C   UNL A   1      14.416   5.116  11.247  1.00  0.00     0.117 C 
BRANCH  10  11
ATOM     11  C   UNL A   1      13.555   4.682  10.086  1.00  0.00     0.172 C 
ATOM     12  O   UNL A   1      14.279   4.338   8.991  1.00  0.00    -0.648 OA
ATOM     13  O   UNL A   1      12.333   4.619  10.130  1.00  0.00    -0.648 OA
ENDBRANCH  10  11
ENDBRANCH   9  10
ENDBRANCH   6   9
ENDBRANCH   1   3
TORSDOF 4
ENDMDL
MODEL 4
REMARK VINA RESULT:      -5.8      0.950      1.775
REMARK  4 active torsions:
REMARK  status: ('A' for Active; 'I' for Inactive)
REMARK    1  A    between atoms: O_1  and  C_11 
REMARK    2  A    between atoms: C_4  and  C_5 
REMARK    3  A    between atoms: C_4  and  C_6 
REMARK    4  A    between atoms: C_6  and  C_12 
ROOT
ATOM      1  O   UNL A   1      18.880   6.426  12.438  1.00  0.00    -0.361 OA
ATOM      2  H   UNL A   1      19.216   6.199  13.283  1.00  0.00     0.217 HD
ENDROOT
BRANCH   1   3
ATOM      3  C   UNL A   1      17.634   6.021  12.072  1.00  0.00     0.065 A 
ATOM      4  C   UNL A   1      17.330   5.832  10.724  1.00  0.00     0.037 A 
ATOM      5  C   UNL A   1      16.052   5.419  10.347  1.00  0.00     0.010 A 
ATOM      6  C   UNL A   1      15.076   5.195  11.319  1.00  0.00    -0.058 A 
ATOM      7  C   UNL A   1      15.380   5.384  12.667  1.00  0.00     0.010 A 
ATOM      8  C   UNL A   1      16.658   5.798  13.044  1.00  0.00     0.037 A 
BRANCH   6   9
ATOM      9  C   UNL A   1      13.711   4.752  10.917  1.00  0.00     0.049 C 
BRANCH   9  10
ATOM     10  C   UNL A   1      13.477   4.771   9.402  1.00  0.00     0.117 C 
BRANCH  10  11
ATOM     11  C   UNL A   1      13.475   3.378   8.821  1.00  0.00     0.172 C 
ATOM     12  O   UNL A   1      12.790   2.489   9.584  1.00  0.00    -0.648 OA
ATOM     13  O   UNL A   1      14.011   3.080   7.762  1.00  0.00    -0.648 OA
ENDBRANCH  10  11
ENDBRANCH   9  10
ENDBRANCH   6   9
ENDBRANCH   1   3
TORSDOF 4
ENDMDL
MODEL 5
REMARK VINA RESULT:      -5.8      2.576      3.684
REMARK  4 active torsions:
REMARK  status: ('A' for Active; 'I' for Inactive)
REMARK    1  A    between atoms: O_1  and  C_11 
REMARK    2  A    between atoms: C_4  and  C_5 
REMARK    3  A    between atoms: C_4  and  C_6 
REMARK    4  A    between atoms: C_6  and  C_12 
ROOT
ATOM      1  O   UNL A   1      17.944   5.941   9.883  1.00  0.00    -0.361 OA
ATOM      2  H   UNL A   1      17.997   5.655   8.992  1.00  0.00     0.217 HD
ENDROOT
BRANCH   1   3
ATOM      3  C   UNL A   1      16.834   5.665  10.620  1.00  0.00     0.065 A 
ATOM      4  C   UNL A   1      15.663   5.246   9.989  1.00  0.00     0.037 A 
ATOM      5  C   UNL A   1      14.525   4.964  10.744  1.00  0.00     0.010 A 
ATOM      6  C   UNL A   1      14.557   5.100  12.132  1.00  0.00    -0.058 A 
ATOM      7  C   UNL A   1      15.728   5.519  12.764  1.00  0.00     0.010 A 
ATOM      8  C   UNL A   1      16.866   5.801  12.009  1.00  0.00     0.037 A 
BRANCH   6   9
ATOM      9  C   UNL A   1      13.341   4.798  12.940  1.00  0.00     0.049 C 
BRANCH   9  10
ATOM     10  C   UNL A   1      12.745   6.024  13.641  1.00  0.00     0.117 C 
BRANCH  10  11
ATOM     11  C   UNL A   1      11.950   6.881  12.685  1.00  0.00     0.172 C 
ATOM     12  O   UNL A   1      11.263   6.153  11.770  1.00  0.00    -0.648 OA
ATOM     13  O   UNL A   1      11.905   8.103  12.741  1.00  0.00    -0.648 OA
ENDBRANCH  10  11
ENDBRANCH   9  10
ENDBRANCH   6   9
ENDBRANCH   1   3
TORSDOF 4
ENDMDL
MODEL 6
REMARK VINA RESULT:      -5.8      3.130      3.825
REMARK  4 active torsions:
REMARK  status: ('A' for Active; 'I' for Inactive)
REMARK    1  A    between atoms: O_1  and  C_11 
REMARK    2  A    between atoms: C_4  and  C_5 
REMARK    3  A    between atoms: C_4  and  C_6 
REMARK    4  A    between atoms: C_6  and  C_12 
ROOT
ATOM      1  O   UNL A   1      12.676   9.897  14.649  1.00  0.00    -0.361 OA
ATOM      2  H   UNL A   1      11.908  10.398  14.456  1.00  0.00     0.217 HD
ENDROOT
BRANCH   1   3
ATOM      3  C   UNL A   1      12.885   8.705  14.027  1.00  0.00     0.065 A 
ATOM      4  C   UNL A   1      11.935   8.208  13.135  1.00  0.00     0.037 A 
ATOM      5  C   UNL A   1      12.146   6.986  12.498  1.00  0.00     0.010 A 
ATOM      6  C   UNL A   1      13.310   6.259  12.753  1.00  0.00    -0.058 A 
ATOM      7  C   UNL A   1      14.260   6.756  13.645  1.00  0.00     0.010 A 
ATOM      8  C   UNL A   1      14.048   7.978  14.282  1.00  0.00     0.037 A 
BRANCH   6   9
ATOM      9  C   UNL A   1      13.537   4.953  12.072  1.00  0.00     0.049 C 
BRANCH   9  10
ATOM     10  C   UNL A   1      14.350   5.065  10.777  1.00  0.00     0.117 C 
BRANCH  10  11
ATOM     11  C   UNL A   1      13.611   4.471   9.602  1.00  0.00     0.172 C 
ATOM     12  O   UNL A   1      14.437   3.879   8.703  1.00  0.00    -0.648 OA
ATOM     13  O   UNL A   1      12.393   4.494   9.480  1.00  0.00    -0.648 OA
ENDBRANCH  10  11
ENDBRANCH   9  10
ENDBRANCH   6   9
ENDBRANCH   1   3
TORSDOF 4
ENDMDL
MODEL 7
REMARK VINA RESULT:      -5.7      2.105      5.165
REMARK  4 active torsions:
REMARK  status: ('A' for Active; 'I' for Inactive)
REMARK    1  A    between atoms: O_1  and  C_11 
REMARK    2  A    between atoms: C_4  and  C_5 
REMARK    3  A    between atoms: C_4  and  C_6 
REMARK    4  A    between atoms: C_6  and  C_12 
ROOT
ATOM      1  O   UNL A   1      11.508   4.289  11.673  1.00  0.00    -0.361 OA
ATOM      2  H   UNL A   1      10.848   4.663  11.122  1.00  0.00     0.217 HD
ENDROOT
BRANCH   1   3
ATOM      3  C   UNL A   1      12.814   4.625  11.492  1.00  0.00     0.065 A 
ATOM      4  C   UNL A   1      13.626   4.889  12.594  1.00  0.00     0.037 A 
ATOM      5  C   UNL A   1      14.964   5.235  12.410  1.00  0.00     0.010 A 
ATOM      6  C   UNL A   1      15.492   5.317  11.120  1.00  0.00    -0.058 A 
ATOM      7  C   UNL A   1      14.680   5.053  10.018  1.00  0.00     0.010 A 
ATOM      8  C   UNL A   1      13.341   4.707  10.202  1.00  0.00     0.037 A 
BRANCH   6   9
ATOM      9  C   UNL A   1      16.922   5.686  10.922  1.00  0.00     0.049 C 
BRANCH   9  10
ATOM     10  C   UNL A   1      17.699   5.873  12.231  1.00  0.00     0.117 C 
BRANCH  10  11
ATOM     11  C   UNL A   1      19.190   5.795  12.010  1.00  0.00     0.172 C 
ATOM     12  O   UNL A   1      19.814   4.987  12.904  1.00  0.00    -0.648 OA
ATOM     13  O   UNL A   1      19.777   6.375  11.106  1.00  0.00    -0.648 OA
ENDBRANCH  10  11
ENDBRANCH   9  10
ENDBRANCH   6   9
ENDBRANCH   1   3
TORSDOF 4
ENDMDL
MODEL 8
REMARK VINA RESULT:      -5.7      2.551      3.430
REMARK  4 active torsions:
REMARK  status: ('A' for Active; 'I' for Inactive)
REMARK    1  A    between atoms: O_1  and  C_11 
REMARK    2  A    between atoms: C_4  and  C_5 
REMARK    3  A    between atoms: C_4  and  C_6 
REMARK    4  A    between atoms: C_6  and  C_12 
ROOT
ATOM      1  O   UNL A   1      17.845   6.107   9.940  1.00  0.00    -0.361 OA
ATOM      2  H   UNL A   1      17.931   5.777   9.067  1.00  0.00     0.217 HD
ENDROOT
BRANCH   1   3
ATOM      3  C   UNL A   1      16.762   5.767  10.691  1.00  0.00     0.065 A 
ATOM      4  C   UNL A   1      16.824   5.851  12.082  1.00  0.00     0.037 A 
ATOM      5  C   UNL A   1      15.715   5.502  12.853  1.00  0.00     0.010 A 
ATOM      6  C   UNL A   1      14.543   5.068  12.232  1.00  0.00    -0.058 A 
ATOM      7  C   UNL A   1      14.482   4.983  10.841  1.00  0.00     0.010 A 
ATOM      8  C   UNL A   1      15.590   5.333  10.071  1.00  0.00     0.037 A 
BRANCH   6   9
ATOM      9  C   UNL A   1      13.358   4.695  13.055  1.00  0.00     0.049 C 
BRANCH   9  10
ATOM     10  C   UNL A   1      12.631   5.896  13.671  1.00  0.00     0.117 C 
BRANCH  10  11
ATOM     11  C   UNL A   1      11.919   6.715  12.621  1.00  0.00     0.172 C 
ATOM     12  O   UNL A   1      12.109   8.050  12.775  1.00  0.00    -0.648 OA
ATOM     13  O   UNL A   1      11.261   6.231  11.710  1.00  0.00    -0.648 OA
ENDBRANCH  10  11
ENDBRANCH   9  10
ENDBRANCH   6   9
ENDBRANCH   1   3
TORSDOF 4
ENDMDL
MODEL 9
REMARK VINA RESULT:      -5.7      3.585      4.452
REMARK  4 active torsions:
REMARK  status: ('A' for Active; 'I' for Inactive)
REMARK    1  A    between atoms: O_1  and  C_11 
REMARK    2  A    between atoms: C_4  and  C_5 
REMARK    3  A    between atoms: C_4  and  C_6 
REMARK    4  A    between atoms: C_6  and  C_12 
ROOT
ATOM      1  O   UNL A   1      11.165   7.234  16.418  1.00  0.00    -0.361 OA
ATOM      2  H   UNL A   1      11.395   6.712  17.161  1.00  0.00     0.217 HD
ENDROOT
BRANCH   1   3
ATOM      3  C   UNL A   1      11.880   7.128  15.265  1.00  0.00     0.065 A 
ATOM      4  C   UNL A   1      11.991   8.224  14.410  1.00  0.00     0.037 A 
ATOM      5  C   UNL A   1      12.723   8.116  13.227  1.00  0.00     0.010 A 
ATOM      6  C   UNL A   1      13.344   6.910  12.899  1.00  0.00    -0.058 A 
ATOM      7  C   UNL A   1      13.232   5.814  13.755  1.00  0.00     0.010 A 
ATOM      8  C   UNL A   1      12.501   5.922  14.937  1.00  0.00     0.037 A 
BRANCH   6   9
ATOM      9  C   UNL A   1      14.126   6.794  11.636  1.00  0.00     0.049 C 
BRANCH   9  10
ATOM     10  C   UNL A   1      14.881   5.467  11.497  1.00  0.00     0.117 C 
BRANCH  10  11
ATOM     11  C   UNL A   1      15.144   5.124  10.050  1.00  0.00     0.172 C 
ATOM     12  O   UNL A   1      14.017   5.121   9.296  1.00  0.00    -0.648 OA
ATOM     13  O   UNL A   1      16.258   4.898   9.595  1.00  0.00    -0.648 OA
ENDBRANCH  10  11
ENDBRANCH   9  10
ENDBRANCH   6   9
ENDBRANCH   1   3
TORSDOF 4
ENDMDL
