MODEL 1
REMARK VINA RESULT:      -4.4      0.000      0.000
REMARK  2 active torsions:
REMARK  status: ('A' for Active; 'I' for Inactive)
REMARK    1  A    between atoms: C_3  and  C_4 
REMARK    2  A    between atoms: C_4  and  C_6 
ROOT
ATOM      1  O   UNL A   1      22.250  -2.199  36.474  1.00  0.00    -0.648 OA
ATOM      2  O   UNL A   1      23.633  -1.161  34.981  1.00  0.00    -0.648 OA
ATOM      3  C   UNL A   1      22.536  -1.657  35.370  1.00  0.00     0.172 C 
ENDROOT
BRANCH   3   4
ATOM      4  C   UNL A   1      21.413  -1.597  34.330  1.00  0.00     0.113 C 
BRANCH   4   5
ATOM      5  C   UNL A   1      21.531  -2.548  33.144  1.00  0.00     0.006 C 
ATOM      6  C   UNL A   1      20.815  -2.029  31.906  1.00  0.00     0.005 C 
ENDBRANCH   4   5
ENDBRANCH   3   4
TORSDOF 2
ENDMDL
MODEL 2
REMARK VINA RESULT:      -4.4      0.424      1.385
REMARK  2 active torsions:
REMARK  status: ('A' for Active; 'I' for Inactive)
REMARK    1  A    between atoms: C_3  and  C_4 
REMARK    2  A    between atoms: C_4  and  C_6 
ROOT
ATOM      1  O   UNL A   1      23.649  -1.188  35.010  1.00  0.00    -0.648 OA
ATOM      2  O   UNL A   1      22.210  -2.201  36.466  1.00  0.00    -0.648 OA
ATOM      3  C   UNL A   1      22.537  -1.668  35.367  1.00  0.00     0.172 C 
ENDROOT
BRANCH   3   4
ATOM      4  C   UNL A   1      21.400  -1.586  34.343  1.00  0.00     0.113 C 
BRANCH   4   5
ATOM      5  C   UNL A   1      21.805  -1.598  32.873  1.00  0.00     0.006 C 
ATOM      6  C   UNL A   1      20.674  -2.052  31.962  1.00  0.00     0.005 C 
ENDBRANCH   4   5
ENDBRANCH   3   4
TORSDOF 2
ENDMDL
MODEL 3
REMARK VINA RESULT:      -3.9      2.387      3.282
REMARK  2 active torsions:
REMARK  status: ('A' for Active; 'I' for Inactive)
REMARK    1  A    between atoms: C_3  and  C_4 
REMARK    2  A    between atoms: C_4  and  C_6 
ROOT
ATOM      1  O   UNL A   1      22.299  -4.273  33.899  1.00  0.00    -0.648 OA
ATOM      2  O   UNL A   1      21.368  -3.616  31.919  1.00  0.00    -0.648 OA
ATOM      3  C   UNL A   1      21.773  -3.444  33.105  1.00  0.00     0.172 C 
ENDROOT
BRANCH   3   4
ATOM      4  C   UNL A   1      21.568  -2.023  33.640  1.00  0.00     0.113 C 
BRANCH   4   5
ATOM      5  C   UNL A   1      22.692  -1.450  34.495  1.00  0.00     0.006 C 
ATOM      6  C   UNL A   1      22.316  -1.359  35.967  1.00  0.00     0.005 C 
ENDBRANCH   4   5
ENDBRANCH   3   4
TORSDOF 2
ENDMDL
MODEL 4
REMARK VINA RESULT:      -3.9      1.729      1.956
REMARK  2 active torsions:
REMARK  status: ('A' for Active; 'I' for Inactive)
REMARK    1  A    between atoms: C_3  and  C_4 
REMARK    2  A    between atoms: C_4  and  C_6 
ROOT
ATOM      1  O   UNL A   1      22.751  -2.518  35.081  1.00  0.00    -0.648 OA
ATOM      2  O   UNL A   1      22.067  -4.034  33.515  1.00  0.00    -0.648 OA
ATOM      3  C   UNL A   1      22.104  -2.895  34.065  1.00  0.00     0.172 C 
ENDROOT
BRANCH   3   4
ATOM      4  C   UNL A   1      21.212  -1.843  33.397  1.00  0.00     0.113 C 
BRANCH   4   5
ATOM      5  C   UNL A   1      21.404  -1.643  31.898  1.00  0.00     0.006 C 
ATOM      6  C   UNL A   1      20.249  -2.207  31.082  1.00  0.00     0.005 C 
ENDBRANCH   4   5
ENDBRANCH   3   4
TORSDOF 2
ENDMDL
MODEL 5
REMARK VINA RESULT:      -3.8      2.375      3.409
REMARK  2 active torsions:
REMARK  status: ('A' for Active; 'I' for Inactive)
REMARK    1  A    between atoms: C_3  and  C_4 
REMARK    2  A    between atoms: C_4  and  C_6 
ROOT
ATOM      1  O   UNL A   1      21.661  -3.810  31.912  1.00  0.00    -0.648 OA
ATOM      2  O   UNL A   1      22.299  -4.364  34.034  1.00  0.00    -0.648 OA
ATOM      3  C   UNL A   1      21.882  -3.580  33.133  1.00  0.00     0.172 C 
ENDROOT
BRANCH   3   4
ATOM      4  C   UNL A   1      21.632  -2.146  33.612  1.00  0.00     0.113 C 
BRANCH   4   5
ATOM      5  C   UNL A   1      22.712  -1.525  34.491  1.00  0.00     0.006 C 
ATOM      6  C   UNL A   1      22.260  -1.352  35.934  1.00  0.00     0.005 C 
ENDBRANCH   4   5
ENDBRANCH   3   4
TORSDOF 2
ENDMDL
MODEL 6
REMARK VINA RESULT:      -3.8      2.514      3.084
REMARK  2 active torsions:
REMARK  status: ('A' for Active; 'I' for Inactive)
REMARK    1  A    between atoms: C_3  and  C_4 
REMARK    2  A    between atoms: C_4  and  C_6 
ROOT
ATOM      1  O   UNL A   1      21.323  -1.828  34.103  1.00  0.00    -0.648 OA
ATOM      2  O   UNL A   1      21.347  -1.088  31.942  1.00  0.00    -0.648 OA
ATOM      3  C   UNL A   1      21.387  -1.968  32.850  1.00  0.00     0.172 C 
ENDROOT
BRANCH   3   4
ATOM      4  C   UNL A   1      21.557  -3.400  32.333  1.00  0.00     0.113 C 
BRANCH   4   5
ATOM      5  C   UNL A   1      22.051  -4.433  33.339  1.00  0.00     0.006 C 
ATOM      6  C   UNL A   1      22.564  -5.700  32.668  1.00  0.00     0.005 C 
ENDBRANCH   4   5
ENDBRANCH   3   4
TORSDOF 2
ENDMDL
MODEL 7
REMARK VINA RESULT:      -3.8      2.502      3.292
REMARK  2 active torsions:
REMARK  status: ('A' for Active; 'I' for Inactive)
REMARK    1  A    between atoms: C_3  and  C_4 
REMARK    2  A    between atoms: C_4  and  C_6 
ROOT
ATOM      1  O   UNL A   1      21.438  -1.076  31.899  1.00  0.00    -0.648 OA
ATOM      2  O   UNL A   1      21.225  -1.748  34.072  1.00  0.00    -0.648 OA
ATOM      3  C   UNL A   1      21.358  -1.929  32.827  1.00  0.00     0.172 C 
ENDROOT
BRANCH   3   4
ATOM      4  C   UNL A   1      21.406  -3.401  32.405  1.00  0.00     0.113 C 
BRANCH   4   5
ATOM      5  C   UNL A   1      22.094  -4.362  33.368  1.00  0.00     0.006 C 
ATOM      6  C   UNL A   1      22.566  -5.636  32.682  1.00  0.00     0.005 C 
ENDBRANCH   4   5
ENDBRANCH   3   4
TORSDOF 2
ENDMDL
MODEL 8
REMARK VINA RESULT:      -3.7      2.616      3.198
REMARK  2 active torsions:
REMARK  status: ('A' for Active; 'I' for Inactive)
REMARK    1  A    between atoms: C_3  and  C_4 
REMARK    2  A    between atoms: C_4  and  C_6 
ROOT
ATOM      1  O   UNL A   1      20.979  -1.897  33.248  1.00  0.00    -0.648 OA
ATOM      2  O   UNL A   1      22.446  -3.078  34.542  1.00  0.00    -0.648 OA
ATOM      3  C   UNL A   1      21.720  -2.881  33.524  1.00  0.00     0.172 C 
ENDROOT
BRANCH   3   4
ATOM      4  C   UNL A   1      21.746  -4.022  32.502  1.00  0.00     0.113 C 
BRANCH   4   5
ATOM      5  C   UNL A   1      22.237  -5.375  33.004  1.00  0.00     0.006 C 
ATOM      6  C   UNL A   1      21.094  -6.329  33.317  1.00  0.00     0.005 C 
ENDBRANCH   4   5
ENDBRANCH   3   4
TORSDOF 2
ENDMDL
MODEL 9
REMARK VINA RESULT:      -3.6      3.407      3.781
REMARK  2 active torsions:
REMARK  status: ('A' for Active; 'I' for Inactive)
REMARK    1  A    between atoms: C_3  and  C_4 
REMARK    2  A    between atoms: C_4  and  C_6 
ROOT
ATOM      1  O   UNL A   1      22.900  -6.181  33.819  1.00  0.00    -0.648 OA
ATOM      2  O   UNL A   1      22.612  -5.628  31.621  1.00  0.00    -0.648 OA
ATOM      3  C   UNL A   1      22.548  -5.428  32.869  1.00  0.00     0.172 C 
ENDROOT
BRANCH   3   4
ATOM      4  C   UNL A   1      21.935  -4.079  33.259  1.00  0.00     0.113 C 
BRANCH   4   5
ATOM      5  C   UNL A   1      21.405  -3.217  32.120  1.00  0.00     0.006 C 
ATOM      6  C   UNL A   1      21.212  -1.764  32.529  1.00  0.00     0.005 C 
ENDBRANCH   4   5
ENDBRANCH   3   4
TORSDOF 2
ENDMDL
