MODEL 1
REMARK VINA RESULT:      -6.6      0.000      0.000
REMARK  8 active torsions:
REMARK  status: ('A' for Active; 'I' for Inactive)
REMARK    1  A    between atoms: O_1  and  C_2 
REMARK    2  A    between atoms: C_2  and  C_3 
REMARK    3  A    between atoms: C_2  and  C_8 
REMARK    4  A    between atoms: C_3  and  C_4 
REMARK    5  A    between atoms: C_4  and  C_5 
REMARK    6  A    between atoms: C_8  and  C_9 
REMARK    7  A    between atoms: C_11  and  O_16 
REMARK    8  A    between atoms: C_12  and  O_15 
ROOT
HETATM    1  O   UNL     1       2.573 -10.726  56.407  1.00  0.00    -0.395 OA
HETATM    2  H   UNL     1       2.012 -10.432  57.142  1.00  0.00     0.210 HD
ENDROOT
BRANCH   1   3
HETATM    3  C   UNL     1       3.288  -9.609  55.877  1.00  0.00     0.122 C 
BRANCH   3   4
HETATM    4  C   UNL     1       4.430  -9.223  56.831  1.00  0.00     0.042 C 
BRANCH   4   5
HETATM    5  C   UNL     1       4.456 -10.057  58.115  1.00  0.00     0.116 C 
BRANCH   5   6
HETATM    6  C   UNL     1       5.612 -11.015  58.252  1.00  0.00     0.172 C 
HETATM    7  O   UNL     1       5.551 -12.126  58.752  1.00  0.00    -0.648 OA
HETATM    8  O   UNL     1       6.758 -10.598  57.679  1.00  0.00    -0.648 OA
ENDBRANCH   5   6
ENDBRANCH   4   5
ENDBRANCH   3   4
BRANCH   3   9
HETATM    9  C   UNL     1       2.327  -8.425  55.673  1.00  0.00     0.070 C 
BRANCH   9  10
HETATM   10  C   UNL     1       3.011  -7.213  55.079  1.00  0.00    -0.053 A 
HETATM   11  C   UNL     1       3.693  -7.309  53.857  1.00  0.00     0.046 A 
HETATM   12  C   UNL     1       4.330  -6.191  53.336  1.00  0.00     0.099 A 
HETATM   13  C   UNL     1       4.274  -4.969  53.997  1.00  0.00     0.098 A 
HETATM   14  C   UNL     1       3.622  -4.858  55.216  1.00  0.00     0.040 A 
HETATM   15  C   UNL     1       2.991  -5.982  55.759  1.00  0.00     0.010 A 
BRANCH  12  16
HETATM   16  O   UNL     1       5.043  -6.314  52.178  1.00  0.00    -0.358 OA
HETATM   17  H   UNL     1       5.357  -7.154  51.908  1.00  0.00     0.217 HD
ENDBRANCH  12  16
BRANCH  13  18
HETATM   18  O   UNL     1       4.835  -3.855  53.444  1.00  0.00    -0.358 OA
HETATM   19  H   UNL     1       5.529  -3.409  53.888  1.00  0.00     0.217 HD
ENDBRANCH  13  18
ENDBRANCH   9  10
ENDBRANCH   3   9
ENDBRANCH   1   3
TORSDOF 8
ENDMDL
MODEL 2
REMARK VINA RESULT:      -6.6      1.846      3.100
REMARK  8 active torsions:
REMARK  status: ('A' for Active; 'I' for Inactive)
REMARK    1  A    between atoms: O_1  and  C_2 
REMARK    2  A    between atoms: C_2  and  C_3 
REMARK    3  A    between atoms: C_2  and  C_8 
REMARK    4  A    between atoms: C_3  and  C_4 
REMARK    5  A    between atoms: C_4  and  C_5 
REMARK    6  A    between atoms: C_8  and  C_9 
REMARK    7  A    between atoms: C_11  and  O_16 
REMARK    8  A    between atoms: C_12  and  O_15 
ROOT
HETATM    1  O   UNL     1       2.896 -10.269  57.478  1.00  0.00    -0.395 OA
HETATM    2  H   UNL     1       3.240  -9.994  58.343  1.00  0.00     0.210 HD
ENDROOT
BRANCH   1   3
HETATM    3  C   UNL     1       2.797  -9.131  56.623  1.00  0.00     0.122 C 
BRANCH   3   4
HETATM    4  C   UNL     1       1.620  -9.313  55.651  1.00  0.00     0.042 C 
BRANCH   4   5
HETATM    5  C   UNL     1       1.820 -10.466  54.665  1.00  0.00     0.116 C 
BRANCH   5   6
HETATM    6  C   UNL     1       1.102 -11.748  55.000  1.00  0.00     0.172 C 
HETATM    7  O   UNL     1       0.828 -12.129  56.126  1.00  0.00    -0.648 OA
HETATM    8  O   UNL     1       0.671 -12.446  53.932  1.00  0.00    -0.648 OA
ENDBRANCH   5   6
ENDBRANCH   4   5
ENDBRANCH   3   4
BRANCH   3   9
HETATM    9  C   UNL     1       4.115  -8.942  55.851  1.00  0.00     0.070 C 
BRANCH   9  10
HETATM   10  C   UNL     1       4.214  -7.587  55.186  1.00  0.00    -0.053 A 
HETATM   11  C   UNL     1       4.601  -7.482  53.841  1.00  0.00     0.046 A 
HETATM   12  C   UNL     1       4.705  -6.230  53.252  1.00  0.00     0.099 A 
HETATM   13  C   UNL     1       4.401  -5.079  53.971  1.00  0.00     0.098 A 
HETATM   14  C   UNL     1       4.036  -5.161  55.306  1.00  0.00     0.040 A 
HETATM   15  C   UNL     1       3.945  -6.416  55.915  1.00  0.00     0.010 A 
BRANCH  12  16
HETATM   16  O   UNL     1       5.143  -6.138  51.962  1.00  0.00    -0.358 OA
HETATM   17  H   UNL     1       4.631  -5.680  51.325  1.00  0.00     0.217 HD
ENDBRANCH  12  16
BRANCH  13  18
HETATM   18  O   UNL     1       4.429  -3.855  53.366  1.00  0.00    -0.358 OA
HETATM   19  H   UNL     1       3.629  -3.405  53.183  1.00  0.00     0.217 HD
ENDBRANCH  13  18
ENDBRANCH   9  10
ENDBRANCH   3   9
ENDBRANCH   1   3
TORSDOF 8
ENDMDL
MODEL 3
REMARK VINA RESULT:      -6.4      3.512      5.972
REMARK  8 active torsions:
REMARK  status: ('A' for Active; 'I' for Inactive)
REMARK    1  A    between atoms: O_1  and  C_2 
REMARK    2  A    between atoms: C_2  and  C_3 
REMARK    3  A    between atoms: C_2  and  C_8 
REMARK    4  A    between atoms: C_3  and  C_4 
REMARK    5  A    between atoms: C_4  and  C_5 
REMARK    6  A    between atoms: C_8  and  C_9 
REMARK    7  A    between atoms: C_11  and  O_16 
REMARK    8  A    between atoms: C_12  and  O_15 
ROOT
HETATM    1  O   UNL     1      -0.527 -10.925  56.417  1.00  0.00    -0.395 OA
HETATM    2  H   UNL     1      -1.304 -10.354  56.526  1.00  0.00     0.210 HD
ENDROOT
BRANCH   1   3
HETATM    3  C   UNL     1       0.380 -10.324  55.494  1.00  0.00     0.122 C 
BRANCH   3   4
HETATM    4  C   UNL     1      -0.233 -10.333  54.084  1.00  0.00     0.042 C 
BRANCH   4   5
HETATM    5  C   UNL     1      -1.584 -11.048  54.013  1.00  0.00     0.116 C 
BRANCH   5   6
HETATM    6  C   UNL     1      -1.712 -12.108  52.949  1.00  0.00     0.172 C 
HETATM    7  O   UNL     1      -0.785 -12.581  52.311  1.00  0.00    -0.648 OA
HETATM    8  O   UNL     1      -2.955 -12.601  52.794  1.00  0.00    -0.648 OA
ENDBRANCH   5   6
ENDBRANCH   4   5
ENDBRANCH   3   4
BRANCH   3   9
HETATM    9  C   UNL     1       1.718 -11.083  55.509  1.00  0.00     0.070 C 
BRANCH   9  10
HETATM   10  C   UNL     1       2.899 -10.180  55.791  1.00  0.00    -0.053 A 
HETATM   11  C   UNL     1       3.611 -10.295  56.995  1.00  0.00     0.046 A 
HETATM   12  C   UNL     1       4.680  -9.447  57.245  1.00  0.00     0.099 A 
HETATM   13  C   UNL     1       5.074  -8.503  56.302  1.00  0.00     0.098 A 
HETATM   14  C   UNL     1       4.372  -8.361  55.115  1.00  0.00     0.040 A 
HETATM   15  C   UNL     1       3.282  -9.198  54.860  1.00  0.00     0.010 A 
BRANCH  12  16
HETATM   16  O   UNL     1       5.324  -9.528  58.447  1.00  0.00    -0.358 OA
HETATM   17  H   UNL     1       6.198  -9.201  58.532  1.00  0.00     0.217 HD
ENDBRANCH  12  16
BRANCH  13  18
HETATM   18  O   UNL     1       6.173  -7.724  56.518  1.00  0.00    -0.358 OA
HETATM   19  H   UNL     1       6.877  -7.725  55.900  1.00  0.00     0.217 HD
ENDBRANCH  13  18
ENDBRANCH   9  10
ENDBRANCH   3   9
ENDBRANCH   1   3
TORSDOF 8
ENDMDL
MODEL 4
REMARK VINA RESULT:      -6.4      2.914      5.431
REMARK  8 active torsions:
REMARK  status: ('A' for Active; 'I' for Inactive)
REMARK    1  A    between atoms: O_1  and  C_2 
REMARK    2  A    between atoms: C_2  and  C_3 
REMARK    3  A    between atoms: C_2  and  C_8 
REMARK    4  A    between atoms: C_3  and  C_4 
REMARK    5  A    between atoms: C_4  and  C_5 
REMARK    6  A    between atoms: C_8  and  C_9 
REMARK    7  A    between atoms: C_11  and  O_16 
REMARK    8  A    between atoms: C_12  and  O_15 
ROOT
HETATM    1  O   UNL     1       1.763 -10.459  52.035  1.00  0.00    -0.395 OA
HETATM    2  H   UNL     1       2.635 -10.120  51.778  1.00  0.00     0.210 HD
ENDROOT
BRANCH   1   3
HETATM    3  C   UNL     1       1.542 -10.202  53.421  1.00  0.00     0.122 C 
BRANCH   3   4
HETATM    4  C   UNL     1       0.035 -10.070  53.692  1.00  0.00     0.042 C 
BRANCH   4   5
HETATM    5  C   UNL     1      -0.497 -11.111  54.679  1.00  0.00     0.116 C 
BRANCH   5   6
HETATM    6  C   UNL     1      -1.330 -10.574  55.815  1.00  0.00     0.172 C 
HETATM    7  O   UNL     1      -2.545 -10.654  55.897  1.00  0.00    -0.648 OA
HETATM    8  O   UNL     1      -0.620 -10.055  56.835  1.00  0.00    -0.648 OA
ENDBRANCH   5   6
ENDBRANCH   4   5
ENDBRANCH   3   4
BRANCH   3   9
HETATM    9  C   UNL     1       2.283  -8.919  53.838  1.00  0.00     0.070 C 
BRANCH   9  10
HETATM   10  C   UNL     1       3.160  -9.119  55.054  1.00  0.00    -0.053 A 
HETATM   11  C   UNL     1       4.285  -8.306  55.261  1.00  0.00     0.046 A 
HETATM   12  C   UNL     1       5.089  -8.516  56.373  1.00  0.00     0.099 A 
HETATM   13  C   UNL     1       4.776  -9.504  57.300  1.00  0.00     0.098 A 
HETATM   14  C   UNL     1       3.680 -10.330  57.103  1.00  0.00     0.040 A 
HETATM   15  C   UNL     1       2.873 -10.140  55.978  1.00  0.00     0.010 A 
BRANCH  12  16
HETATM   16  O   UNL     1       6.216  -7.759  56.529  1.00  0.00    -0.358 OA
HETATM   17  H   UNL     1       6.675  -7.768  57.345  1.00  0.00     0.217 HD
ENDBRANCH  12  16
BRANCH  13  18
HETATM   18  O   UNL     1       5.524  -9.655  58.432  1.00  0.00    -0.358 OA
HETATM   19  H   UNL     1       6.302 -10.177  58.412  1.00  0.00     0.217 HD
ENDBRANCH  13  18
ENDBRANCH   9  10
ENDBRANCH   3   9
ENDBRANCH   1   3
TORSDOF 8
ENDMDL
MODEL 5
REMARK VINA RESULT:      -6.4      2.248      5.791
REMARK  8 active torsions:
REMARK  status: ('A' for Active; 'I' for Inactive)
REMARK    1  A    between atoms: O_1  and  C_2 
REMARK    2  A    between atoms: C_2  and  C_3 
REMARK    3  A    between atoms: C_2  and  C_8 
REMARK    4  A    between atoms: C_3  and  C_4 
REMARK    5  A    between atoms: C_4  and  C_5 
REMARK    6  A    between atoms: C_8  and  C_9 
REMARK    7  A    between atoms: C_11  and  O_16 
REMARK    8  A    between atoms: C_12  and  O_15 
ROOT
HETATM    1  O   UNL     1       6.424  -7.607  55.887  1.00  0.00    -0.395 OA
HETATM    2  H   UNL     1       6.750  -6.694  55.881  1.00  0.00     0.210 HD
ENDROOT
BRANCH   1   3
HETATM    3  C   UNL     1       4.997  -7.603  55.853  1.00  0.00     0.122 C 
BRANCH   3   4
HETATM    4  C   UNL     1       4.465  -6.354  56.574  1.00  0.00     0.042 C 
BRANCH   4   5
HETATM    5  C   UNL     1       3.303  -5.680  55.841  1.00  0.00     0.116 C 
BRANCH   5   6
HETATM    6  C   UNL     1       3.493  -5.470  54.360  1.00  0.00     0.172 C 
HETATM    7  O   UNL     1       2.804  -5.966  53.484  1.00  0.00    -0.648 OA
HETATM    8  O   UNL     1       4.456  -4.586  54.038  1.00  0.00    -0.648 OA
ENDBRANCH   5   6
ENDBRANCH   4   5
ENDBRANCH   3   4
BRANCH   3   9
HETATM    9  C   UNL     1       4.456  -8.883  56.514  1.00  0.00     0.070 C 
BRANCH   9  10
HETATM   10  C   UNL     1       3.391  -9.565  55.684  1.00  0.00    -0.053 A 
HETATM   11  C   UNL     1       2.629 -10.611  56.226  1.00  0.00     0.046 A 
HETATM   12  C   UNL     1       1.669 -11.238  55.444  1.00  0.00     0.099 A 
HETATM   13  C   UNL     1       1.433 -10.821  54.138  1.00  0.00     0.098 A 
HETATM   14  C   UNL     1       2.190  -9.803  53.578  1.00  0.00     0.040 A 
HETATM   15  C   UNL     1       3.172  -9.176  54.351  1.00  0.00     0.010 A 
BRANCH  12  16
HETATM   16  O   UNL     1       0.977 -12.295  55.962  1.00  0.00    -0.358 OA
HETATM   17  H   UNL     1       0.131 -12.512  55.624  1.00  0.00     0.217 HD
ENDBRANCH  12  16
BRANCH  13  18
HETATM   18  O   UNL     1       0.436 -11.387  53.398  1.00  0.00    -0.358 OA
HETATM   19  H   UNL     1       0.156 -12.263  53.581  1.00  0.00     0.217 HD
ENDBRANCH  13  18
ENDBRANCH   9  10
ENDBRANCH   3   9
ENDBRANCH   1   3
TORSDOF 8
ENDMDL
MODEL 6
REMARK VINA RESULT:      -6.3      1.830      3.652
REMARK  8 active torsions:
REMARK  status: ('A' for Active; 'I' for Inactive)
REMARK    1  A    between atoms: O_1  and  C_2 
REMARK    2  A    between atoms: C_2  and  C_3 
REMARK    3  A    between atoms: C_2  and  C_8 
REMARK    4  A    between atoms: C_3  and  C_4 
REMARK    5  A    between atoms: C_4  and  C_5 
REMARK    6  A    between atoms: C_8  and  C_9 
REMARK    7  A    between atoms: C_11  and  O_16 
REMARK    8  A    between atoms: C_12  and  O_15 
ROOT
HETATM    1  O   UNL     1       3.267 -10.664  57.395  1.00  0.00    -0.395 OA
HETATM    2  H   UNL     1       3.665 -11.426  56.946  1.00  0.00     0.210 HD
ENDROOT
BRANCH   1   3
HETATM    3  C   UNL     1       3.216  -9.556  56.498  1.00  0.00     0.122 C 
BRANCH   3   4
HETATM    4  C   UNL     1       2.772 -10.035  55.106  1.00  0.00     0.042 C 
BRANCH   4   5
HETATM    5  C   UNL     1       1.266  -9.897  54.869  1.00  0.00     0.116 C 
BRANCH   5   6
HETATM    6  C   UNL     1       0.405 -10.979  55.469  1.00  0.00     0.172 C 
HETATM    7  O   UNL     1       0.818 -12.013  55.968  1.00  0.00    -0.648 OA
HETATM    8  O   UNL     1      -0.910 -10.689  55.515  1.00  0.00    -0.648 OA
ENDBRANCH   5   6
ENDBRANCH   4   5
ENDBRANCH   3   4
BRANCH   3   9
HETATM    9  C   UNL     1       4.596  -8.879  56.424  1.00  0.00     0.070 C 
BRANCH   9  10
HETATM   10  C   UNL     1       4.584  -7.613  55.597  1.00  0.00    -0.053 A 
HETATM   11  C   UNL     1       3.810  -6.512  55.994  1.00  0.00     0.046 A 
HETATM   12  C   UNL     1       3.796  -5.364  55.214  1.00  0.00     0.099 A 
HETATM   13  C   UNL     1       4.564  -5.282  54.058  1.00  0.00     0.098 A 
HETATM   14  C   UNL     1       5.320  -6.366  53.638  1.00  0.00     0.040 A 
HETATM   15  C   UNL     1       5.328  -7.534  54.407  1.00  0.00     0.010 A 
BRANCH  12  16
HETATM   16  O   UNL     1       2.990  -4.324  55.578  1.00  0.00    -0.358 OA
HETATM   17  H   UNL     1       2.060  -4.440  55.608  1.00  0.00     0.217 HD
ENDBRANCH  12  16
BRANCH  13  18
HETATM   18  O   UNL     1       4.609  -4.125  53.335  1.00  0.00    -0.358 OA
HETATM   19  H   UNL     1       3.873  -3.869  52.815  1.00  0.00     0.217 HD
ENDBRANCH  13  18
ENDBRANCH   9  10
ENDBRANCH   3   9
ENDBRANCH   1   3
TORSDOF 8
ENDMDL
MODEL 7
REMARK VINA RESULT:      -6.3      3.104      5.604
REMARK  8 active torsions:
REMARK  status: ('A' for Active; 'I' for Inactive)
REMARK    1  A    between atoms: O_1  and  C_2 
REMARK    2  A    between atoms: C_2  and  C_3 
REMARK    3  A    between atoms: C_2  and  C_8 
REMARK    4  A    between atoms: C_3  and  C_4 
REMARK    5  A    between atoms: C_4  and  C_5 
REMARK    6  A    between atoms: C_8  and  C_9 
REMARK    7  A    between atoms: C_11  and  O_16 
REMARK    8  A    between atoms: C_12  and  O_15 
ROOT
HETATM    1  O   UNL     1       1.116 -11.458  52.269  1.00  0.00    -0.395 OA
HETATM    2  H   UNL     1       1.984 -11.646  51.880  1.00  0.00     0.210 HD
ENDROOT
BRANCH   1   3
HETATM    3  C   UNL     1       1.259 -11.255  53.674  1.00  0.00     0.122 C 
BRANCH   3   4
HETATM    4  C   UNL     1       0.017 -11.791  54.405  1.00  0.00     0.042 C 
BRANCH   4   5
HETATM    5  C   UNL     1      -1.137 -10.787  54.458  1.00  0.00     0.116 C 
BRANCH   5   6
HETATM    6  C   UNL     1      -1.736 -10.547  55.820  1.00  0.00     0.172 C 
HETATM    7  O   UNL     1      -2.901 -10.749  56.123  1.00  0.00    -0.648 OA
HETATM    8  O   UNL     1      -0.854 -10.165  56.763  1.00  0.00    -0.648 OA
ENDBRANCH   5   6
ENDBRANCH   4   5
ENDBRANCH   3   4
BRANCH   3   9
HETATM    9  C   UNL     1       1.458  -9.758  53.969  1.00  0.00     0.070 C 
BRANCH   9  10
HETATM   10  C   UNL     1       2.617  -9.495  54.904  1.00  0.00    -0.053 A 
HETATM   11  C   UNL     1       2.681 -10.130  56.154  1.00  0.00     0.046 A 
HETATM   12  C   UNL     1       3.742  -9.863  57.007  1.00  0.00     0.099 A 
HETATM   13  C   UNL     1       4.759  -8.994  56.625  1.00  0.00     0.098 A 
HETATM   14  C   UNL     1       4.704  -8.341  55.403  1.00  0.00     0.040 A 
HETATM   15  C   UNL     1       3.631  -8.589  54.543  1.00  0.00     0.010 A 
BRANCH  12  16
HETATM   16  O   UNL     1       3.759 -10.439  58.245  1.00  0.00    -0.358 OA
HETATM   17  H   UNL     1       3.025 -10.339  58.818  1.00  0.00     0.217 HD
ENDBRANCH  12  16
BRANCH  13  18
HETATM   18  O   UNL     1       5.840  -8.794  57.434  1.00  0.00    -0.358 OA
HETATM   19  H   UNL     1       6.489  -8.160  57.201  1.00  0.00     0.217 HD
ENDBRANCH  13  18
ENDBRANCH   9  10
ENDBRANCH   3   9
ENDBRANCH   1   3
TORSDOF 8
ENDMDL
MODEL 8
REMARK VINA RESULT:      -6.2      2.157      3.618
REMARK  8 active torsions:
REMARK  status: ('A' for Active; 'I' for Inactive)
REMARK    1  A    between atoms: O_1  and  C_2 
REMARK    2  A    between atoms: C_2  and  C_3 
REMARK    3  A    between atoms: C_2  and  C_8 
REMARK    4  A    between atoms: C_3  and  C_4 
REMARK    5  A    between atoms: C_4  and  C_5 
REMARK    6  A    between atoms: C_8  and  C_9 
REMARK    7  A    between atoms: C_11  and  O_16 
REMARK    8  A    between atoms: C_12  and  O_15 
ROOT
HETATM    1  O   UNL     1       2.093  -9.437  57.331  1.00  0.00    -0.395 OA
HETATM    2  H   UNL     1       2.814  -9.942  57.738  1.00  0.00     0.210 HD
ENDROOT
BRANCH   1   3
HETATM    3  C   UNL     1       2.456  -9.082  55.997  1.00  0.00     0.122 C 
BRANCH   3   4
HETATM    4  C   UNL     1       2.289 -10.299  55.072  1.00  0.00     0.042 C 
BRANCH   4   5
HETATM    5  C   UNL     1       1.030 -10.234  54.205  1.00  0.00     0.116 C 
BRANCH   5   6
HETATM    6  C   UNL     1      -0.228 -10.778  54.831  1.00  0.00     0.172 C 
HETATM    7  O   UNL     1      -1.295 -10.924  54.256  1.00  0.00    -0.648 OA
HETATM    8  O   UNL     1      -0.085 -11.204  56.100  1.00  0.00    -0.648 OA
ENDBRANCH   5   6
ENDBRANCH   4   5
ENDBRANCH   3   4
BRANCH   3   9
HETATM    9  C   UNL     1       3.908  -8.573  55.969  1.00  0.00     0.070 C 
BRANCH   9  10
HETATM   10  C   UNL     1       4.056  -7.268  55.219  1.00  0.00    -0.053 A 
HETATM   11  C   UNL     1       4.431  -7.263  53.867  1.00  0.00     0.046 A 
HETATM   12  C   UNL     1       4.580  -6.056  53.199  1.00  0.00     0.099 A 
HETATM   13  C   UNL     1       4.333  -4.850  53.848  1.00  0.00     0.098 A 
HETATM   14  C   UNL     1       3.981  -4.833  55.189  1.00  0.00     0.040 A 
HETATM   15  C   UNL     1       3.845  -6.043  55.876  1.00  0.00     0.010 A 
BRANCH  12  16
HETATM   16  O   UNL     1       5.006  -6.063  51.902  1.00  0.00    -0.358 OA
HETATM   17  H   UNL     1       4.757  -5.369  51.323  1.00  0.00     0.217 HD
ENDBRANCH  12  16
BRANCH  13  18
HETATM   18  O   UNL     1       4.405  -3.669  53.167  1.00  0.00    -0.358 OA
HETATM   19  H   UNL     1       5.098  -3.066  53.348  1.00  0.00     0.217 HD
ENDBRANCH  13  18
ENDBRANCH   9  10
ENDBRANCH   3   9
ENDBRANCH   1   3
TORSDOF 8
ENDMDL
MODEL 9
REMARK VINA RESULT:      -6.2      2.029      6.103
REMARK  8 active torsions:
REMARK  status: ('A' for Active; 'I' for Inactive)
REMARK    1  A    between atoms: O_1  and  C_2 
REMARK    2  A    between atoms: C_2  and  C_3 
REMARK    3  A    between atoms: C_2  and  C_8 
REMARK    4  A    between atoms: C_3  and  C_4 
REMARK    5  A    between atoms: C_4  and  C_5 
REMARK    6  A    between atoms: C_8  and  C_9 
REMARK    7  A    between atoms: C_11  and  O_16 
REMARK    8  A    between atoms: C_12  and  O_15 
ROOT
HETATM    1  O   UNL     1       4.970  -4.709  54.592  1.00  0.00    -0.395 OA
HETATM    2  H   UNL     1       5.432  -4.170  53.931  1.00  0.00     0.210 HD
ENDROOT
BRANCH   1   3
HETATM    3  C   UNL     1       4.001  -5.532  53.943  1.00  0.00     0.122 C 
BRANCH   3   4
HETATM    4  C   UNL     1       2.770  -5.698  54.848  1.00  0.00     0.042 C 
BRANCH   4   5
HETATM    5  C   UNL     1       2.807  -4.808  56.092  1.00  0.00     0.116 C 
BRANCH   5   6
HETATM    6  C   UNL     1       1.782  -3.704  56.141  1.00  0.00     0.172 C 
HETATM    7  O   UNL     1       1.071  -3.444  57.098  1.00  0.00    -0.648 OA
HETATM    8  O   UNL     1       1.754  -2.915  55.049  1.00  0.00    -0.648 OA
ENDBRANCH   5   6
ENDBRANCH   4   5
ENDBRANCH   3   4
BRANCH   3   9
HETATM    9  C   UNL     1       4.619  -6.901  53.608  1.00  0.00     0.070 C 
BRANCH   9  10
HETATM   10  C   UNL     1       4.341  -7.943  54.669  1.00  0.00    -0.053 A 
HETATM   11  C   UNL     1       5.127  -8.004  55.829  1.00  0.00     0.046 A 
HETATM   12  C   UNL     1       4.870  -8.977  56.784  1.00  0.00     0.099 A 
HETATM   13  C   UNL     1       3.822  -9.877  56.617  1.00  0.00     0.098 A 
HETATM   14  C   UNL     1       3.046  -9.845  55.468  1.00  0.00     0.040 A 
HETATM   15  C   UNL     1       3.307  -8.880  54.491  1.00  0.00     0.010 A 
BRANCH  12  16
HETATM   16  O   UNL     1       5.682  -9.066  57.878  1.00  0.00    -0.358 OA
HETATM   17  H   UNL     1       5.836  -9.897  58.281  1.00  0.00     0.217 HD
ENDBRANCH  12  16
BRANCH  13  18
HETATM   18  O   UNL     1       3.523 -10.783  57.593  1.00  0.00    -0.358 OA
HETATM   19  H   UNL     1       3.334 -11.672  57.365  1.00  0.00     0.217 HD
ENDBRANCH  13  18
ENDBRANCH   9  10
ENDBRANCH   3   9
ENDBRANCH   1   3
TORSDOF 8
ENDMDL
