MODEL 1
REMARK VINA RESULT:      -6.4      0.000      0.000
REMARK  8 active torsions:
REMARK  status: ('A' for Active; 'I' for Inactive)
REMARK    1  A    between atoms: O_1  and  C_2 
REMARK    2  A    between atoms: C_2  and  C_3 
REMARK    3  A    between atoms: C_2  and  C_8 
REMARK    4  A    between atoms: C_3  and  C_4 
REMARK    5  A    between atoms: C_4  and  C_5 
REMARK    6  A    between atoms: C_8  and  C_9 
REMARK    7  A    between atoms: C_11  and  O_16 
REMARK    8  A    between atoms: C_12  and  O_15 
ROOT
HETATM    1  O   UNL     1       2.899 -10.277  57.462  1.00  0.00    -0.395 OA
HETATM    2  H   UNL     1       3.639 -10.180  58.081  1.00  0.00     0.210 HD
ENDROOT
BRANCH   1   3
HETATM    3  C   UNL     1       2.827  -9.126  56.622  1.00  0.00     0.122 C 
BRANCH   3   4
HETATM    4  C   UNL     1       1.718  -9.316  55.574  1.00  0.00     0.042 C 
BRANCH   4   5
HETATM    5  C   UNL     1       1.936 -10.534  54.673  1.00  0.00     0.116 C 
BRANCH   5   6
HETATM    6  C   UNL     1       1.110 -11.750  55.002  1.00  0.00     0.172 C 
HETATM    7  O   UNL     1       0.752 -12.077  56.121  1.00  0.00    -0.648 OA
HETATM    8  O   UNL     1       0.684 -12.446  53.930  1.00  0.00    -0.648 OA
ENDBRANCH   5   6
ENDBRANCH   4   5
ENDBRANCH   3   4
BRANCH   3   9
HETATM    9  C   UNL     1       4.186  -8.894  55.938  1.00  0.00     0.070 C 
BRANCH   9  10
HETATM   10  C   UNL     1       4.272  -7.551  55.247  1.00  0.00    -0.053 A 
HETATM   11  C   UNL     1       4.660  -7.468  53.901  1.00  0.00     0.046 A 
HETATM   12  C   UNL     1       4.750  -6.226  53.288  1.00  0.00     0.099 A 
HETATM   13  C   UNL     1       4.433  -5.065  53.984  1.00  0.00     0.098 A 
HETATM   14  C   UNL     1       4.067  -5.125  55.320  1.00  0.00     0.040 A 
HETATM   15  C   UNL     1       3.989  -6.369  55.953  1.00  0.00     0.010 A 
BRANCH  12  16
HETATM   16  O   UNL     1       5.190  -6.154  51.996  1.00  0.00    -0.358 OA
HETATM   17  H   UNL     1       5.466  -6.931  51.552  1.00  0.00     0.217 HD
ENDBRANCH  12  16
BRANCH  13  18
HETATM   18  O   UNL     1       4.448  -3.853  53.356  1.00  0.00    -0.358 OA
HETATM   19  H   UNL     1       4.202  -3.790  52.454  1.00  0.00     0.217 HD
ENDBRANCH  13  18
ENDBRANCH   9  10
ENDBRANCH   3   9
ENDBRANCH   1   3
TORSDOF 8
ENDMDL
MODEL 2
REMARK VINA RESULT:      -6.4      1.811      3.068
REMARK  8 active torsions:
REMARK  status: ('A' for Active; 'I' for Inactive)
REMARK    1  A    between atoms: O_1  and  C_2 
REMARK    2  A    between atoms: C_2  and  C_3 
REMARK    3  A    between atoms: C_2  and  C_8 
REMARK    4  A    between atoms: C_3  and  C_4 
REMARK    5  A    between atoms: C_4  and  C_5 
REMARK    6  A    between atoms: C_8  and  C_9 
REMARK    7  A    between atoms: C_11  and  O_16 
REMARK    8  A    between atoms: C_12  and  O_15 
ROOT
HETATM    1  O   UNL     1       2.348 -10.689  56.184  1.00  0.00    -0.395 OA
HETATM    2  H   UNL     1       1.491 -10.375  56.512  1.00  0.00     0.210 HD
ENDROOT
BRANCH   1   3
HETATM    3  C   UNL     1       3.111  -9.579  55.711  1.00  0.00     0.122 C 
BRANCH   3   4
HETATM    4  C   UNL     1       4.295  -9.322  56.657  1.00  0.00     0.042 C 
BRANCH   4   5
HETATM    5  C   UNL     1       4.253 -10.174  57.927  1.00  0.00     0.116 C 
BRANCH   5   6
HETATM    6  C   UNL     1       5.496 -10.972  58.225  1.00  0.00     0.172 C 
HETATM    7  O   UNL     1       5.522 -12.050  58.796  1.00  0.00    -0.648 OA
HETATM    8  O   UNL     1       6.631 -10.453  57.718  1.00  0.00    -0.648 OA
ENDBRANCH   5   6
ENDBRANCH   4   5
ENDBRANCH   3   4
BRANCH   3   9
HETATM    9  C   UNL     1       2.213  -8.332  55.614  1.00  0.00     0.070 C 
BRANCH   9  10
HETATM   10  C   UNL     1       2.932  -7.138  55.025  1.00  0.00    -0.053 A 
HETATM   11  C   UNL     1       3.590  -7.242  53.790  1.00  0.00     0.046 A 
HETATM   12  C   UNL     1       4.259  -6.141  53.274  1.00  0.00     0.099 A 
HETATM   13  C   UNL     1       4.261  -4.928  53.954  1.00  0.00     0.098 A 
HETATM   14  C   UNL     1       3.634  -4.811  55.185  1.00  0.00     0.040 A 
HETATM   15  C   UNL     1       2.971  -5.918  55.723  1.00  0.00     0.010 A 
BRANCH  12  16
HETATM   16  O   UNL     1       4.948  -6.273  52.102  1.00  0.00    -0.358 OA
HETATM   17  H   UNL     1       5.008  -7.110  51.686  1.00  0.00     0.217 HD
ENDBRANCH  12  16
BRANCH  13  18
HETATM   18  O   UNL     1       4.854  -3.827  53.406  1.00  0.00    -0.358 OA
HETATM   19  H   UNL     1       5.391  -3.915  52.643  1.00  0.00     0.217 HD
ENDBRANCH  13  18
ENDBRANCH   9  10
ENDBRANCH   3   9
ENDBRANCH   1   3
TORSDOF 8
ENDMDL
MODEL 3
REMARK VINA RESULT:      -6.2      2.700      4.057
REMARK  8 active torsions:
REMARK  status: ('A' for Active; 'I' for Inactive)
REMARK    1  A    between atoms: O_1  and  C_2 
REMARK    2  A    between atoms: C_2  and  C_3 
REMARK    3  A    between atoms: C_2  and  C_8 
REMARK    4  A    between atoms: C_3  and  C_4 
REMARK    5  A    between atoms: C_4  and  C_5 
REMARK    6  A    between atoms: C_8  and  C_9 
REMARK    7  A    between atoms: C_11  and  O_16 
REMARK    8  A    between atoms: C_12  and  O_15 
ROOT
HETATM    1  O   UNL     1      -0.575 -11.123  56.273  1.00  0.00    -0.395 OA
HETATM    2  H   UNL     1      -0.753 -11.960  55.815  1.00  0.00     0.210 HD
ENDROOT
BRANCH   1   3
HETATM    3  C   UNL     1       0.366 -10.360  55.520  1.00  0.00     0.122 C 
BRANCH   3   4
HETATM    4  C   UNL     1      -0.176 -10.119  54.101  1.00  0.00     0.042 C 
BRANCH   4   5
HETATM    5  C   UNL     1      -0.079 -11.351  53.198  1.00  0.00     0.116 C 
BRANCH   5   6
HETATM    6  C   UNL     1      -1.362 -12.114  52.989  1.00  0.00     0.172 C 
HETATM    7  O   UNL     1      -1.505 -13.055  52.224  1.00  0.00    -0.648 OA
HETATM    8  O   UNL     1      -2.372 -11.747  53.800  1.00  0.00    -0.648 OA
ENDBRANCH   5   6
ENDBRANCH   4   5
ENDBRANCH   3   4
BRANCH   3   9
HETATM    9  C   UNL     1       1.715 -11.099  55.467  1.00  0.00     0.070 C 
BRANCH   9  10
HETATM   10  C   UNL     1       2.890 -10.197  55.774  1.00  0.00    -0.053 A 
HETATM   11  C   UNL     1       3.580 -10.316  56.990  1.00  0.00     0.046 A 
HETATM   12  C   UNL     1       4.643  -9.468  57.262  1.00  0.00     0.099 A 
HETATM   13  C   UNL     1       5.052  -8.519  56.331  1.00  0.00     0.098 A 
HETATM   14  C   UNL     1       4.371  -8.372  55.132  1.00  0.00     0.040 A 
HETATM   15  C   UNL     1       3.287  -9.210  54.854  1.00  0.00     0.010 A 
BRANCH  12  16
HETATM   16  O   UNL     1       5.266  -9.553  58.475  1.00  0.00    -0.358 OA
HETATM   17  H   UNL     1       6.149  -9.254  58.570  1.00  0.00     0.217 HD
ENDBRANCH  12  16
BRANCH  13  18
HETATM   18  O   UNL     1       6.147  -7.740  56.570  1.00  0.00    -0.358 OA
HETATM   19  H   UNL     1       6.079  -6.997  57.137  1.00  0.00     0.217 HD
ENDBRANCH  13  18
ENDBRANCH   9  10
ENDBRANCH   3   9
ENDBRANCH   1   3
TORSDOF 8
ENDMDL
MODEL 4
REMARK VINA RESULT:      -6.2      1.648      5.763
REMARK  8 active torsions:
REMARK  status: ('A' for Active; 'I' for Inactive)
REMARK    1  A    between atoms: O_1  and  C_2 
REMARK    2  A    between atoms: C_2  and  C_3 
REMARK    3  A    between atoms: C_2  and  C_8 
REMARK    4  A    between atoms: C_3  and  C_4 
REMARK    5  A    between atoms: C_4  and  C_5 
REMARK    6  A    between atoms: C_8  and  C_9 
REMARK    7  A    between atoms: C_11  and  O_16 
REMARK    8  A    between atoms: C_12  and  O_15 
ROOT
HETATM    1  O   UNL     1       6.442  -7.624  55.963  1.00  0.00    -0.395 OA
HETATM    2  H   UNL     1       6.809  -7.483  55.076  1.00  0.00     0.210 HD
ENDROOT
BRANCH   1   3
HETATM    3  C   UNL     1       5.016  -7.623  55.894  1.00  0.00     0.122 C 
BRANCH   3   4
HETATM    4  C   UNL     1       4.463  -6.366  56.585  1.00  0.00     0.042 C 
BRANCH   4   5
HETATM    5  C   UNL     1       3.264  -5.752  55.859  1.00  0.00     0.116 C 
BRANCH   5   6
HETATM    6  C   UNL     1       3.512  -5.309  54.440  1.00  0.00     0.172 C 
HETATM    7  O   UNL     1       4.406  -4.559  54.082  1.00  0.00    -0.648 OA
HETATM    8  O   UNL     1       2.712  -5.886  53.523  1.00  0.00    -0.648 OA
ENDBRANCH   5   6
ENDBRANCH   4   5
ENDBRANCH   3   4
BRANCH   3   9
HETATM    9  C   UNL     1       4.460  -8.896  56.555  1.00  0.00     0.070 C 
BRANCH   9  10
HETATM   10  C   UNL     1       3.391  -9.569  55.724  1.00  0.00    -0.053 A 
HETATM   11  C   UNL     1       2.635 -10.625  56.256  1.00  0.00     0.046 A 
HETATM   12  C   UNL     1       1.671 -11.242  55.473  1.00  0.00     0.099 A 
HETATM   13  C   UNL     1       1.423 -10.807  54.175  1.00  0.00     0.098 A 
HETATM   14  C   UNL     1       2.172  -9.778  53.624  1.00  0.00     0.040 A 
HETATM   15  C   UNL     1       3.159  -9.160  54.398  1.00  0.00     0.010 A 
BRANCH  12  16
HETATM   16  O   UNL     1       0.987 -12.309  55.981  1.00  0.00    -0.358 OA
HETATM   17  H   UNL     1       1.448 -12.993  56.426  1.00  0.00     0.217 HD
ENDBRANCH  12  16
BRANCH  13  18
HETATM   18  O   UNL     1       0.421 -11.365  53.435  1.00  0.00    -0.358 OA
HETATM   19  H   UNL     1      -0.256 -11.855  53.858  1.00  0.00     0.217 HD
ENDBRANCH  13  18
ENDBRANCH   9  10
ENDBRANCH   3   9
ENDBRANCH   1   3
TORSDOF 8
ENDMDL
MODEL 5
REMARK VINA RESULT:      -6.2      0.856      1.894
REMARK  8 active torsions:
REMARK  status: ('A' for Active; 'I' for Inactive)
REMARK    1  A    between atoms: O_1  and  C_2 
REMARK    2  A    between atoms: C_2  and  C_3 
REMARK    3  A    between atoms: C_2  and  C_8 
REMARK    4  A    between atoms: C_3  and  C_4 
REMARK    5  A    between atoms: C_4  and  C_5 
REMARK    6  A    between atoms: C_8  and  C_9 
REMARK    7  A    between atoms: C_11  and  O_16 
REMARK    8  A    between atoms: C_12  and  O_15 
ROOT
HETATM    1  O   UNL     1       3.249 -10.518  57.374  1.00  0.00    -0.395 OA
HETATM    2  H   UNL     1       2.425 -11.028  57.332  1.00  0.00     0.210 HD
ENDROOT
BRANCH   1   3
HETATM    3  C   UNL     1       3.187  -9.437  56.444  1.00  0.00     0.122 C 
BRANCH   3   4
HETATM    4  C   UNL     1       2.884  -9.978  55.038  1.00  0.00     0.042 C 
BRANCH   4   5
HETATM    5  C   UNL     1       1.399 -10.271  54.807  1.00  0.00     0.116 C 
BRANCH   5   6
HETATM    6  C   UNL     1       0.990 -11.717  54.916  1.00  0.00     0.172 C 
HETATM    7  O   UNL     1       0.688 -12.437  53.977  1.00  0.00    -0.648 OA
HETATM    8  O   UNL     1       1.068 -12.231  56.158  1.00  0.00    -0.648 OA
ENDBRANCH   5   6
ENDBRANCH   4   5
ENDBRANCH   3   4
BRANCH   3   9
HETATM    9  C   UNL     1       4.517  -8.663  56.453  1.00  0.00     0.070 C 
BRANCH   9  10
HETATM   10  C   UNL     1       4.477  -7.420  55.593  1.00  0.00    -0.053 A 
HETATM   11  C   UNL     1       3.638  -6.347  55.932  1.00  0.00     0.046 A 
HETATM   12  C   UNL     1       3.600  -5.222  55.122  1.00  0.00     0.099 A 
HETATM   13  C   UNL     1       4.407  -5.132  53.992  1.00  0.00     0.098 A 
HETATM   14  C   UNL     1       5.228  -6.189  53.629  1.00  0.00     0.040 A 
HETATM   15  C   UNL     1       5.261  -7.335  54.429  1.00  0.00     0.010 A 
BRANCH  12  16
HETATM   16  O   UNL     1       2.733  -4.212  55.428  1.00  0.00    -0.358 OA
HETATM   17  H   UNL     1       2.723  -3.849  56.292  1.00  0.00     0.217 HD
ENDBRANCH  12  16
BRANCH  13  18
HETATM   18  O   UNL     1       4.424  -3.993  53.241  1.00  0.00    -0.358 OA
HETATM   19  H   UNL     1       5.052  -3.895  52.552  1.00  0.00     0.217 HD
ENDBRANCH  13  18
ENDBRANCH   9  10
ENDBRANCH   3   9
ENDBRANCH   1   3
TORSDOF 8
ENDMDL
MODEL 6
REMARK VINA RESULT:      -6.2      2.152      5.606
REMARK  8 active torsions:
REMARK  status: ('A' for Active; 'I' for Inactive)
REMARK    1  A    between atoms: O_1  and  C_2 
REMARK    2  A    between atoms: C_2  and  C_3 
REMARK    3  A    between atoms: C_2  and  C_8 
REMARK    4  A    between atoms: C_3  and  C_4 
REMARK    5  A    between atoms: C_4  and  C_5 
REMARK    6  A    between atoms: C_8  and  C_9 
REMARK    7  A    between atoms: C_11  and  O_16 
REMARK    8  A    between atoms: C_12  and  O_15 
ROOT
HETATM    1  O   UNL     1       5.412  -5.389  53.954  1.00  0.00    -0.395 OA
HETATM    2  H   UNL     1       5.653  -4.546  53.539  1.00  0.00     0.210 HD
ENDROOT
BRANCH   1   3
HETATM    3  C   UNL     1       4.476  -6.077  53.126  1.00  0.00     0.122 C 
BRANCH   3   4
HETATM    4  C   UNL     1       3.051  -5.857  53.658  1.00  0.00     0.042 C 
BRANCH   4   5
HETATM    5  C   UNL     1       2.875  -4.522  54.386  1.00  0.00     0.116 C 
BRANCH   5   6
HETATM    6  C   UNL     1       2.667  -4.608  55.876  1.00  0.00     0.172 C 
HETATM    7  O   UNL     1       1.779  -4.047  56.497  1.00  0.00    -0.648 OA
HETATM    8  O   UNL     1       3.498  -5.457  56.511  1.00  0.00    -0.648 OA
ENDBRANCH   5   6
ENDBRANCH   4   5
ENDBRANCH   3   4
BRANCH   3   9
HETATM    9  C   UNL     1       4.816  -7.578  53.089  1.00  0.00     0.070 C 
BRANCH   9  10
HETATM   10  C   UNL     1       4.434  -8.296  54.365  1.00  0.00    -0.053 A 
HETATM   11  C   UNL     1       5.255  -8.214  55.500  1.00  0.00     0.046 A 
HETATM   12  C   UNL     1       4.898  -8.893  56.656  1.00  0.00     0.099 A 
HETATM   13  C   UNL     1       3.721  -9.632  56.711  1.00  0.00     0.098 A 
HETATM   14  C   UNL     1       2.906  -9.741  55.594  1.00  0.00     0.040 A 
HETATM   15  C   UNL     1       3.265  -9.075  54.419  1.00  0.00     0.010 A 
BRANCH  12  16
HETATM   16  O   UNL     1       5.737  -8.857  57.733  1.00  0.00    -0.358 OA
HETATM   17  H   UNL     1       6.623  -8.573  57.626  1.00  0.00     0.217 HD
ENDBRANCH  12  16
BRANCH  13  18
HETATM   18  O   UNL     1       3.334 -10.235  57.873  1.00  0.00    -0.358 OA
HETATM   19  H   UNL     1       3.965 -10.404  58.545  1.00  0.00     0.217 HD
ENDBRANCH  13  18
ENDBRANCH   9  10
ENDBRANCH   3   9
ENDBRANCH   1   3
TORSDOF 8
ENDMDL
MODEL 7
REMARK VINA RESULT:      -6.2      2.778      4.231
REMARK  8 active torsions:
REMARK  status: ('A' for Active; 'I' for Inactive)
REMARK    1  A    between atoms: O_1  and  C_2 
REMARK    2  A    between atoms: C_2  and  C_3 
REMARK    3  A    between atoms: C_2  and  C_8 
REMARK    4  A    between atoms: C_3  and  C_4 
REMARK    5  A    between atoms: C_4  and  C_5 
REMARK    6  A    between atoms: C_8  and  C_9 
REMARK    7  A    between atoms: C_11  and  O_16 
REMARK    8  A    between atoms: C_12  and  O_15 
ROOT
HETATM    1  O   UNL     1       1.706 -10.753  52.192  1.00  0.00    -0.395 OA
HETATM    2  H   UNL     1       0.873 -10.909  51.720  1.00  0.00     0.210 HD
ENDROOT
BRANCH   1   3
HETATM    3  C   UNL     1       1.424 -10.279  53.509  1.00  0.00     0.122 C 
BRANCH   3   4
HETATM    4  C   UNL     1      -0.073  -9.954  53.634  1.00  0.00     0.042 C 
BRANCH   4   5
HETATM    5  C   UNL     1      -0.862 -11.015  54.405  1.00  0.00     0.116 C 
BRANCH   5   6
HETATM    6  C   UNL     1      -1.448 -10.571  55.721  1.00  0.00     0.172 C 
HETATM    7  O   UNL     1      -2.624 -10.656  56.033  1.00  0.00    -0.648 OA
HETATM    8  O   UNL     1      -0.544 -10.137  56.620  1.00  0.00    -0.648 OA
ENDBRANCH   5   6
ENDBRANCH   4   5
ENDBRANCH   3   4
BRANCH   3   9
HETATM    9  C   UNL     1       2.278  -9.034  53.809  1.00  0.00     0.070 C 
BRANCH   9  10
HETATM   10  C   UNL     1       3.144  -9.201  55.038  1.00  0.00    -0.053 A 
HETATM   11  C   UNL     1       4.250  -8.363  55.248  1.00  0.00     0.046 A 
HETATM   12  C   UNL     1       5.044  -8.542  56.371  1.00  0.00     0.099 A 
HETATM   13  C   UNL     1       4.738  -9.523  57.308  1.00  0.00     0.098 A 
HETATM   14  C   UNL     1       3.661 -10.374  57.110  1.00  0.00     0.040 A 
HETATM   15  C   UNL     1       2.865 -10.215  55.972  1.00  0.00     0.010 A 
BRANCH  12  16
HETATM   16  O   UNL     1       6.153  -7.761  56.531  1.00  0.00    -0.358 OA
HETATM   17  H   UNL     1       6.646  -7.490  55.782  1.00  0.00     0.217 HD
ENDBRANCH  12  16
BRANCH  13  18
HETATM   18  O   UNL     1       5.475  -9.645  58.451  1.00  0.00    -0.358 OA
HETATM   19  H   UNL     1       5.806  -8.880  58.879  1.00  0.00     0.217 HD
ENDBRANCH  13  18
ENDBRANCH   9  10
ENDBRANCH   3   9
ENDBRANCH   1   3
TORSDOF 8
ENDMDL
MODEL 8
REMARK VINA RESULT:      -6.1      2.717      4.497
REMARK  8 active torsions:
REMARK  status: ('A' for Active; 'I' for Inactive)
REMARK    1  A    between atoms: O_1  and  C_2 
REMARK    2  A    between atoms: C_2  and  C_3 
REMARK    3  A    between atoms: C_2  and  C_8 
REMARK    4  A    between atoms: C_3  and  C_4 
REMARK    5  A    between atoms: C_4  and  C_5 
REMARK    6  A    between atoms: C_8  and  C_9 
REMARK    7  A    between atoms: C_11  and  O_16 
REMARK    8  A    between atoms: C_12  and  O_15 
ROOT
HETATM    1  O   UNL     1       0.978 -13.103  53.668  1.00  0.00    -0.395 OA
HETATM    2  H   UNL     1       1.025 -13.079  52.700  1.00  0.00     0.210 HD
ENDROOT
BRANCH   1   3
HETATM    3  C   UNL     1       0.547 -11.832  54.154  1.00  0.00     0.122 C 
BRANCH   3   4
HETATM    4  C   UNL     1      -0.948 -11.640  53.853  1.00  0.00     0.042 C 
BRANCH   4   5
HETATM    5  C   UNL     1      -1.531 -10.364  54.466  1.00  0.00     0.116 C 
BRANCH   5   6
HETATM    6  C   UNL     1      -2.016 -10.481  55.888  1.00  0.00     0.172 C 
HETATM    7  O   UNL     1      -3.111 -10.900  56.227  1.00  0.00    -0.648 OA
HETATM    8  O   UNL     1      -1.096 -10.172  56.822  1.00  0.00    -0.648 OA
ENDBRANCH   5   6
ENDBRANCH   4   5
ENDBRANCH   3   4
BRANCH   3   9
HETATM    9  C   UNL     1       1.381 -10.714  53.503  1.00  0.00     0.070 C 
BRANCH   9  10
HETATM   10  C   UNL     1       2.373 -10.091  54.459  1.00  0.00    -0.053 A 
HETATM   11  C   UNL     1       2.496 -10.573  55.771  1.00  0.00     0.046 A 
HETATM   12  C   UNL     1       3.399  -9.978  56.640  1.00  0.00     0.099 A 
HETATM   13  C   UNL     1       4.204  -8.926  56.217  1.00  0.00     0.098 A 
HETATM   14  C   UNL     1       4.084  -8.422  54.931  1.00  0.00     0.040 A 
HETATM   15  C   UNL     1       3.165  -9.002  54.052  1.00  0.00     0.010 A 
BRANCH  12  16
HETATM   16  O   UNL     1       3.464 -10.416  57.932  1.00  0.00    -0.358 OA
HETATM   17  H   UNL     1       2.686 -10.454  58.453  1.00  0.00     0.217 HD
ENDBRANCH  12  16
BRANCH  13  18
HETATM   18  O   UNL     1       5.145  -8.394  57.051  1.00  0.00    -0.358 OA
HETATM   19  H   UNL     1       6.028  -8.708  57.023  1.00  0.00     0.217 HD
ENDBRANCH  13  18
ENDBRANCH   9  10
ENDBRANCH   3   9
ENDBRANCH   1   3
TORSDOF 8
ENDMDL
MODEL 9
REMARK VINA RESULT:      -6.1      2.794      4.463
REMARK  8 active torsions:
REMARK  status: ('A' for Active; 'I' for Inactive)
REMARK    1  A    between atoms: O_1  and  C_2 
REMARK    2  A    between atoms: C_2  and  C_3 
REMARK    3  A    between atoms: C_2  and  C_8 
REMARK    4  A    between atoms: C_3  and  C_4 
REMARK    5  A    between atoms: C_4  and  C_5 
REMARK    6  A    between atoms: C_8  and  C_9 
REMARK    7  A    between atoms: C_11  and  O_16 
REMARK    8  A    between atoms: C_12  and  O_15 
ROOT
HETATM    1  O   UNL     1       0.608 -12.899  54.057  1.00  0.00    -0.395 OA
HETATM    2  H   UNL     1       1.376 -12.980  53.470  1.00  0.00     0.210 HD
ENDROOT
BRANCH   1   3
HETATM    3  C   UNL     1       0.684 -11.667  54.773  1.00  0.00     0.122 C 
BRANCH   3   4
HETATM    4  C   UNL     1      -0.725 -11.072  54.934  1.00  0.00     0.042 C 
BRANCH   4   5
HETATM    5  C   UNL     1      -1.271 -10.450  53.647  1.00  0.00     0.116 C 
BRANCH   5   6
HETATM    6  C   UNL     1      -1.896 -11.410  52.667  1.00  0.00     0.172 C 
HETATM    7  O   UNL     1      -2.284 -12.535  52.933  1.00  0.00    -0.648 OA
HETATM    8  O   UNL     1      -2.101 -10.901  51.436  1.00  0.00    -0.648 OA
ENDBRANCH   5   6
ENDBRANCH   4   5
ENDBRANCH   3   4
BRANCH   3   9
HETATM    9  C   UNL     1       1.605 -10.686  54.027  1.00  0.00     0.070 C 
BRANCH   9  10
HETATM   10  C   UNL     1       2.650 -10.064  54.928  1.00  0.00    -0.053 A 
HETATM   11  C   UNL     1       2.823 -10.528  56.241  1.00  0.00     0.046 A 
HETATM   12  C   UNL     1       3.773  -9.934  57.059  1.00  0.00     0.099 A 
HETATM   13  C   UNL     1       4.576  -8.903  56.584  1.00  0.00     0.098 A 
HETATM   14  C   UNL     1       4.407  -8.417  55.296  1.00  0.00     0.040 A 
HETATM   15  C   UNL     1       3.440  -8.996  54.468  1.00  0.00     0.010 A 
BRANCH  12  16
HETATM   16  O   UNL     1       3.889 -10.352  58.354  1.00  0.00    -0.358 OA
HETATM   17  H   UNL     1       4.565 -10.003  58.901  1.00  0.00     0.217 HD
ENDBRANCH  12  16
BRANCH  13  18
HETATM   18  O   UNL     1       5.562  -8.373  57.366  1.00  0.00    -0.358 OA
HETATM   19  H   UNL     1       5.637  -8.632  58.263  1.00  0.00     0.217 HD
ENDBRANCH  13  18
ENDBRANCH   9  10
ENDBRANCH   3   9
ENDBRANCH   1   3
TORSDOF 8
ENDMDL
