MODEL 1
REMARK VINA RESULT:      -6.4      0.000      0.000
REMARK  8 active torsions:
REMARK  status: ('A' for Active; 'I' for Inactive)
REMARK    1  A    between atoms: O_1  and  C_2 
REMARK    2  A    between atoms: C_2  and  C_3 
REMARK    3  A    between atoms: C_2  and  C_8 
REMARK    4  A    between atoms: C_3  and  C_4 
REMARK    5  A    between atoms: C_4  and  C_5 
REMARK    6  A    between atoms: C_8  and  C_9 
REMARK    7  A    between atoms: C_11  and  O_16 
REMARK    8  A    between atoms: C_12  and  O_15 
ROOT
HETATM    1  O   UNL     1       3.026 -10.273  57.511  1.00  0.00    -0.395 OA
HETATM    2  H   UNL     1       3.930 -10.624  57.490  1.00  0.00     0.210 HD
ENDROOT
BRANCH   1   3
HETATM    3  C   UNL     1       2.960  -9.082  56.728  1.00  0.00     0.122 C 
BRANCH   3   4
HETATM    4  C   UNL     1       1.892  -9.239  55.634  1.00  0.00     0.042 C 
BRANCH   4   5
HETATM    5  C   UNL     1       2.134 -10.440  54.717  1.00  0.00     0.116 C 
BRANCH   5   6
HETATM    6  C   UNL     1       1.174 -11.591  54.876  1.00  0.00     0.172 C 
HETATM    7  O   UNL     1       0.526 -12.098  53.974  1.00  0.00    -0.648 OA
HETATM    8  O   UNL     1       1.134 -12.123  56.113  1.00  0.00    -0.648 OA
ENDBRANCH   5   6
ENDBRANCH   4   5
ENDBRANCH   3   4
BRANCH   3   9
HETATM    9  C   UNL     1       4.336  -8.788  56.107  1.00  0.00     0.070 C 
BRANCH   9  10
HETATM   10  C   UNL     1       4.372  -7.474  55.358  1.00  0.00    -0.053 A 
HETATM   11  C   UNL     1       4.714  -7.440  53.998  1.00  0.00     0.046 A 
HETATM   12  C   UNL     1       4.760  -6.224  53.331  1.00  0.00     0.099 A 
HETATM   13  C   UNL     1       4.441  -5.040  53.989  1.00  0.00     0.098 A 
HETATM   14  C   UNL     1       4.119  -5.051  55.338  1.00  0.00     0.040 A 
HETATM   15  C   UNL     1       4.088  -6.269  56.024  1.00  0.00     0.010 A 
BRANCH  12  16
HETATM   16  O   UNL     1       5.156  -6.197  52.024  1.00  0.00    -0.358 OA
HETATM   17  H   UNL     1       4.641  -6.628  51.370  1.00  0.00     0.217 HD
ENDBRANCH  12  16
BRANCH  13  18
HETATM   18  O   UNL     1       4.411  -3.856  53.311  1.00  0.00    -0.358 OA
HETATM   19  H   UNL     1       3.636  -3.597  52.854  1.00  0.00     0.217 HD
ENDBRANCH  13  18
ENDBRANCH   9  10
ENDBRANCH   3   9
ENDBRANCH   1   3
TORSDOF 8
ENDMDL
MODEL 2
REMARK VINA RESULT:      -6.4      1.793      3.097
REMARK  8 active torsions:
REMARK  status: ('A' for Active; 'I' for Inactive)
REMARK    1  A    between atoms: O_1  and  C_2 
REMARK    2  A    between atoms: C_2  and  C_3 
REMARK    3  A    between atoms: C_2  and  C_8 
REMARK    4  A    between atoms: C_3  and  C_4 
REMARK    5  A    between atoms: C_4  and  C_5 
REMARK    6  A    between atoms: C_8  and  C_9 
REMARK    7  A    between atoms: C_11  and  O_16 
REMARK    8  A    between atoms: C_12  and  O_15 
ROOT
HETATM    1  O   UNL     1       2.602 -10.678  56.453  1.00  0.00    -0.395 OA
HETATM    2  H   UNL     1       1.780 -10.369  56.866  1.00  0.00     0.210 HD
ENDROOT
BRANCH   1   3
HETATM    3  C   UNL     1       3.318  -9.562  55.925  1.00  0.00     0.122 C 
BRANCH   3   4
HETATM    4  C   UNL     1       4.475  -9.194  56.868  1.00  0.00     0.042 C 
BRANCH   4   5
HETATM    5  C   UNL     1       4.504 -10.032  58.149  1.00  0.00     0.116 C 
BRANCH   5   6
HETATM    6  C   UNL     1       5.630 -11.027  58.259  1.00  0.00     0.172 C 
HETATM    7  O   UNL     1       5.544 -12.137  58.758  1.00  0.00    -0.648 OA
HETATM    8  O   UNL     1       6.776 -10.647  57.661  1.00  0.00    -0.648 OA
ENDBRANCH   5   6
ENDBRANCH   4   5
ENDBRANCH   3   4
BRANCH   3   9
HETATM    9  C   UNL     1       2.364  -8.368  55.745  1.00  0.00     0.070 C 
BRANCH   9  10
HETATM   10  C   UNL     1       3.041  -7.167  55.120  1.00  0.00    -0.053 A 
HETATM   11  C   UNL     1       3.666  -7.275  53.869  1.00  0.00     0.046 A 
HETATM   12  C   UNL     1       4.297  -6.169  53.319  1.00  0.00     0.099 A 
HETATM   13  C   UNL     1       4.292  -4.945  53.981  1.00  0.00     0.098 A 
HETATM   14  C   UNL     1       3.697  -4.824  55.227  1.00  0.00     0.040 A 
HETATM   15  C   UNL     1       3.073  -5.936  55.799  1.00  0.00     0.010 A 
BRANCH  12  16
HETATM   16  O   UNL     1       4.955  -6.303  52.130  1.00  0.00    -0.358 OA
HETATM   17  H   UNL     1       5.591  -6.983  52.021  1.00  0.00     0.217 HD
ENDBRANCH  12  16
BRANCH  13  18
HETATM   18  O   UNL     1       4.846  -3.841  53.401  1.00  0.00    -0.358 OA
HETATM   19  H   UNL     1       4.886  -3.772  52.468  1.00  0.00     0.217 HD
ENDBRANCH  13  18
ENDBRANCH   9  10
ENDBRANCH   3   9
ENDBRANCH   1   3
TORSDOF 8
ENDMDL
MODEL 3
REMARK VINA RESULT:      -6.2      2.774      4.183
REMARK  8 active torsions:
REMARK  status: ('A' for Active; 'I' for Inactive)
REMARK    1  A    between atoms: O_1  and  C_2 
REMARK    2  A    between atoms: C_2  and  C_3 
REMARK    3  A    between atoms: C_2  and  C_8 
REMARK    4  A    between atoms: C_3  and  C_4 
REMARK    5  A    between atoms: C_4  and  C_5 
REMARK    6  A    between atoms: C_8  and  C_9 
REMARK    7  A    between atoms: C_11  and  O_16 
REMARK    8  A    between atoms: C_12  and  O_15 
ROOT
HETATM    1  O   UNL     1       1.842 -10.341  52.115  1.00  0.00    -0.395 OA
HETATM    2  H   UNL     1       1.496  -9.592  51.604  1.00  0.00     0.210 HD
ENDROOT
BRANCH   1   3
HETATM    3  C   UNL     1       1.571 -10.137  53.501  1.00  0.00     0.122 C 
BRANCH   3   4
HETATM    4  C   UNL     1       0.052 -10.090  53.732  1.00  0.00     0.042 C 
BRANCH   4   5
HETATM    5  C   UNL     1      -0.436 -11.106  54.767  1.00  0.00     0.116 C 
BRANCH   5   6
HETATM    6  C   UNL     1      -1.270 -10.549  55.892  1.00  0.00     0.172 C 
HETATM    7  O   UNL     1      -2.484 -10.638  55.980  1.00  0.00    -0.648 OA
HETATM    8  O   UNL     1      -0.562  -9.998  56.896  1.00  0.00    -0.648 OA
ENDBRANCH   5   6
ENDBRANCH   4   5
ENDBRANCH   3   4
BRANCH   3   9
HETATM    9  C   UNL     1       2.234  -8.832  53.976  1.00  0.00     0.070 C 
BRANCH   9  10
HETATM   10  C   UNL     1       3.181  -9.045  55.136  1.00  0.00    -0.053 A 
HETATM   11  C   UNL     1       4.329  -8.251  55.272  1.00  0.00     0.046 A 
HETATM   12  C   UNL     1       5.197  -8.472  56.332  1.00  0.00     0.099 A 
HETATM   13  C   UNL     1       4.925  -9.454  57.279  1.00  0.00     0.098 A 
HETATM   14  C   UNL     1       3.806 -10.262  57.152  1.00  0.00     0.040 A 
HETATM   15  C   UNL     1       2.934 -10.060  56.078  1.00  0.00     0.010 A 
BRANCH  12  16
HETATM   16  O   UNL     1       6.343  -7.734  56.417  1.00  0.00    -0.358 OA
HETATM   17  H   UNL     1       6.444  -7.103  57.103  1.00  0.00     0.217 HD
ENDBRANCH  12  16
BRANCH  13  18
HETATM   18  O   UNL     1       5.739  -9.616  58.363  1.00  0.00    -0.358 OA
HETATM   19  H   UNL     1       5.674 -10.391  58.885  1.00  0.00     0.217 HD
ENDBRANCH  13  18
ENDBRANCH   9  10
ENDBRANCH   3   9
ENDBRANCH   1   3
TORSDOF 8
ENDMDL
MODEL 4
REMARK VINA RESULT:      -6.2      0.873      1.723
REMARK  8 active torsions:
REMARK  status: ('A' for Active; 'I' for Inactive)
REMARK    1  A    between atoms: O_1  and  C_2 
REMARK    2  A    between atoms: C_2  and  C_3 
REMARK    3  A    between atoms: C_2  and  C_8 
REMARK    4  A    between atoms: C_3  and  C_4 
REMARK    5  A    between atoms: C_4  and  C_5 
REMARK    6  A    between atoms: C_8  and  C_9 
REMARK    7  A    between atoms: C_11  and  O_16 
REMARK    8  A    between atoms: C_12  and  O_15 
ROOT
HETATM    1  O   UNL     1       3.096 -10.433  57.334  1.00  0.00    -0.395 OA
HETATM    2  H   UNL     1       2.223 -10.494  57.753  1.00  0.00     0.210 HD
ENDROOT
BRANCH   1   3
HETATM    3  C   UNL     1       3.088  -9.383  56.367  1.00  0.00     0.122 C 
BRANCH   3   4
HETATM    4  C   UNL     1       2.799  -9.963  54.973  1.00  0.00     0.042 C 
BRANCH   4   5
HETATM    5  C   UNL     1       1.319 -10.274  54.739  1.00  0.00     0.116 C 
BRANCH   5   6
HETATM    6  C   UNL     1       0.923 -11.722  54.866  1.00  0.00     0.172 C 
HETATM    7  O   UNL     1       0.699 -12.476  53.933  1.00  0.00    -0.648 OA
HETATM    8  O   UNL     1       0.920 -12.195  56.127  1.00  0.00    -0.648 OA
ENDBRANCH   5   6
ENDBRANCH   4   5
ENDBRANCH   3   4
BRANCH   3   9
HETATM    9  C   UNL     1       4.440  -8.650  56.381  1.00  0.00     0.070 C 
BRANCH   9  10
HETATM   10  C   UNL     1       4.425  -7.379  55.561  1.00  0.00    -0.053 A 
HETATM   11  C   UNL     1       3.599  -6.306  55.929  1.00  0.00     0.046 A 
HETATM   12  C   UNL     1       3.585  -5.154  55.155  1.00  0.00     0.099 A 
HETATM   13  C   UNL     1       4.402  -5.039  54.036  1.00  0.00     0.098 A 
HETATM   14  C   UNL     1       5.211  -6.096  53.645  1.00  0.00     0.040 A 
HETATM   15  C   UNL     1       5.221  -7.268  54.407  1.00  0.00     0.010 A 
BRANCH  12  16
HETATM   16  O   UNL     1       2.730  -4.142  55.488  1.00  0.00    -0.358 OA
HETATM   17  H   UNL     1       2.338  -3.620  54.815  1.00  0.00     0.217 HD
ENDBRANCH  12  16
BRANCH  13  18
HETATM   18  O   UNL     1       4.442  -3.876  53.322  1.00  0.00    -0.358 OA
HETATM   19  H   UNL     1       3.860  -3.175  53.537  1.00  0.00     0.217 HD
ENDBRANCH  13  18
ENDBRANCH   9  10
ENDBRANCH   3   9
ENDBRANCH   1   3
TORSDOF 8
ENDMDL
MODEL 5
REMARK VINA RESULT:      -6.2      2.006      5.687
REMARK  8 active torsions:
REMARK  status: ('A' for Active; 'I' for Inactive)
REMARK    1  A    between atoms: O_1  and  C_2 
REMARK    2  A    between atoms: C_2  and  C_3 
REMARK    3  A    between atoms: C_2  and  C_8 
REMARK    4  A    between atoms: C_3  and  C_4 
REMARK    5  A    between atoms: C_4  and  C_5 
REMARK    6  A    between atoms: C_8  and  C_9 
REMARK    7  A    between atoms: C_11  and  O_16 
REMARK    8  A    between atoms: C_12  and  O_15 
ROOT
HETATM    1  O   UNL     1       4.783  -5.789  51.515  1.00  0.00    -0.395 OA
HETATM    2  H   UNL     1       5.639  -5.336  51.566  1.00  0.00     0.210 HD
ENDROOT
BRANCH   1   3
HETATM    3  C   UNL     1       4.381  -6.194  52.823  1.00  0.00     0.122 C 
BRANCH   3   4
HETATM    4  C   UNL     1       4.243  -4.960  53.730  1.00  0.00     0.042 C 
BRANCH   4   5
HETATM    5  C   UNL     1       2.856  -4.822  54.361  1.00  0.00     0.116 C 
BRANCH   5   6
HETATM    6  C   UNL     1       2.814  -4.842  55.867  1.00  0.00     0.172 C 
HETATM    7  O   UNL     1       3.577  -5.469  56.585  1.00  0.00    -0.648 OA
HETATM    8  O   UNL     1       1.902  -4.017  56.415  1.00  0.00    -0.648 OA
ENDBRANCH   5   6
ENDBRANCH   4   5
ENDBRANCH   3   4
BRANCH   3   9
HETATM    9  C   UNL     1       5.409  -7.181  53.403  1.00  0.00     0.070 C 
BRANCH   9  10
HETATM   10  C   UNL     1       4.845  -8.018  54.531  1.00  0.00    -0.053 A 
HETATM   11  C   UNL     1       5.557  -8.165  55.731  1.00  0.00     0.046 A 
HETATM   12  C   UNL     1       5.033  -8.950  56.748  1.00  0.00     0.099 A 
HETATM   13  C   UNL     1       3.797  -9.570  56.602  1.00  0.00     0.098 A 
HETATM   14  C   UNL     1       3.088  -9.453  55.417  1.00  0.00     0.040 A 
HETATM   15  C   UNL     1       3.613  -8.679  54.378  1.00  0.00     0.010 A 
BRANCH  12  16
HETATM   16  O   UNL     1       5.765  -9.136  57.886  1.00  0.00    -0.358 OA
HETATM   17  H   UNL     1       6.369  -8.478  58.167  1.00  0.00     0.217 HD
ENDBRANCH  12  16
BRANCH  13  18
HETATM   18  O   UNL     1       3.250 -10.278  57.633  1.00  0.00    -0.358 OA
HETATM   19  H   UNL     1       3.059  -9.851  58.445  1.00  0.00     0.217 HD
ENDBRANCH  13  18
ENDBRANCH   9  10
ENDBRANCH   3   9
ENDBRANCH   1   3
TORSDOF 8
ENDMDL
MODEL 6
REMARK VINA RESULT:      -6.1      2.707      4.079
REMARK  8 active torsions:
REMARK  status: ('A' for Active; 'I' for Inactive)
REMARK    1  A    between atoms: O_1  and  C_2 
REMARK    2  A    between atoms: C_2  and  C_3 
REMARK    3  A    between atoms: C_2  and  C_8 
REMARK    4  A    between atoms: C_3  and  C_4 
REMARK    5  A    between atoms: C_4  and  C_5 
REMARK    6  A    between atoms: C_8  and  C_9 
REMARK    7  A    between atoms: C_11  and  O_16 
REMARK    8  A    between atoms: C_12  and  O_15 
ROOT
HETATM    1  O   UNL     1      -0.585 -10.836  56.064  1.00  0.00    -0.395 OA
HETATM    2  H   UNL     1      -1.301 -11.145  55.486  1.00  0.00     0.210 HD
ENDROOT
BRANCH   1   3
HETATM    3  C   UNL     1       0.460 -10.276  55.268  1.00  0.00     0.122 C 
BRANCH   3   4
HETATM    4  C   UNL     1       0.058 -10.310  53.785  1.00  0.00     0.042 C 
BRANCH   4   5
HETATM    5  C   UNL     1      -0.005 -11.725  53.206  1.00  0.00     0.116 C 
BRANCH   5   6
HETATM    6  C   UNL     1      -1.385 -12.243  52.887  1.00  0.00     0.172 C 
HETATM    7  O   UNL     1      -1.643 -13.086  52.044  1.00  0.00    -0.648 OA
HETATM    8  O   UNL     1      -2.360 -11.771  53.686  1.00  0.00    -0.648 OA
ENDBRANCH   5   6
ENDBRANCH   4   5
ENDBRANCH   3   4
BRANCH   3   9
HETATM    9  C   UNL     1       1.765 -11.058  55.496  1.00  0.00     0.070 C 
BRANCH   9  10
HETATM   10  C   UNL     1       2.943 -10.157  55.794  1.00  0.00    -0.053 A 
HETATM   11  C   UNL     1       3.641 -10.276  57.006  1.00  0.00     0.046 A 
HETATM   12  C   UNL     1       4.708  -9.429  57.270  1.00  0.00     0.099 A 
HETATM   13  C   UNL     1       5.112  -8.482  56.335  1.00  0.00     0.098 A 
HETATM   14  C   UNL     1       4.423  -8.336  55.141  1.00  0.00     0.040 A 
HETATM   15  C   UNL     1       3.336  -9.172  54.871  1.00  0.00     0.010 A 
BRANCH  12  16
HETATM   16  O   UNL     1       5.338  -9.514  58.479  1.00  0.00    -0.358 OA
HETATM   17  H   UNL     1       4.879  -9.848  59.224  1.00  0.00     0.217 HD
ENDBRANCH  12  16
BRANCH  13  18
HETATM   18  O   UNL     1       6.209  -7.704  56.566  1.00  0.00    -0.358 OA
HETATM   19  H   UNL     1       7.063  -8.090  56.583  1.00  0.00     0.217 HD
ENDBRANCH  13  18
ENDBRANCH   9  10
ENDBRANCH   3   9
ENDBRANCH   1   3
TORSDOF 8
ENDMDL
MODEL 7
REMARK VINA RESULT:      -6.1      2.311      3.493
REMARK  8 active torsions:
REMARK  status: ('A' for Active; 'I' for Inactive)
REMARK    1  A    between atoms: O_1  and  C_2 
REMARK    2  A    between atoms: C_2  and  C_3 
REMARK    3  A    between atoms: C_2  and  C_8 
REMARK    4  A    between atoms: C_3  and  C_4 
REMARK    5  A    between atoms: C_4  and  C_5 
REMARK    6  A    between atoms: C_8  and  C_9 
REMARK    7  A    between atoms: C_11  and  O_16 
REMARK    8  A    between atoms: C_12  and  O_15 
ROOT
HETATM    1  O   UNL     1       1.003 -12.337  55.872  1.00  0.00    -0.395 OA
HETATM    2  H   UNL     1       1.907 -12.573  55.609  1.00  0.00     0.210 HD
ENDROOT
BRANCH   1   3
HETATM    3  C   UNL     1       0.850 -10.919  55.828  1.00  0.00     0.122 C 
BRANCH   3   4
HETATM    4  C   UNL     1      -0.609 -10.565  55.498  1.00  0.00     0.042 C 
BRANCH   4   5
HETATM    5  C   UNL     1      -0.894 -10.508  53.995  1.00  0.00     0.116 C 
BRANCH   5   6
HETATM    6  C   UNL     1      -1.259 -11.818  53.345  1.00  0.00     0.172 C 
HETATM    7  O   UNL     1      -0.468 -12.690  53.024  1.00  0.00    -0.648 OA
HETATM    8  O   UNL     1      -2.583 -12.031  53.215  1.00  0.00    -0.648 OA
ENDBRANCH   5   6
ENDBRANCH   4   5
ENDBRANCH   3   4
BRANCH   3   9
HETATM    9  C   UNL     1       1.804 -10.323  54.779  1.00  0.00     0.070 C 
BRANCH   9  10
HETATM   10  C   UNL     1       2.732  -9.278  55.359  1.00  0.00    -0.053 A 
HETATM   11  C   UNL     1       3.810  -9.658  56.173  1.00  0.00     0.046 A 
HETATM   12  C   UNL     1       4.641  -8.686  56.711  1.00  0.00     0.099 A 
HETATM   13  C   UNL     1       4.434  -7.339  56.429  1.00  0.00     0.098 A 
HETATM   14  C   UNL     1       3.363  -6.943  55.643  1.00  0.00     0.040 A 
HETATM   15  C   UNL     1       2.509  -7.913  55.110  1.00  0.00     0.010 A 
BRANCH  12  16
HETATM   16  O   UNL     1       5.648  -9.064  57.553  1.00  0.00    -0.358 OA
HETATM   17  H   UNL     1       5.449  -9.351  58.422  1.00  0.00     0.217 HD
ENDBRANCH  12  16
BRANCH  13  18
HETATM   18  O   UNL     1       5.299  -6.392  56.897  1.00  0.00    -0.358 OA
HETATM   19  H   UNL     1       5.207  -6.064  57.770  1.00  0.00     0.217 HD
ENDBRANCH  13  18
ENDBRANCH   9  10
ENDBRANCH   3   9
ENDBRANCH   1   3
TORSDOF 8
ENDMDL
MODEL 8
REMARK VINA RESULT:      -6.0      2.953      4.466
REMARK  8 active torsions:
REMARK  status: ('A' for Active; 'I' for Inactive)
REMARK    1  A    between atoms: O_1  and  C_2 
REMARK    2  A    between atoms: C_2  and  C_3 
REMARK    3  A    between atoms: C_2  and  C_8 
REMARK    4  A    between atoms: C_3  and  C_4 
REMARK    5  A    between atoms: C_4  and  C_5 
REMARK    6  A    between atoms: C_8  and  C_9 
REMARK    7  A    between atoms: C_11  and  O_16 
REMARK    8  A    between atoms: C_12  and  O_15 
ROOT
HETATM    1  O   UNL     1       1.271 -11.229  52.170  1.00  0.00    -0.395 OA
HETATM    2  H   UNL     1       1.707 -12.050  51.896  1.00  0.00     0.210 HD
ENDROOT
BRANCH   1   3
HETATM    3  C   UNL     1       1.295 -11.130  53.594  1.00  0.00     0.122 C 
BRANCH   3   4
HETATM    4  C   UNL     1       0.011 -11.740  54.179  1.00  0.00     0.042 C 
BRANCH   4   5
HETATM    5  C   UNL     1      -1.098 -10.712  54.413  1.00  0.00     0.116 C 
BRANCH   5   6
HETATM    6  C   UNL     1      -1.551 -10.547  55.841  1.00  0.00     0.172 C 
HETATM    7  O   UNL     1      -0.842 -10.190  56.768  1.00  0.00    -0.648 OA
HETATM    8  O   UNL     1      -2.870 -10.735  56.038  1.00  0.00    -0.648 OA
ENDBRANCH   5   6
ENDBRANCH   4   5
ENDBRANCH   3   4
BRANCH   3   9
HETATM    9  C   UNL     1       1.435  -9.655  54.012  1.00  0.00     0.070 C 
BRANCH   9  10
HETATM   10  C   UNL     1       2.609  -9.418  54.936  1.00  0.00    -0.053 A 
HETATM   11  C   UNL     1       2.691 -10.084  56.168  1.00  0.00     0.046 A 
HETATM   12  C   UNL     1       3.766  -9.841  57.011  1.00  0.00     0.099 A 
HETATM   13  C   UNL     1       4.779  -8.965  56.635  1.00  0.00     0.098 A 
HETATM   14  C   UNL     1       4.707  -8.282  55.430  1.00  0.00     0.040 A 
HETATM   15  C   UNL     1       3.619  -8.506  54.581  1.00  0.00     0.010 A 
BRANCH  12  16
HETATM   16  O   UNL     1       3.801 -10.448  58.233  1.00  0.00    -0.358 OA
HETATM   17  H   UNL     1       4.288 -11.241  58.349  1.00  0.00     0.217 HD
ENDBRANCH  12  16
BRANCH  13  18
HETATM   18  O   UNL     1       5.873  -8.788  57.432  1.00  0.00    -0.358 OA
HETATM   19  H   UNL     1       6.349  -7.982  57.400  1.00  0.00     0.217 HD
ENDBRANCH  13  18
ENDBRANCH   9  10
ENDBRANCH   3   9
ENDBRANCH   1   3
TORSDOF 8
ENDMDL
MODEL 9
REMARK VINA RESULT:      -6.0      2.053      3.372
REMARK  8 active torsions:
REMARK  status: ('A' for Active; 'I' for Inactive)
REMARK    1  A    between atoms: O_1  and  C_2 
REMARK    2  A    between atoms: C_2  and  C_3 
REMARK    3  A    between atoms: C_2  and  C_8 
REMARK    4  A    between atoms: C_3  and  C_4 
REMARK    5  A    between atoms: C_4  and  C_5 
REMARK    6  A    between atoms: C_8  and  C_9 
REMARK    7  A    between atoms: C_11  and  O_16 
REMARK    8  A    between atoms: C_12  and  O_15 
ROOT
HETATM    1  O   UNL     1       0.976 -12.316  55.843  1.00  0.00    -0.395 OA
HETATM    2  H   UNL     1       1.872 -12.571  55.571  1.00  0.00     0.210 HD
ENDROOT
BRANCH   1   3
HETATM    3  C   UNL     1       0.828 -10.902  55.723  1.00  0.00     0.122 C 
BRANCH   3   4
HETATM    4  C   UNL     1      -0.643 -10.556  55.440  1.00  0.00     0.042 C 
BRANCH   4   5
HETATM    5  C   UNL     1      -0.979 -10.510  53.947  1.00  0.00     0.116 C 
BRANCH   5   6
HETATM    6  C   UNL     1      -1.335 -11.831  53.313  1.00  0.00     0.172 C 
HETATM    7  O   UNL     1      -0.537 -12.698  52.997  1.00  0.00    -0.648 OA
HETATM    8  O   UNL     1      -2.657 -12.058  53.192  1.00  0.00    -0.648 OA
ENDBRANCH   5   6
ENDBRANCH   4   5
ENDBRANCH   3   4
BRANCH   3   9
HETATM    9  C   UNL     1       1.736 -10.376  54.597  1.00  0.00     0.070 C 
BRANCH   9  10
HETATM   10  C   UNL     1       2.949  -9.639  55.119  1.00  0.00    -0.053 A 
HETATM   11  C   UNL     1       3.604  -8.690  54.320  1.00  0.00     0.046 A 
HETATM   12  C   UNL     1       4.726  -8.037  54.808  1.00  0.00     0.099 A 
HETATM   13  C   UNL     1       5.193  -8.291  56.094  1.00  0.00     0.098 A 
HETATM   14  C   UNL     1       4.571  -9.239  56.892  1.00  0.00     0.040 A 
HETATM   15  C   UNL     1       3.450  -9.916  56.404  1.00  0.00     0.010 A 
BRANCH  12  16
HETATM   16  O   UNL     1       5.391  -7.162  53.997  1.00  0.00    -0.358 OA
HETATM   17  H   UNL     1       5.971  -7.485  53.335  1.00  0.00     0.217 HD
ENDBRANCH  12  16
BRANCH  13  18
HETATM   18  O   UNL     1       6.250  -7.590  56.599  1.00  0.00    -0.358 OA
HETATM   19  H   UNL     1       6.884  -7.216  56.020  1.00  0.00     0.217 HD
ENDBRANCH  13  18
ENDBRANCH   9  10
ENDBRANCH   3   9
ENDBRANCH   1   3
TORSDOF 8
ENDMDL
