MODEL 1
REMARK VINA RESULT:      -6.7      0.000      0.000
REMARK  11 active torsions:
REMARK  status: ('A' for Active; 'I' for Inactive)
REMARK    1  A    between atoms: C1_1  and  C2_2 
REMARK    2  A    between atoms: C1_1  and  C10_13 
REMARK    3  A    between atoms: C2_2  and  C3_3 
REMARK    4  A    between atoms: C3_3  and  C4_4 
REMARK    5  A    between atoms: C6_6  and  O1_7 
REMARK    6  A    between atoms: C7_8  and  O2_9 
REMARK    7  A    between atoms: C10_13  and  O4_14 
REMARK    8  A    between atoms: C10_13  and  C11_15 
REMARK    9  A    between atoms: C11_15  and  O5_16 
REMARK   10  A    between atoms: C11_15  and  C12_17 
REMARK   11  A    between atoms: C12_17  and  O6_18 
ROOT
HETATM    1  C1  UNL     1       3.489  -9.849  56.784  1.00  0.00     0.158 C 
HETATM    2  O3  UNL     1       3.056 -11.005  56.822  1.00  0.00    -0.295 OA
ENDROOT
BRANCH   1   3
HETATM    3  C2  UNL     1       2.561  -8.686  56.479  1.00  0.00     0.086 C 
BRANCH   3   4
HETATM    4  C3  UNL     1       2.349  -8.448  54.986  1.00  0.00     0.046 C 
BRANCH   4   5
HETATM    5  C4  UNL     1       2.955  -7.159  54.484  1.00  0.00    -0.055 A 
HETATM    6  C5  UNL     1       3.524  -7.085  53.202  1.00  0.00     0.046 A 
HETATM    7  C6  UNL     1       4.086  -5.890  52.766  1.00  0.00     0.099 A 
HETATM    8  C7  UNL     1       4.080  -4.767  53.588  1.00  0.00     0.098 A 
HETATM    9  C8  UNL     1       3.519  -4.819  54.853  1.00  0.00     0.040 A 
HETATM   10  C9  UNL     1       2.954  -6.014  55.300  1.00  0.00     0.010 A 
BRANCH   7  11
HETATM   11  O1  UNL     1       4.658  -5.768  51.529  1.00  0.00    -0.358 OA
HETATM   12  H   UNL     1       4.649  -4.942  51.088  1.00  0.00     0.217 HD
ENDBRANCH   7  11
BRANCH   8  13
HETATM   13  O2  UNL     1       4.634  -3.598  53.150  1.00  0.00    -0.358 OA
HETATM   14  H   UNL     1       5.524  -3.582  52.857  1.00  0.00     0.217 HD
ENDBRANCH   8  13
ENDBRANCH   4   5
ENDBRANCH   3   4
ENDBRANCH   1   3
BRANCH   1  15
HETATM   15  C10 UNL     1       4.954  -9.532  57.093  1.00  0.00     0.218 C 
BRANCH  15  16
HETATM   16  O4  UNL     1       5.115  -8.113  57.068  1.00  0.00    -0.385 OA
HETATM   17  H   UNL     1       5.366  -7.832  56.174  1.00  0.00     0.210 HD
ENDBRANCH  15  16
BRANCH  15  18
HETATM   18  C11 UNL     1       5.379 -10.121  58.454  1.00  0.00     0.177 C 
BRANCH  18  19
HETATM   19  O5  UNL     1       4.256 -10.252  59.341  1.00  0.00    -0.390 OA
HETATM   20  H   UNL     1       3.438 -10.297  58.822  1.00  0.00     0.210 HD
ENDBRANCH  18  19
BRANCH  18  21
HETATM   21  C12 UNL     1       5.975 -11.526  58.293  1.00  0.00     0.198 C 
BRANCH  21  22
HETATM   22  O6  UNL     1       4.992 -12.509  58.621  1.00  0.00    -0.398 OA
HETATM   23  H   UNL     1       4.155 -12.289  58.181  1.00  0.00     0.209 HD
ENDBRANCH  21  22
ENDBRANCH  18  21
ENDBRANCH  15  18
ENDBRANCH   1  15
TORSDOF 11
ENDMDL
MODEL 2
REMARK VINA RESULT:      -6.6      2.731      6.724
REMARK  11 active torsions:
REMARK  status: ('A' for Active; 'I' for Inactive)
REMARK    1  A    between atoms: C1_1  and  C2_2 
REMARK    2  A    between atoms: C1_1  and  C10_13 
REMARK    3  A    between atoms: C2_2  and  C3_3 
REMARK    4  A    between atoms: C3_3  and  C4_4 
REMARK    5  A    between atoms: C6_6  and  O1_7 
REMARK    6  A    between atoms: C7_8  and  O2_9 
REMARK    7  A    between atoms: C10_13  and  O4_14 
REMARK    8  A    between atoms: C10_13  and  C11_15 
REMARK    9  A    between atoms: C11_15  and  O5_16 
REMARK   10  A    between atoms: C11_15  and  C12_17 
REMARK   11  A    between atoms: C12_17  and  O6_18 
ROOT
HETATM    1  C1  UNL     1       3.442  -6.114  55.599  1.00  0.00     0.158 C 
HETATM    2  O3  UNL     1       4.222  -5.710  56.467  1.00  0.00    -0.295 OA
ENDROOT
BRANCH   1   3
HETATM    3  C2  UNL     1       2.828  -7.499  55.697  1.00  0.00     0.086 C 
BRANCH   3   4
HETATM    4  C3  UNL     1       3.390  -8.491  54.682  1.00  0.00     0.046 C 
BRANCH   4   5
HETATM    5  C4  UNL     1       2.498  -9.686  54.441  1.00  0.00    -0.055 A 
HETATM    6  C5  UNL     1       2.176 -10.564  55.489  1.00  0.00     0.046 A 
HETATM    7  C6  UNL     1       1.362 -11.664  55.239  1.00  0.00     0.099 A 
HETATM    8  C7  UNL     1       0.860 -11.894  53.962  1.00  0.00     0.098 A 
HETATM    9  C8  UNL     1       1.163 -11.037  52.917  1.00  0.00     0.040 A 
HETATM   10  C9  UNL     1       1.980  -9.931  53.157  1.00  0.00     0.010 A 
BRANCH   7  11
HETATM   11  O1  UNL     1       1.024 -12.552  56.224  1.00  0.00    -0.358 OA
HETATM   12  H   UNL     1       1.219 -13.462  56.120  1.00  0.00     0.217 HD
ENDBRANCH   7  11
BRANCH   8  13
HETATM   13  O2  UNL     1       0.061 -12.977  53.728  1.00  0.00    -0.358 OA
HETATM   14  H   UNL     1      -0.782 -12.861  53.337  1.00  0.00     0.217 HD
ENDBRANCH   8  13
ENDBRANCH   4   5
ENDBRANCH   3   4
ENDBRANCH   1   3
BRANCH   1  15
HETATM   15  C10 UNL     1       3.018  -5.226  54.426  1.00  0.00     0.218 C 
BRANCH  15  16
HETATM   16  O4  UNL     1       2.294  -4.114  54.952  1.00  0.00    -0.385 OA
HETATM   17  H   UNL     1       1.397  -4.107  54.581  1.00  0.00     0.210 HD
ENDBRANCH  15  16
BRANCH  15  18
HETATM   18  C11 UNL     1       4.240  -4.764  53.605  1.00  0.00     0.177 C 
BRANCH  18  19
HETATM   19  O5  UNL     1       5.449  -5.386  54.071  1.00  0.00    -0.390 OA
HETATM   20  H   UNL     1       5.584  -6.222  53.598  1.00  0.00     0.210 HD
ENDBRANCH  18  19
BRANCH  18  21
HETATM   21  C12 UNL     1       4.094  -5.143  52.126  1.00  0.00     0.198 C 
BRANCH  21  22
HETATM   22  O6  UNL     1       4.436  -4.024  51.304  1.00  0.00    -0.398 OA
HETATM   23  H   UNL     1       4.251  -4.237  50.375  1.00  0.00     0.209 HD
ENDBRANCH  21  22
ENDBRANCH  18  21
ENDBRANCH  15  18
ENDBRANCH   1  15
TORSDOF 11
ENDMDL
MODEL 3
REMARK VINA RESULT:      -6.5      2.348      3.719
REMARK  11 active torsions:
REMARK  status: ('A' for Active; 'I' for Inactive)
REMARK    1  A    between atoms: C1_1  and  C2_2 
REMARK    2  A    between atoms: C1_1  and  C10_13 
REMARK    3  A    between atoms: C2_2  and  C3_3 
REMARK    4  A    between atoms: C3_3  and  C4_4 
REMARK    5  A    between atoms: C6_6  and  O1_7 
REMARK    6  A    between atoms: C7_8  and  O2_9 
REMARK    7  A    between atoms: C10_13  and  O4_14 
REMARK    8  A    between atoms: C10_13  and  C11_15 
REMARK    9  A    between atoms: C11_15  and  O5_16 
REMARK   10  A    between atoms: C11_15  and  C12_17 
REMARK   11  A    between atoms: C12_17  and  O6_18 
ROOT
HETATM    1  C1  UNL     1       1.919  -9.651  55.892  1.00  0.00     0.158 C 
HETATM    2  O3  UNL     1       1.475  -9.467  57.030  1.00  0.00    -0.295 OA
ENDROOT
BRANCH   1   3
HETATM    3  C2  UNL     1       3.415  -9.647  55.636  1.00  0.00     0.086 C 
BRANCH   3   4
HETATM    4  C3  UNL     1       4.150  -8.495  56.318  1.00  0.00     0.046 C 
BRANCH   4   5
HETATM    5  C4  UNL     1       4.234  -7.244  55.476  1.00  0.00    -0.055 A 
HETATM    6  C5  UNL     1       4.637  -7.310  54.132  1.00  0.00     0.046 A 
HETATM    7  C6  UNL     1       4.718  -6.142  53.380  1.00  0.00     0.099 A 
HETATM    8  C7  UNL     1       4.395  -4.914  53.948  1.00  0.00     0.098 A 
HETATM    9  C8  UNL     1       3.991  -4.830  55.270  1.00  0.00     0.040 A 
HETATM   10  C9  UNL     1       3.908  -5.995  56.034  1.00  0.00     0.010 A 
BRANCH   7  11
HETATM   11  O1  UNL     1       5.111  -6.152  52.070  1.00  0.00    -0.358 OA
HETATM   12  H   UNL     1       4.468  -6.155  51.388  1.00  0.00     0.217 HD
ENDBRANCH   7  11
BRANCH   8  13
HETATM   13  O2  UNL     1       4.477  -3.774  53.201  1.00  0.00    -0.358 OA
HETATM   14  H   UNL     1       4.884  -3.008  53.557  1.00  0.00     0.217 HD
ENDBRANCH   8  13
ENDBRANCH   4   5
ENDBRANCH   3   4
ENDBRANCH   1   3
BRANCH   1  15
HETATM   15  C10 UNL     1       0.993  -9.944  54.709  1.00  0.00     0.218 C 
BRANCH  15  16
HETATM   16  O4  UNL     1       1.803 -10.143  53.550  1.00  0.00    -0.385 OA
HETATM   17  H   UNL     1       2.342 -10.941  53.666  1.00  0.00     0.210 HD
ENDBRANCH  15  16
BRANCH  15  18
HETATM   18  C11 UNL     1       0.100 -11.170  54.988  1.00  0.00     0.177 C 
BRANCH  18  19
HETATM   19  O5  UNL     1       0.650 -11.992  56.029  1.00  0.00    -0.390 OA
HETATM   20  H   UNL     1       1.604 -12.098  55.887  1.00  0.00     0.210 HD
ENDBRANCH  18  19
BRANCH  18  21
HETATM   21  C12 UNL     1      -1.299 -10.748  55.456  1.00  0.00     0.198 C 
BRANCH  21  22
HETATM   22  O6  UNL     1      -1.294 -10.544  56.870  1.00  0.00    -0.398 OA
HETATM   23  H   UNL     1      -0.383 -10.590  57.201  1.00  0.00     0.209 HD
ENDBRANCH  21  22
ENDBRANCH  18  21
ENDBRANCH  15  18
ENDBRANCH   1  15
TORSDOF 11
ENDMDL
MODEL 4
REMARK VINA RESULT:      -6.5      2.495      4.887
REMARK  11 active torsions:
REMARK  status: ('A' for Active; 'I' for Inactive)
REMARK    1  A    between atoms: C1_1  and  C2_2 
REMARK    2  A    between atoms: C1_1  and  C10_13 
REMARK    3  A    between atoms: C2_2  and  C3_3 
REMARK    4  A    between atoms: C3_3  and  C4_4 
REMARK    5  A    between atoms: C6_6  and  O1_7 
REMARK    6  A    between atoms: C7_8  and  O2_9 
REMARK    7  A    between atoms: C10_13  and  O4_14 
REMARK    8  A    between atoms: C10_13  and  C11_15 
REMARK    9  A    between atoms: C11_15  and  O5_16 
REMARK   10  A    between atoms: C11_15  and  C12_17 
REMARK   11  A    between atoms: C12_17  and  O6_18 
ROOT
HETATM    1  C1  UNL     1       4.496  -7.714  56.499  1.00  0.00     0.158 C 
HETATM    2  O3  UNL     1       4.895  -6.661  57.006  1.00  0.00    -0.295 OA
ENDROOT
BRANCH   1   3
HETATM    3  C2  UNL     1       3.227  -7.739  55.666  1.00  0.00     0.086 C 
BRANCH   3   4
HETATM    4  C3  UNL     1       3.385  -8.461  54.330  1.00  0.00     0.046 C 
BRANCH   4   5
HETATM    5  C4  UNL     1       2.487  -9.666  54.180  1.00  0.00    -0.055 A 
HETATM    6  C5  UNL     1       2.181 -10.475  55.287  1.00  0.00     0.046 A 
HETATM    7  C6  UNL     1       1.360 -11.586  55.122  1.00  0.00     0.099 A 
HETATM    8  C7  UNL     1       0.837 -11.896  53.870  1.00  0.00     0.098 A 
HETATM    9  C8  UNL     1       1.124 -11.107  52.768  1.00  0.00     0.040 A 
HETATM   10  C9  UNL     1       1.947  -9.991  52.923  1.00  0.00     0.010 A 
BRANCH   7  11
HETATM   11  O1  UNL     1       1.038 -12.408  56.166  1.00  0.00    -0.358 OA
HETATM   12  H   UNL     1       0.182 -12.368  56.547  1.00  0.00     0.217 HD
ENDBRANCH   7  11
BRANCH   8  13
HETATM   13  O2  UNL     1       0.033 -12.989  53.718  1.00  0.00    -0.358 OA
HETATM   14  H   UNL     1       0.377 -13.847  53.868  1.00  0.00     0.217 HD
ENDBRANCH   8  13
ENDBRANCH   4   5
ENDBRANCH   3   4
ENDBRANCH   1   3
BRANCH   1  15
HETATM   15  C10 UNL     1       5.283  -9.019  56.640  1.00  0.00     0.218 C 
BRANCH  15  16
HETATM   16  O4  UNL     1       6.669  -8.722  56.462  1.00  0.00    -0.385 OA
HETATM   17  H   UNL     1       6.960  -9.046  55.595  1.00  0.00     0.210 HD
ENDBRANCH  15  16
BRANCH  15  18
HETATM   18  C11 UNL     1       5.023  -9.685  58.007  1.00  0.00     0.177 C 
BRANCH  18  19
HETATM   19  O5  UNL     1       3.681 -10.191  58.095  1.00  0.00    -0.390 OA
HETATM   20  H   UNL     1       3.349 -10.384  57.204  1.00  0.00     0.210 HD
ENDBRANCH  18  19
BRANCH  18  21
HETATM   21  C12 UNL     1       5.957 -10.881  58.233  1.00  0.00     0.198 C 
BRANCH  21  22
HETATM   22  O6  UNL     1       5.227 -11.961  58.819  1.00  0.00    -0.398 OA
HETATM   23  H   UNL     1       5.555 -12.803  58.464  1.00  0.00     0.209 HD
ENDBRANCH  21  22
ENDBRANCH  18  21
ENDBRANCH  15  18
ENDBRANCH   1  15
TORSDOF 11
ENDMDL
MODEL 5
REMARK VINA RESULT:      -6.4      1.560      5.876
REMARK  11 active torsions:
REMARK  status: ('A' for Active; 'I' for Inactive)
REMARK    1  A    between atoms: C1_1  and  C2_2 
REMARK    2  A    between atoms: C1_1  and  C10_13 
REMARK    3  A    between atoms: C2_2  and  C3_3 
REMARK    4  A    between atoms: C3_3  and  C4_4 
REMARK    5  A    between atoms: C6_6  and  O1_7 
REMARK    6  A    between atoms: C7_8  and  O2_9 
REMARK    7  A    between atoms: C10_13  and  O4_14 
REMARK    8  A    between atoms: C10_13  and  C11_15 
REMARK    9  A    between atoms: C11_15  and  O5_16 
REMARK   10  A    between atoms: C11_15  and  C12_17 
REMARK   11  A    between atoms: C12_17  and  O6_18 
ROOT
HETATM    1  C1  UNL     1       3.493  -6.011  53.028  1.00  0.00     0.158 C 
HETATM    2  O3  UNL     1       2.296  -5.915  52.739  1.00  0.00    -0.295 OA
ENDROOT
BRANCH   1   3
HETATM    3  C2  UNL     1       4.272  -7.268  52.686  1.00  0.00     0.086 C 
BRANCH   3   4
HETATM    4  C3  UNL     1       3.498  -8.558  52.944  1.00  0.00     0.046 C 
BRANCH   4   5
HETATM    5  C4  UNL     1       3.559  -9.028  54.378  1.00  0.00    -0.055 A 
HETATM    6  C5  UNL     1       4.584  -8.589  55.234  1.00  0.00     0.046 A 
HETATM    7  C6  UNL     1       4.625  -9.044  56.548  1.00  0.00     0.099 A 
HETATM    8  C7  UNL     1       3.656  -9.924  57.020  1.00  0.00     0.098 A 
HETATM    9  C8  UNL     1       2.636 -10.363  56.193  1.00  0.00     0.040 A 
HETATM   10  C9  UNL     1       2.586  -9.914  54.873  1.00  0.00     0.010 A 
BRANCH   7  11
HETATM   11  O1  UNL     1       5.605  -8.651  57.417  1.00  0.00    -0.358 OA
HETATM   12  H   UNL     1       6.490  -8.566  57.119  1.00  0.00     0.217 HD
ENDBRANCH   7  11
BRANCH   8  13
HETATM   13  O2  UNL     1       3.707 -10.364  58.311  1.00  0.00    -0.358 OA
HETATM   14  H   UNL     1       4.047  -9.807  58.984  1.00  0.00     0.217 HD
ENDBRANCH   8  13
ENDBRANCH   4   5
ENDBRANCH   3   4
ENDBRANCH   1   3
BRANCH   1  15
HETATM   15  C10 UNL     1       4.252  -4.858  53.690  1.00  0.00     0.218 C 
BRANCH  15  16
HETATM   16  O4  UNL     1       4.380  -3.806  52.733  1.00  0.00    -0.385 OA
HETATM   17  H   UNL     1       4.944  -3.106  53.097  1.00  0.00     0.210 HD
ENDBRANCH  15  16
BRANCH  15  18
HETATM   18  C11 UNL     1       3.533  -4.374  54.966  1.00  0.00     0.177 C 
BRANCH  18  19
HETATM   19  O5  UNL     1       2.182  -3.973  54.685  1.00  0.00    -0.390 OA
HETATM   20  H   UNL     1       2.184  -3.084  54.296  1.00  0.00     0.210 HD
ENDBRANCH  18  19
BRANCH  18  21
HETATM   21  C12 UNL     1       3.448  -5.489  56.017  1.00  0.00     0.198 C 
BRANCH  21  22
HETATM   22  O6  UNL     1       4.736  -5.705  56.597  1.00  0.00    -0.398 OA
HETATM   23  H   UNL     1       4.781  -6.604  56.960  1.00  0.00     0.209 HD
ENDBRANCH  21  22
ENDBRANCH  18  21
ENDBRANCH  15  18
ENDBRANCH   1  15
TORSDOF 11
ENDMDL
MODEL 6
REMARK VINA RESULT:      -6.4      2.657      7.725
REMARK  11 active torsions:
REMARK  status: ('A' for Active; 'I' for Inactive)
REMARK    1  A    between atoms: C1_1  and  C2_2 
REMARK    2  A    between atoms: C1_1  and  C10_13 
REMARK    3  A    between atoms: C2_2  and  C3_3 
REMARK    4  A    between atoms: C3_3  and  C4_4 
REMARK    5  A    between atoms: C6_6  and  O1_7 
REMARK    6  A    between atoms: C7_8  and  O2_9 
REMARK    7  A    between atoms: C10_13  and  O4_14 
REMARK    8  A    between atoms: C10_13  and  C11_15 
REMARK    9  A    between atoms: C11_15  and  O5_16 
REMARK   10  A    between atoms: C11_15  and  C12_17 
REMARK   11  A    between atoms: C12_17  and  O6_18 
ROOT
HETATM    1  C1  UNL     1       3.823  -6.200  50.545  1.00  0.00     0.158 C 
HETATM    2  O3  UNL     1       3.433  -7.025  49.713  1.00  0.00    -0.295 OA
ENDROOT
BRANCH   1   3
HETATM    3  C2  UNL     1       4.488  -6.655  51.832  1.00  0.00     0.086 C 
BRANCH   3   4
HETATM    4  C3  UNL     1       3.618  -7.583  52.676  1.00  0.00     0.046 C 
BRANCH   4   5
HETATM    5  C4  UNL     1       4.244  -7.971  53.995  1.00  0.00    -0.055 A 
HETATM    6  C5  UNL     1       5.603  -7.718  54.246  1.00  0.00     0.046 A 
HETATM    7  C6  UNL     1       6.159  -8.095  55.464  1.00  0.00     0.099 A 
HETATM    8  C7  UNL     1       5.377  -8.714  56.434  1.00  0.00     0.098 A 
HETATM    9  C8  UNL     1       4.035  -8.968  56.207  1.00  0.00     0.040 A 
HETATM   10  C9  UNL     1       3.467  -8.594  54.988  1.00  0.00     0.010 A 
BRANCH   7  11
HETATM   11  O1  UNL     1       7.477  -7.876  55.754  1.00  0.00    -0.358 OA
HETATM   12  H   UNL     1       7.721  -7.523  56.588  1.00  0.00     0.217 HD
ENDBRANCH   7  11
BRANCH   8  13
HETATM   13  O2  UNL     1       5.934  -9.080  57.626  1.00  0.00    -0.358 OA
HETATM   14  H   UNL     1       5.692  -8.633  58.414  1.00  0.00     0.217 HD
ENDBRANCH   8  13
ENDBRANCH   4   5
ENDBRANCH   3   4
ENDBRANCH   1   3
BRANCH   1  15
HETATM   15  C10 UNL     1       3.705  -4.694  50.296  1.00  0.00     0.218 C 
BRANCH  15  16
HETATM   16  O4  UNL     1       4.464  -4.018  51.299  1.00  0.00    -0.385 OA
HETATM   17  H   UNL     1       4.260  -4.397  52.168  1.00  0.00     0.210 HD
ENDBRANCH  15  16
BRANCH  15  18
HETATM   18  C11 UNL     1       4.188  -4.322  48.879  1.00  0.00     0.177 C 
BRANCH  18  19
HETATM   19  O5  UNL     1       3.410  -3.249  48.325  1.00  0.00    -0.390 OA
HETATM   20  H   UNL     1       2.467  -3.430  48.463  1.00  0.00     0.210 HD
ENDBRANCH  18  19
BRANCH  18  21
HETATM   21  C12 UNL     1       5.646  -3.843  48.894  1.00  0.00     0.198 C 
BRANCH  21  22
HETATM   22  O6  UNL     1       5.689  -2.431  49.105  1.00  0.00    -0.398 OA
HETATM   23  H   UNL     1       5.845  -2.249  50.045  1.00  0.00     0.209 HD
ENDBRANCH  21  22
ENDBRANCH  18  21
ENDBRANCH  15  18
ENDBRANCH   1  15
TORSDOF 11
ENDMDL
MODEL 7
REMARK VINA RESULT:      -6.4      2.565      4.010
REMARK  11 active torsions:
REMARK  status: ('A' for Active; 'I' for Inactive)
REMARK    1  A    between atoms: C1_1  and  C2_2 
REMARK    2  A    between atoms: C1_1  and  C10_13 
REMARK    3  A    between atoms: C2_2  and  C3_3 
REMARK    4  A    between atoms: C3_3  and  C4_4 
REMARK    5  A    between atoms: C6_6  and  O1_7 
REMARK    6  A    between atoms: C7_8  and  O2_9 
REMARK    7  A    between atoms: C10_13  and  O4_14 
REMARK    8  A    between atoms: C10_13  and  C11_15 
REMARK    9  A    between atoms: C11_15  and  O5_16 
REMARK   10  A    between atoms: C11_15  and  C12_17 
REMARK   11  A    between atoms: C12_17  and  O6_18 
ROOT
HETATM    1  C1  UNL     1       1.669 -10.178  55.774  1.00  0.00     0.158 C 
HETATM    2  O3  UNL     1       0.960  -9.586  56.593  1.00  0.00    -0.295 OA
ENDROOT
BRANCH   1   3
HETATM    3  C2  UNL     1       3.044  -9.645  55.412  1.00  0.00     0.086 C 
BRANCH   3   4
HETATM    4  C3  UNL     1       3.471  -8.439  56.245  1.00  0.00     0.046 C 
BRANCH   4   5
HETATM    5  C4  UNL     1       3.752  -7.202  55.425  1.00  0.00    -0.055 A 
HETATM    6  C5  UNL     1       4.325  -7.304  54.147  1.00  0.00     0.046 A 
HETATM    7  C6  UNL     1       4.585  -6.149  53.415  1.00  0.00     0.099 A 
HETATM    8  C7  UNL     1       4.274  -4.898  53.939  1.00  0.00     0.098 A 
HETATM    9  C8  UNL     1       3.704  -4.778  55.195  1.00  0.00     0.040 A 
HETATM   10  C9  UNL     1       3.441  -5.930  55.938  1.00  0.00     0.010 A 
BRANCH   7  11
HETATM   11  O1  UNL     1       5.147  -6.195  52.169  1.00  0.00    -0.358 OA
HETATM   12  H   UNL     1       5.499  -5.415  51.785  1.00  0.00     0.217 HD
ENDBRANCH   7  11
BRANCH   8  13
HETATM   13  O2  UNL     1       4.533  -3.771  53.212  1.00  0.00    -0.358 OA
HETATM   14  H   UNL     1       5.394  -3.619  52.874  1.00  0.00     0.217 HD
ENDBRANCH   8  13
ENDBRANCH   4   5
ENDBRANCH   3   4
ENDBRANCH   1   3
BRANCH   1  15
HETATM   15  C10 UNL     1       1.222 -11.494  55.132  1.00  0.00     0.218 C 
BRANCH  15  16
HETATM   16  O4  UNL     1       1.112 -12.475  56.164  1.00  0.00    -0.385 OA
HETATM   17  H   UNL     1       0.337 -13.033  55.998  1.00  0.00     0.210 HD
ENDBRANCH  15  16
BRANCH  15  18
HETATM   18  C11 UNL     1      -0.112 -11.323  54.375  1.00  0.00     0.177 C 
BRANCH  18  19
HETATM   19  O5  UNL     1      -0.249  -9.992  53.853  1.00  0.00    -0.390 OA
HETATM   20  H   UNL     1      -0.922  -9.987  53.154  1.00  0.00     0.210 HD
ENDBRANCH  18  19
BRANCH  18  21
HETATM   21  C12 UNL     1      -0.199 -12.276  53.176  1.00  0.00     0.198 C 
BRANCH  21  22
HETATM   22  O6  UNL     1       0.775 -13.313  53.310  1.00  0.00    -0.398 OA
HETATM   23  H   UNL     1       1.562 -12.962  53.755  1.00  0.00     0.209 HD
ENDBRANCH  21  22
ENDBRANCH  18  21
ENDBRANCH  15  18
ENDBRANCH   1  15
TORSDOF 11
ENDMDL
MODEL 8
REMARK VINA RESULT:      -6.3      2.071      6.744
REMARK  11 active torsions:
REMARK  status: ('A' for Active; 'I' for Inactive)
REMARK    1  A    between atoms: C1_1  and  C2_2 
REMARK    2  A    between atoms: C1_1  and  C10_13 
REMARK    3  A    between atoms: C2_2  and  C3_3 
REMARK    4  A    between atoms: C3_3  and  C4_4 
REMARK    5  A    between atoms: C6_6  and  O1_7 
REMARK    6  A    between atoms: C7_8  and  O2_9 
REMARK    7  A    between atoms: C10_13  and  O4_14 
REMARK    8  A    between atoms: C10_13  and  C11_15 
REMARK    9  A    between atoms: C11_15  and  O5_16 
REMARK   10  A    between atoms: C11_15  and  C12_17 
REMARK   11  A    between atoms: C12_17  and  O6_18 
ROOT
HETATM    1  C1  UNL     1       2.298  -7.593  52.045  1.00  0.00     0.158 C 
HETATM    2  O3  UNL     1       1.148  -7.597  51.596  1.00  0.00    -0.295 OA
ENDROOT
BRANCH   1   3
HETATM    3  C2  UNL     1       2.851  -8.811  52.764  1.00  0.00     0.086 C 
BRANCH   3   4
HETATM    4  C3  UNL     1       2.196  -9.073  54.118  1.00  0.00     0.046 C 
BRANCH   4   5
HETATM    5  C4  UNL     1       3.182  -9.214  55.254  1.00  0.00    -0.055 A 
HETATM    6  C5  UNL     1       4.294  -8.361  55.348  1.00  0.00     0.046 A 
HETATM    7  C6  UNL     1       5.194  -8.517  56.398  1.00  0.00     0.099 A 
HETATM    8  C7  UNL     1       4.994  -9.507  57.355  1.00  0.00     0.098 A 
HETATM    9  C8  UNL     1       3.901 -10.353  57.282  1.00  0.00     0.040 A 
HETATM   10  C9  UNL     1       2.993 -10.206  56.232  1.00  0.00     0.010 A 
BRANCH   7  11
HETATM   11  O1  UNL     1       6.295  -7.717  56.530  1.00  0.00    -0.358 OA
HETATM   12  H   UNL     1       6.726  -7.648  57.360  1.00  0.00     0.217 HD
ENDBRANCH   7  11
BRANCH   8  13
HETATM   13  O2  UNL     1       5.884  -9.652  58.381  1.00  0.00    -0.358 OA
HETATM   14  H   UNL     1       5.620  -9.462  59.260  1.00  0.00     0.217 HD
ENDBRANCH   8  13
ENDBRANCH   4   5
ENDBRANCH   3   4
ENDBRANCH   1   3
BRANCH   1  15
HETATM   15  C10 UNL     1       3.229  -6.394  51.853  1.00  0.00     0.218 C 
BRANCH  15  16
HETATM   16  O4  UNL     1       4.556  -6.805  52.186  1.00  0.00    -0.385 OA
HETATM   17  H   UNL     1       4.587  -7.070  53.119  1.00  0.00     0.210 HD
ENDBRANCH  15  16
BRANCH  15  18
HETATM   18  C11 UNL     1       3.155  -5.854  50.409  1.00  0.00     0.177 C 
BRANCH  18  19
HETATM   19  O5  UNL     1       1.882  -5.242  50.145  1.00  0.00    -0.390 OA
HETATM   20  H   UNL     1       1.626  -4.690  50.900  1.00  0.00     0.210 HD
ENDBRANCH  18  19
BRANCH  18  21
HETATM   21  C12 UNL     1       4.219  -4.777  50.160  1.00  0.00     0.198 C 
BRANCH  21  22
HETATM   22  O6  UNL     1       4.426  -4.016  51.353  1.00  0.00    -0.398 OA
HETATM   23  H   UNL     1       3.700  -4.186  51.975  1.00  0.00     0.209 HD
ENDBRANCH  21  22
ENDBRANCH  18  21
ENDBRANCH  15  18
ENDBRANCH   1  15
TORSDOF 11
ENDMDL
MODEL 9
REMARK VINA RESULT:      -6.3      2.203      6.065
REMARK  11 active torsions:
REMARK  status: ('A' for Active; 'I' for Inactive)
REMARK    1  A    between atoms: C1_1  and  C2_2 
REMARK    2  A    between atoms: C1_1  and  C10_13 
REMARK    3  A    between atoms: C2_2  and  C3_3 
REMARK    4  A    between atoms: C3_3  and  C4_4 
REMARK    5  A    between atoms: C6_6  and  O1_7 
REMARK    6  A    between atoms: C7_8  and  O2_9 
REMARK    7  A    between atoms: C10_13  and  O4_14 
REMARK    8  A    between atoms: C10_13  and  C11_15 
REMARK    9  A    between atoms: C11_15  and  O5_16 
REMARK   10  A    between atoms: C11_15  and  C12_17 
REMARK   11  A    between atoms: C12_17  and  O6_18 
ROOT
HETATM    1  C1  UNL     1       3.597  -6.294  53.235  1.00  0.00     0.158 C 
HETATM    2  O3  UNL     1       2.536  -5.888  52.749  1.00  0.00    -0.295 OA
ENDROOT
BRANCH   1   3
HETATM    3  C2  UNL     1       4.007  -7.748  53.089  1.00  0.00     0.086 C 
BRANCH   3   4
HETATM    4  C3  UNL     1       2.899  -8.645  52.544  1.00  0.00     0.046 C 
BRANCH   4   5
HETATM    5  C4  UNL     1       2.384  -9.653  53.544  1.00  0.00    -0.055 A 
HETATM    6  C5  UNL     1       2.900  -9.696  54.850  1.00  0.00     0.046 A 
HETATM    7  C6  UNL     1       2.418 -10.640  55.750  1.00  0.00     0.099 A 
HETATM    8  C7  UNL     1       1.424 -11.536  55.367  1.00  0.00     0.098 A 
HETATM    9  C8  UNL     1       0.900 -11.506  54.085  1.00  0.00     0.040 A 
HETATM   10  C9  UNL     1       1.378 -10.563  53.174  1.00  0.00     0.010 A 
BRANCH   7  11
HETATM   11  O1  UNL     1       2.892 -10.727  57.030  1.00  0.00    -0.358 OA
HETATM   12  H   UNL     1       2.452 -11.267  57.657  1.00  0.00     0.217 HD
ENDBRANCH   7  11
BRANCH   8  13
HETATM   13  O2  UNL     1       0.958 -12.459  56.258  1.00  0.00    -0.358 OA
HETATM   14  H   UNL     1       1.019 -13.373  56.062  1.00  0.00     0.217 HD
ENDBRANCH   8  13
ENDBRANCH   4   5
ENDBRANCH   3   4
ENDBRANCH   1   3
BRANCH   1  15
HETATM   15  C10 UNL     1       4.564  -5.347  53.950  1.00  0.00     0.218 C 
BRANCH  15  16
HETATM   16  O4  UNL     1       4.736  -4.189  53.133  1.00  0.00    -0.385 OA
HETATM   17  H   UNL     1       4.158  -4.253  52.356  1.00  0.00     0.210 HD
ENDBRANCH  15  16
BRANCH  15  18
HETATM   18  C11 UNL     1       4.043  -4.972  55.353  1.00  0.00     0.177 C 
BRANCH  18  19
HETATM   19  O5  UNL     1       2.716  -4.427  55.291  1.00  0.00    -0.390 OA
HETATM   20  H   UNL     1       2.760  -3.461  55.372  1.00  0.00     0.210 HD
ENDBRANCH  18  19
BRANCH  18  21
HETATM   21  C12 UNL     1       3.969  -6.202  56.268  1.00  0.00     0.198 C 
BRANCH  21  22
HETATM   22  O6  UNL     1       5.229  -6.404  56.911  1.00  0.00    -0.398 OA
HETATM   23  H   UNL     1       5.892  -5.817  56.514  1.00  0.00     0.209 HD
ENDBRANCH  21  22
ENDBRANCH  18  21
ENDBRANCH  15  18
ENDBRANCH   1  15
TORSDOF 11
ENDMDL
