MODEL 1
REMARK VINA RESULT:      -6.5      0.000      0.000
REMARK  11 active torsions:
REMARK  status: ('A' for Active; 'I' for Inactive)
REMARK    1  A    between atoms: C1_1  and  C2_2 
REMARK    2  A    between atoms: C1_1  and  C10_13 
REMARK    3  A    between atoms: C2_2  and  C3_3 
REMARK    4  A    between atoms: C3_3  and  C4_4 
REMARK    5  A    between atoms: C6_6  and  O1_7 
REMARK    6  A    between atoms: C7_8  and  O2_9 
REMARK    7  A    between atoms: C10_13  and  O4_14 
REMARK    8  A    between atoms: C10_13  and  C11_15 
REMARK    9  A    between atoms: C11_15  and  O5_16 
REMARK   10  A    between atoms: C11_15  and  C12_17 
REMARK   11  A    between atoms: C12_17  and  O6_18 
ROOT
HETATM    1  C1  UNL     1       6.328  -3.922  59.194  1.00  0.00     0.158 C 
HETATM    2  O3  UNL     1       5.796  -4.899  59.730  1.00  0.00    -0.295 OA
ENDROOT
BRANCH   1   3
HETATM    3  C2  UNL     1       5.486  -2.880  58.479  1.00  0.00     0.086 C 
BRANCH   3   4
HETATM    4  C3  UNL     1       5.147  -3.252  57.038  1.00  0.00     0.046 C 
BRANCH   4   5
HETATM    5  C4  UNL     1       5.314  -2.112  56.060  1.00  0.00    -0.055 A 
HETATM    6  C5  UNL     1       4.909  -2.249  54.722  1.00  0.00     0.046 A 
HETATM    7  C6  UNL     1       5.083  -1.188  53.839  1.00  0.00     0.099 A 
HETATM    8  C7  UNL     1       5.650   0.005  54.274  1.00  0.00     0.098 A 
HETATM    9  C8  UNL     1       6.052   0.160  55.590  1.00  0.00     0.040 A 
HETATM   10  C9  UNL     1       5.882  -0.897  56.484  1.00  0.00     0.010 A 
BRANCH   7  11
HETATM   11  O1  UNL     1       4.711  -1.274  52.526  1.00  0.00    -0.358 OA
HETATM   12  H   UNL     1       5.345  -1.496  51.872  1.00  0.00     0.217 HD
ENDBRANCH   7  11
BRANCH   8  13
HETATM   13  O2  UNL     1       5.817   1.040  53.398  1.00  0.00    -0.358 OA
HETATM   14  H   UNL     1       5.271   1.105  52.639  1.00  0.00     0.217 HD
ENDBRANCH   8  13
ENDBRANCH   4   5
ENDBRANCH   3   4
ENDBRANCH   1   3
BRANCH   1  15
HETATM   15  C10 UNL     1       7.838  -3.688  59.273  1.00  0.00     0.218 C 
BRANCH  15  16
HETATM   16  O4  UNL     1       8.107  -2.366  58.804  1.00  0.00    -0.385 OA
HETATM   17  H   UNL     1       7.633  -2.216  57.971  1.00  0.00     0.210 HD
ENDBRANCH  15  16
BRANCH  15  18
HETATM   18  C11 UNL     1       8.362  -3.891  60.710  1.00  0.00     0.177 C 
BRANCH  18  19
HETATM   19  O5  UNL     1       7.302  -3.775  61.674  1.00  0.00    -0.390 OA
HETATM   20  H   UNL     1       6.459  -3.646  61.213  1.00  0.00     0.210 HD
ENDBRANCH  18  19
BRANCH  18  21
HETATM   21  C12 UNL     1       8.967  -5.289  60.891  1.00  0.00     0.198 C 
BRANCH  21  22
HETATM   22  O6  UNL     1       7.962  -6.197  61.347  1.00  0.00    -0.398 OA
HETATM   23  H   UNL     1       8.300  -7.105  61.298  1.00  0.00     0.209 HD
ENDBRANCH  21  22
ENDBRANCH  18  21
ENDBRANCH  15  18
ENDBRANCH   1  15
TORSDOF 11
ENDMDL
MODEL 2
REMARK VINA RESULT:      -6.5      1.804      6.782
REMARK  11 active torsions:
REMARK  status: ('A' for Active; 'I' for Inactive)
REMARK    1  A    between atoms: C1_1  and  C2_2 
REMARK    2  A    between atoms: C1_1  and  C10_13 
REMARK    3  A    between atoms: C2_2  and  C3_3 
REMARK    4  A    between atoms: C3_3  and  C4_4 
REMARK    5  A    between atoms: C6_6  and  O1_7 
REMARK    6  A    between atoms: C7_8  and  O2_9 
REMARK    7  A    between atoms: C10_13  and  O4_14 
REMARK    8  A    between atoms: C10_13  and  C11_15 
REMARK    9  A    between atoms: C11_15  and  O5_16 
REMARK   10  A    between atoms: C11_15  and  C12_17 
REMARK   11  A    between atoms: C12_17  and  O6_18 
ROOT
HETATM    1  C1  UNL     1       4.609  -2.374  53.500  1.00  0.00     0.158 C 
HETATM    2  O3  UNL     1       3.395  -2.149  53.473  1.00  0.00    -0.295 OA
ENDROOT
BRANCH   1   3
HETATM    3  C2  UNL     1       5.180  -3.419  54.441  1.00  0.00     0.086 C 
BRANCH   3   4
HETATM    4  C3  UNL     1       4.587  -3.368  55.846  1.00  0.00     0.046 C 
BRANCH   4   5
HETATM    5  C4  UNL     1       5.623  -3.267  56.941  1.00  0.00    -0.055 A 
HETATM    6  C5  UNL     1       6.521  -2.187  56.982  1.00  0.00     0.046 A 
HETATM    7  C6  UNL     1       7.473  -2.122  57.994  1.00  0.00     0.099 A 
HETATM    8  C7  UNL     1       7.537  -3.115  58.967  1.00  0.00     0.098 A 
HETATM    9  C8  UNL     1       6.657  -4.185  58.945  1.00  0.00     0.040 A 
HETATM   10  C9  UNL     1       5.698  -4.260  57.934  1.00  0.00     0.010 A 
BRANCH   7  11
HETATM   11  O1  UNL     1       8.373  -1.096  58.074  1.00  0.00    -0.358 OA
HETATM   12  H   UNL     1       9.116  -1.078  57.503  1.00  0.00     0.217 HD
ENDBRANCH   7  11
BRANCH   8  13
HETATM   13  O2  UNL     1       8.476  -3.042  59.956  1.00  0.00    -0.358 OA
HETATM   14  H   UNL     1       8.289  -2.574  60.746  1.00  0.00     0.217 HD
ENDBRANCH   8  13
ENDBRANCH   4   5
ENDBRANCH   3   4
ENDBRANCH   1   3
BRANCH   1  15
HETATM   15  C10 UNL     1       5.577  -1.657  52.556  1.00  0.00     0.218 C 
BRANCH  15  16
HETATM   16  O4  UNL     1       4.812  -0.826  51.683  1.00  0.00    -0.385 OA
HETATM   17  H   UNL     1       5.311  -0.667  50.867  1.00  0.00     0.210 HD
ENDBRANCH  15  16
BRANCH  15  18
HETATM   18  C11 UNL     1       6.620  -0.836  53.343  1.00  0.00     0.177 C 
BRANCH  18  19
HETATM   19  O5  UNL     1       7.554  -0.194  52.460  1.00  0.00    -0.390 OA
HETATM   20  H   UNL     1       7.167  -0.127  51.573  1.00  0.00     0.210 HD
ENDBRANCH  18  19
BRANCH  18  21
HETATM   21  C12 UNL     1       5.953   0.278  54.160  1.00  0.00     0.198 C 
BRANCH  21  22
HETATM   22  O6  UNL     1       5.777   1.438  53.344  1.00  0.00    -0.398 OA
HETATM   23  H   UNL     1       5.489   2.181  53.897  1.00  0.00     0.209 HD
ENDBRANCH  21  22
ENDBRANCH  18  21
ENDBRANCH  15  18
ENDBRANCH   1  15
TORSDOF 11
ENDMDL
MODEL 3
REMARK VINA RESULT:      -6.4      1.864      7.069
REMARK  11 active torsions:
REMARK  status: ('A' for Active; 'I' for Inactive)
REMARK    1  A    between atoms: C1_1  and  C2_2 
REMARK    2  A    between atoms: C1_1  and  C10_13 
REMARK    3  A    between atoms: C2_2  and  C3_3 
REMARK    4  A    between atoms: C3_3  and  C4_4 
REMARK    5  A    between atoms: C6_6  and  O1_7 
REMARK    6  A    between atoms: C7_8  and  O2_9 
REMARK    7  A    between atoms: C10_13  and  O4_14 
REMARK    8  A    between atoms: C10_13  and  C11_15 
REMARK    9  A    between atoms: C11_15  and  O5_16 
REMARK   10  A    between atoms: C11_15  and  C12_17 
REMARK   11  A    between atoms: C12_17  and  O6_18 
ROOT
HETATM    1  C1  UNL     1       7.269  -2.151  54.137  1.00  0.00     0.158 C 
HETATM    2  O3  UNL     1       8.481  -2.016  53.947  1.00  0.00    -0.295 OA
ENDROOT
BRANCH   1   3
HETATM    3  C2  UNL     1       6.675  -3.526  54.392  1.00  0.00     0.086 C 
BRANCH   3   4
HETATM    4  C3  UNL     1       5.479  -3.510  55.341  1.00  0.00     0.046 C 
BRANCH   4   5
HETATM    5  C4  UNL     1       5.845  -3.761  56.785  1.00  0.00    -0.055 A 
HETATM    6  C5  UNL     1       6.940  -3.107  57.372  1.00  0.00     0.046 A 
HETATM    7  C6  UNL     1       7.263  -3.364  58.700  1.00  0.00     0.099 A 
HETATM    8  C7  UNL     1       6.505  -4.258  59.450  1.00  0.00     0.098 A 
HETATM    9  C8  UNL     1       5.418  -4.908  58.890  1.00  0.00     0.040 A 
HETATM   10  C9  UNL     1       5.086  -4.658  57.558  1.00  0.00     0.010 A 
BRANCH   7  11
HETATM   11  O1  UNL     1       8.324  -2.758  59.316  1.00  0.00    -0.358 OA
HETATM   12  H   UNL     1       9.111  -2.590  58.836  1.00  0.00     0.217 HD
ENDBRANCH   7  11
BRANCH   8  13
HETATM   13  O2  UNL     1       6.831  -4.502  60.754  1.00  0.00    -0.358 OA
HETATM   14  H   UNL     1       6.714  -5.360  61.113  1.00  0.00     0.217 HD
ENDBRANCH   8  13
ENDBRANCH   4   5
ENDBRANCH   3   4
ENDBRANCH   1   3
BRANCH   1  15
HETATM   15  C10 UNL     1       6.325  -0.947  54.179  1.00  0.00     0.218 C 
BRANCH  15  16
HETATM   16  O4  UNL     1       6.876   0.017  55.076  1.00  0.00    -0.385 OA
HETATM   17  H   UNL     1       6.620  -0.203  55.986  1.00  0.00     0.210 HD
ENDBRANCH  15  16
BRANCH  15  18
HETATM   18  C11 UNL     1       6.117  -0.350  52.772  1.00  0.00     0.177 C 
BRANCH  18  19
HETATM   19  O5  UNL     1       7.372  -0.078  52.128  1.00  0.00    -0.390 OA
HETATM   20  H   UNL     1       7.555   0.874  52.166  1.00  0.00     0.210 HD
ENDBRANCH  18  19
BRANCH  18  21
HETATM   21  C12 UNL     1       5.359  -1.323  51.859  1.00  0.00     0.198 C 
BRANCH  21  22
HETATM   22  O6  UNL     1       4.658  -0.593  50.850  1.00  0.00    -0.398 OA
HETATM   23  H   UNL     1       3.921  -1.129  50.516  1.00  0.00     0.209 HD
ENDBRANCH  21  22
ENDBRANCH  18  21
ENDBRANCH  15  18
ENDBRANCH   1  15
TORSDOF 11
ENDMDL
MODEL 4
REMARK VINA RESULT:      -6.4      2.604      6.790
REMARK  11 active torsions:
REMARK  status: ('A' for Active; 'I' for Inactive)
REMARK    1  A    between atoms: C1_1  and  C2_2 
REMARK    2  A    between atoms: C1_1  and  C10_13 
REMARK    3  A    between atoms: C2_2  and  C3_3 
REMARK    4  A    between atoms: C3_3  and  C4_4 
REMARK    5  A    between atoms: C6_6  and  O1_7 
REMARK    6  A    between atoms: C7_8  and  O2_9 
REMARK    7  A    between atoms: C10_13  and  O4_14 
REMARK    8  A    between atoms: C10_13  and  C11_15 
REMARK    9  A    between atoms: C11_15  and  O5_16 
REMARK   10  A    between atoms: C11_15  and  C12_17 
REMARK   11  A    between atoms: C12_17  and  O6_18 
ROOT
HETATM    1  C1  UNL     1       6.221  -0.776  57.177  1.00  0.00     0.158 C 
HETATM    2  O3  UNL     1       7.178  -0.491  57.903  1.00  0.00    -0.295 OA
ENDROOT
BRANCH   1   3
HETATM    3  C2  UNL     1       5.335  -1.966  57.499  1.00  0.00     0.086 C 
BRANCH   3   4
HETATM    4  C3  UNL     1       6.027  -3.313  57.308  1.00  0.00     0.046 C 
BRANCH   4   5
HETATM    5  C4  UNL     1       5.097  -4.497  57.432  1.00  0.00    -0.055 A 
HETATM    6  C5  UNL     1       4.874  -5.107  58.678  1.00  0.00     0.046 A 
HETATM    7  C6  UNL     1       4.021  -6.203  58.764  1.00  0.00     0.099 A 
HETATM    8  C7  UNL     1       3.385  -6.693  57.628  1.00  0.00     0.098 A 
HETATM    9  C8  UNL     1       3.588  -6.101  56.392  1.00  0.00     0.040 A 
HETATM   10  C9  UNL     1       4.443  -5.002  56.295  1.00  0.00     0.010 A 
BRANCH   7  11
HETATM   11  O1  UNL     1       3.776  -6.836  59.952  1.00  0.00    -0.358 OA
HETATM   12  H   UNL     1       4.488  -7.186  60.452  1.00  0.00     0.217 HD
ENDBRANCH   7  11
BRANCH   8  13
HETATM   13  O2  UNL     1       2.550  -7.769  57.725  1.00  0.00    -0.358 OA
HETATM   14  H   UNL     1       2.368  -8.148  58.562  1.00  0.00     0.217 HD
ENDBRANCH   8  13
ENDBRANCH   4   5
ENDBRANCH   3   4
ENDBRANCH   1   3
BRANCH   1  15
HETATM   15  C10 UNL     1       5.854   0.080  55.963  1.00  0.00     0.218 C 
BRANCH  15  16
HETATM   16  O4  UNL     1       6.938   0.975  55.708  1.00  0.00    -0.385 OA
HETATM   17  H   UNL     1       6.886   1.728  56.318  1.00  0.00     0.210 HD
ENDBRANCH  15  16
BRANCH  15  18
HETATM   18  C11 UNL     1       5.549  -0.798  54.731  1.00  0.00     0.177 C 
BRANCH  18  19
HETATM   19  O5  UNL     1       4.157  -0.738  54.379  1.00  0.00    -0.390 OA
HETATM   20  H   UNL     1       3.663  -0.298  55.088  1.00  0.00     0.210 HD
ENDBRANCH  18  19
BRANCH  18  21
HETATM   21  C12 UNL     1       6.332  -0.325  53.500  1.00  0.00     0.198 C 
BRANCH  21  22
HETATM   22  O6  UNL     1       5.889   0.978  53.115  1.00  0.00    -0.398 OA
HETATM   23  H   UNL     1       4.971   1.105  53.402  1.00  0.00     0.209 HD
ENDBRANCH  21  22
ENDBRANCH  18  21
ENDBRANCH  15  18
ENDBRANCH   1  15
TORSDOF 11
ENDMDL
MODEL 5
REMARK VINA RESULT:      -6.4      1.411      7.060
REMARK  11 active torsions:
REMARK  status: ('A' for Active; 'I' for Inactive)
REMARK    1  A    between atoms: C1_1  and  C2_2 
REMARK    2  A    between atoms: C1_1  and  C10_13 
REMARK    3  A    between atoms: C2_2  and  C3_3 
REMARK    4  A    between atoms: C3_3  and  C4_4 
REMARK    5  A    between atoms: C6_6  and  O1_7 
REMARK    6  A    between atoms: C7_8  and  O2_9 
REMARK    7  A    between atoms: C10_13  and  O4_14 
REMARK    8  A    between atoms: C10_13  and  C11_15 
REMARK    9  A    between atoms: C11_15  and  O5_16 
REMARK   10  A    between atoms: C11_15  and  C12_17 
REMARK   11  A    between atoms: C12_17  and  O6_18 
ROOT
HETATM    1  C1  UNL     1       5.136  -0.354  55.423  1.00  0.00     0.158 C 
HETATM    2  O3  UNL     1       4.702   0.800  55.489  1.00  0.00    -0.295 OA
ENDROOT
BRANCH   1   3
HETATM    3  C2  UNL     1       5.719  -1.032  56.650  1.00  0.00     0.086 C 
BRANCH   3   4
HETATM    4  C3  UNL     1       5.932  -2.534  56.477  1.00  0.00     0.046 C 
BRANCH   4   5
HETATM    5  C4  UNL     1       6.423  -3.227  57.726  1.00  0.00    -0.055 A 
HETATM    6  C5  UNL     1       5.699  -4.292  58.287  1.00  0.00     0.046 A 
HETATM    7  C6  UNL     1       6.166  -4.907  59.444  1.00  0.00     0.099 A 
HETATM    8  C7  UNL     1       7.346  -4.479  60.043  1.00  0.00     0.098 A 
HETATM    9  C8  UNL     1       8.076  -3.433  59.502  1.00  0.00     0.040 A 
HETATM   10  C9  UNL     1       7.616  -2.809  58.342  1.00  0.00     0.010 A 
BRANCH   7  11
HETATM   11  O1  UNL     1       5.495  -5.944  60.033  1.00  0.00    -0.358 OA
HETATM   12  H   UNL     1       4.872  -5.773  60.712  1.00  0.00     0.217 HD
ENDBRANCH   7  11
BRANCH   8  13
HETATM   13  O2  UNL     1       7.795  -5.089  61.179  1.00  0.00    -0.358 OA
HETATM   14  H   UNL     1       7.682  -4.673  62.011  1.00  0.00     0.217 HD
ENDBRANCH   8  13
ENDBRANCH   4   5
ENDBRANCH   3   4
ENDBRANCH   1   3
BRANCH   1  15
HETATM   15  C10 UNL     1       5.057  -1.167  54.128  1.00  0.00     0.218 C 
BRANCH  15  16
HETATM   16  O4  UNL     1       3.687  -1.232  53.729  1.00  0.00    -0.385 OA
HETATM   17  H   UNL     1       3.317  -2.091  53.984  1.00  0.00     0.210 HD
ENDBRANCH  15  16
BRANCH  15  18
HETATM   18  C11 UNL     1       5.935  -0.545  53.023  1.00  0.00     0.177 C 
BRANCH  18  19
HETATM   19  O5  UNL     1       5.882   0.891  53.059  1.00  0.00    -0.390 OA
HETATM   20  H   UNL     1       5.057   1.194  52.648  1.00  0.00     0.210 HD
ENDBRANCH  18  19
BRANCH  18  21
HETATM   21  C12 UNL     1       7.409  -0.933  53.196  1.00  0.00     0.198 C 
BRANCH  21  22
HETATM   22  O6  UNL     1       8.217  -0.182  52.288  1.00  0.00    -0.398 OA
HETATM   23  H   UNL     1       8.662  -0.788  51.674  1.00  0.00     0.209 HD
ENDBRANCH  21  22
ENDBRANCH  18  21
ENDBRANCH  15  18
ENDBRANCH   1  15
TORSDOF 11
ENDMDL
MODEL 6
REMARK VINA RESULT:      -6.4      1.705      7.012
REMARK  11 active torsions:
REMARK  status: ('A' for Active; 'I' for Inactive)
REMARK    1  A    between atoms: C1_1  and  C2_2 
REMARK    2  A    between atoms: C1_1  and  C10_13 
REMARK    3  A    between atoms: C2_2  and  C3_3 
REMARK    4  A    between atoms: C3_3  and  C4_4 
REMARK    5  A    between atoms: C6_6  and  O1_7 
REMARK    6  A    between atoms: C7_8  and  O2_9 
REMARK    7  A    between atoms: C10_13  and  O4_14 
REMARK    8  A    between atoms: C10_13  and  C11_15 
REMARK    9  A    between atoms: C11_15  and  O5_16 
REMARK   10  A    between atoms: C11_15  and  C12_17 
REMARK   11  A    between atoms: C12_17  and  O6_18 
ROOT
HETATM    1  C1  UNL     1       5.276  -0.153  55.430  1.00  0.00     0.158 C 
HETATM    2  O3  UNL     1       4.657   0.913  55.499  1.00  0.00    -0.295 OA
ENDROOT
BRANCH   1   3
HETATM    3  C2  UNL     1       6.150  -0.616  56.583  1.00  0.00     0.086 C 
BRANCH   3   4
HETATM    4  C3  UNL     1       6.801  -1.976  56.350  1.00  0.00     0.046 C 
BRANCH   4   5
HETATM    5  C4  UNL     1       6.216  -3.084  57.194  1.00  0.00    -0.055 A 
HETATM    6  C5  UNL     1       6.686  -3.318  58.497  1.00  0.00     0.046 A 
HETATM    7  C6  UNL     1       6.138  -4.350  59.251  1.00  0.00     0.099 A 
HETATM    8  C7  UNL     1       5.125  -5.146  58.725  1.00  0.00     0.098 A 
HETATM    9  C8  UNL     1       4.645  -4.928  57.444  1.00  0.00     0.040 A 
HETATM   10  C9  UNL     1       5.189  -3.895  56.679  1.00  0.00     0.010 A 
BRANCH   7  11
HETATM   11  O1  UNL     1       6.565  -4.623  60.521  1.00  0.00    -0.358 OA
HETATM   12  H   UNL     1       6.623  -5.511  60.816  1.00  0.00     0.217 HD
ENDBRANCH   7  11
BRANCH   8  13
HETATM   13  O2  UNL     1       4.594  -6.158  59.474  1.00  0.00    -0.358 OA
HETATM   14  H   UNL     1       4.145  -5.963  60.272  1.00  0.00     0.217 HD
ENDBRANCH   8  13
ENDBRANCH   4   5
ENDBRANCH   3   4
ENDBRANCH   1   3
BRANCH   1  15
HETATM   15  C10 UNL     1       5.151  -1.075  54.215  1.00  0.00     0.218 C 
BRANCH  15  16
HETATM   16  O4  UNL     1       3.762  -1.283  53.958  1.00  0.00    -0.385 OA
HETATM   17  H   UNL     1       3.632  -1.475  53.016  1.00  0.00     0.210 HD
ENDBRANCH  15  16
BRANCH  15  18
HETATM   18  C11 UNL     1       5.866  -0.479  52.984  1.00  0.00     0.177 C 
BRANCH  18  19
HETATM   19  O5  UNL     1       5.862   0.957  53.021  1.00  0.00    -0.390 OA
HETATM   20  H   UNL     1       5.570   1.257  53.896  1.00  0.00     0.210 HD
ENDBRANCH  18  19
BRANCH  18  21
HETATM   21  C12 UNL     1       7.338  -0.911  52.930  1.00  0.00     0.198 C 
BRANCH  21  22
HETATM   22  O6  UNL     1       8.027  -0.157  51.931  1.00  0.00    -0.398 OA
HETATM   23  H   UNL     1       8.821  -0.640  51.652  1.00  0.00     0.209 HD
ENDBRANCH  21  22
ENDBRANCH  18  21
ENDBRANCH  15  18
ENDBRANCH   1  15
TORSDOF 11
ENDMDL
MODEL 7
REMARK VINA RESULT:      -6.4      1.628      6.878
REMARK  11 active torsions:
REMARK  status: ('A' for Active; 'I' for Inactive)
REMARK    1  A    between atoms: C1_1  and  C2_2 
REMARK    2  A    between atoms: C1_1  and  C10_13 
REMARK    3  A    between atoms: C2_2  and  C3_3 
REMARK    4  A    between atoms: C3_3  and  C4_4 
REMARK    5  A    between atoms: C6_6  and  O1_7 
REMARK    6  A    between atoms: C7_8  and  O2_9 
REMARK    7  A    between atoms: C10_13  and  O4_14 
REMARK    8  A    between atoms: C10_13  and  C11_15 
REMARK    9  A    between atoms: C11_15  and  O5_16 
REMARK   10  A    between atoms: C11_15  and  C12_17 
REMARK   11  A    between atoms: C12_17  and  O6_18 
ROOT
HETATM    1  C1  UNL     1       4.854  -2.567  53.346  1.00  0.00     0.158 C 
HETATM    2  O3  UNL     1       3.628  -2.429  53.409  1.00  0.00    -0.295 OA
ENDROOT
BRANCH   1   3
HETATM    3  C2  UNL     1       5.548  -3.670  54.125  1.00  0.00     0.086 C 
BRANCH   3   4
HETATM    4  C3  UNL     1       4.924  -3.940  55.491  1.00  0.00     0.046 C 
BRANCH   4   5
HETATM    5  C4  UNL     1       5.868  -3.710  56.648  1.00  0.00    -0.055 A 
HETATM    6  C5  UNL     1       5.617  -4.285  57.904  1.00  0.00     0.046 A 
HETATM    7  C6  UNL     1       6.496  -4.050  58.957  1.00  0.00     0.099 A 
HETATM    8  C7  UNL     1       7.623  -3.257  58.770  1.00  0.00     0.098 A 
HETATM    9  C8  UNL     1       7.890  -2.685  57.536  1.00  0.00     0.040 A 
HETATM   10  C9  UNL     1       7.014  -2.914  56.475  1.00  0.00     0.010 A 
BRANCH   7  11
HETATM   11  O1  UNL     1       6.292  -4.582  60.201  1.00  0.00    -0.358 OA
HETATM   12  H   UNL     1       6.892  -5.216  60.543  1.00  0.00     0.217 HD
ENDBRANCH   7  11
BRANCH   8  13
HETATM   13  O2  UNL     1       8.480  -3.032  59.809  1.00  0.00    -0.358 OA
HETATM   14  H   UNL     1       9.404  -3.003  59.657  1.00  0.00     0.217 HD
ENDBRANCH   8  13
ENDBRANCH   4   5
ENDBRANCH   3   4
ENDBRANCH   1   3
BRANCH   1  15
HETATM   15  C10 UNL     1       5.715  -1.677  52.446  1.00  0.00     0.218 C 
BRANCH  15  16
HETATM   16  O4  UNL     1       4.845  -0.810  51.717  1.00  0.00    -0.385 OA
HETATM   17  H   UNL     1       5.268  -0.556  50.882  1.00  0.00     0.210 HD
ENDBRANCH  15  16
BRANCH  15  18
HETATM   18  C11 UNL     1       6.744  -0.877  53.271  1.00  0.00     0.177 C 
BRANCH  18  19
HETATM   19  O5  UNL     1       7.661  -0.170  52.420  1.00  0.00    -0.390 OA
HETATM   20  H   UNL     1       7.271   0.680  52.162  1.00  0.00     0.210 HD
ENDBRANCH  18  19
BRANCH  18  21
HETATM   21  C12 UNL     1       6.058   0.178  54.148  1.00  0.00     0.198 C 
BRANCH  21  22
HETATM   22  O6  UNL     1       5.815   1.360  53.382  1.00  0.00    -0.398 OA
HETATM   23  H   UNL     1       5.531   1.113  52.488  1.00  0.00     0.209 HD
ENDBRANCH  21  22
ENDBRANCH  18  21
ENDBRANCH  15  18
ENDBRANCH   1  15
TORSDOF 11
ENDMDL
MODEL 8
REMARK VINA RESULT:      -6.4      2.099      7.750
REMARK  11 active torsions:
REMARK  status: ('A' for Active; 'I' for Inactive)
REMARK    1  A    between atoms: C1_1  and  C2_2 
REMARK    2  A    between atoms: C1_1  and  C10_13 
REMARK    3  A    between atoms: C2_2  and  C3_3 
REMARK    4  A    between atoms: C3_3  and  C4_4 
REMARK    5  A    between atoms: C6_6  and  O1_7 
REMARK    6  A    between atoms: C7_8  and  O2_9 
REMARK    7  A    between atoms: C10_13  and  O4_14 
REMARK    8  A    between atoms: C10_13  and  C11_15 
REMARK    9  A    between atoms: C11_15  and  O5_16 
REMARK   10  A    between atoms: C11_15  and  C12_17 
REMARK   11  A    between atoms: C12_17  and  O6_18 
ROOT
HETATM    1  C1  UNL     1       5.705  -1.284  53.538  1.00  0.00     0.158 C 
HETATM    2  O3  UNL     1       4.670  -1.956  53.589  1.00  0.00    -0.295 OA
ENDROOT
BRANCH   1   3
HETATM    3  C2  UNL     1       6.659  -1.243  54.718  1.00  0.00     0.086 C 
BRANCH   3   4
HETATM    4  C3  UNL     1       7.290  -2.595  55.043  1.00  0.00     0.046 C 
BRANCH   4   5
HETATM    5  C4  UNL     1       7.019  -3.069  56.451  1.00  0.00    -0.055 A 
HETATM    6  C5  UNL     1       7.936  -2.813  57.484  1.00  0.00     0.046 A 
HETATM    7  C6  UNL     1       7.669  -3.270  58.770  1.00  0.00     0.099 A 
HETATM    8  C7  UNL     1       6.499  -3.972  59.041  1.00  0.00     0.098 A 
HETATM    9  C8  UNL     1       5.580  -4.230  58.037  1.00  0.00     0.040 A 
HETATM   10  C9  UNL     1       5.839  -3.777  56.742  1.00  0.00     0.010 A 
BRANCH   7  11
HETATM   11  O1  UNL     1       8.533  -3.052  59.808  1.00  0.00    -0.358 OA
HETATM   12  H   UNL     1       9.449  -2.947  59.641  1.00  0.00     0.217 HD
ENDBRANCH   7  11
BRANCH   8  13
HETATM   13  O2  UNL     1       6.247  -4.416  60.307  1.00  0.00    -0.358 OA
HETATM   14  H   UNL     1       5.914  -5.281  60.443  1.00  0.00     0.217 HD
ENDBRANCH   8  13
ENDBRANCH   4   5
ENDBRANCH   3   4
ENDBRANCH   1   3
BRANCH   1  15
HETATM   15  C10 UNL     1       6.098  -0.513  52.275  1.00  0.00     0.218 C 
BRANCH  15  16
HETATM   16  O4  UNL     1       7.517  -0.361  52.273  1.00  0.00    -0.385 OA
HETATM   17  H   UNL     1       7.780   0.207  51.532  1.00  0.00     0.210 HD
ENDBRANCH  15  16
BRANCH  15  18
HETATM   18  C11 UNL     1       5.608  -1.236  51.003  1.00  0.00     0.177 C 
BRANCH  18  19
HETATM   19  O5  UNL     1       4.278  -0.827  50.648  1.00  0.00    -0.390 OA
HETATM   20  H   UNL     1       3.656  -1.120  51.333  1.00  0.00     0.210 HD
ENDBRANCH  18  19
BRANCH  18  21
HETATM   21  C12 UNL     1       6.502  -0.914  49.799  1.00  0.00     0.198 C 
BRANCH  21  22
HETATM   22  O6  UNL     1       6.633   0.502  49.658  1.00  0.00    -0.398 OA
HETATM   23  H   UNL     1       6.648   0.734  48.716  1.00  0.00     0.209 HD
ENDBRANCH  21  22
ENDBRANCH  18  21
ENDBRANCH  15  18
ENDBRANCH   1  15
TORSDOF 11
ENDMDL
MODEL 9
REMARK VINA RESULT:      -6.4      1.583      6.497
REMARK  11 active torsions:
REMARK  status: ('A' for Active; 'I' for Inactive)
REMARK    1  A    between atoms: C1_1  and  C2_2 
REMARK    2  A    between atoms: C1_1  and  C10_13 
REMARK    3  A    between atoms: C2_2  and  C3_3 
REMARK    4  A    between atoms: C3_3  and  C4_4 
REMARK    5  A    between atoms: C6_6  and  O1_7 
REMARK    6  A    between atoms: C7_8  and  O2_9 
REMARK    7  A    between atoms: C10_13  and  O4_14 
REMARK    8  A    between atoms: C10_13  and  C11_15 
REMARK    9  A    between atoms: C11_15  and  O5_16 
REMARK   10  A    between atoms: C11_15  and  C12_17 
REMARK   11  A    between atoms: C12_17  and  O6_18 
ROOT
HETATM    1  C1  UNL     1       6.237  -2.123  53.554  1.00  0.00     0.158 C 
HETATM    2  O3  UNL     1       5.651  -2.352  52.491  1.00  0.00    -0.295 OA
ENDROOT
BRANCH   1   3
HETATM    3  C2  UNL     1       6.639  -3.261  54.475  1.00  0.00     0.086 C 
BRANCH   3   4
HETATM    4  C3  UNL     1       5.498  -3.773  55.350  1.00  0.00     0.046 C 
BRANCH   4   5
HETATM    5  C4  UNL     1       5.862  -3.904  56.810  1.00  0.00    -0.055 A 
HETATM    6  C5  UNL     1       6.951  -3.196  57.344  1.00  0.00     0.046 A 
HETATM    7  C6  UNL     1       7.273  -3.342  58.690  1.00  0.00     0.099 A 
HETATM    8  C7  UNL     1       6.521  -4.178  59.508  1.00  0.00     0.098 A 
HETATM    9  C8  UNL     1       5.440  -4.880  59.001  1.00  0.00     0.040 A 
HETATM   10  C9  UNL     1       5.109  -4.742  57.652  1.00  0.00     0.010 A 
BRANCH   7  11
HETATM   11  O1  UNL     1       8.328  -2.679  59.256  1.00  0.00    -0.358 OA
HETATM   12  H   UNL     1       8.888  -3.122  59.863  1.00  0.00     0.217 HD
ENDBRANCH   7  11
BRANCH   8  13
HETATM   13  O2  UNL     1       6.846  -4.313  60.828  1.00  0.00    -0.358 OA
HETATM   14  H   UNL     1       6.742  -5.142  61.253  1.00  0.00     0.217 HD
ENDBRANCH   8  13
ENDBRANCH   4   5
ENDBRANCH   3   4
ENDBRANCH   1   3
BRANCH   1  15
HETATM   15  C10 UNL     1       6.629  -0.701  53.962  1.00  0.00     0.218 C 
BRANCH  15  16
HETATM   16  O4  UNL     1       7.198  -0.055  52.822  1.00  0.00    -0.385 OA
HETATM   17  H   UNL     1       6.951   0.884  52.827  1.00  0.00     0.210 HD
ENDBRANCH  15  16
BRANCH  15  18
HETATM   18  C11 UNL     1       5.415   0.081  54.504  1.00  0.00     0.177 C 
BRANCH  18  19
HETATM   19  O5  UNL     1       4.188  -0.630  54.269  1.00  0.00    -0.390 OA
HETATM   20  H   UNL     1       4.324  -1.574  54.442  1.00  0.00     0.210 HD
ENDBRANCH  18  19
BRANCH  18  21
HETATM   21  C12 UNL     1       5.517   0.290  56.021  1.00  0.00     0.198 C 
BRANCH  21  22
HETATM   22  O6  UNL     1       6.885   0.213  56.428  1.00  0.00    -0.398 OA
HETATM   23  H   UNL     1       7.339   1.038  56.194  1.00  0.00     0.209 HD
ENDBRANCH  21  22
ENDBRANCH  18  21
ENDBRANCH  15  18
ENDBRANCH   1  15
TORSDOF 11
ENDMDL
