MODEL 1
REMARK VINA RESULT:      -6.7      0.000      0.000
REMARK  11 active torsions:
REMARK  status: ('A' for Active; 'I' for Inactive)
REMARK    1  A    between atoms: C1_1  and  C2_2 
REMARK    2  A    between atoms: C1_1  and  C10_13 
REMARK    3  A    between atoms: C2_2  and  C3_3 
REMARK    4  A    between atoms: C3_3  and  C4_4 
REMARK    5  A    between atoms: C6_6  and  O1_7 
REMARK    6  A    between atoms: C7_8  and  O2_9 
REMARK    7  A    between atoms: C10_13  and  O4_14 
REMARK    8  A    between atoms: C10_13  and  C11_15 
REMARK    9  A    between atoms: C11_15  and  O5_16 
REMARK   10  A    between atoms: C11_15  and  C12_17 
REMARK   11  A    between atoms: C12_17  and  O6_18 
ROOT
HETATM    1  C1  UNL     1       3.493  -9.822  56.759  1.00  0.00     0.158 C 
HETATM    2  O3  UNL     1       3.039 -10.967  56.845  1.00  0.00    -0.295 OA
ENDROOT
BRANCH   1   3
HETATM    3  C2  UNL     1       2.591  -8.660  56.385  1.00  0.00     0.086 C 
BRANCH   3   4
HETATM    4  C3  UNL     1       2.437  -8.465  54.879  1.00  0.00     0.046 C 
BRANCH   4   5
HETATM    5  C4  UNL     1       2.997  -7.156  54.374  1.00  0.00    -0.055 A 
HETATM    6  C5  UNL     1       3.539  -7.059  53.081  1.00  0.00     0.046 A 
HETATM    7  C6  UNL     1       4.059  -5.845  52.644  1.00  0.00     0.099 A 
HETATM    8  C7  UNL     1       4.040  -4.729  53.474  1.00  0.00     0.098 A 
HETATM    9  C8  UNL     1       3.505  -4.805  54.750  1.00  0.00     0.040 A 
HETATM   10  C9  UNL     1       2.982  -6.018  55.199  1.00  0.00     0.010 A 
BRANCH   7  11
HETATM   11  O1  UNL     1       4.603  -5.700  51.397  1.00  0.00    -0.358 OA
HETATM   12  H   UNL     1       5.247  -5.036  51.241  1.00  0.00     0.217 HD
ENDBRANCH   7  11
BRANCH   8  13
HETATM   13  O2  UNL     1       4.553  -3.542  53.034  1.00  0.00    -0.358 OA
HETATM   14  H   UNL     1       4.465  -3.299  52.134  1.00  0.00     0.217 HD
ENDBRANCH   8  13
ENDBRANCH   4   5
ENDBRANCH   3   4
ENDBRANCH   1   3
BRANCH   1  15
HETATM   15  C10 UNL     1       4.959  -9.516  57.076  1.00  0.00     0.218 C 
BRANCH  15  16
HETATM   16  O4  UNL     1       5.126  -8.098  57.067  1.00  0.00    -0.385 OA
HETATM   17  H   UNL     1       4.256  -7.669  57.067  1.00  0.00     0.210 HD
ENDBRANCH  15  16
BRANCH  15  18
HETATM   18  C11 UNL     1       5.377 -10.123  58.431  1.00  0.00     0.177 C 
BRANCH  18  19
HETATM   19  O5  UNL     1       4.253 -10.251  59.316  1.00  0.00    -0.390 OA
HETATM   20  H   UNL     1       3.586 -10.826  58.910  1.00  0.00     0.210 HD
ENDBRANCH  18  19
BRANCH  18  21
HETATM   21  C12 UNL     1       5.959 -11.532  58.256  1.00  0.00     0.198 C 
BRANCH  21  22
HETATM   22  O6  UNL     1       4.978 -12.508  58.610  1.00  0.00    -0.398 OA
HETATM   23  H   UNL     1       5.420 -13.307  58.938  1.00  0.00     0.209 HD
ENDBRANCH  21  22
ENDBRANCH  18  21
ENDBRANCH  15  18
ENDBRANCH   1  15
TORSDOF 11
ENDMDL
MODEL 2
REMARK VINA RESULT:      -6.5      2.566      6.560
REMARK  11 active torsions:
REMARK  status: ('A' for Active; 'I' for Inactive)
REMARK    1  A    between atoms: C1_1  and  C2_2 
REMARK    2  A    between atoms: C1_1  and  C10_13 
REMARK    3  A    between atoms: C2_2  and  C3_3 
REMARK    4  A    between atoms: C3_3  and  C4_4 
REMARK    5  A    between atoms: C6_6  and  O1_7 
REMARK    6  A    between atoms: C7_8  and  O2_9 
REMARK    7  A    between atoms: C10_13  and  O4_14 
REMARK    8  A    between atoms: C10_13  and  C11_15 
REMARK    9  A    between atoms: C11_15  and  O5_16 
REMARK   10  A    between atoms: C11_15  and  C12_17 
REMARK   11  A    between atoms: C12_17  and  O6_18 
ROOT
HETATM    1  C1  UNL     1       3.938  -6.503  55.993  1.00  0.00     0.158 C 
HETATM    2  O3  UNL     1       4.768  -6.152  56.837  1.00  0.00    -0.295 OA
ENDROOT
BRANCH   1   3
HETATM    3  C2  UNL     1       3.466  -7.945  55.926  1.00  0.00     0.086 C 
BRANCH   3   4
HETATM    4  C3  UNL     1       3.483  -8.530  54.516  1.00  0.00     0.046 C 
BRANCH   4   5
HETATM    5  C4  UNL     1       2.550  -9.704  54.334  1.00  0.00    -0.055 A 
HETATM    6  C5  UNL     1       2.236 -10.546  55.414  1.00  0.00     0.046 A 
HETATM    7  C6  UNL     1       1.383 -11.627  55.218  1.00  0.00     0.099 A 
HETATM    8  C7  UNL     1       0.835 -11.874  53.963  1.00  0.00     0.098 A 
HETATM    9  C8  UNL     1       1.128 -11.052  52.888  1.00  0.00     0.040 A 
HETATM   10  C9  UNL     1       1.984  -9.966  53.073  1.00  0.00     0.010 A 
BRANCH   7  11
HETATM   11  O1  UNL     1       1.052 -12.479  56.235  1.00  0.00    -0.358 OA
HETATM   12  H   UNL     1       0.312 -12.293  56.780  1.00  0.00     0.217 HD
ENDBRANCH   7  11
BRANCH   8  13
HETATM   13  O2  UNL     1      -0.002 -12.938  53.782  1.00  0.00    -0.358 OA
HETATM   14  H   UNL     1      -0.913 -12.795  53.615  1.00  0.00     0.217 HD
ENDBRANCH   8  13
ENDBRANCH   4   5
ENDBRANCH   3   4
ENDBRANCH   1   3
BRANCH   1  15
HETATM   15  C10 UNL     1       3.310  -5.501  55.021  1.00  0.00     0.218 C 
BRANCH  15  16
HETATM   16  O4  UNL     1       2.699  -4.463  55.788  1.00  0.00    -0.385 OA
HETATM   17  H   UNL     1       3.358  -4.066  56.378  1.00  0.00     0.210 HD
ENDBRANCH  15  16
BRANCH  15  18
HETATM   18  C11 UNL     1       4.363  -4.934  54.046  1.00  0.00     0.177 C 
BRANCH  18  19
HETATM   19  O5  UNL     1       5.613  -5.632  54.162  1.00  0.00    -0.390 OA
HETATM   20  H   UNL     1       5.465  -6.583  54.044  1.00  0.00     0.210 HD
ENDBRANCH  18  19
BRANCH  18  21
HETATM   21  C12 UNL     1       3.912  -5.084  52.587  1.00  0.00     0.198 C 
BRANCH  21  22
HETATM   22  O6  UNL     1       4.311  -3.936  51.836  1.00  0.00    -0.398 OA
HETATM   23  H   UNL     1       4.769  -4.221  51.029  1.00  0.00     0.209 HD
ENDBRANCH  21  22
ENDBRANCH  18  21
ENDBRANCH  15  18
ENDBRANCH   1  15
TORSDOF 11
ENDMDL
MODEL 3
REMARK VINA RESULT:      -6.5      2.542      4.910
REMARK  11 active torsions:
REMARK  status: ('A' for Active; 'I' for Inactive)
REMARK    1  A    between atoms: C1_1  and  C2_2 
REMARK    2  A    between atoms: C1_1  and  C10_13 
REMARK    3  A    between atoms: C2_2  and  C3_3 
REMARK    4  A    between atoms: C3_3  and  C4_4 
REMARK    5  A    between atoms: C6_6  and  O1_7 
REMARK    6  A    between atoms: C7_8  and  O2_9 
REMARK    7  A    between atoms: C10_13  and  O4_14 
REMARK    8  A    between atoms: C10_13  and  C11_15 
REMARK    9  A    between atoms: C11_15  and  O5_16 
REMARK   10  A    between atoms: C11_15  and  C12_17 
REMARK   11  A    between atoms: C12_17  and  O6_18 
ROOT
HETATM    1  C1  UNL     1       4.539  -7.803  56.536  1.00  0.00     0.158 C 
HETATM    2  O3  UNL     1       5.016  -6.736  56.936  1.00  0.00    -0.295 OA
ENDROOT
BRANCH   1   3
HETATM    3  C2  UNL     1       3.208  -7.827  55.805  1.00  0.00     0.086 C 
BRANCH   3   4
HETATM    4  C3  UNL     1       3.289  -8.437  54.408  1.00  0.00     0.046 C 
BRANCH   4   5
HETATM    5  C4  UNL     1       2.425  -9.664  54.229  1.00  0.00    -0.055 A 
HETATM    6  C5  UNL     1       2.105 -10.482  55.325  1.00  0.00     0.046 A 
HETATM    7  C6  UNL     1       1.317 -11.612  55.133  1.00  0.00     0.099 A 
HETATM    8  C7  UNL     1       0.839 -11.932  53.866  1.00  0.00     0.098 A 
HETATM    9  C8  UNL     1       1.140 -11.134  52.774  1.00  0.00     0.040 A 
HETATM   10  C9  UNL     1       1.932  -9.999  52.956  1.00  0.00     0.010 A 
BRANCH   7  11
HETATM   11  O1  UNL     1       0.982 -12.444  56.166  1.00  0.00    -0.358 OA
HETATM   12  H   UNL     1       1.596 -13.084  56.469  1.00  0.00     0.217 HD
ENDBRANCH   7  11
BRANCH   8  13
HETATM   13  O2  UNL     1       0.066 -13.043  53.689  1.00  0.00    -0.358 OA
HETATM   14  H   UNL     1      -0.658 -13.021  53.094  1.00  0.00     0.217 HD
ENDBRANCH   8  13
ENDBRANCH   4   5
ENDBRANCH   3   4
ENDBRANCH   1   3
BRANCH   1  15
HETATM   15  C10 UNL     1       5.283  -9.129  56.709  1.00  0.00     0.218 C 
BRANCH  15  16
HETATM   16  O4  UNL     1       6.676  -8.884  56.513  1.00  0.00    -0.385 OA
HETATM   17  H   UNL     1       6.798  -8.320  55.733  1.00  0.00     0.210 HD
ENDBRANCH  15  16
BRANCH  15  18
HETATM   18  C11 UNL     1       5.011  -9.746  58.097  1.00  0.00     0.177 C 
BRANCH  18  19
HETATM   19  O5  UNL     1       3.653 -10.201  58.210  1.00  0.00    -0.390 OA
HETATM   20  H   UNL     1       3.155  -9.592  58.777  1.00  0.00     0.210 HD
ENDBRANCH  18  19
BRANCH  18  21
HETATM   21  C12 UNL     1       5.904 -10.968  58.349  1.00  0.00     0.198 C 
BRANCH  21  22
HETATM   22  O6  UNL     1       5.093 -12.118  58.595  1.00  0.00    -0.398 OA
HETATM   23  H   UNL     1       4.739 -12.450  57.755  1.00  0.00     0.209 HD
ENDBRANCH  21  22
ENDBRANCH  18  21
ENDBRANCH  15  18
ENDBRANCH   1  15
TORSDOF 11
ENDMDL
MODEL 4
REMARK VINA RESULT:      -6.5      2.239      3.799
REMARK  11 active torsions:
REMARK  status: ('A' for Active; 'I' for Inactive)
REMARK    1  A    between atoms: C1_1  and  C2_2 
REMARK    2  A    between atoms: C1_1  and  C10_13 
REMARK    3  A    between atoms: C2_2  and  C3_3 
REMARK    4  A    between atoms: C3_3  and  C4_4 
REMARK    5  A    between atoms: C6_6  and  O1_7 
REMARK    6  A    between atoms: C7_8  and  O2_9 
REMARK    7  A    between atoms: C10_13  and  O4_14 
REMARK    8  A    between atoms: C10_13  and  C11_15 
REMARK    9  A    between atoms: C11_15  and  O5_16 
REMARK   10  A    between atoms: C11_15  and  C12_17 
REMARK   11  A    between atoms: C12_17  and  O6_18 
ROOT
HETATM    1  C1  UNL     1       2.519 -10.661  55.885  1.00  0.00     0.158 C 
HETATM    2  O3  UNL     1       3.039 -11.086  56.921  1.00  0.00    -0.295 OA
ENDROOT
BRANCH   1   3
HETATM    3  C2  UNL     1       3.108  -9.463  55.161  1.00  0.00     0.086 C 
BRANCH   3   4
HETATM    4  C3  UNL     1       2.939  -8.147  55.917  1.00  0.00     0.046 C 
BRANCH   4   5
HETATM    5  C4  UNL     1       3.363  -6.932  55.126  1.00  0.00    -0.055 A 
HETATM    6  C5  UNL     1       3.901  -7.068  53.835  1.00  0.00     0.046 A 
HETATM    7  C6  UNL     1       4.293  -5.935  53.131  1.00  0.00     0.099 A 
HETATM    8  C7  UNL     1       4.150  -4.670  53.693  1.00  0.00     0.098 A 
HETATM    9  C8  UNL     1       3.617  -4.516  54.962  1.00  0.00     0.040 A 
HETATM   10  C9  UNL     1       3.221  -5.647  55.678  1.00  0.00     0.010 A 
BRANCH   7  11
HETATM   11  O1  UNL     1       4.828  -6.014  51.875  1.00  0.00    -0.358 OA
HETATM   12  H   UNL     1       4.296  -6.293  51.156  1.00  0.00     0.217 HD
ENDBRANCH   7  11
BRANCH   8  13
HETATM   13  O2  UNL     1       4.539  -3.564  52.993  1.00  0.00    -0.358 OA
HETATM   14  H   UNL     1       3.895  -3.004  52.606  1.00  0.00     0.217 HD
ENDBRANCH   8  13
ENDBRANCH   4   5
ENDBRANCH   3   4
ENDBRANCH   1   3
BRANCH   1  15
HETATM   15  C10 UNL     1       1.304 -11.348  55.258  1.00  0.00     0.218 C 
BRANCH  15  16
HETATM   16  O4  UNL     1       0.870 -12.378  56.146  1.00  0.00    -0.385 OA
HETATM   17  H   UNL     1       1.519 -12.485  56.859  1.00  0.00     0.210 HD
ENDBRANCH  15  16
BRANCH  15  18
HETATM   18  C11 UNL     1       0.174 -10.337  54.975  1.00  0.00     0.177 C 
BRANCH  18  19
HETATM   19  O5  UNL     1      -0.088 -10.225  53.567  1.00  0.00    -0.390 OA
HETATM   20  H   UNL     1      -0.041  -9.293  53.302  1.00  0.00     0.210 HD
ENDBRANCH  18  19
BRANCH  18  21
HETATM   21  C12 UNL     1      -1.142 -10.772  55.633  1.00  0.00     0.198 C 
BRANCH  21  22
HETATM   22  O6  UNL     1      -1.149 -10.382  57.007  1.00  0.00    -0.398 OA
HETATM   23  H   UNL     1      -1.604 -11.058  57.534  1.00  0.00     0.209 HD
ENDBRANCH  21  22
ENDBRANCH  18  21
ENDBRANCH  15  18
ENDBRANCH   1  15
TORSDOF 11
ENDMDL
MODEL 5
REMARK VINA RESULT:      -6.5      2.366      3.752
REMARK  11 active torsions:
REMARK  status: ('A' for Active; 'I' for Inactive)
REMARK    1  A    between atoms: C1_1  and  C2_2 
REMARK    2  A    between atoms: C1_1  and  C10_13 
REMARK    3  A    between atoms: C2_2  and  C3_3 
REMARK    4  A    between atoms: C3_3  and  C4_4 
REMARK    5  A    between atoms: C6_6  and  O1_7 
REMARK    6  A    between atoms: C7_8  and  O2_9 
REMARK    7  A    between atoms: C10_13  and  O4_14 
REMARK    8  A    between atoms: C10_13  and  C11_15 
REMARK    9  A    between atoms: C11_15  and  O5_16 
REMARK   10  A    between atoms: C11_15  and  C12_17 
REMARK   11  A    between atoms: C12_17  and  O6_18 
ROOT
HETATM    1  C1  UNL     1       1.856  -9.645  55.878  1.00  0.00     0.158 C 
HETATM    2  O3  UNL     1       1.453  -9.426  57.024  1.00  0.00    -0.295 OA
ENDROOT
BRANCH   1   3
HETATM    3  C2  UNL     1       3.344  -9.687  55.577  1.00  0.00     0.086 C 
BRANCH   3   4
HETATM    4  C3  UNL     1       4.137  -8.572  56.254  1.00  0.00     0.046 C 
BRANCH   4   5
HETATM    5  C4  UNL     1       4.228  -7.306  55.435  1.00  0.00    -0.055 A 
HETATM    6  C5  UNL     1       4.637  -7.348  54.092  1.00  0.00     0.046 A 
HETATM    7  C6  UNL     1       4.722  -6.167  53.362  1.00  0.00     0.099 A 
HETATM    8  C7  UNL     1       4.399  -4.949  53.951  1.00  0.00     0.098 A 
HETATM    9  C8  UNL     1       3.989  -4.888  55.273  1.00  0.00     0.040 A 
HETATM   10  C9  UNL     1       3.901  -6.067  56.014  1.00  0.00     0.010 A 
BRANCH   7  11
HETATM   11  O1  UNL     1       5.121  -6.154  52.054  1.00  0.00    -0.358 OA
HETATM   12  H   UNL     1       5.043  -6.928  51.532  1.00  0.00     0.217 HD
ENDBRANCH   7  11
BRANCH   8  13
HETATM   13  O2  UNL     1       4.487  -3.795  53.225  1.00  0.00    -0.358 OA
HETATM   14  H   UNL     1       3.936  -3.670  52.477  1.00  0.00     0.217 HD
ENDBRANCH   8  13
ENDBRANCH   4   5
ENDBRANCH   3   4
ENDBRANCH   1   3
BRANCH   1  15
HETATM   15  C10 UNL     1       0.887  -9.936  54.730  1.00  0.00     0.218 C 
BRANCH  15  16
HETATM   16  O4  UNL     1       1.655 -10.149  53.545  1.00  0.00    -0.385 OA
HETATM   17  H   UNL     1       1.796  -9.301  53.095  1.00  0.00     0.210 HD
ENDBRANCH  15  16
BRANCH  15  18
HETATM   18  C11 UNL     1      -0.006 -11.153  55.047  1.00  0.00     0.177 C 
BRANCH  18  19
HETATM   19  O5  UNL     1       0.562 -11.962  56.090  1.00  0.00    -0.390 OA
HETATM   20  H   UNL     1       0.980 -12.745  55.700  1.00  0.00     0.210 HD
ENDBRANCH  18  19
BRANCH  18  21
HETATM   21  C12 UNL     1      -1.393 -10.716  55.538  1.00  0.00     0.198 C 
BRANCH  21  22
HETATM   22  O6  UNL     1      -1.358 -10.492  56.949  1.00  0.00    -0.398 OA
HETATM   23  H   UNL     1      -0.548 -10.009  57.180  1.00  0.00     0.209 HD
ENDBRANCH  21  22
ENDBRANCH  18  21
ENDBRANCH  15  18
ENDBRANCH   1  15
TORSDOF 11
ENDMDL
MODEL 6
REMARK VINA RESULT:      -6.4      1.477      5.965
REMARK  11 active torsions:
REMARK  status: ('A' for Active; 'I' for Inactive)
REMARK    1  A    between atoms: C1_1  and  C2_2 
REMARK    2  A    between atoms: C1_1  and  C10_13 
REMARK    3  A    between atoms: C2_2  and  C3_3 
REMARK    4  A    between atoms: C3_3  and  C4_4 
REMARK    5  A    between atoms: C6_6  and  O1_7 
REMARK    6  A    between atoms: C7_8  and  O2_9 
REMARK    7  A    between atoms: C10_13  and  O4_14 
REMARK    8  A    between atoms: C10_13  and  C11_15 
REMARK    9  A    between atoms: C11_15  and  O5_16 
REMARK   10  A    between atoms: C11_15  and  C12_17 
REMARK   11  A    between atoms: C12_17  and  O6_18 
ROOT
HETATM    1  C1  UNL     1       3.358  -6.208  52.897  1.00  0.00     0.158 C 
HETATM    2  O3  UNL     1       2.203  -6.023  52.501  1.00  0.00    -0.295 OA
ENDROOT
BRANCH   1   3
HETATM    3  C2  UNL     1       3.996  -7.582  52.802  1.00  0.00     0.086 C 
BRANCH   3   4
HETATM    4  C3  UNL     1       3.084  -8.714  53.268  1.00  0.00     0.046 C 
BRANCH   4   5
HETATM    5  C4  UNL     1       3.382  -9.199  54.667  1.00  0.00    -0.055 A 
HETATM    6  C5  UNL     1       4.448  -8.655  55.403  1.00  0.00     0.046 A 
HETATM    7  C6  UNL     1       4.709  -9.125  56.686  1.00  0.00     0.099 A 
HETATM    8  C7  UNL     1       3.918 -10.123  57.245  1.00  0.00     0.098 A 
HETATM    9  C8  UNL     1       2.859 -10.668  56.537  1.00  0.00     0.040 A 
HETATM   10  C9  UNL     1       2.590 -10.204  55.249  1.00  0.00     0.010 A 
BRANCH   7  11
HETATM   11  O1  UNL     1       5.739  -8.634  57.440  1.00  0.00    -0.358 OA
HETATM   12  H   UNL     1       5.742  -7.733  57.698  1.00  0.00     0.217 HD
ENDBRANCH   7  11
BRANCH   8  13
HETATM   13  O2  UNL     1       4.183 -10.578  58.505  1.00  0.00    -0.358 OA
HETATM   14  H   UNL     1       5.044 -10.491  58.863  1.00  0.00     0.217 HD
ENDBRANCH   8  13
ENDBRANCH   4   5
ENDBRANCH   3   4
ENDBRANCH   1   3
BRANCH   1  15
HETATM   15  C10 UNL     1       4.210  -5.061  53.445  1.00  0.00     0.218 C 
BRANCH  15  16
HETATM   16  O4  UNL     1       4.290  -4.049  52.440  1.00  0.00    -0.385 OA
HETATM   17  H   UNL     1       4.835  -3.315  52.764  1.00  0.00     0.210 HD
ENDBRANCH  15  16
BRANCH  15  18
HETATM   18  C11 UNL     1       3.620  -4.503  54.757  1.00  0.00     0.177 C 
BRANCH  18  19
HETATM   19  O5  UNL     1       2.280  -4.020  54.565  1.00  0.00    -0.390 OA
HETATM   20  H   UNL     1       2.175  -3.170  55.020  1.00  0.00     0.210 HD
ENDBRANCH  18  19
BRANCH  18  21
HETATM   21  C12 UNL     1       3.543  -5.587  55.840  1.00  0.00     0.198 C 
BRANCH  21  22
HETATM   22  O6  UNL     1       4.787  -5.661  56.540  1.00  0.00    -0.398 OA
HETATM   23  H   UNL     1       4.648  -5.427  57.471  1.00  0.00     0.209 HD
ENDBRANCH  21  22
ENDBRANCH  18  21
ENDBRANCH  15  18
ENDBRANCH   1  15
TORSDOF 11
ENDMDL
MODEL 7
REMARK VINA RESULT:      -6.4      1.220      2.213
REMARK  11 active torsions:
REMARK  status: ('A' for Active; 'I' for Inactive)
REMARK    1  A    between atoms: C1_1  and  C2_2 
REMARK    2  A    between atoms: C1_1  and  C10_13 
REMARK    3  A    between atoms: C2_2  and  C3_3 
REMARK    4  A    between atoms: C3_3  and  C4_4 
REMARK    5  A    between atoms: C6_6  and  O1_7 
REMARK    6  A    between atoms: C7_8  and  O2_9 
REMARK    7  A    between atoms: C10_13  and  O4_14 
REMARK    8  A    between atoms: C10_13  and  C11_15 
REMARK    9  A    between atoms: C11_15  and  O5_16 
REMARK   10  A    between atoms: C11_15  and  C12_17 
REMARK   11  A    between atoms: C12_17  and  O6_18 
ROOT
HETATM    1  C1  UNL     1       3.714  -9.970  56.552  1.00  0.00     0.158 C 
HETATM    2  O3  UNL     1       3.182 -10.978  57.026  1.00  0.00    -0.295 OA
ENDROOT
BRANCH   1   3
HETATM    3  C2  UNL     1       3.246  -9.400  55.225  1.00  0.00     0.086 C 
BRANCH   3   4
HETATM    4  C3  UNL     1       2.361  -8.164  55.367  1.00  0.00     0.046 C 
BRANCH   4   5
HETATM    5  C4  UNL     1       2.940  -6.925  54.726  1.00  0.00    -0.055 A 
HETATM    6  C5  UNL     1       3.507  -6.979  53.442  1.00  0.00     0.046 A 
HETATM    7  C6  UNL     1       4.044  -5.827  52.877  1.00  0.00     0.099 A 
HETATM    8  C7  UNL     1       4.016  -4.622  53.572  1.00  0.00     0.098 A 
HETATM    9  C8  UNL     1       3.457  -4.548  54.837  1.00  0.00     0.040 A 
HETATM   10  C9  UNL     1       2.917  -5.698  55.413  1.00  0.00     0.010 A 
BRANCH   7  11
HETATM   11  O1  UNL     1       4.612  -5.829  51.633  1.00  0.00    -0.358 OA
HETATM   12  H   UNL     1       5.276  -6.457  51.422  1.00  0.00     0.217 HD
ENDBRANCH   7  11
BRANCH   8  13
HETATM   13  O2  UNL     1       4.546  -3.497  53.008  1.00  0.00    -0.358 OA
HETATM   14  H   UNL     1       3.987  -2.782  52.776  1.00  0.00     0.217 HD
ENDBRANCH   8  13
ENDBRANCH   4   5
ENDBRANCH   3   4
ENDBRANCH   1   3
BRANCH   1  15
HETATM   15  C10 UNL     1       4.821  -9.223  57.299  1.00  0.00     0.218 C 
BRANCH  15  16
HETATM   16  O4  UNL     1       5.667 -10.191  57.921  1.00  0.00    -0.385 OA
HETATM   17  H   UNL     1       5.366 -10.346  58.830  1.00  0.00     0.210 HD
ENDBRANCH  15  16
BRANCH  15  18
HETATM   18  C11 UNL     1       5.620  -8.308  56.347  1.00  0.00     0.177 C 
BRANCH  18  19
HETATM   19  O5  UNL     1       5.798  -6.997  56.907  1.00  0.00    -0.390 OA
HETATM   20  H   UNL     1       5.413  -6.972  57.797  1.00  0.00     0.210 HD
ENDBRANCH  18  19
BRANCH  18  21
HETATM   21  C12 UNL     1       7.025  -8.867  56.084  1.00  0.00     0.198 C 
BRANCH  21  22
HETATM   22  O6  UNL     1       7.804  -7.901  55.376  1.00  0.00    -0.398 OA
HETATM   23  H   UNL     1       7.429  -7.017  55.515  1.00  0.00     0.209 HD
ENDBRANCH  21  22
ENDBRANCH  18  21
ENDBRANCH  15  18
ENDBRANCH   1  15
TORSDOF 11
ENDMDL
MODEL 8
REMARK VINA RESULT:      -6.4      2.171      6.151
REMARK  11 active torsions:
REMARK  status: ('A' for Active; 'I' for Inactive)
REMARK    1  A    between atoms: C1_1  and  C2_2 
REMARK    2  A    between atoms: C1_1  and  C10_13 
REMARK    3  A    between atoms: C2_2  and  C3_3 
REMARK    4  A    between atoms: C3_3  and  C4_4 
REMARK    5  A    between atoms: C6_6  and  O1_7 
REMARK    6  A    between atoms: C7_8  and  O2_9 
REMARK    7  A    between atoms: C10_13  and  O4_14 
REMARK    8  A    between atoms: C10_13  and  C11_15 
REMARK    9  A    between atoms: C11_15  and  O5_16 
REMARK   10  A    between atoms: C11_15  and  C12_17 
REMARK   11  A    between atoms: C12_17  and  O6_18 
ROOT
HETATM    1  C1  UNL     1       3.550  -6.192  53.232  1.00  0.00     0.158 C 
HETATM    2  O3  UNL     1       2.468  -5.917  52.706  1.00  0.00    -0.295 OA
ENDROOT
BRANCH   1   3
HETATM    3  C2  UNL     1       4.103  -7.605  53.171  1.00  0.00     0.086 C 
BRANCH   3   4
HETATM    4  C3  UNL     1       3.140  -8.612  52.547  1.00  0.00     0.046 C 
BRANCH   4   5
HETATM    5  C4  UNL     1       2.553  -9.588  53.539  1.00  0.00    -0.055 A 
HETATM    6  C5  UNL     1       3.039  -9.652  54.855  1.00  0.00     0.046 A 
HETATM    7  C6  UNL     1       2.489 -10.567  55.748  1.00  0.00     0.099 A 
HETATM    8  C7  UNL     1       1.459 -11.412  55.346  1.00  0.00     0.098 A 
HETATM    9  C8  UNL     1       0.964 -11.360  54.054  1.00  0.00     0.040 A 
HETATM   10  C9  UNL     1       1.509 -10.446  53.150  1.00  0.00     0.010 A 
BRANCH   7  11
HETATM   11  O1  UNL     1       2.931 -10.673  57.038  1.00  0.00    -0.358 OA
HETATM   12  H   UNL     1       3.834 -10.520  57.238  1.00  0.00     0.217 HD
ENDBRANCH   7  11
BRANCH   8  13
HETATM   13  O2  UNL     1       0.927 -12.307  56.230  1.00  0.00    -0.358 OA
HETATM   14  H   UNL     1       1.042 -12.180  57.151  1.00  0.00     0.217 HD
ENDBRANCH   8  13
ENDBRANCH   4   5
ENDBRANCH   3   4
ENDBRANCH   1   3
BRANCH   1  15
HETATM   15  C10 UNL     1       4.404  -5.121  53.916  1.00  0.00     0.218 C 
BRANCH  15  16
HETATM   16  O4  UNL     1       4.577  -4.040  52.999  1.00  0.00    -0.385 OA
HETATM   17  H   UNL     1       4.907  -3.262  53.475  1.00  0.00     0.210 HD
ENDBRANCH  15  16
BRANCH  15  18
HETATM   18  C11 UNL     1       3.753  -4.644  55.231  1.00  0.00     0.177 C 
BRANCH  18  19
HETATM   19  O5  UNL     1       2.407  -4.192  55.015  1.00  0.00    -0.390 OA
HETATM   20  H   UNL     1       1.882  -4.346  55.816  1.00  0.00     0.210 HD
ENDBRANCH  18  19
BRANCH  18  21
HETATM   21  C12 UNL     1       3.674  -5.779  56.260  1.00  0.00     0.198 C 
BRANCH  21  22
HETATM   22  O6  UNL     1       4.988  -6.112  56.715  1.00  0.00    -0.398 OA
HETATM   23  H   UNL     1       4.924  -6.690  57.492  1.00  0.00     0.209 HD
ENDBRANCH  21  22
ENDBRANCH  18  21
ENDBRANCH  15  18
ENDBRANCH   1  15
TORSDOF 11
ENDMDL
MODEL 9
REMARK VINA RESULT:      -6.4      0.798      1.514
REMARK  11 active torsions:
REMARK  status: ('A' for Active; 'I' for Inactive)
REMARK    1  A    between atoms: C1_1  and  C2_2 
REMARK    2  A    between atoms: C1_1  and  C10_13 
REMARK    3  A    between atoms: C2_2  and  C3_3 
REMARK    4  A    between atoms: C3_3  and  C4_4 
REMARK    5  A    between atoms: C6_6  and  O1_7 
REMARK    6  A    between atoms: C7_8  and  O2_9 
REMARK    7  A    between atoms: C10_13  and  O4_14 
REMARK    8  A    between atoms: C10_13  and  C11_15 
REMARK    9  A    between atoms: C11_15  and  O5_16 
REMARK   10  A    between atoms: C11_15  and  C12_17 
REMARK   11  A    between atoms: C12_17  and  O6_18 
ROOT
HETATM    1  C1  UNL     1       3.628  -9.866  56.677  1.00  0.00     0.158 C 
HETATM    2  O3  UNL     1       3.118 -10.949  56.979  1.00  0.00    -0.295 OA
ENDROOT
BRANCH   1   3
HETATM    3  C2  UNL     1       2.830  -8.821  55.919  1.00  0.00     0.086 C 
BRANCH   3   4
HETATM    4  C3  UNL     1       3.057  -8.853  54.409  1.00  0.00     0.046 C 
BRANCH   4   5
HETATM    5  C4  UNL     1       3.429  -7.512  53.822  1.00  0.00    -0.055 A 
HETATM    6  C5  UNL     1       3.972  -6.500  54.630  1.00  0.00     0.046 A 
HETATM    7  C6  UNL     1       4.296  -5.269  54.068  1.00  0.00     0.099 A 
HETATM    8  C7  UNL     1       4.093  -5.039  52.711  1.00  0.00     0.098 A 
HETATM    9  C8  UNL     1       3.563  -6.027  51.896  1.00  0.00     0.040 A 
HETATM   10  C9  UNL     1       3.234  -7.264  52.451  1.00  0.00     0.010 A 
BRANCH   7  11
HETATM   11  O1  UNL     1       4.820  -4.250  54.813  1.00  0.00    -0.358 OA
HETATM   12  H   UNL     1       4.511  -3.373  54.692  1.00  0.00     0.217 HD
ENDBRANCH   7  11
BRANCH   8  13
HETATM   13  O2  UNL     1       4.414  -3.828  52.169  1.00  0.00    -0.358 OA
HETATM   14  H   UNL     1       4.827  -3.173  52.697  1.00  0.00     0.217 HD
ENDBRANCH   8  13
ENDBRANCH   4   5
ENDBRANCH   3   4
ENDBRANCH   1   3
BRANCH   1  15
HETATM   15  C10 UNL     1       5.055  -9.508  57.098  1.00  0.00     0.218 C 
BRANCH  15  16
HETATM   16  O4  UNL     1       5.149  -8.086  57.183  1.00  0.00    -0.385 OA
HETATM   17  H   UNL     1       5.652  -7.749  56.425  1.00  0.00     0.210 HD
ENDBRANCH  15  16
BRANCH  15  18
HETATM   18  C11 UNL     1       5.428 -10.177  58.437  1.00  0.00     0.177 C 
BRANCH  18  19
HETATM   19  O5  UNL     1       4.285 -10.295  59.299  1.00  0.00    -0.390 OA
HETATM   20  H   UNL     1       3.597  -9.675  59.010  1.00  0.00     0.210 HD
ENDBRANCH  18  19
BRANCH  18  21
HETATM   21  C12 UNL     1       5.962 -11.600  58.221  1.00  0.00     0.198 C 
BRANCH  21  22
HETATM   22  O6  UNL     1       4.970 -12.553  58.607  1.00  0.00    -0.398 OA
HETATM   23  H   UNL     1       4.300 -12.117  59.159  1.00  0.00     0.209 HD
ENDBRANCH  21  22
ENDBRANCH  18  21
ENDBRANCH  15  18
ENDBRANCH   1  15
TORSDOF 11
ENDMDL
