MODEL 1
REMARK VINA RESULT:      -6.5      0.000      0.000
REMARK  11 active torsions:
REMARK  status: ('A' for Active; 'I' for Inactive)
REMARK    1  A    between atoms: C1_1  and  C2_2 
REMARK    2  A    between atoms: C1_1  and  C10_13 
REMARK    3  A    between atoms: C2_2  and  C3_3 
REMARK    4  A    between atoms: C3_3  and  C4_4 
REMARK    5  A    between atoms: C6_6  and  O1_7 
REMARK    6  A    between atoms: C7_8  and  O2_9 
REMARK    7  A    between atoms: C10_13  and  O4_14 
REMARK    8  A    between atoms: C10_13  and  C11_15 
REMARK    9  A    between atoms: C11_15  and  O5_16 
REMARK   10  A    between atoms: C11_15  and  C12_17 
REMARK   11  A    between atoms: C12_17  and  O6_18 
ROOT
HETATM    1  C1  UNL     1       6.345  -3.929  59.155  1.00  0.00     0.158 C 
HETATM    2  O3  UNL     1       5.824  -4.911  59.692  1.00  0.00    -0.295 OA
ENDROOT
BRANCH   1   3
HETATM    3  C2  UNL     1       5.495  -2.904  58.427  1.00  0.00     0.086 C 
BRANCH   3   4
HETATM    4  C3  UNL     1       5.194  -3.276  56.977  1.00  0.00     0.046 C 
BRANCH   4   5
HETATM    5  C4  UNL     1       5.345  -2.126  56.010  1.00  0.00    -0.055 A 
HETATM    6  C5  UNL     1       4.929  -2.252  54.674  1.00  0.00     0.046 A 
HETATM    7  C6  UNL     1       5.089  -1.182  53.800  1.00  0.00     0.099 A 
HETATM    8  C7  UNL     1       5.651   0.011  54.241  1.00  0.00     0.098 A 
HETATM    9  C8  UNL     1       6.064   0.156  55.556  1.00  0.00     0.040 A 
HETATM   10  C9  UNL     1       5.909  -0.912  56.441  1.00  0.00     0.010 A 
BRANCH   7  11
HETATM   11  O1  UNL     1       4.705  -1.257  52.489  1.00  0.00    -0.358 OA
HETATM   12  H   UNL     1       4.981  -0.599  51.882  1.00  0.00     0.217 HD
ENDBRANCH   7  11
BRANCH   8  13
HETATM   13  O2  UNL     1       5.804   1.055  53.374  1.00  0.00    -0.358 OA
HETATM   14  H   UNL     1       5.573   0.952  52.472  1.00  0.00     0.217 HD
ENDBRANCH   8  13
ENDBRANCH   4   5
ENDBRANCH   3   4
ENDBRANCH   1   3
BRANCH   1  15
HETATM   15  C10 UNL     1       7.852  -3.673  59.245  1.00  0.00     0.218 C 
BRANCH  15  16
HETATM   16  O4  UNL     1       8.101  -2.338  58.804  1.00  0.00    -0.385 OA
HETATM   17  H   UNL     1       8.597  -2.360  57.971  1.00  0.00     0.210 HD
ENDBRANCH  15  16
BRANCH  15  18
HETATM   18  C11 UNL     1       8.372  -3.897  60.680  1.00  0.00     0.177 C 
BRANCH  18  19
HETATM   19  O5  UNL     1       7.311  -3.796  61.643  1.00  0.00    -0.390 OA
HETATM   20  H   UNL     1       7.365  -2.939  62.095  1.00  0.00     0.210 HD
ENDBRANCH  18  19
BRANCH  18  21
HETATM   21  C12 UNL     1       8.979  -5.297  60.842  1.00  0.00     0.198 C 
BRANCH  21  22
HETATM   22  O6  UNL     1       8.005  -6.185  61.395  1.00  0.00    -0.398 OA
HETATM   23  H   UNL     1       7.208  -6.176  60.842  1.00  0.00     0.209 HD
ENDBRANCH  21  22
ENDBRANCH  18  21
ENDBRANCH  15  18
ENDBRANCH   1  15
TORSDOF 11
ENDMDL
MODEL 2
REMARK VINA RESULT:      -6.5      1.805      6.807
REMARK  11 active torsions:
REMARK  status: ('A' for Active; 'I' for Inactive)
REMARK    1  A    between atoms: C1_1  and  C2_2 
REMARK    2  A    between atoms: C1_1  and  C10_13 
REMARK    3  A    between atoms: C2_2  and  C3_3 
REMARK    4  A    between atoms: C3_3  and  C4_4 
REMARK    5  A    between atoms: C6_6  and  O1_7 
REMARK    6  A    between atoms: C7_8  and  O2_9 
REMARK    7  A    between atoms: C10_13  and  O4_14 
REMARK    8  A    between atoms: C10_13  and  C11_15 
REMARK    9  A    between atoms: C11_15  and  O5_16 
REMARK   10  A    between atoms: C11_15  and  C12_17 
REMARK   11  A    between atoms: C12_17  and  O6_18 
ROOT
HETATM    1  C1  UNL     1       4.647  -2.487  53.252  1.00  0.00     0.158 C 
HETATM    2  O3  UNL     1       3.433  -2.494  53.028  1.00  0.00    -0.295 OA
ENDROOT
BRANCH   1   3
HETATM    3  C2  UNL     1       5.239  -3.379  54.330  1.00  0.00     0.086 C 
BRANCH   3   4
HETATM    4  C3  UNL     1       4.629  -3.156  55.711  1.00  0.00     0.046 C 
BRANCH   4   5
HETATM    5  C4  UNL     1       5.647  -3.119  56.826  1.00  0.00    -0.055 A 
HETATM    6  C5  UNL     1       6.545  -2.045  56.942  1.00  0.00     0.046 A 
HETATM    7  C6  UNL     1       7.481  -2.038  57.971  1.00  0.00     0.099 A 
HETATM    8  C7  UNL     1       7.527  -3.083  58.889  1.00  0.00     0.098 A 
HETATM    9  C8  UNL     1       6.647  -4.148  58.794  1.00  0.00     0.040 A 
HETATM   10  C9  UNL     1       5.705  -4.165  57.764  1.00  0.00     0.010 A 
BRANCH   7  11
HETATM   11  O1  UNL     1       8.381  -1.019  58.123  1.00  0.00    -0.358 OA
HETATM   12  H   UNL     1       8.146  -0.255  58.612  1.00  0.00     0.217 HD
ENDBRANCH   7  11
BRANCH   8  13
HETATM   13  O2  UNL     1       8.450  -3.067  59.895  1.00  0.00    -0.358 OA
HETATM   14  H   UNL     1       9.320  -2.759  59.729  1.00  0.00     0.217 HD
ENDBRANCH   8  13
ENDBRANCH   4   5
ENDBRANCH   3   4
ENDBRANCH   1   3
BRANCH   1  15
HETATM   15  C10 UNL     1       5.609  -1.630  52.427  1.00  0.00     0.218 C 
BRANCH  15  16
HETATM   16  O4  UNL     1       4.833  -0.754  51.610  1.00  0.00    -0.385 OA
HETATM   17  H   UNL     1       5.184   0.148  51.678  1.00  0.00     0.210 HD
ENDBRANCH  15  16
BRANCH  15  18
HETATM   18  C11 UNL     1       6.576  -0.842  53.335  1.00  0.00     0.177 C 
BRANCH  18  19
HETATM   19  O5  UNL     1       7.607  -0.200  52.568  1.00  0.00    -0.390 OA
HETATM   20  H   UNL     1       8.039   0.478  53.111  1.00  0.00     0.210 HD
ENDBRANCH  18  19
BRANCH  18  21
HETATM   21  C12 UNL     1       5.844   0.267  54.101  1.00  0.00     0.198 C 
BRANCH  21  22
HETATM   22  O6  UNL     1       5.784   1.449  53.300  1.00  0.00    -0.398 OA
HETATM   23  H   UNL     1       5.742   2.229  53.876  1.00  0.00     0.209 HD
ENDBRANCH  21  22
ENDBRANCH  18  21
ENDBRANCH  15  18
ENDBRANCH   1  15
TORSDOF 11
ENDMDL
MODEL 3
REMARK VINA RESULT:      -6.4      1.895      7.063
REMARK  11 active torsions:
REMARK  status: ('A' for Active; 'I' for Inactive)
REMARK    1  A    between atoms: C1_1  and  C2_2 
REMARK    2  A    between atoms: C1_1  and  C10_13 
REMARK    3  A    between atoms: C2_2  and  C3_3 
REMARK    4  A    between atoms: C3_3  and  C4_4 
REMARK    5  A    between atoms: C6_6  and  O1_7 
REMARK    6  A    between atoms: C7_8  and  O2_9 
REMARK    7  A    between atoms: C10_13  and  O4_14 
REMARK    8  A    between atoms: C10_13  and  C11_15 
REMARK    9  A    between atoms: C11_15  and  O5_16 
REMARK   10  A    between atoms: C11_15  and  C12_17 
REMARK   11  A    between atoms: C12_17  and  O6_18 
ROOT
HETATM    1  C1  UNL     1       7.281  -2.198  54.112  1.00  0.00     0.158 C 
HETATM    2  O3  UNL     1       8.508  -2.098  54.008  1.00  0.00    -0.295 OA
ENDROOT
BRANCH   1   3
HETATM    3  C2  UNL     1       6.634  -3.548  54.363  1.00  0.00     0.086 C 
BRANCH   3   4
HETATM    4  C3  UNL     1       5.450  -3.489  55.325  1.00  0.00     0.046 C 
BRANCH   4   5
HETATM    5  C4  UNL     1       5.822  -3.750  56.765  1.00  0.00    -0.055 A 
HETATM    6  C5  UNL     1       6.922  -3.101  57.351  1.00  0.00     0.046 A 
HETATM    7  C6  UNL     1       7.251  -3.365  58.676  1.00  0.00     0.099 A 
HETATM    8  C7  UNL     1       6.495  -4.262  59.425  1.00  0.00     0.098 A 
HETATM    9  C8  UNL     1       5.404  -4.908  58.866  1.00  0.00     0.040 A 
HETATM   10  C9  UNL     1       5.066  -4.650  57.537  1.00  0.00     0.010 A 
BRANCH   7  11
HETATM   11  O1  UNL     1       8.315  -2.764  59.290  1.00  0.00    -0.358 OA
HETATM   12  H   UNL     1       9.036  -2.452  58.778  1.00  0.00     0.217 HD
ENDBRANCH   7  11
BRANCH   8  13
HETATM   13  O2  UNL     1       6.827  -4.514  60.725  1.00  0.00    -0.358 OA
HETATM   14  H   UNL     1       7.609  -4.990  60.925  1.00  0.00     0.217 HD
ENDBRANCH   8  13
ENDBRANCH   4   5
ENDBRANCH   3   4
ENDBRANCH   1   3
BRANCH   1  15
HETATM   15  C10 UNL     1       6.370  -0.970  54.048  1.00  0.00     0.218 C 
BRANCH  15  16
HETATM   16  O4  UNL     1       6.863  -0.003  54.976  1.00  0.00    -0.385 OA
HETATM   17  H   UNL     1       7.617  -0.375  55.460  1.00  0.00     0.210 HD
ENDBRANCH  15  16
BRANCH  15  18
HETATM   18  C11 UNL     1       6.307  -0.394  52.618  1.00  0.00     0.177 C 
BRANCH  18  19
HETATM   19  O5  UNL     1       7.622  -0.159  52.090  1.00  0.00    -0.390 OA
HETATM   20  H   UNL     1       7.854  -0.871  51.474  1.00  0.00     0.210 HD
ENDBRANCH  18  19
BRANCH  18  21
HETATM   21  C12 UNL     1       5.615  -1.367  51.654  1.00  0.00     0.198 C 
BRANCH  21  22
HETATM   22  O6  UNL     1       4.510  -0.718  51.022  1.00  0.00    -0.398 OA
HETATM   23  H   UNL     1       4.065  -1.342  50.427  1.00  0.00     0.209 HD
ENDBRANCH  21  22
ENDBRANCH  18  21
ENDBRANCH  15  18
ENDBRANCH   1  15
TORSDOF 11
ENDMDL
MODEL 4
REMARK VINA RESULT:      -6.4      2.602      6.804
REMARK  11 active torsions:
REMARK  status: ('A' for Active; 'I' for Inactive)
REMARK    1  A    between atoms: C1_1  and  C2_2 
REMARK    2  A    between atoms: C1_1  and  C10_13 
REMARK    3  A    between atoms: C2_2  and  C3_3 
REMARK    4  A    between atoms: C3_3  and  C4_4 
REMARK    5  A    between atoms: C6_6  and  O1_7 
REMARK    6  A    between atoms: C7_8  and  O2_9 
REMARK    7  A    between atoms: C10_13  and  O4_14 
REMARK    8  A    between atoms: C10_13  and  C11_15 
REMARK    9  A    between atoms: C11_15  and  O5_16 
REMARK   10  A    between atoms: C11_15  and  C12_17 
REMARK   11  A    between atoms: C12_17  and  O6_18 
ROOT
HETATM    1  C1  UNL     1       6.232  -0.779  57.177  1.00  0.00     0.158 C 
HETATM    2  O3  UNL     1       7.202  -0.516  57.896  1.00  0.00    -0.295 OA
ENDROOT
BRANCH   1   3
HETATM    3  C2  UNL     1       5.340  -1.967  57.490  1.00  0.00     0.086 C 
BRANCH   3   4
HETATM    4  C3  UNL     1       6.041  -3.315  57.345  1.00  0.00     0.046 C 
BRANCH   4   5
HETATM    5  C4  UNL     1       5.111  -4.500  57.459  1.00  0.00    -0.055 A 
HETATM    6  C5  UNL     1       4.876  -5.111  58.702  1.00  0.00     0.046 A 
HETATM    7  C6  UNL     1       4.024  -6.207  58.780  1.00  0.00     0.099 A 
HETATM    8  C7  UNL     1       3.399  -6.697  57.637  1.00  0.00     0.098 A 
HETATM    9  C8  UNL     1       3.615  -6.105  56.403  1.00  0.00     0.040 A 
HETATM   10  C9  UNL     1       4.469  -5.005  56.314  1.00  0.00     0.010 A 
BRANCH   7  11
HETATM   11  O1  UNL     1       3.768  -6.841  59.965  1.00  0.00    -0.358 OA
HETATM   12  H   UNL     1       3.708  -7.776  59.993  1.00  0.00     0.217 HD
ENDBRANCH   7  11
BRANCH   8  13
HETATM   13  O2  UNL     1       2.564  -7.774  57.724  1.00  0.00    -0.358 OA
HETATM   14  H   UNL     1       1.674  -7.702  57.441  1.00  0.00     0.217 HD
ENDBRANCH   8  13
ENDBRANCH   4   5
ENDBRANCH   3   4
ENDBRANCH   1   3
BRANCH   1  15
HETATM   15  C10 UNL     1       5.857   0.101  55.983  1.00  0.00     0.218 C 
BRANCH  15  16
HETATM   16  O4  UNL     1       6.943   0.995  55.733  1.00  0.00    -0.385 OA
HETATM   17  H   UNL     1       7.773   0.494  55.702  1.00  0.00     0.210 HD
ENDBRANCH  15  16
BRANCH  15  18
HETATM   18  C11 UNL     1       5.533  -0.752  54.739  1.00  0.00     0.177 C 
BRANCH  18  19
HETATM   19  O5  UNL     1       4.147  -0.643  54.377  1.00  0.00    -0.390 OA
HETATM   20  H   UNL     1       3.780   0.175  54.748  1.00  0.00     0.210 HD
ENDBRANCH  18  19
BRANCH  18  21
HETATM   21  C12 UNL     1       6.342  -0.290  53.520  1.00  0.00     0.198 C 
BRANCH  21  22
HETATM   22  O6  UNL     1       5.884   0.995  53.093  1.00  0.00    -0.398 OA
HETATM   23  H   UNL     1       6.562   1.661  53.288  1.00  0.00     0.209 HD
ENDBRANCH  21  22
ENDBRANCH  18  21
ENDBRANCH  15  18
ENDBRANCH   1  15
TORSDOF 11
ENDMDL
MODEL 5
REMARK VINA RESULT:      -6.4      1.691      7.064
REMARK  11 active torsions:
REMARK  status: ('A' for Active; 'I' for Inactive)
REMARK    1  A    between atoms: C1_1  and  C2_2 
REMARK    2  A    between atoms: C1_1  and  C10_13 
REMARK    3  A    between atoms: C2_2  and  C3_3 
REMARK    4  A    between atoms: C3_3  and  C4_4 
REMARK    5  A    between atoms: C6_6  and  O1_7 
REMARK    6  A    between atoms: C7_8  and  O2_9 
REMARK    7  A    between atoms: C10_13  and  O4_14 
REMARK    8  A    between atoms: C10_13  and  C11_15 
REMARK    9  A    between atoms: C11_15  and  O5_16 
REMARK   10  A    between atoms: C11_15  and  C12_17 
REMARK   11  A    between atoms: C12_17  and  O6_18 
ROOT
HETATM    1  C1  UNL     1       5.555  -0.800  54.666  1.00  0.00     0.158 C 
HETATM    2  O3  UNL     1       6.019  -0.164  55.617  1.00  0.00    -0.295 OA
ENDROOT
BRANCH   1   3
HETATM    3  C2  UNL     1       4.966  -2.184  54.876  1.00  0.00     0.086 C 
BRANCH   3   4
HETATM    4  C3  UNL     1       6.013  -3.259  55.154  1.00  0.00     0.046 C 
BRANCH   4   5
HETATM    5  C4  UNL     1       6.192  -3.568  56.622  1.00  0.00    -0.055 A 
HETATM    6  C5  UNL     1       7.256  -3.008  57.348  1.00  0.00     0.046 A 
HETATM    7  C6  UNL     1       7.406  -3.317  58.697  1.00  0.00     0.099 A 
HETATM    8  C7  UNL     1       6.507  -4.169  59.329  1.00  0.00     0.098 A 
HETATM    9  C8  UNL     1       5.449  -4.727  58.631  1.00  0.00     0.040 A 
HETATM   10  C9  UNL     1       5.290  -4.425  57.277  1.00  0.00     0.010 A 
BRANCH   7  11
HETATM   11  O1  UNL     1       8.429  -2.803  59.446  1.00  0.00    -0.358 OA
HETATM   12  H   UNL     1       8.240  -2.266  60.191  1.00  0.00     0.217 HD
ENDBRANCH   7  11
BRANCH   8  13
HETATM   13  O2  UNL     1       6.663  -4.465  60.653  1.00  0.00    -0.358 OA
HETATM   14  H   UNL     1       6.245  -5.220  61.017  1.00  0.00     0.217 HD
ENDBRANCH   8  13
ENDBRANCH   4   5
ENDBRANCH   3   4
ENDBRANCH   1   3
BRANCH   1  15
HETATM   15  C10 UNL     1       5.502  -0.208  53.255  1.00  0.00     0.218 C 
BRANCH  15  16
HETATM   16  O4  UNL     1       5.871   1.168  53.339  1.00  0.00    -0.385 OA
HETATM   17  H   UNL     1       5.887   1.553  52.448  1.00  0.00     0.210 HD
ENDBRANCH  15  16
BRANCH  15  18
HETATM   18  C11 UNL     1       6.426  -0.980  52.290  1.00  0.00     0.177 C 
BRANCH  18  19
HETATM   19  O5  UNL     1       6.417  -0.395  50.978  1.00  0.00    -0.390 OA
HETATM   20  H   UNL     1       6.840   0.477  51.010  1.00  0.00     0.210 HD
ENDBRANCH  18  19
BRANCH  18  21
HETATM   21  C12 UNL     1       7.883  -0.955  52.771  1.00  0.00     0.198 C 
BRANCH  21  22
HETATM   22  O6  UNL     1       8.603   0.066  52.078  1.00  0.00    -0.398 OA
HETATM   23  H   UNL     1       8.875  -0.264  51.207  1.00  0.00     0.209 HD
ENDBRANCH  21  22
ENDBRANCH  18  21
ENDBRANCH  15  18
ENDBRANCH   1  15
TORSDOF 11
ENDMDL
MODEL 6
REMARK VINA RESULT:      -6.4      1.587      6.462
REMARK  11 active torsions:
REMARK  status: ('A' for Active; 'I' for Inactive)
REMARK    1  A    between atoms: C1_1  and  C2_2 
REMARK    2  A    between atoms: C1_1  and  C10_13 
REMARK    3  A    between atoms: C2_2  and  C3_3 
REMARK    4  A    between atoms: C3_3  and  C4_4 
REMARK    5  A    between atoms: C6_6  and  O1_7 
REMARK    6  A    between atoms: C7_8  and  O2_9 
REMARK    7  A    between atoms: C10_13  and  O4_14 
REMARK    8  A    between atoms: C10_13  and  C11_15 
REMARK    9  A    between atoms: C11_15  and  O5_16 
REMARK   10  A    between atoms: C11_15  and  C12_17 
REMARK   11  A    between atoms: C12_17  and  O6_18 
ROOT
HETATM    1  C1  UNL     1       6.217  -2.164  53.515  1.00  0.00     0.158 C 
HETATM    2  O3  UNL     1       5.643  -2.344  52.436  1.00  0.00    -0.295 OA
ENDROOT
BRANCH   1   3
HETATM    3  C2  UNL     1       6.583  -3.342  54.401  1.00  0.00     0.086 C 
BRANCH   3   4
HETATM    4  C3  UNL     1       5.436  -3.820  55.288  1.00  0.00     0.046 C 
BRANCH   4   5
HETATM    5  C4  UNL     1       5.804  -3.934  56.748  1.00  0.00    -0.055 A 
HETATM    6  C5  UNL     1       6.886  -3.209  57.274  1.00  0.00     0.046 A 
HETATM    7  C6  UNL     1       7.211  -3.339  58.621  1.00  0.00     0.099 A 
HETATM    8  C7  UNL     1       6.468  -4.174  59.448  1.00  0.00     0.098 A 
HETATM    9  C8  UNL     1       5.394  -4.893  58.949  1.00  0.00     0.040 A 
HETATM   10  C9  UNL     1       5.060  -4.771  57.599  1.00  0.00     0.010 A 
BRANCH   7  11
HETATM   11  O1  UNL     1       8.259  -2.660  59.179  1.00  0.00    -0.358 OA
HETATM   12  H   UNL     1       8.168  -1.753  59.396  1.00  0.00     0.217 HD
ENDBRANCH   7  11
BRANCH   8  13
HETATM   13  O2  UNL     1       6.796  -4.294  60.768  1.00  0.00    -0.358 OA
HETATM   14  H   UNL     1       6.380  -3.748  61.406  1.00  0.00     0.217 HD
ENDBRANCH   8  13
ENDBRANCH   4   5
ENDBRANCH   3   4
ENDBRANCH   1   3
BRANCH   1  15
HETATM   15  C10 UNL     1       6.630  -0.766  53.978  1.00  0.00     0.218 C 
BRANCH  15  16
HETATM   16  O4  UNL     1       7.192  -0.077  52.861  1.00  0.00    -0.385 OA
HETATM   17  H   UNL     1       6.505   0.072  52.193  1.00  0.00     0.210 HD
ENDBRANCH  15  16
BRANCH  15  18
HETATM   18  C11 UNL     1       5.431   0.005  54.569  1.00  0.00     0.177 C 
BRANCH  18  19
HETATM   19  O5  UNL     1       4.185  -0.619  54.219  1.00  0.00    -0.390 OA
HETATM   20  H   UNL     1       3.816  -1.062  54.999  1.00  0.00     0.210 HD
ENDBRANCH  18  19
BRANCH  18  21
HETATM   21  C12 UNL     1       5.489   0.040  56.102  1.00  0.00     0.198 C 
BRANCH  21  22
HETATM   22  O6  UNL     1       6.830   0.288  56.529  1.00  0.00    -0.398 OA
HETATM   23  H   UNL     1       6.884   1.171  56.929  1.00  0.00     0.209 HD
ENDBRANCH  21  22
ENDBRANCH  18  21
ENDBRANCH  15  18
ENDBRANCH   1  15
TORSDOF 11
ENDMDL
MODEL 7
REMARK VINA RESULT:      -6.4      1.771      7.035
REMARK  11 active torsions:
REMARK  status: ('A' for Active; 'I' for Inactive)
REMARK    1  A    between atoms: C1_1  and  C2_2 
REMARK    2  A    between atoms: C1_1  and  C10_13 
REMARK    3  A    between atoms: C2_2  and  C3_3 
REMARK    4  A    between atoms: C3_3  and  C4_4 
REMARK    5  A    between atoms: C6_6  and  O1_7 
REMARK    6  A    between atoms: C7_8  and  O2_9 
REMARK    7  A    between atoms: C10_13  and  O4_14 
REMARK    8  A    between atoms: C10_13  and  C11_15 
REMARK    9  A    between atoms: C11_15  and  O5_16 
REMARK   10  A    between atoms: C11_15  and  C12_17 
REMARK   11  A    between atoms: C12_17  and  O6_18 
ROOT
HETATM    1  C1  UNL     1       6.879  -2.455  54.522  1.00  0.00     0.158 C 
HETATM    2  O3  UNL     1       7.768  -3.275  54.275  1.00  0.00    -0.295 OA
ENDROOT
BRANCH   1   3
HETATM    3  C2  UNL     1       5.618  -2.879  55.254  1.00  0.00     0.086 C 
BRANCH   3   4
HETATM    4  C3  UNL     1       5.449  -2.213  56.617  1.00  0.00     0.046 C 
BRANCH   4   5
HETATM    5  C4  UNL     1       6.062  -2.994  57.756  1.00  0.00    -0.055 A 
HETATM    6  C5  UNL     1       5.405  -4.113  58.293  1.00  0.00     0.046 A 
HETATM    7  C6  UNL     1       5.985  -4.810  59.349  1.00  0.00     0.099 A 
HETATM    8  C7  UNL     1       7.211  -4.409  59.869  1.00  0.00     0.098 A 
HETATM    9  C8  UNL     1       7.876  -3.311  59.349  1.00  0.00     0.040 A 
HETATM   10  C9  UNL     1       7.303  -2.604  58.291  1.00  0.00     0.010 A 
BRANCH   7  11
HETATM   11  O1  UNL     1       5.383  -5.902  59.911  1.00  0.00    -0.358 OA
HETATM   12  H   UNL     1       4.532  -5.821  60.297  1.00  0.00     0.217 HD
ENDBRANCH   7  11
BRANCH   8  13
HETATM   13  O2  UNL     1       7.771  -5.100  60.906  1.00  0.00    -0.358 OA
HETATM   14  H   UNL     1       8.664  -5.378  60.855  1.00  0.00     0.217 HD
ENDBRANCH   8  13
ENDBRANCH   4   5
ENDBRANCH   3   4
ENDBRANCH   1   3
BRANCH   1  15
HETATM   15  C10 UNL     1       7.029  -0.977  54.154  1.00  0.00     0.218 C 
BRANCH  15  16
HETATM   16  O4  UNL     1       8.259  -0.818  53.447  1.00  0.00    -0.385 OA
HETATM   17  H   UNL     1       8.942  -1.370  53.860  1.00  0.00     0.210 HD
ENDBRANCH  15  16
BRANCH  15  18
HETATM   18  C11 UNL     1       5.831  -0.485  53.315  1.00  0.00     0.177 C 
BRANCH  18  19
HETATM   19  O5  UNL     1       5.848   0.944  53.166  1.00  0.00    -0.390 OA
HETATM   20  H   UNL     1       6.515   1.192  52.507  1.00  0.00     0.210 HD
ENDBRANCH  18  19
BRANCH  18  21
HETATM   21  C12 UNL     1       5.863  -1.073  51.898  1.00  0.00     0.198 C 
BRANCH  21  22
HETATM   22  O6  UNL     1       6.570  -0.191  51.024  1.00  0.00    -0.398 OA
HETATM   23  H   UNL     1       6.116   0.666  50.993  1.00  0.00     0.209 HD
ENDBRANCH  21  22
ENDBRANCH  18  21
ENDBRANCH  15  18
ENDBRANCH   1  15
TORSDOF 11
ENDMDL
MODEL 8
REMARK VINA RESULT:      -6.4      1.435      7.102
REMARK  11 active torsions:
REMARK  status: ('A' for Active; 'I' for Inactive)
REMARK    1  A    between atoms: C1_1  and  C2_2 
REMARK    2  A    between atoms: C1_1  and  C10_13 
REMARK    3  A    between atoms: C2_2  and  C3_3 
REMARK    4  A    between atoms: C3_3  and  C4_4 
REMARK    5  A    between atoms: C6_6  and  O1_7 
REMARK    6  A    between atoms: C7_8  and  O2_9 
REMARK    7  A    between atoms: C10_13  and  O4_14 
REMARK    8  A    between atoms: C10_13  and  C11_15 
REMARK    9  A    between atoms: C11_15  and  O5_16 
REMARK   10  A    between atoms: C11_15  and  C12_17 
REMARK   11  A    between atoms: C12_17  and  O6_18 
ROOT
HETATM    1  C1  UNL     1       5.238  -0.437  55.455  1.00  0.00     0.158 C 
HETATM    2  O3  UNL     1       4.695   0.661  55.602  1.00  0.00    -0.295 OA
ENDROOT
BRANCH   1   3
HETATM    3  C2  UNL     1       5.962  -1.103  56.612  1.00  0.00     0.086 C 
BRANCH   3   4
HETATM    4  C3  UNL     1       5.976  -2.627  56.530  1.00  0.00     0.046 C 
BRANCH   4   5
HETATM    5  C4  UNL     1       6.476  -3.299  57.787  1.00  0.00    -0.055 A 
HETATM    6  C5  UNL     1       5.765  -4.367  58.361  1.00  0.00     0.046 A 
HETATM    7  C6  UNL     1       6.240  -4.963  59.524  1.00  0.00     0.099 A 
HETATM    8  C7  UNL     1       7.416  -4.513  60.118  1.00  0.00     0.098 A 
HETATM    9  C8  UNL     1       8.132  -3.465  59.564  1.00  0.00     0.040 A 
HETATM   10  C9  UNL     1       7.664  -2.859  58.397  1.00  0.00     0.010 A 
BRANCH   7  11
HETATM   11  O1  UNL     1       5.582  -6.000  60.125  1.00  0.00    -0.358 OA
HETATM   12  H   UNL     1       5.194  -6.674  59.603  1.00  0.00     0.217 HD
ENDBRANCH   7  11
BRANCH   8  13
HETATM   13  O2  UNL     1       7.873  -5.104  61.260  1.00  0.00    -0.358 OA
HETATM   14  H   UNL     1       7.634  -4.756  62.097  1.00  0.00     0.217 HD
ENDBRANCH   8  13
ENDBRANCH   4   5
ENDBRANCH   3   4
ENDBRANCH   1   3
BRANCH   1  15
HETATM   15  C10 UNL     1       5.162  -1.197  54.128  1.00  0.00     0.218 C 
BRANCH  15  16
HETATM   16  O4  UNL     1       3.786  -1.321  53.768  1.00  0.00    -0.385 OA
HETATM   17  H   UNL     1       3.717  -1.534  52.824  1.00  0.00     0.210 HD
ENDBRANCH  15  16
BRANCH  15  18
HETATM   18  C11 UNL     1       5.969  -0.481  53.026  1.00  0.00     0.177 C 
BRANCH  18  19
HETATM   19  O5  UNL     1       5.900   0.947  53.171  1.00  0.00    -0.390 OA
HETATM   20  H   UNL     1       5.669   1.168  54.087  1.00  0.00     0.210 HD
ENDBRANCH  18  19
BRANCH  18  21
HETATM   21  C12 UNL     1       7.456  -0.856  53.090  1.00  0.00     0.198 C 
BRANCH  21  22
HETATM   22  O6  UNL     1       8.156  -0.242  52.006  1.00  0.00    -0.398 OA
HETATM   23  H   UNL     1       8.782   0.412  52.355  1.00  0.00     0.209 HD
ENDBRANCH  21  22
ENDBRANCH  18  21
ENDBRANCH  15  18
ENDBRANCH   1  15
TORSDOF 11
ENDMDL
MODEL 9
REMARK VINA RESULT:      -6.2      2.510      6.818
REMARK  11 active torsions:
REMARK  status: ('A' for Active; 'I' for Inactive)
REMARK    1  A    between atoms: C1_1  and  C2_2 
REMARK    2  A    between atoms: C1_1  and  C10_13 
REMARK    3  A    between atoms: C2_2  and  C3_3 
REMARK    4  A    between atoms: C3_3  and  C4_4 
REMARK    5  A    between atoms: C6_6  and  O1_7 
REMARK    6  A    between atoms: C7_8  and  O2_9 
REMARK    7  A    between atoms: C10_13  and  O4_14 
REMARK    8  A    between atoms: C10_13  and  C11_15 
REMARK    9  A    between atoms: C11_15  and  O5_16 
REMARK   10  A    between atoms: C11_15  and  C12_17 
REMARK   11  A    between atoms: C12_17  and  O6_18 
ROOT
HETATM    1  C1  UNL     1       5.319  -0.517  55.555  1.00  0.00     0.158 C 
HETATM    2  O3  UNL     1       4.802   0.584  55.765  1.00  0.00    -0.295 OA
ENDROOT
BRANCH   1   3
HETATM    3  C2  UNL     1       6.096  -1.228  56.649  1.00  0.00     0.086 C 
BRANCH   3   4
HETATM    4  C3  UNL     1       6.496  -2.656  56.287  1.00  0.00     0.046 C 
BRANCH   4   5
HETATM    5  C4  UNL     1       5.844  -3.708  57.154  1.00  0.00    -0.055 A 
HETATM    6  C5  UNL     1       4.777  -4.480  56.665  1.00  0.00     0.046 A 
HETATM    7  C6  UNL     1       4.187  -5.435  57.487  1.00  0.00     0.099 A 
HETATM    8  C7  UNL     1       4.651  -5.634  58.783  1.00  0.00     0.098 A 
HETATM    9  C8  UNL     1       5.705  -4.885  59.281  1.00  0.00     0.040 A 
HETATM   10  C9  UNL     1       6.304  -3.924  58.465  1.00  0.00     0.010 A 
BRANCH   7  11
HETATM   11  O1  UNL     1       3.142  -6.207  57.061  1.00  0.00    -0.358 OA
HETATM   12  H   UNL     1       2.998  -6.337  56.143  1.00  0.00     0.217 HD
ENDBRANCH   7  11
BRANCH   8  13
HETATM   13  O2  UNL     1       4.064  -6.574  59.581  1.00  0.00    -0.358 OA
HETATM   14  H   UNL     1       4.558  -6.985  60.263  1.00  0.00     0.217 HD
ENDBRANCH   8  13
ENDBRANCH   4   5
ENDBRANCH   3   4
ENDBRANCH   1   3
BRANCH   1  15
HETATM   15  C10 UNL     1       5.156  -1.236  54.213  1.00  0.00     0.218 C 
BRANCH  15  16
HETATM   16  O4  UNL     1       3.760  -1.312  53.919  1.00  0.00    -0.385 OA
HETATM   17  H   UNL     1       3.325  -0.492  54.200  1.00  0.00     0.210 HD
ENDBRANCH  15  16
BRANCH  15  18
HETATM   18  C11 UNL     1       5.928  -0.510  53.092  1.00  0.00     0.177 C 
BRANCH  18  19
HETATM   19  O5  UNL     1       5.898   0.915  53.275  1.00  0.00    -0.390 OA
HETATM   20  H   UNL     1       6.557   1.329  52.696  1.00  0.00     0.210 HD
ENDBRANCH  18  19
BRANCH  18  21
HETATM   21  C12 UNL     1       7.407  -0.919  53.077  1.00  0.00     0.198 C 
BRANCH  21  22
HETATM   22  O6  UNL     1       8.119  -0.123  52.128  1.00  0.00    -0.398 OA
HETATM   23  H   UNL     1       9.047  -0.048  52.401  1.00  0.00     0.209 HD
ENDBRANCH  21  22
ENDBRANCH  18  21
ENDBRANCH  15  18
ENDBRANCH   1  15
TORSDOF 11
ENDMDL
