MODEL 1
REMARK VINA RESULT:      -6.7      0.000      0.000
REMARK  11 active torsions:
REMARK  status: ('A' for Active; 'I' for Inactive)
REMARK    1  A    between atoms: C1_1  and  C2_2 
REMARK    2  A    between atoms: C1_1  and  C10_13 
REMARK    3  A    between atoms: C2_2  and  C3_3 
REMARK    4  A    between atoms: C3_3  and  C4_4 
REMARK    5  A    between atoms: C6_6  and  O1_7 
REMARK    6  A    between atoms: C7_8  and  O2_9 
REMARK    7  A    between atoms: C10_13  and  O4_14 
REMARK    8  A    between atoms: C10_13  and  C11_15 
REMARK    9  A    between atoms: C11_15  and  O5_16 
REMARK   10  A    between atoms: C11_15  and  C12_17 
REMARK   11  A    between atoms: C12_17  and  O6_18 
ROOT
HETATM    1  C1  UNL     1       3.480  -9.849  56.791  1.00  0.00     0.158 C 
HETATM    2  O3  UNL     1       3.030 -10.999  56.814  1.00  0.00    -0.295 OA
ENDROOT
BRANCH   1   3
HETATM    3  C2  UNL     1       2.564  -8.668  56.524  1.00  0.00     0.086 C 
BRANCH   3   4
HETATM    4  C3  UNL     1       2.306  -8.416  55.040  1.00  0.00     0.046 C 
BRANCH   4   5
HETATM    5  C4  UNL     1       2.926  -7.139  54.523  1.00  0.00    -0.055 A 
HETATM    6  C5  UNL     1       3.487  -7.084  53.236  1.00  0.00     0.046 A 
HETATM    7  C6  UNL     1       4.062  -5.899  52.787  1.00  0.00     0.099 A 
HETATM    8  C7  UNL     1       4.078  -4.770  53.600  1.00  0.00     0.098 A 
HETATM    9  C8  UNL     1       3.526  -4.805  54.870  1.00  0.00     0.040 A 
HETATM   10  C9  UNL     1       2.948  -5.988  55.331  1.00  0.00     0.010 A 
BRANCH   7  11
HETATM   11  O1  UNL     1       4.626  -5.796  51.545  1.00  0.00    -0.358 OA
HETATM   12  H   UNL     1       4.202  -5.292  50.878  1.00  0.00     0.217 HD
ENDBRANCH   7  11
BRANCH   8  13
HETATM   13  O2  UNL     1       4.645  -3.613  53.149  1.00  0.00    -0.358 OA
HETATM   14  H   UNL     1       5.367  -3.646  52.552  1.00  0.00     0.217 HD
ENDBRANCH   8  13
ENDBRANCH   4   5
ENDBRANCH   3   4
ENDBRANCH   1   3
BRANCH   1  15
HETATM   15  C10 UNL     1       4.954  -9.559  57.081  1.00  0.00     0.218 C 
BRANCH  15  16
HETATM   16  O4  UNL     1       5.140  -8.144  57.058  1.00  0.00    -0.385 OA
HETATM   17  H   UNL     1       5.950  -7.916  57.541  1.00  0.00     0.210 HD
ENDBRANCH  15  16
BRANCH  15  18
HETATM   18  C11 UNL     1       5.386 -10.161  58.435  1.00  0.00     0.177 C 
BRANCH  18  19
HETATM   19  O5  UNL     1       4.273 -10.274  59.336  1.00  0.00    -0.390 OA
HETATM   20  H   UNL     1       4.563 -10.059  60.236  1.00  0.00     0.210 HD
ENDBRANCH  18  19
BRANCH  18  21
HETATM   21  C12 UNL     1       5.955 -11.575  58.262  1.00  0.00     0.198 C 
BRANCH  21  22
HETATM   22  O6  UNL     1       4.946 -12.542  58.563  1.00  0.00    -0.398 OA
HETATM   23  H   UNL     1       4.115 -12.287  58.133  1.00  0.00     0.209 HD
ENDBRANCH  21  22
ENDBRANCH  18  21
ENDBRANCH  15  18
ENDBRANCH   1  15
TORSDOF 11
ENDMDL
MODEL 2
REMARK VINA RESULT:      -6.5      2.663      6.629
REMARK  11 active torsions:
REMARK  status: ('A' for Active; 'I' for Inactive)
REMARK    1  A    between atoms: C1_1  and  C2_2 
REMARK    2  A    between atoms: C1_1  and  C10_13 
REMARK    3  A    between atoms: C2_2  and  C3_3 
REMARK    4  A    between atoms: C3_3  and  C4_4 
REMARK    5  A    between atoms: C6_6  and  O1_7 
REMARK    6  A    between atoms: C7_8  and  O2_9 
REMARK    7  A    between atoms: C10_13  and  O4_14 
REMARK    8  A    between atoms: C10_13  and  C11_15 
REMARK    9  A    between atoms: C11_15  and  O5_16 
REMARK   10  A    between atoms: C11_15  and  C12_17 
REMARK   11  A    between atoms: C12_17  and  O6_18 
ROOT
HETATM    1  C1  UNL     1       3.648  -6.273  55.829  1.00  0.00     0.158 C 
HETATM    2  O3  UNL     1       4.423  -5.856  56.697  1.00  0.00    -0.295 OA
ENDROOT
BRANCH   1   3
HETATM    3  C2  UNL     1       3.169  -7.713  55.848  1.00  0.00     0.086 C 
BRANCH   3   4
HETATM    4  C3  UNL     1       3.421  -8.459  54.541  1.00  0.00     0.046 C 
BRANCH   4   5
HETATM    5  C4  UNL     1       2.522  -9.657  54.341  1.00  0.00    -0.055 A 
HETATM    6  C5  UNL     1       2.209 -10.506  55.416  1.00  0.00     0.046 A 
HETATM    7  C6  UNL     1       1.388 -11.609  55.205  1.00  0.00     0.099 A 
HETATM    8  C7  UNL     1       0.872 -11.872  53.940  1.00  0.00     0.098 A 
HETATM    9  C8  UNL     1       1.166 -11.044  52.869  1.00  0.00     0.040 A 
HETATM   10  C9  UNL     1       1.989  -9.935  53.070  1.00  0.00     0.010 A 
BRANCH   7  11
HETATM   11  O1  UNL     1       1.059 -12.468  56.217  1.00  0.00    -0.358 OA
HETATM   12  H   UNL     1       0.779 -13.341  56.018  1.00  0.00     0.217 HD
ENDBRANCH   7  11
BRANCH   8  13
HETATM   13  O2  UNL     1       0.067 -12.957  53.744  1.00  0.00    -0.358 OA
HETATM   14  H   UNL     1      -0.651 -12.906  53.143  1.00  0.00     0.217 HD
ENDBRANCH   8  13
ENDBRANCH   4   5
ENDBRANCH   3   4
ENDBRANCH   1   3
BRANCH   1  15
HETATM   15  C10 UNL     1       3.098  -5.351  54.738  1.00  0.00     0.218 C 
BRANCH  15  16
HETATM   16  O4  UNL     1       2.375  -4.296  55.373  1.00  0.00    -0.385 OA
HETATM   17  H   UNL     1       2.996  -3.713  55.837  1.00  0.00     0.210 HD
ENDBRANCH  15  16
BRANCH  15  18
HETATM   18  C11 UNL     1       4.230  -4.801  53.847  1.00  0.00     0.177 C 
BRANCH  18  19
HETATM   19  O5  UNL     1       5.501  -5.365  54.208  1.00  0.00    -0.390 OA
HETATM   20  H   UNL     1       5.923  -4.808  54.881  1.00  0.00     0.210 HD
ENDBRANCH  18  19
BRANCH  18  21
HETATM   21  C12 UNL     1       3.999  -5.150  52.371  1.00  0.00     0.198 C 
BRANCH  21  22
HETATM   22  O6  UNL     1       4.345  -4.033  51.550  1.00  0.00    -0.398 OA
HETATM   23  H   UNL     1       3.758  -4.005  50.777  1.00  0.00     0.209 HD
ENDBRANCH  21  22
ENDBRANCH  18  21
ENDBRANCH  15  18
ENDBRANCH   1  15
TORSDOF 11
ENDMDL
MODEL 3
REMARK VINA RESULT:      -6.5      2.297      3.648
REMARK  11 active torsions:
REMARK  status: ('A' for Active; 'I' for Inactive)
REMARK    1  A    between atoms: C1_1  and  C2_2 
REMARK    2  A    between atoms: C1_1  and  C10_13 
REMARK    3  A    between atoms: C2_2  and  C3_3 
REMARK    4  A    between atoms: C3_3  and  C4_4 
REMARK    5  A    between atoms: C6_6  and  O1_7 
REMARK    6  A    between atoms: C7_8  and  O2_9 
REMARK    7  A    between atoms: C10_13  and  O4_14 
REMARK    8  A    between atoms: C10_13  and  C11_15 
REMARK    9  A    between atoms: C11_15  and  O5_16 
REMARK   10  A    between atoms: C11_15  and  C12_17 
REMARK   11  A    between atoms: C12_17  and  O6_18 
ROOT
HETATM    1  C1  UNL     1       2.057  -9.664  55.988  1.00  0.00     0.158 C 
HETATM    2  O3  UNL     1       1.575  -9.529  57.117  1.00  0.00    -0.295 OA
ENDROOT
BRANCH   1   3
HETATM    3  C2  UNL     1       3.561  -9.623  55.779  1.00  0.00     0.086 C 
BRANCH   3   4
HETATM    4  C3  UNL     1       4.238  -8.426  56.442  1.00  0.00     0.046 C 
BRANCH   4   5
HETATM    5  C4  UNL     1       4.294  -7.197  55.566  1.00  0.00    -0.055 A 
HETATM    6  C5  UNL     1       4.652  -7.297  54.211  1.00  0.00     0.046 A 
HETATM    7  C6  UNL     1       4.707  -6.149  53.427  1.00  0.00     0.099 A 
HETATM    8  C7  UNL     1       4.402  -4.906  53.974  1.00  0.00     0.098 A 
HETATM    9  C8  UNL     1       4.042  -4.788  55.306  1.00  0.00     0.040 A 
HETATM   10  C9  UNL     1       3.985  -5.934  56.102  1.00  0.00     0.010 A 
BRANCH   7  11
HETATM   11  O1  UNL     1       5.056  -6.193  52.105  1.00  0.00    -0.358 OA
HETATM   12  H   UNL     1       5.932  -6.419  51.860  1.00  0.00     0.217 HD
ENDBRANCH   7  11
BRANCH   8  13
HETATM   13  O2  UNL     1       4.459  -3.786  53.195  1.00  0.00    -0.358 OA
HETATM   14  H   UNL     1       4.261  -3.840  52.281  1.00  0.00     0.217 HD
ENDBRANCH   8  13
ENDBRANCH   4   5
ENDBRANCH   3   4
ENDBRANCH   1   3
BRANCH   1  15
HETATM   15  C10 UNL     1       1.174  -9.931  54.767  1.00  0.00     0.218 C 
BRANCH  15  16
HETATM   16  O4  UNL     1       2.026 -10.124  53.638  1.00  0.00    -0.385 OA
HETATM   17  H   UNL     1       2.756 -10.715  53.880  1.00  0.00     0.210 HD
ENDBRANCH  15  16
BRANCH  15  18
HETATM   18  C11 UNL     1       0.259 -11.152  54.995  1.00  0.00     0.177 C 
BRANCH  18  19
HETATM   19  O5  UNL     1       0.750 -11.982  56.061  1.00  0.00    -0.390 OA
HETATM   20  H   UNL     1       0.575 -11.551  56.912  1.00  0.00     0.210 HD
ENDBRANCH  18  19
BRANCH  18  21
HETATM   21  C12 UNL     1      -1.159 -10.721  55.393  1.00  0.00     0.198 C 
BRANCH  21  22
HETATM   22  O6  UNL     1      -1.248 -10.605  56.815  1.00  0.00    -0.398 OA
HETATM   23  H   UNL     1      -0.706 -11.294  57.230  1.00  0.00     0.209 HD
ENDBRANCH  21  22
ENDBRANCH  18  21
ENDBRANCH  15  18
ENDBRANCH   1  15
TORSDOF 11
ENDMDL
MODEL 4
REMARK VINA RESULT:      -6.5      2.516      4.877
REMARK  11 active torsions:
REMARK  status: ('A' for Active; 'I' for Inactive)
REMARK    1  A    between atoms: C1_1  and  C2_2 
REMARK    2  A    between atoms: C1_1  and  C10_13 
REMARK    3  A    between atoms: C2_2  and  C3_3 
REMARK    4  A    between atoms: C3_3  and  C4_4 
REMARK    5  A    between atoms: C6_6  and  O1_7 
REMARK    6  A    between atoms: C7_8  and  O2_9 
REMARK    7  A    between atoms: C10_13  and  O4_14 
REMARK    8  A    between atoms: C10_13  and  C11_15 
REMARK    9  A    between atoms: C11_15  and  O5_16 
REMARK   10  A    between atoms: C11_15  and  C12_17 
REMARK   11  A    between atoms: C12_17  and  O6_18 
ROOT
HETATM    1  C1  UNL     1       4.569  -7.801  56.566  1.00  0.00     0.158 C 
HETATM    2  O3  UNL     1       5.037  -6.747  57.007  1.00  0.00    -0.295 OA
ENDROOT
BRANCH   1   3
HETATM    3  C2  UNL     1       3.273  -7.801  55.775  1.00  0.00     0.086 C 
BRANCH   3   4
HETATM    4  C3  UNL     1       3.392  -8.467  54.407  1.00  0.00     0.046 C 
BRANCH   4   5
HETATM    5  C4  UNL     1       2.493  -9.670  54.236  1.00  0.00    -0.055 A 
HETATM    6  C5  UNL     1       2.172 -10.486  55.333  1.00  0.00     0.046 A 
HETATM    7  C6  UNL     1       1.351 -11.594  55.149  1.00  0.00     0.099 A 
HETATM    8  C7  UNL     1       0.843 -11.893  53.888  1.00  0.00     0.098 A 
HETATM    9  C8  UNL     1       1.145 -11.097  52.796  1.00  0.00     0.040 A 
HETATM   10  C9  UNL     1       1.968  -9.984  52.970  1.00  0.00     0.010 A 
BRANCH   7  11
HETATM   11  O1  UNL     1       1.014 -12.423  56.183  1.00  0.00    -0.358 OA
HETATM   12  H   UNL     1       0.115 -12.523  56.430  1.00  0.00     0.217 HD
ENDBRANCH   7  11
BRANCH   8  13
HETATM   13  O2  UNL     1       0.039 -12.984  53.719  1.00  0.00    -0.358 OA
HETATM   14  H   UNL     1       0.307 -13.680  53.152  1.00  0.00     0.217 HD
ENDBRANCH   8  13
ENDBRANCH   4   5
ENDBRANCH   3   4
ENDBRANCH   1   3
BRANCH   1  15
HETATM   15  C10 UNL     1       5.294  -9.136  56.748  1.00  0.00     0.218 C 
BRANCH  15  16
HETATM   16  O4  UNL     1       6.691  -8.912  56.555  1.00  0.00    -0.385 OA
HETATM   17  H   UNL     1       6.901  -7.987  56.757  1.00  0.00     0.210 HD
ENDBRANCH  15  16
BRANCH  15  18
HETATM   18  C11 UNL     1       5.010  -9.743  58.138  1.00  0.00     0.177 C 
BRANCH  18  19
HETATM   19  O5  UNL     1       3.640 -10.160  58.256  1.00  0.00    -0.390 OA
HETATM   20  H   UNL     1       3.181 -10.003  57.416  1.00  0.00     0.210 HD
ENDBRANCH  18  19
BRANCH  18  21
HETATM   21  C12 UNL     1       5.870 -10.988  58.391  1.00  0.00     0.198 C 
BRANCH  21  22
HETATM   22  O6  UNL     1       5.030 -12.134  58.541  1.00  0.00    -0.398 OA
HETATM   23  H   UNL     1       4.181 -11.973  58.100  1.00  0.00     0.209 HD
ENDBRANCH  21  22
ENDBRANCH  18  21
ENDBRANCH  15  18
ENDBRANCH   1  15
TORSDOF 11
ENDMDL
MODEL 5
REMARK VINA RESULT:      -6.5      1.464      5.928
REMARK  11 active torsions:
REMARK  status: ('A' for Active; 'I' for Inactive)
REMARK    1  A    between atoms: C1_1  and  C2_2 
REMARK    2  A    between atoms: C1_1  and  C10_13 
REMARK    3  A    between atoms: C2_2  and  C3_3 
REMARK    4  A    between atoms: C3_3  and  C4_4 
REMARK    5  A    between atoms: C6_6  and  O1_7 
REMARK    6  A    between atoms: C7_8  and  O2_9 
REMARK    7  A    between atoms: C10_13  and  O4_14 
REMARK    8  A    between atoms: C10_13  and  C11_15 
REMARK    9  A    between atoms: C11_15  and  O5_16 
REMARK   10  A    between atoms: C11_15  and  C12_17 
REMARK   11  A    between atoms: C12_17  and  O6_18 
ROOT
HETATM    1  C1  UNL     1       3.404  -6.173  53.034  1.00  0.00     0.158 C 
HETATM    2  O3  UNL     1       2.272  -5.945  52.597  1.00  0.00    -0.295 OA
ENDROOT
BRANCH   1   3
HETATM    3  C2  UNL     1       4.015  -7.558  52.911  1.00  0.00     0.086 C 
BRANCH   3   4
HETATM    4  C3  UNL     1       3.090  -8.678  53.379  1.00  0.00     0.046 C 
BRANCH   4   5
HETATM    5  C4  UNL     1       3.410  -9.194  54.763  1.00  0.00    -0.055 A 
HETATM    6  C5  UNL     1       4.490  -8.669  55.492  1.00  0.00     0.046 A 
HETATM    7  C6  UNL     1       4.771  -9.167  56.760  1.00  0.00     0.099 A 
HETATM    8  C7  UNL     1       3.986 -10.175  57.311  1.00  0.00     0.098 A 
HETATM    9  C8  UNL     1       2.914 -10.701  56.609  1.00  0.00     0.040 A 
HETATM   10  C9  UNL     1       2.624 -10.209  55.336  1.00  0.00     0.010 A 
BRANCH   7  11
HETATM   11  O1  UNL     1       5.815  -8.694  57.507  1.00  0.00    -0.358 OA
HETATM   12  H   UNL     1       6.478  -9.283  57.810  1.00  0.00     0.217 HD
ENDBRANCH   7  11
BRANCH   8  13
HETATM   13  O2  UNL     1       4.271 -10.657  58.556  1.00  0.00    -0.358 OA
HETATM   14  H   UNL     1       5.159 -10.837  58.798  1.00  0.00     0.217 HD
ENDBRANCH   8  13
ENDBRANCH   4   5
ENDBRANCH   3   4
ENDBRANCH   1   3
BRANCH   1  15
HETATM   15  C10 UNL     1       4.258  -5.070  53.663  1.00  0.00     0.218 C 
BRANCH  15  16
HETATM   16  O4  UNL     1       4.462  -4.053  52.681  1.00  0.00    -0.385 OA
HETATM   17  H   UNL     1       3.749  -3.398  52.742  1.00  0.00     0.210 HD
ENDBRANCH  15  16
BRANCH  15  18
HETATM   18  C11 UNL     1       3.589  -4.500  54.931  1.00  0.00     0.177 C 
BRANCH  18  19
HETATM   19  O5  UNL     1       2.245  -4.067  54.664  1.00  0.00    -0.390 OA
HETATM   20  H   UNL     1       2.183  -3.107  54.792  1.00  0.00     0.210 HD
ENDBRANCH  18  19
BRANCH  18  21
HETATM   21  C12 UNL     1       3.496  -5.559  56.038  1.00  0.00     0.198 C 
BRANCH  21  22
HETATM   22  O6  UNL     1       4.786  -5.769  56.616  1.00  0.00    -0.398 OA
HETATM   23  H   UNL     1       4.888  -5.199  57.395  1.00  0.00     0.209 HD
ENDBRANCH  21  22
ENDBRANCH  18  21
ENDBRANCH  15  18
ENDBRANCH   1  15
TORSDOF 11
ENDMDL
MODEL 6
REMARK VINA RESULT:      -6.4      2.613      4.048
REMARK  11 active torsions:
REMARK  status: ('A' for Active; 'I' for Inactive)
REMARK    1  A    between atoms: C1_1  and  C2_2 
REMARK    2  A    between atoms: C1_1  and  C10_13 
REMARK    3  A    between atoms: C2_2  and  C3_3 
REMARK    4  A    between atoms: C3_3  and  C4_4 
REMARK    5  A    between atoms: C6_6  and  O1_7 
REMARK    6  A    between atoms: C7_8  and  O2_9 
REMARK    7  A    between atoms: C10_13  and  O4_14 
REMARK    8  A    between atoms: C10_13  and  C11_15 
REMARK    9  A    between atoms: C11_15  and  O5_16 
REMARK   10  A    between atoms: C11_15  and  C12_17 
REMARK   11  A    between atoms: C12_17  and  O6_18 
ROOT
HETATM    1  C1  UNL     1       1.607 -10.180  55.691  1.00  0.00     0.158 C 
HETATM    2  O3  UNL     1       0.910  -9.536  56.480  1.00  0.00    -0.295 OA
ENDROOT
BRANCH   1   3
HETATM    3  C2  UNL     1       2.998  -9.697  55.317  1.00  0.00     0.086 C 
BRANCH   3   4
HETATM    4  C3  UNL     1       3.493  -8.534  56.172  1.00  0.00     0.046 C 
BRANCH   4   5
HETATM    5  C4  UNL     1       3.767  -7.274  55.386  1.00  0.00    -0.055 A 
HETATM    6  C5  UNL     1       4.341  -7.338  54.106  1.00  0.00     0.046 A 
HETATM    7  C6  UNL     1       4.594  -6.162  53.406  1.00  0.00     0.099 A 
HETATM    8  C7  UNL     1       4.275  -4.928  53.962  1.00  0.00     0.098 A 
HETATM    9  C8  UNL     1       3.703  -4.845  55.221  1.00  0.00     0.040 A 
HETATM   10  C9  UNL     1       3.447  -6.018  55.932  1.00  0.00     0.010 A 
BRANCH   7  11
HETATM   11  O1  UNL     1       5.158  -6.171  52.160  1.00  0.00    -0.358 OA
HETATM   12  H   UNL     1       5.502  -5.378  51.795  1.00  0.00     0.217 HD
ENDBRANCH   7  11
BRANCH   8  13
HETATM   13  O2  UNL     1       4.527  -3.780  53.266  1.00  0.00    -0.358 OA
HETATM   14  H   UNL     1       4.696  -2.981  53.726  1.00  0.00     0.217 HD
ENDBRANCH   8  13
ENDBRANCH   4   5
ENDBRANCH   3   4
ENDBRANCH   1   3
BRANCH   1  15
HETATM   15  C10 UNL     1       1.131 -11.509  55.101  1.00  0.00     0.218 C 
BRANCH  15  16
HETATM   16  O4  UNL     1       1.035 -12.457  56.165  1.00  0.00    -0.385 OA
HETATM   17  H   UNL     1       0.106 -12.559  56.425  1.00  0.00     0.210 HD
ENDBRANCH  15  16
BRANCH  15  18
HETATM   18  C11 UNL     1      -0.219 -11.346  54.372  1.00  0.00     0.177 C 
BRANCH  18  19
HETATM   19  O5  UNL     1      -0.340 -10.041  53.782  1.00  0.00    -0.390 OA
HETATM   20  H   UNL     1      -0.171 -10.101  52.828  1.00  0.00     0.210 HD
ENDBRANCH  18  19
BRANCH  18  21
HETATM   21  C12 UNL     1      -0.362 -12.359  53.228  1.00  0.00     0.198 C 
BRANCH  21  22
HETATM   22  O6  UNL     1       0.719 -13.293  53.272  1.00  0.00    -0.398 OA
HETATM   23  H   UNL     1       1.217 -13.173  54.095  1.00  0.00     0.209 HD
ENDBRANCH  21  22
ENDBRANCH  18  21
ENDBRANCH  15  18
ENDBRANCH   1  15
TORSDOF 11
ENDMDL
MODEL 7
REMARK VINA RESULT:      -6.4      2.133      6.181
REMARK  11 active torsions:
REMARK  status: ('A' for Active; 'I' for Inactive)
REMARK    1  A    between atoms: C1_1  and  C2_2 
REMARK    2  A    between atoms: C1_1  and  C10_13 
REMARK    3  A    between atoms: C2_2  and  C3_3 
REMARK    4  A    between atoms: C3_3  and  C4_4 
REMARK    5  A    between atoms: C6_6  and  O1_7 
REMARK    6  A    between atoms: C7_8  and  O2_9 
REMARK    7  A    between atoms: C10_13  and  O4_14 
REMARK    8  A    between atoms: C10_13  and  C11_15 
REMARK    9  A    between atoms: C11_15  and  O5_16 
REMARK   10  A    between atoms: C11_15  and  C12_17 
REMARK   11  A    between atoms: C12_17  and  O6_18 
ROOT
HETATM    1  C1  UNL     1       3.734  -6.147  53.132  1.00  0.00     0.158 C 
HETATM    2  O3  UNL     1       2.853  -5.783  52.348  1.00  0.00    -0.295 OA
ENDROOT
BRANCH   1   3
HETATM    3  C2  UNL     1       4.083  -7.618  53.273  1.00  0.00     0.086 C 
BRANCH   3   4
HETATM    4  C3  UNL     1       3.045  -8.555  52.660  1.00  0.00     0.046 C 
BRANCH   4   5
HETATM    5  C4  UNL     1       2.503  -9.579  53.629  1.00  0.00    -0.055 A 
HETATM    6  C5  UNL     1       2.997  -9.657  54.942  1.00  0.00     0.046 A 
HETATM    7  C6  UNL     1       2.489 -10.616  55.812  1.00  0.00     0.099 A 
HETATM    8  C7  UNL     1       1.492 -11.492  55.393  1.00  0.00     0.098 A 
HETATM    9  C8  UNL     1       0.990 -11.427  54.104  1.00  0.00     0.040 A 
HETATM   10  C9  UNL     1       1.493 -10.469  53.222  1.00  0.00     0.010 A 
BRANCH   7  11
HETATM   11  O1  UNL     1       2.941 -10.737  57.097  1.00  0.00    -0.358 OA
HETATM   12  H   UNL     1       2.578 -10.199  57.774  1.00  0.00     0.217 HD
ENDBRANCH   7  11
BRANCH   8  13
HETATM   13  O2  UNL     1       1.001 -12.429  56.255  1.00  0.00    -0.358 OA
HETATM   14  H   UNL     1       0.078 -12.495  56.399  1.00  0.00     0.217 HD
ENDBRANCH   8  13
ENDBRANCH   4   5
ENDBRANCH   3   4
ENDBRANCH   1   3
BRANCH   1  15
HETATM   15  C10 UNL     1       4.544  -5.139  53.951  1.00  0.00     0.218 C 
BRANCH  15  16
HETATM   16  O4  UNL     1       4.864  -4.035  53.103  1.00  0.00    -0.385 OA
HETATM   17  H   UNL     1       5.709  -4.204  52.658  1.00  0.00     0.210 HD
ENDBRANCH  15  16
BRANCH  15  18
HETATM   18  C11 UNL     1       3.767  -4.681  55.202  1.00  0.00     0.177 C 
BRANCH  18  19
HETATM   19  O5  UNL     1       2.422  -4.298  54.871  1.00  0.00    -0.390 OA
HETATM   20  H   UNL     1       1.806  -4.708  55.498  1.00  0.00     0.210 HD
ENDBRANCH  18  19
BRANCH  18  21
HETATM   21  C12 UNL     1       3.659  -5.808  56.237  1.00  0.00     0.198 C 
BRANCH  21  22
HETATM   22  O6  UNL     1       4.958  -6.130  56.739  1.00  0.00    -0.398 OA
HETATM   23  H   UNL     1       5.198  -7.028  56.463  1.00  0.00     0.209 HD
ENDBRANCH  21  22
ENDBRANCH  18  21
ENDBRANCH  15  18
ENDBRANCH   1  15
TORSDOF 11
ENDMDL
MODEL 8
REMARK VINA RESULT:      -6.3      1.681      6.097
REMARK  11 active torsions:
REMARK  status: ('A' for Active; 'I' for Inactive)
REMARK    1  A    between atoms: C1_1  and  C2_2 
REMARK    2  A    between atoms: C1_1  and  C10_13 
REMARK    3  A    between atoms: C2_2  and  C3_3 
REMARK    4  A    between atoms: C3_3  and  C4_4 
REMARK    5  A    between atoms: C6_6  and  O1_7 
REMARK    6  A    between atoms: C7_8  and  O2_9 
REMARK    7  A    between atoms: C10_13  and  O4_14 
REMARK    8  A    between atoms: C10_13  and  C11_15 
REMARK    9  A    between atoms: C11_15  and  O5_16 
REMARK   10  A    between atoms: C11_15  and  C12_17 
REMARK   11  A    between atoms: C12_17  and  O6_18 
ROOT
HETATM    1  C1  UNL     1       2.843  -7.339  52.241  1.00  0.00     0.158 C 
HETATM    2  O3  UNL     1       1.685  -6.999  51.982  1.00  0.00    -0.295 OA
ENDROOT
BRANCH   1   3
HETATM    3  C2  UNL     1       3.162  -8.780  52.600  1.00  0.00     0.086 C 
BRANCH   3   4
HETATM    4  C3  UNL     1       2.382  -9.298  53.806  1.00  0.00     0.046 C 
BRANCH   4   5
HETATM    5  C4  UNL     1       3.205  -9.387  55.069  1.00  0.00    -0.055 A 
HETATM    6  C5  UNL     1       4.292  -8.522  55.280  1.00  0.00     0.046 A 
HETATM    7  C6  UNL     1       5.041  -8.631  56.448  1.00  0.00     0.099 A 
HETATM    8  C7  UNL     1       4.716  -9.584  57.408  1.00  0.00     0.098 A 
HETATM    9  C8  UNL     1       3.645 -10.442  57.219  1.00  0.00     0.040 A 
HETATM   10  C9  UNL     1       2.888 -10.342  56.051  1.00  0.00     0.010 A 
BRANCH   7  11
HETATM   11  O1  UNL     1       6.112  -7.817  56.697  1.00  0.00    -0.358 OA
HETATM   12  H   UNL     1       6.420  -7.705  57.575  1.00  0.00     0.217 HD
ENDBRANCH   7  11
BRANCH   8  13
HETATM   13  O2  UNL     1       5.458  -9.682  58.550  1.00  0.00    -0.358 OA
HETATM   14  H   UNL     1       5.931 -10.470  58.735  1.00  0.00     0.217 HD
ENDBRANCH   8  13
ENDBRANCH   4   5
ENDBRANCH   3   4
ENDBRANCH   1   3
BRANCH   1  15
HETATM   15  C10 UNL     1       4.007  -6.349  52.159  1.00  0.00     0.218 C 
BRANCH  15  16
HETATM   16  O4  UNL     1       3.560  -5.198  51.442  1.00  0.00    -0.385 OA
HETATM   17  H   UNL     1       4.174  -4.463  51.594  1.00  0.00     0.210 HD
ENDBRANCH  15  16
BRANCH  15  18
HETATM   18  C11 UNL     1       4.519  -5.971  53.565  1.00  0.00     0.177 C 
BRANCH  18  19
HETATM   19  O5  UNL     1       5.955  -5.994  53.621  1.00  0.00    -0.390 OA
HETATM   20  H   UNL     1       6.277  -6.853  53.307  1.00  0.00     0.210 HD
ENDBRANCH  18  19
BRANCH  18  21
HETATM   21  C12 UNL     1       4.088  -4.551  53.953  1.00  0.00     0.198 C 
BRANCH  21  22
HETATM   22  O6  UNL     1       4.857  -3.594  53.221  1.00  0.00    -0.398 OA
HETATM   23  H   UNL     1       5.521  -3.197  53.806  1.00  0.00     0.209 HD
ENDBRANCH  21  22
ENDBRANCH  18  21
ENDBRANCH  15  18
ENDBRANCH   1  15
TORSDOF 11
ENDMDL
MODEL 9
REMARK VINA RESULT:      -6.2      2.743      6.673
REMARK  11 active torsions:
REMARK  status: ('A' for Active; 'I' for Inactive)
REMARK    1  A    between atoms: C1_1  and  C2_2 
REMARK    2  A    between atoms: C1_1  and  C10_13 
REMARK    3  A    between atoms: C2_2  and  C3_3 
REMARK    4  A    between atoms: C3_3  and  C4_4 
REMARK    5  A    between atoms: C6_6  and  O1_7 
REMARK    6  A    between atoms: C7_8  and  O2_9 
REMARK    7  A    between atoms: C10_13  and  O4_14 
REMARK    8  A    between atoms: C10_13  and  C11_15 
REMARK    9  A    between atoms: C11_15  and  O5_16 
REMARK   10  A    between atoms: C11_15  and  C12_17 
REMARK   11  A    between atoms: C12_17  and  O6_18 
ROOT
HETATM    1  C1  UNL     1       5.391  -7.525  54.342  1.00  0.00     0.158 C 
HETATM    2  O3  UNL     1       6.591  -7.780  54.199  1.00  0.00    -0.295 OA
ENDROOT
BRANCH   1   3
HETATM    3  C2  UNL     1       4.528  -8.364  55.268  1.00  0.00     0.086 C 
BRANCH   3   4
HETATM    4  C3  UNL     1       3.029  -8.185  55.036  1.00  0.00     0.046 C 
BRANCH   4   5
HETATM    5  C4  UNL     1       2.311  -9.466  54.684  1.00  0.00    -0.055 A 
HETATM    6  C5  UNL     1       1.948 -10.384  55.683  1.00  0.00     0.046 A 
HETATM    7  C6  UNL     1       1.297 -11.562  55.332  1.00  0.00     0.099 A 
HETATM    8  C7  UNL     1       0.998 -11.833  54.001  1.00  0.00     0.098 A 
HETATM    9  C8  UNL     1       1.344 -10.937  53.002  1.00  0.00     0.040 A 
HETATM   10  C9  UNL     1       1.998  -9.753  53.343  1.00  0.00     0.010 A 
BRANCH   7  11
HETATM   11  O1  UNL     1       0.929 -12.490  56.267  1.00  0.00    -0.358 OA
HETATM   12  H   UNL     1       0.356 -12.248  56.968  1.00  0.00     0.217 HD
ENDBRANCH   7  11
BRANCH   8  13
HETATM   13  O2  UNL     1       0.359 -12.992  53.667  1.00  0.00    -0.358 OA
HETATM   14  H   UNL     1      -0.525 -13.136  53.943  1.00  0.00     0.217 HD
ENDBRANCH   8  13
ENDBRANCH   4   5
ENDBRANCH   3   4
ENDBRANCH   1   3
BRANCH   1  15
HETATM   15  C10 UNL     1       4.737  -6.331  53.643  1.00  0.00     0.218 C 
BRANCH  15  16
HETATM   16  O4  UNL     1       5.381  -5.142  54.102  1.00  0.00    -0.385 OA
HETATM   17  H   UNL     1       4.993  -4.871  54.949  1.00  0.00     0.210 HD
ENDBRANCH  15  16
BRANCH  15  18
HETATM   18  C11 UNL     1       4.829  -6.463  52.108  1.00  0.00     0.177 C 
BRANCH  18  19
HETATM   19  O5  UNL     1       4.476  -7.786  51.675  1.00  0.00    -0.390 OA
HETATM   20  H   UNL     1       4.063  -7.740  50.798  1.00  0.00     0.210 HD
ENDBRANCH  18  19
BRANCH  18  21
HETATM   21  C12 UNL     1       3.862  -5.500  51.406  1.00  0.00     0.198 C 
BRANCH  21  22
HETATM   22  O6  UNL     1       4.337  -4.158  51.536  1.00  0.00    -0.398 OA
HETATM   23  H   UNL     1       4.407  -3.753  50.657  1.00  0.00     0.209 HD
ENDBRANCH  21  22
ENDBRANCH  18  21
ENDBRANCH  15  18
ENDBRANCH   1  15
TORSDOF 11
ENDMDL
