MODEL 1
REMARK VINA RESULT:      -6.8      0.000      0.000
REMARK  5 active torsions:
REMARK  status: ('A' for Active; 'I' for Inactive)
REMARK    1  A    between atoms: O_1  and  C_10 
REMARK    2  A    between atoms: O_2  and  C_12 
REMARK    3  A    between atoms: C_5  and  C_6 
REMARK    4  A    between atoms: C_5  and  C_7 
REMARK    5  A    between atoms: C_7  and  C_13 
ROOT
HETATM    1  O   UNL     1      21.313  -1.979  29.566  1.00  0.00    -0.358 OA
HETATM    2  H   UNL     1      21.101  -1.066  29.551  1.00  0.00     0.217 HD
ENDROOT
BRANCH   1   3
HETATM    3  C   UNL     1      21.461  -2.623  30.757  1.00  0.00     0.099 A 
HETATM    4  C   UNL     1      21.465  -4.017  30.786  1.00  0.00     0.046 A 
HETATM    5  C   UNL     1      21.615  -4.689  31.999  1.00  0.00    -0.055 A 
HETATM    6  C   UNL     1      21.761  -3.966  33.183  1.00  0.00     0.010 A 
HETATM    7  C   UNL     1      21.757  -2.572  33.154  1.00  0.00     0.040 A 
HETATM    8  C   UNL     1      21.608  -1.900  31.941  1.00  0.00     0.098 A 
BRANCH   5   9
HETATM    9  C   UNL     1      21.620  -6.180  32.030  1.00  0.00     0.049 C 
BRANCH   9  10
HETATM   10  C   UNL     1      22.913  -6.782  32.593  1.00  0.00     0.117 C 
BRANCH  10  11
HETATM   11  C   UNL     1      22.678  -7.466  33.919  1.00  0.00     0.172 C 
HETATM   12  O   UNL     1      21.428  -7.975  34.035  1.00  0.00    -0.648 OA
HETATM   13  O   UNL     1      23.532  -7.573  34.789  1.00  0.00    -0.648 OA
ENDBRANCH  10  11
ENDBRANCH   9  10
ENDBRANCH   5   9
BRANCH   8  14
HETATM   14  O   UNL     1      21.603  -0.538  31.924  1.00  0.00    -0.358 OA
HETATM   15  H   UNL     1      20.993  -0.065  32.456  1.00  0.00     0.217 HD
ENDBRANCH   8  14
ENDBRANCH   1   3
TORSDOF 5
ENDMDL
MODEL 2
REMARK VINA RESULT:      -6.7      1.130      2.251
REMARK  5 active torsions:
REMARK  status: ('A' for Active; 'I' for Inactive)
REMARK    1  A    between atoms: O_1  and  C_10 
REMARK    2  A    between atoms: O_2  and  C_12 
REMARK    3  A    between atoms: C_5  and  C_6 
REMARK    4  A    between atoms: C_5  and  C_7 
REMARK    5  A    between atoms: C_7  and  C_13 
ROOT
HETATM    1  O   UNL     1      22.412  -2.538  34.891  1.00  0.00    -0.358 OA
HETATM    2  H   UNL     1      23.316  -2.402  35.096  1.00  0.00     0.217 HD
ENDROOT
BRANCH   1   3
HETATM    3  C   UNL     1      22.054  -2.990  33.657  1.00  0.00     0.099 A 
HETATM    4  C   UNL     1      22.080  -4.359  33.394  1.00  0.00     0.046 A 
HETATM    5  C   UNL     1      21.717  -4.834  32.134  1.00  0.00    -0.055 A 
HETATM    6  C   UNL     1      21.327  -3.940  31.137  1.00  0.00     0.010 A 
HETATM    7  C   UNL     1      21.301  -2.571  31.400  1.00  0.00     0.040 A 
HETATM    8  C   UNL     1      21.664  -2.095  32.660  1.00  0.00     0.098 A 
BRANCH   5   9
HETATM    9  C   UNL     1      21.744  -6.299  31.853  1.00  0.00     0.049 C 
BRANCH   9  10
HETATM   10  C   UNL     1      22.904  -7.036  32.534  1.00  0.00     0.117 C 
BRANCH  10  11
HETATM   11  C   UNL     1      22.491  -7.615  33.866  1.00  0.00     0.172 C 
HETATM   12  O   UNL     1      23.482  -7.570  34.790  1.00  0.00    -0.648 OA
HETATM   13  O   UNL     1      21.373  -8.056  34.099  1.00  0.00    -0.648 OA
ENDBRANCH  10  11
ENDBRANCH   9  10
ENDBRANCH   5   9
BRANCH   8  14
HETATM   14  O   UNL     1      21.637  -0.756  32.905  1.00  0.00    -0.358 OA
HETATM   15  H   UNL     1      21.105  -0.194  32.376  1.00  0.00     0.217 HD
ENDBRANCH   8  14
ENDBRANCH   1   3
TORSDOF 5
ENDMDL
MODEL 3
REMARK VINA RESULT:      -6.7      3.249      4.290
REMARK  5 active torsions:
REMARK  status: ('A' for Active; 'I' for Inactive)
REMARK    1  A    between atoms: O_1  and  C_10 
REMARK    2  A    between atoms: O_2  and  C_12 
REMARK    3  A    between atoms: C_5  and  C_6 
REMARK    4  A    between atoms: C_5  and  C_7 
REMARK    5  A    between atoms: C_7  and  C_13 
ROOT
HETATM    1  O   UNL     1      18.999  -2.048  29.043  1.00  0.00    -0.358 OA
HETATM    2  H   UNL     1      19.220  -1.183  28.759  1.00  0.00     0.217 HD
ENDROOT
BRANCH   1   3
HETATM    3  C   UNL     1      19.772  -2.677  29.971  1.00  0.00     0.099 A 
HETATM    4  C   UNL     1      20.239  -1.962  31.073  1.00  0.00     0.046 A 
HETATM    5  C   UNL     1      21.032  -2.596  32.030  1.00  0.00    -0.055 A 
HETATM    6  C   UNL     1      21.356  -3.945  31.885  1.00  0.00     0.010 A 
HETATM    7  C   UNL     1      20.889  -4.660  30.783  1.00  0.00     0.040 A 
HETATM    8  C   UNL     1      20.096  -4.026  29.826  1.00  0.00     0.098 A 
BRANCH   5   9
HETATM    9  C   UNL     1      21.532  -1.831  33.209  1.00  0.00     0.049 C 
BRANCH   9  10
HETATM   10  C   UNL     1      22.191  -2.708  34.280  1.00  0.00     0.117 C 
BRANCH  10  11
HETATM   11  C   UNL     1      22.753  -1.880  35.411  1.00  0.00     0.172 C 
HETATM   12  O   UNL     1      23.694  -0.996  35.000  1.00  0.00    -0.648 OA
HETATM   13  O   UNL     1      22.382  -1.976  36.573  1.00  0.00    -0.648 OA
ENDBRANCH  10  11
ENDBRANCH   9  10
ENDBRANCH   5   9
BRANCH   8  14
HETATM   14  O   UNL     1      19.646  -4.734  28.753  1.00  0.00    -0.358 OA
HETATM   15  H   UNL     1      19.908  -4.489  27.887  1.00  0.00     0.217 HD
ENDBRANCH   8  14
ENDBRANCH   1   3
TORSDOF 5
ENDMDL
MODEL 4
REMARK VINA RESULT:      -6.6      2.225      5.036
REMARK  5 active torsions:
REMARK  status: ('A' for Active; 'I' for Inactive)
REMARK    1  A    between atoms: O_1  and  C_10 
REMARK    2  A    between atoms: O_2  and  C_12 
REMARK    3  A    between atoms: C_5  and  C_6 
REMARK    4  A    between atoms: C_5  and  C_7 
REMARK    5  A    between atoms: C_7  and  C_13 
ROOT
HETATM    1  O   UNL     1      22.629  -6.435  33.882  1.00  0.00    -0.358 OA
HETATM    2  H   UNL     1      22.033  -7.047  34.267  1.00  0.00     0.217 HD
ENDROOT
BRANCH   1   3
HETATM    3  C   UNL     1      22.162  -5.452  33.062  1.00  0.00     0.099 A 
HETATM    4  C   UNL     1      22.125  -4.137  33.522  1.00  0.00     0.046 A 
HETATM    5  C   UNL     1      21.648  -3.121  32.693  1.00  0.00    -0.055 A 
HETATM    6  C   UNL     1      21.210  -3.423  31.403  1.00  0.00     0.010 A 
HETATM    7  C   UNL     1      21.247  -4.738  30.943  1.00  0.00     0.040 A 
HETATM    8  C   UNL     1      21.724  -5.754  31.772  1.00  0.00     0.098 A 
BRANCH   5   9
HETATM    9  C   UNL     1      21.608  -1.714  33.185  1.00  0.00     0.049 C 
BRANCH   9  10
HETATM   10  C   UNL     1      21.255  -1.590  34.672  1.00  0.00     0.117 C 
BRANCH  10  11
HETATM   11  C   UNL     1      22.477  -1.306  35.513  1.00  0.00     0.172 C 
HETATM   12  O   UNL     1      23.561  -0.972  34.772  1.00  0.00    -0.648 OA
HETATM   13  O   UNL     1      22.484  -1.347  36.736  1.00  0.00    -0.648 OA
ENDBRANCH  10  11
ENDBRANCH   9  10
ENDBRANCH   5   9
BRANCH   8  14
HETATM   14  O   UNL     1      21.754  -7.036  31.314  1.00  0.00    -0.358 OA
HETATM   15  H   UNL     1      22.550  -7.529  31.355  1.00  0.00     0.217 HD
ENDBRANCH   8  14
ENDBRANCH   1   3
TORSDOF 5
ENDMDL
MODEL 5
REMARK VINA RESULT:      -6.5      2.460      5.146
REMARK  5 active torsions:
REMARK  status: ('A' for Active; 'I' for Inactive)
REMARK    1  A    between atoms: O_1  and  C_10 
REMARK    2  A    between atoms: O_2  and  C_12 
REMARK    3  A    between atoms: C_5  and  C_6 
REMARK    4  A    between atoms: C_5  and  C_7 
REMARK    5  A    between atoms: C_7  and  C_13 
ROOT
HETATM    1  O   UNL     1      21.664  -0.807  33.040  1.00  0.00    -0.358 OA
HETATM    2  H   UNL     1      22.421  -0.311  32.798  1.00  0.00     0.217 HD
ENDROOT
BRANCH   1   3
HETATM    3  C   UNL     1      21.559  -2.114  32.667  1.00  0.00     0.099 A 
HETATM    4  C   UNL     1      21.005  -2.430  31.428  1.00  0.00     0.046 A 
HETATM    5  C   UNL     1      20.890  -3.764  31.035  1.00  0.00    -0.055 A 
HETATM    6  C   UNL     1      21.330  -4.780  31.883  1.00  0.00     0.010 A 
HETATM    7  C   UNL     1      21.884  -4.464  33.122  1.00  0.00     0.040 A 
HETATM    8  C   UNL     1      21.999  -3.130  33.515  1.00  0.00     0.098 A 
BRANCH   5   9
HETATM    9  C   UNL     1      20.298  -4.102  29.709  1.00  0.00     0.049 C 
BRANCH   9  10
HETATM   10  C   UNL     1      19.262  -3.083  29.217  1.00  0.00     0.117 C 
BRANCH  10  11
HETATM   11  C   UNL     1      19.739  -2.353  27.985  1.00  0.00     0.172 C 
HETATM   12  O   UNL     1      18.741  -1.703  27.338  1.00  0.00    -0.648 OA
HETATM   13  O   UNL     1      20.907  -2.326  27.620  1.00  0.00    -0.648 OA
ENDBRANCH  10  11
ENDBRANCH   9  10
ENDBRANCH   5   9
BRANCH   8  14
HETATM   14  O   UNL     1      22.540  -2.833  34.729  1.00  0.00    -0.358 OA
HETATM   15  H   UNL     1      22.400  -1.988  35.110  1.00  0.00     0.217 HD
ENDBRANCH   8  14
ENDBRANCH   1   3
TORSDOF 5
ENDMDL
MODEL 6
REMARK VINA RESULT:      -6.4      0.953      2.099
REMARK  5 active torsions:
REMARK  status: ('A' for Active; 'I' for Inactive)
REMARK    1  A    between atoms: O_1  and  C_10 
REMARK    2  A    between atoms: O_2  and  C_12 
REMARK    3  A    between atoms: C_5  and  C_6 
REMARK    4  A    between atoms: C_5  and  C_7 
REMARK    5  A    between atoms: C_7  and  C_13 
ROOT
HETATM    1  O   UNL     1      21.258  -0.813  31.663  1.00  0.00    -0.358 OA
HETATM    2  H   UNL     1      22.103  -0.418  31.576  1.00  0.00     0.217 HD
ENDROOT
BRANCH   1   3
HETATM    3  C   UNL     1      21.120  -2.162  31.533  1.00  0.00     0.099 A 
HETATM    4  C   UNL     1      21.786  -3.008  32.419  1.00  0.00     0.046 A 
HETATM    5  C   UNL     1      21.654  -4.391  32.296  1.00  0.00    -0.055 A 
HETATM    6  C   UNL     1      20.855  -4.928  31.287  1.00  0.00     0.010 A 
HETATM    7  C   UNL     1      20.189  -4.082  30.401  1.00  0.00     0.040 A 
HETATM    8  C   UNL     1      20.321  -2.699  30.524  1.00  0.00     0.098 A 
BRANCH   5   9
HETATM    9  C   UNL     1      22.366  -5.295  33.245  1.00  0.00     0.049 C 
BRANCH   9  10
HETATM   10  C   UNL     1      22.289  -6.778  32.860  1.00  0.00     0.117 C 
BRANCH  10  11
HETATM   11  C   UNL     1      22.245  -7.668  34.078  1.00  0.00     0.172 C 
HETATM   12  O   UNL     1      23.401  -7.653  34.784  1.00  0.00    -0.648 OA
HETATM   13  O   UNL     1      21.262  -8.317  34.411  1.00  0.00    -0.648 OA
ENDBRANCH  10  11
ENDBRANCH   9  10
ENDBRANCH   5   9
BRANCH   8  14
HETATM   14  O   UNL     1      19.667  -1.883  29.651  1.00  0.00    -0.358 OA
HETATM   15  H   UNL     1      18.751  -1.719  29.760  1.00  0.00     0.217 HD
ENDBRANCH   8  14
ENDBRANCH   1   3
TORSDOF 5
ENDMDL
MODEL 7
REMARK VINA RESULT:      -6.4      2.178      5.423
REMARK  5 active torsions:
REMARK  status: ('A' for Active; 'I' for Inactive)
REMARK    1  A    between atoms: O_1  and  C_10 
REMARK    2  A    between atoms: O_2  and  C_12 
REMARK    3  A    between atoms: C_5  and  C_6 
REMARK    4  A    between atoms: C_5  and  C_7 
REMARK    5  A    between atoms: C_7  and  C_13 
ROOT
HETATM    1  O   UNL     1      22.664  -5.263  33.836  1.00  0.00    -0.358 OA
HETATM    2  H   UNL     1      22.928  -6.035  33.376  1.00  0.00     0.217 HD
ENDROOT
BRANCH   1   3
HETATM    3  C   UNL     1      22.050  -4.247  33.168  1.00  0.00     0.099 A 
HETATM    4  C   UNL     1      21.522  -4.482  31.899  1.00  0.00     0.046 A 
HETATM    5  C   UNL     1      20.892  -3.449  31.204  1.00  0.00    -0.055 A 
HETATM    6  C   UNL     1      20.789  -2.183  31.780  1.00  0.00     0.010 A 
HETATM    7  C   UNL     1      21.317  -1.948  33.049  1.00  0.00     0.040 A 
HETATM    8  C   UNL     1      21.947  -2.981  33.743  1.00  0.00     0.098 A 
BRANCH   5   9
HETATM    9  C   UNL     1      20.327  -3.700  29.847  1.00  0.00     0.049 C 
BRANCH   9  10
HETATM   10  C   UNL     1      19.327  -2.632  29.387  1.00  0.00     0.117 C 
BRANCH  10  11
HETATM   11  C   UNL     1      19.593  -2.195  27.966  1.00  0.00     0.172 C 
HETATM   12  O   UNL     1      20.790  -2.623  27.499  1.00  0.00    -0.648 OA
HETATM   13  O   UNL     1      18.801  -1.545  27.296  1.00  0.00    -0.648 OA
ENDBRANCH  10  11
ENDBRANCH   9  10
ENDBRANCH   5   9
BRANCH   8  14
HETATM   14  O   UNL     1      22.461  -2.740  34.982  1.00  0.00    -0.358 OA
HETATM   15  H   UNL     1      22.159  -3.234  35.718  1.00  0.00     0.217 HD
ENDBRANCH   8  14
ENDBRANCH   1   3
TORSDOF 5
ENDMDL
MODEL 8
REMARK VINA RESULT:      -6.4      1.546      1.654
REMARK  5 active torsions:
REMARK  status: ('A' for Active; 'I' for Inactive)
REMARK    1  A    between atoms: O_1  and  C_10 
REMARK    2  A    between atoms: O_2  and  C_12 
REMARK    3  A    between atoms: C_5  and  C_6 
REMARK    4  A    between atoms: C_5  and  C_7 
REMARK    5  A    between atoms: C_7  and  C_13 
ROOT
HETATM    1  O   UNL     1      21.303  -1.987  29.624  1.00  0.00    -0.358 OA
HETATM    2  H   UNL     1      21.893  -1.300  29.385  1.00  0.00     0.217 HD
ENDROOT
BRANCH   1   3
HETATM    3  C   UNL     1      21.455  -2.632  30.815  1.00  0.00     0.099 A 
HETATM    4  C   UNL     1      21.444  -4.025  30.846  1.00  0.00     0.046 A 
HETATM    5  C   UNL     1      21.598  -4.697  32.059  1.00  0.00    -0.055 A 
HETATM    6  C   UNL     1      21.763  -3.974  33.240  1.00  0.00     0.010 A 
HETATM    7  C   UNL     1      21.774  -2.580  33.209  1.00  0.00     0.040 A 
HETATM    8  C   UNL     1      21.620  -1.908  31.996  1.00  0.00     0.098 A 
BRANCH   5   9
HETATM    9  C   UNL     1      21.587  -6.188  32.092  1.00  0.00     0.049 C 
BRANCH   9  10
HETATM   10  C   UNL     1      22.921  -6.806  32.526  1.00  0.00     0.117 C 
BRANCH  10  11
HETATM   11  C   UNL     1      23.537  -7.634  31.424  1.00  0.00     0.172 C 
HETATM   12  O   UNL     1      22.863  -7.536  30.252  1.00  0.00    -0.648 OA
HETATM   13  O   UNL     1      24.552  -8.303  31.562  1.00  0.00    -0.648 OA
ENDBRANCH  10  11
ENDBRANCH   9  10
ENDBRANCH   5   9
BRANCH   8  14
HETATM   14  O   UNL     1      21.631  -0.546  31.978  1.00  0.00    -0.358 OA
HETATM   15  H   UNL     1      22.158  -0.073  32.592  1.00  0.00     0.217 HD
ENDBRANCH   8  14
ENDBRANCH   1   3
TORSDOF 5
ENDMDL
MODEL 9
REMARK VINA RESULT:      -6.3      1.402      1.841
REMARK  5 active torsions:
REMARK  status: ('A' for Active; 'I' for Inactive)
REMARK    1  A    between atoms: O_1  and  C_10 
REMARK    2  A    between atoms: O_2  and  C_12 
REMARK    3  A    between atoms: C_5  and  C_6 
REMARK    4  A    between atoms: C_5  and  C_7 
REMARK    5  A    between atoms: C_7  and  C_13 
ROOT
HETATM    1  O   UNL     1      19.615  -4.577  29.148  1.00  0.00    -0.358 OA
HETATM    2  H   UNL     1      19.809  -5.477  28.973  1.00  0.00     0.217 HD
ENDROOT
BRANCH   1   3
HETATM    3  C   UNL     1      20.165  -3.960  30.231  1.00  0.00     0.099 A 
HETATM    4  C   UNL     1      20.948  -4.700  31.117  1.00  0.00     0.046 A 
HETATM    5  C   UNL     1      21.516  -4.080  32.230  1.00  0.00    -0.055 A 
HETATM    6  C   UNL     1      21.301  -2.720  32.456  1.00  0.00     0.010 A 
HETATM    7  C   UNL     1      20.518  -1.981  31.570  1.00  0.00     0.040 A 
HETATM    8  C   UNL     1      19.951  -2.601  30.457  1.00  0.00     0.098 A 
BRANCH   5   9
HETATM    9  C   UNL     1      22.353  -4.871  33.178  1.00  0.00     0.049 C 
BRANCH   9  10
HETATM   10  C   UNL     1      22.659  -6.293  32.692  1.00  0.00     0.117 C 
BRANCH  10  11
HETATM   11  C   UNL     1      22.516  -7.304  33.804  1.00  0.00     0.172 C 
HETATM   12  O   UNL     1      21.321  -7.944  33.784  1.00  0.00    -0.648 OA
HETATM   13  O   UNL     1      23.393  -7.543  34.623  1.00  0.00    -0.648 OA
ENDBRANCH  10  11
ENDBRANCH   9  10
ENDBRANCH   5   9
BRANCH   8  14
HETATM   14  O   UNL     1      19.186  -1.869  29.599  1.00  0.00    -0.358 OA
HETATM   15  H   UNL     1      18.926  -2.234  28.776  1.00  0.00     0.217 HD
ENDBRANCH   8  14
ENDBRANCH   1   3
TORSDOF 5
ENDMDL
