MODEL 1
REMARK VINA RESULT:      -6.8      0.000      0.000
REMARK  5 active torsions:
REMARK  status: ('A' for Active; 'I' for Inactive)
REMARK    1  A    between atoms: O_1  and  C_10 
REMARK    2  A    between atoms: O_2  and  C_12 
REMARK    3  A    between atoms: C_5  and  C_6 
REMARK    4  A    between atoms: C_5  and  C_7 
REMARK    5  A    between atoms: C_7  and  C_13 
ROOT
HETATM    1  O   UNL     1      21.344  -1.994  29.595  1.00  0.00    -0.358 OA
HETATM    2  H   UNL     1      21.449  -2.472  28.796  1.00  0.00     0.217 HD
ENDROOT
BRANCH   1   3
HETATM    3  C   UNL     1      21.477  -2.631  30.792  1.00  0.00     0.099 A 
HETATM    4  C   UNL     1      21.478  -4.025  30.831  1.00  0.00     0.046 A 
HETATM    5  C   UNL     1      21.612  -4.689  32.050  1.00  0.00    -0.055 A 
HETATM    6  C   UNL     1      21.747  -3.958  33.230  1.00  0.00     0.010 A 
HETATM    7  C   UNL     1      21.746  -2.564  33.192  1.00  0.00     0.040 A 
HETATM    8  C   UNL     1      21.612  -1.900  31.973  1.00  0.00     0.098 A 
BRANCH   5   9
HETATM    9  C   UNL     1      21.613  -6.180  32.091  1.00  0.00     0.049 C 
BRANCH   9  10
HETATM   10  C   UNL     1      22.919  -6.782  32.623  1.00  0.00     0.117 C 
BRANCH  10  11
HETATM   11  C   UNL     1      22.715  -7.473  33.950  1.00  0.00     0.172 C 
HETATM   12  O   UNL     1      21.480  -8.018  34.075  1.00  0.00    -0.648 OA
HETATM   13  O   UNL     1      23.578  -7.556  34.814  1.00  0.00    -0.648 OA
ENDBRANCH  10  11
ENDBRANCH   9  10
ENDBRANCH   5   9
BRANCH   8  14
HETATM   14  O   UNL     1      21.611  -0.539  31.947  1.00  0.00    -0.358 OA
HETATM   15  H   UNL     1      20.808  -0.068  32.060  1.00  0.00     0.217 HD
ENDBRANCH   8  14
ENDBRANCH   1   3
TORSDOF 5
ENDMDL
MODEL 2
REMARK VINA RESULT:      -6.7      1.127      2.243
REMARK  5 active torsions:
REMARK  status: ('A' for Active; 'I' for Inactive)
REMARK    1  A    between atoms: O_1  and  C_10 
REMARK    2  A    between atoms: O_2  and  C_12 
REMARK    3  A    between atoms: C_5  and  C_6 
REMARK    4  A    between atoms: C_5  and  C_7 
REMARK    5  A    between atoms: C_7  and  C_13 
ROOT
HETATM    1  O   UNL     1      22.414  -2.542  34.900  1.00  0.00    -0.358 OA
HETATM    2  H   UNL     1      22.885  -3.102  35.485  1.00  0.00     0.217 HD
ENDROOT
BRANCH   1   3
HETATM    3  C   UNL     1      22.058  -2.993  33.665  1.00  0.00     0.099 A 
HETATM    4  C   UNL     1      22.091  -4.362  33.399  1.00  0.00     0.046 A 
HETATM    5  C   UNL     1      21.730  -4.836  32.138  1.00  0.00    -0.055 A 
HETATM    6  C   UNL     1      21.335  -3.941  31.143  1.00  0.00     0.010 A 
HETATM    7  C   UNL     1      21.303  -2.573  31.409  1.00  0.00     0.040 A 
HETATM    8  C   UNL     1      21.664  -2.098  32.670  1.00  0.00     0.098 A 
BRANCH   5   9
HETATM    9  C   UNL     1      21.764  -6.300  31.854  1.00  0.00     0.049 C 
BRANCH   9  10
HETATM   10  C   UNL     1      22.922  -7.034  32.540  1.00  0.00     0.117 C 
BRANCH  10  11
HETATM   11  C   UNL     1      22.504  -7.614  33.871  1.00  0.00     0.172 C 
HETATM   12  O   UNL     1      23.488  -7.559  34.802  1.00  0.00    -0.648 OA
HETATM   13  O   UNL     1      21.388  -8.063  34.097  1.00  0.00    -0.648 OA
ENDBRANCH  10  11
ENDBRANCH   9  10
ENDBRANCH   5   9
BRANCH   8  14
HETATM   14  O   UNL     1      21.630  -0.760  32.918  1.00  0.00    -0.358 OA
HETATM   15  H   UNL     1      22.404  -0.243  32.810  1.00  0.00     0.217 HD
ENDBRANCH   8  14
ENDBRANCH   1   3
TORSDOF 5
ENDMDL
MODEL 3
REMARK VINA RESULT:      -6.7      3.241      4.290
REMARK  5 active torsions:
REMARK  status: ('A' for Active; 'I' for Inactive)
REMARK    1  A    between atoms: O_1  and  C_10 
REMARK    2  A    between atoms: O_2  and  C_12 
REMARK    3  A    between atoms: C_5  and  C_6 
REMARK    4  A    between atoms: C_5  and  C_7 
REMARK    5  A    between atoms: C_7  and  C_13 
ROOT
HETATM    1  O   UNL     1      19.020  -2.057  29.048  1.00  0.00    -0.358 OA
HETATM    2  H   UNL     1      19.111  -2.257  28.137  1.00  0.00     0.217 HD
ENDROOT
BRANCH   1   3
HETATM    3  C   UNL     1      19.801  -2.692  29.966  1.00  0.00     0.099 A 
HETATM    4  C   UNL     1      20.317  -1.971  31.042  1.00  0.00     0.046 A 
HETATM    5  C   UNL     1      21.119  -2.609  31.988  1.00  0.00    -0.055 A 
HETATM    6  C   UNL     1      21.405  -3.968  31.857  1.00  0.00     0.010 A 
HETATM    7  C   UNL     1      20.890  -4.689  30.781  1.00  0.00     0.040 A 
HETATM    8  C   UNL     1      20.088  -4.051  29.835  1.00  0.00     0.098 A 
BRANCH   5   9
HETATM    9  C   UNL     1      21.670  -1.838  33.140  1.00  0.00     0.049 C 
BRANCH   9  10
HETATM   10  C   UNL     1      22.129  -2.719  34.309  1.00  0.00     0.117 C 
BRANCH  10  11
HETATM   11  C   UNL     1      22.720  -1.895  35.428  1.00  0.00     0.172 C 
HETATM   12  O   UNL     1      23.627  -0.987  34.993  1.00  0.00    -0.648 OA
HETATM   13  O   UNL     1      22.397  -2.014  36.603  1.00  0.00    -0.648 OA
ENDBRANCH  10  11
ENDBRANCH   9  10
ENDBRANCH   5   9
BRANCH   8  14
HETATM   14  O   UNL     1      19.591  -4.764  28.786  1.00  0.00    -0.358 OA
HETATM   15  H   UNL     1      19.534  -5.698  28.839  1.00  0.00     0.217 HD
ENDBRANCH   8  14
ENDBRANCH   1   3
TORSDOF 5
ENDMDL
MODEL 4
REMARK VINA RESULT:      -6.6      2.176      5.054
REMARK  5 active torsions:
REMARK  status: ('A' for Active; 'I' for Inactive)
REMARK    1  A    between atoms: O_1  and  C_10 
REMARK    2  A    between atoms: O_2  and  C_12 
REMARK    3  A    between atoms: C_5  and  C_6 
REMARK    4  A    between atoms: C_5  and  C_7 
REMARK    5  A    between atoms: C_7  and  C_13 
ROOT
HETATM    1  O   UNL     1      22.528  -6.516  33.961  1.00  0.00    -0.358 OA
HETATM    2  H   UNL     1      23.087  -7.201  33.651  1.00  0.00     0.217 HD
ENDROOT
BRANCH   1   3
HETATM    3  C   UNL     1      22.106  -5.542  33.107  1.00  0.00     0.099 A 
HETATM    4  C   UNL     1      22.101  -4.214  33.530  1.00  0.00     0.046 A 
HETATM    5  C   UNL     1      21.670  -3.208  32.665  1.00  0.00    -0.055 A 
HETATM    6  C   UNL     1      21.245  -3.531  31.376  1.00  0.00     0.010 A 
HETATM    7  C   UNL     1      21.251  -4.860  30.953  1.00  0.00     0.040 A 
HETATM    8  C   UNL     1      21.681  -5.866  31.818  1.00  0.00     0.098 A 
BRANCH   5   9
HETATM    9  C   UNL     1      21.665  -1.787  33.118  1.00  0.00     0.049 C 
BRANCH   9  10
HETATM   10  C   UNL     1      21.261  -1.609  34.587  1.00  0.00     0.117 C 
BRANCH  10  11
HETATM   11  C   UNL     1      22.453  -1.293  35.459  1.00  0.00     0.172 C 
HETATM   12  O   UNL     1      23.591  -1.108  34.747  1.00  0.00    -0.648 OA
HETATM   13  O   UNL     1      22.396  -1.188  36.677  1.00  0.00    -0.648 OA
ENDBRANCH  10  11
ENDBRANCH   9  10
ENDBRANCH   5   9
BRANCH   8  14
HETATM   14  O   UNL     1      21.681  -7.160  31.394  1.00  0.00    -0.358 OA
HETATM   15  H   UNL     1      21.481  -7.361  30.501  1.00  0.00     0.217 HD
ENDBRANCH   8  14
ENDBRANCH   1   3
TORSDOF 5
ENDMDL
MODEL 5
REMARK VINA RESULT:      -6.5      2.462      5.174
REMARK  5 active torsions:
REMARK  status: ('A' for Active; 'I' for Inactive)
REMARK    1  A    between atoms: O_1  and  C_10 
REMARK    2  A    between atoms: O_2  and  C_12 
REMARK    3  A    between atoms: C_5  and  C_6 
REMARK    4  A    between atoms: C_5  and  C_7 
REMARK    5  A    between atoms: C_7  and  C_13 
ROOT
HETATM    1  O   UNL     1      21.638  -0.816  33.059  1.00  0.00    -0.358 OA
HETATM    2  H   UNL     1      22.477  -0.449  33.257  1.00  0.00     0.217 HD
ENDROOT
BRANCH   1   3
HETATM    3  C   UNL     1      21.538  -2.120  32.677  1.00  0.00     0.099 A 
HETATM    4  C   UNL     1      20.965  -2.431  31.444  1.00  0.00     0.046 A 
HETATM    5  C   UNL     1      20.856  -3.762  31.042  1.00  0.00    -0.055 A 
HETATM    6  C   UNL     1      21.320  -4.782  31.874  1.00  0.00     0.010 A 
HETATM    7  C   UNL     1      21.892  -4.471  33.106  1.00  0.00     0.040 A 
HETATM    8  C   UNL     1      22.001  -3.139  33.508  1.00  0.00     0.098 A 
BRANCH   5   9
HETATM    9  C   UNL     1      20.244  -4.094  29.723  1.00  0.00     0.049 C 
BRANCH   9  10
HETATM   10  C   UNL     1      19.240  -3.047  29.227  1.00  0.00     0.117 C 
BRANCH  10  11
HETATM   11  C   UNL     1      19.716  -2.374  27.962  1.00  0.00     0.172 C 
HETATM   12  O   UNL     1      18.704  -1.830  27.242  1.00  0.00    -0.648 OA
HETATM   13  O   UNL     1      20.892  -2.303  27.630  1.00  0.00    -0.648 OA
ENDBRANCH  10  11
ENDBRANCH   9  10
ENDBRANCH   5   9
BRANCH   8  14
HETATM   14  O   UNL     1      22.560  -2.847  34.715  1.00  0.00    -0.358 OA
HETATM   15  H   UNL     1      22.707  -3.529  35.341  1.00  0.00     0.217 HD
ENDBRANCH   8  14
ENDBRANCH   1   3
TORSDOF 5
ENDMDL
MODEL 6
REMARK VINA RESULT:      -6.5      1.154      2.097
REMARK  5 active torsions:
REMARK  status: ('A' for Active; 'I' for Inactive)
REMARK    1  A    between atoms: O_1  and  C_10 
REMARK    2  A    between atoms: O_2  and  C_12 
REMARK    3  A    between atoms: C_5  and  C_6 
REMARK    4  A    between atoms: C_5  and  C_7 
REMARK    5  A    between atoms: C_7  and  C_13 
ROOT
HETATM    1  O   UNL     1      21.310  -0.856  31.841  1.00  0.00    -0.358 OA
HETATM    2  H   UNL     1      21.677  -0.318  31.168  1.00  0.00     0.217 HD
ENDROOT
BRANCH   1   3
HETATM    3  C   UNL     1      21.148  -2.192  31.632  1.00  0.00     0.099 A 
HETATM    4  C   UNL     1      21.763  -3.101  32.493  1.00  0.00     0.046 A 
HETATM    5  C   UNL     1      21.606  -4.471  32.289  1.00  0.00    -0.055 A 
HETATM    6  C   UNL     1      20.833  -4.933  31.224  1.00  0.00     0.010 A 
HETATM    7  C   UNL     1      20.218  -4.025  30.363  1.00  0.00     0.040 A 
HETATM    8  C   UNL     1      20.375  -2.654  30.567  1.00  0.00     0.098 A 
BRANCH   5   9
HETATM    9  C   UNL     1      22.263  -5.443  33.210  1.00  0.00     0.049 C 
BRANCH   9  10
HETATM   10  C   UNL     1      22.875  -6.654  32.496  1.00  0.00     0.117 C 
BRANCH  10  11
HETATM   11  C   UNL     1      23.632  -7.542  33.454  1.00  0.00     0.172 C 
HETATM   12  O   UNL     1      24.415  -8.451  32.823  1.00  0.00    -0.648 OA
HETATM   13  O   UNL     1      23.568  -7.440  34.672  1.00  0.00    -0.648 OA
ENDBRANCH  10  11
ENDBRANCH   9  10
ENDBRANCH   5   9
BRANCH   8  14
HETATM   14  O   UNL     1      19.771  -1.776  29.719  1.00  0.00    -0.358 OA
HETATM   15  H   UNL     1      19.663  -0.880  29.971  1.00  0.00     0.217 HD
ENDBRANCH   8  14
ENDBRANCH   1   3
TORSDOF 5
ENDMDL
MODEL 7
REMARK VINA RESULT:      -6.4      1.683      2.502
REMARK  5 active torsions:
REMARK  status: ('A' for Active; 'I' for Inactive)
REMARK    1  A    between atoms: O_1  and  C_10 
REMARK    2  A    between atoms: O_2  and  C_12 
REMARK    3  A    between atoms: C_5  and  C_6 
REMARK    4  A    between atoms: C_5  and  C_7 
REMARK    5  A    between atoms: C_7  and  C_13 
ROOT
HETATM    1  O   UNL     1      22.488  -2.659  34.893  1.00  0.00    -0.358 OA
HETATM    2  H   UNL     1      21.886  -2.564  35.604  1.00  0.00     0.217 HD
ENDROOT
BRANCH   1   3
HETATM    3  C   UNL     1      22.042  -3.068  33.673  1.00  0.00     0.099 A 
HETATM    4  C   UNL     1      22.012  -4.430  33.374  1.00  0.00     0.046 A 
HETATM    5  C   UNL     1      21.558  -4.861  32.128  1.00  0.00    -0.055 A 
HETATM    6  C   UNL     1      21.134  -3.929  31.180  1.00  0.00     0.010 A 
HETATM    7  C   UNL     1      21.165  -2.568  31.478  1.00  0.00     0.040 A 
HETATM    8  C   UNL     1      21.618  -2.137  32.725  1.00  0.00     0.098 A 
BRANCH   5   9
HETATM    9  C   UNL     1      21.526  -6.317  31.809  1.00  0.00     0.049 C 
BRANCH   9  10
HETATM   10  C   UNL     1      22.802  -6.830  31.131  1.00  0.00     0.117 C 
BRANCH  10  11
HETATM   11  C   UNL     1      23.631  -7.674  32.068  1.00  0.00     0.172 C 
HETATM   12  O   UNL     1      24.618  -8.353  31.433  1.00  0.00    -0.648 OA
HETATM   13  O   UNL     1      23.452  -7.724  33.278  1.00  0.00    -0.648 OA
ENDBRANCH  10  11
ENDBRANCH   9  10
ENDBRANCH   5   9
BRANCH   8  14
HETATM   14  O   UNL     1      21.645  -0.804  33.005  1.00  0.00    -0.358 OA
HETATM   15  H   UNL     1      21.156  -0.204  32.476  1.00  0.00     0.217 HD
ENDBRANCH   8  14
ENDBRANCH   1   3
TORSDOF 5
ENDMDL
MODEL 8
REMARK VINA RESULT:      -6.4      2.186      5.427
REMARK  5 active torsions:
REMARK  status: ('A' for Active; 'I' for Inactive)
REMARK    1  A    between atoms: O_1  and  C_10 
REMARK    2  A    between atoms: O_2  and  C_12 
REMARK    3  A    between atoms: C_5  and  C_6 
REMARK    4  A    between atoms: C_5  and  C_7 
REMARK    5  A    between atoms: C_7  and  C_13 
ROOT
HETATM    1  O   UNL     1      22.658  -5.255  33.848  1.00  0.00    -0.358 OA
HETATM    2  H   UNL     1      22.910  -6.035  33.396  1.00  0.00     0.217 HD
ENDROOT
BRANCH   1   3
HETATM    3  C   UNL     1      22.037  -4.247  33.175  1.00  0.00     0.099 A 
HETATM    4  C   UNL     1      21.493  -4.497  31.916  1.00  0.00     0.046 A 
HETATM    5  C   UNL     1      20.855  -3.472  31.215  1.00  0.00    -0.055 A 
HETATM    6  C   UNL     1      20.762  -2.198  31.776  1.00  0.00     0.010 A 
HETATM    7  C   UNL     1      21.306  -1.948  33.035  1.00  0.00     0.040 A 
HETATM    8  C   UNL     1      21.943  -2.972  33.735  1.00  0.00     0.098 A 
BRANCH   5   9
HETATM    9  C   UNL     1      20.273  -3.740  29.869  1.00  0.00     0.049 C 
BRANCH   9  10
HETATM   10  C   UNL     1      19.295  -2.659  29.393  1.00  0.00     0.117 C 
BRANCH  10  11
HETATM   11  C   UNL     1      19.597  -2.215  27.982  1.00  0.00     0.172 C 
HETATM   12  O   UNL     1      20.887  -2.430  27.627  1.00  0.00    -0.648 OA
HETATM   13  O   UNL     1      18.762  -1.735  27.226  1.00  0.00    -0.648 OA
ENDBRANCH  10  11
ENDBRANCH   9  10
ENDBRANCH   5   9
BRANCH   8  14
HETATM   14  O   UNL     1      22.472  -2.716  34.963  1.00  0.00    -0.358 OA
HETATM   15  H   UNL     1      23.295  -2.273  35.036  1.00  0.00     0.217 HD
ENDBRANCH   8  14
ENDBRANCH   1   3
TORSDOF 5
ENDMDL
MODEL 9
REMARK VINA RESULT:      -6.4      1.438      1.532
REMARK  5 active torsions:
REMARK  status: ('A' for Active; 'I' for Inactive)
REMARK    1  A    between atoms: O_1  and  C_10 
REMARK    2  A    between atoms: O_2  and  C_12 
REMARK    3  A    between atoms: C_5  and  C_6 
REMARK    4  A    between atoms: C_5  and  C_7 
REMARK    5  A    between atoms: C_7  and  C_13 
ROOT
HETATM    1  O   UNL     1      21.089  -2.252  29.630  1.00  0.00    -0.358 OA
HETATM    2  H   UNL     1      21.355  -2.735  28.872  1.00  0.00     0.217 HD
ENDROOT
BRANCH   1   3
HETATM    3  C   UNL     1      21.340  -2.746  30.875  1.00  0.00     0.099 A 
HETATM    4  C   UNL     1      21.347  -4.125  31.077  1.00  0.00     0.046 A 
HETATM    5  C   UNL     1      21.601  -4.642  32.347  1.00  0.00    -0.055 A 
HETATM    6  C   UNL     1      21.848  -3.779  33.415  1.00  0.00     0.010 A 
HETATM    7  C   UNL     1      21.841  -2.399  33.212  1.00  0.00     0.040 A 
HETATM    8  C   UNL     1      21.587  -1.882  31.942  1.00  0.00     0.098 A 
BRANCH   5   9
HETATM    9  C   UNL     1      21.609  -6.118  32.564  1.00  0.00     0.049 C 
BRANCH   9  10
HETATM   10  C   UNL     1      23.005  -6.697  32.819  1.00  0.00     0.117 C 
BRANCH  10  11
HETATM   11  C   UNL     1      23.445  -7.606  31.697  1.00  0.00     0.172 C 
HETATM   12  O   UNL     1      22.603  -7.580  30.636  1.00  0.00    -0.648 OA
HETATM   13  O   UNL     1      24.468  -8.279  31.728  1.00  0.00    -0.648 OA
ENDBRANCH  10  11
ENDBRANCH   9  10
ENDBRANCH   5   9
BRANCH   8  14
HETATM   14  O   UNL     1      21.581  -0.533  31.756  1.00  0.00    -0.358 OA
HETATM   15  H   UNL     1      22.299  -0.014  32.062  1.00  0.00     0.217 HD
ENDBRANCH   8  14
ENDBRANCH   1   3
TORSDOF 5
ENDMDL
