MODEL 1
REMARK VINA RESULT:      -6.8      0.000      0.000
REMARK  5 active torsions:
REMARK  status: ('A' for Active; 'I' for Inactive)
REMARK    1  A    between atoms: O_1  and  C_10 
REMARK    2  A    between atoms: O_2  and  C_12 
REMARK    3  A    between atoms: C_5  and  C_6 
REMARK    4  A    between atoms: C_5  and  C_7 
REMARK    5  A    between atoms: C_7  and  C_13 
ROOT
HETATM    1  O   UNL     1      21.257  -2.002  29.611  1.00  0.00    -0.358 OA
HETATM    2  H   UNL     1      21.914  -1.412  29.298  1.00  0.00     0.217 HD
ENDROOT
BRANCH   1   3
HETATM    3  C   UNL     1      21.430  -2.646  30.799  1.00  0.00     0.099 A 
HETATM    4  C   UNL     1      21.422  -4.039  30.831  1.00  0.00     0.046 A 
HETATM    5  C   UNL     1      21.597  -4.710  32.041  1.00  0.00    -0.055 A 
HETATM    6  C   UNL     1      21.781  -3.986  33.220  1.00  0.00     0.010 A 
HETATM    7  C   UNL     1      21.788  -2.592  33.188  1.00  0.00     0.040 A 
HETATM    8  C   UNL     1      21.613  -1.921  31.977  1.00  0.00     0.098 A 
BRANCH   5   9
HETATM    9  C   UNL     1      21.589  -6.201  32.075  1.00  0.00     0.049 C 
BRANCH   9  10
HETATM   10  C   UNL     1      22.894  -6.814  32.599  1.00  0.00     0.117 C 
BRANCH  10  11
HETATM   11  C   UNL     1      22.700  -7.474  33.943  1.00  0.00     0.172 C 
HETATM   12  O   UNL     1      21.470  -8.024  34.087  1.00  0.00    -0.648 OA
HETATM   13  O   UNL     1      23.568  -7.530  34.804  1.00  0.00    -0.648 OA
ENDBRANCH  10  11
ENDBRANCH   9  10
ENDBRANCH   5   9
BRANCH   8  14
HETATM   14  O   UNL     1      21.621  -0.560  31.958  1.00  0.00    -0.358 OA
HETATM   15  H   UNL     1      21.418  -0.101  31.166  1.00  0.00     0.217 HD
ENDBRANCH   8  14
ENDBRANCH   1   3
TORSDOF 5
ENDMDL
MODEL 2
REMARK VINA RESULT:      -6.8      1.186      2.212
REMARK  5 active torsions:
REMARK  status: ('A' for Active; 'I' for Inactive)
REMARK    1  A    between atoms: O_1  and  C_10 
REMARK    2  A    between atoms: O_2  and  C_12 
REMARK    3  A    between atoms: C_5  and  C_6 
REMARK    4  A    between atoms: C_5  and  C_7 
REMARK    5  A    between atoms: C_7  and  C_13 
ROOT
HETATM    1  O   UNL     1      22.364  -1.122  34.281  1.00  0.00    -0.358 OA
HETATM    2  H   UNL     1      21.775  -0.894  34.972  1.00  0.00     0.217 HD
ENDROOT
BRANCH   1   3
HETATM    3  C   UNL     1      22.036  -2.111  33.403  1.00  0.00     0.099 A 
HETATM    4  C   UNL     1      22.097  -3.441  33.816  1.00  0.00     0.046 A 
HETATM    5  C   UNL     1      21.764  -4.463  32.926  1.00  0.00    -0.055 A 
HETATM    6  C   UNL     1      21.370  -4.153  31.625  1.00  0.00     0.010 A 
HETATM    7  C   UNL     1      21.309  -2.823  31.212  1.00  0.00     0.040 A 
HETATM    8  C   UNL     1      21.641  -1.801  32.102  1.00  0.00     0.098 A 
BRANCH   5   9
HETATM    9  C   UNL     1      21.829  -5.886  33.368  1.00  0.00     0.049 C 
BRANCH   9  10
HETATM   10  C   UNL     1      22.634  -6.789  32.425  1.00  0.00     0.117 C 
BRANCH  10  11
HETATM   11  C   UNL     1      23.659  -7.605  33.174  1.00  0.00     0.172 C 
HETATM   12  O   UNL     1      23.602  -7.420  34.515  1.00  0.00    -0.648 OA
HETATM   13  O   UNL     1      24.445  -8.373  32.633  1.00  0.00    -0.648 OA
ENDBRANCH  10  11
ENDBRANCH   9  10
ENDBRANCH   5   9
BRANCH   8  14
HETATM   14  O   UNL     1      21.580  -0.505  31.688  1.00  0.00    -0.358 OA
HETATM   15  H   UNL     1      20.752  -0.118  31.481  1.00  0.00     0.217 HD
ENDBRANCH   8  14
ENDBRANCH   1   3
TORSDOF 5
ENDMDL
MODEL 3
REMARK VINA RESULT:      -6.6      2.222      5.021
REMARK  5 active torsions:
REMARK  status: ('A' for Active; 'I' for Inactive)
REMARK    1  A    between atoms: O_1  and  C_10 
REMARK    2  A    between atoms: O_2  and  C_12 
REMARK    3  A    between atoms: C_5  and  C_6 
REMARK    4  A    between atoms: C_5  and  C_7 
REMARK    5  A    between atoms: C_7  and  C_13 
ROOT
HETATM    1  O   UNL     1      22.649  -6.374  33.884  1.00  0.00    -0.358 OA
HETATM    2  H   UNL     1      22.190  -7.188  33.953  1.00  0.00     0.217 HD
ENDROOT
BRANCH   1   3
HETATM    3  C   UNL     1      22.193  -5.404  33.044  1.00  0.00     0.099 A 
HETATM    4  C   UNL     1      22.084  -4.093  33.505  1.00  0.00     0.046 A 
HETATM    5  C   UNL     1      21.617  -3.090  32.655  1.00  0.00    -0.055 A 
HETATM    6  C   UNL     1      21.260  -3.400  31.342  1.00  0.00     0.010 A 
HETATM    7  C   UNL     1      21.369  -4.711  30.881  1.00  0.00     0.040 A 
HETATM    8  C   UNL     1      21.836  -5.714  31.731  1.00  0.00     0.098 A 
BRANCH   5   9
HETATM    9  C   UNL     1      21.501  -1.688  33.149  1.00  0.00     0.049 C 
BRANCH   9  10
HETATM   10  C   UNL     1      21.291  -1.583  34.664  1.00  0.00     0.117 C 
BRANCH  10  11
HETATM   11  C   UNL     1      22.573  -1.233  35.382  1.00  0.00     0.172 C 
HETATM   12  O   UNL     1      22.387  -0.983  36.701  1.00  0.00    -0.648 OA
HETATM   13  O   UNL     1      23.670  -1.202  34.839  1.00  0.00    -0.648 OA
ENDBRANCH  10  11
ENDBRANCH   9  10
ENDBRANCH   5   9
BRANCH   8  14
HETATM   14  O   UNL     1      21.936  -6.991  31.270  1.00  0.00    -0.358 OA
HETATM   15  H   UNL     1      22.387  -7.165  30.467  1.00  0.00     0.217 HD
ENDBRANCH   8  14
ENDBRANCH   1   3
TORSDOF 5
ENDMDL
MODEL 4
REMARK VINA RESULT:      -6.5      2.476      5.088
REMARK  5 active torsions:
REMARK  status: ('A' for Active; 'I' for Inactive)
REMARK    1  A    between atoms: O_1  and  C_10 
REMARK    2  A    between atoms: O_2  and  C_12 
REMARK    3  A    between atoms: C_5  and  C_6 
REMARK    4  A    between atoms: C_5  and  C_7 
REMARK    5  A    between atoms: C_7  and  C_13 
ROOT
HETATM    1  O   UNL     1      21.636  -0.802  33.006  1.00  0.00    -0.358 OA
HETATM    2  H   UNL     1      21.929  -0.538  33.856  1.00  0.00     0.217 HD
ENDROOT
BRANCH   1   3
HETATM    3  C   UNL     1      21.574  -2.126  32.688  1.00  0.00     0.099 A 
HETATM    4  C   UNL     1      21.047  -2.510  31.456  1.00  0.00     0.046 A 
HETATM    5  C   UNL     1      20.977  -3.862  31.119  1.00  0.00    -0.055 A 
HETATM    6  C   UNL     1      21.436  -4.828  32.014  1.00  0.00     0.010 A 
HETATM    7  C   UNL     1      21.963  -4.444  33.246  1.00  0.00     0.040 A 
HETATM    8  C   UNL     1      22.033  -3.092  33.583  1.00  0.00     0.098 A 
BRANCH   5   9
HETATM    9  C   UNL     1      20.412  -4.274  29.801  1.00  0.00     0.049 C 
BRANCH   9  10
HETATM   10  C   UNL     1      19.201  -3.442  29.362  1.00  0.00     0.117 C 
BRANCH  10  11
HETATM   11  C   UNL     1      19.455  -2.737  28.051  1.00  0.00     0.172 C 
HETATM   12  O   UNL     1      20.774  -2.598  27.774  1.00  0.00    -0.648 OA
HETATM   13  O   UNL     1      18.566  -2.353  27.301  1.00  0.00    -0.648 OA
ENDBRANCH  10  11
ENDBRANCH   9  10
ENDBRANCH   5   9
BRANCH   8  14
HETATM   14  O   UNL     1      22.549  -2.727  34.790  1.00  0.00    -0.358 OA
HETATM   15  H   UNL     1      22.065  -2.892  35.575  1.00  0.00     0.217 HD
ENDBRANCH   8  14
ENDBRANCH   1   3
TORSDOF 5
ENDMDL
MODEL 5
REMARK VINA RESULT:      -6.4      2.194      5.412
REMARK  5 active torsions:
REMARK  status: ('A' for Active; 'I' for Inactive)
REMARK    1  A    between atoms: O_1  and  C_10 
REMARK    2  A    between atoms: O_2  and  C_12 
REMARK    3  A    between atoms: C_5  and  C_6 
REMARK    4  A    between atoms: C_5  and  C_7 
REMARK    5  A    between atoms: C_7  and  C_13 
ROOT
HETATM    1  O   UNL     1      22.673  -5.288  33.925  1.00  0.00    -0.358 OA
HETATM    2  H   UNL     1      23.374  -5.762  33.525  1.00  0.00     0.217 HD
ENDROOT
BRANCH   1   3
HETATM    3  C   UNL     1      22.090  -4.249  33.264  1.00  0.00     0.099 A 
HETATM    4  C   UNL     1      21.529  -4.464  32.006  1.00  0.00     0.046 A 
HETATM    5  C   UNL     1      20.931  -3.407  31.319  1.00  0.00    -0.055 A 
HETATM    6  C   UNL     1      20.892  -2.136  31.893  1.00  0.00     0.010 A 
HETATM    7  C   UNL     1      21.452  -1.921  33.151  1.00  0.00     0.040 A 
HETATM    8  C   UNL     1      22.051  -2.978  33.838  1.00  0.00     0.098 A 
BRANCH   5   9
HETATM    9  C   UNL     1      20.331  -3.638  29.973  1.00  0.00     0.049 C 
BRANCH   9  10
HETATM   10  C   UNL     1      19.410  -2.504  29.506  1.00  0.00     0.117 C 
BRANCH  10  11
HETATM   11  C   UNL     1      19.517  -2.277  28.017  1.00  0.00     0.172 C 
HETATM   12  O   UNL     1      20.498  -3.014  27.441  1.00  0.00    -0.648 OA
HETATM   13  O   UNL     1      18.782  -1.527  27.388  1.00  0.00    -0.648 OA
ENDBRANCH  10  11
ENDBRANCH   9  10
ENDBRANCH   5   9
BRANCH   8  14
HETATM   14  O   UNL     1      22.596  -2.756  35.066  1.00  0.00    -0.358 OA
HETATM   15  H   UNL     1      23.028  -3.453  35.519  1.00  0.00     0.217 HD
ENDBRANCH   8  14
ENDBRANCH   1   3
TORSDOF 5
ENDMDL
MODEL 6
REMARK VINA RESULT:      -6.4      2.891      4.357
REMARK  5 active torsions:
REMARK  status: ('A' for Active; 'I' for Inactive)
REMARK    1  A    between atoms: O_1  and  C_10 
REMARK    2  A    between atoms: O_2  and  C_12 
REMARK    3  A    between atoms: C_5  and  C_6 
REMARK    4  A    between atoms: C_5  and  C_7 
REMARK    5  A    between atoms: C_7  and  C_13 
ROOT
HETATM    1  O   UNL     1      19.289  -3.168  29.069  1.00  0.00    -0.358 OA
HETATM    2  H   UNL     1      18.683  -3.827  28.793  1.00  0.00     0.217 HD
ENDROOT
BRANCH   1   3
HETATM    3  C   UNL     1      20.096  -3.391  30.144  1.00  0.00     0.099 A 
HETATM    4  C   UNL     1      20.420  -2.331  30.989  1.00  0.00     0.046 A 
HETATM    5  C   UNL     1      21.245  -2.546  32.093  1.00  0.00    -0.055 A 
HETATM    6  C   UNL     1      21.746  -3.822  32.351  1.00  0.00     0.010 A 
HETATM    7  C   UNL     1      21.421  -4.883  31.505  1.00  0.00     0.040 A 
HETATM    8  C   UNL     1      20.596  -4.668  30.402  1.00  0.00     0.098 A 
BRANCH   5   9
HETATM    9  C   UNL     1      21.592  -1.412  32.997  1.00  0.00     0.049 C 
BRANCH   9  10
HETATM   10  C   UNL     1      21.300  -1.690  34.476  1.00  0.00     0.117 C 
BRANCH  10  11
HETATM   11  C   UNL     1      22.549  -1.591  35.319  1.00  0.00     0.172 C 
HETATM   12  O   UNL     1      22.383  -2.090  36.568  1.00  0.00    -0.648 OA
HETATM   13  O   UNL     1      23.609  -1.132  34.913  1.00  0.00    -0.648 OA
ENDBRANCH  10  11
ENDBRANCH   9  10
ENDBRANCH   5   9
BRANCH   8  14
HETATM   14  O   UNL     1      20.287  -5.710  29.582  1.00  0.00    -0.358 OA
HETATM   15  H   UNL     1      20.662  -5.759  28.724  1.00  0.00     0.217 HD
ENDBRANCH   8  14
ENDBRANCH   1   3
TORSDOF 5
ENDMDL
MODEL 7
REMARK VINA RESULT:      -6.4      1.549      1.854
REMARK  5 active torsions:
REMARK  status: ('A' for Active; 'I' for Inactive)
REMARK    1  A    between atoms: O_1  and  C_10 
REMARK    2  A    between atoms: O_2  and  C_12 
REMARK    3  A    between atoms: C_5  and  C_6 
REMARK    4  A    between atoms: C_5  and  C_7 
REMARK    5  A    between atoms: C_7  and  C_13 
ROOT
HETATM    1  O   UNL     1      21.292  -2.204  29.564  1.00  0.00    -0.358 OA
HETATM    2  H   UNL     1      21.382  -1.281  29.434  1.00  0.00     0.217 HD
ENDROOT
BRANCH   1   3
HETATM    3  C   UNL     1      21.447  -2.736  30.808  1.00  0.00     0.099 A 
HETATM    4  C   UNL     1      21.437  -4.121  30.968  1.00  0.00     0.046 A 
HETATM    5  C   UNL     1      21.594  -4.678  32.238  1.00  0.00    -0.055 A 
HETATM    6  C   UNL     1      21.763  -3.848  33.347  1.00  0.00     0.010 A 
HETATM    7  C   UNL     1      21.773  -2.463  33.186  1.00  0.00     0.040 A 
HETATM    8  C   UNL     1      21.616  -1.907  31.917  1.00  0.00     0.098 A 
BRANCH   5   9
HETATM    9  C   UNL     1      21.583  -6.159  32.409  1.00  0.00     0.049 C 
BRANCH   9  10
HETATM   10  C   UNL     1      22.980  -6.773  32.563  1.00  0.00     0.117 C 
BRANCH  10  11
HETATM   11  C   UNL     1      23.384  -7.555  31.335  1.00  0.00     0.172 C 
HETATM   12  O   UNL     1      24.534  -8.250  31.508  1.00  0.00    -0.648 OA
HETATM   13  O   UNL     1      22.730  -7.581  30.300  1.00  0.00    -0.648 OA
ENDBRANCH  10  11
ENDBRANCH   9  10
ENDBRANCH   5   9
BRANCH   8  14
HETATM   14  O   UNL     1      21.626  -0.553  31.773  1.00  0.00    -0.358 OA
HETATM   15  H   UNL     1      20.857  -0.054  31.970  1.00  0.00     0.217 HD
ENDBRANCH   8  14
ENDBRANCH   1   3
TORSDOF 5
ENDMDL
MODEL 8
REMARK VINA RESULT:      -6.3      1.395      2.045
REMARK  5 active torsions:
REMARK  status: ('A' for Active; 'I' for Inactive)
REMARK    1  A    between atoms: O_1  and  C_10 
REMARK    2  A    between atoms: O_2  and  C_12 
REMARK    3  A    between atoms: C_5  and  C_6 
REMARK    4  A    between atoms: C_5  and  C_7 
REMARK    5  A    between atoms: C_7  and  C_13 
ROOT
HETATM    1  O   UNL     1      19.683  -4.572  29.079  1.00  0.00    -0.358 OA
HETATM    2  H   UNL     1      20.164  -4.581  28.275  1.00  0.00     0.217 HD
ENDROOT
BRANCH   1   3
HETATM    3  C   UNL     1      20.208  -3.962  30.179  1.00  0.00     0.099 A 
HETATM    4  C   UNL     1      20.981  -4.704  31.071  1.00  0.00     0.046 A 
HETATM    5  C   UNL     1      21.522  -4.092  32.201  1.00  0.00    -0.055 A 
HETATM    6  C   UNL     1      21.290  -2.737  32.438  1.00  0.00     0.010 A 
HETATM    7  C   UNL     1      20.517  -1.995  31.546  1.00  0.00     0.040 A 
HETATM    8  C   UNL     1      19.976  -2.607  30.416  1.00  0.00     0.098 A 
BRANCH   5   9
HETATM    9  C   UNL     1      22.350  -4.885  33.155  1.00  0.00     0.049 C 
BRANCH   9  10
HETATM   10  C   UNL     1      22.632  -6.317  32.684  1.00  0.00     0.117 C 
BRANCH  10  11
HETATM   11  C   UNL     1      22.419  -7.321  33.792  1.00  0.00     0.172 C 
HETATM   12  O   UNL     1      23.477  -7.409  34.633  1.00  0.00    -0.648 OA
HETATM   13  O   UNL     1      21.390  -7.969  33.934  1.00  0.00    -0.648 OA
ENDBRANCH  10  11
ENDBRANCH   9  10
ENDBRANCH   5   9
BRANCH   8  14
HETATM   14  O   UNL     1      19.220  -1.873  29.553  1.00  0.00    -0.358 OA
HETATM   15  H   UNL     1      19.248  -0.937  29.585  1.00  0.00     0.217 HD
ENDBRANCH   8  14
ENDBRANCH   1   3
TORSDOF 5
ENDMDL
MODEL 9
REMARK VINA RESULT:      -6.3      2.059      2.881
REMARK  5 active torsions:
REMARK  status: ('A' for Active; 'I' for Inactive)
REMARK    1  A    between atoms: O_1  and  C_10 
REMARK    2  A    between atoms: O_2  and  C_12 
REMARK    3  A    between atoms: C_5  and  C_6 
REMARK    4  A    between atoms: C_5  and  C_7 
REMARK    5  A    between atoms: C_7  and  C_13 
ROOT
HETATM    1  O   UNL     1      22.453  -2.659  34.948  1.00  0.00    -0.358 OA
HETATM    2  H   UNL     1      23.023  -3.199  35.458  1.00  0.00     0.217 HD
ENDROOT
BRANCH   1   3
HETATM    3  C   UNL     1      22.039  -3.076  33.719  1.00  0.00     0.099 A 
HETATM    4  C   UNL     1      22.043  -4.437  33.420  1.00  0.00     0.046 A 
HETATM    5  C   UNL     1      21.623  -4.877  32.164  1.00  0.00    -0.055 A 
HETATM    6  C   UNL     1      21.197  -3.954  31.209  1.00  0.00     0.010 A 
HETATM    7  C   UNL     1      21.193  -2.592  31.508  1.00  0.00     0.040 A 
HETATM    8  C   UNL     1      21.614  -2.153  32.763  1.00  0.00     0.098 A 
BRANCH   5   9
HETATM    9  C   UNL     1      21.627  -6.334  31.845  1.00  0.00     0.049 C 
BRANCH   9  10
HETATM   10  C   UNL     1      22.928  -7.047  32.231  1.00  0.00     0.117 C 
BRANCH  10  11
HETATM   11  C   UNL     1      23.555  -7.743  31.047  1.00  0.00     0.172 C 
HETATM   12  O   UNL     1      24.723  -8.358  31.355  1.00  0.00    -0.648 OA
HETATM   13  O   UNL     1      23.052  -7.774  29.931  1.00  0.00    -0.648 OA
ENDBRANCH  10  11
ENDBRANCH   9  10
ENDBRANCH   5   9
BRANCH   8  14
HETATM   14  O   UNL     1      21.607  -0.820  33.044  1.00  0.00    -0.358 OA
HETATM   15  H   UNL     1      21.783  -0.524  33.916  1.00  0.00     0.217 HD
ENDBRANCH   8  14
ENDBRANCH   1   3
TORSDOF 5
ENDMDL
