MODEL 1
REMARK VINA RESULT:      -6.2      0.000      0.000
REMARK  5 active torsions:
REMARK  status: ('A' for Active; 'I' for Inactive)
REMARK    1  A    between atoms: O_1  and  C_10 
REMARK    2  A    between atoms: O_2  and  C_12 
REMARK    3  A    between atoms: C_5  and  C_6 
REMARK    4  A    between atoms: C_5  and  C_7 
REMARK    5  A    between atoms: C_7  and  C_13 
ROOT
HETATM    1  O   UNL     1      16.039   7.602   6.605  1.00  0.00    -0.358 OA
HETATM    2  H   UNL     1      16.776   7.062   6.397  1.00  0.00     0.217 HD
ENDROOT
BRANCH   1   3
HETATM    3  C   UNL     1      15.247   7.291   7.669  1.00  0.00     0.099 A 
HETATM    4  C   UNL     1      13.869   7.179   7.487  1.00  0.00     0.046 A 
HETATM    5  C   UNL     1      13.047   6.862   8.569  1.00  0.00    -0.055 A 
HETATM    6  C   UNL     1      13.603   6.657   9.831  1.00  0.00     0.010 A 
HETATM    7  C   UNL     1      14.981   6.770  10.013  1.00  0.00     0.040 A 
HETATM    8  C   UNL     1      15.803   7.086   8.931  1.00  0.00     0.098 A 
BRANCH   5   9
HETATM    9  C   UNL     1      11.573   6.742   8.374  1.00  0.00     0.049 C 
BRANCH   9  10
HETATM   10  C   UNL     1      11.109   7.068   6.949  1.00  0.00     0.117 C 
BRANCH  10  11
HETATM   11  C   UNL     1      10.822   5.816   6.156  1.00  0.00     0.172 C 
HETATM   12  O   UNL     1      10.085   4.912   6.847  1.00  0.00    -0.648 OA
HETATM   13  O   UNL     1      11.191   5.643   5.002  1.00  0.00    -0.648 OA
ENDBRANCH  10  11
ENDBRANCH   9  10
ENDBRANCH   5   9
BRANCH   8  14
HETATM   14  O   UNL     1      17.148   7.195   9.121  1.00  0.00    -0.358 OA
HETATM   15  H   UNL     1      17.481   7.555   9.919  1.00  0.00     0.217 HD
ENDBRANCH   8  14
ENDBRANCH   1   3
TORSDOF 5
ENDMDL
MODEL 2
REMARK VINA RESULT:      -6.0      4.058      5.009
REMARK  5 active torsions:
REMARK  status: ('A' for Active; 'I' for Inactive)
REMARK    1  A    between atoms: O_1  and  C_10 
REMARK    2  A    between atoms: O_2  and  C_12 
REMARK    3  A    between atoms: C_5  and  C_6 
REMARK    4  A    between atoms: C_5  and  C_7 
REMARK    5  A    between atoms: C_7  and  C_13 
ROOT
HETATM    1  O   UNL     1      11.597   6.102  13.470  1.00  0.00    -0.358 OA
HETATM    2  H   UNL     1      12.259   6.036  14.129  1.00  0.00     0.217 HD
ENDROOT
BRANCH   1   3
HETATM    3  C   UNL     1      11.506   7.226  12.705  1.00  0.00     0.099 A 
HETATM    4  C   UNL     1      11.977   7.203  11.393  1.00  0.00     0.046 A 
HETATM    5  C   UNL     1      11.891   8.348  10.601  1.00  0.00    -0.055 A 
HETATM    6  C   UNL     1      11.332   9.515  11.122  1.00  0.00     0.010 A 
HETATM    7  C   UNL     1      10.861   9.538  12.434  1.00  0.00     0.040 A 
HETATM    8  C   UNL     1      10.948   8.394  13.226  1.00  0.00     0.098 A 
BRANCH   5   9
HETATM    9  C   UNL     1      12.394   8.323   9.198  1.00  0.00     0.049 C 
BRANCH   9  10
HETATM   10  C   UNL     1      12.403   6.924   8.570  1.00  0.00     0.117 C 
BRANCH  10  11
HETATM   11  C   UNL     1      11.333   6.779   7.515  1.00  0.00     0.172 C 
HETATM   12  O   UNL     1      11.830   6.430   6.304  1.00  0.00    -0.648 OA
HETATM   13  O   UNL     1      10.138   6.934   7.732  1.00  0.00    -0.648 OA
ENDBRANCH  10  11
ENDBRANCH   9  10
ENDBRANCH   5   9
BRANCH   8  14
HETATM   14  O   UNL     1      10.486   8.428  14.507  1.00  0.00    -0.358 OA
HETATM   15  H   UNL     1      11.077   8.288  15.222  1.00  0.00     0.217 HD
ENDBRANCH   8  14
ENDBRANCH   1   3
TORSDOF 5
ENDMDL
MODEL 3
REMARK VINA RESULT:      -6.0      1.502      5.275
REMARK  5 active torsions:
REMARK  status: ('A' for Active; 'I' for Inactive)
REMARK    1  A    between atoms: O_1  and  C_10 
REMARK    2  A    between atoms: O_2  and  C_12 
REMARK    3  A    between atoms: C_5  and  C_6 
REMARK    4  A    between atoms: C_5  and  C_7 
REMARK    5  A    between atoms: C_7  and  C_13 
ROOT
HETATM    1  O   UNL     1      10.108   6.960   6.823  1.00  0.00    -0.358 OA
HETATM    2  H   UNL     1       9.927   7.783   6.414  1.00  0.00     0.217 HD
ENDROOT
BRANCH   1   3
HETATM    3  C   UNL     1      11.074   6.873   7.779  1.00  0.00     0.099 A 
HETATM    4  C   UNL     1      12.411   7.045   7.422  1.00  0.00     0.046 A 
HETATM    5  C   UNL     1      13.409   6.957   8.393  1.00  0.00    -0.055 A 
HETATM    6  C   UNL     1      13.069   6.697   9.720  1.00  0.00     0.010 A 
HETATM    7  C   UNL     1      11.733   6.525  10.078  1.00  0.00     0.040 A 
HETATM    8  C   UNL     1      10.735   6.614   9.107  1.00  0.00     0.098 A 
BRANCH   5   9
HETATM    9  C   UNL     1      14.839   7.141   8.010  1.00  0.00     0.049 C 
BRANCH   9  10
HETATM   10  C   UNL     1      15.826   6.826   9.141  1.00  0.00     0.117 C 
BRANCH  10  11
HETATM   11  C   UNL     1      17.195   6.483   8.606  1.00  0.00     0.172 C 
HETATM   12  O   UNL     1      17.623   7.351   7.657  1.00  0.00    -0.648 OA
HETATM   13  O   UNL     1      17.864   5.538   9.004  1.00  0.00    -0.648 OA
ENDBRANCH  10  11
ENDBRANCH   9  10
ENDBRANCH   5   9
BRANCH   8  14
HETATM   14  O   UNL     1       9.432   6.442   9.467  1.00  0.00    -0.358 OA
HETATM   15  H   UNL     1       9.104   5.582   9.644  1.00  0.00     0.217 HD
ENDBRANCH   8  14
ENDBRANCH   1   3
TORSDOF 5
ENDMDL
MODEL 4
REMARK VINA RESULT:      -5.9      2.979      4.151
REMARK  5 active torsions:
REMARK  status: ('A' for Active; 'I' for Inactive)
REMARK    1  A    between atoms: O_1  and  C_10 
REMARK    2  A    between atoms: O_2  and  C_12 
REMARK    3  A    between atoms: C_5  and  C_6 
REMARK    4  A    between atoms: C_5  and  C_7 
REMARK    5  A    between atoms: C_7  and  C_13 
ROOT
HETATM    1  O   UNL     1       9.898   5.181  12.332  1.00  0.00    -0.358 OA
HETATM    2  H   UNL     1       9.660   5.538  13.165  1.00  0.00     0.217 HD
ENDROOT
BRANCH   1   3
HETATM    3  C   UNL     1      10.991   5.660  11.674  1.00  0.00     0.099 A 
HETATM    4  C   UNL     1      10.887   5.989  10.323  1.00  0.00     0.046 A 
HETATM    5  C   UNL     1      11.999   6.478   9.637  1.00  0.00    -0.055 A 
HETATM    6  C   UNL     1      13.214   6.639  10.303  1.00  0.00     0.010 A 
HETATM    7  C   UNL     1      13.318   6.309  11.654  1.00  0.00     0.040 A 
HETATM    8  C   UNL     1      12.206   5.820  12.340  1.00  0.00     0.098 A 
BRANCH   5   9
HETATM    9  C   UNL     1      11.887   6.831   8.192  1.00  0.00     0.049 C 
BRANCH   9  10
HETATM   10  C   UNL     1      10.688   6.184   7.489  1.00  0.00     0.117 C 
BRANCH  10  11
HETATM   11  C   UNL     1      10.687   6.474   6.008  1.00  0.00     0.172 C 
HETATM   12  O   UNL     1      10.257   7.726   5.716  1.00  0.00    -0.648 OA
HETATM   13  O   UNL     1      11.058   5.676   5.158  1.00  0.00    -0.648 OA
ENDBRANCH  10  11
ENDBRANCH   9  10
ENDBRANCH   5   9
BRANCH   8  14
HETATM   14  O   UNL     1      12.319   5.499  13.659  1.00  0.00    -0.358 OA
HETATM   15  H   UNL     1      13.017   5.859  14.170  1.00  0.00     0.217 HD
ENDBRANCH   8  14
ENDBRANCH   1   3
TORSDOF 5
ENDMDL
MODEL 5
REMARK VINA RESULT:      -5.9      3.902      5.131
REMARK  5 active torsions:
REMARK  status: ('A' for Active; 'I' for Inactive)
REMARK    1  A    between atoms: O_1  and  C_10 
REMARK    2  A    between atoms: O_2  and  C_12 
REMARK    3  A    between atoms: C_5  and  C_6 
REMARK    4  A    between atoms: C_5  and  C_7 
REMARK    5  A    between atoms: C_7  and  C_13 
ROOT
HETATM    1  O   UNL     1      10.421   6.099  12.685  1.00  0.00    -0.358 OA
HETATM    2  H   UNL     1      10.753   5.274  12.394  1.00  0.00     0.217 HD
ENDROOT
BRANCH   1   3
HETATM    3  C   UNL     1      11.034   7.254  12.303  1.00  0.00     0.099 A 
HETATM    4  C   UNL     1      11.755   7.285  11.109  1.00  0.00     0.046 A 
HETATM    5  C   UNL     1      12.388   8.461  10.708  1.00  0.00    -0.055 A 
HETATM    6  C   UNL     1      12.300   9.606  11.500  1.00  0.00     0.010 A 
HETATM    7  C   UNL     1      11.580   9.575  12.693  1.00  0.00     0.040 A 
HETATM    8  C   UNL     1      10.946   8.399  13.095  1.00  0.00     0.098 A 
BRANCH   5   9
HETATM    9  C   UNL     1      13.158   8.494   9.431  1.00  0.00     0.049 C 
BRANCH   9  10
HETATM   10  C   UNL     1      13.365   7.112   8.799  1.00  0.00     0.117 C 
BRANCH  10  11
HETATM   11  C   UNL     1      13.010   7.111   7.332  1.00  0.00     0.172 C 
HETATM   12  O   UNL     1      14.030   6.696   6.542  1.00  0.00    -0.648 OA
HETATM   13  O   UNL     1      11.909   7.426   6.898  1.00  0.00    -0.648 OA
ENDBRANCH  10  11
ENDBRANCH   9  10
ENDBRANCH   5   9
BRANCH   8  14
HETATM   14  O   UNL     1      10.247   8.380  14.263  1.00  0.00    -0.358 OA
HETATM   15  H   UNL     1       9.350   8.108  14.268  1.00  0.00     0.217 HD
ENDBRANCH   8  14
ENDBRANCH   1   3
TORSDOF 5
ENDMDL
MODEL 6
REMARK VINA RESULT:      -5.8      4.135      4.882
REMARK  5 active torsions:
REMARK  status: ('A' for Active; 'I' for Inactive)
REMARK    1  A    between atoms: O_1  and  C_10 
REMARK    2  A    between atoms: O_2  and  C_12 
REMARK    3  A    between atoms: C_5  and  C_6 
REMARK    4  A    between atoms: C_5  and  C_7 
REMARK    5  A    between atoms: C_7  and  C_13 
ROOT
HETATM    1  O   UNL     1      11.549  10.773  13.203  1.00  0.00    -0.358 OA
HETATM    2  H   UNL     1      11.697  11.566  12.727  1.00  0.00     0.217 HD
ENDROOT
BRANCH   1   3
HETATM    3  C   UNL     1      11.552   9.576  12.551  1.00  0.00     0.099 A 
HETATM    4  C   UNL     1      12.058   9.503  11.254  1.00  0.00     0.046 A 
HETATM    5  C   UNL     1      12.066   8.285  10.576  1.00  0.00    -0.055 A 
HETATM    6  C   UNL     1      11.568   7.138  11.197  1.00  0.00     0.010 A 
HETATM    7  C   UNL     1      11.063   7.211  12.494  1.00  0.00     0.040 A 
HETATM    8  C   UNL     1      11.055   8.430  13.172  1.00  0.00     0.098 A 
BRANCH   5   9
HETATM    9  C   UNL     1      12.607   8.207   9.189  1.00  0.00     0.049 C 
BRANCH   9  10
HETATM   10  C   UNL     1      12.403   6.841   8.522  1.00  0.00     0.117 C 
BRANCH  10  11
HETATM   11  C   UNL     1      11.365   6.905   7.427  1.00  0.00     0.172 C 
HETATM   12  O   UNL     1      10.097   6.929   7.904  1.00  0.00    -0.648 OA
HETATM   13  O   UNL     1      11.636   6.955   6.234  1.00  0.00    -0.648 OA
ENDBRANCH  10  11
ENDBRANCH   9  10
ENDBRANCH   5   9
BRANCH   8  14
HETATM   14  O   UNL     1      10.557   8.490  14.438  1.00  0.00    -0.358 OA
HETATM   15  H   UNL     1      11.113   8.742  15.149  1.00  0.00     0.217 HD
ENDBRANCH   8  14
ENDBRANCH   1   3
TORSDOF 5
ENDMDL
MODEL 7
REMARK VINA RESULT:      -5.8      3.635      5.184
REMARK  5 active torsions:
REMARK  status: ('A' for Active; 'I' for Inactive)
REMARK    1  A    between atoms: O_1  and  C_10 
REMARK    2  A    between atoms: O_2  and  C_12 
REMARK    3  A    between atoms: C_5  and  C_6 
REMARK    4  A    between atoms: C_5  and  C_7 
REMARK    5  A    between atoms: C_7  and  C_13 
ROOT
HETATM    1  O   UNL     1      14.007   6.947   6.647  1.00  0.00    -0.358 OA
HETATM    2  H   UNL     1      14.219   6.282   6.022  1.00  0.00     0.217 HD
ENDROOT
BRANCH   1   3
HETATM    3  C   UNL     1      12.824   6.896   7.320  1.00  0.00     0.099 A 
HETATM    4  C   UNL     1      12.763   7.358   8.634  1.00  0.00     0.046 A 
HETATM    5  C   UNL     1      11.558   7.311   9.335  1.00  0.00    -0.055 A 
HETATM    6  C   UNL     1      10.414   6.802   8.720  1.00  0.00     0.010 A 
HETATM    7  C   UNL     1      10.475   6.340   7.406  1.00  0.00     0.040 A 
HETATM    8  C   UNL     1      11.680   6.387   6.706  1.00  0.00     0.098 A 
BRANCH   5   9
HETATM    9  C   UNL     1      11.492   7.806  10.740  1.00  0.00     0.049 C 
BRANCH   9  10
HETATM   10  C   UNL     1      10.615   9.051  10.916  1.00  0.00     0.117 C 
BRANCH  10  11
HETATM   11  C   UNL     1      10.742   9.632  12.304  1.00  0.00     0.172 C 
HETATM   12  O   UNL     1      11.224  10.898  12.304  1.00  0.00    -0.648 OA
HETATM   13  O   UNL     1      10.421   9.034  13.323  1.00  0.00    -0.648 OA
ENDBRANCH  10  11
ENDBRANCH   9  10
ENDBRANCH   5   9
BRANCH   8  14
HETATM   14  O   UNL     1      11.729   5.931   5.423  1.00  0.00    -0.358 OA
HETATM   15  H   UNL     1      11.834   5.015   5.255  1.00  0.00     0.217 HD
ENDBRANCH   8  14
ENDBRANCH   1   3
TORSDOF 5
ENDMDL
MODEL 8
REMARK VINA RESULT:      -5.8      3.717      4.702
REMARK  5 active torsions:
REMARK  status: ('A' for Active; 'I' for Inactive)
REMARK    1  A    between atoms: O_1  and  C_10 
REMARK    2  A    between atoms: O_2  and  C_12 
REMARK    3  A    between atoms: C_5  and  C_6 
REMARK    4  A    between atoms: C_5  and  C_7 
REMARK    5  A    between atoms: C_7  and  C_13 
ROOT
HETATM    1  O   UNL     1      12.159   5.973  13.922  1.00  0.00    -0.358 OA
HETATM    2  H   UNL     1      11.481   5.468  14.325  1.00  0.00     0.217 HD
ENDROOT
BRANCH   1   3
HETATM    3  C   UNL     1      11.887   6.718  12.814  1.00  0.00     0.099 A 
HETATM    4  C   UNL     1      12.454   6.362  11.591  1.00  0.00     0.046 A 
HETATM    5  C   UNL     1      12.183   7.118  10.451  1.00  0.00    -0.055 A 
HETATM    6  C   UNL     1      11.345   8.230  10.534  1.00  0.00     0.010 A 
HETATM    7  C   UNL     1      10.778   8.586  11.757  1.00  0.00     0.040 A 
HETATM    8  C   UNL     1      11.048   7.830  12.898  1.00  0.00     0.098 A 
BRANCH   5   9
HETATM    9  C   UNL     1      12.789   6.737   9.143  1.00  0.00     0.049 C 
BRANCH   9  10
HETATM   10  C   UNL     1      12.321   7.605   7.969  1.00  0.00     0.117 C 
BRANCH  10  11
HETATM   11  C   UNL     1      11.381   6.852   7.059  1.00  0.00     0.172 C 
HETATM   12  O   UNL     1      10.086   6.936   7.452  1.00  0.00    -0.648 OA
HETATM   13  O   UNL     1      11.742   6.249   6.056  1.00  0.00    -0.648 OA
ENDBRANCH  10  11
ENDBRANCH   9  10
ENDBRANCH   5   9
BRANCH   8  14
HETATM   14  O   UNL     1      10.491   8.188  14.088  1.00  0.00    -0.358 OA
HETATM   15  H   UNL     1      10.131   9.047  14.197  1.00  0.00     0.217 HD
ENDBRANCH   8  14
ENDBRANCH   1   3
TORSDOF 5
ENDMDL
MODEL 9
REMARK VINA RESULT:      -5.8      1.394      2.287
REMARK  5 active torsions:
REMARK  status: ('A' for Active; 'I' for Inactive)
REMARK    1  A    between atoms: O_1  and  C_10 
REMARK    2  A    between atoms: O_2  and  C_12 
REMARK    3  A    between atoms: C_5  and  C_6 
REMARK    4  A    between atoms: C_5  and  C_7 
REMARK    5  A    between atoms: C_7  and  C_13 
ROOT
HETATM    1  O   UNL     1      14.419   6.321  11.538  1.00  0.00    -0.358 OA
HETATM    2  H   UNL     1      13.970   6.721  12.255  1.00  0.00     0.217 HD
ENDROOT
BRANCH   1   3
HETATM    3  C   UNL     1      14.059   6.617  10.258  1.00  0.00     0.099 A 
HETATM    4  C   UNL     1      12.708   6.634   9.912  1.00  0.00     0.046 A 
HETATM    5  C   UNL     1      12.327   6.934   8.605  1.00  0.00    -0.055 A 
HETATM    6  C   UNL     1      13.297   7.218   7.643  1.00  0.00     0.010 A 
HETATM    7  C   UNL     1      14.647   7.201   7.989  1.00  0.00     0.040 A 
HETATM    8  C   UNL     1      15.029   6.900   9.296  1.00  0.00     0.098 A 
BRANCH   5   9
HETATM    9  C   UNL     1      10.882   6.953   8.235  1.00  0.00     0.049 C 
BRANCH   9  10
HETATM   10  C   UNL     1      10.476   5.832   7.271  1.00  0.00     0.117 C 
BRANCH  10  11
HETATM   11  C   UNL     1      10.621   6.256   5.830  1.00  0.00     0.172 C 
HETATM   12  O   UNL     1      10.268   7.548   5.623  1.00  0.00    -0.648 OA
HETATM   13  O   UNL     1      11.037   5.522   4.943  1.00  0.00    -0.648 OA
ENDBRANCH  10  11
ENDBRANCH   9  10
ENDBRANCH   5   9
BRANCH   8  14
HETATM   14  O   UNL     1      16.351   6.884   9.622  1.00  0.00    -0.358 OA
HETATM   15  H   UNL     1      16.995   7.112   8.980  1.00  0.00     0.217 HD
ENDBRANCH   8  14
ENDBRANCH   1   3
TORSDOF 5
ENDMDL
