MODEL 1
REMARK VINA RESULT:      -6.2      0.000      0.000
REMARK  5 active torsions:
REMARK  status: ('A' for Active; 'I' for Inactive)
REMARK    1  A    between atoms: O_1  and  C_10 
REMARK    2  A    between atoms: O_2  and  C_12 
REMARK    3  A    between atoms: C_5  and  C_6 
REMARK    4  A    between atoms: C_5  and  C_7 
REMARK    5  A    between atoms: C_7  and  C_13 
ROOT
HETATM    1  O   UNL     1      16.034   7.560   6.601  1.00  0.00    -0.358 OA
HETATM    2  H   UNL     1      16.251   8.450   6.408  1.00  0.00     0.217 HD
ENDROOT
BRANCH   1   3
HETATM    3  C   UNL     1      15.236   7.269   7.666  1.00  0.00     0.099 A 
HETATM    4  C   UNL     1      13.860   7.153   7.481  1.00  0.00     0.046 A 
HETATM    5  C   UNL     1      13.033   6.856   8.564  1.00  0.00    -0.055 A 
HETATM    6  C   UNL     1      13.584   6.675   9.833  1.00  0.00     0.010 A 
HETATM    7  C   UNL     1      14.961   6.791  10.018  1.00  0.00     0.040 A 
HETATM    8  C   UNL     1      15.788   7.087   8.935  1.00  0.00     0.098 A 
BRANCH   5   9
HETATM    9  C   UNL     1      11.560   6.731   8.366  1.00  0.00     0.049 C 
BRANCH   9  10
HETATM   10  C   UNL     1      11.098   7.065   6.942  1.00  0.00     0.117 C 
BRANCH  10  11
HETATM   11  C   UNL     1      10.810   5.817   6.143  1.00  0.00     0.172 C 
HETATM   12  O   UNL     1      10.073   4.910   6.830  1.00  0.00    -0.648 OA
HETATM   13  O   UNL     1      11.178   5.648   4.988  1.00  0.00    -0.648 OA
ENDBRANCH  10  11
ENDBRANCH   9  10
ENDBRANCH   5   9
BRANCH   8  14
HETATM   14  O   UNL     1      17.131   7.200   9.128  1.00  0.00    -0.358 OA
HETATM   15  H   UNL     1      17.503   7.000   9.965  1.00  0.00     0.217 HD
ENDBRANCH   8  14
ENDBRANCH   1   3
TORSDOF 5
ENDMDL
MODEL 2
REMARK VINA RESULT:      -6.2      5.026      6.642
REMARK  5 active torsions:
REMARK  status: ('A' for Active; 'I' for Inactive)
REMARK    1  A    between atoms: O_1  and  C_10 
REMARK    2  A    between atoms: O_2  and  C_12 
REMARK    3  A    between atoms: C_5  and  C_6 
REMARK    4  A    between atoms: C_5  and  C_7 
REMARK    5  A    between atoms: C_7  and  C_13 
ROOT
HETATM    1  O   UNL     1       9.570   6.982   9.248  1.00  0.00    -0.358 OA
HETATM    2  H   UNL     1       9.092   7.281   8.501  1.00  0.00     0.217 HD
ENDROOT
BRANCH   1   3
HETATM    3  C   UNL     1      10.586   7.737   9.755  1.00  0.00     0.099 A 
HETATM    4  C   UNL     1      10.299   8.743  10.676  1.00  0.00     0.046 A 
HETATM    5  C   UNL     1      11.329   9.523  11.200  1.00  0.00    -0.055 A 
HETATM    6  C   UNL     1      12.647   9.295  10.803  1.00  0.00     0.010 A 
HETATM    7  C   UNL     1      12.934   8.289   9.882  1.00  0.00     0.040 A 
HETATM    8  C   UNL     1      11.904   7.509   9.358  1.00  0.00     0.098 A 
BRANCH   5   9
HETATM    9  C   UNL     1      11.022  10.600  12.185  1.00  0.00     0.049 C 
BRANCH   9  10
HETATM   10  C   UNL     1      12.233  11.466  12.551  1.00  0.00     0.117 C 
BRANCH  10  11
HETATM   11  C   UNL     1      11.951  12.935  12.343  1.00  0.00     0.172 C 
HETATM   12  O   UNL     1      12.959  13.732  12.774  1.00  0.00    -0.648 OA
HETATM   13  O   UNL     1      10.932  13.364  11.817  1.00  0.00    -0.648 OA
ENDBRANCH  10  11
ENDBRANCH   9  10
ENDBRANCH   5   9
BRANCH   8  14
HETATM   14  O   UNL     1      12.195   6.530   8.458  1.00  0.00    -0.358 OA
HETATM   15  H   UNL     1      13.088   6.340   8.244  1.00  0.00     0.217 HD
ENDBRANCH   8  14
ENDBRANCH   1   3
TORSDOF 5
ENDMDL
MODEL 3
REMARK VINA RESULT:      -6.0      4.050      4.996
REMARK  5 active torsions:
REMARK  status: ('A' for Active; 'I' for Inactive)
REMARK    1  A    between atoms: O_1  and  C_10 
REMARK    2  A    between atoms: O_2  and  C_12 
REMARK    3  A    between atoms: C_5  and  C_6 
REMARK    4  A    between atoms: C_5  and  C_7 
REMARK    5  A    between atoms: C_7  and  C_13 
ROOT
HETATM    1  O   UNL     1      11.547   6.094  13.443  1.00  0.00    -0.358 OA
HETATM    2  H   UNL     1      12.211   6.005  14.098  1.00  0.00     0.217 HD
ENDROOT
BRANCH   1   3
HETATM    3  C   UNL     1      11.483   7.226  12.688  1.00  0.00     0.099 A 
HETATM    4  C   UNL     1      11.949   7.201  11.374  1.00  0.00     0.046 A 
HETATM    5  C   UNL     1      11.890   8.353  10.591  1.00  0.00    -0.055 A 
HETATM    6  C   UNL     1      11.364   9.531  11.122  1.00  0.00     0.010 A 
HETATM    7  C   UNL     1      10.898   9.556  12.436  1.00  0.00     0.040 A 
HETATM    8  C   UNL     1      10.957   8.404  13.219  1.00  0.00     0.098 A 
BRANCH   5   9
HETATM    9  C   UNL     1      12.388   8.326   9.185  1.00  0.00     0.049 C 
BRANCH   9  10
HETATM   10  C   UNL     1      12.397   6.925   8.561  1.00  0.00     0.117 C 
BRANCH  10  11
HETATM   11  C   UNL     1      11.327   6.778   7.506  1.00  0.00     0.172 C 
HETATM   12  O   UNL     1      11.822   6.399   6.302  1.00  0.00    -0.648 OA
HETATM   13  O   UNL     1      10.134   6.955   7.718  1.00  0.00    -0.648 OA
ENDBRANCH  10  11
ENDBRANCH   9  10
ENDBRANCH   5   9
BRANCH   8  14
HETATM   14  O   UNL     1      10.501   8.441  14.502  1.00  0.00    -0.358 OA
HETATM   15  H   UNL     1      10.757   9.140  15.070  1.00  0.00     0.217 HD
ENDBRANCH   8  14
ENDBRANCH   1   3
TORSDOF 5
ENDMDL
MODEL 4
REMARK VINA RESULT:      -6.0      2.999      4.200
REMARK  5 active torsions:
REMARK  status: ('A' for Active; 'I' for Inactive)
REMARK    1  A    between atoms: O_1  and  C_10 
REMARK    2  A    between atoms: O_2  and  C_12 
REMARK    3  A    between atoms: C_5  and  C_6 
REMARK    4  A    between atoms: C_5  and  C_7 
REMARK    5  A    between atoms: C_7  and  C_13 
ROOT
HETATM    1  O   UNL     1       9.815   4.999  12.248  1.00  0.00    -0.358 OA
HETATM    2  H   UNL     1       9.097   4.675  11.741  1.00  0.00     0.217 HD
ENDROOT
BRANCH   1   3
HETATM    3  C   UNL     1      10.902   5.535  11.625  1.00  0.00     0.099 A 
HETATM    4  C   UNL     1      10.801   5.932  10.292  1.00  0.00     0.046 A 
HETATM    5  C   UNL     1      11.907   6.481   9.642  1.00  0.00    -0.055 A 
HETATM    6  C   UNL     1      13.112   6.633  10.327  1.00  0.00     0.010 A 
HETATM    7  C   UNL     1      13.213   6.237  11.660  1.00  0.00     0.040 A 
HETATM    8  C   UNL     1      12.107   5.688  12.309  1.00  0.00     0.098 A 
BRANCH   5   9
HETATM    9  C   UNL     1      11.799   6.905   8.216  1.00  0.00     0.049 C 
BRANCH   9  10
HETATM   10  C   UNL     1      10.694   6.180   7.438  1.00  0.00     0.117 C 
BRANCH  10  11
HETATM   11  C   UNL     1      10.632   6.638   6.001  1.00  0.00     0.172 C 
HETATM   12  O   UNL     1      11.033   5.683   5.126  1.00  0.00    -0.648 OA
HETATM   13  O   UNL     1      10.237   7.744   5.655  1.00  0.00    -0.648 OA
ENDBRANCH  10  11
ENDBRANCH   9  10
ENDBRANCH   5   9
BRANCH   8  14
HETATM   14  O   UNL     1      12.217   5.303  13.611  1.00  0.00    -0.358 OA
HETATM   15  H   UNL     1      12.641   4.495  13.826  1.00  0.00     0.217 HD
ENDBRANCH   8  14
ENDBRANCH   1   3
TORSDOF 5
ENDMDL
MODEL 5
REMARK VINA RESULT:      -5.9      1.453      5.292
REMARK  5 active torsions:
REMARK  status: ('A' for Active; 'I' for Inactive)
REMARK    1  A    between atoms: O_1  and  C_10 
REMARK    2  A    between atoms: O_2  and  C_12 
REMARK    3  A    between atoms: C_5  and  C_6 
REMARK    4  A    between atoms: C_5  and  C_7 
REMARK    5  A    between atoms: C_7  and  C_13 
ROOT
HETATM    1  O   UNL     1      10.065   6.893   6.845  1.00  0.00    -0.358 OA
HETATM    2  H   UNL     1      10.097   6.354   6.080  1.00  0.00     0.217 HD
ENDROOT
BRANCH   1   3
HETATM    3  C   UNL     1      11.065   6.824   7.769  1.00  0.00     0.099 A 
HETATM    4  C   UNL     1      12.386   7.009   7.364  1.00  0.00     0.046 A 
HETATM    5  C   UNL     1      13.418   6.939   8.300  1.00  0.00    -0.055 A 
HETATM    6  C   UNL     1      13.128   6.686   9.641  1.00  0.00     0.010 A 
HETATM    7  C   UNL     1      11.806   6.501  10.045  1.00  0.00     0.040 A 
HETATM    8  C   UNL     1      10.774   6.571   9.110  1.00  0.00     0.098 A 
BRANCH   5   9
HETATM    9  C   UNL     1      14.832   7.137   7.867  1.00  0.00     0.049 C 
BRANCH   9  10
HETATM   10  C   UNL     1      15.798   7.421   9.023  1.00  0.00     0.117 C 
BRANCH  10  11
HETATM   11  C   UNL     1      17.117   6.710   8.836  1.00  0.00     0.172 C 
HETATM   12  O   UNL     1      17.835   7.199   7.795  1.00  0.00    -0.648 OA
HETATM   13  O   UNL     1      17.511   5.806   9.560  1.00  0.00    -0.648 OA
ENDBRANCH  10  11
ENDBRANCH   9  10
ENDBRANCH   5   9
BRANCH   8  14
HETATM   14  O   UNL     1       9.487   6.387   9.516  1.00  0.00    -0.358 OA
HETATM   15  H   UNL     1       8.784   6.780   9.036  1.00  0.00     0.217 HD
ENDBRANCH   8  14
ENDBRANCH   1   3
TORSDOF 5
ENDMDL
MODEL 6
REMARK VINA RESULT:      -5.8      3.599      5.125
REMARK  5 active torsions:
REMARK  status: ('A' for Active; 'I' for Inactive)
REMARK    1  A    between atoms: O_1  and  C_10 
REMARK    2  A    between atoms: O_2  and  C_12 
REMARK    3  A    between atoms: C_5  and  C_6 
REMARK    4  A    between atoms: C_5  and  C_7 
REMARK    5  A    between atoms: C_7  and  C_13 
ROOT
HETATM    1  O   UNL     1      14.006   6.900   6.611  1.00  0.00    -0.358 OA
HETATM    2  H   UNL     1      14.065   6.475   5.779  1.00  0.00     0.217 HD
ENDROOT
BRANCH   1   3
HETATM    3  C   UNL     1      12.828   6.894   7.296  1.00  0.00     0.099 A 
HETATM    4  C   UNL     1      12.796   7.364   8.608  1.00  0.00     0.046 A 
HETATM    5  C   UNL     1      11.596   7.362   9.320  1.00  0.00    -0.055 A 
HETATM    6  C   UNL     1      10.429   6.890   8.719  1.00  0.00     0.010 A 
HETATM    7  C   UNL     1      10.462   6.421   7.407  1.00  0.00     0.040 A 
HETATM    8  C   UNL     1      11.661   6.423   6.694  1.00  0.00     0.098 A 
BRANCH   5   9
HETATM    9  C   UNL     1      11.562   7.864  10.724  1.00  0.00     0.049 C 
BRANCH   9  10
HETATM   10  C   UNL     1      10.581   9.023  10.941  1.00  0.00     0.117 C 
BRANCH  10  11
HETATM   11  C   UNL     1      10.859   9.754  12.232  1.00  0.00     0.172 C 
HETATM   12  O   UNL     1      10.442   9.070  13.326  1.00  0.00    -0.648 OA
HETATM   13  O   UNL     1      11.424  10.839  12.292  1.00  0.00    -0.648 OA
ENDBRANCH  10  11
ENDBRANCH   9  10
ENDBRANCH   5   9
BRANCH   8  14
HETATM   14  O   UNL     1      11.681   5.960   5.413  1.00  0.00    -0.358 OA
HETATM   15  H   UNL     1      11.863   5.057   5.244  1.00  0.00     0.217 HD
ENDBRANCH   8  14
ENDBRANCH   1   3
TORSDOF 5
ENDMDL
MODEL 7
REMARK VINA RESULT:      -5.7      3.341      4.381
REMARK  5 active torsions:
REMARK  status: ('A' for Active; 'I' for Inactive)
REMARK    1  A    between atoms: O_1  and  C_10 
REMARK    2  A    between atoms: O_2  and  C_12 
REMARK    3  A    between atoms: C_5  and  C_6 
REMARK    4  A    between atoms: C_5  and  C_7 
REMARK    5  A    between atoms: C_7  and  C_13 
ROOT
HETATM    1  O   UNL     1      10.381   6.317  12.679  1.00  0.00    -0.358 OA
HETATM    2  H   UNL     1      10.687   5.639  13.247  1.00  0.00     0.217 HD
ENDROOT
BRANCH   1   3
HETATM    3  C   UNL     1      11.271   7.074  11.979  1.00  0.00     0.099 A 
HETATM    4  C   UNL     1      11.735   6.621  10.745  1.00  0.00     0.046 A 
HETATM    5  C   UNL     1      12.648   7.386  10.019  1.00  0.00    -0.055 A 
HETATM    6  C   UNL     1      13.096   8.605  10.528  1.00  0.00     0.010 A 
HETATM    7  C   UNL     1      12.633   9.058  11.762  1.00  0.00     0.040 A 
HETATM    8  C   UNL     1      11.719   8.293  12.488  1.00  0.00     0.098 A 
BRANCH   5   9
HETATM    9  C   UNL     1      13.144   6.901   8.699  1.00  0.00     0.049 C 
BRANCH   9  10
HETATM   10  C   UNL     1      12.491   7.599   7.500  1.00  0.00     0.117 C 
BRANCH  10  11
HETATM   11  C   UNL     1      11.294   6.832   6.992  1.00  0.00     0.172 C 
HETATM   12  O   UNL     1      11.577   6.072   5.906  1.00  0.00    -0.648 OA
HETATM   13  O   UNL     1      10.189   6.870   7.518  1.00  0.00    -0.648 OA
ENDBRANCH  10  11
ENDBRANCH   9  10
ENDBRANCH   5   9
BRANCH   8  14
HETATM   14  O   UNL     1      11.274   8.745  13.693  1.00  0.00    -0.358 OA
HETATM   15  H   UNL     1      10.418   9.119  13.766  1.00  0.00     0.217 HD
ENDBRANCH   8  14
ENDBRANCH   1   3
TORSDOF 5
ENDMDL
MODEL 8
REMARK VINA RESULT:      -5.7      3.924      4.845
REMARK  5 active torsions:
REMARK  status: ('A' for Active; 'I' for Inactive)
REMARK    1  A    between atoms: O_1  and  C_10 
REMARK    2  A    between atoms: O_2  and  C_12 
REMARK    3  A    between atoms: C_5  and  C_6 
REMARK    4  A    between atoms: C_5  and  C_7 
REMARK    5  A    between atoms: C_7  and  C_13 
ROOT
HETATM    1  O   UNL     1       9.738   8.839  12.826  1.00  0.00    -0.358 OA
HETATM    2  H   UNL     1       9.670   9.696  12.455  1.00  0.00     0.217 HD
ENDROOT
BRANCH   1   3
HETATM    3  C   UNL     1      10.858   8.092  12.615  1.00  0.00     0.099 A 
HETATM    4  C   UNL     1      11.220   7.753  11.312  1.00  0.00     0.046 A 
HETATM    5  C   UNL     1      12.363   6.988  11.083  1.00  0.00    -0.055 A 
HETATM    6  C   UNL     1      13.145   6.563  12.157  1.00  0.00     0.010 A 
HETATM    7  C   UNL     1      12.783   6.902  13.460  1.00  0.00     0.040 A 
HETATM    8  C   UNL     1      11.639   7.667  13.689  1.00  0.00     0.098 A 
BRANCH   5   9
HETATM    9  C   UNL     1      12.750   6.625   9.689  1.00  0.00     0.049 C 
BRANCH   9  10
HETATM   10  C   UNL     1      12.313   7.655   8.639  1.00  0.00     0.117 C 
BRANCH  10  11
HETATM   11  C   UNL     1      11.505   7.016   7.535  1.00  0.00     0.172 C 
HETATM   12  O   UNL     1      10.177   6.981   7.807  1.00  0.00    -0.648 OA
HETATM   13  O   UNL     1      11.989   6.597   6.492  1.00  0.00    -0.648 OA
ENDBRANCH  10  11
ENDBRANCH   9  10
ENDBRANCH   5   9
BRANCH   8  14
HETATM   14  O   UNL     1      11.294   7.992  14.966  1.00  0.00    -0.358 OA
HETATM   15  H   UNL     1      10.457   8.376  15.143  1.00  0.00     0.217 HD
ENDBRANCH   8  14
ENDBRANCH   1   3
TORSDOF 5
ENDMDL
MODEL 9
REMARK VINA RESULT:      -5.7      2.734      5.730
REMARK  5 active torsions:
REMARK  status: ('A' for Active; 'I' for Inactive)
REMARK    1  A    between atoms: O_1  and  C_10 
REMARK    2  A    between atoms: O_2  and  C_12 
REMARK    3  A    between atoms: C_5  and  C_6 
REMARK    4  A    between atoms: C_5  and  C_7 
REMARK    5  A    between atoms: C_7  and  C_13 
ROOT
HETATM    1  O   UNL     1       9.466   6.562   9.480  1.00  0.00    -0.358 OA
HETATM    2  H   UNL     1       8.779   6.726   8.864  1.00  0.00     0.217 HD
ENDROOT
BRANCH   1   3
HETATM    3  C   UNL     1      10.768   6.682   9.095  1.00  0.00     0.099 A 
HETATM    4  C   UNL     1      11.777   6.577  10.051  1.00  0.00     0.046 A 
HETATM    5  C   UNL     1      13.114   6.699   9.670  1.00  0.00    -0.055 A 
HETATM    6  C   UNL     1      13.439   6.926   8.333  1.00  0.00     0.010 A 
HETATM    7  C   UNL     1      12.430   7.031   7.377  1.00  0.00     0.040 A 
HETATM    8  C   UNL     1      11.094   6.909   7.758  1.00  0.00     0.098 A 
BRANCH   5   9
HETATM    9  C   UNL     1      14.193   6.586  10.693  1.00  0.00     0.049 C 
BRANCH   9  10
HETATM   10  C   UNL     1      14.633   7.934  11.278  1.00  0.00     0.117 C 
BRANCH  10  11
HETATM   11  C   UNL     1      13.887   8.259  12.550  1.00  0.00     0.172 C 
HETATM   12  O   UNL     1      12.947   9.221  12.379  1.00  0.00    -0.648 OA
HETATM   13  O   UNL     1      14.088   7.698  13.619  1.00  0.00    -0.648 OA
ENDBRANCH  10  11
ENDBRANCH   9  10
ENDBRANCH   5   9
BRANCH   8  14
HETATM   14  O   UNL     1      10.116   7.015   6.816  1.00  0.00    -0.358 OA
HETATM   15  H   UNL     1      10.170   7.679   6.157  1.00  0.00     0.217 HD
ENDBRANCH   8  14
ENDBRANCH   1   3
TORSDOF 5
ENDMDL
