MODEL 1
REMARK VINA RESULT:      -6.2      0.000      0.000
REMARK  5 active torsions:
REMARK  status: ('A' for Active; 'I' for Inactive)
REMARK    1  A    between atoms: O_1  and  C_10 
REMARK    2  A    between atoms: O_2  and  C_12 
REMARK    3  A    between atoms: C_5  and  C_6 
REMARK    4  A    between atoms: C_5  and  C_7 
REMARK    5  A    between atoms: C_7  and  C_13 
ROOT
HETATM    1  O   UNL     1      16.040   7.601   6.609  1.00  0.00    -0.358 OA
HETATM    2  H   UNL     1      16.522   8.404   6.603  1.00  0.00     0.217 HD
ENDROOT
BRANCH   1   3
HETATM    3  C   UNL     1      15.246   7.290   7.671  1.00  0.00     0.099 A 
HETATM    4  C   UNL     1      13.869   7.171   7.487  1.00  0.00     0.046 A 
HETATM    5  C   UNL     1      13.046   6.854   8.568  1.00  0.00    -0.055 A 
HETATM    6  C   UNL     1      13.601   6.656   9.832  1.00  0.00     0.010 A 
HETATM    7  C   UNL     1      14.978   6.776  10.016  1.00  0.00     0.040 A 
HETATM    8  C   UNL     1      15.801   7.093   8.936  1.00  0.00     0.098 A 
BRANCH   5   9
HETATM    9  C   UNL     1      11.573   6.725   8.371  1.00  0.00     0.049 C 
BRANCH   9  10
HETATM   10  C   UNL     1      11.110   7.060   6.948  1.00  0.00     0.117 C 
BRANCH  10  11
HETATM   11  C   UNL     1      10.821   5.812   6.148  1.00  0.00     0.172 C 
HETATM   12  O   UNL     1      10.084   4.905   6.834  1.00  0.00    -0.648 OA
HETATM   13  O   UNL     1      11.190   5.644   4.993  1.00  0.00    -0.648 OA
ENDBRANCH  10  11
ENDBRANCH   9  10
ENDBRANCH   5   9
BRANCH   8  14
HETATM   14  O   UNL     1      17.144   7.209   9.128  1.00  0.00    -0.358 OA
HETATM   15  H   UNL     1      17.731   7.116   8.403  1.00  0.00     0.217 HD
ENDBRANCH   8  14
ENDBRANCH   1   3
TORSDOF 5
ENDMDL
MODEL 2
REMARK VINA RESULT:      -6.2      5.097      6.707
REMARK  5 active torsions:
REMARK  status: ('A' for Active; 'I' for Inactive)
REMARK    1  A    between atoms: O_1  and  C_10 
REMARK    2  A    between atoms: O_2  and  C_12 
REMARK    3  A    between atoms: C_5  and  C_6 
REMARK    4  A    between atoms: C_5  and  C_7 
REMARK    5  A    between atoms: C_7  and  C_13 
ROOT
HETATM    1  O   UNL     1       9.513   7.195   9.279  1.00  0.00    -0.358 OA
HETATM    2  H   UNL     1       9.383   7.210   8.352  1.00  0.00     0.217 HD
ENDROOT
BRANCH   1   3
HETATM    3  C   UNL     1      10.559   7.870   9.832  1.00  0.00     0.099 A 
HETATM    4  C   UNL     1      10.309   8.886  10.755  1.00  0.00     0.046 A 
HETATM    5  C   UNL     1      11.372   9.585  11.327  1.00  0.00    -0.055 A 
HETATM    6  C   UNL     1      12.684   9.268  10.977  1.00  0.00     0.010 A 
HETATM    7  C   UNL     1      12.934   8.252  10.055  1.00  0.00     0.040 A 
HETATM    8  C   UNL     1      11.871   7.553   9.482  1.00  0.00     0.098 A 
BRANCH   5   9
HETATM    9  C   UNL     1      11.104  10.671  12.314  1.00  0.00     0.049 C 
BRANCH   9  10
HETATM   10  C   UNL     1      12.313  11.577  12.576  1.00  0.00     0.117 C 
BRANCH  10  11
HETATM   11  C   UNL     1      11.986  13.030  12.324  1.00  0.00     0.172 C 
HETATM   12  O   UNL     1      12.982  13.868  12.702  1.00  0.00    -0.648 OA
HETATM   13  O   UNL     1      10.943  13.413  11.809  1.00  0.00    -0.648 OA
ENDBRANCH  10  11
ENDBRANCH   9  10
ENDBRANCH   5   9
BRANCH   8  14
HETATM   14  O   UNL     1      12.127   6.564   8.581  1.00  0.00    -0.358 OA
HETATM   15  H   UNL     1      12.489   6.776   7.743  1.00  0.00     0.217 HD
ENDBRANCH   8  14
ENDBRANCH   1   3
TORSDOF 5
ENDMDL
MODEL 3
REMARK VINA RESULT:      -6.1      4.093      5.020
REMARK  5 active torsions:
REMARK  status: ('A' for Active; 'I' for Inactive)
REMARK    1  A    between atoms: O_1  and  C_10 
REMARK    2  A    between atoms: O_2  and  C_12 
REMARK    3  A    between atoms: C_5  and  C_6 
REMARK    4  A    between atoms: C_5  and  C_7 
REMARK    5  A    between atoms: C_7  and  C_13 
ROOT
HETATM    1  O   UNL     1      11.858   6.210  13.615  1.00  0.00    -0.358 OA
HETATM    2  H   UNL     1      11.328   6.086  14.377  1.00  0.00     0.217 HD
ENDROOT
BRANCH   1   3
HETATM    3  C   UNL     1      11.642   7.281  12.801  1.00  0.00     0.099 A 
HETATM    4  C   UNL     1      12.107   7.248  11.487  1.00  0.00     0.046 A 
HETATM    5  C   UNL     1      11.893   8.338  10.644  1.00  0.00    -0.055 A 
HETATM    6  C   UNL     1      11.213   9.461  11.116  1.00  0.00     0.010 A 
HETATM    7  C   UNL     1      10.748   9.494  12.430  1.00  0.00     0.040 A 
HETATM    8  C   UNL     1      10.962   8.403  13.273  1.00  0.00     0.098 A 
BRANCH   5   9
HETATM    9  C   UNL     1      12.390   8.303   9.238  1.00  0.00     0.049 C 
BRANCH   9  10
HETATM   10  C   UNL     1      12.381   6.902   8.615  1.00  0.00     0.117 C 
BRANCH  10  11
HETATM   11  C   UNL     1      11.353   6.787   7.516  1.00  0.00     0.172 C 
HETATM   12  O   UNL     1      11.897   6.459   6.318  1.00  0.00    -0.648 OA
HETATM   13  O   UNL     1      10.152   6.948   7.688  1.00  0.00    -0.648 OA
ENDBRANCH  10  11
ENDBRANCH   9  10
ENDBRANCH   5   9
BRANCH   8  14
HETATM   14  O   UNL     1      10.505   8.447  14.555  1.00  0.00    -0.358 OA
HETATM   15  H   UNL     1       9.690   8.868  14.748  1.00  0.00     0.217 HD
ENDBRANCH   8  14
ENDBRANCH   1   3
TORSDOF 5
ENDMDL
MODEL 4
REMARK VINA RESULT:      -6.0      1.496      5.234
REMARK  5 active torsions:
REMARK  status: ('A' for Active; 'I' for Inactive)
REMARK    1  A    between atoms: O_1  and  C_10 
REMARK    2  A    between atoms: O_2  and  C_12 
REMARK    3  A    between atoms: C_5  and  C_6 
REMARK    4  A    between atoms: C_5  and  C_7 
REMARK    5  A    between atoms: C_7  and  C_13 
ROOT
HETATM    1  O   UNL     1      10.085   6.918   6.779  1.00  0.00    -0.358 OA
HETATM    2  H   UNL     1       9.204   7.127   7.019  1.00  0.00     0.217 HD
ENDROOT
BRANCH   1   3
HETATM    3  C   UNL     1      11.054   6.851   7.735  1.00  0.00     0.099 A 
HETATM    4  C   UNL     1      12.388   7.029   7.373  1.00  0.00     0.046 A 
HETATM    5  C   UNL     1      13.389   6.962   8.342  1.00  0.00    -0.055 A 
HETATM    6  C   UNL     1      13.054   6.717   9.674  1.00  0.00     0.010 A 
HETATM    7  C   UNL     1      11.720   6.539  10.036  1.00  0.00     0.040 A 
HETATM    8  C   UNL     1      10.719   6.606   9.067  1.00  0.00     0.098 A 
BRANCH   5   9
HETATM    9  C   UNL     1      14.817   7.153   7.954  1.00  0.00     0.049 C 
BRANCH   9  10
HETATM   10  C   UNL     1      15.811   6.793   9.064  1.00  0.00     0.117 C 
BRANCH  10  11
HETATM   11  C   UNL     1      17.208   6.603   8.522  1.00  0.00     0.172 C 
HETATM   12  O   UNL     1      17.837   5.526   9.051  1.00  0.00    -0.648 OA
HETATM   13  O   UNL     1      17.713   7.328   7.674  1.00  0.00    -0.648 OA
ENDBRANCH  10  11
ENDBRANCH   9  10
ENDBRANCH   5   9
BRANCH   8  14
HETATM   14  O   UNL     1       9.419   6.429   9.432  1.00  0.00    -0.358 OA
HETATM   15  H   UNL     1       9.057   5.565   9.471  1.00  0.00     0.217 HD
ENDBRANCH   8  14
ENDBRANCH   1   3
TORSDOF 5
ENDMDL
MODEL 5
REMARK VINA RESULT:      -5.9      4.135      4.934
REMARK  5 active torsions:
REMARK  status: ('A' for Active; 'I' for Inactive)
REMARK    1  A    between atoms: O_1  and  C_10 
REMARK    2  A    between atoms: O_2  and  C_12 
REMARK    3  A    between atoms: C_5  and  C_6 
REMARK    4  A    between atoms: C_5  and  C_7 
REMARK    5  A    between atoms: C_7  and  C_13 
ROOT
HETATM    1  O   UNL     1      11.567  10.779  13.193  1.00  0.00    -0.358 OA
HETATM    2  H   UNL     1      12.388  11.171  13.415  1.00  0.00     0.217 HD
ENDROOT
BRANCH   1   3
HETATM    3  C   UNL     1      11.538   9.585  12.537  1.00  0.00     0.099 A 
HETATM    4  C   UNL     1      12.011   9.510  11.227  1.00  0.00     0.046 A 
HETATM    5  C   UNL     1      11.985   8.294  10.545  1.00  0.00    -0.055 A 
HETATM    6  C   UNL     1      11.487   7.152  11.174  1.00  0.00     0.010 A 
HETATM    7  C   UNL     1      11.015   7.227  12.483  1.00  0.00     0.040 A 
HETATM    8  C   UNL     1      11.041   8.443  13.166  1.00  0.00     0.098 A 
BRANCH   5   9
HETATM    9  C   UNL     1      12.491   8.214   9.144  1.00  0.00     0.049 C 
BRANCH   9  10
HETATM   10  C   UNL     1      12.389   6.813   8.530  1.00  0.00     0.117 C 
BRANCH  10  11
HETATM   11  C   UNL     1      11.343   6.754   7.444  1.00  0.00     0.172 C 
HETATM   12  O   UNL     1      11.857   6.425   6.234  1.00  0.00    -0.648 OA
HETATM   13  O   UNL     1      10.151   6.957   7.635  1.00  0.00    -0.648 OA
ENDBRANCH  10  11
ENDBRANCH   9  10
ENDBRANCH   5   9
BRANCH   8  14
HETATM   14  O   UNL     1      10.575   8.505  14.444  1.00  0.00    -0.358 OA
HETATM   15  H   UNL     1       9.655   8.444  14.611  1.00  0.00     0.217 HD
ENDBRANCH   8  14
ENDBRANCH   1   3
TORSDOF 5
ENDMDL
MODEL 6
REMARK VINA RESULT:      -5.8      3.521      4.506
REMARK  5 active torsions:
REMARK  status: ('A' for Active; 'I' for Inactive)
REMARK    1  A    between atoms: O_1  and  C_10 
REMARK    2  A    between atoms: O_2  and  C_12 
REMARK    3  A    between atoms: C_5  and  C_6 
REMARK    4  A    between atoms: C_5  and  C_7 
REMARK    5  A    between atoms: C_7  and  C_13 
ROOT
HETATM    1  O   UNL     1      10.217   7.127  13.009  1.00  0.00    -0.358 OA
HETATM    2  H   UNL     1      10.208   7.403  13.904  1.00  0.00     0.217 HD
ENDROOT
BRANCH   1   3
HETATM    3  C   UNL     1      11.126   7.656  12.143  1.00  0.00     0.099 A 
HETATM    4  C   UNL     1      11.512   6.922  11.022  1.00  0.00     0.046 A 
HETATM    5  C   UNL     1      12.442   7.453  10.128  1.00  0.00    -0.055 A 
HETATM    6  C   UNL     1      12.986   8.717  10.356  1.00  0.00     0.010 A 
HETATM    7  C   UNL     1      12.600   9.450  11.477  1.00  0.00     0.040 A 
HETATM    8  C   UNL     1      11.670   8.920  12.371  1.00  0.00     0.098 A 
BRANCH   5   9
HETATM    9  C   UNL     1      12.854   6.668   8.928  1.00  0.00     0.049 C 
BRANCH   9  10
HETATM   10  C   UNL     1      12.508   7.347   7.598  1.00  0.00     0.117 C 
BRANCH  10  11
HETATM   11  C   UNL     1      11.252   6.772   6.988  1.00  0.00     0.172 C 
HETATM   12  O   UNL     1      11.484   6.112   5.827  1.00  0.00    -0.648 OA
HETATM   13  O   UNL     1      10.143   6.866   7.499  1.00  0.00    -0.648 OA
ENDBRANCH  10  11
ENDBRANCH   9  10
ENDBRANCH   5   9
BRANCH   8  14
HETATM   14  O   UNL     1      11.301   9.644  13.464  1.00  0.00    -0.358 OA
HETATM   15  H   UNL     1      11.833  10.360  13.753  1.00  0.00     0.217 HD
ENDBRANCH   8  14
ENDBRANCH   1   3
TORSDOF 5
ENDMDL
MODEL 7
REMARK VINA RESULT:      -5.8      4.139      5.155
REMARK  5 active torsions:
REMARK  status: ('A' for Active; 'I' for Inactive)
REMARK    1  A    between atoms: O_1  and  C_10 
REMARK    2  A    between atoms: O_2  and  C_12 
REMARK    3  A    between atoms: C_5  and  C_6 
REMARK    4  A    between atoms: C_5  and  C_7 
REMARK    5  A    between atoms: C_7  and  C_13 
ROOT
HETATM    1  O   UNL     1      12.172   6.196  13.805  1.00  0.00    -0.358 OA
HETATM    2  H   UNL     1      11.845   5.319  13.790  1.00  0.00     0.217 HD
ENDROOT
BRANCH   1   3
HETATM    3  C   UNL     1      11.652   7.131  12.961  1.00  0.00     0.099 A 
HETATM    4  C   UNL     1      11.821   6.983  11.585  1.00  0.00     0.046 A 
HETATM    5  C   UNL     1      11.294   7.934  10.711  1.00  0.00    -0.055 A 
HETATM    6  C   UNL     1      10.597   9.033  11.214  1.00  0.00     0.010 A 
HETATM    7  C   UNL     1      10.428   9.181  12.590  1.00  0.00     0.040 A 
HETATM    8  C   UNL     1      10.954   8.230  13.464  1.00  0.00     0.098 A 
BRANCH   5   9
HETATM    9  C   UNL     1      11.476   7.776   9.239  1.00  0.00     0.049 C 
BRANCH   9  10
HETATM   10  C   UNL     1      12.676   6.902   8.856  1.00  0.00     0.117 C 
BRANCH  10  11
HETATM   11  C   UNL     1      12.956   6.958   7.373  1.00  0.00     0.172 C 
HETATM   12  O   UNL     1      11.835   7.134   6.632  1.00  0.00    -0.648 OA
HETATM   13  O   UNL     1      14.077   6.880   6.889  1.00  0.00    -0.648 OA
ENDBRANCH  10  11
ENDBRANCH   9  10
ENDBRANCH   5   9
BRANCH   8  14
HETATM   14  O   UNL     1      10.784   8.385  14.806  1.00  0.00    -0.358 OA
HETATM   15  H   UNL     1       9.920   8.437  15.166  1.00  0.00     0.217 HD
ENDBRANCH   8  14
ENDBRANCH   1   3
TORSDOF 5
ENDMDL
MODEL 8
REMARK VINA RESULT:      -5.8      3.625      5.174
REMARK  5 active torsions:
REMARK  status: ('A' for Active; 'I' for Inactive)
REMARK    1  A    between atoms: O_1  and  C_10 
REMARK    2  A    between atoms: O_2  and  C_12 
REMARK    3  A    between atoms: C_5  and  C_6 
REMARK    4  A    between atoms: C_5  and  C_7 
REMARK    5  A    between atoms: C_7  and  C_13 
ROOT
HETATM    1  O   UNL     1      13.995   6.947   6.635  1.00  0.00    -0.358 OA
HETATM    2  H   UNL     1      14.275   7.761   6.267  1.00  0.00     0.217 HD
ENDROOT
BRANCH   1   3
HETATM    3  C   UNL     1      12.806   6.869   7.294  1.00  0.00     0.099 A 
HETATM    4  C   UNL     1      12.726   7.303   8.617  1.00  0.00     0.046 A 
HETATM    5  C   UNL     1      11.514   7.228   9.303  1.00  0.00    -0.055 A 
HETATM    6  C   UNL     1      10.382   6.720   8.666  1.00  0.00     0.010 A 
HETATM    7  C   UNL     1      10.462   6.286   7.343  1.00  0.00     0.040 A 
HETATM    8  C   UNL     1      11.674   6.361   6.657  1.00  0.00     0.098 A 
BRANCH   5   9
HETATM    9  C   UNL     1      11.428   7.692  10.718  1.00  0.00     0.049 C 
BRANCH   9  10
HETATM   10  C   UNL     1      10.637   8.994  10.894  1.00  0.00     0.117 C 
BRANCH  10  11
HETATM   11  C   UNL     1      10.794   9.559  12.285  1.00  0.00     0.172 C 
HETATM   12  O   UNL     1      11.097  10.880  12.287  1.00  0.00    -0.648 OA
HETATM   13  O   UNL     1      10.639   8.903  13.307  1.00  0.00    -0.648 OA
ENDBRANCH  10  11
ENDBRANCH   9  10
ENDBRANCH   5   9
BRANCH   8  14
HETATM   14  O   UNL     1      11.741   5.933   5.366  1.00  0.00    -0.358 OA
HETATM   15  H   UNL     1      11.123   5.304   5.048  1.00  0.00     0.217 HD
ENDBRANCH   8  14
ENDBRANCH   1   3
TORSDOF 5
ENDMDL
MODEL 9
REMARK VINA RESULT:      -5.7      2.752      5.672
REMARK  5 active torsions:
REMARK  status: ('A' for Active; 'I' for Inactive)
REMARK    1  A    between atoms: O_1  and  C_10 
REMARK    2  A    between atoms: O_2  and  C_12 
REMARK    3  A    between atoms: C_5  and  C_6 
REMARK    4  A    between atoms: C_5  and  C_7 
REMARK    5  A    between atoms: C_7  and  C_13 
ROOT
HETATM    1  O   UNL     1       9.440   6.489   9.482  1.00  0.00    -0.358 OA
HETATM    2  H   UNL     1       9.042   5.642   9.460  1.00  0.00     0.217 HD
ENDROOT
BRANCH   1   3
HETATM    3  C   UNL     1      10.743   6.639   9.115  1.00  0.00     0.099 A 
HETATM    4  C   UNL     1      11.744   6.523  10.078  1.00  0.00     0.046 A 
HETATM    5  C   UNL     1      13.083   6.676   9.715  1.00  0.00    -0.055 A 
HETATM    6  C   UNL     1      13.419   6.943   8.388  1.00  0.00     0.010 A 
HETATM    7  C   UNL     1      12.418   7.058   7.424  1.00  0.00     0.040 A 
HETATM    8  C   UNL     1      11.079   6.906   7.787  1.00  0.00     0.098 A 
BRANCH   5   9
HETATM    9  C   UNL     1      14.153   6.552  10.746  1.00  0.00     0.049 C 
BRANCH   9  10
HETATM   10  C   UNL     1      14.617   7.897  11.319  1.00  0.00     0.117 C 
BRANCH  10  11
HETATM   11  C   UNL     1      13.697   8.383  12.413  1.00  0.00     0.172 C 
HETATM   12  O   UNL     1      13.832   7.681  13.565  1.00  0.00    -0.648 OA
HETATM   13  O   UNL     1      12.929   9.327  12.287  1.00  0.00    -0.648 OA
ENDBRANCH  10  11
ENDBRANCH   9  10
ENDBRANCH   5   9
BRANCH   8  14
HETATM   14  O   UNL     1      10.110   7.022   6.838  1.00  0.00    -0.358 OA
HETATM   15  H   UNL     1       9.840   7.870   6.546  1.00  0.00     0.217 HD
ENDBRANCH   8  14
ENDBRANCH   1   3
TORSDOF 5
ENDMDL
