MODEL 1
REMARK VINA RESULT:      -6.2      0.000      0.000
REMARK  5 active torsions:
REMARK  status: ('A' for Active; 'I' for Inactive)
REMARK    1  A    between atoms: O_1  and  C_10 
REMARK    2  A    between atoms: O_2  and  C_12 
REMARK    3  A    between atoms: C_5  and  C_6 
REMARK    4  A    between atoms: C_5  and  C_7 
REMARK    5  A    between atoms: C_7  and  C_13 
ROOT
HETATM    1  O   UNL     1      18.282   6.146   9.691  1.00  0.00    -0.358 OA
HETATM    2  H   UNL     1      17.994   6.286   8.811  1.00  0.00     0.217 HD
ENDROOT
BRANCH   1   3
HETATM    3  C   UNL     1      17.372   5.901  10.674  1.00  0.00     0.099 A 
HETATM    4  C   UNL     1      16.095   5.458  10.332  1.00  0.00     0.046 A 
HETATM    5  C   UNL     1      15.154   5.205  11.330  1.00  0.00    -0.055 A 
HETATM    6  C   UNL     1      15.491   5.394  12.670  1.00  0.00     0.010 A 
HETATM    7  C   UNL     1      16.768   5.836  13.013  1.00  0.00     0.040 A 
HETATM    8  C   UNL     1      17.709   6.090  12.015  1.00  0.00     0.098 A 
BRANCH   5   9
HETATM    9  C   UNL     1      13.788   4.731  10.964  1.00  0.00     0.049 C 
BRANCH   9  10
HETATM   10  C   UNL     1      13.499   4.784   9.459  1.00  0.00     0.117 C 
BRANCH  10  11
HETATM   11  C   UNL     1      13.487   3.405   8.844  1.00  0.00     0.172 C 
HETATM   12  O   UNL     1      12.779   2.509   9.574  1.00  0.00    -0.648 OA
HETATM   13  O   UNL     1      14.035   3.127   7.785  1.00  0.00    -0.648 OA
ENDBRANCH  10  11
ENDBRANCH   9  10
ENDBRANCH   5   9
BRANCH   8  14
HETATM   14  O   UNL     1      18.953   6.523  12.360  1.00  0.00    -0.358 OA
HETATM   15  H   UNL     1      19.104   7.435  12.520  1.00  0.00     0.217 HD
ENDBRANCH   8  14
ENDBRANCH   1   3
TORSDOF 5
ENDMDL
MODEL 2
REMARK VINA RESULT:      -6.2      5.037      6.651
REMARK  5 active torsions:
REMARK  status: ('A' for Active; 'I' for Inactive)
REMARK    1  A    between atoms: O_1  and  C_10 
REMARK    2  A    between atoms: O_2  and  C_12 
REMARK    3  A    between atoms: C_5  and  C_6 
REMARK    4  A    between atoms: C_5  and  C_7 
REMARK    5  A    between atoms: C_7  and  C_13 
ROOT
HETATM    1  O   UNL     1      11.519   4.673  11.491  1.00  0.00    -0.358 OA
HETATM    2  H   UNL     1      11.844   4.111  10.816  1.00  0.00     0.217 HD
ENDROOT
BRANCH   1   3
HETATM    3  C   UNL     1      12.277   5.714  11.934  1.00  0.00     0.099 A 
HETATM    4  C   UNL     1      11.659   6.793  12.565  1.00  0.00     0.046 A 
HETATM    5  C   UNL     1      12.424   7.866  13.022  1.00  0.00    -0.055 A 
HETATM    6  C   UNL     1      13.809   7.858  12.849  1.00  0.00     0.010 A 
HETATM    7  C   UNL     1      14.427   6.779  12.219  1.00  0.00     0.040 A 
HETATM    8  C   UNL     1      13.662   5.707  11.761  1.00  0.00     0.098 A 
BRANCH   5   9
HETATM    9  C   UNL     1      11.763   9.020  13.697  1.00  0.00     0.049 C 
BRANCH   9  10
HETATM   10  C   UNL     1      12.730  10.144  14.087  1.00  0.00     0.117 C 
BRANCH  10  11
HETATM   11  C   UNL     1      12.282  11.479  13.544  1.00  0.00     0.172 C 
HETATM   12  O   UNL     1      13.078  12.503  13.938  1.00  0.00    -0.648 OA
HETATM   13  O   UNL     1      11.317  11.623  12.804  1.00  0.00    -0.648 OA
ENDBRANCH  10  11
ENDBRANCH   9  10
ENDBRANCH   5   9
BRANCH   8  14
HETATM   14  O   UNL     1      14.276   4.659  11.145  1.00  0.00    -0.358 OA
HETATM   15  H   UNL     1      15.172   4.462  11.338  1.00  0.00     0.217 HD
ENDBRANCH   8  14
ENDBRANCH   1   3
TORSDOF 5
ENDMDL
MODEL 3
REMARK VINA RESULT:      -6.1      4.104      5.003
REMARK  5 active torsions:
REMARK  status: ('A' for Active; 'I' for Inactive)
REMARK    1  A    between atoms: O_1  and  C_10 
REMARK    2  A    between atoms: O_2  and  C_12 
REMARK    3  A    between atoms: C_5  and  C_6 
REMARK    4  A    between atoms: C_5  and  C_7 
REMARK    5  A    between atoms: C_7  and  C_13 
ROOT
HETATM    1  O   UNL     1      13.235   5.383  16.253  1.00  0.00    -0.358 OA
HETATM    2  H   UNL     1      12.572   4.877  16.680  1.00  0.00     0.217 HD
ENDROOT
BRANCH   1   3
HETATM    3  C   UNL     1      12.919   6.143  15.167  1.00  0.00     0.099 A 
HETATM    4  C   UNL     1      13.624   5.966  13.977  1.00  0.00     0.046 A 
HETATM    5  C   UNL     1      13.310   6.738  12.859  1.00  0.00    -0.055 A 
HETATM    6  C   UNL     1      12.290   7.687  12.932  1.00  0.00     0.010 A 
HETATM    7  C   UNL     1      11.585   7.864  14.121  1.00  0.00     0.040 A 
HETATM    8  C   UNL     1      11.899   7.091  15.239  1.00  0.00     0.098 A 
BRANCH   5   9
HETATM    9  C   UNL     1      14.065   6.549  11.587  1.00  0.00     0.049 C 
BRANCH   9  10
HETATM   10  C   UNL     1      14.391   5.083  11.275  1.00  0.00     0.117 C 
BRANCH  10  11
HETATM   11  C   UNL     1      13.706   4.616  10.013  1.00  0.00     0.172 C 
HETATM   12  O   UNL     1      12.355   4.611  10.117  1.00  0.00    -0.648 OA
HETATM   13  O   UNL     1      14.303   4.300   8.992  1.00  0.00    -0.648 OA
ENDBRANCH  10  11
ENDBRANCH   9  10
ENDBRANCH   5   9
BRANCH   8  14
HETATM   14  O   UNL     1      11.204   7.274  16.397  1.00  0.00    -0.358 OA
HETATM   15  H   UNL     1      11.246   8.096  16.844  1.00  0.00     0.217 HD
ENDBRANCH   8  14
ENDBRANCH   1   3
TORSDOF 5
ENDMDL
MODEL 4
REMARK VINA RESULT:      -5.9      1.445      5.260
REMARK  5 active torsions:
REMARK  status: ('A' for Active; 'I' for Inactive)
REMARK    1  A    between atoms: O_1  and  C_10 
REMARK    2  A    between atoms: O_2  and  C_12 
REMARK    3  A    between atoms: C_5  and  C_6 
REMARK    4  A    between atoms: C_5  and  C_7 
REMARK    5  A    between atoms: C_7  and  C_13 
ROOT
HETATM    1  O   UNL     1      12.484   4.346   9.101  1.00  0.00    -0.358 OA
HETATM    2  H   UNL     1      12.101   5.042   8.605  1.00  0.00     0.217 HD
ENDROOT
BRANCH   1   3
HETATM    3  C   UNL     1      13.267   4.631  10.180  1.00  0.00     0.099 A 
HETATM    4  C   UNL     1      14.592   5.015   9.982  1.00  0.00     0.046 A 
HETATM    5  C   UNL     1      15.404   5.308  11.078  1.00  0.00    -0.055 A 
HETATM    6  C   UNL     1      14.889   5.217  12.371  1.00  0.00     0.010 A 
HETATM    7  C   UNL     1      13.564   4.832  12.569  1.00  0.00     0.040 A 
HETATM    8  C   UNL     1      12.752   4.539  11.473  1.00  0.00     0.098 A 
BRANCH   5   9
HETATM    9  C   UNL     1      16.822   5.720  10.867  1.00  0.00     0.049 C 
BRANCH   9  10
HETATM   10  C   UNL     1      17.586   5.992  12.168  1.00  0.00     0.117 C 
BRANCH  10  11
HETATM   11  C   UNL     1      19.072   5.788  11.995  1.00  0.00     0.172 C 
HETATM   12  O   UNL     1      19.601   4.954  12.923  1.00  0.00    -0.648 OA
HETATM   13  O   UNL     1      19.729   6.300  11.098  1.00  0.00    -0.648 OA
ENDBRANCH  10  11
ENDBRANCH   9  10
ENDBRANCH   5   9
BRANCH   8  14
HETATM   14  O   UNL     1      11.459   4.163  11.677  1.00  0.00    -0.358 OA
HETATM   15  H   UNL     1      10.833   4.242  10.985  1.00  0.00     0.217 HD
ENDBRANCH   8  14
ENDBRANCH   1   3
TORSDOF 5
ENDMDL
MODEL 5
REMARK VINA RESULT:      -5.9      4.128      4.897
REMARK  5 active torsions:
REMARK  status: ('A' for Active; 'I' for Inactive)
REMARK    1  A    between atoms: O_1  and  C_10 
REMARK    2  A    between atoms: O_2  and  C_12 
REMARK    3  A    between atoms: C_5  and  C_6 
REMARK    4  A    between atoms: C_5  and  C_7 
REMARK    5  A    between atoms: C_7  and  C_13 
ROOT
HETATM    1  O   UNL     1      12.194   9.469  14.782  1.00  0.00    -0.358 OA
HETATM    2  H   UNL     1      12.519   9.761  15.610  1.00  0.00     0.217 HD
ENDROOT
BRANCH   1   3
HETATM    3  C   UNL     1      12.448   8.199  14.360  1.00  0.00     0.099 A 
HETATM    4  C   UNL     1      13.153   7.999  13.174  1.00  0.00     0.046 A 
HETATM    5  C   UNL     1      13.418   6.704  12.730  1.00  0.00    -0.055 A 
HETATM    6  C   UNL     1      12.979   5.609  13.473  1.00  0.00     0.010 A 
HETATM    7  C   UNL     1      12.273   5.808  14.659  1.00  0.00     0.040 A 
HETATM    8  C   UNL     1      12.008   7.104  15.103  1.00  0.00     0.098 A 
BRANCH   5   9
HETATM    9  C   UNL     1      14.173   6.491  11.461  1.00  0.00     0.049 C 
BRANCH   9  10
HETATM   10  C   UNL     1      14.481   5.018  11.167  1.00  0.00     0.117 C 
BRANCH  10  11
HETATM   11  C   UNL     1      13.792   4.544   9.910  1.00  0.00     0.172 C 
HETATM   12  O   UNL     1      12.441   4.619   9.989  1.00  0.00    -0.648 OA
HETATM   13  O   UNL     1      14.387   4.157   8.912  1.00  0.00    -0.648 OA
ENDBRANCH  10  11
ENDBRANCH   9  10
ENDBRANCH   5   9
BRANCH   8  14
HETATM   14  O   UNL     1      11.317   7.287  16.262  1.00  0.00    -0.358 OA
HETATM   15  H   UNL     1      10.387   7.404  16.240  1.00  0.00     0.217 HD
ENDBRANCH   8  14
ENDBRANCH   1   3
TORSDOF 5
ENDMDL
MODEL 6
REMARK VINA RESULT:      -5.8      4.184      5.198
REMARK  5 active torsions:
REMARK  status: ('A' for Active; 'I' for Inactive)
REMARK    1  A    between atoms: O_1  and  C_10 
REMARK    2  A    between atoms: O_2  and  C_12 
REMARK    3  A    between atoms: C_5  and  C_6 
REMARK    4  A    between atoms: C_5  and  C_7 
REMARK    5  A    between atoms: C_7  and  C_13 
ROOT
HETATM    1  O   UNL     1      13.273   5.203  16.350  1.00  0.00    -0.358 OA
HETATM    2  H   UNL     1      14.157   5.324  16.636  1.00  0.00     0.217 HD
ENDROOT
BRANCH   1   3
HETATM    3  C   UNL     1      12.808   5.884  15.265  1.00  0.00     0.099 A 
HETATM    4  C   UNL     1      13.252   5.530  13.992  1.00  0.00     0.046 A 
HETATM    5  C   UNL     1      12.785   6.220  12.874  1.00  0.00    -0.055 A 
HETATM    6  C   UNL     1      11.873   7.263  13.029  1.00  0.00     0.010 A 
HETATM    7  C   UNL     1      11.428   7.617  14.303  1.00  0.00     0.040 A 
HETATM    8  C   UNL     1      11.896   6.927  15.421  1.00  0.00     0.098 A 
BRANCH   5   9
HETATM    9  C   UNL     1      13.260   5.840  11.512  1.00  0.00     0.049 C 
BRANCH   9  10
HETATM   10  C   UNL     1      14.776   5.626  11.424  1.00  0.00     0.117 C 
BRANCH  10  11
HETATM   11  C   UNL     1      15.200   5.209  10.036  1.00  0.00     0.172 C 
HETATM   12  O   UNL     1      14.157   5.087   9.180  1.00  0.00    -0.648 OA
HETATM   13  O   UNL     1      16.365   5.023   9.708  1.00  0.00    -0.648 OA
ENDBRANCH  10  11
ENDBRANCH   9  10
ENDBRANCH   5   9
BRANCH   8  14
HETATM   14  O   UNL     1      11.457   7.283  16.660  1.00  0.00    -0.358 OA
HETATM   15  H   UNL     1      10.603   7.023  16.948  1.00  0.00     0.217 HD
ENDBRANCH   8  14
ENDBRANCH   1   3
TORSDOF 5
ENDMDL
MODEL 7
REMARK VINA RESULT:      -5.8      3.561      5.187
REMARK  5 active torsions:
REMARK  status: ('A' for Active; 'I' for Inactive)
REMARK    1  A    between atoms: O_1  and  C_10 
REMARK    2  A    between atoms: O_2  and  C_12 
REMARK    3  A    between atoms: C_5  and  C_6 
REMARK    4  A    between atoms: C_5  and  C_7 
REMARK    5  A    between atoms: C_7  and  C_13 
ROOT
HETATM    1  O   UNL     1      16.255   5.301   9.619  1.00  0.00    -0.358 OA
HETATM    2  H   UNL     1      16.910   4.632   9.597  1.00  0.00     0.217 HD
ENDROOT
BRANCH   1   3
HETATM    3  C   UNL     1      14.998   5.010  10.056  1.00  0.00     0.099 A 
HETATM    4  C   UNL     1      14.524   5.602  11.225  1.00  0.00     0.046 A 
HETATM    5  C   UNL     1      13.239   5.311  11.684  1.00  0.00    -0.055 A 
HETATM    6  C   UNL     1      12.428   4.427  10.971  1.00  0.00     0.010 A 
HETATM    7  C   UNL     1      12.903   3.834   9.802  1.00  0.00     0.040 A 
HETATM    8  C   UNL     1      14.187   4.125   9.343  1.00  0.00     0.098 A 
BRANCH   5   9
HETATM    9  C   UNL     1      12.732   5.946  12.934  1.00  0.00     0.049 C 
BRANCH   9  10
HETATM   10  C   UNL     1      11.963   7.251  12.696  1.00  0.00     0.117 C 
BRANCH  10  11
HETATM   11  C   UNL     1      11.833   8.061  13.964  1.00  0.00     0.172 C 
HETATM   12  O   UNL     1      12.429   9.275  13.876  1.00  0.00    -0.648 OA
HETATM   13  O   UNL     1      11.232   7.676  14.959  1.00  0.00    -0.648 OA
ENDBRANCH  10  11
ENDBRANCH   9  10
ENDBRANCH   5   9
BRANCH   8  14
HETATM   14  O   UNL     1      14.641   3.539   8.201  1.00  0.00    -0.358 OA
HETATM   15  H   UNL     1      14.547   2.614   8.080  1.00  0.00     0.217 HD
ENDBRANCH   8  14
ENDBRANCH   1   3
TORSDOF 5
ENDMDL
MODEL 8
REMARK VINA RESULT:      -5.7      3.437      5.559
REMARK  5 active torsions:
REMARK  status: ('A' for Active; 'I' for Inactive)
REMARK    1  A    between atoms: O_1  and  C_10 
REMARK    2  A    between atoms: O_2  and  C_12 
REMARK    3  A    between atoms: C_5  and  C_6 
REMARK    4  A    between atoms: C_5  and  C_7 
REMARK    5  A    between atoms: C_7  and  C_13 
ROOT
HETATM    1  O   UNL     1      12.359   2.962   9.817  1.00  0.00    -0.358 OA
HETATM    2  H   UNL     1      12.425   2.790   8.899  1.00  0.00     0.217 HD
ENDROOT
BRANCH   1   3
HETATM    3  C   UNL     1      12.932   4.080  10.344  1.00  0.00     0.099 A 
HETATM    4  C   UNL     1      12.345   4.696  11.448  1.00  0.00     0.046 A 
HETATM    5  C   UNL     1      12.921   5.842  11.996  1.00  0.00    -0.055 A 
HETATM    6  C   UNL     1      14.086   6.371  11.439  1.00  0.00     0.010 A 
HETATM    7  C   UNL     1      14.673   5.755  10.335  1.00  0.00     0.040 A 
HETATM    8  C   UNL     1      14.097   4.609   9.787  1.00  0.00     0.098 A 
BRANCH   5   9
HETATM    9  C   UNL     1      12.293   6.501  13.177  1.00  0.00     0.049 C 
BRANCH   9  10
HETATM   10  C   UNL     1      11.958   7.981  12.953  1.00  0.00     0.117 C 
BRANCH  10  11
HETATM   11  C   UNL     1      12.765   8.878  13.861  1.00  0.00     0.172 C 
HETATM   12  O   UNL     1      13.770   8.223  14.492  1.00  0.00    -0.648 OA
HETATM   13  O   UNL     1      12.553  10.076  13.995  1.00  0.00    -0.648 OA
ENDBRANCH  10  11
ENDBRANCH   9  10
ENDBRANCH   5   9
BRANCH   8  14
HETATM   14  O   UNL     1      14.678   4.016   8.707  1.00  0.00    -0.358 OA
HETATM   15  H   UNL     1      15.081   3.174   8.795  1.00  0.00     0.217 HD
ENDBRANCH   8  14
ENDBRANCH   1   3
TORSDOF 5
ENDMDL
MODEL 9
REMARK VINA RESULT:      -5.7      2.793      5.668
REMARK  5 active torsions:
REMARK  status: ('A' for Active; 'I' for Inactive)
REMARK    1  A    between atoms: O_1  and  C_10 
REMARK    2  A    between atoms: O_2  and  C_12 
REMARK    3  A    between atoms: C_5  and  C_6 
REMARK    4  A    between atoms: C_5  and  C_7 
REMARK    5  A    between atoms: C_7  and  C_13 
ROOT
HETATM    1  O   UNL     1      11.411   4.285  11.615  1.00  0.00    -0.358 OA
HETATM    2  H   UNL     1      10.980   4.455  12.429  1.00  0.00     0.217 HD
ENDROOT
BRANCH   1   3
HETATM    3  C   UNL     1      12.723   4.618  11.456  1.00  0.00     0.099 A 
HETATM    4  C   UNL     1      13.505   4.879  12.580  1.00  0.00     0.046 A 
HETATM    5  C   UNL     1      14.849   5.222  12.431  1.00  0.00    -0.055 A 
HETATM    6  C   UNL     1      15.410   5.304  11.156  1.00  0.00     0.010 A 
HETATM    7  C   UNL     1      14.627   5.043  10.032  1.00  0.00     0.040 A 
HETATM    8  C   UNL     1      13.284   4.700  10.182  1.00  0.00     0.098 A 
BRANCH   5   9
HETATM    9  C   UNL     1      15.686   5.501  13.633  1.00  0.00     0.049 C 
BRANCH   9  10
HETATM   10  C   UNL     1      15.772   6.989  13.994  1.00  0.00     0.117 C 
BRANCH  10  11
HETATM   11  C   UNL     1      14.576   7.438  14.799  1.00  0.00     0.172 C 
HETATM   12  O   UNL     1      14.499   6.834  16.010  1.00  0.00    -0.648 OA
HETATM   13  O   UNL     1      13.773   8.278  14.413  1.00  0.00    -0.648 OA
ENDBRANCH  10  11
ENDBRANCH   9  10
ENDBRANCH   5   9
BRANCH   8  14
HETATM   14  O   UNL     1      12.528   4.449   9.076  1.00  0.00    -0.358 OA
HETATM   15  H   UNL     1      12.776   3.766   8.485  1.00  0.00     0.217 HD
ENDBRANCH   8  14
ENDBRANCH   1   3
TORSDOF 5
ENDMDL
