MODEL 1
REMARK VINA RESULT:      -6.2      0.000      0.000
REMARK  5 active torsions:
REMARK  status: ('A' for Active; 'I' for Inactive)
REMARK    1  A    between atoms: O_1  and  C_10 
REMARK    2  A    between atoms: O_2  and  C_12 
REMARK    3  A    between atoms: C_5  and  C_6 
REMARK    4  A    between atoms: C_5  and  C_7 
REMARK    5  A    between atoms: C_7  and  C_13 
ROOT
HETATM    1  O   UNL     1      18.194   5.998   9.638  1.00  0.00    -0.358 OA
HETATM    2  H   UNL     1      18.534   5.265   9.166  1.00  0.00     0.217 HD
ENDROOT
BRANCH   1   3
HETATM    3  C   UNL     1      17.280   5.805  10.630  1.00  0.00     0.099 A 
HETATM    4  C   UNL     1      15.989   5.394  10.301  1.00  0.00     0.046 A 
HETATM    5  C   UNL     1      15.043   5.194  11.307  1.00  0.00    -0.055 A 
HETATM    6  C   UNL     1      15.390   5.405  12.642  1.00  0.00     0.010 A 
HETATM    7  C   UNL     1      16.681   5.817  12.970  1.00  0.00     0.040 A 
HETATM    8  C   UNL     1      17.627   6.017  11.964  1.00  0.00     0.098 A 
BRANCH   5   9
HETATM    9  C   UNL     1      13.663   4.753  10.956  1.00  0.00     0.049 C 
BRANCH   9  10
HETATM   10  C   UNL     1      13.396   4.702   9.447  1.00  0.00     0.117 C 
BRANCH  10  11
HETATM   11  C   UNL     1      13.388   3.283   8.930  1.00  0.00     0.172 C 
HETATM   12  O   UNL     1      14.126   3.128   7.804  1.00  0.00    -0.648 OA
HETATM   13  O   UNL     1      12.799   2.362   9.481  1.00  0.00    -0.648 OA
ENDBRANCH  10  11
ENDBRANCH   9  10
ENDBRANCH   5   9
BRANCH   8  14
HETATM   14  O   UNL     1      18.884   6.421  12.296  1.00  0.00    -0.358 OA
HETATM   15  H   UNL     1      19.434   5.865  12.814  1.00  0.00     0.217 HD
ENDBRANCH   8  14
ENDBRANCH   1   3
TORSDOF 5
ENDMDL
MODEL 2
REMARK VINA RESULT:      -6.1      4.113      5.045
REMARK  5 active torsions:
REMARK  status: ('A' for Active; 'I' for Inactive)
REMARK    1  A    between atoms: O_1  and  C_10 
REMARK    2  A    between atoms: O_2  and  C_12 
REMARK    3  A    between atoms: C_5  and  C_6 
REMARK    4  A    between atoms: C_5  and  C_7 
REMARK    5  A    between atoms: C_7  and  C_13 
ROOT
HETATM    1  O   UNL     1      13.090   5.221  16.150  1.00  0.00    -0.358 OA
HETATM    2  H   UNL     1      13.325   4.329  15.988  1.00  0.00     0.217 HD
ENDROOT
BRANCH   1   3
HETATM    3  C   UNL     1      12.842   6.060  15.106  1.00  0.00     0.099 A 
HETATM    4  C   UNL     1      13.539   5.892  13.911  1.00  0.00     0.046 A 
HETATM    5  C   UNL     1      13.295   6.746  12.835  1.00  0.00    -0.055 A 
HETATM    6  C   UNL     1      12.352   7.768  12.956  1.00  0.00     0.010 A 
HETATM    7  C   UNL     1      11.656   7.936  14.152  1.00  0.00     0.040 A 
HETATM    8  C   UNL     1      11.900   7.082  15.227  1.00  0.00     0.098 A 
BRANCH   5   9
HETATM    9  C   UNL     1      14.040   6.566  11.556  1.00  0.00     0.049 C 
BRANCH   9  10
HETATM   10  C   UNL     1      14.391   5.105  11.247  1.00  0.00     0.117 C 
BRANCH  10  11
HETATM   11  C   UNL     1      13.698   4.618   9.997  1.00  0.00     0.172 C 
HETATM   12  O   UNL     1      12.347   4.613  10.112  1.00  0.00    -0.648 OA
HETATM   13  O   UNL     1      14.287   4.285   8.977  1.00  0.00    -0.648 OA
ENDBRANCH  10  11
ENDBRANCH   9  10
ENDBRANCH   5   9
BRANCH   8  14
HETATM   14  O   UNL     1      11.214   7.257  16.391  1.00  0.00    -0.358 OA
HETATM   15  H   UNL     1      10.947   6.512  16.894  1.00  0.00     0.217 HD
ENDBRANCH   8  14
ENDBRANCH   1   3
TORSDOF 5
ENDMDL
MODEL 3
REMARK VINA RESULT:      -5.9      1.518      5.231
REMARK  5 active torsions:
REMARK  status: ('A' for Active; 'I' for Inactive)
REMARK    1  A    between atoms: O_1  and  C_10 
REMARK    2  A    between atoms: O_2  and  C_12 
REMARK    3  A    between atoms: C_5  and  C_6 
REMARK    4  A    between atoms: C_5  and  C_7 
REMARK    5  A    between atoms: C_7  and  C_13 
ROOT
HETATM    1  O   UNL     1      12.612   4.579   9.026  1.00  0.00    -0.358 OA
HETATM    2  H   UNL     1      12.239   5.305   8.568  1.00  0.00     0.217 HD
ENDROOT
BRANCH   1   3
HETATM    3  C   UNL     1      13.380   4.793  10.131  1.00  0.00     0.099 A 
HETATM    4  C   UNL     1      14.722   5.137   9.978  1.00  0.00     0.046 A 
HETATM    5  C   UNL     1      15.518   5.357  11.102  1.00  0.00    -0.055 A 
HETATM    6  C   UNL     1      14.971   5.234  12.379  1.00  0.00     0.010 A 
HETATM    7  C   UNL     1      13.629   4.890  12.532  1.00  0.00     0.040 A 
HETATM    8  C   UNL     1      12.832   4.670  11.409  1.00  0.00     0.098 A 
BRANCH   5   9
HETATM    9  C   UNL     1      16.954   5.725  10.938  1.00  0.00     0.049 C 
BRANCH   9  10
HETATM   10  C   UNL     1      17.718   5.838  12.263  1.00  0.00     0.117 C 
BRANCH  10  11
HETATM   11  C   UNL     1      19.203   5.642  12.069  1.00  0.00     0.172 C 
HETATM   12  O   UNL     1      19.708   6.403  11.067  1.00  0.00    -0.648 OA
HETATM   13  O   UNL     1      19.886   4.896  12.758  1.00  0.00    -0.648 OA
ENDBRANCH  10  11
ENDBRANCH   9  10
ENDBRANCH   5   9
BRANCH   8  14
HETATM   14  O   UNL     1      11.523   4.333  11.570  1.00  0.00    -0.358 OA
HETATM   15  H   UNL     1      11.275   3.718  12.232  1.00  0.00     0.217 HD
ENDBRANCH   8  14
ENDBRANCH   1   3
TORSDOF 5
ENDMDL
MODEL 4
REMARK VINA RESULT:      -5.9      4.146      4.971
REMARK  5 active torsions:
REMARK  status: ('A' for Active; 'I' for Inactive)
REMARK    1  A    between atoms: O_1  and  C_10 
REMARK    2  A    between atoms: O_2  and  C_12 
REMARK    3  A    between atoms: C_5  and  C_6 
REMARK    4  A    between atoms: C_5  and  C_7 
REMARK    5  A    between atoms: C_7  and  C_13 
ROOT
HETATM    1  O   UNL     1      12.112   9.471  14.745  1.00  0.00    -0.358 OA
HETATM    2  H   UNL     1      12.542   9.840  15.492  1.00  0.00     0.217 HD
ENDROOT
BRANCH   1   3
HETATM    3  C   UNL     1      12.403   8.200  14.351  1.00  0.00     0.099 A 
HETATM    4  C   UNL     1      13.116   7.995  13.170  1.00  0.00     0.046 A 
HETATM    5  C   UNL     1      13.419   6.698  12.755  1.00  0.00    -0.055 A 
HETATM    6  C   UNL     1      13.009   5.607  13.522  1.00  0.00     0.010 A 
HETATM    7  C   UNL     1      12.297   5.812  14.702  1.00  0.00     0.040 A 
HETATM    8  C   UNL     1      11.994   7.109  15.118  1.00  0.00     0.098 A 
BRANCH   5   9
HETATM    9  C   UNL     1      14.181   6.479  11.492  1.00  0.00     0.049 C 
BRANCH   9  10
HETATM   10  C   UNL     1      14.437   5.000  11.174  1.00  0.00     0.117 C 
BRANCH  10  11
HETATM   11  C   UNL     1      13.716   4.567   9.921  1.00  0.00     0.172 C 
HETATM   12  O   UNL     1      12.368   4.598  10.051  1.00  0.00    -0.648 OA
HETATM   13  O   UNL     1      14.285   4.245   8.885  1.00  0.00    -0.648 OA
ENDBRANCH  10  11
ENDBRANCH   9  10
ENDBRANCH   5   9
BRANCH   8  14
HETATM   14  O   UNL     1      11.296   7.298  16.272  1.00  0.00    -0.358 OA
HETATM   15  H   UNL     1      11.748   7.343  17.091  1.00  0.00     0.217 HD
ENDBRANCH   8  14
ENDBRANCH   1   3
TORSDOF 5
ENDMDL
MODEL 5
REMARK VINA RESULT:      -5.8      3.477      4.464
REMARK  5 active torsions:
REMARK  status: ('A' for Active; 'I' for Inactive)
REMARK    1  A    between atoms: O_1  and  C_10 
REMARK    2  A    between atoms: O_2  and  C_12 
REMARK    3  A    between atoms: C_5  and  C_6 
REMARK    4  A    between atoms: C_5  and  C_7 
REMARK    5  A    between atoms: C_7  and  C_13 
ROOT
HETATM    1  O   UNL     1      11.489   5.471  14.992  1.00  0.00    -0.358 OA
HETATM    2  H   UNL     1      11.352   5.745  15.877  1.00  0.00     0.217 HD
ENDROOT
BRANCH   1   3
HETATM    3  C   UNL     1      12.445   6.076  14.232  1.00  0.00     0.099 A 
HETATM    4  C   UNL     1      13.155   5.325  13.297  1.00  0.00     0.046 A 
HETATM    5  C   UNL     1      14.136   5.932  12.514  1.00  0.00    -0.055 A 
HETATM    6  C   UNL     1      14.407   7.292  12.667  1.00  0.00     0.010 A 
HETATM    7  C   UNL     1      13.697   8.044  13.602  1.00  0.00     0.040 A 
HETATM    8  C   UNL     1      12.715   7.436  14.385  1.00  0.00     0.098 A 
BRANCH   5   9
HETATM    9  C   UNL     1      14.896   5.128  11.513  1.00  0.00     0.049 C 
BRANCH   9  10
HETATM   10  C   UNL     1      14.567   5.484  10.059  1.00  0.00     0.117 C 
BRANCH  10  11
HETATM   11  C   UNL     1      13.695   4.435   9.411  1.00  0.00     0.172 C 
HETATM   12  O   UNL     1      12.408   4.485   9.835  1.00  0.00    -0.648 OA
HETATM   13  O   UNL     1      14.096   3.639   8.573  1.00  0.00    -0.648 OA
ENDBRANCH  10  11
ENDBRANCH   9  10
ENDBRANCH   5   9
BRANCH   8  14
HETATM   14  O   UNL     1      12.029   8.180  15.297  1.00  0.00    -0.358 OA
HETATM   15  H   UNL     1      12.355   8.266  16.172  1.00  0.00     0.217 HD
ENDBRANCH   8  14
ENDBRANCH   1   3
TORSDOF 5
ENDMDL
MODEL 6
REMARK VINA RESULT:      -5.8      3.573      5.184
REMARK  5 active torsions:
REMARK  status: ('A' for Active; 'I' for Inactive)
REMARK    1  A    between atoms: O_1  and  C_10 
REMARK    2  A    between atoms: O_2  and  C_12 
REMARK    3  A    between atoms: C_5  and  C_6 
REMARK    4  A    between atoms: C_5  and  C_7 
REMARK    5  A    between atoms: C_7  and  C_13 
ROOT
HETATM    1  O   UNL     1      16.276   5.232   9.577  1.00  0.00    -0.358 OA
HETATM    2  H   UNL     1      16.542   4.851   8.764  1.00  0.00     0.217 HD
ENDROOT
BRANCH   1   3
HETATM    3  C   UNL     1      15.018   5.015  10.052  1.00  0.00     0.099 A 
HETATM    4  C   UNL     1      14.607   5.651  11.223  1.00  0.00     0.046 A 
HETATM    5  C   UNL     1      13.322   5.435  11.720  1.00  0.00    -0.055 A 
HETATM    6  C   UNL     1      12.447   4.584  11.045  1.00  0.00     0.010 A 
HETATM    7  C   UNL     1      12.857   3.948   9.874  1.00  0.00     0.040 A 
HETATM    8  C   UNL     1      14.143   4.163   9.377  1.00  0.00     0.098 A 
BRANCH   5   9
HETATM    9  C   UNL     1      12.883   6.116  12.973  1.00  0.00     0.049 C 
BRANCH   9  10
HETATM   10  C   UNL     1      11.951   7.310  12.732  1.00  0.00     0.117 C 
BRANCH  10  11
HETATM   11  C   UNL     1      11.886   8.218  13.937  1.00  0.00     0.172 C 
HETATM   12  O   UNL     1      11.202   7.672  14.972  1.00  0.00    -0.648 OA
HETATM   13  O   UNL     1      12.416   9.320  13.988  1.00  0.00    -0.648 OA
ENDBRANCH  10  11
ENDBRANCH   9  10
ENDBRANCH   5   9
BRANCH   8  14
HETATM   14  O   UNL     1      14.534   3.536   8.233  1.00  0.00    -0.358 OA
HETATM   15  H   UNL     1      15.354   3.084   8.204  1.00  0.00     0.217 HD
ENDBRANCH   8  14
ENDBRANCH   1   3
TORSDOF 5
ENDMDL
MODEL 7
REMARK VINA RESULT:      -5.6      1.410      5.507
REMARK  5 active torsions:
REMARK  status: ('A' for Active; 'I' for Inactive)
REMARK    1  A    between atoms: O_1  and  C_10 
REMARK    2  A    between atoms: O_2  and  C_12 
REMARK    3  A    between atoms: C_5  and  C_6 
REMARK    4  A    between atoms: C_5  and  C_7 
REMARK    5  A    between atoms: C_7  and  C_13 
ROOT
HETATM    1  O   UNL     1      11.578   4.233  11.865  1.00  0.00    -0.358 OA
HETATM    2  H   UNL     1      11.421   4.039  12.768  1.00  0.00     0.217 HD
ENDROOT
BRANCH   1   3
HETATM    3  C   UNL     1      12.837   4.541  11.444  1.00  0.00     0.099 A 
HETATM    4  C   UNL     1      13.791   4.948  12.375  1.00  0.00     0.046 A 
HETATM    5  C   UNL     1      15.083   5.267  11.956  1.00  0.00    -0.055 A 
HETATM    6  C   UNL     1      15.419   5.179  10.606  1.00  0.00     0.010 A 
HETATM    7  C   UNL     1      14.465   4.772   9.674  1.00  0.00     0.040 A 
HETATM    8  C   UNL     1      13.173   4.453  10.093  1.00  0.00     0.098 A 
BRANCH   5   9
HETATM    9  C   UNL     1      16.104   5.702  12.953  1.00  0.00     0.049 C 
BRANCH   9  10
HETATM   10  C   UNL     1      17.133   6.690  12.391  1.00  0.00     0.117 C 
BRANCH  10  11
HETATM   11  C   UNL     1      18.524   6.102  12.384  1.00  0.00     0.172 C 
HETATM   12  O   UNL     1      18.812   5.417  13.518  1.00  0.00    -0.648 OA
HETATM   13  O   UNL     1      19.303   6.207  11.446  1.00  0.00    -0.648 OA
ENDBRANCH  10  11
ENDBRANCH   9  10
ENDBRANCH   5   9
BRANCH   8  14
HETATM   14  O   UNL     1      12.248   4.058   9.175  1.00  0.00    -0.358 OA
HETATM   15  H   UNL     1      12.290   4.385   8.297  1.00  0.00     0.217 HD
ENDBRANCH   8  14
ENDBRANCH   1   3
TORSDOF 5
ENDMDL
MODEL 8
REMARK VINA RESULT:      -5.6      2.653      5.815
REMARK  5 active torsions:
REMARK  status: ('A' for Active; 'I' for Inactive)
REMARK    1  A    between atoms: O_1  and  C_10 
REMARK    2  A    between atoms: O_2  and  C_12 
REMARK    3  A    between atoms: C_5  and  C_6 
REMARK    4  A    between atoms: C_5  and  C_7 
REMARK    5  A    between atoms: C_7  and  C_13 
ROOT
HETATM    1  O   UNL     1      11.423   4.110  11.839  1.00  0.00    -0.358 OA
HETATM    2  H   UNL     1      10.703   4.628  11.539  1.00  0.00     0.217 HD
ENDROOT
BRANCH   1   3
HETATM    3  C   UNL     1      12.699   4.474  11.532  1.00  0.00     0.099 A 
HETATM    4  C   UNL     1      13.571   4.846  12.554  1.00  0.00     0.046 A 
HETATM    5  C   UNL     1      14.879   5.223  12.253  1.00  0.00    -0.055 A 
HETATM    6  C   UNL     1      15.316   5.226  10.928  1.00  0.00     0.010 A 
HETATM    7  C   UNL     1      14.444   4.854   9.905  1.00  0.00     0.040 A 
HETATM    8  C   UNL     1      13.136   4.478  10.207  1.00  0.00     0.098 A 
BRANCH   5   9
HETATM    9  C   UNL     1      15.812   5.620  13.347  1.00  0.00     0.049 C 
BRANCH   9  10
HETATM   10  C   UNL     1      15.143   5.714  14.724  1.00  0.00     0.117 C 
BRANCH  10  11
HETATM   11  C   UNL     1      15.049   7.144  15.201  1.00  0.00     0.172 C 
HETATM   12  O   UNL     1      14.160   7.879  14.491  1.00  0.00    -0.648 OA
HETATM   13  O   UNL     1      15.687   7.589  16.147  1.00  0.00    -0.648 OA
ENDBRANCH  10  11
ENDBRANCH   9  10
ENDBRANCH   5   9
BRANCH   8  14
HETATM   14  O   UNL     1      12.292   4.118   9.200  1.00  0.00    -0.358 OA
HETATM   15  H   UNL     1      12.561   4.212   8.307  1.00  0.00     0.217 HD
ENDBRANCH   8  14
ENDBRANCH   1   3
TORSDOF 5
ENDMDL
MODEL 9
REMARK VINA RESULT:      -5.6      2.312      2.821
REMARK  5 active torsions:
REMARK  status: ('A' for Active; 'I' for Inactive)
REMARK    1  A    between atoms: O_1  and  C_10 
REMARK    2  A    between atoms: O_2  and  C_12 
REMARK    3  A    between atoms: C_5  and  C_6 
REMARK    4  A    between atoms: C_5  and  C_7 
REMARK    5  A    between atoms: C_7  and  C_13 
ROOT
HETATM    1  O   UNL     1      18.317   6.186   9.626  1.00  0.00    -0.358 OA
HETATM    2  H   UNL     1      18.134   5.737   8.825  1.00  0.00     0.217 HD
ENDROOT
BRANCH   1   3
HETATM    3  C   UNL     1      17.540   5.966  10.723  1.00  0.00     0.099 A 
HETATM    4  C   UNL     1      16.217   5.561  10.557  1.00  0.00     0.046 A 
HETATM    5  C   UNL     1      15.411   5.334  11.672  1.00  0.00    -0.055 A 
HETATM    6  C   UNL     1      15.930   5.512  12.955  1.00  0.00     0.010 A 
HETATM    7  C   UNL     1      17.253   5.918  13.122  1.00  0.00     0.040 A 
HETATM    8  C   UNL     1      18.059   6.145  12.006  1.00  0.00     0.098 A 
BRANCH   5   9
HETATM    9  C   UNL     1      13.996   4.899  11.494  1.00  0.00     0.049 C 
BRANCH   9  10
HETATM   10  C   UNL     1      13.093   5.229  12.689  1.00  0.00     0.117 C 
BRANCH  10  11
HETATM   11  C   UNL     1      12.102   6.318  12.356  1.00  0.00     0.172 C 
HETATM   12  O   UNL     1      11.142   5.910  11.490  1.00  0.00    -0.648 OA
HETATM   13  O   UNL     1      12.142   7.444  12.834  1.00  0.00    -0.648 OA
ENDBRANCH  10  11
ENDBRANCH   9  10
ENDBRANCH   5   9
BRANCH   8  14
HETATM   14  O   UNL     1      19.350   6.543  12.180  1.00  0.00    -0.358 OA
HETATM   15  H   UNL     1      20.043   6.090  11.742  1.00  0.00     0.217 HD
ENDBRANCH   8  14
ENDBRANCH   1   3
TORSDOF 5
ENDMDL
