MODEL 1
REMARK VINA RESULT:      -6.2      0.000      0.000
REMARK  5 active torsions:
REMARK  status: ('A' for Active; 'I' for Inactive)
REMARK    1  A    between atoms: O_1  and  C_10 
REMARK    2  A    between atoms: O_2  and  C_12 
REMARK    3  A    between atoms: C_5  and  C_6 
REMARK    4  A    between atoms: C_5  and  C_7 
REMARK    5  A    between atoms: C_7  and  C_13 
ROOT
HETATM    1  O   UNL     1      18.265   6.137   9.678  1.00  0.00    -0.358 OA
HETATM    2  H   UNL     1      17.981   6.425   8.834  1.00  0.00     0.217 HD
ENDROOT
BRANCH   1   3
HETATM    3  C   UNL     1      17.350   5.893  10.658  1.00  0.00     0.099 A 
HETATM    4  C   UNL     1      16.070   5.463  10.310  1.00  0.00     0.046 A 
HETATM    5  C   UNL     1      15.125   5.211  11.303  1.00  0.00    -0.055 A 
HETATM    6  C   UNL     1      15.459   5.389  12.646  1.00  0.00     0.010 A 
HETATM    7  C   UNL     1      16.739   5.820  12.994  1.00  0.00     0.040 A 
HETATM    8  C   UNL     1      17.685   6.071  12.000  1.00  0.00     0.098 A 
BRANCH   5   9
HETATM    9  C   UNL     1      13.756   4.750  10.930  1.00  0.00     0.049 C 
BRANCH   9  10
HETATM   10  C   UNL     1      13.485   4.778   9.421  1.00  0.00     0.117 C 
BRANCH  10  11
HETATM   11  C   UNL     1      13.477   3.388   8.831  1.00  0.00     0.172 C 
HETATM   12  O   UNL     1      12.809   2.493   9.598  1.00  0.00    -0.648 OA
HETATM   13  O   UNL     1      13.997   3.101   7.760  1.00  0.00    -0.648 OA
ENDBRANCH  10  11
ENDBRANCH   9  10
ENDBRANCH   5   9
BRANCH   8  14
HETATM   14  O   UNL     1      18.931   6.493  12.352  1.00  0.00    -0.358 OA
HETATM   15  H   UNL     1      19.208   6.444  13.246  1.00  0.00     0.217 HD
ENDBRANCH   8  14
ENDBRANCH   1   3
TORSDOF 5
ENDMDL
MODEL 2
REMARK VINA RESULT:      -6.2      5.020      6.648
REMARK  5 active torsions:
REMARK  status: ('A' for Active; 'I' for Inactive)
REMARK    1  A    between atoms: O_1  and  C_10 
REMARK    2  A    between atoms: O_2  and  C_12 
REMARK    3  A    between atoms: C_5  and  C_6 
REMARK    4  A    between atoms: C_5  and  C_7 
REMARK    5  A    between atoms: C_7  and  C_13 
ROOT
HETATM    1  O   UNL     1      11.501   4.716  11.412  1.00  0.00    -0.358 OA
HETATM    2  H   UNL     1      10.606   4.641  11.680  1.00  0.00     0.217 HD
ENDROOT
BRANCH   1   3
HETATM    3  C   UNL     1      12.270   5.735  11.886  1.00  0.00     0.099 A 
HETATM    4  C   UNL     1      11.662   6.811  12.531  1.00  0.00     0.046 A 
HETATM    5  C   UNL     1      12.439   7.861  13.020  1.00  0.00    -0.055 A 
HETATM    6  C   UNL     1      13.825   7.834  12.864  1.00  0.00     0.010 A 
HETATM    7  C   UNL     1      14.433   6.758  12.220  1.00  0.00     0.040 A 
HETATM    8  C   UNL     1      13.656   5.708  11.731  1.00  0.00     0.098 A 
BRANCH   5   9
HETATM    9  C   UNL     1      11.788   9.012  13.709  1.00  0.00     0.049 C 
BRANCH   9  10
HETATM   10  C   UNL     1      12.760  10.136  14.086  1.00  0.00     0.117 C 
BRANCH  10  11
HETATM   11  C   UNL     1      12.299  11.473  13.558  1.00  0.00     0.172 C 
HETATM   12  O   UNL     1      13.078  12.501  13.972  1.00  0.00    -0.648 OA
HETATM   13  O   UNL     1      11.338  11.616  12.813  1.00  0.00    -0.648 OA
ENDBRANCH  10  11
ENDBRANCH   9  10
ENDBRANCH   5   9
BRANCH   8  14
HETATM   14  O   UNL     1      14.261   4.662  11.101  1.00  0.00    -0.358 OA
HETATM   15  H   UNL     1      15.086   4.342  11.412  1.00  0.00     0.217 HD
ENDBRANCH   8  14
ENDBRANCH   1   3
TORSDOF 5
ENDMDL
MODEL 3
REMARK VINA RESULT:      -6.1      4.097      5.044
REMARK  5 active torsions:
REMARK  status: ('A' for Active; 'I' for Inactive)
REMARK    1  A    between atoms: O_1  and  C_10 
REMARK    2  A    between atoms: O_2  and  C_12 
REMARK    3  A    between atoms: C_5  and  C_6 
REMARK    4  A    between atoms: C_5  and  C_7 
REMARK    5  A    between atoms: C_7  and  C_13 
ROOT
HETATM    1  O   UNL     1      13.059   5.201  16.127  1.00  0.00    -0.358 OA
HETATM    2  H   UNL     1      13.778   5.356  16.708  1.00  0.00     0.217 HD
ENDROOT
BRANCH   1   3
HETATM    3  C   UNL     1      12.831   6.049  15.086  1.00  0.00     0.099 A 
HETATM    4  C   UNL     1      13.532   5.875  13.893  1.00  0.00     0.046 A 
HETATM    5  C   UNL     1      13.307   6.738  12.820  1.00  0.00    -0.055 A 
HETATM    6  C   UNL     1      12.381   7.774  12.941  1.00  0.00     0.010 A 
HETATM    7  C   UNL     1      11.680   7.947  14.133  1.00  0.00     0.040 A 
HETATM    8  C   UNL     1      11.904   7.085  15.206  1.00  0.00     0.098 A 
BRANCH   5   9
HETATM    9  C   UNL     1      14.057   6.551  11.545  1.00  0.00     0.049 C 
BRANCH   9  10
HETATM   10  C   UNL     1      14.363   5.085  11.217  1.00  0.00     0.117 C 
BRANCH  10  11
HETATM   11  C   UNL     1      13.603   4.616   9.999  1.00  0.00     0.172 C 
HETATM   12  O   UNL     1      14.417   4.204   8.997  1.00  0.00    -0.648 OA
HETATM   13  O   UNL     1      12.381   4.585   9.930  1.00  0.00    -0.648 OA
ENDBRANCH  10  11
ENDBRANCH   9  10
ENDBRANCH   5   9
BRANCH   8  14
HETATM   14  O   UNL     1      11.215   7.265  16.367  1.00  0.00    -0.358 OA
HETATM   15  H   UNL     1      10.932   8.123  16.616  1.00  0.00     0.217 HD
ENDBRANCH   8  14
ENDBRANCH   1   3
TORSDOF 5
ENDMDL
MODEL 4
REMARK VINA RESULT:      -6.0      1.481      5.252
REMARK  5 active torsions:
REMARK  status: ('A' for Active; 'I' for Inactive)
REMARK    1  A    between atoms: O_1  and  C_10 
REMARK    2  A    between atoms: O_2  and  C_12 
REMARK    3  A    between atoms: C_5  and  C_6 
REMARK    4  A    between atoms: C_5  and  C_7 
REMARK    5  A    between atoms: C_7  and  C_13 
ROOT
HETATM    1  O   UNL     1      12.547   4.412   9.103  1.00  0.00    -0.358 OA
HETATM    2  H   UNL     1      11.798   4.945   8.925  1.00  0.00     0.217 HD
ENDROOT
BRANCH   1   3
HETATM    3  C   UNL     1      13.336   4.682  10.180  1.00  0.00     0.099 A 
HETATM    4  C   UNL     1      14.667   5.048   9.981  1.00  0.00     0.046 A 
HETATM    5  C   UNL     1      15.485   5.326  11.077  1.00  0.00    -0.055 A 
HETATM    6  C   UNL     1      14.971   5.238  12.370  1.00  0.00     0.010 A 
HETATM    7  C   UNL     1      13.640   4.871  12.569  1.00  0.00     0.040 A 
HETATM    8  C   UNL     1      12.822   4.594  11.474  1.00  0.00     0.098 A 
BRANCH   5   9
HETATM    9  C   UNL     1      16.908   5.718  10.864  1.00  0.00     0.049 C 
BRANCH   9  10
HETATM   10  C   UNL     1      17.707   5.872  12.164  1.00  0.00     0.117 C 
BRANCH  10  11
HETATM   11  C   UNL     1      19.193   5.760  11.921  1.00  0.00     0.172 C 
HETATM   12  O   UNL     1      19.792   4.854  12.731  1.00  0.00    -0.648 OA
HETATM   13  O   UNL     1      19.792   6.400  11.067  1.00  0.00    -0.648 OA
ENDBRANCH  10  11
ENDBRANCH   9  10
ENDBRANCH   5   9
BRANCH   8  14
HETATM   14  O   UNL     1      11.525   4.235  11.680  1.00  0.00    -0.358 OA
HETATM   15  H   UNL     1      10.863   4.502  11.073  1.00  0.00     0.217 HD
ENDBRANCH   8  14
ENDBRANCH   1   3
TORSDOF 5
ENDMDL
MODEL 5
REMARK VINA RESULT:      -5.9      4.125      4.901
REMARK  5 active torsions:
REMARK  status: ('A' for Active; 'I' for Inactive)
REMARK    1  A    between atoms: O_1  and  C_10 
REMARK    2  A    between atoms: O_2  and  C_12 
REMARK    3  A    between atoms: C_5  and  C_6 
REMARK    4  A    between atoms: C_5  and  C_7 
REMARK    5  A    between atoms: C_7  and  C_13 
ROOT
HETATM    1  O   UNL     1      12.194   9.461  14.795  1.00  0.00    -0.358 OA
HETATM    2  H   UNL     1      11.786  10.077  14.219  1.00  0.00     0.217 HD
ENDROOT
BRANCH   1   3
HETATM    3  C   UNL     1      12.443   8.191  14.370  1.00  0.00     0.099 A 
HETATM    4  C   UNL     1      13.153   7.991  13.186  1.00  0.00     0.046 A 
HETATM    5  C   UNL     1      13.413   6.696  12.739  1.00  0.00    -0.055 A 
HETATM    6  C   UNL     1      12.963   5.601  13.477  1.00  0.00     0.010 A 
HETATM    7  C   UNL     1      12.254   5.800  14.660  1.00  0.00     0.040 A 
HETATM    8  C   UNL     1      11.994   7.096  15.107  1.00  0.00     0.098 A 
BRANCH   5   9
HETATM    9  C   UNL     1      14.173   6.483  11.474  1.00  0.00     0.049 C 
BRANCH   9  10
HETATM   10  C   UNL     1      14.449   5.007  11.161  1.00  0.00     0.117 C 
BRANCH  10  11
HETATM   11  C   UNL     1      13.726   4.556   9.915  1.00  0.00     0.172 C 
HETATM   12  O   UNL     1      12.377   4.593  10.046  1.00  0.00    -0.648 OA
HETATM   13  O   UNL     1      14.292   4.216   8.885  1.00  0.00    -0.648 OA
ENDBRANCH  10  11
ENDBRANCH   9  10
ENDBRANCH   5   9
BRANCH   8  14
HETATM   14  O   UNL     1      11.298   7.279  16.263  1.00  0.00    -0.358 OA
HETATM   15  H   UNL     1      11.526   6.791  17.030  1.00  0.00     0.217 HD
ENDBRANCH   8  14
ENDBRANCH   1   3
TORSDOF 5
ENDMDL
MODEL 6
REMARK VINA RESULT:      -5.8      3.130      4.402
REMARK  5 active torsions:
REMARK  status: ('A' for Active; 'I' for Inactive)
REMARK    1  A    between atoms: O_1  and  C_10 
REMARK    2  A    between atoms: O_2  and  C_12 
REMARK    3  A    between atoms: C_5  and  C_6 
REMARK    4  A    between atoms: C_5  and  C_7 
REMARK    5  A    between atoms: C_7  and  C_13 
ROOT
HETATM    1  O   UNL     1      11.208   2.720  13.438  1.00  0.00    -0.358 OA
HETATM    2  H   UNL     1      10.520   2.884  14.052  1.00  0.00     0.217 HD
ENDROOT
BRANCH   1   3
HETATM    3  C   UNL     1      12.271   3.569  13.364  1.00  0.00     0.099 A 
HETATM    4  C   UNL     1      12.627   4.117  12.132  1.00  0.00     0.046 A 
HETATM    5  C   UNL     1      13.714   4.986  12.044  1.00  0.00    -0.055 A 
HETATM    6  C   UNL     1      14.444   5.308  13.188  1.00  0.00     0.010 A 
HETATM    7  C   UNL     1      14.089   4.760  14.419  1.00  0.00     0.040 A 
HETATM    8  C   UNL     1      13.002   3.891  14.508  1.00  0.00     0.098 A 
BRANCH   5   9
HETATM    9  C   UNL     1      14.094   5.573  10.726  1.00  0.00     0.049 C 
BRANCH   9  10
HETATM   10  C   UNL     1      14.625   4.542   9.722  1.00  0.00     0.117 C 
BRANCH  10  11
HETATM   11  C   UNL     1      13.562   4.131   8.731  1.00  0.00     0.172 C 
HETATM   12  O   UNL     1      13.987   3.175   7.869  1.00  0.00    -0.648 OA
HETATM   13  O   UNL     1      12.428   4.591   8.719  1.00  0.00    -0.648 OA
ENDBRANCH  10  11
ENDBRANCH   9  10
ENDBRANCH   5   9
BRANCH   8  14
HETATM   14  O   UNL     1      12.664   3.360  15.716  1.00  0.00    -0.358 OA
HETATM   15  H   UNL     1      12.047   2.656  15.763  1.00  0.00     0.217 HD
ENDBRANCH   8  14
ENDBRANCH   1   3
TORSDOF 5
ENDMDL
MODEL 7
REMARK VINA RESULT:      -5.7      3.645      5.189
REMARK  5 active torsions:
REMARK  status: ('A' for Active; 'I' for Inactive)
REMARK    1  A    between atoms: O_1  and  C_10 
REMARK    2  A    between atoms: O_2  and  C_12 
REMARK    3  A    between atoms: C_5  and  C_6 
REMARK    4  A    between atoms: C_5  and  C_7 
REMARK    5  A    between atoms: C_7  and  C_13 
ROOT
HETATM    1  O   UNL     1      16.401   5.008   9.401  1.00  0.00    -0.358 OA
HETATM    2  H   UNL     1      16.908   5.795   9.431  1.00  0.00     0.217 HD
ENDROOT
BRANCH   1   3
HETATM    3  C   UNL     1      15.149   4.982   9.938  1.00  0.00     0.099 A 
HETATM    4  C   UNL     1      14.876   5.742  11.075  1.00  0.00     0.046 A 
HETATM    5  C   UNL     1      13.598   5.723  11.635  1.00  0.00    -0.055 A 
HETATM    6  C   UNL     1      12.595   4.945  11.057  1.00  0.00     0.010 A 
HETATM    7  C   UNL     1      12.868   4.186   9.920  1.00  0.00     0.040 A 
HETATM    8  C   UNL     1      14.146   4.205   9.360  1.00  0.00     0.098 A 
BRANCH   5   9
HETATM    9  C   UNL     1      13.306   6.535  12.851  1.00  0.00     0.049 C 
BRANCH   9  10
HETATM   10  C   UNL     1      11.885   7.112  12.881  1.00  0.00     0.117 C 
BRANCH  10  11
HETATM   11  C   UNL     1      11.671   8.004  14.080  1.00  0.00     0.172 C 
HETATM   12  O   UNL     1      11.891   9.314  13.809  1.00  0.00    -0.648 OA
HETATM   13  O   UNL     1      11.311   7.596  15.176  1.00  0.00    -0.648 OA
ENDBRANCH  10  11
ENDBRANCH   9  10
ENDBRANCH   5   9
BRANCH   8  14
HETATM   14  O   UNL     1      14.402   3.458   8.250  1.00  0.00    -0.358 OA
HETATM   15  H   UNL     1      14.164   2.552   8.230  1.00  0.00     0.217 HD
ENDBRANCH   8  14
ENDBRANCH   1   3
TORSDOF 5
ENDMDL
MODEL 8
REMARK VINA RESULT:      -5.7      3.181      4.209
REMARK  5 active torsions:
REMARK  status: ('A' for Active; 'I' for Inactive)
REMARK    1  A    between atoms: O_1  and  C_10 
REMARK    2  A    between atoms: O_2  and  C_12 
REMARK    3  A    between atoms: C_5  and  C_6 
REMARK    4  A    between atoms: C_5  and  C_7 
REMARK    5  A    between atoms: C_7  and  C_13 
ROOT
HETATM    1  O   UNL     1      11.333   6.023  14.808  1.00  0.00    -0.358 OA
HETATM    2  H   UNL     1      11.240   6.088  15.737  1.00  0.00     0.217 HD
ENDROOT
BRANCH   1   3
HETATM    3  C   UNL     1      12.559   5.794  14.260  1.00  0.00     0.099 A 
HETATM    4  C   UNL     1      12.763   6.053  12.905  1.00  0.00     0.046 A 
HETATM    5  C   UNL     1      14.014   5.821  12.332  1.00  0.00    -0.055 A 
HETATM    6  C   UNL     1      15.059   5.332  13.114  1.00  0.00     0.010 A 
HETATM    7  C   UNL     1      14.855   5.073  14.469  1.00  0.00     0.040 A 
HETATM    8  C   UNL     1      13.604   5.304  15.042  1.00  0.00     0.098 A 
BRANCH   5   9
HETATM    9  C   UNL     1      14.232   6.099  10.883  1.00  0.00     0.049 C 
BRANCH   9  10
HETATM   10  C   UNL     1      14.691   4.874  10.082  1.00  0.00     0.117 C 
BRANCH  10  11
HETATM   11  C   UNL     1      13.569   4.297   9.253  1.00  0.00     0.172 C 
HETATM   12  O   UNL     1      14.004   3.717   8.108  1.00  0.00    -0.648 OA
HETATM   13  O   UNL     1      12.392   4.326   9.587  1.00  0.00    -0.648 OA
ENDBRANCH  10  11
ENDBRANCH   9  10
ENDBRANCH   5   9
BRANCH   8  14
HETATM   14  O   UNL     1      13.415   5.046  16.366  1.00  0.00    -0.358 OA
HETATM   15  H   UNL     1      13.108   4.204  16.640  1.00  0.00     0.217 HD
ENDBRANCH   8  14
ENDBRANCH   1   3
TORSDOF 5
ENDMDL
MODEL 9
REMARK VINA RESULT:      -5.6      4.082      5.271
REMARK  5 active torsions:
REMARK  status: ('A' for Active; 'I' for Inactive)
REMARK    1  A    between atoms: O_1  and  C_10 
REMARK    2  A    between atoms: O_2  and  C_12 
REMARK    3  A    between atoms: C_5  and  C_6 
REMARK    4  A    between atoms: C_5  and  C_7 
REMARK    5  A    between atoms: C_7  and  C_13 
ROOT
HETATM    1  O   UNL     1      13.071   5.071  16.218  1.00  0.00    -0.358 OA
HETATM    2  H   UNL     1      13.675   5.486  16.800  1.00  0.00     0.217 HD
ENDROOT
BRANCH   1   3
HETATM    3  C   UNL     1      12.692   5.698  15.069  1.00  0.00     0.099 A 
HETATM    4  C   UNL     1      13.168   5.232  13.844  1.00  0.00     0.046 A 
HETATM    5  C   UNL     1      12.788   5.865  12.661  1.00  0.00    -0.055 A 
HETATM    6  C   UNL     1      11.931   6.965  12.704  1.00  0.00     0.010 A 
HETATM    7  C   UNL     1      11.455   7.431  13.929  1.00  0.00     0.040 A 
HETATM    8  C   UNL     1      11.835   6.797  15.112  1.00  0.00     0.098 A 
BRANCH   5   9
HETATM    9  C   UNL     1      13.298   5.367  11.351  1.00  0.00     0.049 C 
BRANCH   9  10
HETATM   10  C   UNL     1      14.420   6.226  10.758  1.00  0.00     0.117 C 
BRANCH  10  11
HETATM   11  C   UNL     1      15.724   5.469  10.686  1.00  0.00     0.172 C 
HETATM   12  O   UNL     1      16.346   5.376  11.887  1.00  0.00    -0.648 OA
HETATM   13  O   UNL     1      16.165   4.968   9.660  1.00  0.00    -0.648 OA
ENDBRANCH  10  11
ENDBRANCH   9  10
ENDBRANCH   5   9
BRANCH   8  14
HETATM   14  O   UNL     1      11.365   7.262  16.302  1.00  0.00    -0.358 OA
HETATM   15  H   UNL     1      10.891   6.691  16.875  1.00  0.00     0.217 HD
ENDBRANCH   8  14
ENDBRANCH   1   3
TORSDOF 5
ENDMDL
