REMARK  4 active torsions:
REMARK  status: ('A' for Active; 'I' for Inactive)
REMARK    1  A    between atoms: O_1  and  C_5 
REMARK    2  A    between atoms: O_1  and  C_14 
REMARK    3  A    between atoms: O_2  and  C_18 
REMARK    4  A    between atoms: C_10  and  C_13 
ROOT
HETATM    1  O   UNL     1      -2.143   0.207  -0.350  1.00  0.00    -0.343 OA
ENDROOT
BRANCH   1   2
HETATM    2  C   UNL     1      -2.223   1.353   0.488  1.00  0.00     0.129 C 
HETATM    3  C   UNL     1      -3.521   1.312   1.280  1.00  0.00     0.032 C 
HETATM    4  C   UNL     1      -4.583   1.805   0.299  1.00  0.00     0.002 C 
HETATM    5  C   UNL     1      -3.842   2.615  -0.764  1.00  0.00     0.002 C 
HETATM    6  C   UNL     1      -2.372   2.613  -0.350  1.00  0.00     0.032 C 
ENDBRANCH   1   2
BRANCH   1   7
HETATM    7  C   UNL     1      -1.042  -0.594  -0.198  1.00  0.00     0.103 A 
HETATM    8  C   UNL     1       0.223  -0.056  -0.413  1.00  0.00     0.047 A 
HETATM    9  C   UNL     1       1.351  -0.861  -0.263  1.00  0.00    -0.049 A 
HETATM   10  C   UNL     1       1.210  -2.200   0.101  1.00  0.00     0.010 A 
HETATM   11  C   UNL     1      -0.061  -2.733   0.316  1.00  0.00     0.040 A 
HETATM   12  C   UNL     1      -1.190  -1.928   0.165  1.00  0.00     0.101 A 
BRANCH   9  13
HETATM   13  C   UNL     1       2.730  -0.282  -0.495  1.00  0.00     0.045 C 
HETATM   14  C   UNL     1       3.860  -0.898   0.332  1.00  0.00     0.132 C 
HETATM   15  N   UNL     1       4.875   0.117   0.336  1.00  0.00    -0.360 N 
HETATM   16  C   UNL     1       4.369   1.378   0.049  1.00  0.00     0.218 C 
HETATM   17  H   UNL     1       5.825  -0.061   0.522  1.00  0.00     0.162 HD
HETATM   18  O   UNL     1       4.980   2.435   0.025  1.00  0.00    -0.274 OA
HETATM   19  C   UNL     1       2.887   1.219  -0.183  1.00  0.00     0.113 C 
ENDBRANCH   9  13
BRANCH  12  20
HETATM   20  O   UNL     1      -2.426  -2.461   0.376  1.00  0.00    -0.353 OA
HETATM   21  C   UNL     1      -3.082  -3.041  -0.750  1.00  0.00     0.210 C 
ENDBRANCH  12  20
ENDBRANCH   1   7
TORSDOF 4
