MODEL 1
REMARK VINA RESULT:      -7.2      0.000      0.000
REMARK  4 active torsions:
REMARK  status: ('A' for Active; 'I' for Inactive)
REMARK    1  A    between atoms: O_1  and  C_5 
REMARK    2  A    between atoms: O_1  and  C_14 
REMARK    3  A    between atoms: O_2  and  C_18 
REMARK    4  A    between atoms: C_10  and  C_13 
ROOT
HETATM    1  O   UNL     1       3.908  -7.595  54.281  1.00  0.00    -0.343 OA
ENDROOT
BRANCH   1   2
HETATM    2  C   UNL     1       3.075  -6.481  53.986  1.00  0.00     0.129 C 
HETATM    3  C   UNL     1       3.918  -5.365  53.387  1.00  0.00     0.032 C 
HETATM    4  C   UNL     1       4.585  -4.700  54.591  1.00  0.00     0.002 C 
HETATM    5  C   UNL     1       3.721  -5.045  55.803  1.00  0.00     0.002 C 
HETATM    6  C   UNL     1       2.546  -5.860  55.270  1.00  0.00     0.032 C 
ENDBRANCH   1   2
BRANCH   1   7
HETATM    7  C   UNL     1       3.281  -8.742  54.693  1.00  0.00     0.103 A 
HETATM    8  C   UNL     1       2.298  -9.304  53.884  1.00  0.00     0.047 A 
HETATM    9  C   UNL     1       1.652 -10.471  54.292  1.00  0.00    -0.049 A 
HETATM   10  C   UNL     1       1.991 -11.068  55.506  1.00  0.00     0.010 A 
HETATM   11  C   UNL     1       2.976 -10.499  56.312  1.00  0.00     0.040 A 
HETATM   12  C   UNL     1       3.624  -9.332  55.905  1.00  0.00     0.101 A 
BRANCH   9  13
HETATM   13  C   UNL     1       0.583 -11.089  53.417  1.00  0.00     0.045 C 
HETATM   14  C   UNL     1       0.674 -12.603  53.221  1.00  0.00     0.132 C 
HETATM   15  N   UNL     1      -0.659 -12.981  52.847  1.00  0.00    -0.360 N 
HETATM   16  C   UNL     1      -1.607 -12.041  53.227  1.00  0.00     0.218 C 
HETATM   17  H   UNL     1      -0.878 -13.815  52.373  1.00  0.00     0.162 HD
HETATM   18  O   UNL     1      -2.817 -12.109  53.088  1.00  0.00    -0.274 OA
HETATM   19  C   UNL     1      -0.867 -10.916  53.909  1.00  0.00     0.113 C 
ENDBRANCH   9  13
BRANCH  12  20
HETATM   20  O   UNL     1       4.584  -8.785  56.701  1.00  0.00    -0.353 OA
HETATM   21  C   UNL     1       5.208  -9.647  57.649  1.00  0.00     0.210 C 
ENDBRANCH  12  20
ENDBRANCH   1   7
TORSDOF 4
ENDMDL
MODEL 2
REMARK VINA RESULT:      -7.2      3.027      6.068
REMARK  4 active torsions:
REMARK  status: ('A' for Active; 'I' for Inactive)
REMARK    1  A    between atoms: O_1  and  C_5 
REMARK    2  A    between atoms: O_1  and  C_14 
REMARK    3  A    between atoms: O_2  and  C_18 
REMARK    4  A    between atoms: C_10  and  C_13 
ROOT
HETATM    1  O   UNL     1       1.613  -9.911  56.219  1.00  0.00    -0.343 OA
ENDROOT
BRANCH   1   2
HETATM    2  C   UNL     1       1.575 -11.069  55.395  1.00  0.00     0.129 C 
HETATM    3  C   UNL     1       1.541 -10.649  53.933  1.00  0.00     0.032 C 
HETATM    4  C   UNL     1       0.083 -10.271  53.677  1.00  0.00     0.002 C 
HETATM    5  C   UNL     1      -0.739 -10.987  54.748  1.00  0.00     0.002 C 
HETATM    6  C   UNL     1       0.254 -11.802  55.572  1.00  0.00     0.032 C 
ENDBRANCH   1   2
BRANCH   1   7
HETATM    7  C   UNL     1       2.672  -9.060  56.038  1.00  0.00     0.103 A 
HETATM    8  C   UNL     1       2.542  -7.996  55.150  1.00  0.00     0.047 A 
HETATM    9  C   UNL     1       3.613  -7.124  54.957  1.00  0.00    -0.049 A 
HETATM   10  C   UNL     1       4.807  -7.320  55.650  1.00  0.00     0.010 A 
HETATM   11  C   UNL     1       4.931  -8.388  56.537  1.00  0.00     0.040 A 
HETATM   12  C   UNL     1       3.860  -9.261  56.732  1.00  0.00     0.101 A 
BRANCH   9  13
HETATM   13  C   UNL     1       3.479  -5.964  53.994  1.00  0.00     0.045 C 
HETATM   14  C   UNL     1       4.377  -4.758  54.273  1.00  0.00     0.132 C 
HETATM   15  N   UNL     1       4.455  -4.088  53.005  1.00  0.00    -0.360 N 
HETATM   16  C   UNL     1       4.141  -4.922  51.941  1.00  0.00     0.218 C 
HETATM   17  H   UNL     1       4.704  -3.142  52.902  1.00  0.00     0.162 HD
HETATM   18  O   UNL     1       4.167  -4.649  50.752  1.00  0.00    -0.274 OA
HETATM   19  C   UNL     1       3.808  -6.275  52.521  1.00  0.00     0.113 C 
ENDBRANCH   9  13
BRANCH  12  20
HETATM   20  O   UNL     1       3.992 -10.302  57.601  1.00  0.00    -0.353 OA
HETATM   21  C   UNL     1       5.201 -10.367  58.354  1.00  0.00     0.210 C 
ENDBRANCH  12  20
ENDBRANCH   1   7
TORSDOF 4
ENDMDL
MODEL 3
REMARK VINA RESULT:      -6.9      2.952      6.147
REMARK  4 active torsions:
REMARK  status: ('A' for Active; 'I' for Inactive)
REMARK    1  A    between atoms: O_1  and  C_5 
REMARK    2  A    between atoms: O_1  and  C_14 
REMARK    3  A    between atoms: O_2  and  C_18 
REMARK    4  A    between atoms: C_10  and  C_13 
ROOT
HETATM    1  O   UNL     1       1.998 -10.317  56.288  1.00  0.00    -0.343 OA
ENDROOT
BRANCH   1   2
HETATM    2  C   UNL     1       0.984  -9.939  55.365  1.00  0.00     0.129 C 
HETATM    3  C   UNL     1      -0.285 -10.726  55.658  1.00  0.00     0.032 C 
HETATM    4  C   UNL     1      -0.044 -12.093  55.019  1.00  0.00     0.002 C 
HETATM    5  C   UNL     1       1.029 -11.883  53.951  1.00  0.00     0.002 C 
HETATM    6  C   UNL     1       1.352 -10.391  53.960  1.00  0.00     0.032 C 
ENDBRANCH   1   2
BRANCH   1   7
HETATM    7  C   UNL     1       3.046  -9.449  56.443  1.00  0.00     0.103 A 
HETATM    8  C   UNL     1       2.909  -8.136  56.002  1.00  0.00     0.047 A 
HETATM    9  C   UNL     1       3.970  -7.242  56.153  1.00  0.00    -0.049 A 
HETATM   10  C   UNL     1       5.161  -7.666  56.742  1.00  0.00     0.010 A 
HETATM   11  C   UNL     1       5.292  -8.982  57.181  1.00  0.00     0.040 A 
HETATM   12  C   UNL     1       4.231  -9.877  57.031  1.00  0.00     0.101 A 
BRANCH   9  13
HETATM   13  C   UNL     1       3.827  -5.813  55.677  1.00  0.00     0.045 C 
HETATM   14  C   UNL     1       3.639  -5.627  54.170  1.00  0.00     0.132 C 
HETATM   15  N   UNL     1       3.021  -4.336  54.059  1.00  0.00    -0.360 N 
HETATM   16  C   UNL     1       2.407  -3.934  55.237  1.00  0.00     0.218 C 
HETATM   17  H   UNL     1       3.032  -3.794  53.237  1.00  0.00     0.162 HD
HETATM   18  O   UNL     1       1.766  -2.914  55.430  1.00  0.00    -0.274 OA
HETATM   19  C   UNL     1       2.628  -5.033  56.249  1.00  0.00     0.113 C 
ENDBRANCH   9  13
BRANCH  12  20
HETATM   20  O   UNL     1       4.371 -11.161  57.463  1.00  0.00    -0.353 OA
HETATM   21  C   UNL     1       5.420 -11.421  58.393  1.00  0.00     0.210 C 
ENDBRANCH  12  20
ENDBRANCH   1   7
TORSDOF 4
ENDMDL
MODEL 4
REMARK VINA RESULT:      -6.7      3.264      6.012
REMARK  4 active torsions:
REMARK  status: ('A' for Active; 'I' for Inactive)
REMARK    1  A    between atoms: O_1  and  C_5 
REMARK    2  A    between atoms: O_1  and  C_14 
REMARK    3  A    between atoms: O_2  and  C_18 
REMARK    4  A    between atoms: C_10  and  C_13 
ROOT
HETATM    1  O   UNL     1       3.673  -9.590  55.058  1.00  0.00    -0.343 OA
ENDROOT
BRANCH   1   2
HETATM    2  C   UNL     1       3.574  -8.865  56.276  1.00  0.00     0.129 C 
HETATM    3  C   UNL     1       4.947  -8.337  56.663  1.00  0.00     0.032 C 
HETATM    4  C   UNL     1       5.655  -9.535  57.293  1.00  0.00     0.002 C 
HETATM    5  C   UNL     1       4.554 -10.490  57.753  1.00  0.00     0.002 C 
HETATM    6  C   UNL     1       3.231  -9.803  57.424  1.00  0.00     0.032 C 
ENDBRANCH   1   2
BRANCH   1   7
HETATM    7  C   UNL     1       2.930  -9.129  54.003  1.00  0.00     0.103 A 
HETATM    8  C   UNL     1       3.249  -7.899  53.436  1.00  0.00     0.047 A 
HETATM    9  C   UNL     1       2.499  -7.418  52.363  1.00  0.00    -0.049 A 
HETATM   10  C   UNL     1       1.434  -8.168  51.863  1.00  0.00     0.010 A 
HETATM   11  C   UNL     1       1.120  -9.399  52.436  1.00  0.00     0.040 A 
HETATM   12  C   UNL     1       1.869  -9.882  53.510  1.00  0.00     0.101 A 
BRANCH   9  13
HETATM   13  C   UNL     1       2.841  -6.082  51.740  1.00  0.00     0.045 C 
HETATM   14  C   UNL     1       3.895  -5.253  52.476  1.00  0.00     0.132 C 
HETATM   15  N   UNL     1       4.400  -4.366  51.466  1.00  0.00    -0.360 N 
HETATM   16  C   UNL     1       4.158  -4.829  50.180  1.00  0.00     0.218 C 
HETATM   17  H   UNL     1       4.866  -3.522  51.664  1.00  0.00     0.162 HD
HETATM   18  O   UNL     1       4.509  -4.317  49.129  1.00  0.00    -0.274 OA
HETATM   19  C   UNL     1       3.416  -6.137  50.311  1.00  0.00     0.113 C 
ENDBRANCH   9  13
BRANCH  12  20
HETATM   20  O   UNL     1       1.552 -11.086  54.062  1.00  0.00    -0.353 OA
HETATM   21  C   UNL     1       0.472 -11.106  54.993  1.00  0.00     0.210 C 
ENDBRANCH  12  20
ENDBRANCH   1   7
TORSDOF 4
ENDMDL
MODEL 5
REMARK VINA RESULT:      -6.4      3.089      5.508
REMARK  4 active torsions:
REMARK  status: ('A' for Active; 'I' for Inactive)
REMARK    1  A    between atoms: O_1  and  C_5 
REMARK    2  A    between atoms: O_1  and  C_14 
REMARK    3  A    between atoms: O_2  and  C_18 
REMARK    4  A    between atoms: C_10  and  C_13 
ROOT
HETATM    1  O   UNL     1       3.221  -7.776  51.054  1.00  0.00    -0.343 OA
ENDROOT
BRANCH   1   2
HETATM    2  C   UNL     1       2.847  -6.419  51.254  1.00  0.00     0.129 C 
HETATM    3  C   UNL     1       1.579  -6.124  50.467  1.00  0.00     0.032 C 
HETATM    4  C   UNL     1       2.059  -5.907  49.032  1.00  0.00     0.002 C 
HETATM    5  C   UNL     1       3.537  -5.529  49.129  1.00  0.00     0.002 C 
HETATM    6  C   UNL     1       3.869  -5.489  50.619  1.00  0.00     0.032 C 
ENDBRANCH   1   2
BRANCH   1   7
HETATM    7  C   UNL     1       2.699  -8.695  51.926  1.00  0.00     0.103 A 
HETATM    8  C   UNL     1       3.052  -8.630  53.270  1.00  0.00     0.047 A 
HETATM    9  C   UNL     1       2.528  -9.560  54.168  1.00  0.00    -0.049 A 
HETATM   10  C   UNL     1       1.655 -10.551  53.716  1.00  0.00     0.010 A 
HETATM   11  C   UNL     1       1.306 -10.610  52.368  1.00  0.00     0.040 A 
HETATM   12  C   UNL     1       1.829  -9.680  51.469  1.00  0.00     0.101 A 
BRANCH   9  13
HETATM   13  C   UNL     1       2.906  -9.496  55.632  1.00  0.00     0.045 C 
HETATM   14  C   UNL     1       2.871 -10.824  56.389  1.00  0.00     0.132 C 
HETATM   15  N   UNL     1       3.737 -10.600  57.512  1.00  0.00    -0.360 N 
HETATM   16  C   UNL     1       4.618  -9.548  57.306  1.00  0.00     0.218 C 
HETATM   17  H   UNL     1       3.709 -11.134  58.339  1.00  0.00     0.162 HD
HETATM   18  O   UNL     1       5.497  -9.158  58.058  1.00  0.00    -0.274 OA
HETATM   19  C   UNL     1       4.331  -8.992  55.932  1.00  0.00     0.113 C 
ENDBRANCH   9  13
BRANCH  12  20
HETATM   20  O   UNL     1       1.482  -9.748  50.154  1.00  0.00    -0.353 OA
HETATM   21  C   UNL     1       1.666 -11.002  49.500  1.00  0.00     0.210 C 
ENDBRANCH  12  20
ENDBRANCH   1   7
TORSDOF 4
ENDMDL
MODEL 6
REMARK VINA RESULT:      -6.4      1.299      3.387
REMARK  4 active torsions:
REMARK  status: ('A' for Active; 'I' for Inactive)
REMARK    1  A    between atoms: O_1  and  C_5 
REMARK    2  A    between atoms: O_1  and  C_14 
REMARK    3  A    between atoms: O_2  and  C_18 
REMARK    4  A    between atoms: C_10  and  C_13 
ROOT
HETATM    1  O   UNL     1       3.994  -8.905  54.766  1.00  0.00    -0.343 OA
ENDROOT
BRANCH   1   2
HETATM    2  C   UNL     1       3.717  -8.364  56.051  1.00  0.00     0.129 C 
HETATM    3  C   UNL     1       5.022  -8.163  56.807  1.00  0.00     0.032 C 
HETATM    4  C   UNL     1       5.377  -9.552  57.335  1.00  0.00     0.002 C 
HETATM    5  C   UNL     1       4.070 -10.343  57.370  1.00  0.00     0.002 C 
HETATM    6  C   UNL     1       2.978  -9.381  56.907  1.00  0.00     0.032 C 
ENDBRANCH   1   2
BRANCH   1   7
HETATM    7  C   UNL     1       3.022  -8.756  53.812  1.00  0.00     0.103 A 
HETATM    8  C   UNL     1       2.158  -9.816  53.554  1.00  0.00     0.047 A 
HETATM    9  C   UNL     1       1.165  -9.677  52.584  1.00  0.00    -0.049 A 
HETATM   10  C   UNL     1       1.043  -8.481  51.876  1.00  0.00     0.010 A 
HETATM   11  C   UNL     1       1.913  -7.424  52.138  1.00  0.00     0.040 A 
HETATM   12  C   UNL     1       2.906  -7.561  53.109  1.00  0.00     0.101 A 
BRANCH   9  13
HETATM   13  C   UNL     1       0.220 -10.824  52.299  1.00  0.00     0.045 C 
HETATM   14  C   UNL     1       0.610 -12.175  52.902  1.00  0.00     0.132 C 
HETATM   15  N   UNL     1      -0.630 -12.898  52.952  1.00  0.00    -0.360 N 
HETATM   16  C   UNL     1      -1.737 -12.062  52.911  1.00  0.00     0.218 C 
HETATM   17  H   UNL     1      -0.688 -13.879  53.009  1.00  0.00     0.162 HD
HETATM   18  O   UNL     1      -2.912 -12.384  52.984  1.00  0.00    -0.274 OA
HETATM   19  C   UNL     1      -1.222 -10.647  52.813  1.00  0.00     0.113 C 
ENDBRANCH   9  13
BRANCH  12  20
HETATM   20  O   UNL     1       3.751  -6.522  53.356  1.00  0.00    -0.353 OA
HETATM   21  C   UNL     1       3.206  -5.391  54.032  1.00  0.00     0.210 C 
ENDBRANCH  12  20
ENDBRANCH   1   7
TORSDOF 4
ENDMDL
MODEL 7
REMARK VINA RESULT:      -6.4      2.193      2.555
REMARK  4 active torsions:
REMARK  status: ('A' for Active; 'I' for Inactive)
REMARK    1  A    between atoms: O_1  and  C_5 
REMARK    2  A    between atoms: O_1  and  C_14 
REMARK    3  A    between atoms: O_2  and  C_18 
REMARK    4  A    between atoms: C_10  and  C_13 
ROOT
HETATM    1  O   UNL     1       2.222  -7.795  55.283  1.00  0.00    -0.343 OA
ENDROOT
BRANCH   1   2
HETATM    2  C   UNL     1       3.341  -7.231  54.610  1.00  0.00     0.129 C 
HETATM    3  C   UNL     1       4.440  -6.936  55.620  1.00  0.00     0.032 C 
HETATM    4  C   UNL     1       4.017  -5.621  56.273  1.00  0.00     0.002 C 
HETATM    5  C   UNL     1       3.064  -4.941  55.290  1.00  0.00     0.002 C 
HETATM    6  C   UNL     1       2.994  -5.854  54.068  1.00  0.00     0.032 C 
ENDBRANCH   1   2
BRANCH   1   7
HETATM    7  C   UNL     1       1.894  -9.086  54.960  1.00  0.00     0.103 A 
HETATM    8  C   UNL     1       1.462  -9.371  53.668  1.00  0.00     0.047 A 
HETATM    9  C   UNL     1       1.125 -10.681  53.327  1.00  0.00    -0.049 A 
HETATM   10  C   UNL     1       1.219 -11.697  54.278  1.00  0.00     0.010 A 
HETATM   11  C   UNL     1       1.651 -11.403  55.571  1.00  0.00     0.040 A 
HETATM   12  C   UNL     1       1.990 -10.094  55.913  1.00  0.00     0.101 A 
BRANCH   9  13
HETATM   13  C   UNL     1       0.656 -11.001  51.924  1.00  0.00     0.045 C 
HETATM   14  C   UNL     1       1.279 -10.163  50.806  1.00  0.00     0.132 C 
HETATM   15  N   UNL     1       1.102 -10.973  49.633  1.00  0.00    -0.360 N 
HETATM   16  C   UNL     1       0.899 -12.312  49.934  1.00  0.00     0.218 C 
HETATM   17  H   UNL     1       1.122 -10.617  48.715  1.00  0.00     0.162 HD
HETATM   18  O   UNL     1       0.767 -13.237  49.149  1.00  0.00    -0.274 OA
HETATM   19  C   UNL     1       0.927 -12.438  51.438  1.00  0.00     0.113 C 
ENDBRANCH   9  13
BRANCH  12  20
HETATM   20  O   UNL     1       2.410  -9.818  57.179  1.00  0.00    -0.353 OA
HETATM   21  C   UNL     1       3.778 -10.085  57.480  1.00  0.00     0.210 C 
ENDBRANCH  12  20
ENDBRANCH   1   7
TORSDOF 4
ENDMDL
MODEL 8
REMARK VINA RESULT:      -6.3      2.795      6.713
REMARK  4 active torsions:
REMARK  status: ('A' for Active; 'I' for Inactive)
REMARK    1  A    between atoms: O_1  and  C_5 
REMARK    2  A    between atoms: O_1  and  C_14 
REMARK    3  A    between atoms: O_2  and  C_18 
REMARK    4  A    between atoms: C_10  and  C_13 
ROOT
HETATM    1  O   UNL     1       0.902 -10.815  51.775  1.00  0.00    -0.343 OA
ENDROOT
BRANCH   1   2
HETATM    2  C   UNL     1       0.722 -12.088  52.383  1.00  0.00     0.129 C 
HETATM    3  C   UNL     1       1.052 -13.180  51.376  1.00  0.00     0.032 C 
HETATM    4  C   UNL     1      -0.196 -13.285  50.501  1.00  0.00     0.002 C 
HETATM    5  C   UNL     1      -1.347 -12.710  51.326  1.00  0.00     0.002 C 
HETATM    6  C   UNL     1      -0.750 -12.329  52.679  1.00  0.00     0.032 C 
ENDBRANCH   1   2
BRANCH   1   7
HETATM    7  C   UNL     1       1.825  -9.982  52.351  1.00  0.00     0.103 A 
HETATM    8  C   UNL     1       2.048 -10.063  53.722  1.00  0.00     0.047 A 
HETATM    9  C   UNL     1       2.984  -9.219  54.321  1.00  0.00    -0.049 A 
HETATM   10  C   UNL     1       3.690  -8.299  53.547  1.00  0.00     0.010 A 
HETATM   11  C   UNL     1       3.462  -8.223  52.173  1.00  0.00     0.040 A 
HETATM   12  C   UNL     1       2.526  -9.066  51.573  1.00  0.00     0.101 A 
BRANCH   9  13
HETATM   13  C   UNL     1       3.233  -9.303  55.812  1.00  0.00     0.045 C 
HETATM   14  C   UNL     1       2.986 -10.669  56.454  1.00  0.00     0.132 C 
HETATM   15  N   UNL     1       3.765 -10.626  57.659  1.00  0.00    -0.360 N 
HETATM   16  C   UNL     1       4.770  -9.670  57.612  1.00  0.00     0.218 C 
HETATM   17  H   UNL     1       3.605 -11.212  58.434  1.00  0.00     0.162 HD
HETATM   18  O   UNL     1       5.614  -9.438  58.462  1.00  0.00    -0.274 OA
HETATM   19  C   UNL     1       4.670  -8.988  56.268  1.00  0.00     0.113 C 
ENDBRANCH   9  13
BRANCH  12  20
HETATM   20  O   UNL     1       2.310  -8.982  50.231  1.00  0.00    -0.353 OA
HETATM   21  C   UNL     1       3.421  -8.609  49.419  1.00  0.00     0.210 C 
ENDBRANCH  12  20
ENDBRANCH   1   7
TORSDOF 4
ENDMDL
MODEL 9
REMARK VINA RESULT:      -6.3      1.509      2.200
REMARK  4 active torsions:
REMARK  status: ('A' for Active; 'I' for Inactive)
REMARK    1  A    between atoms: O_1  and  C_5 
REMARK    2  A    between atoms: O_1  and  C_14 
REMARK    3  A    between atoms: O_2  and  C_18 
REMARK    4  A    between atoms: C_10  and  C_13 
ROOT
HETATM    1  O   UNL     1       3.311  -8.004  52.765  1.00  0.00    -0.343 OA
ENDROOT
BRANCH   1   2
HETATM    2  C   UNL     1       2.692  -6.725  52.810  1.00  0.00     0.129 C 
HETATM    3  C   UNL     1       1.810  -6.547  51.583  1.00  0.00     0.032 C 
HETATM    4  C   UNL     1       2.780  -6.173  50.464  1.00  0.00     0.002 C 
HETATM    5  C   UNL     1       4.026  -5.611  51.148  1.00  0.00     0.002 C 
HETATM    6  C   UNL     1       3.732  -5.628  52.647  1.00  0.00     0.032 C 
ENDBRANCH   1   2
BRANCH   1   7
HETATM    7  C   UNL     1       2.939  -8.903  53.730  1.00  0.00     0.103 A 
HETATM    8  C   UNL     1       1.854  -9.742  53.492  1.00  0.00     0.047 A 
HETATM    9  C   UNL     1       1.465 -10.661  54.467  1.00  0.00    -0.049 A 
HETATM   10  C   UNL     1       2.160 -10.735  55.674  1.00  0.00     0.010 A 
HETATM   11  C   UNL     1       3.245  -9.891  55.906  1.00  0.00     0.040 A 
HETATM   12  C   UNL     1       3.636  -8.972  54.932  1.00  0.00     0.101 A 
BRANCH   9  13
HETATM   13  C   UNL     1       0.288 -11.578  54.214  1.00  0.00     0.045 C 
HETATM   14  C   UNL     1      -1.096 -10.941  54.352  1.00  0.00     0.132 C 
HETATM   15  N   UNL     1      -1.947 -11.801  53.581  1.00  0.00    -0.360 N 
HETATM   16  C   UNL     1      -1.244 -12.560  52.655  1.00  0.00     0.218 C 
HETATM   17  H   UNL     1      -2.924 -11.848  53.695  1.00  0.00     0.162 HD
HETATM   18  O   UNL     1      -1.699 -13.339  51.835  1.00  0.00    -0.274 OA
HETATM   19  C   UNL     1       0.215 -12.202  52.807  1.00  0.00     0.113 C 
ENDBRANCH   9  13
BRANCH  12  20
HETATM   20  O   UNL     1       4.697  -8.151  55.170  1.00  0.00    -0.353 OA
HETATM   21  C   UNL     1       5.457  -8.402  56.350  1.00  0.00     0.210 C 
ENDBRANCH  12  20
ENDBRANCH   1   7
TORSDOF 4
ENDMDL
