MODEL 1
REMARK VINA RESULT:      -7.1      0.000      0.000
REMARK  4 active torsions:
REMARK  status: ('A' for Active; 'I' for Inactive)
REMARK    1  A    between atoms: O_1  and  C_5 
REMARK    2  A    between atoms: O_1  and  C_14 
REMARK    3  A    between atoms: O_2  and  C_18 
REMARK    4  A    between atoms: C_10  and  C_13 
ROOT
HETATM    1  O   UNL     1     -53.073  47.904   8.766  1.00  0.00    -0.343 OA
ENDROOT
BRANCH   1   2
HETATM    2  C   UNL     1     -52.353  46.715   8.467  1.00  0.00     0.129 C 
HETATM    3  C   UNL     1     -51.051  47.076   7.768  1.00  0.00     0.032 C 
HETATM    4  C   UNL     1     -51.454  47.341   6.319  1.00  0.00     0.002 C 
HETATM    5  C   UNL     1     -52.779  46.610   6.103  1.00  0.00     0.002 C 
HETATM    6  C   UNL     1     -53.091  45.899   7.418  1.00  0.00     0.032 C 
ENDBRANCH   1   2
BRANCH   1   7
HETATM    7  C   UNL     1     -53.093  48.300  10.078  1.00  0.00     0.103 A 
HETATM    8  C   UNL     1     -52.729  47.390  11.065  1.00  0.00     0.047 A 
HETATM    9  C   UNL     1     -52.746  47.780  12.405  1.00  0.00    -0.049 A 
HETATM   10  C   UNL     1     -53.129  49.076  12.749  1.00  0.00     0.010 A 
HETATM   11  C   UNL     1     -53.493  49.983  11.755  1.00  0.00     0.040 A 
HETATM   12  C   UNL     1     -53.476  49.594  10.415  1.00  0.00     0.101 A 
BRANCH   9  13
HETATM   13  C   UNL     1     -52.350  46.796  13.484  1.00  0.00     0.045 C 
HETATM   14  C   UNL     1     -51.977  45.393  13.004  1.00  0.00     0.132 C 
HETATM   15  N   UNL     1     -51.171  44.869  14.070  1.00  0.00    -0.360 N 
HETATM   16  C   UNL     1     -50.635  45.865  14.874  1.00  0.00     0.218 C 
HETATM   17  H   UNL     1     -51.016  43.907  14.216  1.00  0.00     0.162 HD
HETATM   18  O   UNL     1     -49.878  45.727  15.821  1.00  0.00    -0.274 OA
HETATM   19  C   UNL     1     -51.119  47.186  14.325  1.00  0.00     0.113 C 
ENDBRANCH   9  13
BRANCH  12  20
HETATM   20  O   UNL     1     -53.835  50.488   9.452  1.00  0.00    -0.353 OA
HETATM   21  C   UNL     1     -53.612  51.867   9.734  1.00  0.00     0.210 C 
ENDBRANCH  12  20
ENDBRANCH   1   7
TORSDOF 4
ENDMDL
MODEL 2
REMARK VINA RESULT:      -7.0      3.731      5.765
REMARK  4 active torsions:
REMARK  status: ('A' for Active; 'I' for Inactive)
REMARK    1  A    between atoms: O_1  and  C_5 
REMARK    2  A    between atoms: O_1  and  C_14 
REMARK    3  A    between atoms: O_2  and  C_18 
REMARK    4  A    between atoms: C_10  and  C_13 
ROOT
HETATM    1  O   UNL     1     -52.433  43.271   9.495  1.00  0.00    -0.343 OA
ENDROOT
BRANCH   1   2
HETATM    2  C   UNL     1     -51.247  43.335   8.713  1.00  0.00     0.129 C 
HETATM    3  C   UNL     1     -51.564  42.929   7.281  1.00  0.00     0.032 C 
HETATM    4  C   UNL     1     -51.602  41.402   7.316  1.00  0.00     0.002 C 
HETATM    5  C   UNL     1     -50.790  40.981   8.540  1.00  0.00     0.002 C 
HETATM    6  C   UNL     1     -50.258  42.271   9.161  1.00  0.00     0.032 C 
ENDBRANCH   1   2
BRANCH   1   7
HETATM    7  C   UNL     1     -53.304  44.322   9.382  1.00  0.00     0.103 A 
HETATM    8  C   UNL     1     -52.843  45.613   9.620  1.00  0.00     0.047 A 
HETATM    9  C   UNL     1     -53.721  46.691   9.510  1.00  0.00    -0.049 A 
HETATM   10  C   UNL     1     -55.054  46.474   9.163  1.00  0.00     0.010 A 
HETATM   11  C   UNL     1     -55.510  45.177   8.926  1.00  0.00     0.040 A 
HETATM   12  C   UNL     1     -54.633  44.098   9.036  1.00  0.00     0.101 A 
BRANCH   9  13
HETATM   13  C   UNL     1     -53.226  48.099   9.766  1.00  0.00     0.045 C 
HETATM   14  C   UNL     1     -53.644  49.150   8.737  1.00  0.00     0.132 C 
HETATM   15  N   UNL     1     -53.527  50.391   9.450  1.00  0.00    -0.360 N 
HETATM   16  C   UNL     1     -53.554  50.221  10.827  1.00  0.00     0.218 C 
HETATM   17  H   UNL     1     -53.438  51.268   9.010  1.00  0.00     0.162 HD
HETATM   18  O   UNL     1     -53.522  51.090  11.683  1.00  0.00    -0.274 OA
HETATM   19  C   UNL     1     -53.690  48.740  11.088  1.00  0.00     0.113 C 
ENDBRANCH   9  13
BRANCH  12  20
HETATM   20  O   UNL     1     -55.089  42.836   8.803  1.00  0.00    -0.353 OA
HETATM   21  C   UNL     1     -56.426  42.709   8.324  1.00  0.00     0.210 C 
ENDBRANCH  12  20
ENDBRANCH   1   7
TORSDOF 4
ENDMDL
MODEL 3
REMARK VINA RESULT:      -6.8      1.161      1.333
REMARK  4 active torsions:
REMARK  status: ('A' for Active; 'I' for Inactive)
REMARK    1  A    between atoms: O_1  and  C_5 
REMARK    2  A    between atoms: O_1  and  C_14 
REMARK    3  A    between atoms: O_2  and  C_18 
REMARK    4  A    between atoms: C_10  and  C_13 
ROOT
HETATM    1  O   UNL     1     -53.086  47.055   9.261  1.00  0.00    -0.343 OA
ENDROOT
BRANCH   1   2
HETATM    2  C   UNL     1     -51.836  46.912   8.599  1.00  0.00     0.129 C 
HETATM    3  C   UNL     1     -51.951  47.452   7.181  1.00  0.00     0.032 C 
HETATM    4  C   UNL     1     -52.632  46.330   6.398  1.00  0.00     0.002 C 
HETATM    5  C   UNL     1     -52.379  45.044   7.185  1.00  0.00     0.002 C 
HETATM    6  C   UNL     1     -51.517  45.441   8.382  1.00  0.00     0.032 C 
ENDBRANCH   1   2
BRANCH   1   7
HETATM    7  C   UNL     1     -53.091  47.789  10.419  1.00  0.00     0.103 A 
HETATM    8  C   UNL     1     -52.576  47.223  11.581  1.00  0.00     0.047 A 
HETATM    9  C   UNL     1     -52.576  47.959  12.766  1.00  0.00    -0.049 A 
HETATM   10  C   UNL     1     -53.091  49.255  12.783  1.00  0.00     0.010 A 
HETATM   11  C   UNL     1     -53.606  49.815  11.614  1.00  0.00     0.040 A 
HETATM   12  C   UNL     1     -53.607  49.080  10.429  1.00  0.00     0.101 A 
BRANCH   9  13
HETATM   13  C   UNL     1     -52.016  47.351  14.034  1.00  0.00     0.045 C 
HETATM   14  C   UNL     1     -50.922  46.300  13.843  1.00  0.00     0.132 C 
HETATM   15  N   UNL     1     -50.230  46.293  15.101  1.00  0.00    -0.360 N 
HETATM   16  C   UNL     1     -50.432  47.458  15.828  1.00  0.00     0.218 C 
HETATM   17  H   UNL     1     -49.674  45.544  15.415  1.00  0.00     0.162 HD
HETATM   18  O   UNL     1     -49.938  47.757  16.903  1.00  0.00    -0.274 OA
HETATM   19  C   UNL     1     -51.346  48.338  15.010  1.00  0.00     0.113 C 
ENDBRANCH   9  13
BRANCH  12  20
HETATM   20  O   UNL     1     -54.113  49.637   9.294  1.00  0.00    -0.353 OA
HETATM   21  C   UNL     1     -53.282  50.566   8.602  1.00  0.00     0.210 C 
ENDBRANCH  12  20
ENDBRANCH   1   7
TORSDOF 4
ENDMDL
MODEL 4
REMARK VINA RESULT:      -6.8      2.763      4.892
REMARK  4 active torsions:
REMARK  status: ('A' for Active; 'I' for Inactive)
REMARK    1  A    between atoms: O_1  and  C_5 
REMARK    2  A    between atoms: O_1  and  C_14 
REMARK    3  A    between atoms: O_2  and  C_18 
REMARK    4  A    between atoms: C_10  and  C_13 
ROOT
HETATM    1  O   UNL     1     -52.401  47.790  10.772  1.00  0.00    -0.343 OA
ENDROOT
BRANCH   1   2
HETATM    2  C   UNL     1     -53.660  48.116  11.347  1.00  0.00     0.129 C 
HETATM    3  C   UNL     1     -54.613  48.571  10.252  1.00  0.00     0.032 C 
HETATM    4  C   UNL     1     -54.224  50.024   9.983  1.00  0.00     0.002 C 
HETATM    5  C   UNL     1     -53.505  50.513  11.240  1.00  0.00     0.002 C 
HETATM    6  C   UNL     1     -53.536  49.349  12.228  1.00  0.00     0.032 C 
ENDBRANCH   1   2
BRANCH   1   7
HETATM    7  C   UNL     1     -52.237  46.501  10.336  1.00  0.00     0.103 A 
HETATM    8  C   UNL     1     -52.380  45.456  11.245  1.00  0.00     0.047 A 
HETATM    9  C   UNL     1     -52.214  44.140  10.814  1.00  0.00    -0.049 A 
HETATM   10  C   UNL     1     -51.905  43.875   9.480  1.00  0.00     0.010 A 
HETATM   11  C   UNL     1     -51.762  44.927   8.576  1.00  0.00     0.040 A 
HETATM   12  C   UNL     1     -51.928  46.244   9.005  1.00  0.00     0.101 A 
BRANCH   9  13
HETATM   13  C   UNL     1     -52.370  42.998  11.796  1.00  0.00     0.045 C 
HETATM   14  C   UNL     1     -52.598  43.399  13.254  1.00  0.00     0.132 C 
HETATM   15  N   UNL     1     -53.219  42.242  13.834  1.00  0.00    -0.360 N 
HETATM   16  C   UNL     1     -53.803  41.416  12.883  1.00  0.00     0.218 C 
HETATM   17  H   UNL     1     -53.231  42.054  14.800  1.00  0.00     0.162 HD
HETATM   18  O   UNL     1     -54.439  40.394  13.078  1.00  0.00    -0.274 OA
HETATM   19  C   UNL     1     -53.555  42.049  11.535  1.00  0.00     0.113 C 
ENDBRANCH   9  13
BRANCH  12  20
HETATM   20  O   UNL     1     -51.785  47.263   8.113  1.00  0.00    -0.353 OA
HETATM   21  C   UNL     1     -51.444  46.909   6.775  1.00  0.00     0.210 C 
ENDBRANCH  12  20
ENDBRANCH   1   7
TORSDOF 4
ENDMDL
MODEL 5
REMARK VINA RESULT:      -6.7      2.641      5.575
REMARK  4 active torsions:
REMARK  status: ('A' for Active; 'I' for Inactive)
REMARK    1  A    between atoms: O_1  and  C_5 
REMARK    2  A    between atoms: O_1  and  C_14 
REMARK    3  A    between atoms: O_2  and  C_18 
REMARK    4  A    between atoms: C_10  and  C_13 
ROOT
HETATM    1  O   UNL     1     -52.353  49.338  12.984  1.00  0.00    -0.343 OA
ENDROOT
BRANCH   1   2
HETATM    2  C   UNL     1     -52.899  48.563  14.044  1.00  0.00     0.129 C 
HETATM    3  C   UNL     1     -52.384  49.092  15.374  1.00  0.00     0.032 C 
HETATM    4  C   UNL     1     -50.980  48.502  15.503  1.00  0.00     0.002 C 
HETATM    5  C   UNL     1     -50.949  47.270  14.598  1.00  0.00     0.002 C 
HETATM    6  C   UNL     1     -52.349  47.146  14.001  1.00  0.00     0.032 C 
ENDBRANCH   1   2
BRANCH   1   7
HETATM    7  C   UNL     1     -52.973  49.242  11.766  1.00  0.00     0.103 A 
HETATM    8  C   UNL     1     -53.059  47.998  11.147  1.00  0.00     0.047 A 
HETATM    9  C   UNL     1     -53.687  47.886   9.906  1.00  0.00    -0.049 A 
HETATM   10  C   UNL     1     -54.223  49.017   9.290  1.00  0.00     0.010 A 
HETATM   11  C   UNL     1     -54.132  50.260   9.916  1.00  0.00     0.040 A 
HETATM   12  C   UNL     1     -53.505  50.373  11.157  1.00  0.00     0.101 A 
BRANCH   9  13
HETATM   13  C   UNL     1     -53.786  46.537   9.228  1.00  0.00     0.045 C 
HETATM   14  C   UNL     1     -53.108  45.374   9.954  1.00  0.00     0.132 C 
HETATM   15  N   UNL     1     -53.771  44.212   9.433  1.00  0.00    -0.360 N 
HETATM   16  C   UNL     1     -55.010  44.507   8.880  1.00  0.00     0.218 C 
HETATM   17  H   UNL     1     -53.390  43.305   9.465  1.00  0.00     0.162 HD
HETATM   18  O   UNL     1     -55.817  43.724   8.406  1.00  0.00    -0.274 OA
HETATM   19  C   UNL     1     -55.214  45.997   9.019  1.00  0.00     0.113 C 
ENDBRANCH   9  13
BRANCH  12  20
HETATM   20  O   UNL     1     -53.422  51.593  11.758  1.00  0.00    -0.353 OA
HETATM   21  C   UNL     1     -53.656  52.736  10.939  1.00  0.00     0.210 C 
ENDBRANCH  12  20
ENDBRANCH   1   7
TORSDOF 4
ENDMDL
MODEL 6
REMARK VINA RESULT:      -6.7      3.283      5.753
REMARK  4 active torsions:
REMARK  status: ('A' for Active; 'I' for Inactive)
REMARK    1  A    between atoms: O_1  and  C_5 
REMARK    2  A    between atoms: O_1  and  C_14 
REMARK    3  A    between atoms: O_2  and  C_18 
REMARK    4  A    between atoms: C_10  and  C_13 
ROOT
HETATM    1  O   UNL     1     -52.634  47.814  11.200  1.00  0.00    -0.343 OA
ENDROOT
BRANCH   1   2
HETATM    2  C   UNL     1     -53.924  48.360  11.442  1.00  0.00     0.129 C 
HETATM    3  C   UNL     1     -54.571  48.736  10.117  1.00  0.00     0.032 C 
HETATM    4  C   UNL     1     -53.939  50.078   9.750  1.00  0.00     0.002 C 
HETATM    5  C   UNL     1     -53.423  50.679  11.056  1.00  0.00     0.002 C 
HETATM    6  C   UNL     1     -53.809  49.696  12.159  1.00  0.00     0.032 C 
ENDBRANCH   1   2
BRANCH   1   7
HETATM    7  C   UNL     1     -52.467  46.481  11.469  1.00  0.00     0.103 A 
HETATM    8  C   UNL     1     -52.720  45.551  10.466  1.00  0.00     0.047 A 
HETATM    9  C   UNL     1     -52.555  44.190  10.728  1.00  0.00    -0.049 A 
HETATM   10  C   UNL     1     -52.140  43.768  11.992  1.00  0.00     0.010 A 
HETATM   11  C   UNL     1     -51.890  44.706  12.992  1.00  0.00     0.040 A 
HETATM   12  C   UNL     1     -52.054  46.067  12.731  1.00  0.00     0.101 A 
BRANCH   9  13
HETATM   13  C   UNL     1     -52.826  43.172   9.642  1.00  0.00     0.045 C 
HETATM   14  C   UNL     1     -52.567  43.641   8.209  1.00  0.00     0.132 C 
HETATM   15  N   UNL     1     -52.380  42.419   7.478  1.00  0.00    -0.360 N 
HETATM   16  C   UNL     1     -52.035  41.354   8.298  1.00  0.00     0.218 C 
HETATM   17  H   UNL     1     -52.484  42.345   6.502  1.00  0.00     0.162 HD
HETATM   18  O   UNL     1     -51.768  40.213   7.959  1.00  0.00    -0.274 OA
HETATM   19  C   UNL     1     -51.991  41.879   9.713  1.00  0.00     0.113 C 
ENDBRANCH   9  13
BRANCH  12  20
HETATM   20  O   UNL     1     -51.807  46.974  13.717  1.00  0.00    -0.353 OA
HETATM   21  C   UNL     1     -50.693  46.717  14.569  1.00  0.00     0.210 C 
ENDBRANCH  12  20
ENDBRANCH   1   7
TORSDOF 4
ENDMDL
MODEL 7
REMARK VINA RESULT:      -6.6      2.653      5.969
REMARK  4 active torsions:
REMARK  status: ('A' for Active; 'I' for Inactive)
REMARK    1  A    between atoms: O_1  and  C_5 
REMARK    2  A    between atoms: O_1  and  C_14 
REMARK    3  A    between atoms: O_2  and  C_18 
REMARK    4  A    between atoms: C_10  and  C_13 
ROOT
HETATM    1  O   UNL     1     -52.410  46.602  12.928  1.00  0.00    -0.343 OA
ENDROOT
BRANCH   1   2
HETATM    2  C   UNL     1     -51.318  45.818  12.466  1.00  0.00     0.129 C 
HETATM    3  C   UNL     1     -51.718  44.350  12.458  1.00  0.00     0.032 C 
HETATM    4  C   UNL     1     -51.579  43.906  13.913  1.00  0.00     0.002 C 
HETATM    5  C   UNL     1     -50.613  44.892  14.570  1.00  0.00     0.002 C 
HETATM    6  C   UNL     1     -50.176  45.857  13.470  1.00  0.00     0.032 C 
ENDBRANCH   1   2
BRANCH   1   7
HETATM    7  C   UNL     1     -52.844  47.604  12.100  1.00  0.00     0.103 A 
HETATM    8  C   UNL     1     -52.794  47.413  10.722  1.00  0.00     0.047 A 
HETATM    9  C   UNL     1     -53.232  48.426   9.869  1.00  0.00    -0.049 A 
HETATM   10  C   UNL     1     -53.714  49.623  10.396  1.00  0.00     0.010 A 
HETATM   11  C   UNL     1     -53.760  49.809  11.777  1.00  0.00     0.040 A 
HETATM   12  C   UNL     1     -53.323  48.796  12.632  1.00  0.00     0.101 A 
BRANCH   9  13
HETATM   13  C   UNL     1     -53.183  48.224   8.369  1.00  0.00     0.045 C 
HETATM   14  C   UNL     1     -51.804  48.363   7.723  1.00  0.00     0.132 C 
HETATM   15  N   UNL     1     -51.929  47.636   6.491  1.00  0.00    -0.360 N 
HETATM   16  C   UNL     1     -52.976  46.725   6.512  1.00  0.00     0.218 C 
HETATM   17  H   UNL     1     -51.336  47.767   5.716  1.00  0.00     0.162 HD
HETATM   18  O   UNL     1     -53.294  45.939   5.635  1.00  0.00    -0.274 OA
HETATM   19  C   UNL     1     -53.636  46.841   7.865  1.00  0.00     0.113 C 
ENDBRANCH   9  13
BRANCH  12  20
HETATM   20  O   UNL     1     -53.372  48.989  13.980  1.00  0.00    -0.353 OA
HETATM   21  C   UNL     1     -52.129  49.184  14.651  1.00  0.00     0.210 C 
ENDBRANCH  12  20
ENDBRANCH   1   7
TORSDOF 4
ENDMDL
MODEL 8
REMARK VINA RESULT:      -6.5      2.737      5.154
REMARK  4 active torsions:
REMARK  status: ('A' for Active; 'I' for Inactive)
REMARK    1  A    between atoms: O_1  and  C_5 
REMARK    2  A    between atoms: O_1  and  C_14 
REMARK    3  A    between atoms: O_2  and  C_18 
REMARK    4  A    between atoms: C_10  and  C_13 
ROOT
HETATM    1  O   UNL     1     -51.388  45.754   7.660  1.00  0.00    -0.343 OA
ENDROOT
BRANCH   1   2
HETATM    2  C   UNL     1     -52.401  45.332   6.756  1.00  0.00     0.129 C 
HETATM    3  C   UNL     1     -51.800  44.379   5.733  1.00  0.00     0.032 C 
HETATM    4  C   UNL     1     -51.107  45.291   4.721  1.00  0.00     0.002 C 
HETATM    5  C   UNL     1     -51.774  46.660   4.853  1.00  0.00     0.002 C 
HETATM    6  C   UNL     1     -52.870  46.500   5.903  1.00  0.00     0.032 C 
ENDBRANCH   1   2
BRANCH   1   7
HETATM    7  C   UNL     1     -51.796  46.121   8.916  1.00  0.00     0.103 A 
HETATM    8  C   UNL     1     -52.458  47.334   9.085  1.00  0.00     0.047 A 
HETATM    9  C   UNL     1     -52.877  47.719  10.359  1.00  0.00    -0.049 A 
HETATM   10  C   UNL     1     -52.631  46.893  11.455  1.00  0.00     0.010 A 
HETATM   11  C   UNL     1     -51.967  45.680  11.278  1.00  0.00     0.040 A 
HETATM   12  C   UNL     1     -51.548  45.292  10.005  1.00  0.00     0.101 A 
BRANCH   9  13
HETATM   13  C   UNL     1     -53.599  49.036  10.551  1.00  0.00     0.045 C 
HETATM   14  C   UNL     1     -53.165  49.864  11.761  1.00  0.00     0.132 C 
HETATM   15  N   UNL     1     -53.571  51.199  11.425  1.00  0.00    -0.360 N 
HETATM   16  C   UNL     1     -53.752  51.375  10.060  1.00  0.00     0.218 C 
HETATM   17  H   UNL     1     -53.706  51.913  12.090  1.00  0.00     0.162 HD
HETATM   18  O   UNL     1     -54.047  52.406   9.478  1.00  0.00    -0.274 OA
HETATM   19  C   UNL     1     -53.457  50.050   9.400  1.00  0.00     0.113 C 
ENDBRANCH   9  13
BRANCH  12  20
HETATM   20  O   UNL     1     -50.899  44.106   9.844  1.00  0.00    -0.353 OA
HETATM   21  C   UNL     1     -51.704  42.931   9.776  1.00  0.00     0.210 C 
ENDBRANCH  12  20
ENDBRANCH   1   7
TORSDOF 4
ENDMDL
MODEL 9
REMARK VINA RESULT:      -6.5      2.173      4.452
REMARK  4 active torsions:
REMARK  status: ('A' for Active; 'I' for Inactive)
REMARK    1  A    between atoms: O_1  and  C_5 
REMARK    2  A    between atoms: O_1  and  C_14 
REMARK    3  A    between atoms: O_2  and  C_18 
REMARK    4  A    between atoms: C_10  and  C_13 
ROOT
HETATM    1  O   UNL     1     -52.799  47.913   9.100  1.00  0.00    -0.343 OA
ENDROOT
BRANCH   1   2
HETATM    2  C   UNL     1     -53.951  48.746   9.113  1.00  0.00     0.129 C 
HETATM    3  C   UNL     1     -53.544  50.165   9.482  1.00  0.00     0.032 C 
HETATM    4  C   UNL     1     -53.397  50.138  11.003  1.00  0.00     0.002 C 
HETATM    5  C   UNL     1     -54.229  48.954  11.492  1.00  0.00     0.002 C 
HETATM    6  C   UNL     1     -54.879  48.349  10.250  1.00  0.00     0.032 C 
ENDBRANCH   1   2
BRANCH   1   7
HETATM    7  C   UNL     1     -53.015  46.563   9.014  1.00  0.00     0.103 A 
HETATM    8  C   UNL     1     -52.877  45.781  10.157  1.00  0.00     0.047 A 
HETATM    9  C   UNL     1     -53.094  44.405  10.083  1.00  0.00    -0.049 A 
HETATM   10  C   UNL     1     -53.445  43.818   8.867  1.00  0.00     0.010 A 
HETATM   11  C   UNL     1     -53.580  44.607   7.726  1.00  0.00     0.040 A 
HETATM   12  C   UNL     1     -53.365  45.983   7.799  1.00  0.00     0.101 A 
BRANCH   9  13
HETATM   13  C   UNL     1     -52.947  43.548  11.322  1.00  0.00     0.045 C 
HETATM   14  C   UNL     1     -52.355  42.155  11.104  1.00  0.00     0.132 C 
HETATM   15  N   UNL     1     -51.846  41.793  12.397  1.00  0.00    -0.360 N 
HETATM   16  C   UNL     1     -51.630  42.895  13.213  1.00  0.00     0.218 C 
HETATM   17  H   UNL     1     -51.670  40.865  12.675  1.00  0.00     0.162 HD
HETATM   18  O   UNL     1     -51.162  42.903  14.340  1.00  0.00    -0.274 OA
HETATM   19  C   UNL     1     -52.032  44.117  12.424  1.00  0.00     0.113 C 
ENDBRANCH   9  13
BRANCH  12  20
HETATM   20  O   UNL     1     -53.499  46.744   6.677  1.00  0.00    -0.353 OA
HETATM   21  C   UNL     1     -52.670  46.411   5.566  1.00  0.00     0.210 C 
ENDBRANCH  12  20
ENDBRANCH   1   7
TORSDOF 4
ENDMDL
