MODEL 1
REMARK VINA RESULT:      -7.1      0.000      0.000
REMARK  4 active torsions:
REMARK  status: ('A' for Active; 'I' for Inactive)
REMARK    1  A    between atoms: O_1  and  C_5 
REMARK    2  A    between atoms: O_1  and  C_14 
REMARK    3  A    between atoms: O_2  and  C_18 
REMARK    4  A    between atoms: C_10  and  C_13 
ROOT
HETATM    1  O   UNL     1     -53.044  47.920   8.725  1.00  0.00    -0.343 OA
ENDROOT
BRANCH   1   2
HETATM    2  C   UNL     1     -52.351  46.716   8.421  1.00  0.00     0.129 C 
HETATM    3  C   UNL     1     -51.011  47.053   7.782  1.00  0.00     0.032 C 
HETATM    4  C   UNL     1     -51.350  47.369   6.326  1.00  0.00     0.002 C 
HETATM    5  C   UNL     1     -52.688  46.689   6.040  1.00  0.00     0.002 C 
HETATM    6  C   UNL     1     -53.073  45.953   7.321  1.00  0.00     0.032 C 
ENDBRANCH   1   2
BRANCH   1   7
HETATM    7  C   UNL     1     -53.059  48.307  10.040  1.00  0.00     0.103 A 
HETATM    8  C   UNL     1     -52.716  47.383  11.022  1.00  0.00     0.047 A 
HETATM    9  C   UNL     1     -52.729  47.764  12.364  1.00  0.00    -0.049 A 
HETATM   10  C   UNL     1     -53.086  49.066  12.716  1.00  0.00     0.010 A 
HETATM   11  C   UNL     1     -53.430  49.986  11.727  1.00  0.00     0.040 A 
HETATM   12  C   UNL     1     -53.417  49.606  10.384  1.00  0.00     0.101 A 
BRANCH   9  13
HETATM   13  C   UNL     1     -52.356  46.765  13.437  1.00  0.00     0.045 C 
HETATM   14  C   UNL     1     -51.976  45.368  12.945  1.00  0.00     0.132 C 
HETATM   15  N   UNL     1     -51.192  44.828  14.020  1.00  0.00    -0.360 N 
HETATM   16  C   UNL     1     -50.670  45.812  14.847  1.00  0.00     0.218 C 
HETATM   17  H   UNL     1     -51.041  43.864  14.156  1.00  0.00     0.162 HD
HETATM   18  O   UNL     1     -49.932  45.660  15.807  1.00  0.00    -0.274 OA
HETATM   19  C   UNL     1     -51.140  47.141  14.307  1.00  0.00     0.113 C 
ENDBRANCH   9  13
BRANCH  12  20
HETATM   20  O   UNL     1     -53.755  50.514   9.427  1.00  0.00    -0.353 OA
HETATM   21  C   UNL     1     -53.654  51.892   9.776  1.00  0.00     0.210 C 
ENDBRANCH  12  20
ENDBRANCH   1   7
TORSDOF 4
ENDMDL
MODEL 2
REMARK VINA RESULT:      -7.1      3.752      5.745
REMARK  4 active torsions:
REMARK  status: ('A' for Active; 'I' for Inactive)
REMARK    1  A    between atoms: O_1  and  C_5 
REMARK    2  A    between atoms: O_1  and  C_14 
REMARK    3  A    between atoms: O_2  and  C_18 
REMARK    4  A    between atoms: C_10  and  C_13 
ROOT
HETATM    1  O   UNL     1     -52.346  43.340   9.600  1.00  0.00    -0.343 OA
ENDROOT
BRANCH   1   2
HETATM    2  C   UNL     1     -51.183  43.354   8.782  1.00  0.00     0.129 C 
HETATM    3  C   UNL     1     -51.567  42.993   7.354  1.00  0.00     0.032 C 
HETATM    4  C   UNL     1     -51.690  41.470   7.363  1.00  0.00     0.002 C 
HETATM    5  C   UNL     1     -50.865  40.982   8.553  1.00  0.00     0.002 C 
HETATM    6  C   UNL     1     -50.242  42.228   9.179  1.00  0.00     0.032 C 
ENDBRANCH   1   2
BRANCH   1   7
HETATM    7  C   UNL     1     -53.224  44.380   9.442  1.00  0.00     0.103 A 
HETATM    8  C   UNL     1     -52.787  45.679   9.684  1.00  0.00     0.047 A 
HETATM    9  C   UNL     1     -53.672  46.746   9.527  1.00  0.00    -0.049 A 
HETATM   10  C   UNL     1     -54.988  46.509   9.131  1.00  0.00     0.010 A 
HETATM   11  C   UNL     1     -55.420  45.205   8.891  1.00  0.00     0.040 A 
HETATM   12  C   UNL     1     -54.536  44.137   9.047  1.00  0.00     0.101 A 
BRANCH   9  13
HETATM   13  C   UNL     1     -53.204  48.161   9.787  1.00  0.00     0.045 C 
HETATM   14  C   UNL     1     -53.696  49.219   8.798  1.00  0.00     0.132 C 
HETATM   15  N   UNL     1     -53.580  50.450   9.527  1.00  0.00    -0.360 N 
HETATM   16  C   UNL     1     -53.539  50.255  10.901  1.00  0.00     0.218 C 
HETATM   17  H   UNL     1     -53.534  51.336   9.101  1.00  0.00     0.162 HD
HETATM   18  O   UNL     1     -53.491  51.110  11.771  1.00  0.00    -0.274 OA
HETATM   19  C   UNL     1     -53.623  48.767  11.140  1.00  0.00     0.113 C 
ENDBRANCH   9  13
BRANCH  12  20
HETATM   20  O   UNL     1     -54.969  42.867   8.811  1.00  0.00    -0.353 OA
HETATM   21  C   UNL     1     -56.362  42.694   8.565  1.00  0.00     0.210 C 
ENDBRANCH  12  20
ENDBRANCH   1   7
TORSDOF 4
ENDMDL
MODEL 3
REMARK VINA RESULT:      -6.9      1.154      1.221
REMARK  4 active torsions:
REMARK  status: ('A' for Active; 'I' for Inactive)
REMARK    1  A    between atoms: O_1  and  C_5 
REMARK    2  A    between atoms: O_1  and  C_14 
REMARK    3  A    between atoms: O_2  and  C_18 
REMARK    4  A    between atoms: C_10  and  C_13 
ROOT
HETATM    1  O   UNL     1     -53.272  47.032   9.241  1.00  0.00    -0.343 OA
ENDROOT
BRANCH   1   2
HETATM    2  C   UNL     1     -52.155  46.202   8.949  1.00  0.00     0.129 C 
HETATM    3  C   UNL     1     -51.173  46.968   8.074  1.00  0.00     0.032 C 
HETATM    4  C   UNL     1     -51.762  46.878   6.667  1.00  0.00     0.002 C 
HETATM    5  C   UNL     1     -52.686  45.660   6.667  1.00  0.00     0.002 C 
HETATM    6  C   UNL     1     -52.576  45.043   8.059  1.00  0.00     0.032 C 
ENDBRANCH   1   2
BRANCH   1   7
HETATM    7  C   UNL     1     -53.197  47.789  10.381  1.00  0.00     0.103 A 
HETATM    8  C   UNL     1     -52.691  47.213  11.543  1.00  0.00     0.047 A 
HETATM    9  C   UNL     1     -52.610  47.973  12.711  1.00  0.00    -0.049 A 
HETATM   10  C   UNL     1     -53.036  49.301  12.711  1.00  0.00     0.010 A 
HETATM   11  C   UNL     1     -53.542  49.871  11.543  1.00  0.00     0.040 A 
HETATM   12  C   UNL     1     -53.623  49.113  10.374  1.00  0.00     0.101 A 
BRANCH   9  13
HETATM   13  C   UNL     1     -52.060  47.355  13.978  1.00  0.00     0.045 C 
HETATM   14  C   UNL     1     -50.980  46.289  13.786  1.00  0.00     0.132 C 
HETATM   15  N   UNL     1     -50.291  46.270  15.045  1.00  0.00    -0.360 N 
HETATM   16  C   UNL     1     -50.477  47.437  15.774  1.00  0.00     0.218 C 
HETATM   17  H   UNL     1     -49.744  45.513  15.358  1.00  0.00     0.162 HD
HETATM   18  O   UNL     1     -49.981  47.726  16.851  1.00  0.00    -0.274 OA
HETATM   19  C   UNL     1     -51.379  48.330  14.957  1.00  0.00     0.113 C 
ENDBRANCH   9  13
BRANCH  12  20
HETATM   20  O   UNL     1     -54.120  49.679   9.240  1.00  0.00    -0.353 OA
HETATM   21  C   UNL     1     -53.203  50.402   8.422  1.00  0.00     0.210 C 
ENDBRANCH  12  20
ENDBRANCH   1   7
TORSDOF 4
ENDMDL
MODEL 4
REMARK VINA RESULT:      -6.8      2.761      4.882
REMARK  4 active torsions:
REMARK  status: ('A' for Active; 'I' for Inactive)
REMARK    1  A    between atoms: O_1  and  C_5 
REMARK    2  A    between atoms: O_1  and  C_14 
REMARK    3  A    between atoms: O_2  and  C_18 
REMARK    4  A    between atoms: C_10  and  C_13 
ROOT
HETATM    1  O   UNL     1     -52.352  47.759  10.895  1.00  0.00    -0.343 OA
ENDROOT
BRANCH   1   2
HETATM    2  C   UNL     1     -53.616  48.091  11.454  1.00  0.00     0.129 C 
HETATM    3  C   UNL     1     -54.587  48.440  10.335  1.00  0.00     0.032 C 
HETATM    4  C   UNL     1     -54.238  49.880   9.961  1.00  0.00     0.002 C 
HETATM    5  C   UNL     1     -53.528  50.477  11.175  1.00  0.00     0.002 C 
HETATM    6  C   UNL     1     -53.522  49.387  12.244  1.00  0.00     0.032 C 
ENDBRANCH   1   2
BRANCH   1   7
HETATM    7  C   UNL     1     -52.195  46.474  10.445  1.00  0.00     0.103 A 
HETATM    8  C   UNL     1     -52.356  45.419  11.339  1.00  0.00     0.047 A 
HETATM    9  C   UNL     1     -52.198  44.107  10.894  1.00  0.00    -0.049 A 
HETATM   10  C   UNL     1     -51.877  43.856   9.560  1.00  0.00     0.010 A 
HETATM   11  C   UNL     1     -51.716  44.917   8.670  1.00  0.00     0.040 A 
HETATM   12  C   UNL     1     -51.875  46.231   9.114  1.00  0.00     0.101 A 
BRANCH   9  13
HETATM   13  C   UNL     1     -52.374  42.954  11.859  1.00  0.00     0.045 C 
HETATM   14  C   UNL     1     -52.596  43.339  13.323  1.00  0.00     0.132 C 
HETATM   15  N   UNL     1     -53.237  42.184  13.886  1.00  0.00    -0.360 N 
HETATM   16  C   UNL     1     -53.834  41.382  12.924  1.00  0.00     0.218 C 
HETATM   17  H   UNL     1     -53.253  41.983  14.850  1.00  0.00     0.162 HD
HETATM   18  O   UNL     1     -54.488  40.368  13.105  1.00  0.00    -0.274 OA
HETATM   19  C   UNL     1     -53.574  42.029  11.584  1.00  0.00     0.113 C 
ENDBRANCH   9  13
BRANCH  12  20
HETATM   20  O   UNL     1     -51.714  47.260   8.236  1.00  0.00    -0.353 OA
HETATM   21  C   UNL     1     -51.456  46.916   6.877  1.00  0.00     0.210 C 
ENDBRANCH  12  20
ENDBRANCH   1   7
TORSDOF 4
ENDMDL
MODEL 5
REMARK VINA RESULT:      -6.7      3.285      5.752
REMARK  4 active torsions:
REMARK  status: ('A' for Active; 'I' for Inactive)
REMARK    1  A    between atoms: O_1  and  C_5 
REMARK    2  A    between atoms: O_1  and  C_14 
REMARK    3  A    between atoms: O_2  and  C_18 
REMARK    4  A    between atoms: C_10  and  C_13 
ROOT
HETATM    1  O   UNL     1     -52.590  47.795  11.200  1.00  0.00    -0.343 OA
ENDROOT
BRANCH   1   2
HETATM    2  C   UNL     1     -53.887  48.327  11.438  1.00  0.00     0.129 C 
HETATM    3  C   UNL     1     -54.534  48.691  10.110  1.00  0.00     0.032 C 
HETATM    4  C   UNL     1     -53.918  50.039   9.740  1.00  0.00     0.002 C 
HETATM    5  C   UNL     1     -53.411  50.651  11.046  1.00  0.00     0.002 C 
HETATM    6  C   UNL     1     -53.788  49.666  12.151  1.00  0.00     0.032 C 
ENDBRANCH   1   2
BRANCH   1   7
HETATM    7  C   UNL     1     -52.408  46.465  11.474  1.00  0.00     0.103 A 
HETATM    8  C   UNL     1     -52.706  45.524  10.493  1.00  0.00     0.047 A 
HETATM    9  C   UNL     1     -52.526  44.167  10.760  1.00  0.00    -0.049 A 
HETATM   10  C   UNL     1     -52.052  43.758  12.007  1.00  0.00     0.010 A 
HETATM   11  C   UNL     1     -51.757  44.705  12.986  1.00  0.00     0.040 A 
HETATM   12  C   UNL     1     -51.935  46.063  12.719  1.00  0.00     0.101 A 
BRANCH   9  13
HETATM   13  C   UNL     1     -52.847  43.138   9.698  1.00  0.00     0.045 C 
HETATM   14  C   UNL     1     -52.760  43.625   8.250  1.00  0.00     0.132 C 
HETATM   15  N   UNL     1     -52.577  42.419   7.494  1.00  0.00    -0.360 N 
HETATM   16  C   UNL     1     -52.091  41.373   8.266  1.00  0.00     0.218 C 
HETATM   17  H   UNL     1     -52.775  42.342   6.532  1.00  0.00     0.162 HD
HETATM   18  O   UNL     1     -51.795  40.250   7.891  1.00  0.00    -0.274 OA
HETATM   19  C   UNL     1     -51.936  41.896   9.673  1.00  0.00     0.113 C 
ENDBRANCH   9  13
BRANCH  12  20
HETATM   20  O   UNL     1     -51.644  46.980  13.684  1.00  0.00    -0.353 OA
HETATM   21  C   UNL     1     -50.657  46.616  14.646  1.00  0.00     0.210 C 
ENDBRANCH  12  20
ENDBRANCH   1   7
TORSDOF 4
ENDMDL
MODEL 6
REMARK VINA RESULT:      -6.6      2.789      5.210
REMARK  4 active torsions:
REMARK  status: ('A' for Active; 'I' for Inactive)
REMARK    1  A    between atoms: O_1  and  C_5 
REMARK    2  A    between atoms: O_1  and  C_14 
REMARK    3  A    between atoms: O_2  and  C_18 
REMARK    4  A    between atoms: C_10  and  C_13 
ROOT
HETATM    1  O   UNL     1     -51.632  45.762   7.358  1.00  0.00    -0.343 OA
ENDROOT
BRANCH   1   2
HETATM    2  C   UNL     1     -52.446  46.315   6.333  1.00  0.00     0.129 C 
HETATM    3  C   UNL     1     -53.145  45.192   5.581  1.00  0.00     0.032 C 
HETATM    4  C   UNL     1     -52.085  44.657   4.619  1.00  0.00     0.002 C 
HETATM    5  C   UNL     1     -51.066  45.782   4.438  1.00  0.00     0.002 C 
HETATM    6  C   UNL     1     -51.582  46.960   5.260  1.00  0.00     0.032 C 
ENDBRANCH   1   2
BRANCH   1   7
HETATM    7  C   UNL     1     -51.930  46.124   8.646  1.00  0.00     0.103 A 
HETATM    8  C   UNL     1     -52.583  47.332   8.875  1.00  0.00     0.047 A 
HETATM    9  C   UNL     1     -52.891  47.713  10.182  1.00  0.00    -0.049 A 
HETATM   10  C   UNL     1     -52.543  46.886  11.250  1.00  0.00     0.010 A 
HETATM   11  C   UNL     1     -51.888  45.679  11.013  1.00  0.00     0.040 A 
HETATM   12  C   UNL     1     -51.580  45.296   9.707  1.00  0.00     0.101 A 
BRANCH   9  13
HETATM   13  C   UNL     1     -53.603  49.023  10.439  1.00  0.00     0.045 C 
HETATM   14  C   UNL     1     -53.157  49.791  11.684  1.00  0.00     0.132 C 
HETATM   15  N   UNL     1     -53.555  51.143  11.414  1.00  0.00    -0.360 N 
HETATM   16  C   UNL     1     -53.742  51.384  10.060  1.00  0.00     0.218 C 
HETATM   17  H   UNL     1     -53.682  51.826  12.112  1.00  0.00     0.162 HD
HETATM   18  O   UNL     1     -54.034  52.443   9.528  1.00  0.00    -0.274 OA
HETATM   19  C   UNL     1     -53.460  50.090   9.336  1.00  0.00     0.113 C 
ENDBRANCH   9  13
BRANCH  12  20
HETATM   20  O   UNL     1     -50.939  44.115   9.487  1.00  0.00    -0.353 OA
HETATM   21  C   UNL     1     -49.872  43.783  10.373  1.00  0.00     0.210 C 
ENDBRANCH  12  20
ENDBRANCH   1   7
TORSDOF 4
ENDMDL
MODEL 7
REMARK VINA RESULT:      -6.6      2.643      5.963
REMARK  4 active torsions:
REMARK  status: ('A' for Active; 'I' for Inactive)
REMARK    1  A    between atoms: O_1  and  C_5 
REMARK    2  A    between atoms: O_1  and  C_14 
REMARK    3  A    between atoms: O_2  and  C_18 
REMARK    4  A    between atoms: C_10  and  C_13 
ROOT
HETATM    1  O   UNL     1     -52.381  46.633  12.991  1.00  0.00    -0.343 OA
ENDROOT
BRANCH   1   2
HETATM    2  C   UNL     1     -51.334  45.816  12.485  1.00  0.00     0.129 C 
HETATM    3  C   UNL     1     -51.764  44.357  12.532  1.00  0.00     0.032 C 
HETATM    4  C   UNL     1     -51.549  43.941  13.986  1.00  0.00     0.002 C 
HETATM    5  C   UNL     1     -50.527  44.919  14.565  1.00  0.00     0.002 C 
HETATM    6  C   UNL     1     -50.135  45.850  13.420  1.00  0.00     0.032 C 
ENDBRANCH   1   2
BRANCH   1   7
HETATM    7  C   UNL     1     -52.841  47.627  12.168  1.00  0.00     0.103 A 
HETATM    8  C   UNL     1     -52.803  47.436  10.790  1.00  0.00     0.047 A 
HETATM    9  C   UNL     1     -53.268  48.441   9.941  1.00  0.00    -0.049 A 
HETATM   10  C   UNL     1     -53.766  49.630  10.473  1.00  0.00     0.010 A 
HETATM   11  C   UNL     1     -53.800  49.815  11.854  1.00  0.00     0.040 A 
HETATM   12  C   UNL     1     -53.337  48.811  12.705  1.00  0.00     0.101 A 
BRANCH   9  13
HETATM   13  C   UNL     1     -53.231  48.240   8.441  1.00  0.00     0.045 C 
HETATM   14  C   UNL     1     -51.860  48.394   7.781  1.00  0.00     0.132 C 
HETATM   15  N   UNL     1     -51.989  47.666   6.551  1.00  0.00    -0.360 N 
HETATM   16  C   UNL     1     -53.026  46.744   6.582  1.00  0.00     0.218 C 
HETATM   17  H   UNL     1     -51.406  47.804   5.770  1.00  0.00     0.162 HD
HETATM   18  O   UNL     1     -53.343  45.954   5.707  1.00  0.00    -0.274 OA
HETATM   19  C   UNL     1     -53.674  46.852   7.941  1.00  0.00     0.113 C 
ENDBRANCH   9  13
BRANCH  12  20
HETATM   20  O   UNL     1     -53.374  49.003  14.053  1.00  0.00    -0.353 OA
HETATM   21  C   UNL     1     -52.126  49.204  14.713  1.00  0.00     0.210 C 
ENDBRANCH  12  20
ENDBRANCH   1   7
TORSDOF 4
ENDMDL
MODEL 8
REMARK VINA RESULT:      -6.4      2.034      4.373
REMARK  4 active torsions:
REMARK  status: ('A' for Active; 'I' for Inactive)
REMARK    1  A    between atoms: O_1  and  C_5 
REMARK    2  A    between atoms: O_1  and  C_14 
REMARK    3  A    between atoms: O_2  and  C_18 
REMARK    4  A    between atoms: C_10  and  C_13 
ROOT
HETATM    1  O   UNL     1     -52.781  48.000   9.157  1.00  0.00    -0.343 OA
ENDROOT
BRANCH   1   2
HETATM    2  C   UNL     1     -53.949  48.809   9.198  1.00  0.00     0.129 C 
HETATM    3  C   UNL     1     -53.569  50.223   9.613  1.00  0.00     0.032 C 
HETATM    4  C   UNL     1     -53.418  50.150  11.132  1.00  0.00     0.002 C 
HETATM    5  C   UNL     1     -54.227  48.934  11.583  1.00  0.00     0.002 C 
HETATM    6  C   UNL     1     -54.867  48.357  10.323  1.00  0.00     0.032 C 
ENDBRANCH   1   2
BRANCH   1   7
HETATM    7  C   UNL     1     -52.971  46.645   9.079  1.00  0.00     0.103 A 
HETATM    8  C   UNL     1     -52.811  45.872  10.225  1.00  0.00     0.047 A 
HETATM    9  C   UNL     1     -53.002  44.492  10.159  1.00  0.00    -0.049 A 
HETATM   10  C   UNL     1     -53.349  43.892   8.948  1.00  0.00     0.010 A 
HETATM   11  C   UNL     1     -53.506  44.673   7.804  1.00  0.00     0.040 A 
HETATM   12  C   UNL     1     -53.317  46.053   7.869  1.00  0.00     0.101 A 
BRANCH   9  13
HETATM   13  C   UNL     1     -52.831  43.644  11.401  1.00  0.00     0.045 C 
HETATM   14  C   UNL     1     -52.032  42.352  11.223  1.00  0.00     0.132 C 
HETATM   15  N   UNL     1     -51.578  42.045  12.550  1.00  0.00    -0.360 N 
HETATM   16  C   UNL     1     -51.584  43.152  13.386  1.00  0.00     0.218 C 
HETATM   17  H   UNL     1     -51.294  41.147  12.835  1.00  0.00     0.162 HD
HETATM   18  O   UNL     1     -51.210  43.208  14.547  1.00  0.00    -0.274 OA
HETATM   19  C   UNL     1     -52.094  44.318  12.575  1.00  0.00     0.113 C 
ENDBRANCH   9  13
BRANCH  12  20
HETATM   20  O   UNL     1     -53.473  46.806   6.744  1.00  0.00    -0.353 OA
HETATM   21  C   UNL     1     -52.808  46.355   5.566  1.00  0.00     0.210 C 
ENDBRANCH  12  20
ENDBRANCH   1   7
TORSDOF 4
ENDMDL
MODEL 9
REMARK VINA RESULT:      -6.4      2.595      3.766
REMARK  4 active torsions:
REMARK  status: ('A' for Active; 'I' for Inactive)
REMARK    1  A    between atoms: O_1  and  C_5 
REMARK    2  A    between atoms: O_1  and  C_14 
REMARK    3  A    between atoms: O_2  and  C_18 
REMARK    4  A    between atoms: C_10  and  C_13 
ROOT
HETATM    1  O   UNL     1     -52.792  44.589   8.704  1.00  0.00    -0.343 OA
ENDROOT
BRANCH   1   2
HETATM    2  C   UNL     1     -51.487  44.054   8.517  1.00  0.00     0.129 C 
HETATM    3  C   UNL     1     -51.503  43.082   7.347  1.00  0.00     0.032 C 
HETATM    4  C   UNL     1     -52.080  41.792   7.928  1.00  0.00     0.002 C 
HETATM    5  C   UNL     1     -51.851  41.863   9.438  1.00  0.00     0.002 C 
HETATM    6  C   UNL     1     -51.104  43.170   9.693  1.00  0.00     0.032 C 
ENDBRANCH   1   2
BRANCH   1   7
HETATM    7  C   UNL     1     -52.870  45.868   9.189  1.00  0.00     0.103 A 
HETATM    8  C   UNL     1     -52.865  46.071  10.566  1.00  0.00     0.047 A 
HETATM    9  C   UNL     1     -52.946  47.368  11.072  1.00  0.00    -0.049 A 
HETATM   10  C   UNL     1     -53.033  48.454  10.201  1.00  0.00     0.010 A 
HETATM   11  C   UNL     1     -53.039  48.243   8.823  1.00  0.00     0.040 A 
HETATM   12  C   UNL     1     -52.958  46.946   8.315  1.00  0.00     0.101 A 
BRANCH   9  13
HETATM   13  C   UNL     1     -52.939  47.598  12.568  1.00  0.00     0.045 C 
HETATM   14  C   UNL     1     -51.747  47.012  13.327  1.00  0.00     0.132 C 
HETATM   15  N   UNL     1     -51.698  47.784  14.537  1.00  0.00    -0.360 N 
HETATM   16  C   UNL     1     -52.355  49.001  14.420  1.00  0.00     0.218 C 
HETATM   17  H   UNL     1     -51.248  47.484  15.359  1.00  0.00     0.162 HD
HETATM   18  O   UNL     1     -52.440  49.882  15.260  1.00  0.00    -0.274 OA
HETATM   19  C   UNL     1     -52.913  49.071  13.019  1.00  0.00     0.113 C 
ENDBRANCH   9  13
BRANCH  12  20
HETATM   20  O   UNL     1     -52.966  46.752   6.967  1.00  0.00    -0.353 OA
HETATM   21  C   UNL     1     -51.739  46.971   6.274  1.00  0.00     0.210 C 
ENDBRANCH  12  20
ENDBRANCH   1   7
TORSDOF 4
ENDMDL
