MODEL 1
REMARK VINA RESULT:      -7.5      0.000      0.000
REMARK  9 active torsions:
REMARK  status: ('A' for Active; 'I' for Inactive)
REMARK    1  A    between atoms: C_3  and  C_8 
REMARK    2  A    between atoms: C_5  and  O_7 
REMARK    3  A    between atoms: C_8  and  C_9 
REMARK    4  A    between atoms: C_9  and  C_10 
REMARK    5  A    between atoms: C_9  and  O_20 
REMARK    6  A    between atoms: C_10  and  C_11 
REMARK    7  A    between atoms: C_12  and  O_19 
REMARK    8  A    between atoms: C_14  and  O_18 
REMARK    9  A    between atoms: C_16  and  O_17 
ROOT
HETATM    1  C   UNL     1      18.288   3.501  14.467  1.00  0.00     0.003 A 
HETATM    2  C   UNL     1      17.902   4.623  13.758  1.00  0.00     0.007 A 
HETATM    3  C   UNL     1      18.609   5.012  12.636  1.00  0.00    -0.053 A 
HETATM    4  C   UNL     1      19.704   4.281  12.221  1.00  0.00     0.043 A 
HETATM    5  C   UNL     1      20.094   3.154  12.931  1.00  0.00     0.066 A 
HETATM    6  C   UNL     1      19.382   2.766  14.056  1.00  0.00     0.036 A 
ENDROOT
BRANCH   3   7
HETATM    7  C   UNL     1      18.185   6.236  11.865  1.00  0.00     0.070 C 
BRANCH   7   8
HETATM    8  C   UNL     1      16.984   5.892  10.981  1.00  0.00     0.127 C 
BRANCH   8   9
HETATM    9  C   UNL     1      15.917   6.979  11.125  1.00  0.00     0.076 C 
BRANCH   9  10
HETATM   10  C   UNL     1      14.554   6.339  11.185  1.00  0.00     0.011 A 
HETATM   11  C   UNL     1      13.881   6.029  10.012  1.00  0.00     0.077 A 
HETATM   12  C   UNL     1      12.627   5.441  10.067  1.00  0.00     0.073 A 
HETATM   13  C   UNL     1      12.044   5.163  11.294  1.00  0.00     0.071 A 
HETATM   14  C   UNL     1      12.718   5.472  12.467  1.00  0.00     0.073 A 
HETATM   15  C   UNL     1      13.974   6.056  12.412  1.00  0.00     0.077 A 
BRANCH  11  16
HETATM   16  O   UNL     1      14.452   6.303   8.809  1.00  0.00    -0.360 OA
HETATM   17  H   UNL     1      15.281   5.928   8.588  1.00  0.00     0.217 HD
ENDBRANCH  11  16
BRANCH  13  18
HETATM   18  O   UNL     1      10.815   4.587  11.348  1.00  0.00    -0.361 OA
HETATM   19  H   UNL     1      10.053   5.090  11.138  1.00  0.00     0.217 HD
ENDBRANCH  13  18
BRANCH  15  20
HETATM   20  O   UNL     1      14.633   6.359  13.561  1.00  0.00    -0.360 OA
HETATM   21  H   UNL     1      15.178   5.718  13.972  1.00  0.00     0.217 HD
ENDBRANCH  15  20
ENDBRANCH   9  10
ENDBRANCH   8   9
BRANCH   8  22
HETATM   22  O   UNL     1      17.404   5.814   9.618  1.00  0.00    -0.395 OA
HETATM   23  H   UNL     1      18.034   6.528   9.432  1.00  0.00     0.210 HD
ENDBRANCH   8  22
ENDBRANCH   7   8
ENDBRANCH   3   7
BRANCH   5  24
HETATM   24  O   UNL     1      21.172   2.432  12.524  1.00  0.00    -0.361 OA
HETATM   25  H   UNL     1      22.036   2.774  12.640  1.00  0.00     0.217 HD
ENDBRANCH   5  24
TORSDOF 9
ENDMDL
MODEL 2
REMARK VINA RESULT:      -7.5      0.036      1.848
REMARK  9 active torsions:
REMARK  status: ('A' for Active; 'I' for Inactive)
REMARK    1  A    between atoms: C_3  and  C_8 
REMARK    2  A    between atoms: C_5  and  O_7 
REMARK    3  A    between atoms: C_8  and  C_9 
REMARK    4  A    between atoms: C_9  and  C_10 
REMARK    5  A    between atoms: C_9  and  O_20 
REMARK    6  A    between atoms: C_10  and  C_11 
REMARK    7  A    between atoms: C_12  and  O_19 
REMARK    8  A    between atoms: C_14  and  O_18 
REMARK    9  A    between atoms: C_16  and  O_17 
ROOT
HETATM    1  C   UNL     1      18.300   3.522  14.472  1.00  0.00     0.003 A 
HETATM    2  C   UNL     1      17.921   4.634  13.743  1.00  0.00     0.007 A 
HETATM    3  C   UNL     1      18.638   5.006  12.621  1.00  0.00    -0.053 A 
HETATM    4  C   UNL     1      19.736   4.266  12.226  1.00  0.00     0.043 A 
HETATM    5  C   UNL     1      20.118   3.150  12.956  1.00  0.00     0.066 A 
HETATM    6  C   UNL     1      19.396   2.779  14.081  1.00  0.00     0.036 A 
ENDROOT
BRANCH   3   7
HETATM    7  C   UNL     1      18.222   6.218  11.829  1.00  0.00     0.070 C 
BRANCH   7   8
HETATM    8  C   UNL     1      17.004   5.873  10.969  1.00  0.00     0.127 C 
BRANCH   8   9
HETATM    9  C   UNL     1      15.947   6.968  11.119  1.00  0.00     0.076 C 
BRANCH   9  10
HETATM   10  C   UNL     1      14.579   6.340  11.189  1.00  0.00     0.011 A 
HETATM   11  C   UNL     1      13.998   6.078  12.421  1.00  0.00     0.077 A 
HETATM   12  C   UNL     1      12.740   5.500  12.486  1.00  0.00     0.073 A 
HETATM   13  C   UNL     1      12.062   5.182  11.319  1.00  0.00     0.071 A 
HETATM   14  C   UNL     1      12.642   5.445  10.087  1.00  0.00     0.073 A 
HETATM   15  C   UNL     1      13.899   6.027  10.022  1.00  0.00     0.077 A 
BRANCH  11  16
HETATM   16  O   UNL     1      14.663   6.389  13.565  1.00  0.00    -0.360 OA
HETATM   17  H   UNL     1      15.231   7.133  13.589  1.00  0.00     0.217 HD
ENDBRANCH  11  16
BRANCH  13  18
HETATM   18  O   UNL     1      10.829   4.614  11.382  1.00  0.00    -0.361 OA
HETATM   19  H   UNL     1      10.076   5.099  11.107  1.00  0.00     0.217 HD
ENDBRANCH  13  18
BRANCH  15  20
HETATM   20  O   UNL     1      14.467   6.284   8.814  1.00  0.00    -0.360 OA
HETATM   21  H   UNL     1      14.143   5.859   8.045  1.00  0.00     0.217 HD
ENDBRANCH  15  20
ENDBRANCH   9  10
ENDBRANCH   8   9
BRANCH   8  22
HETATM   22  O   UNL     1      17.401   5.778   9.599  1.00  0.00    -0.395 OA
HETATM   23  H   UNL     1      17.439   6.667   9.211  1.00  0.00     0.210 HD
ENDBRANCH   8  22
ENDBRANCH   7   8
ENDBRANCH   3   7
BRANCH   5  24
HETATM   24  O   UNL     1      21.198   2.421  12.568  1.00  0.00    -0.361 OA
HETATM   25  H   UNL     1      21.447   2.396  11.665  1.00  0.00     0.217 HD
ENDBRANCH   5  24
TORSDOF 9
ENDMDL
MODEL 3
REMARK VINA RESULT:      -7.4      1.073      2.390
REMARK  9 active torsions:
REMARK  status: ('A' for Active; 'I' for Inactive)
REMARK    1  A    between atoms: C_3  and  C_8 
REMARK    2  A    between atoms: C_5  and  O_7 
REMARK    3  A    between atoms: C_8  and  C_9 
REMARK    4  A    between atoms: C_9  and  C_10 
REMARK    5  A    between atoms: C_9  and  O_20 
REMARK    6  A    between atoms: C_10  and  C_11 
REMARK    7  A    between atoms: C_12  and  O_19 
REMARK    8  A    between atoms: C_14  and  O_18 
REMARK    9  A    between atoms: C_16  and  O_17 
ROOT
HETATM    1  C   UNL     1      20.110   3.142  13.009  1.00  0.00     0.003 A 
HETATM    2  C   UNL     1      19.735   4.259  12.288  1.00  0.00     0.007 A 
HETATM    3  C   UNL     1      18.617   4.983  12.660  1.00  0.00    -0.053 A 
HETATM    4  C   UNL     1      17.872   4.589  13.754  1.00  0.00     0.043 A 
HETATM    5  C   UNL     1      18.246   3.467  14.479  1.00  0.00     0.066 A 
HETATM    6  C   UNL     1      19.368   2.744  14.104  1.00  0.00     0.036 A 
ENDROOT
BRANCH   3   7
HETATM    7  C   UNL     1      18.211   6.201  11.871  1.00  0.00     0.070 C 
BRANCH   7   8
HETATM    8  C   UNL     1      17.000   5.864  10.998  1.00  0.00     0.127 C 
BRANCH   8   9
HETATM    9  C   UNL     1      15.940   6.957  11.152  1.00  0.00     0.076 C 
BRANCH   9  10
HETATM   10  C   UNL     1      14.573   6.327  11.208  1.00  0.00     0.011 A 
HETATM   11  C   UNL     1      13.988   6.046  12.434  1.00  0.00     0.077 A 
HETATM   12  C   UNL     1      12.729   5.466  12.485  1.00  0.00     0.073 A 
HETATM   13  C   UNL     1      12.056   5.166  11.310  1.00  0.00     0.071 A 
HETATM   14  C   UNL     1      12.640   5.448  10.084  1.00  0.00     0.073 A 
HETATM   15  C   UNL     1      13.896   6.033  10.034  1.00  0.00     0.077 A 
BRANCH  11  16
HETATM   16  O   UNL     1      14.648   6.338  13.584  1.00  0.00    -0.360 OA
HETATM   17  H   UNL     1      14.419   7.103  14.075  1.00  0.00     0.217 HD
ENDBRANCH  11  16
BRANCH  13  18
HETATM   18  O   UNL     1      10.823   4.597  11.360  1.00  0.00    -0.361 OA
HETATM   19  H   UNL     1      10.130   5.022  11.824  1.00  0.00     0.217 HD
ENDBRANCH  13  18
BRANCH  15  20
HETATM   20  O   UNL     1      14.470   6.308   8.832  1.00  0.00    -0.360 OA
HETATM   21  H   UNL     1      14.070   6.003   8.042  1.00  0.00     0.217 HD
ENDBRANCH  15  20
ENDBRANCH   9  10
ENDBRANCH   8   9
BRANCH   8  22
HETATM   22  O   UNL     1      17.406   5.784   9.631  1.00  0.00    -0.395 OA
HETATM   23  H   UNL     1      16.947   6.467   9.116  1.00  0.00     0.210 HD
ENDBRANCH   8  22
ENDBRANCH   7   8
ENDBRANCH   3   7
BRANCH   5  24
HETATM   24  O   UNL     1      17.514   3.079  15.557  1.00  0.00    -0.361 OA
HETATM   25  H   UNL     1      17.201   2.197  15.618  1.00  0.00     0.217 HD
ENDBRANCH   5  24
TORSDOF 9
ENDMDL
MODEL 4
REMARK VINA RESULT:      -7.1      1.770      6.610
REMARK  9 active torsions:
REMARK  status: ('A' for Active; 'I' for Inactive)
REMARK    1  A    between atoms: C_3  and  C_8 
REMARK    2  A    between atoms: C_5  and  O_7 
REMARK    3  A    between atoms: C_8  and  C_9 
REMARK    4  A    between atoms: C_9  and  C_10 
REMARK    5  A    between atoms: C_9  and  O_20 
REMARK    6  A    between atoms: C_10  and  C_11 
REMARK    7  A    between atoms: C_12  and  O_19 
REMARK    8  A    between atoms: C_14  and  O_18 
REMARK    9  A    between atoms: C_16  and  O_17 
ROOT
HETATM    1  C   UNL     1      12.221   3.848   8.673  1.00  0.00     0.003 A 
HETATM    2  C   UNL     1      12.144   4.347   9.959  1.00  0.00     0.007 A 
HETATM    3  C   UNL     1      12.417   5.681  10.202  1.00  0.00    -0.053 A 
HETATM    4  C   UNL     1      12.768   6.516   9.160  1.00  0.00     0.043 A 
HETATM    5  C   UNL     1      12.846   6.017   7.868  1.00  0.00     0.066 A 
HETATM    6  C   UNL     1      12.570   4.679   7.627  1.00  0.00     0.036 A 
ENDROOT
BRANCH   3   7
HETATM    7  C   UNL     1      12.332   6.223  11.606  1.00  0.00     0.070 C 
BRANCH   7   8
HETATM    8  C   UNL     1      13.527   5.722  12.420  1.00  0.00     0.127 C 
BRANCH   8   9
HETATM    9  C   UNL     1      14.588   6.821  12.498  1.00  0.00     0.076 C 
BRANCH   9  10
HETATM   10  C   UNL     1      15.953   6.219  12.283  1.00  0.00     0.011 A 
HETATM   11  C   UNL     1      16.625   5.627  13.342  1.00  0.00     0.077 A 
HETATM   12  C   UNL     1      17.880   5.072  13.144  1.00  0.00     0.073 A 
HETATM   13  C   UNL     1      18.464   5.111  11.887  1.00  0.00     0.071 A 
HETATM   14  C   UNL     1      17.791   5.701  10.827  1.00  0.00     0.073 A 
HETATM   15  C   UNL     1      16.534   6.251  11.025  1.00  0.00     0.077 A 
BRANCH  11  16
HETATM   16  O   UNL     1      16.053   5.591  14.574  1.00  0.00    -0.360 OA
HETATM   17  H   UNL     1      15.302   5.051  14.727  1.00  0.00     0.217 HD
ENDBRANCH  11  16
BRANCH  13  18
HETATM   18  O   UNL     1      19.695   4.568  11.692  1.00  0.00    -0.361 OA
HETATM   19  H   UNL     1      20.429   4.887  12.179  1.00  0.00     0.217 HD
ENDBRANCH  13  18
BRANCH  15  20
HETATM   20  O   UNL     1      15.876   6.831   9.987  1.00  0.00    -0.360 OA
HETATM   21  H   UNL     1      15.310   7.562  10.140  1.00  0.00     0.217 HD
ENDBRANCH  15  20
ENDBRANCH   9  10
ENDBRANCH   8   9
BRANCH   8  22
HETATM   22  O   UNL     1      13.096   5.381  13.739  1.00  0.00    -0.395 OA
HETATM   23  H   UNL     1      13.844   5.025  14.243  1.00  0.00     0.210 HD
ENDBRANCH   8  22
ENDBRANCH   7   8
ENDBRANCH   3   7
BRANCH   5  24
HETATM   24  O   UNL     1      13.190   6.837   6.840  1.00  0.00    -0.361 OA
HETATM   25  H   UNL     1      12.541   7.382   6.438  1.00  0.00     0.217 HD
ENDBRANCH   5  24
TORSDOF 9
ENDMDL
MODEL 5
REMARK VINA RESULT:      -7.0      1.600      6.649
REMARK  9 active torsions:
REMARK  status: ('A' for Active; 'I' for Inactive)
REMARK    1  A    between atoms: C_3  and  C_8 
REMARK    2  A    between atoms: C_5  and  O_7 
REMARK    3  A    between atoms: C_8  and  C_9 
REMARK    4  A    between atoms: C_9  and  C_10 
REMARK    5  A    between atoms: C_9  and  O_20 
REMARK    6  A    between atoms: C_10  and  C_11 
REMARK    7  A    between atoms: C_12  and  O_19 
REMARK    8  A    between atoms: C_14  and  O_18 
REMARK    9  A    between atoms: C_16  and  O_17 
ROOT
HETATM    1  C   UNL     1      14.547   6.218   9.980  1.00  0.00     0.003 A 
HETATM    2  C   UNL     1      14.971   6.318  11.292  1.00  0.00     0.007 A 
HETATM    3  C   UNL     1      14.106   6.009  12.326  1.00  0.00    -0.053 A 
HETATM    4  C   UNL     1      12.817   5.599  12.049  1.00  0.00     0.043 A 
HETATM    5  C   UNL     1      12.389   5.498  10.733  1.00  0.00     0.066 A 
HETATM    6  C   UNL     1      13.259   5.808   9.698  1.00  0.00     0.036 A 
ENDROOT
BRANCH   3   7
HETATM    7  C   UNL     1      14.571   6.119  13.755  1.00  0.00     0.070 C 
BRANCH   7   8
HETATM    8  C   UNL     1      15.502   4.949  14.081  1.00  0.00     0.127 C 
BRANCH   8   9
HETATM    9  C   UNL     1      16.850   5.489  14.562  1.00  0.00     0.076 C 
BRANCH   9  10
HETATM   10  C   UNL     1      17.962   4.665  13.967  1.00  0.00     0.011 A 
HETATM   11  C   UNL     1      18.592   5.084  12.804  1.00  0.00     0.077 A 
HETATM   12  C   UNL     1      19.615   4.325  12.257  1.00  0.00     0.073 A 
HETATM   13  C   UNL     1      20.009   3.146  12.873  1.00  0.00     0.071 A 
HETATM   14  C   UNL     1      19.381   2.728  14.036  1.00  0.00     0.073 A 
HETATM   15  C   UNL     1      18.361   3.489  14.586  1.00  0.00     0.077 A 
BRANCH  11  16
HETATM   16  O   UNL     1      18.204   6.238  12.201  1.00  0.00    -0.360 OA
HETATM   17  H   UNL     1      18.312   7.057  12.644  1.00  0.00     0.217 HD
ENDBRANCH  11  16
BRANCH  13  18
HETATM   18  O   UNL     1      21.012   2.402  12.336  1.00  0.00    -0.361 OA
HETATM   19  H   UNL     1      21.173   1.536  12.654  1.00  0.00     0.217 HD
ENDBRANCH  13  18
BRANCH  15  20
HETATM   20  O   UNL     1      17.745   3.078  15.725  1.00  0.00    -0.360 OA
HETATM   21  H   UNL     1      17.563   2.169  15.857  1.00  0.00     0.217 HD
ENDBRANCH  15  20
ENDBRANCH   9  10
ENDBRANCH   8   9
BRANCH   8  22
HETATM   22  O   UNL     1      14.916   4.147  15.108  1.00  0.00    -0.395 OA
HETATM   23  H   UNL     1      13.981   3.991  14.903  1.00  0.00     0.210 HD
ENDBRANCH   8  22
ENDBRANCH   7   8
ENDBRANCH   3   7
BRANCH   5  24
HETATM   24  O   UNL     1      11.120   5.094  10.459  1.00  0.00    -0.361 OA
HETATM   25  H   UNL     1      10.403   5.431  10.959  1.00  0.00     0.217 HD
ENDBRANCH   5  24
TORSDOF 9
ENDMDL
MODEL 6
REMARK VINA RESULT:      -7.0      1.599      6.834
REMARK  9 active torsions:
REMARK  status: ('A' for Active; 'I' for Inactive)
REMARK    1  A    between atoms: C_3  and  C_8 
REMARK    2  A    between atoms: C_5  and  O_7 
REMARK    3  A    between atoms: C_8  and  C_9 
REMARK    4  A    between atoms: C_9  and  C_10 
REMARK    5  A    between atoms: C_9  and  O_20 
REMARK    6  A    between atoms: C_10  and  C_11 
REMARK    7  A    between atoms: C_12  and  O_19 
REMARK    8  A    between atoms: C_14  and  O_18 
REMARK    9  A    between atoms: C_16  and  O_17 
ROOT
HETATM    1  C   UNL     1      14.546   6.214   9.976  1.00  0.00     0.003 A 
HETATM    2  C   UNL     1      14.976   6.318  11.285  1.00  0.00     0.007 A 
HETATM    3  C   UNL     1      14.116   6.010  12.324  1.00  0.00    -0.053 A 
HETATM    4  C   UNL     1      12.826   5.598  12.054  1.00  0.00     0.043 A 
HETATM    5  C   UNL     1      12.392   5.494  10.740  1.00  0.00     0.066 A 
HETATM    6  C   UNL     1      13.257   5.803   9.700  1.00  0.00     0.036 A 
ENDROOT
BRANCH   3   7
HETATM    7  C   UNL     1      14.587   6.124  13.750  1.00  0.00     0.070 C 
BRANCH   7   8
HETATM    8  C   UNL     1      15.506   4.945  14.080  1.00  0.00     0.127 C 
BRANCH   8   9
HETATM    9  C   UNL     1      16.854   5.473  14.576  1.00  0.00     0.076 C 
BRANCH   9  10
HETATM   10  C   UNL     1      17.965   4.650  13.977  1.00  0.00     0.011 A 
HETATM   11  C   UNL     1      18.360   3.469  14.587  1.00  0.00     0.077 A 
HETATM   12  C   UNL     1      19.383   2.712  14.036  1.00  0.00     0.073 A 
HETATM   13  C   UNL     1      20.012   3.137  12.876  1.00  0.00     0.071 A 
HETATM   14  C   UNL     1      19.617   4.318  12.265  1.00  0.00     0.073 A 
HETATM   15  C   UNL     1      18.591   5.072  12.813  1.00  0.00     0.077 A 
BRANCH  11  16
HETATM   16  O   UNL     1      17.744   3.054  15.725  1.00  0.00    -0.360 OA
HETATM   17  H   UNL     1      17.043   2.435  15.679  1.00  0.00     0.217 HD
ENDBRANCH  11  16
BRANCH  13  18
HETATM   18  O   UNL     1      21.015   2.396  12.336  1.00  0.00    -0.361 OA
HETATM   19  H   UNL     1      21.436   1.734  12.849  1.00  0.00     0.217 HD
ENDBRANCH  13  18
BRANCH  15  20
HETATM   20  O   UNL     1      18.204   6.229  12.215  1.00  0.00    -0.360 OA
HETATM   21  H   UNL     1      18.549   6.460  11.375  1.00  0.00     0.217 HD
ENDBRANCH  15  20
ENDBRANCH   9  10
ENDBRANCH   8   9
BRANCH   8  22
HETATM   22  O   UNL     1      14.905   4.144  15.099  1.00  0.00    -0.395 OA
HETATM   23  H   UNL     1      14.526   4.720  15.782  1.00  0.00     0.210 HD
ENDBRANCH   8  22
ENDBRANCH   7   8
ENDBRANCH   3   7
BRANCH   5  24
HETATM   24  O   UNL     1      11.123   5.088  10.472  1.00  0.00    -0.361 OA
HETATM   25  H   UNL     1      10.942   4.180  10.327  1.00  0.00     0.217 HD
ENDBRANCH   5  24
TORSDOF 9
ENDMDL
MODEL 7
REMARK VINA RESULT:      -6.8      2.691      4.467
REMARK  9 active torsions:
REMARK  status: ('A' for Active; 'I' for Inactive)
REMARK    1  A    between atoms: C_3  and  C_8 
REMARK    2  A    between atoms: C_5  and  O_7 
REMARK    3  A    between atoms: C_8  and  C_9 
REMARK    4  A    between atoms: C_9  and  C_10 
REMARK    5  A    between atoms: C_9  and  O_20 
REMARK    6  A    between atoms: C_10  and  C_11 
REMARK    7  A    between atoms: C_12  and  O_19 
REMARK    8  A    between atoms: C_14  and  O_18 
REMARK    9  A    between atoms: C_16  and  O_17 
ROOT
HETATM    1  C   UNL     1      15.628   6.350  11.072  1.00  0.00     0.003 A 
HETATM    2  C   UNL     1      16.073   5.923  12.309  1.00  0.00     0.007 A 
HETATM    3  C   UNL     1      17.380   5.503  12.469  1.00  0.00    -0.053 A 
HETATM    4  C   UNL     1      18.244   5.508  11.392  1.00  0.00     0.043 A 
HETATM    5  C   UNL     1      17.800   5.935  10.149  1.00  0.00     0.066 A 
HETATM    6  C   UNL     1      16.488   6.357   9.992  1.00  0.00     0.036 A 
ENDROOT
BRANCH   3   7
HETATM    7  C   UNL     1      17.863   5.039  13.819  1.00  0.00     0.070 C 
BRANCH   7   8
HETATM    8  C   UNL     1      17.414   6.034  14.891  1.00  0.00     0.127 C 
BRANCH   8   9
HETATM    9  C   UNL     1      16.573   5.306  15.942  1.00  0.00     0.076 C 
BRANCH   9  10
HETATM   10  C   UNL     1      15.111   5.549  15.671  1.00  0.00     0.011 A 
HETATM   11  C   UNL     1      14.346   4.566  15.061  1.00  0.00     0.077 A 
HETATM   12  C   UNL     1      13.000   4.789  14.811  1.00  0.00     0.073 A 
HETATM   13  C   UNL     1      12.419   5.995  15.172  1.00  0.00     0.071 A 
HETATM   14  C   UNL     1      13.184   6.978  15.784  1.00  0.00     0.073 A 
HETATM   15  C   UNL     1      14.528   6.752  16.037  1.00  0.00     0.077 A 
BRANCH  11  16
HETATM   16  O   UNL     1      14.916   3.384  14.706  1.00  0.00    -0.360 OA
HETATM   17  H   UNL     1      15.066   3.189  13.803  1.00  0.00     0.217 HD
ENDBRANCH  11  16
BRANCH  13  18
HETATM   18  O   UNL     1      11.101   6.215  14.927  1.00  0.00    -0.361 OA
HETATM   19  H   UNL     1      10.778   7.091  14.854  1.00  0.00     0.217 HD
ENDBRANCH  13  18
BRANCH  15  20
HETATM   20  O   UNL     1      15.277   7.716  16.636  1.00  0.00    -0.360 OA
HETATM   21  H   UNL     1      15.258   8.594  16.310  1.00  0.00     0.217 HD
ENDBRANCH  15  20
ENDBRANCH   9  10
ENDBRANCH   8   9
BRANCH   8  22
HETATM   22  O   UNL     1      18.562   6.611  15.516  1.00  0.00    -0.395 OA
HETATM   23  H   UNL     1      19.287   6.665  14.873  1.00  0.00     0.210 HD
ENDBRANCH   8  22
ENDBRANCH   7   8
ENDBRANCH   3   7
BRANCH   5  24
HETATM   24  O   UNL     1      18.649   5.941   9.087  1.00  0.00    -0.361 OA
HETATM   25  H   UNL     1      18.541   6.574   8.404  1.00  0.00     0.217 HD
ENDBRANCH   5  24
TORSDOF 9
ENDMDL
MODEL 8
REMARK VINA RESULT:      -6.7      2.648      4.250
REMARK  9 active torsions:
REMARK  status: ('A' for Active; 'I' for Inactive)
REMARK    1  A    between atoms: C_3  and  C_8 
REMARK    2  A    between atoms: C_5  and  O_7 
REMARK    3  A    between atoms: C_8  and  C_9 
REMARK    4  A    between atoms: C_9  and  C_10 
REMARK    5  A    between atoms: C_9  and  O_20 
REMARK    6  A    between atoms: C_10  and  C_11 
REMARK    7  A    between atoms: C_12  and  O_19 
REMARK    8  A    between atoms: C_14  and  O_18 
REMARK    9  A    between atoms: C_16  and  O_17 
ROOT
HETATM    1  C   UNL     1      16.916   6.190  15.709  1.00  0.00     0.003 A 
HETATM    2  C   UNL     1      15.595   6.596  15.675  1.00  0.00     0.007 A 
HETATM    3  C   UNL     1      14.584   5.661  15.555  1.00  0.00    -0.053 A 
HETATM    4  C   UNL     1      14.892   4.318  15.469  1.00  0.00     0.043 A 
HETATM    5  C   UNL     1      16.216   3.907  15.503  1.00  0.00     0.066 A 
HETATM    6  C   UNL     1      17.229   4.847  15.624  1.00  0.00     0.036 A 
ENDROOT
BRANCH   3   7
HETATM    7  C   UNL     1      13.145   6.108  15.518  1.00  0.00     0.070 C 
BRANCH   7   8
HETATM    8  C   UNL     1      12.711   6.313  14.064  1.00  0.00     0.127 C 
BRANCH   8   9
HETATM    9  C   UNL     1      12.982   5.036  13.266  1.00  0.00     0.076 C 
BRANCH   9  10
HETATM   10  C   UNL     1      13.172   5.384  11.812  1.00  0.00     0.011 A 
HETATM   11  C   UNL     1      12.121   5.230  10.919  1.00  0.00     0.077 A 
HETATM   12  C   UNL     1      12.296   5.550   9.581  1.00  0.00     0.073 A 
HETATM   13  C   UNL     1      13.521   6.023   9.136  1.00  0.00     0.071 A 
HETATM   14  C   UNL     1      14.571   6.178  10.029  1.00  0.00     0.073 A 
HETATM   15  C   UNL     1      14.394   5.863  11.368  1.00  0.00     0.077 A 
BRANCH  11  16
HETATM   16  O   UNL     1      10.922   4.765  11.356  1.00  0.00    -0.360 OA
HETATM   17  H   UNL     1      10.702   4.817  12.265  1.00  0.00     0.217 HD
ENDBRANCH  11  16
BRANCH  13  18
HETATM   18  O   UNL     1      13.693   6.336   7.825  1.00  0.00    -0.361 OA
HETATM   19  H   UNL     1      13.075   6.891   7.391  1.00  0.00     0.217 HD
ENDBRANCH  13  18
BRANCH  15  20
HETATM   20  O   UNL     1      15.424   6.014  12.242  1.00  0.00    -0.360 OA
HETATM   21  H   UNL     1      16.279   6.230  11.926  1.00  0.00     0.217 HD
ENDBRANCH  15  20
ENDBRANCH   9  10
ENDBRANCH   8   9
BRANCH   8  22
HETATM   22  O   UNL     1      11.315   6.614  14.023  1.00  0.00    -0.395 OA
HETATM   23  H   UNL     1      11.119   7.328  14.650  1.00  0.00     0.210 HD
ENDBRANCH   8  22
ENDBRANCH   7   8
ENDBRANCH   3   7
BRANCH   5  24
HETATM   24  O   UNL     1      16.521   2.584  15.419  1.00  0.00    -0.361 OA
HETATM   25  H   UNL     1      15.846   1.941  15.508  1.00  0.00     0.217 HD
ENDBRANCH   5  24
TORSDOF 9
ENDMDL
MODEL 9
REMARK VINA RESULT:      -6.7      3.078      6.573
REMARK  9 active torsions:
REMARK  status: ('A' for Active; 'I' for Inactive)
REMARK    1  A    between atoms: C_3  and  C_8 
REMARK    2  A    between atoms: C_5  and  O_7 
REMARK    3  A    between atoms: C_8  and  C_9 
REMARK    4  A    between atoms: C_9  and  C_10 
REMARK    5  A    between atoms: C_9  and  O_20 
REMARK    6  A    between atoms: C_10  and  C_11 
REMARK    7  A    between atoms: C_12  and  O_19 
REMARK    8  A    between atoms: C_14  and  O_18 
REMARK    9  A    between atoms: C_16  and  O_17 
ROOT
HETATM    1  C   UNL     1      12.310   5.894  10.056  1.00  0.00     0.003 A 
HETATM    2  C   UNL     1      12.219   6.144  11.412  1.00  0.00     0.007 A 
HETATM    3  C   UNL     1      13.362   6.390  12.151  1.00  0.00    -0.053 A 
HETATM    4  C   UNL     1      14.597   6.385  11.535  1.00  0.00     0.043 A 
HETATM    5  C   UNL     1      14.692   6.133  10.174  1.00  0.00     0.066 A 
HETATM    6  C   UNL     1      13.544   5.888   9.435  1.00  0.00     0.036 A 
ENDROOT
BRANCH   3   7
HETATM    7  C   UNL     1      13.258   6.663  13.630  1.00  0.00     0.070 C 
BRANCH   7   8
HETATM    8  C   UNL     1      12.412   5.573  14.292  1.00  0.00     0.127 C 
BRANCH   8   9
HETATM    9  C   UNL     1      13.304   4.705  15.182  1.00  0.00     0.076 C 
BRANCH   9  10
HETATM   10  C   UNL     1      14.454   5.530  15.697  1.00  0.00     0.011 A 
HETATM   11  C   UNL     1      14.255   6.424  16.739  1.00  0.00     0.077 A 
HETATM   12  C   UNL     1      15.314   7.184  17.214  1.00  0.00     0.073 A 
HETATM   13  C   UNL     1      16.572   7.049  16.646  1.00  0.00     0.071 A 
HETATM   14  C   UNL     1      16.771   6.154  15.605  1.00  0.00     0.073 A 
HETATM   15  C   UNL     1      15.714   5.392  15.135  1.00  0.00     0.077 A 
BRANCH  11  16
HETATM   16  O   UNL     1      13.021   6.556  17.294  1.00  0.00    -0.360 OA
HETATM   17  H   UNL     1      12.560   7.368  17.222  1.00  0.00     0.217 HD
ENDBRANCH  11  16
BRANCH  13  18
HETATM   18  O   UNL     1      17.610   7.794  17.110  1.00  0.00    -0.361 OA
HETATM   19  H   UNL     1      18.089   7.510  17.863  1.00  0.00     0.217 HD
ENDBRANCH  13  18
BRANCH  15  20
HETATM   20  O   UNL     1      15.910   4.516  14.114  1.00  0.00    -0.360 OA
HETATM   21  H   UNL     1      15.562   4.702  13.264  1.00  0.00     0.217 HD
ENDBRANCH  15  20
ENDBRANCH   9  10
ENDBRANCH   8   9
BRANCH   8  22
HETATM   22  O   UNL     1      11.393   6.181  15.088  1.00  0.00    -0.395 OA
HETATM   23  H   UNL     1      11.025   5.524  15.700  1.00  0.00     0.210 HD
ENDBRANCH   8  22
ENDBRANCH   7   8
ENDBRANCH   3   7
BRANCH   5  24
HETATM   24  O   UNL     1      15.908   6.128   9.565  1.00  0.00    -0.361 OA
HETATM   25  H   UNL     1      16.000   5.767   8.706  1.00  0.00     0.217 HD
ENDBRANCH   5  24
TORSDOF 9
ENDMDL
