MODEL 1
REMARK VINA RESULT:      -7.5      0.000      0.000
REMARK  9 active torsions:
REMARK  status: ('A' for Active; 'I' for Inactive)
REMARK    1  A    between atoms: C_3  and  C_8 
REMARK    2  A    between atoms: C_5  and  O_7 
REMARK    3  A    between atoms: C_8  and  C_9 
REMARK    4  A    between atoms: C_9  and  C_10 
REMARK    5  A    between atoms: C_9  and  O_20 
REMARK    6  A    between atoms: C_10  and  C_11 
REMARK    7  A    between atoms: C_12  and  O_19 
REMARK    8  A    between atoms: C_14  and  O_18 
REMARK    9  A    between atoms: C_16  and  O_17 
ROOT
HETATM    1  C   UNL     1      18.292   3.509  14.472  1.00  0.00     0.003 A 
HETATM    2  C   UNL     1      17.906   4.626  13.756  1.00  0.00     0.007 A 
HETATM    3  C   UNL     1      18.616   5.009  12.633  1.00  0.00    -0.053 A 
HETATM    4  C   UNL     1      19.713   4.277  12.225  1.00  0.00     0.043 A 
HETATM    5  C   UNL     1      20.103   3.155  12.943  1.00  0.00     0.066 A 
HETATM    6  C   UNL     1      19.388   2.772  14.068  1.00  0.00     0.036 A 
ENDROOT
BRANCH   3   7
HETATM    7  C   UNL     1      18.193   6.228  11.853  1.00  0.00     0.070 C 
BRANCH   7   8
HETATM    8  C   UNL     1      16.987   5.880  10.978  1.00  0.00     0.127 C 
BRANCH   8   9
HETATM    9  C   UNL     1      15.922   6.970  11.119  1.00  0.00     0.076 C 
BRANCH   9  10
HETATM   10  C   UNL     1      14.558   6.334  11.182  1.00  0.00     0.011 A 
HETATM   11  C   UNL     1      13.972   6.070  12.411  1.00  0.00     0.077 A 
HETATM   12  C   UNL     1      12.716   5.485  12.470  1.00  0.00     0.073 A 
HETATM   13  C   UNL     1      12.046   5.164  11.299  1.00  0.00     0.071 A 
HETATM   14  C   UNL     1      12.631   5.429  10.070  1.00  0.00     0.073 A 
HETATM   15  C   UNL     1      13.885   6.018  10.012  1.00  0.00     0.077 A 
BRANCH  11  16
HETATM   16  O   UNL     1      14.629   6.384  13.559  1.00  0.00    -0.360 OA
HETATM   17  H   UNL     1      15.258   7.078  13.563  1.00  0.00     0.217 HD
ENDBRANCH  11  16
BRANCH  13  18
HETATM   18  O   UNL     1      10.816   4.589  11.355  1.00  0.00    -0.361 OA
HETATM   19  H   UNL     1      10.711   3.684  11.137  1.00  0.00     0.217 HD
ENDBRANCH  13  18
BRANCH  15  20
HETATM   20  O   UNL     1      14.459   6.278   8.807  1.00  0.00    -0.360 OA
HETATM   21  H   UNL     1      14.687   7.156   8.576  1.00  0.00     0.217 HD
ENDBRANCH  15  20
ENDBRANCH   9  10
ENDBRANCH   8   9
BRANCH   8  22
HETATM   22  O   UNL     1      17.399   5.792   9.613  1.00  0.00    -0.395 OA
HETATM   23  H   UNL     1      18.284   5.394   9.567  1.00  0.00     0.210 HD
ENDBRANCH   8  22
ENDBRANCH   7   8
ENDBRANCH   3   7
BRANCH   5  24
HETATM   24  O   UNL     1      21.182   2.432  12.543  1.00  0.00    -0.361 OA
HETATM   25  H   UNL     1      21.866   2.235  13.153  1.00  0.00     0.217 HD
ENDBRANCH   5  24
TORSDOF 9
ENDMDL
MODEL 2
REMARK VINA RESULT:      -7.5      0.013      1.848
REMARK  9 active torsions:
REMARK  status: ('A' for Active; 'I' for Inactive)
REMARK    1  A    between atoms: C_3  and  C_8 
REMARK    2  A    between atoms: C_5  and  O_7 
REMARK    3  A    between atoms: C_8  and  C_9 
REMARK    4  A    between atoms: C_9  and  C_10 
REMARK    5  A    between atoms: C_9  and  O_20 
REMARK    6  A    between atoms: C_10  and  C_11 
REMARK    7  A    between atoms: C_12  and  O_19 
REMARK    8  A    between atoms: C_14  and  O_18 
REMARK    9  A    between atoms: C_16  and  O_17 
ROOT
HETATM    1  C   UNL     1      18.298   3.515  14.474  1.00  0.00     0.003 A 
HETATM    2  C   UNL     1      17.909   4.631  13.756  1.00  0.00     0.007 A 
HETATM    3  C   UNL     1      18.614   5.011  12.629  1.00  0.00    -0.053 A 
HETATM    4  C   UNL     1      19.709   4.276  12.218  1.00  0.00     0.043 A 
HETATM    5  C   UNL     1      20.100   3.156  12.936  1.00  0.00     0.066 A 
HETATM    6  C   UNL     1      19.391   2.777  14.066  1.00  0.00     0.036 A 
ENDROOT
BRANCH   3   7
HETATM    7  C   UNL     1      18.188   6.228  11.849  1.00  0.00     0.070 C 
BRANCH   7   8
HETATM    8  C   UNL     1      16.980   5.879  10.977  1.00  0.00     0.127 C 
BRANCH   8   9
HETATM    9  C   UNL     1      15.914   6.966  11.123  1.00  0.00     0.076 C 
BRANCH   9  10
HETATM   10  C   UNL     1      14.550   6.328  11.184  1.00  0.00     0.011 A 
HETATM   11  C   UNL     1      13.877   6.016  10.012  1.00  0.00     0.077 A 
HETATM   12  C   UNL     1      12.622   5.429  10.068  1.00  0.00     0.073 A 
HETATM   13  C   UNL     1      12.040   5.154  11.296  1.00  0.00     0.071 A 
HETATM   14  C   UNL     1      12.713   5.465  12.468  1.00  0.00     0.073 A 
HETATM   15  C   UNL     1      13.970   6.048  12.412  1.00  0.00     0.077 A 
BRANCH  11  16
HETATM   16  O   UNL     1      14.448   6.287   8.809  1.00  0.00    -0.360 OA
HETATM   17  H   UNL     1      14.147   5.847   8.038  1.00  0.00     0.217 HD
ENDBRANCH  11  16
BRANCH  13  18
HETATM   18  O   UNL     1      10.810   4.580  11.352  1.00  0.00    -0.361 OA
HETATM   19  H   UNL     1      10.192   4.729  10.663  1.00  0.00     0.217 HD
ENDBRANCH  13  18
BRANCH  15  20
HETATM   20  O   UNL     1      14.629   6.353  13.561  1.00  0.00    -0.360 OA
HETATM   21  H   UNL     1      14.550   7.209  13.933  1.00  0.00     0.217 HD
ENDBRANCH  15  20
ENDBRANCH   9  10
ENDBRANCH   8   9
BRANCH   8  22
HETATM   22  O   UNL     1      17.388   5.792   9.611  1.00  0.00    -0.395 OA
HETATM   23  H   UNL     1      17.762   6.642   9.330  1.00  0.00     0.210 HD
ENDBRANCH   8  22
ENDBRANCH   7   8
ENDBRANCH   3   7
BRANCH   5  24
HETATM   24  O   UNL     1      21.177   2.430  12.532  1.00  0.00    -0.361 OA
HETATM   25  H   UNL     1      21.599   2.631  11.720  1.00  0.00     0.217 HD
ENDBRANCH   5  24
TORSDOF 9
ENDMDL
MODEL 3
REMARK VINA RESULT:      -7.1      1.769      6.354
REMARK  9 active torsions:
REMARK  status: ('A' for Active; 'I' for Inactive)
REMARK    1  A    between atoms: C_3  and  C_8 
REMARK    2  A    between atoms: C_5  and  O_7 
REMARK    3  A    between atoms: C_8  and  C_9 
REMARK    4  A    between atoms: C_9  and  C_10 
REMARK    5  A    between atoms: C_9  and  O_20 
REMARK    6  A    between atoms: C_10  and  C_11 
REMARK    7  A    between atoms: C_12  and  O_19 
REMARK    8  A    between atoms: C_14  and  O_18 
REMARK    9  A    between atoms: C_16  and  O_17 
ROOT
HETATM    1  C   UNL     1      12.227   3.835   8.691  1.00  0.00     0.003 A 
HETATM    2  C   UNL     1      12.141   4.343   9.974  1.00  0.00     0.007 A 
HETATM    3  C   UNL     1      12.409   5.679  10.210  1.00  0.00    -0.053 A 
HETATM    4  C   UNL     1      12.764   6.508   9.164  1.00  0.00     0.043 A 
HETATM    5  C   UNL     1      12.851   6.000   7.876  1.00  0.00     0.066 A 
HETATM    6  C   UNL     1      12.581   4.660   7.642  1.00  0.00     0.036 A 
ENDROOT
BRANCH   3   7
HETATM    7  C   UNL     1      12.314   6.230  11.609  1.00  0.00     0.070 C 
BRANCH   7   8
HETATM    8  C   UNL     1      13.513   5.749  12.430  1.00  0.00     0.127 C 
BRANCH   8   9
HETATM    9  C   UNL     1      14.577   6.848  12.472  1.00  0.00     0.076 C 
BRANCH   9  10
HETATM   10  C   UNL     1      15.940   6.234  12.280  1.00  0.00     0.011 A 
HETATM   11  C   UNL     1      16.598   5.655  13.356  1.00  0.00     0.077 A 
HETATM   12  C   UNL     1      17.852   5.091  13.179  1.00  0.00     0.073 A 
HETATM   13  C   UNL     1      18.449   5.106  11.928  1.00  0.00     0.071 A 
HETATM   14  C   UNL     1      17.791   5.684  10.852  1.00  0.00     0.073 A 
HETATM   15  C   UNL     1      16.535   6.244  11.028  1.00  0.00     0.077 A 
BRANCH  11  16
HETATM   16  O   UNL     1      16.012   5.641  14.582  1.00  0.00    -0.360 OA
HETATM   17  H   UNL     1      15.154   5.282  14.687  1.00  0.00     0.217 HD
ENDBRANCH  11  16
BRANCH  13  18
HETATM   18  O   UNL     1      19.679   4.554  11.755  1.00  0.00    -0.361 OA
HETATM   19  H   UNL     1      20.343   4.678  12.404  1.00  0.00     0.217 HD
ENDBRANCH  13  18
BRANCH  15  20
HETATM   20  O   UNL     1      15.891   6.811   9.974  1.00  0.00    -0.360 OA
HETATM   21  H   UNL     1      15.953   6.423   9.123  1.00  0.00     0.217 HD
ENDBRANCH  15  20
ENDBRANCH   9  10
ENDBRANCH   8   9
BRANCH   8  22
HETATM   22  O   UNL     1      13.088   5.447  13.760  1.00  0.00    -0.395 OA
HETATM   23  H   UNL     1      12.161   5.710  13.871  1.00  0.00     0.210 HD
ENDBRANCH   8  22
ENDBRANCH   7   8
ENDBRANCH   3   7
BRANCH   5  24
HETATM   24  O   UNL     1      13.200   6.815   6.845  1.00  0.00    -0.361 OA
HETATM   25  H   UNL     1      13.110   7.744   6.931  1.00  0.00     0.217 HD
ENDBRANCH   5  24
TORSDOF 9
ENDMDL
MODEL 4
REMARK VINA RESULT:      -7.0      1.601      6.831
REMARK  9 active torsions:
REMARK  status: ('A' for Active; 'I' for Inactive)
REMARK    1  A    between atoms: C_3  and  C_8 
REMARK    2  A    between atoms: C_5  and  O_7 
REMARK    3  A    between atoms: C_8  and  C_9 
REMARK    4  A    between atoms: C_9  and  C_10 
REMARK    5  A    between atoms: C_9  and  O_20 
REMARK    6  A    between atoms: C_10  and  C_11 
REMARK    7  A    between atoms: C_12  and  O_19 
REMARK    8  A    between atoms: C_14  and  O_18 
REMARK    9  A    between atoms: C_16  and  O_17 
ROOT
HETATM    1  C   UNL     1      14.555   6.224   9.946  1.00  0.00     0.003 A 
HETATM    2  C   UNL     1      14.976   6.328  11.258  1.00  0.00     0.007 A 
HETATM    3  C   UNL     1      14.111   6.013  12.291  1.00  0.00    -0.053 A 
HETATM    4  C   UNL     1      12.825   5.594  12.011  1.00  0.00     0.043 A 
HETATM    5  C   UNL     1      12.401   5.490  10.695  1.00  0.00     0.066 A 
HETATM    6  C   UNL     1      13.270   5.806   9.661  1.00  0.00     0.036 A 
ENDROOT
BRANCH   3   7
HETATM    7  C   UNL     1      14.572   6.126  13.721  1.00  0.00     0.070 C 
BRANCH   7   8
HETATM    8  C   UNL     1      15.489   4.948  14.057  1.00  0.00     0.127 C 
BRANCH   8   9
HETATM    9  C   UNL     1      16.833   5.476  14.563  1.00  0.00     0.076 C 
BRANCH   9  10
HETATM   10  C   UNL     1      17.950   4.660  13.966  1.00  0.00     0.011 A 
HETATM   11  C   UNL     1      18.578   5.088  12.806  1.00  0.00     0.077 A 
HETATM   12  C   UNL     1      19.606   4.338  12.256  1.00  0.00     0.073 A 
HETATM   13  C   UNL     1      20.006   3.158  12.866  1.00  0.00     0.071 A 
HETATM   14  C   UNL     1      19.378   2.730  14.027  1.00  0.00     0.073 A 
HETATM   15  C   UNL     1      18.354   3.484  14.579  1.00  0.00     0.077 A 
BRANCH  11  16
HETATM   16  O   UNL     1      18.186   6.244  12.208  1.00  0.00    -0.360 OA
HETATM   17  H   UNL     1      18.770   6.695  11.632  1.00  0.00     0.217 HD
ENDBRANCH  11  16
BRANCH  13  18
HETATM   18  O   UNL     1      21.013   2.421  12.327  1.00  0.00    -0.361 OA
HETATM   19  H   UNL     1      21.250   2.540  11.429  1.00  0.00     0.217 HD
ENDBRANCH  13  18
BRANCH  15  20
HETATM   20  O   UNL     1      17.738   3.063  15.716  1.00  0.00    -0.360 OA
HETATM   21  H   UNL     1      17.781   2.162  15.965  1.00  0.00     0.217 HD
ENDBRANCH  15  20
ENDBRANCH   9  10
ENDBRANCH   8   9
BRANCH   8  22
HETATM   22  O   UNL     1      14.880   4.145  15.070  1.00  0.00    -0.395 OA
HETATM   23  H   UNL     1      13.928   4.074  14.897  1.00  0.00     0.210 HD
ENDBRANCH   8  22
ENDBRANCH   7   8
ENDBRANCH   3   7
BRANCH   5  24
HETATM   24  O   UNL     1      11.135   5.077  10.418  1.00  0.00    -0.361 OA
HETATM   25  H   UNL     1      10.817   5.101   9.537  1.00  0.00     0.217 HD
ENDBRANCH   5  24
TORSDOF 9
ENDMDL
MODEL 5
REMARK VINA RESULT:      -7.0      1.599      6.652
REMARK  9 active torsions:
REMARK  status: ('A' for Active; 'I' for Inactive)
REMARK    1  A    between atoms: C_3  and  C_8 
REMARK    2  A    between atoms: C_5  and  O_7 
REMARK    3  A    between atoms: C_8  and  C_9 
REMARK    4  A    between atoms: C_9  and  C_10 
REMARK    5  A    between atoms: C_9  and  O_20 
REMARK    6  A    between atoms: C_10  and  C_11 
REMARK    7  A    between atoms: C_12  and  O_19 
REMARK    8  A    between atoms: C_14  and  O_18 
REMARK    9  A    between atoms: C_16  and  O_17 
ROOT
HETATM    1  C   UNL     1      14.543   6.220   9.938  1.00  0.00     0.003 A 
HETATM    2  C   UNL     1      14.971   6.329  11.247  1.00  0.00     0.007 A 
HETATM    3  C   UNL     1      14.111   6.022  12.286  1.00  0.00    -0.053 A 
HETATM    4  C   UNL     1      12.823   5.604  12.016  1.00  0.00     0.043 A 
HETATM    5  C   UNL     1      12.391   5.494  10.702  1.00  0.00     0.066 A 
HETATM    6  C   UNL     1      13.256   5.803   9.662  1.00  0.00     0.036 A 
ENDROOT
BRANCH   3   7
HETATM    7  C   UNL     1      14.580   6.142  13.713  1.00  0.00     0.070 C 
BRANCH   7   8
HETATM    8  C   UNL     1      15.498   4.965  14.049  1.00  0.00     0.127 C 
BRANCH   8   9
HETATM    9  C   UNL     1      16.843   5.494  14.552  1.00  0.00     0.076 C 
BRANCH   9  10
HETATM   10  C   UNL     1      17.959   4.669  13.964  1.00  0.00     0.011 A 
HETATM   11  C   UNL     1      18.352   3.493  14.584  1.00  0.00     0.077 A 
HETATM   12  C   UNL     1      19.379   2.733  14.043  1.00  0.00     0.073 A 
HETATM   13  C   UNL     1      20.013   3.151  12.883  1.00  0.00     0.071 A 
HETATM   14  C   UNL     1      19.618   4.327  12.262  1.00  0.00     0.073 A 
HETATM   15  C   UNL     1      18.588   5.083  12.800  1.00  0.00     0.077 A 
BRANCH  11  16
HETATM   16  O   UNL     1      17.732   3.084  15.722  1.00  0.00    -0.360 OA
HETATM   17  H   UNL     1      17.961   2.264  16.112  1.00  0.00     0.217 HD
ENDBRANCH  11  16
BRANCH  13  18
HETATM   18  O   UNL     1      21.019   2.408  12.353  1.00  0.00    -0.361 OA
HETATM   19  H   UNL     1      20.909   1.485  12.237  1.00  0.00     0.217 HD
ENDBRANCH  13  18
BRANCH  15  20
HETATM   20  O   UNL     1      18.203   6.236  12.192  1.00  0.00    -0.360 OA
HETATM   21  H   UNL     1      18.249   7.048  12.656  1.00  0.00     0.217 HD
ENDBRANCH  15  20
ENDBRANCH   9  10
ENDBRANCH   8   9
BRANCH   8  22
HETATM   22  O   UNL     1      14.892   4.164  15.066  1.00  0.00    -0.395 OA
HETATM   23  H   UNL     1      15.339   4.322  15.912  1.00  0.00     0.210 HD
ENDBRANCH   8  22
ENDBRANCH   7   8
ENDBRANCH   3   7
BRANCH   5  24
HETATM   24  O   UNL     1      11.123   5.083  10.434  1.00  0.00    -0.361 OA
HETATM   25  H   UNL     1      10.799   4.288  10.810  1.00  0.00     0.217 HD
ENDBRANCH   5  24
TORSDOF 9
ENDMDL
MODEL 6
REMARK VINA RESULT:      -6.8      1.464      2.733
REMARK  9 active torsions:
REMARK  status: ('A' for Active; 'I' for Inactive)
REMARK    1  A    between atoms: C_3  and  C_8 
REMARK    2  A    between atoms: C_5  and  O_7 
REMARK    3  A    between atoms: C_8  and  C_9 
REMARK    4  A    between atoms: C_9  and  C_10 
REMARK    5  A    between atoms: C_9  and  O_20 
REMARK    6  A    between atoms: C_10  and  C_11 
REMARK    7  A    between atoms: C_12  and  O_19 
REMARK    8  A    between atoms: C_14  and  O_18 
REMARK    9  A    between atoms: C_16  and  O_17 
ROOT
HETATM    1  C   UNL     1      18.618   3.504  14.378  1.00  0.00     0.003 A 
HETATM    2  C   UNL     1      18.639   4.206  13.187  1.00  0.00     0.007 A 
HETATM    3  C   UNL     1      18.204   5.518  13.148  1.00  0.00    -0.053 A 
HETATM    4  C   UNL     1      17.746   6.130  14.298  1.00  0.00     0.043 A 
HETATM    5  C   UNL     1      17.723   5.427  15.494  1.00  0.00     0.066 A 
HETATM    6  C   UNL     1      18.161   4.111  15.531  1.00  0.00     0.036 A 
ENDROOT
BRANCH   3   7
HETATM    7  C   UNL     1      18.229   6.281  11.848  1.00  0.00     0.070 C 
BRANCH   7   8
HETATM    8  C   UNL     1      16.999   5.913  11.016  1.00  0.00     0.127 C 
BRANCH   8   9
HETATM    9  C   UNL     1      15.933   7.000  11.174  1.00  0.00     0.076 C 
BRANCH   9  10
HETATM   10  C   UNL     1      14.569   6.362  11.223  1.00  0.00     0.011 A 
HETATM   11  C   UNL     1      13.924   6.012  10.046  1.00  0.00     0.077 A 
HETATM   12  C   UNL     1      12.668   5.425  10.092  1.00  0.00     0.073 A 
HETATM   13  C   UNL     1      12.057   5.189  11.314  1.00  0.00     0.071 A 
HETATM   14  C   UNL     1      12.703   5.538  12.491  1.00  0.00     0.073 A 
HETATM   15  C   UNL     1      13.960   6.120  12.445  1.00  0.00     0.077 A 
BRANCH  11  16
HETATM   16  O   UNL     1      14.523   6.244   8.849  1.00  0.00    -0.360 OA
HETATM   17  H   UNL     1      14.962   5.548   8.402  1.00  0.00     0.217 HD
ENDBRANCH  11  16
BRANCH  13  18
HETATM   18  O   UNL     1      10.827   4.614  11.359  1.00  0.00    -0.361 OA
HETATM   19  H   UNL     1      10.195   4.809  10.695  1.00  0.00     0.217 HD
ENDBRANCH  13  18
BRANCH  15  20
HETATM   20  O   UNL     1      14.592   6.463  13.599  1.00  0.00    -0.360 OA
HETATM   21  H   UNL     1      14.132   6.426  14.414  1.00  0.00     0.217 HD
ENDBRANCH  15  20
ENDBRANCH   9  10
ENDBRANCH   8   9
BRANCH   8  22
HETATM   22  O   UNL     1      17.369   5.806   9.640  1.00  0.00    -0.395 OA
HETATM   23  H   UNL     1      18.335   5.752   9.569  1.00  0.00     0.210 HD
ENDBRANCH   8  22
ENDBRANCH   7   8
ENDBRANCH   3   7
BRANCH   5  24
HETATM   24  O   UNL     1      17.273   6.028  16.627  1.00  0.00    -0.361 OA
HETATM   25  H   UNL     1      16.727   6.787  16.570  1.00  0.00     0.217 HD
ENDBRANCH   5  24
TORSDOF 9
ENDMDL
MODEL 7
REMARK VINA RESULT:      -6.8      2.692      4.610
REMARK  9 active torsions:
REMARK  status: ('A' for Active; 'I' for Inactive)
REMARK    1  A    between atoms: C_3  and  C_8 
REMARK    2  A    between atoms: C_5  and  O_7 
REMARK    3  A    between atoms: C_8  and  C_9 
REMARK    4  A    between atoms: C_9  and  C_10 
REMARK    5  A    between atoms: C_9  and  O_20 
REMARK    6  A    between atoms: C_10  and  C_11 
REMARK    7  A    between atoms: C_12  and  O_19 
REMARK    8  A    between atoms: C_14  and  O_18 
REMARK    9  A    between atoms: C_16  and  O_17 
ROOT
HETATM    1  C   UNL     1      15.565   6.148  10.986  1.00  0.00     0.003 A 
HETATM    2  C   UNL     1      16.025   5.758  12.229  1.00  0.00     0.007 A 
HETATM    3  C   UNL     1      17.364   5.463  12.413  1.00  0.00    -0.053 A 
HETATM    4  C   UNL     1      18.244   5.557  11.352  1.00  0.00     0.043 A 
HETATM    5  C   UNL     1      17.784   5.947  10.103  1.00  0.00     0.066 A 
HETATM    6  C   UNL     1      16.441   6.243   9.922  1.00  0.00     0.036 A 
ENDROOT
BRANCH   3   7
HETATM    7  C   UNL     1      17.863   5.039  13.770  1.00  0.00     0.070 C 
BRANCH   7   8
HETATM    8  C   UNL     1      17.407   6.053  14.821  1.00  0.00     0.127 C 
BRANCH   8   9
HETATM    9  C   UNL     1      16.580   5.340  15.893  1.00  0.00     0.076 C 
BRANCH   9  10
HETATM   10  C   UNL     1      15.114   5.574  15.635  1.00  0.00     0.011 A 
HETATM   11  C   UNL     1      14.345   4.580  15.048  1.00  0.00     0.077 A 
HETATM   12  C   UNL     1      12.996   4.796  14.811  1.00  0.00     0.073 A 
HETATM   13  C   UNL     1      12.416   6.006  15.159  1.00  0.00     0.071 A 
HETATM   14  C   UNL     1      13.184   7.000  15.746  1.00  0.00     0.073 A 
HETATM   15  C   UNL     1      14.532   6.782  15.988  1.00  0.00     0.077 A 
BRANCH  11  16
HETATM   16  O   UNL     1      14.914   3.394  14.706  1.00  0.00    -0.360 OA
HETATM   17  H   UNL     1      14.466   2.809  14.128  1.00  0.00     0.217 HD
ENDBRANCH  11  16
BRANCH  13  18
HETATM   18  O   UNL     1      11.094   6.218  14.925  1.00  0.00    -0.361 OA
HETATM   19  H   UNL     1      10.824   6.715  14.178  1.00  0.00     0.217 HD
ENDBRANCH  13  18
BRANCH  15  20
HETATM   20  O   UNL     1      15.285   7.757  16.563  1.00  0.00    -0.360 OA
HETATM   21  H   UNL     1      15.633   7.634  17.424  1.00  0.00     0.217 HD
ENDBRANCH  15  20
ENDBRANCH   9  10
ENDBRANCH   8   9
BRANCH   8  22
HETATM   22  O   UNL     1      18.551   6.658  15.427  1.00  0.00    -0.395 OA
HETATM   23  H   UNL     1      18.915   7.331  14.829  1.00  0.00     0.210 HD
ENDBRANCH   8  22
ENDBRANCH   7   8
ENDBRANCH   3   7
BRANCH   5  24
HETATM   24  O   UNL     1      18.649   6.040   9.058  1.00  0.00    -0.361 OA
HETATM   25  H   UNL     1      18.999   5.263   8.669  1.00  0.00     0.217 HD
ENDBRANCH   5  24
TORSDOF 9
ENDMDL
MODEL 8
REMARK VINA RESULT:      -6.8      2.693      4.464
REMARK  9 active torsions:
REMARK  status: ('A' for Active; 'I' for Inactive)
REMARK    1  A    between atoms: C_3  and  C_8 
REMARK    2  A    between atoms: C_5  and  O_7 
REMARK    3  A    between atoms: C_8  and  C_9 
REMARK    4  A    between atoms: C_9  and  C_10 
REMARK    5  A    between atoms: C_9  and  O_20 
REMARK    6  A    between atoms: C_10  and  C_11 
REMARK    7  A    between atoms: C_12  and  O_19 
REMARK    8  A    between atoms: C_14  and  O_18 
REMARK    9  A    between atoms: C_16  and  O_17 
ROOT
HETATM    1  C   UNL     1      15.640   6.363  11.109  1.00  0.00     0.003 A 
HETATM    2  C   UNL     1      16.103   5.962  12.348  1.00  0.00     0.007 A 
HETATM    3  C   UNL     1      17.411   5.537  12.496  1.00  0.00    -0.053 A 
HETATM    4  C   UNL     1      18.257   5.513  11.405  1.00  0.00     0.043 A 
HETATM    5  C   UNL     1      17.795   5.915  10.160  1.00  0.00     0.066 A 
HETATM    6  C   UNL     1      16.483   6.341  10.015  1.00  0.00     0.036 A 
ENDROOT
BRANCH   3   7
HETATM    7  C   UNL     1      17.912   5.101  13.848  1.00  0.00     0.070 C 
BRANCH   7   8
HETATM    8  C   UNL     1      17.413   6.076  14.917  1.00  0.00     0.127 C 
BRANCH   8   9
HETATM    9  C   UNL     1      16.574   5.318  15.947  1.00  0.00     0.076 C 
BRANCH   9  10
HETATM   10  C   UNL     1      15.111   5.550  15.672  1.00  0.00     0.011 A 
HETATM   11  C   UNL     1      14.519   6.753  16.028  1.00  0.00     0.077 A 
HETATM   12  C   UNL     1      13.173   6.966  15.775  1.00  0.00     0.073 A 
HETATM   13  C   UNL     1      12.418   5.976  15.165  1.00  0.00     0.071 A 
HETATM   14  C   UNL     1      13.009   4.773  14.807  1.00  0.00     0.073 A 
HETATM   15  C   UNL     1      14.356   4.563  15.057  1.00  0.00     0.077 A 
BRANCH  11  16
HETATM   16  O   UNL     1      15.260   7.722  16.627  1.00  0.00    -0.360 OA
HETATM   17  H   UNL     1      15.975   8.116  16.168  1.00  0.00     0.217 HD
ENDBRANCH  11  16
BRANCH  13  18
HETATM   18  O   UNL     1      11.098   6.184  14.917  1.00  0.00    -0.361 OA
HETATM   19  H   UNL     1      10.754   6.038  14.057  1.00  0.00     0.217 HD
ENDBRANCH  13  18
BRANCH  15  20
HETATM   20  O   UNL     1      14.936   3.383  14.707  1.00  0.00    -0.360 OA
HETATM   21  H   UNL     1      15.194   2.774  15.370  1.00  0.00     0.217 HD
ENDBRANCH  15  20
ENDBRANCH   9  10
ENDBRANCH   8   9
BRANCH   8  22
HETATM   22  O   UNL     1      18.532   6.683  15.567  1.00  0.00    -0.395 OA
HETATM   23  H   UNL     1      18.262   7.006  16.441  1.00  0.00     0.210 HD
ENDBRANCH   8  22
ENDBRANCH   7   8
ENDBRANCH   3   7
BRANCH   5  24
HETATM   24  O   UNL     1      18.627   5.893   9.086  1.00  0.00    -0.361 OA
HETATM   25  H   UNL     1      19.554   5.837   9.212  1.00  0.00     0.217 HD
ENDBRANCH   5  24
TORSDOF 9
ENDMDL
MODEL 9
REMARK VINA RESULT:      -6.7      3.074      6.572
REMARK  9 active torsions:
REMARK  status: ('A' for Active; 'I' for Inactive)
REMARK    1  A    between atoms: C_3  and  C_8 
REMARK    2  A    between atoms: C_5  and  O_7 
REMARK    3  A    between atoms: C_8  and  C_9 
REMARK    4  A    between atoms: C_9  and  C_10 
REMARK    5  A    between atoms: C_9  and  O_20 
REMARK    6  A    between atoms: C_10  and  C_11 
REMARK    7  A    between atoms: C_12  and  O_19 
REMARK    8  A    between atoms: C_14  and  O_18 
REMARK    9  A    between atoms: C_16  and  O_17 
ROOT
HETATM    1  C   UNL     1      12.329   5.904  10.053  1.00  0.00     0.003 A 
HETATM    2  C   UNL     1      12.230   6.150  11.409  1.00  0.00     0.007 A 
HETATM    3  C   UNL     1      13.370   6.397  12.154  1.00  0.00    -0.053 A 
HETATM    4  C   UNL     1      14.608   6.398  11.542  1.00  0.00     0.043 A 
HETATM    5  C   UNL     1      14.709   6.151  10.181  1.00  0.00     0.066 A 
HETATM    6  C   UNL     1      13.565   5.905   9.437  1.00  0.00     0.036 A 
ENDROOT
BRANCH   3   7
HETATM    7  C   UNL     1      13.259   6.665  13.632  1.00  0.00     0.070 C 
BRANCH   7   8
HETATM    8  C   UNL     1      12.425   5.564  14.290  1.00  0.00     0.127 C 
BRANCH   8   9
HETATM    9  C   UNL     1      13.327   4.700  15.175  1.00  0.00     0.076 C 
BRANCH   9  10
HETATM   10  C   UNL     1      14.472   5.534  15.689  1.00  0.00     0.011 A 
HETATM   11  C   UNL     1      15.731   5.411  15.118  1.00  0.00     0.077 A 
HETATM   12  C   UNL     1      16.785   6.178  15.591  1.00  0.00     0.073 A 
HETATM   13  C   UNL     1      16.581   7.067  16.635  1.00  0.00     0.071 A 
HETATM   14  C   UNL     1      15.322   7.191  17.205  1.00  0.00     0.073 A 
HETATM   15  C   UNL     1      14.268   6.428  16.729  1.00  0.00     0.077 A 
BRANCH  11  16
HETATM   16  O   UNL     1      15.930   4.539  14.096  1.00  0.00    -0.360 OA
HETATM   17  H   UNL     1      16.510   4.763  13.395  1.00  0.00     0.217 HD
ENDBRANCH  11  16
BRANCH  13  18
HETATM   18  O   UNL     1      17.613   7.819  17.100  1.00  0.00    -0.361 OA
HETATM   19  H   UNL     1      17.878   8.588  16.636  1.00  0.00     0.217 HD
ENDBRANCH  13  18
BRANCH  15  20
HETATM   20  O   UNL     1      13.034   6.548  17.288  1.00  0.00    -0.360 OA
HETATM   21  H   UNL     1      12.426   5.837  17.239  1.00  0.00     0.217 HD
ENDBRANCH  15  20
ENDBRANCH   9  10
ENDBRANCH   8   9
BRANCH   8  22
HETATM   22  O   UNL     1      11.400   6.156  15.090  1.00  0.00    -0.395 OA
HETATM   23  H   UNL     1      10.688   6.479  14.516  1.00  0.00     0.210 HD
ENDBRANCH   8  22
ENDBRANCH   7   8
ENDBRANCH   3   7
BRANCH   5  24
HETATM   24  O   UNL     1      15.927   6.153   9.577  1.00  0.00    -0.361 OA
HETATM   25  H   UNL     1      16.081   6.703   8.834  1.00  0.00     0.217 HD
ENDBRANCH   5  24
TORSDOF 9
ENDMDL
