MODEL 1
REMARK VINA RESULT:      -7.6      0.000      0.000
REMARK  9 active torsions:
REMARK  status: ('A' for Active; 'I' for Inactive)
REMARK    1  A    between atoms: C_3  and  C_8 
REMARK    2  A    between atoms: C_5  and  O_7 
REMARK    3  A    between atoms: C_8  and  C_9 
REMARK    4  A    between atoms: C_9  and  C_10 
REMARK    5  A    between atoms: C_9  and  O_20 
REMARK    6  A    between atoms: C_10  and  C_11 
REMARK    7  A    between atoms: C_12  and  O_19 
REMARK    8  A    between atoms: C_14  and  O_18 
REMARK    9  A    between atoms: C_16  and  O_17 
ROOT
HETATM    1  C   UNL     1      18.280   3.513  14.455  1.00  0.00     0.003 A 
HETATM    2  C   UNL     1      17.902   4.634  13.741  1.00  0.00     0.007 A 
HETATM    3  C   UNL     1      18.607   5.006  12.610  1.00  0.00    -0.053 A 
HETATM    4  C   UNL     1      19.690   4.257  12.194  1.00  0.00     0.043 A 
HETATM    5  C   UNL     1      20.071   3.132  12.910  1.00  0.00     0.066 A 
HETATM    6  C   UNL     1      19.362   2.761  14.043  1.00  0.00     0.036 A 
ENDROOT
BRANCH   3   7
HETATM    7  C   UNL     1      18.193   6.229  11.833  1.00  0.00     0.070 C 
BRANCH   7   8
HETATM    8  C   UNL     1      16.993   5.888  10.946  1.00  0.00     0.127 C 
BRANCH   8   9
HETATM    9  C   UNL     1      15.929   6.978  11.086  1.00  0.00     0.076 C 
BRANCH   9  10
HETATM   10  C   UNL     1      14.565   6.342  11.159  1.00  0.00     0.011 A 
HETATM   11  C   UNL     1      13.876   6.042   9.994  1.00  0.00     0.077 A 
HETATM   12  C   UNL     1      12.620   5.457  10.062  1.00  0.00     0.073 A 
HETATM   13  C   UNL     1      12.054   5.172  11.295  1.00  0.00     0.071 A 
HETATM   14  C   UNL     1      12.745   5.471  12.461  1.00  0.00     0.073 A 
HETATM   15  C   UNL     1      14.002   6.051  12.392  1.00  0.00     0.077 A 
BRANCH  11  16
HETATM   16  O   UNL     1      14.430   6.322   8.785  1.00  0.00    -0.360 OA
HETATM   17  H   UNL     1      15.197   5.863   8.504  1.00  0.00     0.217 HD
ENDBRANCH  11  16
BRANCH  13  18
HETATM   18  O   UNL     1      10.824   4.599  11.362  1.00  0.00    -0.361 OA
HETATM   19  H   UNL     1      10.490   4.303  12.186  1.00  0.00     0.217 HD
ENDBRANCH  13  18
BRANCH  15  20
HETATM   20  O   UNL     1      14.677   6.345  13.535  1.00  0.00    -0.360 OA
HETATM   21  H   UNL     1      15.542   6.010  13.666  1.00  0.00     0.217 HD
ENDBRANCH  15  20
ENDBRANCH   9  10
ENDBRANCH   8   9
BRANCH   8  22
HETATM   22  O   UNL     1      17.417   5.807   9.583  1.00  0.00    -0.395 OA
HETATM   23  H   UNL     1      18.135   6.441   9.430  1.00  0.00     0.210 HD
ENDBRANCH   8  22
ENDBRANCH   7   8
ENDBRANCH   3   7
BRANCH   5  24
HETATM   24  O   UNL     1      21.136   2.393  12.501  1.00  0.00    -0.361 OA
HETATM   25  H   UNL     1      21.352   1.596  12.945  1.00  0.00     0.217 HD
ENDBRANCH   5  24
TORSDOF 9
ENDMDL
MODEL 2
REMARK VINA RESULT:      -7.5      0.036      1.848
REMARK  9 active torsions:
REMARK  status: ('A' for Active; 'I' for Inactive)
REMARK    1  A    between atoms: C_3  and  C_8 
REMARK    2  A    between atoms: C_5  and  O_7 
REMARK    3  A    between atoms: C_8  and  C_9 
REMARK    4  A    between atoms: C_9  and  C_10 
REMARK    5  A    between atoms: C_9  and  O_20 
REMARK    6  A    between atoms: C_10  and  C_11 
REMARK    7  A    between atoms: C_12  and  O_19 
REMARK    8  A    between atoms: C_14  and  O_18 
REMARK    9  A    between atoms: C_16  and  O_17 
ROOT
HETATM    1  C   UNL     1      18.305   3.509  14.470  1.00  0.00     0.003 A 
HETATM    2  C   UNL     1      17.915   4.627  13.757  1.00  0.00     0.007 A 
HETATM    3  C   UNL     1      18.618   5.010  12.629  1.00  0.00    -0.053 A 
HETATM    4  C   UNL     1      19.711   4.276  12.213  1.00  0.00     0.043 A 
HETATM    5  C   UNL     1      20.104   3.153  12.928  1.00  0.00     0.066 A 
HETATM    6  C   UNL     1      19.397   2.771  14.058  1.00  0.00     0.036 A 
ENDROOT
BRANCH   3   7
HETATM    7  C   UNL     1      18.191   6.229  11.853  1.00  0.00     0.070 C 
BRANCH   7   8
HETATM    8  C   UNL     1      16.985   5.881  10.978  1.00  0.00     0.127 C 
BRANCH   8   9
HETATM    9  C   UNL     1      15.920   6.970  11.118  1.00  0.00     0.076 C 
BRANCH   9  10
HETATM   10  C   UNL     1      14.556   6.334  11.181  1.00  0.00     0.011 A 
HETATM   11  C   UNL     1      13.970   6.068  12.410  1.00  0.00     0.077 A 
HETATM   12  C   UNL     1      12.715   5.482  12.468  1.00  0.00     0.073 A 
HETATM   13  C   UNL     1      12.044   5.163  11.297  1.00  0.00     0.071 A 
HETATM   14  C   UNL     1      12.629   5.430  10.068  1.00  0.00     0.073 A 
HETATM   15  C   UNL     1      13.882   6.020  10.011  1.00  0.00     0.077 A 
BRANCH  11  16
HETATM   16  O   UNL     1      14.628   6.380  13.558  1.00  0.00    -0.360 OA
HETATM   17  H   UNL     1      15.230   5.769  13.934  1.00  0.00     0.217 HD
ENDBRANCH  11  16
BRANCH  13  18
HETATM   18  O   UNL     1      10.814   4.588  11.354  1.00  0.00    -0.361 OA
HETATM   19  H   UNL     1      10.077   5.088  11.642  1.00  0.00     0.217 HD
ENDBRANCH  13  18
BRANCH  15  20
HETATM   20  O   UNL     1      14.456   6.281   8.806  1.00  0.00    -0.360 OA
HETATM   21  H   UNL     1      15.116   5.709   8.468  1.00  0.00     0.217 HD
ENDBRANCH  15  20
ENDBRANCH   9  10
ENDBRANCH   8   9
BRANCH   8  22
HETATM   22  O   UNL     1      17.398   5.792   9.613  1.00  0.00    -0.395 OA
HETATM   23  H   UNL     1      16.680   5.413   9.081  1.00  0.00     0.210 HD
ENDBRANCH   8  22
ENDBRANCH   7   8
ENDBRANCH   3   7
BRANCH   5  24
HETATM   24  O   UNL     1      21.179   2.428  12.519  1.00  0.00    -0.361 OA
HETATM   25  H   UNL     1      22.033   2.814  12.524  1.00  0.00     0.217 HD
ENDBRANCH   5  24
TORSDOF 9
ENDMDL
MODEL 3
REMARK VINA RESULT:      -7.4      1.166      2.430
REMARK  9 active torsions:
REMARK  status: ('A' for Active; 'I' for Inactive)
REMARK    1  A    between atoms: C_3  and  C_8 
REMARK    2  A    between atoms: C_5  and  O_7 
REMARK    3  A    between atoms: C_8  and  C_9 
REMARK    4  A    between atoms: C_9  and  C_10 
REMARK    5  A    between atoms: C_9  and  O_20 
REMARK    6  A    between atoms: C_10  and  C_11 
REMARK    7  A    between atoms: C_12  and  O_19 
REMARK    8  A    between atoms: C_14  and  O_18 
REMARK    9  A    between atoms: C_16  and  O_17 
ROOT
HETATM    1  C   UNL     1      19.955   3.157  13.329  1.00  0.00     0.003 A 
HETATM    2  C   UNL     1      19.673   4.250  12.532  1.00  0.00     0.007 A 
HETATM    3  C   UNL     1      18.529   4.994  12.753  1.00  0.00    -0.053 A 
HETATM    4  C   UNL     1      17.664   4.646  13.772  1.00  0.00     0.043 A 
HETATM    5  C   UNL     1      17.945   3.549  14.573  1.00  0.00     0.066 A 
HETATM    6  C   UNL     1      19.094   2.805  14.349  1.00  0.00     0.036 A 
ENDROOT
BRANCH   3   7
HETATM    7  C   UNL     1      18.225   6.186  11.882  1.00  0.00     0.070 C 
BRANCH   7   8
HETATM    8  C   UNL     1      17.032   5.867  10.978  1.00  0.00     0.127 C 
BRANCH   8   9
HETATM    9  C   UNL     1      15.982   6.971  11.111  1.00  0.00     0.076 C 
BRANCH   9  10
HETATM   10  C   UNL     1      14.609   6.353  11.181  1.00  0.00     0.011 A 
HETATM   11  C   UNL     1      14.020   6.110  12.413  1.00  0.00     0.077 A 
HETATM   12  C   UNL     1      12.757   5.542  12.477  1.00  0.00     0.073 A 
HETATM   13  C   UNL     1      12.083   5.215  11.310  1.00  0.00     0.071 A 
HETATM   14  C   UNL     1      12.672   5.459  10.078  1.00  0.00     0.073 A 
HETATM   15  C   UNL     1      13.933   6.032  10.014  1.00  0.00     0.077 A 
BRANCH  11  16
HETATM   16  O   UNL     1      14.681   6.430  13.556  1.00  0.00    -0.360 OA
HETATM   17  H   UNL     1      14.972   7.308  13.699  1.00  0.00     0.217 HD
ENDBRANCH  11  16
BRANCH  13  18
HETATM   18  O   UNL     1      10.846   4.657  11.373  1.00  0.00    -0.361 OA
HETATM   19  H   UNL     1      10.301   4.810  12.119  1.00  0.00     0.217 HD
ENDBRANCH  13  18
BRANCH  15  20
HETATM   20  O   UNL     1      14.510   6.270   8.806  1.00  0.00    -0.360 OA
HETATM   21  H   UNL     1      15.375   5.956   8.631  1.00  0.00     0.217 HD
ENDBRANCH  15  20
ENDBRANCH   9  10
ENDBRANCH   8   9
BRANCH   8  22
HETATM   22  O   UNL     1      17.472   5.788   9.621  1.00  0.00    -0.395 OA
HETATM   23  H   UNL     1      18.361   6.170   9.546  1.00  0.00     0.210 HD
ENDBRANCH   8  22
ENDBRANCH   7   8
ENDBRANCH   3   7
BRANCH   5  24
HETATM   24  O   UNL     1      17.095   3.204  15.577  1.00  0.00    -0.361 OA
HETATM   25  H   UNL     1      17.415   3.122  16.454  1.00  0.00     0.217 HD
ENDBRANCH   5  24
TORSDOF 9
ENDMDL
MODEL 4
REMARK VINA RESULT:      -7.1      1.767      6.603
REMARK  9 active torsions:
REMARK  status: ('A' for Active; 'I' for Inactive)
REMARK    1  A    between atoms: C_3  and  C_8 
REMARK    2  A    between atoms: C_5  and  O_7 
REMARK    3  A    between atoms: C_8  and  C_9 
REMARK    4  A    between atoms: C_9  and  C_10 
REMARK    5  A    between atoms: C_9  and  O_20 
REMARK    6  A    between atoms: C_10  and  C_11 
REMARK    7  A    between atoms: C_12  and  O_19 
REMARK    8  A    between atoms: C_14  and  O_18 
REMARK    9  A    between atoms: C_16  and  O_17 
ROOT
HETATM    1  C   UNL     1      12.205   3.830   8.695  1.00  0.00     0.003 A 
HETATM    2  C   UNL     1      12.144   4.342   9.977  1.00  0.00     0.007 A 
HETATM    3  C   UNL     1      12.429   5.675  10.207  1.00  0.00    -0.053 A 
HETATM    4  C   UNL     1      12.776   6.499   9.154  1.00  0.00     0.043 A 
HETATM    5  C   UNL     1      12.838   5.988   7.866  1.00  0.00     0.066 A 
HETATM    6  C   UNL     1      12.551   4.650   7.638  1.00  0.00     0.036 A 
ENDROOT
BRANCH   3   7
HETATM    7  C   UNL     1      12.361   6.230  11.606  1.00  0.00     0.070 C 
BRANCH   7   8
HETATM    8  C   UNL     1      13.581   5.759  12.402  1.00  0.00     0.127 C 
BRANCH   8   9
HETATM    9  C   UNL     1      14.645   6.859  12.403  1.00  0.00     0.076 C 
BRANCH   9  10
HETATM   10  C   UNL     1      16.005   6.242  12.203  1.00  0.00     0.011 A 
HETATM   11  C   UNL     1      16.670   5.665  13.275  1.00  0.00     0.077 A 
HETATM   12  C   UNL     1      17.922   5.098  13.090  1.00  0.00     0.073 A 
HETATM   13  C   UNL     1      18.509   5.108  11.834  1.00  0.00     0.071 A 
HETATM   14  C   UNL     1      17.843   5.684  10.762  1.00  0.00     0.073 A 
HETATM   15  C   UNL     1      16.590   6.247  10.946  1.00  0.00     0.077 A 
BRANCH  11  16
HETATM   16  O   UNL     1      16.095   5.656  14.506  1.00  0.00    -0.360 OA
HETATM   17  H   UNL     1      15.531   6.358  14.764  1.00  0.00     0.217 HD
ENDBRANCH  11  16
BRANCH  13  18
HETATM   18  O   UNL     1      19.736   4.553  11.652  1.00  0.00    -0.361 OA
HETATM   19  H   UNL     1      20.438   4.770  12.234  1.00  0.00     0.217 HD
ENDBRANCH  13  18
BRANCH  15  20
HETATM   20  O   UNL     1      15.938   6.812   9.895  1.00  0.00    -0.360 OA
HETATM   21  H   UNL     1      15.243   7.421  10.048  1.00  0.00     0.217 HD
ENDBRANCH  15  20
ENDBRANCH   9  10
ENDBRANCH   8   9
BRANCH   8  22
HETATM   22  O   UNL     1      13.191   5.472  13.746  1.00  0.00    -0.395 OA
HETATM   23  H   UNL     1      12.787   6.260  14.141  1.00  0.00     0.210 HD
ENDBRANCH   8  22
ENDBRANCH   7   8
ENDBRANCH   3   7
BRANCH   5  24
HETATM   24  O   UNL     1      13.178   6.797   6.828  1.00  0.00    -0.361 OA
HETATM   25  H   UNL     1      14.045   7.150   6.773  1.00  0.00     0.217 HD
ENDBRANCH   5  24
TORSDOF 9
ENDMDL
MODEL 5
REMARK VINA RESULT:      -7.0      1.821      6.381
REMARK  9 active torsions:
REMARK  status: ('A' for Active; 'I' for Inactive)
REMARK    1  A    between atoms: C_3  and  C_8 
REMARK    2  A    between atoms: C_5  and  O_7 
REMARK    3  A    between atoms: C_8  and  C_9 
REMARK    4  A    between atoms: C_9  and  C_10 
REMARK    5  A    between atoms: C_9  and  O_20 
REMARK    6  A    between atoms: C_10  and  C_11 
REMARK    7  A    between atoms: C_12  and  O_19 
REMARK    8  A    between atoms: C_14  and  O_18 
REMARK    9  A    between atoms: C_16  and  O_17 
ROOT
HETATM    1  C   UNL     1      12.230   3.868   8.689  1.00  0.00     0.003 A 
HETATM    2  C   UNL     1      12.052   4.373   9.963  1.00  0.00     0.007 A 
HETATM    3  C   UNL     1      12.282   5.713  10.216  1.00  0.00    -0.053 A 
HETATM    4  C   UNL     1      12.691   6.549   9.196  1.00  0.00     0.043 A 
HETATM    5  C   UNL     1      12.870   6.044   7.917  1.00  0.00     0.066 A 
HETATM    6  C   UNL     1      12.638   4.699   7.665  1.00  0.00     0.036 A 
ENDROOT
BRANCH   3   7
HETATM    7  C   UNL     1      12.087   6.261  11.606  1.00  0.00     0.070 C 
BRANCH   7   8
HETATM    8  C   UNL     1      13.066   5.580  12.566  1.00  0.00     0.127 C 
BRANCH   8   9
HETATM    9  C   UNL     1      14.063   6.613  13.095  1.00  0.00     0.076 C 
BRANCH   9  10
HETATM   10  C   UNL     1      15.464   6.078  12.948  1.00  0.00     0.011 A 
HETATM   11  C   UNL     1      16.218   6.404  11.830  1.00  0.00     0.077 A 
HETATM   12  C   UNL     1      17.507   5.912  11.695  1.00  0.00     0.073 A 
HETATM   13  C   UNL     1      18.043   5.094  12.678  1.00  0.00     0.071 A 
HETATM   14  C   UNL     1      17.291   4.770  13.797  1.00  0.00     0.073 A 
HETATM   15  C   UNL     1      16.003   5.265  13.934  1.00  0.00     0.077 A 
BRANCH  11  16
HETATM   16  O   UNL     1      15.691   7.205  10.866  1.00  0.00    -0.360 OA
HETATM   17  H   UNL     1      14.831   7.562  10.972  1.00  0.00     0.217 HD
ENDBRANCH  11  16
BRANCH  13  18
HETATM   18  O   UNL     1      19.307   4.611  12.545  1.00  0.00    -0.361 OA
HETATM   19  H   UNL     1      19.496   3.725  12.781  1.00  0.00     0.217 HD
ENDBRANCH  13  18
BRANCH  15  20
HETATM   20  O   UNL     1      15.265   4.946  15.030  1.00  0.00    -0.360 OA
HETATM   21  H   UNL     1      14.561   4.333  14.958  1.00  0.00     0.217 HD
ENDBRANCH  15  20
ENDBRANCH   9  10
ENDBRANCH   8   9
BRANCH   8  22
HETATM   22  O   UNL     1      12.342   5.013  13.660  1.00  0.00    -0.395 OA
HETATM   23  H   UNL     1      11.681   5.649  13.975  1.00  0.00     0.210 HD
ENDBRANCH   8  22
ENDBRANCH   7   8
ENDBRANCH   3   7
BRANCH   5  24
HETATM   24  O   UNL     1      13.272   6.865   6.910  1.00  0.00    -0.361 OA
HETATM   25  H   UNL     1      13.947   6.589   6.321  1.00  0.00     0.217 HD
ENDBRANCH   5  24
TORSDOF 9
ENDMDL
MODEL 6
REMARK VINA RESULT:      -7.0      1.604      6.640
REMARK  9 active torsions:
REMARK  status: ('A' for Active; 'I' for Inactive)
REMARK    1  A    between atoms: C_3  and  C_8 
REMARK    2  A    between atoms: C_5  and  O_7 
REMARK    3  A    between atoms: C_8  and  C_9 
REMARK    4  A    between atoms: C_9  and  C_10 
REMARK    5  A    between atoms: C_9  and  O_20 
REMARK    6  A    between atoms: C_10  and  C_11 
REMARK    7  A    between atoms: C_12  and  O_19 
REMARK    8  A    between atoms: C_14  and  O_18 
REMARK    9  A    between atoms: C_16  and  O_17 
ROOT
HETATM    1  C   UNL     1      14.551   6.207   9.970  1.00  0.00     0.003 A 
HETATM    2  C   UNL     1      14.970   6.312  11.282  1.00  0.00     0.007 A 
HETATM    3  C   UNL     1      14.101   6.011  12.315  1.00  0.00    -0.053 A 
HETATM    4  C   UNL     1      12.811   5.604  12.035  1.00  0.00     0.043 A 
HETATM    5  C   UNL     1      12.388   5.498  10.719  1.00  0.00     0.066 A 
HETATM    6  C   UNL     1      13.262   5.800   9.685  1.00  0.00     0.036 A 
ENDROOT
BRANCH   3   7
HETATM    7  C   UNL     1      14.561   6.127  13.745  1.00  0.00     0.070 C 
BRANCH   7   8
HETATM    8  C   UNL     1      15.488   4.956  14.080  1.00  0.00     0.127 C 
BRANCH   8   9
HETATM    9  C   UNL     1      16.836   5.494  14.563  1.00  0.00     0.076 C 
BRANCH   9  10
HETATM   10  C   UNL     1      17.948   4.671  13.966  1.00  0.00     0.011 A 
HETATM   11  C   UNL     1      18.578   5.094  12.805  1.00  0.00     0.077 A 
HETATM   12  C   UNL     1      19.602   4.337  12.256  1.00  0.00     0.073 A 
HETATM   13  C   UNL     1      19.995   3.156  12.867  1.00  0.00     0.071 A 
HETATM   14  C   UNL     1      19.366   2.734  14.029  1.00  0.00     0.073 A 
HETATM   15  C   UNL     1      18.346   3.493  14.580  1.00  0.00     0.077 A 
BRANCH  11  16
HETATM   16  O   UNL     1      18.192   6.251  12.206  1.00  0.00    -0.360 OA
HETATM   17  H   UNL     1      17.320   6.572  12.326  1.00  0.00     0.217 HD
ENDBRANCH  11  16
BRANCH  13  18
HETATM   18  O   UNL     1      20.998   2.413  12.329  1.00  0.00    -0.361 OA
HETATM   19  H   UNL     1      21.761   2.835  11.987  1.00  0.00     0.217 HD
ENDBRANCH  13  18
BRANCH  15  20
HETATM   20  O   UNL     1      17.729   3.078  15.718  1.00  0.00    -0.360 OA
HETATM   21  H   UNL     1      17.754   2.174  15.962  1.00  0.00     0.217 HD
ENDBRANCH  15  20
ENDBRANCH   9  10
ENDBRANCH   8   9
BRANCH   8  22
HETATM   22  O   UNL     1      14.896   4.160  15.108  1.00  0.00    -0.395 OA
HETATM   23  H   UNL     1      14.228   4.683  15.578  1.00  0.00     0.210 HD
ENDBRANCH   8  22
ENDBRANCH   7   8
ENDBRANCH   3   7
BRANCH   5  24
HETATM   24  O   UNL     1      11.118   5.097  10.442  1.00  0.00    -0.361 OA
HETATM   25  H   UNL     1      10.436   5.234  11.070  1.00  0.00     0.217 HD
ENDBRANCH   5  24
TORSDOF 9
ENDMDL
MODEL 7
REMARK VINA RESULT:      -7.0      1.596      6.831
REMARK  9 active torsions:
REMARK  status: ('A' for Active; 'I' for Inactive)
REMARK    1  A    between atoms: C_3  and  C_8 
REMARK    2  A    between atoms: C_5  and  O_7 
REMARK    3  A    between atoms: C_8  and  C_9 
REMARK    4  A    between atoms: C_9  and  C_10 
REMARK    5  A    between atoms: C_9  and  O_20 
REMARK    6  A    between atoms: C_10  and  C_11 
REMARK    7  A    between atoms: C_12  and  O_19 
REMARK    8  A    between atoms: C_14  and  O_18 
REMARK    9  A    between atoms: C_16  and  O_17 
ROOT
HETATM    1  C   UNL     1      14.543   6.214   9.972  1.00  0.00     0.003 A 
HETATM    2  C   UNL     1      14.977   6.322  11.279  1.00  0.00     0.007 A 
HETATM    3  C   UNL     1      14.121   6.015  12.321  1.00  0.00    -0.053 A 
HETATM    4  C   UNL     1      12.831   5.600  12.056  1.00  0.00     0.043 A 
HETATM    5  C   UNL     1      12.393   5.491  10.744  1.00  0.00     0.066 A 
HETATM    6  C   UNL     1      13.254   5.800   9.701  1.00  0.00     0.036 A 
ENDROOT
BRANCH   3   7
HETATM    7  C   UNL     1      14.596   6.133  13.747  1.00  0.00     0.070 C 
BRANCH   7   8
HETATM    8  C   UNL     1      15.519   4.956  14.076  1.00  0.00     0.127 C 
BRANCH   8   9
HETATM    9  C   UNL     1      16.867   5.487  14.565  1.00  0.00     0.076 C 
BRANCH   9  10
HETATM   10  C   UNL     1      17.978   4.664  13.966  1.00  0.00     0.011 A 
HETATM   11  C   UNL     1      18.375   3.484  14.579  1.00  0.00     0.077 A 
HETATM   12  C   UNL     1      19.397   2.726  14.028  1.00  0.00     0.073 A 
HETATM   13  C   UNL     1      20.023   3.148  12.864  1.00  0.00     0.071 A 
HETATM   14  C   UNL     1      19.625   4.326  12.251  1.00  0.00     0.073 A 
HETATM   15  C   UNL     1      18.600   5.081  12.799  1.00  0.00     0.077 A 
BRANCH  11  16
HETATM   16  O   UNL     1      17.763   3.072  15.720  1.00  0.00    -0.360 OA
HETATM   17  H   UNL     1      17.128   3.622  16.136  1.00  0.00     0.217 HD
ENDBRANCH  11  16
BRANCH  13  18
HETATM   18  O   UNL     1      21.025   2.406  12.325  1.00  0.00    -0.361 OA
HETATM   19  H   UNL     1      21.586   2.779  11.674  1.00  0.00     0.217 HD
ENDBRANCH  13  18
BRANCH  15  20
HETATM   20  O   UNL     1      18.211   6.237  12.198  1.00  0.00    -0.360 OA
HETATM   21  H   UNL     1      17.890   6.949  12.716  1.00  0.00     0.217 HD
ENDBRANCH  15  20
ENDBRANCH   9  10
ENDBRANCH   8   9
BRANCH   8  22
HETATM   22  O   UNL     1      14.922   4.157  15.099  1.00  0.00    -0.395 OA
HETATM   23  H   UNL     1      13.979   4.035  14.906  1.00  0.00     0.210 HD
ENDBRANCH   8  22
ENDBRANCH   7   8
ENDBRANCH   3   7
BRANCH   5  24
HETATM   24  O   UNL     1      11.124   5.082  10.482  1.00  0.00    -0.361 OA
HETATM   25  H   UNL     1      10.538   5.645  10.014  1.00  0.00     0.217 HD
ENDBRANCH   5  24
TORSDOF 9
ENDMDL
MODEL 8
REMARK VINA RESULT:      -6.8      2.686      4.462
REMARK  9 active torsions:
REMARK  status: ('A' for Active; 'I' for Inactive)
REMARK    1  A    between atoms: C_3  and  C_8 
REMARK    2  A    between atoms: C_5  and  O_7 
REMARK    3  A    between atoms: C_8  and  C_9 
REMARK    4  A    between atoms: C_9  and  C_10 
REMARK    5  A    between atoms: C_9  and  O_20 
REMARK    6  A    between atoms: C_10  and  C_11 
REMARK    7  A    between atoms: C_12  and  O_19 
REMARK    8  A    between atoms: C_14  and  O_18 
REMARK    9  A    between atoms: C_16  and  O_17 
ROOT
HETATM    1  C   UNL     1      15.616   6.159  11.015  1.00  0.00     0.003 A 
HETATM    2  C   UNL     1      16.066   5.771  12.263  1.00  0.00     0.007 A 
HETATM    3  C   UNL     1      17.399   5.455  12.452  1.00  0.00    -0.053 A 
HETATM    4  C   UNL     1      18.283   5.525  11.394  1.00  0.00     0.043 A 
HETATM    5  C   UNL     1      17.834   5.914  10.140  1.00  0.00     0.066 A 
HETATM    6  C   UNL     1      16.497   6.231   9.954  1.00  0.00     0.036 A 
ENDROOT
BRANCH   3   7
HETATM    7  C   UNL     1      17.887   5.033  13.815  1.00  0.00     0.070 C 
BRANCH   7   8
HETATM    8  C   UNL     1      17.418   6.046  14.861  1.00  0.00     0.127 C 
BRANCH   8   9
HETATM    9  C   UNL     1      16.588   5.329  15.928  1.00  0.00     0.076 C 
BRANCH   9  10
HETATM   10  C   UNL     1      15.123   5.566  15.667  1.00  0.00     0.011 A 
HETATM   11  C   UNL     1      14.358   4.581  15.060  1.00  0.00     0.077 A 
HETATM   12  C   UNL     1      13.010   4.798  14.820  1.00  0.00     0.073 A 
HETATM   13  C   UNL     1      12.426   6.001  15.187  1.00  0.00     0.071 A 
HETATM   14  C   UNL     1      13.190   6.986  15.796  1.00  0.00     0.073 A 
HETATM   15  C   UNL     1      14.537   6.766  16.040  1.00  0.00     0.077 A 
BRANCH  11  16
HETATM   16  O   UNL     1      14.931   3.402  14.699  1.00  0.00    -0.360 OA
HETATM   17  H   UNL     1      15.052   3.198  13.793  1.00  0.00     0.217 HD
ENDBRANCH  11  16
BRANCH  13  18
HETATM   18  O   UNL     1      11.105   6.215  14.951  1.00  0.00    -0.361 OA
HETATM   19  H   UNL     1      10.828   6.996  14.513  1.00  0.00     0.217 HD
ENDBRANCH  13  18
BRANCH  15  20
HETATM   20  O   UNL     1      15.286   7.731  16.636  1.00  0.00    -0.360 OA
HETATM   21  H   UNL     1      14.900   8.557  16.850  1.00  0.00     0.217 HD
ENDBRANCH  15  20
ENDBRANCH   9  10
ENDBRANCH   8   9
BRANCH   8  22
HETATM   22  O   UNL     1      18.554   6.658  15.474  1.00  0.00    -0.395 OA
HETATM   23  H   UNL     1      18.467   7.624  15.425  1.00  0.00     0.210 HD
ENDBRANCH   8  22
ENDBRANCH   7   8
ENDBRANCH   3   7
BRANCH   5  24
HETATM   24  O   UNL     1      18.703   5.984   9.097  1.00  0.00    -0.361 OA
HETATM   25  H   UNL     1      19.357   5.322   8.987  1.00  0.00     0.217 HD
ENDBRANCH   5  24
TORSDOF 9
ENDMDL
MODEL 9
REMARK VINA RESULT:      -6.7      2.705      6.712
REMARK  9 active torsions:
REMARK  status: ('A' for Active; 'I' for Inactive)
REMARK    1  A    between atoms: C_3  and  C_8 
REMARK    2  A    between atoms: C_5  and  O_7 
REMARK    3  A    between atoms: C_8  and  C_9 
REMARK    4  A    between atoms: C_9  and  C_10 
REMARK    5  A    between atoms: C_9  and  O_20 
REMARK    6  A    between atoms: C_10  and  C_11 
REMARK    7  A    between atoms: C_12  and  O_19 
REMARK    8  A    between atoms: C_14  and  O_18 
REMARK    9  A    between atoms: C_16  and  O_17 
ROOT
HETATM    1  C   UNL     1      14.800   6.186  10.816  1.00  0.00     0.003 A 
HETATM    2  C   UNL     1      14.659   6.635  12.116  1.00  0.00     0.007 A 
HETATM    3  C   UNL     1      13.418   6.614  12.727  1.00  0.00    -0.053 A 
HETATM    4  C   UNL     1      12.317   6.145  12.038  1.00  0.00     0.043 A 
HETATM    5  C   UNL     1      12.456   5.695  10.733  1.00  0.00     0.066 A 
HETATM    6  C   UNL     1      13.701   5.716  10.124  1.00  0.00     0.036 A 
ENDROOT
BRANCH   3   7
HETATM    7  C   UNL     1      13.268   7.104  14.144  1.00  0.00     0.070 C 
BRANCH   7   8
HETATM    8  C   UNL     1      12.705   5.979  15.016  1.00  0.00     0.127 C 
BRANCH   8   9
HETATM    9  C   UNL     1      13.569   5.824  16.269  1.00  0.00     0.076 C 
BRANCH   9  10
HETATM   10  C   UNL     1      15.013   5.669  15.867  1.00  0.00     0.011 A 
HETATM   11  C   UNL     1      15.934   6.651  16.198  1.00  0.00     0.077 A 
HETATM   12  C   UNL     1      17.263   6.508  15.828  1.00  0.00     0.073 A 
HETATM   13  C   UNL     1      17.670   5.383  15.127  1.00  0.00     0.071 A 
HETATM   14  C   UNL     1      16.749   4.400  14.798  1.00  0.00     0.073 A 
HETATM   15  C   UNL     1      15.422   4.541  15.172  1.00  0.00     0.077 A 
BRANCH  11  16
HETATM   16  O   UNL     1      15.534   7.754  16.883  1.00  0.00    -0.360 OA
HETATM   17  H   UNL     1      14.705   8.146  16.696  1.00  0.00     0.217 HD
ENDBRANCH  11  16
BRANCH  13  18
HETATM   18  O   UNL     1      18.972   5.243  14.764  1.00  0.00    -0.361 OA
HETATM   19  H   UNL     1      19.464   4.503  15.061  1.00  0.00     0.217 HD
ENDBRANCH  13  18
BRANCH  15  20
HETATM   20  O   UNL     1      14.519   3.577  14.848  1.00  0.00    -0.360 OA
HETATM   21  H   UNL     1      14.461   3.267  13.966  1.00  0.00     0.217 HD
ENDBRANCH  15  20
ENDBRANCH   9  10
ENDBRANCH   8   9
BRANCH   8  22
HETATM   22  O   UNL     1      11.365   6.298  15.397  1.00  0.00    -0.395 OA
HETATM   23  H   UNL     1      11.020   5.602  15.978  1.00  0.00     0.210 HD
ENDBRANCH   8  22
ENDBRANCH   7   8
ENDBRANCH   3   7
BRANCH   5  24
HETATM   24  O   UNL     1      11.373   5.232  10.054  1.00  0.00    -0.361 OA
HETATM   25  H   UNL     1      11.335   4.334   9.788  1.00  0.00     0.217 HD
ENDBRANCH   5  24
TORSDOF 9
ENDMDL
