REMARK  4 active torsions:
REMARK  status: ('A' for Active; 'I' for Inactive)
REMARK    1  A    between atoms: O_1  and  C_9 
REMARK    2  A    between atoms: O_2  and  C_10 
REMARK    3  A    between atoms: C_3  and  C_5 
REMARK    4  A    between atoms: C_4  and  C_8 
ROOT
HETATM    1  O   UNL     1       4.405   1.802  -0.491  1.00  0.00    -0.358 OA
HETATM    2  H   UNL     1       4.099   2.667  -0.683  1.00  0.00     0.217 HD
ENDROOT
BRANCH   1   3
HETATM    3  C   UNL     1       3.513   0.811  -0.210  1.00  0.00     0.099 A 
HETATM    4  C   UNL     1       2.148   1.097  -0.211  1.00  0.00     0.050 A 
HETATM    5  C   UNL     1       1.244   0.087   0.076  1.00  0.00    -0.033 A 
HETATM    6  C   UNL     1       1.667  -1.200   0.364  1.00  0.00     0.014 A 
HETATM    7  C   UNL     1       3.033  -1.486   0.365  1.00  0.00     0.040 A 
HETATM    8  C   UNL     1       3.955  -0.480   0.078  1.00  0.00     0.098 A 
BRANCH   5   9
HETATM    9  C   UNL     1      -0.199   0.388   0.074  1.00  0.00     0.012 C 
HETATM   10  C   UNL     1      -1.187  -0.530  -0.048  1.00  0.00     0.012 C 
BRANCH  10  11
HETATM   11  C   UNL     1      -2.612  -0.235  -0.030  1.00  0.00    -0.036 A 
HETATM   12  C   UNL     1      -3.070   0.960   0.522  1.00  0.00     0.011 A 
HETATM   13  C   UNL     1      -4.436   1.243   0.539  1.00  0.00     0.001 A 
HETATM   14  C   UNL     1      -5.343   0.329   0.003  1.00  0.00     0.000 A 
HETATM   15  C   UNL     1      -4.885  -0.867  -0.550  1.00  0.00     0.001 A 
HETATM   16  C   UNL     1      -3.519  -1.149  -0.567  1.00  0.00     0.011 A 
ENDBRANCH  10  11
ENDBRANCH   5   9
BRANCH   8  17
HETATM   17  O   UNL     1       5.286  -0.771   0.084  1.00  0.00    -0.358 OA
HETATM   18  H   UNL     1       5.913  -0.101  -0.108  1.00  0.00     0.217 HD
ENDBRANCH   8  17
ENDBRANCH   1   3
TORSDOF 4
