REMARK  4 active torsions:
REMARK  status: ('A' for Active; 'I' for Inactive)
REMARK    1  A    between atoms: O_1  and  C_11 
REMARK    2  A    between atoms: C_4  and  C_5 
REMARK    3  A    between atoms: C_4  and  C_6 
REMARK    4  A    between atoms: C_6  and  C_12 
ROOT
ATOM      1  O   UNL A   1       4.413   0.007   0.473  1.00  0.00    -0.361 OA
ATOM      2  H   UNL A   1       4.874   0.820   0.541  1.00  0.00     0.217 HD
ENDROOT
BRANCH   1   3
ATOM      3  C   UNL A   1       3.083   0.002   0.185  1.00  0.00     0.065 A 
ATOM      4  C   UNL A   1       2.406   1.206  -0.007  1.00  0.00     0.037 A 
ATOM      5  C   UNL A   1       1.043   1.202  -0.301  1.00  0.00     0.010 A 
ATOM      6  C   UNL A   1       0.355  -0.008  -0.403  1.00  0.00    -0.058 A 
ATOM      7  C   UNL A   1       1.032  -1.212  -0.211  1.00  0.00     0.010 A 
ATOM      8  C   UNL A   1       2.395  -1.208   0.083  1.00  0.00     0.037 A 
BRANCH   6   9
ATOM      9  C   UNL A   1      -1.102  -0.013  -0.718  1.00  0.00     0.049 C 
BRANCH   9  10
ATOM     10  C   UNL A   1      -2.002   0.037   0.522  1.00  0.00     0.117 C 
BRANCH  10  11
ATOM     11  C   UNL A   1      -3.465  -0.007   0.151  1.00  0.00     0.172 C 
ATOM     12  O   UNL A   1      -4.285   0.079   1.228  1.00  0.00    -0.648 OA
ATOM     13  O   UNL A   1      -3.874  -0.085  -1.000  1.00  0.00    -0.648 OA
ENDBRANCH  10  11
ENDBRANCH   9  10
ENDBRANCH   6   9
ENDBRANCH   1   3
TORSDOF 4
