REMARK  2 active torsions:
REMARK  status: ('A' for Active; 'I' for Inactive)
REMARK    1  A    between atoms: C_3  and  C_4 
REMARK    2  A    between atoms: C_4  and  C_6 
ROOT
ATOM      1  O   UNL A   1       1.931   0.516   0.578  1.00  0.00    -0.648 OA
ATOM      2  O   UNL A   1       0.842  -1.258  -0.363  1.00  0.00    -0.648 OA
ATOM      3  C   UNL A   1       0.985  -0.042  -0.044  1.00  0.00     0.172 C 
ENDROOT
BRANCH   3   4
ATOM      4  C   UNL A   1      -0.178   0.861  -0.468  1.00  0.00     0.113 C 
BRANCH   4   5
ATOM      5  C   UNL A   1      -1.556   0.212  -0.530  1.00  0.00     0.006 C 
ATOM      6  C   UNL A   1      -2.025  -0.290   0.828  1.00  0.00     0.005 C 
ENDBRANCH   4   5
ENDBRANCH   3   4
TORSDOF 2
