REMARK  3 active torsions:
REMARK  status: ('A' for Active; 'I' for Inactive)
REMARK    1  A    between atoms: C_3  and  C_4 
REMARK    2  A    between atoms: C_3  and  C_5 
REMARK    3  A    between atoms: C_5  and  C_10 
ROOT
HETATM    1  O   UNL     1       3.923   0.076  -1.142  1.00  0.00    -0.648 OA
HETATM    2  O   UNL     1       3.439  -0.085   1.072  1.00  0.00    -0.648 OA
HETATM    3  C   UNL     1       3.068  -0.008  -0.093  1.00  0.00     0.172 C 
ENDROOT
BRANCH   3   4
HETATM    4  C   UNL     1       1.618   0.036  -0.511  1.00  0.00     0.117 C 
BRANCH   4   5
HETATM    5  C   UNL     1       0.678  -0.012   0.699  1.00  0.00     0.049 C 
BRANCH   5   6
HETATM    6  C   UNL     1      -0.768  -0.007   0.336  1.00  0.00    -0.058 A 
HETATM    7  C   UNL     1      -1.451   1.203   0.209  1.00  0.00     0.007 A 
HETATM    8  C   UNL     1      -2.804   1.209  -0.131  1.00  0.00     0.001 A 
HETATM    9  C   UNL     1      -3.474   0.004  -0.344  1.00  0.00     0.000 A 
HETATM   10  C   UNL     1      -2.792  -1.206  -0.217  1.00  0.00     0.001 A 
HETATM   11  C   UNL     1      -1.439  -1.211   0.122  1.00  0.00     0.007 A 
ENDBRANCH   5   6
ENDBRANCH   4   5
ENDBRANCH   3   4
TORSDOF 3
