REMARK  5 active torsions:
REMARK  status: ('A' for Active; 'I' for Inactive)
REMARK    1  A    between atoms: O_1  and  C_10 
REMARK    2  A    between atoms: O_2  and  C_12 
REMARK    3  A    between atoms: C_5  and  C_6 
REMARK    4  A    between atoms: C_5  and  C_7 
REMARK    5  A    between atoms: C_7  and  C_13 
ROOT
HETATM    1  O   UNL     1      -2.966   2.008   0.067  1.00  0.00    -0.358 OA
HETATM    2  H   UNL     1      -2.557   2.840  -0.066  1.00  0.00     0.217 HD
ENDROOT
BRANCH   1   3
HETATM    3  C   UNL     1      -2.230   0.865  -0.023  1.00  0.00     0.099 A 
HETATM    4  C   UNL     1      -0.869   0.947  -0.314  1.00  0.00     0.046 A 
HETATM    5  C   UNL     1      -0.105  -0.216  -0.410  1.00  0.00    -0.055 A 
HETATM    6  C   UNL     1      -0.703  -1.461  -0.214  1.00  0.00     0.010 A 
HETATM    7  C   UNL     1      -2.064  -1.543   0.077  1.00  0.00     0.040 A 
HETATM    8  C   UNL     1      -2.828  -0.380   0.173  1.00  0.00     0.098 A 
BRANCH   5   9
HETATM    9  C   UNL     1       1.351  -0.128  -0.721  1.00  0.00     0.049 C 
BRANCH   9  10
HETATM   10  C   UNL     1       2.242  -0.016   0.522  1.00  0.00     0.117 C 
BRANCH  10  11
HETATM   11  C   UNL     1       3.701   0.106   0.153  1.00  0.00     0.172 C 
HETATM   12  O   UNL     1       4.515   0.165   1.235  1.00  0.00    -0.648 OA
HETATM   13  O   UNL     1       4.112   0.124  -1.000  1.00  0.00    -0.648 OA
ENDBRANCH  10  11
ENDBRANCH   9  10
ENDBRANCH   5   9
BRANCH   8  14
HETATM   14  O   UNL     1      -4.157  -0.472   0.456  1.00  0.00    -0.358 OA
HETATM   15  H   UNL     1      -4.677   0.305   0.522  1.00  0.00     0.217 HD
ENDBRANCH   8  14
ENDBRANCH   1   3
TORSDOF 5
