REMARK  6 active torsions:
REMARK  status: ('A' for Active; 'I' for Inactive)
REMARK    1  A    between atoms: O_1  and  C_8 
REMARK    2  A    between atoms: O_2  and  C_11 
REMARK    3  A    between atoms: O_3  and  C_13 
REMARK    4  A    between atoms: C_6  and  C_7 
REMARK    5  A    between atoms: C_6  and  C_8 
REMARK    6  A    between atoms: C_8  and  C_14 
ROOT
HETATM    1  O   UNL     1       1.990   1.568   0.695  1.00  0.00    -0.385 OA
HETATM    2  H   UNL     1       1.066   1.794   0.884  1.00  0.00     0.210 HD
ENDROOT
BRANCH   1   3
HETATM    3  C   UNL     1       2.088   0.179   0.404  1.00  0.00     0.223 C 
BRANCH   3   4
HETATM    4  C   UNL     1       1.200  -0.129  -0.813  1.00  0.00     0.081 C 
BRANCH   4   5
HETATM    5  C   UNL     1      -0.243  -0.241  -0.458  1.00  0.00    -0.052 A 
HETATM    6  C   UNL     1      -1.059   0.890  -0.488  1.00  0.00     0.046 A 
HETATM    7  C   UNL     1      -2.410   0.785  -0.155  1.00  0.00     0.099 A 
HETATM    8  C   UNL     1      -2.944  -0.451   0.208  1.00  0.00     0.098 A 
HETATM    9  C   UNL     1      -2.128  -1.582   0.239  1.00  0.00     0.040 A 
HETATM   10  C   UNL     1      -0.778  -1.477  -0.094  1.00  0.00     0.010 A 
BRANCH   7  11
HETATM   11  O   UNL     1      -3.196   1.896  -0.189  1.00  0.00    -0.358 OA
HETATM   12  H   UNL     1      -2.829   2.722  -0.434  1.00  0.00     0.217 HD
ENDBRANCH   7  11
BRANCH   8  13
HETATM   13  O   UNL     1      -4.262  -0.566   0.534  1.00  0.00    -0.358 OA
HETATM   14  H   UNL     1      -4.817   0.189   0.516  1.00  0.00     0.217 HD
ENDBRANCH   8  13
ENDBRANCH   4   5
ENDBRANCH   3   4
BRANCH   3  15
HETATM   15  C   UNL     1       3.544  -0.126   0.117  1.00  0.00     0.203 C 
HETATM   16  O   UNL     1       3.759  -1.451  -0.087  1.00  0.00    -0.646 OA
HETATM   17  O   UNL     1       4.440   0.707   0.086  1.00  0.00    -0.646 OA
ENDBRANCH   3  15
ENDBRANCH   1   3
TORSDOF 6
