REMARK  6 active torsions:
REMARK  status: ('A' for Active; 'I' for Inactive)
REMARK    1  A    between atoms: N_3  and  CA_7 
REMARK    2  A    between atoms: N_4  and  C_8 
REMARK    3  A    between atoms: C_5  and  C_6 
REMARK    4  A    between atoms: C_5  and  CA_7 
REMARK    5  A    between atoms: C_6  and  C_8 
REMARK    6  A    between atoms: CA_7  and  C_9 
ROOT
HETATM    1  O   UNL     1       1.688  -1.562   0.783  1.00  0.00    -0.646 OA
HETATM    2  OXT UNL     1       2.148  -0.617  -1.226  1.00  0.00    -0.646 OA
HETATM    3  C   UNL     1       1.706  -0.518  -0.089  1.00  0.00     0.204 C 
ENDROOT
BRANCH   3   4
HETATM    4  CA  UNL     1       1.122   0.743   0.523  1.00  0.00     0.283 C 
BRANCH   4   5
HETATM    5  N   UNL     1       1.296   1.835  -0.435  1.00  0.00    -0.065 N 
HETATM    6  H   UNL     1       0.910   2.695  -0.044  1.00  0.00     0.275 HD
HETATM    7  H   UNL     1       0.810   1.607  -1.302  1.00  0.00     0.275 HD
HETATM    8  H   UNL     1       2.290   1.964  -0.626  1.00  0.00     0.275 HD
ENDBRANCH   4   5
BRANCH   4   9
HETATM    9  C   UNL     1      -0.342   0.560   0.952  1.00  0.00     0.045 C 
BRANCH   9  10
HETATM   10  C   UNL     1      -1.298   0.132  -0.170  1.00  0.00     0.030 C 
BRANCH  10  11
HETATM   11  C   UNL     1      -2.713  -0.080   0.369  1.00  0.00     0.230 C 
BRANCH  11  12
HETATM   12  N   UNL     1      -3.608  -0.493  -0.706  1.00  0.00    -0.079 N 
HETATM   13  H   UNL     1      -4.547  -0.631  -0.333  1.00  0.00     0.274 HD
HETATM   14  H   UNL     1      -3.272  -1.367  -1.111  1.00  0.00     0.274 HD
HETATM   15  H   UNL     1      -3.631   0.229  -1.426  1.00  0.00     0.274 HD
ENDBRANCH  11  12
ENDBRANCH  10  11
ENDBRANCH   9  10
ENDBRANCH   4   9
ENDBRANCH   3   4
TORSDOF 6
