REMARK  8 active torsions:
REMARK  status: ('A' for Active; 'I' for Inactive)
REMARK    1  A    between atoms: O_1  and  C_2 
REMARK    2  A    between atoms: C_2  and  C_3 
REMARK    3  A    between atoms: C_2  and  C_8 
REMARK    4  A    between atoms: C_3  and  C_4 
REMARK    5  A    between atoms: C_4  and  C_5 
REMARK    6  A    between atoms: C_8  and  C_9 
REMARK    7  A    between atoms: C_11  and  O_16 
REMARK    8  A    between atoms: C_12  and  O_15 
ROOT
HETATM    1  O   UNL     1       1.226  -1.016   0.573  1.00  0.00    -0.395 OA
HETATM    2  H   UNL     1       1.835  -1.662   0.182  1.00  0.00     0.210 HD
ENDROOT
BRANCH   1   3
HETATM    3  C   UNL     1       1.130   0.124  -0.280  1.00  0.00     0.122 C 
BRANCH   3   4
HETATM    4  C   UNL     1       2.524   0.739  -0.484  1.00  0.00     0.042 C 
BRANCH   4   5
HETATM    5  C   UNL     1       3.536  -0.238  -1.087  1.00  0.00     0.116 C 
BRANCH   5   6
HETATM    6  C   UNL     1       4.035  -1.320  -0.164  1.00  0.00     0.172 C 
HETATM    7  O   UNL     1       4.530  -2.377  -0.520  1.00  0.00    -0.648 OA
HETATM    8  O   UNL     1       3.991  -1.006   1.145  1.00  0.00    -0.648 OA
ENDBRANCH   5   6
ENDBRANCH   4   5
ENDBRANCH   3   4
BRANCH   3   9
HETATM    9  C   UNL     1       0.166   1.155   0.333  1.00  0.00     0.070 C 
BRANCH   9  10
HETATM   10  C   UNL     1      -1.287   0.767   0.170  1.00  0.00    -0.053 A 
HETATM   11  C   UNL     1      -1.878  -0.159   1.043  1.00  0.00     0.046 A 
HETATM   12  C   UNL     1      -3.207  -0.517   0.868  1.00  0.00     0.099 A 
HETATM   13  C   UNL     1      -3.969   0.054  -0.146  1.00  0.00     0.098 A 
HETATM   14  C   UNL     1      -3.398   0.956  -1.031  1.00  0.00     0.040 A 
HETATM   15  C   UNL     1      -2.055   1.311  -0.875  1.00  0.00     0.010 A 
BRANCH  12  16
HETATM   16  O   UNL     1      -3.752  -1.466   1.685  1.00  0.00    -0.358 OA
HETATM   17  H   UNL     1      -3.236  -1.849   2.367  1.00  0.00     0.217 HD
ENDBRANCH  12  16
BRANCH  13  18
HETATM   18  O   UNL     1      -5.296  -0.242  -0.267  1.00  0.00    -0.358 OA
HETATM   19  H   UNL     1      -5.696  -0.850   0.323  1.00  0.00     0.217 HD
ENDBRANCH  13  18
ENDBRANCH   9  10
ENDBRANCH   3   9
ENDBRANCH   1   3
TORSDOF 8
