REMARK  7 active torsions:
REMARK  status: ('A' for Active; 'I' for Inactive)
REMARK    1  A    between atoms: O_1  and  C_2 
REMARK    2  A    between atoms: C_2  and  C_3 
REMARK    3  A    between atoms: C_2  and  C_8 
REMARK    4  A    between atoms: C_3  and  C_4 
REMARK    5  A    between atoms: C_4  and  C_5 
REMARK    6  A    between atoms: C_8  and  C_9 
REMARK    7  A    between atoms: C_11  and  O_15 
ROOT
HETATM    1  O   UNL     1       0.383  -0.089   1.772  1.00  0.00    -0.395 OA
HETATM    2  H   UNL     1       0.959  -0.668   2.295  1.00  0.00     0.210 HD
ENDROOT
BRANCH   1   3
HETATM    3  C   UNL     1       0.785  -0.130   0.401  1.00  0.00     0.122 C 
BRANCH   3   4
HETATM    4  C   UNL     1       2.251   0.308   0.314  1.00  0.00     0.042 C 
BRANCH   4   5
HETATM    5  C   UNL     1       3.168  -0.601   1.127  1.00  0.00     0.116 C 
BRANCH   5   6
HETATM    6  C   UNL     1       4.601  -0.211   0.925  1.00  0.00     0.172 C 
HETATM    7  O   UNL     1       5.386  -0.725   0.147  1.00  0.00    -0.648 OA
HETATM    8  O   UNL     1       4.972   0.834   1.689  1.00  0.00    -0.648 OA
ENDBRANCH   5   6
ENDBRANCH   4   5
ENDBRANCH   3   4
BRANCH   3   9
HETATM    9  C   UNL     1      -0.108   0.778  -0.463  1.00  0.00     0.070 C 
BRANCH   9  10
HETATM   10  C   UNL     1      -1.521   0.260  -0.597  1.00  0.00    -0.053 A 
HETATM   11  C   UNL     1      -2.552   0.787   0.192  1.00  0.00     0.043 A 
HETATM   12  C   UNL     1      -3.848   0.298   0.065  1.00  0.00     0.066 A 
HETATM   13  C   UNL     1      -4.144  -0.717  -0.839  1.00  0.00     0.036 A 
HETATM   14  C   UNL     1      -3.124  -1.249  -1.626  1.00  0.00     0.003 A 
HETATM   15  C   UNL     1      -1.819  -0.765  -1.507  1.00  0.00     0.007 A 
BRANCH  12  16
HETATM   16  O   UNL     1      -4.813   0.849   0.856  1.00  0.00    -0.361 OA
HETATM   17  H   UNL     1      -4.592   1.532   1.458  1.00  0.00     0.217 HD
ENDBRANCH  12  16
ENDBRANCH   9  10
ENDBRANCH   3   9
ENDBRANCH   1   3
TORSDOF 7
