REMARK  11 active torsions:
REMARK  status: ('A' for Active; 'I' for Inactive)
REMARK    1  A    between atoms: C1_1  and  C2_2 
REMARK    2  A    between atoms: C1_1  and  C10_13 
REMARK    3  A    between atoms: C2_2  and  C3_3 
REMARK    4  A    between atoms: C3_3  and  C4_4 
REMARK    5  A    between atoms: C6_6  and  O1_7 
REMARK    6  A    between atoms: C7_8  and  O2_9 
REMARK    7  A    between atoms: C10_13  and  O4_14 
REMARK    8  A    between atoms: C10_13  and  C11_15 
REMARK    9  A    between atoms: C11_15  and  O5_16 
REMARK   10  A    between atoms: C11_15  and  C12_17 
REMARK   11  A    between atoms: C12_17  and  O6_18 
ROOT
HETATM    1  C1  UNL     1      -1.016  -1.083  -1.001  1.00  0.00     0.158 C 
HETATM    2  O3  UNL     1      -1.086  -2.075  -0.269  1.00  0.00    -0.295 OA
ENDROOT
BRANCH   1   3
HETATM    3  C2  UNL     1       0.023  -1.010  -2.106  1.00  0.00     0.086 C 
BRANCH   3   4
HETATM    4  C3  UNL     1       0.986   0.166  -1.964  1.00  0.00     0.046 C 
BRANCH   4   5
HETATM    5  C4  UNL     1       1.720   0.195  -0.644  1.00  0.00    -0.055 A 
HETATM    6  C5  UNL     1       2.606  -0.837  -0.293  1.00  0.00     0.046 A 
HETATM    7  C6  UNL     1       3.262  -0.793   0.933  1.00  0.00     0.099 A 
HETATM    8  C7  UNL     1       3.051   0.268   1.808  1.00  0.00     0.098 A 
HETATM    9  C8  UNL     1       2.185   1.297   1.477  1.00  0.00     0.040 A 
HETATM   10  C9  UNL     1       1.521   1.262   0.250  1.00  0.00     0.010 A 
BRANCH   7  11
HETATM   11  O1  UNL     1       4.129  -1.776   1.324  1.00  0.00    -0.358 OA
HETATM   12  H   UNL     1       4.295  -2.506   0.760  1.00  0.00     0.217 HD
ENDBRANCH   7  11
BRANCH   8  13
HETATM   13  O2  UNL     1       3.700   0.301   3.009  1.00  0.00    -0.358 OA
HETATM   14  H   UNL     1       4.288  -0.390   3.243  1.00  0.00     0.217 HD
ENDBRANCH   8  13
ENDBRANCH   4   5
ENDBRANCH   3   4
ENDBRANCH   1   3
BRANCH   1  15
HETATM   15  C10 UNL     1      -1.998   0.083  -0.866  1.00  0.00     0.218 C 
BRANCH  15  16
HETATM   16  O4  UNL     1      -2.804   0.122  -2.044  1.00  0.00    -0.385 OA
HETATM   17  H   UNL     1      -3.290  -0.713  -2.131  1.00  0.00     0.210 HD
ENDBRANCH  15  16
BRANCH  15  18
HETATM   18  C11 UNL     1      -2.864  -0.059   0.403  1.00  0.00     0.177 C 
BRANCH  18  19
HETATM   19  O5  UNL     1      -2.050  -0.195   1.579  1.00  0.00    -0.390 OA
HETATM   20  H   UNL     1      -1.514   0.605   1.695  1.00  0.00     0.210 HD
ENDBRANCH  18  19
BRANCH  18  21
HETATM   21  C12 UNL     1      -3.744   1.179   0.620  1.00  0.00     0.198 C 
BRANCH  21  22
HETATM   22  O6  UNL     1      -2.925   2.303   0.949  1.00  0.00    -0.398 OA
HETATM   23  H   UNL     1      -2.431   2.116   1.763  1.00  0.00     0.209 HD
ENDBRANCH  21  22
ENDBRANCH  18  21
ENDBRANCH  15  18
ENDBRANCH   1  15
TORSDOF 11
