REMARK  7 active torsions:
REMARK  status: ('A' for Active; 'I' for Inactive)
REMARK    1  A    between atoms: O_5  and  C_13 
REMARK    2  A    between atoms: O_5  and  C_14 
REMARK    3  A    between atoms: O_6  and  C_15 
REMARK    4  A    between atoms: O_6  and  C_22 
REMARK       I    between atoms: N_8  and  C_20 
REMARK    5  A    between atoms: N_8  and  C_21 
REMARK    6  A    between atoms: C_10  and  C_13 
REMARK    7  A    between atoms: C_17  and  C_20 
ROOT
ATOM      1 CL   UNL A   1       3.240   2.177   1.615  1.00  0.00    -0.080 Cl
ATOM      2 CL   UNL A   1       4.008  -1.931  -1.913  1.00  0.00    -0.080 Cl
ATOM      3  N   UNL A   1       6.466   0.610  -0.097  1.00  0.00    -0.270 NA
ATOM      4  C   UNL A   1       3.727   0.141  -0.147  1.00  0.00     0.081 A 
ATOM      5  C   UNL A   1       4.230   1.159   0.641  1.00  0.00     0.080 A 
ATOM      6  C   UNL A   1       4.568  -0.647  -0.911  1.00  0.00     0.080 A 
ATOM      7  C   UNL A   1       5.602   1.353   0.631  1.00  0.00     0.142 A 
ATOM      8  C   UNL A   1       5.925  -0.373  -0.851  1.00  0.00     0.142 A 
ENDROOT
BRANCH   4   9
ATOM      9  N   UNL A   1       2.331  -0.099  -0.172  1.00  0.00    -0.320 N 
ATOM     10  C   UNL A   1       1.576  -0.947   0.650  1.00  0.00     0.256 C 
ATOM     11  O   UNL A   1       2.037  -1.648   1.566  1.00  0.00    -0.267 OA
ATOM     12  H   UNL A   1       1.825   0.395  -0.857  1.00  0.00     0.169 HD
BRANCH  10  13
ATOM     13  C   UNL A   1       0.151  -1.005   0.364  1.00  0.00     0.035 A 
ATOM     14  C   UNL A   1      -0.486   0.085  -0.229  1.00  0.00     0.056 A 
ATOM     15  C   UNL A   1      -1.853   0.029  -0.502  1.00  0.00     0.103 A 
ATOM     16  C   UNL A   1      -2.582  -1.116  -0.182  1.00  0.00     0.108 A 
ATOM     17  C   UNL A   1      -1.945  -2.206   0.411  1.00  0.00     0.041 A 
ATOM     18  C   UNL A   1      -0.578  -2.150   0.684  1.00  0.00     0.020 A 
BRANCH  15  19
ATOM     19  O   UNL A   1      -2.465   1.099  -1.081  1.00  0.00    -0.348 OA
BRANCH  19  20
ATOM     20  C   UNL A   1      -2.418   2.335  -0.371  1.00  0.00     0.180 C 
BRANCH  20  21
ATOM     21  C   UNL A   1      -3.626   3.144  -0.698  1.00  0.00     0.010 A 
ATOM     22  C   UNL A   1      -4.675   3.341   0.352  1.00  0.00     0.007 A 
ATOM     23  C   UNL A   1      -3.797   4.486  -0.058  1.00  0.00     0.007 A 
ENDBRANCH  20  21
ENDBRANCH  19  20
ENDBRANCH  15  19
BRANCH  16  24
ATOM     24  O   UNL A   1      -3.917  -1.183  -0.445  1.00  0.00    -0.287 OA
BRANCH  24  25
ATOM     25  C   UNL A   1      -4.713  -1.988   0.416  1.00  0.00     0.505 C 
ATOM     26  F   UNL A   1      -5.957  -1.443   0.452  1.00  0.00    -0.184 F 
ATOM     27  F   UNL A   1      -4.848  -3.222  -0.128  1.00  0.00    -0.184 F 
ENDBRANCH  24  25
ENDBRANCH  16  24
ENDBRANCH  10  13
ENDBRANCH   4   9
TORSDOF 7
