REMARK  4 active torsions:
REMARK  status: ('A' for Active; 'I' for Inactive)
REMARK    1  A    between atoms: O_1  and  C_5 
REMARK    2  A    between atoms: O_1  and  C_14 
REMARK    3  A    between atoms: O_2  and  C_18 
REMARK    4  A    between atoms: C_10  and  C_13 
ROOT
HETATM    1  O   UNL     1      -2.227   0.136  -0.339  1.00  0.00    -0.343 OA
ENDROOT
BRANCH   1   2
HETATM    2  C   UNL     1      -2.389   1.276   0.495  1.00  0.00     0.129 C 
HETATM    3  C   UNL     1      -3.664   1.127   1.312  1.00  0.00     0.032 C 
HETATM    4  C   UNL     1      -4.784   1.521   0.350  1.00  0.00     0.002 C 
HETATM    5  C   UNL     1      -4.135   2.385  -0.731  1.00  0.00     0.002 C 
HETATM    6  C   UNL     1      -2.663   2.513  -0.346  1.00  0.00     0.032 C 
ENDBRANCH   1   2
BRANCH   1   7
HETATM    7  C   UNL     1      -1.058  -0.566  -0.204  1.00  0.00     0.103 A 
HETATM    8  C   UNL     1       0.151   0.079  -0.447  1.00  0.00     0.047 A 
HETATM    9  C   UNL     1       1.348  -0.625  -0.314  1.00  0.00    -0.049 A 
HETATM   10  C   UNL     1       1.330  -1.969   0.059  1.00  0.00     0.010 A 
HETATM   11  C   UNL     1       0.115  -2.609   0.300  1.00  0.00     0.040 A 
HETATM   12  C   UNL     1      -1.083  -1.906   0.168  1.00  0.00     0.101 A 
BRANCH   9  13
HETATM   13  C   UNL     1       2.667   0.070  -0.575  1.00  0.00     0.045 C 
HETATM   14  C   UNL     1       2.705   1.567  -0.264  1.00  0.00     0.132 C 
HETATM   15  N   UNL     1       4.102   1.843  -0.081  1.00  0.00    -0.360 N 
HETATM   16  C   UNL     1       4.837   0.704   0.217  1.00  0.00     0.218 C 
HETATM   17  H   UNL     1       4.496   2.742  -0.158  1.00  0.00     0.162 HD
HETATM   18  O   UNL     1       6.029   0.635   0.469  1.00  0.00    -0.274 OA
HETATM   19  C   UNL     1       3.871  -0.456   0.230  1.00  0.00     0.113 C 
ENDBRANCH   9  13
BRANCH  12  20
HETATM   20  O   UNL     1      -2.264  -2.542   0.405  1.00  0.00    -0.353 OA
HETATM   21  C   UNL     1      -2.888  -3.183  -0.705  1.00  0.00     0.210 C 
ENDBRANCH  12  20
ENDBRANCH   1   7
TORSDOF 4
