MODEL 1
REMARK VINA RESULT:      -6.3      0.000      0.000
REMARK  3 active torsions:
REMARK  status: ('A' for Active; 'I' for Inactive)
REMARK    1  A    between atoms: C_3  and  C_4 
REMARK    2  A    between atoms: C_3  and  C_5 
REMARK    3  A    between atoms: C_5  and  C_10 
ROOT
HETATM    1  O   UNL     1      32.960  79.368  23.098  1.00  0.00    -0.648 OA
HETATM    2  O   UNL     1      31.925  81.288  22.462  1.00  0.00    -0.648 OA
HETATM    3  C   UNL     1      31.930  80.066  22.560  1.00  0.00     0.172 C 
ENDROOT
BRANCH   3   4
HETATM    4  C   UNL     1      30.812  79.180  22.067  1.00  0.00     0.117 C 
BRANCH   4   5
HETATM    5  C   UNL     1      31.236  77.707  22.020  1.00  0.00     0.049 C 
BRANCH   5   6
HETATM    6  C   UNL     1      31.281  77.139  20.643  1.00  0.00    -0.058 A 
HETATM    7  C   UNL     1      31.770  75.849  20.436  1.00  0.00     0.007 A 
HETATM    8  C   UNL     1      31.812  75.317  19.147  1.00  0.00     0.001 A 
HETATM    9  C   UNL     1      31.365  76.075  18.065  1.00  0.00     0.000 A 
HETATM   10  C   UNL     1      30.876  77.365  18.271  1.00  0.00     0.001 A 
HETATM   11  C   UNL     1      30.833  77.896  19.560  1.00  0.00     0.007 A 
ENDBRANCH   5   6
ENDBRANCH   4   5
ENDBRANCH   3   4
TORSDOF 3
ENDMDL
MODEL 2
REMARK VINA RESULT:      -6.3      0.190      1.467
REMARK  3 active torsions:
REMARK  status: ('A' for Active; 'I' for Inactive)
REMARK    1  A    between atoms: C_3  and  C_4 
REMARK    2  A    between atoms: C_3  and  C_5 
REMARK    3  A    between atoms: C_5  and  C_10 
ROOT
HETATM    1  O   UNL     1      32.975  79.548  23.315  1.00  0.00    -0.648 OA
HETATM    2  O   UNL     1      31.972  81.279  22.239  1.00  0.00    -0.648 OA
HETATM    3  C   UNL     1      31.991  80.098  22.561  1.00  0.00     0.172 C 
ENDROOT
BRANCH   3   4
HETATM    4  C   UNL     1      30.944  79.095  22.138  1.00  0.00     0.117 C 
BRANCH   4   5
HETATM    5  C   UNL     1      31.537  77.691  21.977  1.00  0.00     0.049 C 
BRANCH   5   6
HETATM    6  C   UNL     1      31.409  77.140  20.598  1.00  0.00    -0.058 A 
HETATM    7  C   UNL     1      30.950  77.953  19.562  1.00  0.00     0.007 A 
HETATM    8  C   UNL     1      30.830  77.439  18.270  1.00  0.00     0.001 A 
HETATM    9  C   UNL     1      31.171  76.110  18.016  1.00  0.00     0.000 A 
HETATM   10  C   UNL     1      31.630  75.296  19.051  1.00  0.00     0.001 A 
HETATM   11  C   UNL     1      31.750  75.812  20.342  1.00  0.00     0.007 A 
ENDBRANCH   5   6
ENDBRANCH   4   5
ENDBRANCH   3   4
TORSDOF 3
ENDMDL
MODEL 3
REMARK VINA RESULT:      -6.0      0.983      1.854
REMARK  3 active torsions:
REMARK  status: ('A' for Active; 'I' for Inactive)
REMARK    1  A    between atoms: C_3  and  C_4 
REMARK    2  A    between atoms: C_3  and  C_5 
REMARK    3  A    between atoms: C_5  and  C_10 
ROOT
HETATM    1  O   UNL     1      32.986  79.490  23.217  1.00  0.00    -0.648 OA
HETATM    2  O   UNL     1      31.919  81.252  22.260  1.00  0.00    -0.648 OA
HETATM    3  C   UNL     1      31.932  80.075  22.597  1.00  0.00     0.172 C 
ENDROOT
BRANCH   3   4
HETATM    4  C   UNL     1      30.795  79.116  22.340  1.00  0.00     0.117 C 
BRANCH   4   5
HETATM    5  C   UNL     1      30.760  78.658  20.877  1.00  0.00     0.049 C 
BRANCH   5   6
HETATM    6  C   UNL     1      31.456  77.361  20.637  1.00  0.00    -0.058 A 
HETATM    7  C   UNL     1      31.776  76.972  19.336  1.00  0.00     0.007 A 
HETATM    8  C   UNL     1      32.428  75.759  19.111  1.00  0.00     0.001 A 
HETATM    9  C   UNL     1      32.760  74.936  20.187  1.00  0.00     0.000 A 
HETATM   10  C   UNL     1      32.440  75.325  21.488  1.00  0.00     0.001 A 
HETATM   11  C   UNL     1      31.789  76.538  21.713  1.00  0.00     0.007 A 
ENDBRANCH   5   6
ENDBRANCH   4   5
ENDBRANCH   3   4
TORSDOF 3
ENDMDL
MODEL 4
REMARK VINA RESULT:      -5.7      1.148      2.113
REMARK  3 active torsions:
REMARK  status: ('A' for Active; 'I' for Inactive)
REMARK    1  A    between atoms: C_3  and  C_4 
REMARK    2  A    between atoms: C_3  and  C_5 
REMARK    3  A    between atoms: C_5  and  C_10 
ROOT
HETATM    1  O   UNL     1      32.836  77.434  22.928  1.00  0.00    -0.648 OA
HETATM    2  O   UNL     1      32.517  79.682  22.833  1.00  0.00    -0.648 OA
HETATM    3  C   UNL     1      32.264  78.555  22.423  1.00  0.00     0.172 C 
ENDROOT
BRANCH   3   4
HETATM    4  C   UNL     1      31.313  78.269  21.287  1.00  0.00     0.117 C 
BRANCH   4   5
HETATM    5  C   UNL     1      31.444  76.826  20.787  1.00  0.00     0.049 C 
BRANCH   5   6
HETATM    6  C   UNL     1      31.213  76.675  19.322  1.00  0.00    -0.058 A 
HETATM    7  C   UNL     1      30.732  77.752  18.577  1.00  0.00     0.007 A 
HETATM    8  C   UNL     1      30.516  77.611  17.206  1.00  0.00     0.001 A 
HETATM    9  C   UNL     1      30.781  76.393  16.580  1.00  0.00     0.000 A 
HETATM   10  C   UNL     1      31.262  75.316  17.324  1.00  0.00     0.001 A 
HETATM   11  C   UNL     1      31.479  75.457  18.695  1.00  0.00     0.007 A 
ENDBRANCH   5   6
ENDBRANCH   4   5
ENDBRANCH   3   4
TORSDOF 3
ENDMDL
MODEL 5
REMARK VINA RESULT:      -5.7      1.605      1.721
REMARK  3 active torsions:
REMARK  status: ('A' for Active; 'I' for Inactive)
REMARK    1  A    between atoms: C_3  and  C_4 
REMARK    2  A    between atoms: C_3  and  C_5 
REMARK    3  A    between atoms: C_5  and  C_10 
ROOT
HETATM    1  O   UNL     1      29.648  77.987  23.288  1.00  0.00    -0.648 OA
HETATM    2  O   UNL     1      28.709  79.849  22.386  1.00  0.00    -0.648 OA
HETATM    3  C   UNL     1      29.674  79.108  22.525  1.00  0.00     0.172 C 
ENDROOT
BRANCH   3   4
HETATM    4  C   UNL     1      31.022  79.358  21.894  1.00  0.00     0.117 C 
BRANCH   4   5
HETATM    5  C   UNL     1      31.856  78.075  21.810  1.00  0.00     0.049 C 
BRANCH   5   6
HETATM    6  C   UNL     1      31.627  77.290  20.564  1.00  0.00    -0.058 A 
HETATM    7  C   UNL     1      31.870  75.916  20.550  1.00  0.00     0.007 A 
HETATM    8  C   UNL     1      31.655  75.181  19.384  1.00  0.00     0.001 A 
HETATM    9  C   UNL     1      31.196  75.820  18.232  1.00  0.00     0.000 A 
HETATM   10  C   UNL     1      30.953  77.193  18.245  1.00  0.00     0.001 A 
HETATM   11  C   UNL     1      31.167  77.928  19.411  1.00  0.00     0.007 A 
ENDBRANCH   5   6
ENDBRANCH   4   5
ENDBRANCH   3   4
TORSDOF 3
ENDMDL
MODEL 6
REMARK VINA RESULT:      -5.7      3.219      4.791
REMARK  3 active torsions:
REMARK  status: ('A' for Active; 'I' for Inactive)
REMARK    1  A    between atoms: C_3  and  C_4 
REMARK    2  A    between atoms: C_3  and  C_5 
REMARK    3  A    between atoms: C_5  and  C_10 
ROOT
HETATM    1  O   UNL     1      30.500  79.237  16.369  1.00  0.00    -0.648 OA
HETATM    2  O   UNL     1      32.506  78.843  15.379  1.00  0.00    -0.648 OA
HETATM    3  C   UNL     1      31.664  78.558  16.222  1.00  0.00     0.172 C 
ENDROOT
BRANCH   3   4
HETATM    4  C   UNL     1      31.824  77.441  17.225  1.00  0.00     0.117 C 
BRANCH   4   5
HETATM    5  C   UNL     1      30.771  77.522  18.336  1.00  0.00     0.049 C 
BRANCH   5   6
HETATM    6  C   UNL     1      31.323  77.306  19.704  1.00  0.00    -0.058 A 
HETATM    7  C   UNL     1      31.244  78.322  20.657  1.00  0.00     0.007 A 
HETATM    8  C   UNL     1      31.760  78.121  21.937  1.00  0.00     0.001 A 
HETATM    9  C   UNL     1      32.356  76.903  22.264  1.00  0.00     0.000 A 
HETATM   10  C   UNL     1      32.437  75.887  21.312  1.00  0.00     0.001 A 
HETATM   11  C   UNL     1      31.919  76.089  20.033  1.00  0.00     0.007 A 
ENDBRANCH   5   6
ENDBRANCH   4   5
ENDBRANCH   3   4
TORSDOF 3
ENDMDL
MODEL 7
REMARK VINA RESULT:      -5.7      2.052      2.895
REMARK  3 active torsions:
REMARK  status: ('A' for Active; 'I' for Inactive)
REMARK    1  A    between atoms: C_3  and  C_4 
REMARK    2  A    between atoms: C_3  and  C_5 
REMARK    3  A    between atoms: C_5  and  C_10 
ROOT
HETATM    1  O   UNL     1      29.280  78.086  23.446  1.00  0.00    -0.648 OA
HETATM    2  O   UNL     1      28.512  79.894  22.304  1.00  0.00    -0.648 OA
HETATM    3  C   UNL     1      29.432  79.149  22.618  1.00  0.00     0.172 C 
ENDROOT
BRANCH   3   4
HETATM    4  C   UNL     1      30.857  79.332  22.153  1.00  0.00     0.117 C 
BRANCH   4   5
HETATM    5  C   UNL     1      31.133  78.561  20.856  1.00  0.00     0.049 C 
BRANCH   5   6
HETATM    6  C   UNL     1      31.765  77.229  21.074  1.00  0.00    -0.058 A 
HETATM    7  C   UNL     1      31.711  76.259  20.072  1.00  0.00     0.007 A 
HETATM    8  C   UNL     1      32.302  75.012  20.274  1.00  0.00     0.001 A 
HETATM    9  C   UNL     1      32.948  74.734  21.479  1.00  0.00     0.000 A 
HETATM   10  C   UNL     1      33.002  75.703  22.481  1.00  0.00     0.001 A 
HETATM   11  C   UNL     1      32.412  76.950  22.278  1.00  0.00     0.007 A 
ENDBRANCH   5   6
ENDBRANCH   4   5
ENDBRANCH   3   4
TORSDOF 3
ENDMDL
MODEL 8
REMARK VINA RESULT:      -5.6      1.419      2.071
REMARK  3 active torsions:
REMARK  status: ('A' for Active; 'I' for Inactive)
REMARK    1  A    between atoms: C_3  and  C_4 
REMARK    2  A    between atoms: C_3  and  C_5 
REMARK    3  A    between atoms: C_5  and  C_10 
ROOT
HETATM    1  O   UNL     1      32.732  78.815  22.729  1.00  0.00    -0.648 OA
HETATM    2  O   UNL     1      32.962  76.567  22.965  1.00  0.00    -0.648 OA
HETATM    3  C   UNL     1      32.342  77.531  22.533  1.00  0.00     0.172 C 
ENDROOT
BRANCH   3   4
HETATM    4  C   UNL     1      31.051  77.420  21.757  1.00  0.00     0.117 C 
BRANCH   4   5
HETATM    5  C   UNL     1      31.136  78.145  20.410  1.00  0.00     0.049 C 
BRANCH   5   6
HETATM    6  C   UNL     1      31.104  77.231  19.233  1.00  0.00    -0.058 A 
HETATM    7  C   UNL     1      31.479  75.895  19.377  1.00  0.00     0.007 A 
HETATM    8  C   UNL     1      31.449  75.038  18.276  1.00  0.00     0.001 A 
HETATM    9  C   UNL     1      31.043  75.518  17.031  1.00  0.00     0.000 A 
HETATM   10  C   UNL     1      30.667  76.854  16.886  1.00  0.00     0.001 A 
HETATM   11  C   UNL     1      30.697  77.709  17.987  1.00  0.00     0.007 A 
ENDBRANCH   5   6
ENDBRANCH   4   5
ENDBRANCH   3   4
TORSDOF 3
ENDMDL
MODEL 9
REMARK VINA RESULT:      -5.6      3.356      4.762
REMARK  3 active torsions:
REMARK  status: ('A' for Active; 'I' for Inactive)
REMARK    1  A    between atoms: C_3  and  C_4 
REMARK    2  A    between atoms: C_3  and  C_5 
REMARK    3  A    between atoms: C_5  and  C_10 
ROOT
HETATM    1  O   UNL     1      29.992  76.953  15.680  1.00  0.00    -0.648 OA
HETATM    2  O   UNL     1      30.176  78.957  16.733  1.00  0.00    -0.648 OA
HETATM    3  C   UNL     1      30.353  77.745  16.719  1.00  0.00     0.172 C 
ENDROOT
BRANCH   3   4
HETATM    4  C   UNL     1      30.964  76.973  17.863  1.00  0.00     0.117 C 
BRANCH   4   5
HETATM    5  C   UNL     1      30.798  77.710  19.197  1.00  0.00     0.049 C 
BRANCH   5   6
HETATM    6  C   UNL     1      31.525  77.071  20.331  1.00  0.00    -0.058 A 
HETATM    7  C   UNL     1      31.967  77.847  21.402  1.00  0.00     0.007 A 
HETATM    8  C   UNL     1      32.647  77.250  22.464  1.00  0.00     0.001 A 
HETATM    9  C   UNL     1      32.884  75.875  22.454  1.00  0.00     0.000 A 
HETATM   10  C   UNL     1      32.442  75.098  21.383  1.00  0.00     0.001 A 
HETATM   11  C   UNL     1      31.762  75.696  20.322  1.00  0.00     0.007 A 
ENDBRANCH   5   6
ENDBRANCH   4   5
ENDBRANCH   3   4
TORSDOF 3
ENDMDL
