MODEL 1
REMARK VINA RESULT:      -6.4      0.000      0.000
REMARK  3 active torsions:
REMARK  status: ('A' for Active; 'I' for Inactive)
REMARK    1  A    between atoms: C_3  and  C_4 
REMARK    2  A    between atoms: C_3  and  C_5 
REMARK    3  A    between atoms: C_5  and  C_10 
ROOT
HETATM    1  O   UNL     1      32.979  79.376  23.176  1.00  0.00    -0.648 OA
HETATM    2  O   UNL     1      31.906  81.274  22.536  1.00  0.00    -0.648 OA
HETATM    3  C   UNL     1      31.961  80.051  22.587  1.00  0.00     0.172 C 
ENDROOT
BRANCH   3   4
HETATM    4  C   UNL     1      30.926  79.138  21.976  1.00  0.00     0.117 C 
BRANCH   4   5
HETATM    5  C   UNL     1      31.430  77.693  21.882  1.00  0.00     0.049 C 
BRANCH   5   6
HETATM    6  C   UNL     1      31.345  77.116  20.509  1.00  0.00    -0.058 A 
HETATM    7  C   UNL     1      30.900  77.905  19.448  1.00  0.00     0.007 A 
HETATM    8  C   UNL     1      30.820  77.367  18.163  1.00  0.00     0.001 A 
HETATM    9  C   UNL     1      31.186  76.039  17.941  1.00  0.00     0.000 A 
HETATM   10  C   UNL     1      31.632  75.250  19.001  1.00  0.00     0.001 A 
HETATM   11  C   UNL     1      31.712  75.789  20.285  1.00  0.00     0.007 A 
ENDBRANCH   5   6
ENDBRANCH   4   5
ENDBRANCH   3   4
TORSDOF 3
ENDMDL
MODEL 2
REMARK VINA RESULT:      -6.3      0.213      1.471
REMARK  3 active torsions:
REMARK  status: ('A' for Active; 'I' for Inactive)
REMARK    1  A    between atoms: C_3  and  C_4 
REMARK    2  A    between atoms: C_3  and  C_5 
REMARK    3  A    between atoms: C_5  and  C_10 
ROOT
HETATM    1  O   UNL     1      32.935  79.350  23.105  1.00  0.00    -0.648 OA
HETATM    2  O   UNL     1      31.941  81.273  22.416  1.00  0.00    -0.648 OA
HETATM    3  C   UNL     1      31.921  80.055  22.544  1.00  0.00     0.172 C 
ENDROOT
BRANCH   3   4
HETATM    4  C   UNL     1      30.787  79.179  22.069  1.00  0.00     0.117 C 
BRANCH   4   5
HETATM    5  C   UNL     1      31.183  77.698  22.058  1.00  0.00     0.049 C 
BRANCH   5   6
HETATM    6  C   UNL     1      31.270  77.110  20.690  1.00  0.00    -0.058 A 
HETATM    7  C   UNL     1      31.749  75.811  20.518  1.00  0.00     0.007 A 
HETATM    8  C   UNL     1      31.830  75.261  19.239  1.00  0.00     0.001 A 
HETATM    9  C   UNL     1      31.433  76.010  18.132  1.00  0.00     0.000 A 
HETATM   10  C   UNL     1      30.954  77.309  18.303  1.00  0.00     0.001 A 
HETATM   11  C   UNL     1      30.872  77.858  19.582  1.00  0.00     0.007 A 
ENDBRANCH   5   6
ENDBRANCH   4   5
ENDBRANCH   3   4
TORSDOF 3
ENDMDL
MODEL 3
REMARK VINA RESULT:      -6.0      0.897      1.494
REMARK  3 active torsions:
REMARK  status: ('A' for Active; 'I' for Inactive)
REMARK    1  A    between atoms: C_3  and  C_4 
REMARK    2  A    between atoms: C_3  and  C_5 
REMARK    3  A    between atoms: C_5  and  C_10 
ROOT
HETATM    1  O   UNL     1      32.982  79.266  23.066  1.00  0.00    -0.648 OA
HETATM    2  O   UNL     1      31.891  81.169  22.476  1.00  0.00    -0.648 OA
HETATM    3  C   UNL     1      31.918  79.949  22.575  1.00  0.00     0.172 C 
ENDROOT
BRANCH   3   4
HETATM    4  C   UNL     1      30.791  79.045  22.136  1.00  0.00     0.117 C 
BRANCH   4   5
HETATM    5  C   UNL     1      30.923  78.652  20.660  1.00  0.00     0.049 C 
BRANCH   5   6
HETATM    6  C   UNL     1      31.220  77.207  20.448  1.00  0.00    -0.058 A 
HETATM    7  C   UNL     1      31.316  76.697  19.153  1.00  0.00     0.007 A 
HETATM    8  C   UNL     1      31.595  75.344  18.954  1.00  0.00     0.001 A 
HETATM    9  C   UNL     1      31.778  74.502  20.051  1.00  0.00     0.000 A 
HETATM   10  C   UNL     1      31.683  75.011  21.346  1.00  0.00     0.001 A 
HETATM   11  C   UNL     1      31.405  76.363  21.544  1.00  0.00     0.007 A 
ENDBRANCH   5   6
ENDBRANCH   4   5
ENDBRANCH   3   4
TORSDOF 3
ENDMDL
MODEL 4
REMARK VINA RESULT:      -6.0      1.117      2.166
REMARK  3 active torsions:
REMARK  status: ('A' for Active; 'I' for Inactive)
REMARK    1  A    between atoms: C_3  and  C_4 
REMARK    2  A    between atoms: C_3  and  C_5 
REMARK    3  A    between atoms: C_5  and  C_10 
ROOT
HETATM    1  O   UNL     1      32.976  79.679  23.306  1.00  0.00    -0.648 OA
HETATM    2  O   UNL     1      31.850  81.401  22.342  1.00  0.00    -0.648 OA
HETATM    3  C   UNL     1      31.939  80.210  22.611  1.00  0.00     0.172 C 
ENDROOT
BRANCH   3   4
HETATM    4  C   UNL     1      30.928  79.174  22.181  1.00  0.00     0.117 C 
BRANCH   4   5
HETATM    5  C   UNL     1      31.291  78.559  20.824  1.00  0.00     0.049 C 
BRANCH   5   6
HETATM    6  C   UNL     1      31.693  77.125  20.903  1.00  0.00    -0.058 A 
HETATM    7  C   UNL     1      32.170  76.600  22.105  1.00  0.00     0.007 A 
HETATM    8  C   UNL     1      32.546  75.259  22.180  1.00  0.00     0.001 A 
HETATM    9  C   UNL     1      32.445  74.443  21.053  1.00  0.00     0.000 A 
HETATM   10  C   UNL     1      31.968  74.967  19.852  1.00  0.00     0.001 A 
HETATM   11  C   UNL     1      31.591  76.308  19.778  1.00  0.00     0.007 A 
ENDBRANCH   5   6
ENDBRANCH   4   5
ENDBRANCH   3   4
TORSDOF 3
ENDMDL
MODEL 5
REMARK VINA RESULT:      -5.7      1.728      2.780
REMARK  3 active torsions:
REMARK  status: ('A' for Active; 'I' for Inactive)
REMARK    1  A    between atoms: C_3  and  C_4 
REMARK    2  A    between atoms: C_3  and  C_5 
REMARK    3  A    between atoms: C_5  and  C_10 
ROOT
HETATM    1  O   UNL     1      33.028  77.973  22.924  1.00  0.00    -0.648 OA
HETATM    2  O   UNL     1      33.114  75.706  22.815  1.00  0.00    -0.648 OA
HETATM    3  C   UNL     1      32.553  76.761  22.546  1.00  0.00     0.172 C 
ENDROOT
BRANCH   3   4
HETATM    4  C   UNL     1      31.249  76.850  21.790  1.00  0.00     0.117 C 
BRANCH   4   5
HETATM    5  C   UNL     1      31.365  77.763  20.565  1.00  0.00     0.049 C 
BRANCH   5   6
HETATM    6  C   UNL     1      31.202  77.049  19.266  1.00  0.00    -0.058 A 
HETATM    7  C   UNL     1      31.521  75.694  19.171  1.00  0.00     0.007 A 
HETATM    8  C   UNL     1      31.369  75.025  17.956  1.00  0.00     0.001 A 
HETATM    9  C   UNL     1      30.897  75.711  16.837  1.00  0.00     0.000 A 
HETATM   10  C   UNL     1      30.578  77.066  16.932  1.00  0.00     0.001 A 
HETATM   11  C   UNL     1      30.730  77.734  18.147  1.00  0.00     0.007 A 
ENDBRANCH   5   6
ENDBRANCH   4   5
ENDBRANCH   3   4
TORSDOF 3
ENDMDL
MODEL 6
REMARK VINA RESULT:      -5.7      1.194      1.594
REMARK  3 active torsions:
REMARK  status: ('A' for Active; 'I' for Inactive)
REMARK    1  A    between atoms: C_3  and  C_4 
REMARK    2  A    between atoms: C_3  and  C_5 
REMARK    3  A    between atoms: C_5  and  C_10 
ROOT
HETATM    1  O   UNL     1      32.977  76.881  22.835  1.00  0.00    -0.648 OA
HETATM    2  O   UNL     1      32.683  79.133  22.893  1.00  0.00    -0.648 OA
HETATM    3  C   UNL     1      32.293  78.019  22.563  1.00  0.00     0.172 C 
ENDROOT
BRANCH   3   4
HETATM    4  C   UNL     1      31.023  77.771  21.787  1.00  0.00     0.117 C 
BRANCH   4   5
HETATM    5  C   UNL     1      31.101  78.354  20.371  1.00  0.00     0.049 C 
BRANCH   5   6
HETATM    6  C   UNL     1      31.096  77.322  19.296  1.00  0.00    -0.058 A 
HETATM    7  C   UNL     1      30.705  77.666  18.001  1.00  0.00     0.007 A 
HETATM    8  C   UNL     1      30.700  76.701  16.994  1.00  0.00     0.001 A 
HETATM    9  C   UNL     1      31.086  75.391  17.281  1.00  0.00     0.000 A 
HETATM   10  C   UNL     1      31.477  75.047  18.575  1.00  0.00     0.001 A 
HETATM   11  C   UNL     1      31.482  76.013  19.582  1.00  0.00     0.007 A 
ENDBRANCH   5   6
ENDBRANCH   4   5
ENDBRANCH   3   4
TORSDOF 3
ENDMDL
MODEL 7
REMARK VINA RESULT:      -5.6      3.310      4.702
REMARK  3 active torsions:
REMARK  status: ('A' for Active; 'I' for Inactive)
REMARK    1  A    between atoms: C_3  and  C_4 
REMARK    2  A    between atoms: C_3  and  C_5 
REMARK    3  A    between atoms: C_5  and  C_10 
ROOT
HETATM    1  O   UNL     1      30.263  79.262  16.548  1.00  0.00    -0.648 OA
HETATM    2  O   UNL     1      31.802  78.497  15.062  1.00  0.00    -0.648 OA
HETATM    3  C   UNL     1      31.342  78.519  16.197  1.00  0.00     0.172 C 
ENDROOT
BRANCH   3   4
HETATM    4  C   UNL     1      31.930  77.752  17.357  1.00  0.00     0.117 C 
BRANCH   4   5
HETATM    5  C   UNL     1      30.878  77.451  18.430  1.00  0.00     0.049 C 
BRANCH   5   6
HETATM    6  C   UNL     1      31.449  77.257  19.793  1.00  0.00    -0.058 A 
HETATM    7  C   UNL     1      31.562  78.342  20.663  1.00  0.00     0.007 A 
HETATM    8  C   UNL     1      32.096  78.162  21.939  1.00  0.00     0.001 A 
HETATM    9  C   UNL     1      32.516  76.895  22.346  1.00  0.00     0.000 A 
HETATM   10  C   UNL     1      32.403  75.810  21.477  1.00  0.00     0.001 A 
HETATM   11  C   UNL     1      31.869  75.991  20.201  1.00  0.00     0.007 A 
ENDBRANCH   5   6
ENDBRANCH   4   5
ENDBRANCH   3   4
TORSDOF 3
ENDMDL
MODEL 8
REMARK VINA RESULT:      -5.6      3.303      4.814
REMARK  3 active torsions:
REMARK  status: ('A' for Active; 'I' for Inactive)
REMARK    1  A    between atoms: C_3  and  C_4 
REMARK    2  A    between atoms: C_3  and  C_5 
REMARK    3  A    between atoms: C_5  and  C_10 
ROOT
HETATM    1  O   UNL     1      31.996  78.487  15.236  1.00  0.00    -0.648 OA
HETATM    2  O   UNL     1      30.176  79.101  16.449  1.00  0.00    -0.648 OA
HETATM    3  C   UNL     1      31.247  78.513  16.366  1.00  0.00     0.172 C 
ENDROOT
BRANCH   3   4
HETATM    4  C   UNL     1      31.858  77.717  17.494  1.00  0.00     0.117 C 
BRANCH   4   5
HETATM    5  C   UNL     1      30.845  77.455  18.615  1.00  0.00     0.049 C 
BRANCH   5   6
HETATM    6  C   UNL     1      31.473  77.208  19.945  1.00  0.00    -0.058 A 
HETATM    7  C   UNL     1      31.856  75.915  20.305  1.00  0.00     0.007 A 
HETATM    8  C   UNL     1      32.443  75.683  21.549  1.00  0.00     0.001 A 
HETATM    9  C   UNL     1      32.648  76.743  22.432  1.00  0.00     0.000 A 
HETATM   10  C   UNL     1      32.264  78.035  22.073  1.00  0.00     0.001 A 
HETATM   11  C   UNL     1      31.678  78.267  20.829  1.00  0.00     0.007 A 
ENDBRANCH   5   6
ENDBRANCH   4   5
ENDBRANCH   3   4
TORSDOF 3
ENDMDL
MODEL 9
REMARK VINA RESULT:      -5.4      3.453      4.625
REMARK  3 active torsions:
REMARK  status: ('A' for Active; 'I' for Inactive)
REMARK    1  A    between atoms: C_3  and  C_4 
REMARK    2  A    between atoms: C_3  and  C_5 
REMARK    3  A    between atoms: C_5  and  C_10 
ROOT
HETATM    1  O   UNL     1      34.099  72.512  23.061  1.00  0.00    -0.648 OA
HETATM    2  O   UNL     1      34.477  73.315  20.970  1.00  0.00    -0.648 OA
HETATM    3  C   UNL     1      33.799  73.286  21.990  1.00  0.00     0.172 C 
ENDROOT
BRANCH   3   4
HETATM    4  C   UNL     1      32.529  74.081  22.175  1.00  0.00     0.117 C 
BRANCH   4   5
HETATM    5  C   UNL     1      32.820  75.567  22.415  1.00  0.00     0.049 C 
BRANCH   5   6
HETATM    6  C   UNL     1      32.092  76.478  21.487  1.00  0.00    -0.058 A 
HETATM    7  C   UNL     1      31.627  77.712  21.943  1.00  0.00     0.007 A 
HETATM    8  C   UNL     1      30.946  78.566  21.075  1.00  0.00     0.001 A 
HETATM    9  C   UNL     1      30.728  78.185  19.751  1.00  0.00     0.000 A 
HETATM   10  C   UNL     1      31.192  76.951  19.294  1.00  0.00     0.001 A 
HETATM   11  C   UNL     1      31.874  76.099  20.162  1.00  0.00     0.007 A 
ENDBRANCH   5   6
ENDBRANCH   4   5
ENDBRANCH   3   4
TORSDOF 3
ENDMDL
