MODEL 1
REMARK VINA RESULT:     -18.5      0.000      0.000
REMARK  4 active torsions:
REMARK  status: ('A' for Active; 'I' for Inactive)
REMARK    1  A    between atoms: O_1  and  C_11 
REMARK    2  A    between atoms: C_4  and  C_5 
REMARK    3  A    between atoms: C_4  and  C_6 
REMARK    4  A    between atoms: C_6  and  C_12 
ROOT
ATOM      1  O   UNL A   1     -54.198  51.619   8.136  1.00  0.00    -0.361 OA
ATOM      2  H   UNL A   1     -54.863  51.180   7.642  1.00  0.00     0.217 HD
ENDROOT
BRANCH   1   3
ATOM      3  C   UNL A   1     -54.035  51.337   9.457  1.00  0.00     0.065 A 
ATOM      4  C   UNL A   1     -53.904  52.373  10.381  1.00  0.00     0.037 A 
ATOM      5  C   UNL A   1     -53.736  52.086  11.735  1.00  0.00     0.010 A 
ATOM      6  C   UNL A   1     -53.699  50.759  12.166  1.00  0.00    -0.058 A 
ATOM      7  C   UNL A   1     -53.830  49.722  11.243  1.00  0.00     0.010 A 
ATOM      8  C   UNL A   1     -53.998  50.010   9.889  1.00  0.00     0.037 A 
BRANCH   6   9
ATOM      9  C   UNL A   1     -53.520  50.451  13.614  1.00  0.00     0.049 C 
BRANCH   9  10
ATOM     10  C   UNL A   1     -53.009  49.031  13.884  1.00  0.00     0.117 C 
BRANCH  10  11
ATOM     11  C   UNL A   1     -52.828  48.776  15.361  1.00  0.00     0.172 C 
ATOM     12  O   UNL A   1     -54.005  48.636  16.021  1.00  0.00    -0.648 OA
ATOM     13  O   UNL A   1     -51.736  48.677  15.907  1.00  0.00    -0.648 OA
ENDBRANCH  10  11
ENDBRANCH   9  10
ENDBRANCH   6   9
ENDBRANCH   1   3
TORSDOF 4
ENDMDL
MODEL 2
REMARK VINA RESULT:     -18.5      0.055      1.396
REMARK  4 active torsions:
REMARK  status: ('A' for Active; 'I' for Inactive)
REMARK    1  A    between atoms: O_1  and  C_11 
REMARK    2  A    between atoms: C_4  and  C_5 
REMARK    3  A    between atoms: C_4  and  C_6 
REMARK    4  A    between atoms: C_6  and  C_12 
ROOT
ATOM      1  O   UNL A   1     -54.207  51.611   8.130  1.00  0.00    -0.361 OA
ATOM      2  H   UNL A   1     -54.661  51.004   7.579  1.00  0.00     0.217 HD
ENDROOT
BRANCH   1   3
ATOM      3  C   UNL A   1     -54.041  51.335   9.453  1.00  0.00     0.065 A 
ATOM      4  C   UNL A   1     -54.004  50.012   9.890  1.00  0.00     0.037 A 
ATOM      5  C   UNL A   1     -53.835  49.728  11.245  1.00  0.00     0.010 A 
ATOM      6  C   UNL A   1     -53.703  50.770  12.165  1.00  0.00    -0.058 A 
ATOM      7  C   UNL A   1     -53.740  52.094  11.727  1.00  0.00     0.010 A 
ATOM      8  C   UNL A   1     -53.909  52.377  10.372  1.00  0.00     0.037 A 
BRANCH   6   9
ATOM      9  C   UNL A   1     -53.521  50.468  13.613  1.00  0.00     0.049 C 
BRANCH   9  10
ATOM     10  C   UNL A   1     -52.975  49.062  13.887  1.00  0.00     0.117 C 
BRANCH  10  11
ATOM     11  C   UNL A   1     -52.845  48.792  15.367  1.00  0.00     0.172 C 
ATOM     12  O   UNL A   1     -54.041  48.776  16.007  1.00  0.00    -0.648 OA
ATOM     13  O   UNL A   1     -51.779  48.584  15.930  1.00  0.00    -0.648 OA
ENDBRANCH  10  11
ENDBRANCH   9  10
ENDBRANCH   6   9
ENDBRANCH   1   3
TORSDOF 4
ENDMDL
MODEL 3
REMARK VINA RESULT:     -18.2      2.209      5.351
REMARK  4 active torsions:
REMARK  status: ('A' for Active; 'I' for Inactive)
REMARK    1  A    between atoms: O_1  and  C_11 
REMARK    2  A    between atoms: C_4  and  C_5 
REMARK    3  A    between atoms: C_4  and  C_6 
REMARK    4  A    between atoms: C_6  and  C_12 
ROOT
ATOM      1  O   UNL A   1     -53.156  50.481  14.763  1.00  0.00    -0.361 OA
ATOM      2  H   UNL A   1     -52.561  51.133  15.078  1.00  0.00     0.217 HD
ENDROOT
BRANCH   1   3
ATOM      3  C   UNL A   1     -53.397  50.369  13.429  1.00  0.00     0.065 A 
ATOM      4  C   UNL A   1     -53.659  51.508  12.668  1.00  0.00     0.037 A 
ATOM      5  C   UNL A   1     -53.907  51.394  11.301  1.00  0.00     0.010 A 
ATOM      6  C   UNL A   1     -53.895  50.138  10.692  1.00  0.00    -0.058 A 
ATOM      7  C   UNL A   1     -53.633  48.999  11.452  1.00  0.00     0.010 A 
ATOM      8  C   UNL A   1     -53.385  49.113  12.820  1.00  0.00     0.037 A 
BRANCH   6   9
ATOM      9  C   UNL A   1     -54.159  50.016   9.230  1.00  0.00     0.049 C 
BRANCH   9  10
ATOM     10  C   UNL A   1     -53.351  48.907   8.547  1.00  0.00     0.117 C 
BRANCH  10  11
ATOM     11  C   UNL A   1     -54.242  47.958   7.782  1.00  0.00     0.172 C 
ATOM     12  O   UNL A   1     -55.328  47.565   8.493  1.00  0.00    -0.648 OA
ATOM     13  O   UNL A   1     -54.026  47.598   6.632  1.00  0.00    -0.648 OA
ENDBRANCH  10  11
ENDBRANCH   9  10
ENDBRANCH   6   9
ENDBRANCH   1   3
TORSDOF 4
ENDMDL
MODEL 4
REMARK VINA RESULT:     -18.2      2.215      5.518
REMARK  4 active torsions:
REMARK  status: ('A' for Active; 'I' for Inactive)
REMARK    1  A    between atoms: O_1  and  C_11 
REMARK    2  A    between atoms: C_4  and  C_5 
REMARK    3  A    between atoms: C_4  and  C_6 
REMARK    4  A    between atoms: C_6  and  C_12 
ROOT
ATOM      1  O   UNL A   1     -53.154  50.474  14.773  1.00  0.00    -0.361 OA
ATOM      2  H   UNL A   1     -53.804  50.840  15.339  1.00  0.00     0.217 HD
ENDROOT
BRANCH   1   3
ATOM      3  C   UNL A   1     -53.400  50.358  13.440  1.00  0.00     0.065 A 
ATOM      4  C   UNL A   1     -53.381  49.103  12.833  1.00  0.00     0.037 A 
ATOM      5  C   UNL A   1     -53.632  48.983  11.467  1.00  0.00     0.010 A 
ATOM      6  C   UNL A   1     -53.903  50.121  10.705  1.00  0.00    -0.058 A 
ATOM      7  C   UNL A   1     -53.922  51.376  11.312  1.00  0.00     0.010 A 
ATOM      8  C   UNL A   1     -53.671  51.496  12.678  1.00  0.00     0.037 A 
BRANCH   6   9
ATOM      9  C   UNL A   1     -54.172  49.994   9.245  1.00  0.00     0.049 C 
BRANCH   9  10
ATOM     10  C   UNL A   1     -53.351  48.895   8.559  1.00  0.00     0.117 C 
BRANCH  10  11
ATOM     11  C   UNL A   1     -54.232  47.934   7.798  1.00  0.00     0.172 C 
ATOM     12  O   UNL A   1     -55.323  47.546   8.505  1.00  0.00    -0.648 OA
ATOM     13  O   UNL A   1     -54.006  47.561   6.654  1.00  0.00    -0.648 OA
ENDBRANCH  10  11
ENDBRANCH   9  10
ENDBRANCH   6   9
ENDBRANCH   1   3
TORSDOF 4
ENDMDL
MODEL 5
REMARK VINA RESULT:     -17.3      1.010      1.515
REMARK  4 active torsions:
REMARK  status: ('A' for Active; 'I' for Inactive)
REMARK    1  A    between atoms: O_1  and  C_11 
REMARK    2  A    between atoms: C_4  and  C_5 
REMARK    3  A    between atoms: C_4  and  C_6 
REMARK    4  A    between atoms: C_6  and  C_12 
ROOT
ATOM      1  O   UNL A   1     -54.164  49.442   7.770  1.00  0.00    -0.361 OA
ATOM      2  H   UNL A   1     -54.659  48.718   7.440  1.00  0.00     0.217 HD
ENDROOT
BRANCH   1   3
ATOM      3  C   UNL A   1     -53.993  49.592   9.112  1.00  0.00     0.065 A 
ATOM      4  C   UNL A   1     -54.066  50.861   9.687  1.00  0.00     0.037 A 
ATOM      5  C   UNL A   1     -53.890  51.016  11.061  1.00  0.00     0.010 A 
ATOM      6  C   UNL A   1     -53.641  49.902  11.863  1.00  0.00    -0.058 A 
ATOM      7  C   UNL A   1     -53.568  48.633  11.288  1.00  0.00     0.010 A 
ATOM      8  C   UNL A   1     -53.744  48.477   9.914  1.00  0.00     0.037 A 
BRANCH   6   9
ATOM      9  C   UNL A   1     -53.453  50.067  13.332  1.00  0.00     0.049 C 
BRANCH   9  10
ATOM     10  C   UNL A   1     -52.707  48.903  13.995  1.00  0.00     0.117 C 
BRANCH  10  11
ATOM     11  C   UNL A   1     -53.076  48.762  15.452  1.00  0.00     0.172 C 
ATOM     12  O   UNL A   1     -52.027  48.390  16.228  1.00  0.00    -0.648 OA
ATOM     13  O   UNL A   1     -54.195  48.983  15.896  1.00  0.00    -0.648 OA
ENDBRANCH  10  11
ENDBRANCH   9  10
ENDBRANCH   6   9
ENDBRANCH   1   3
TORSDOF 4
ENDMDL
MODEL 6
REMARK VINA RESULT:     -17.2      1.643      5.387
REMARK  4 active torsions:
REMARK  status: ('A' for Active; 'I' for Inactive)
REMARK    1  A    between atoms: O_1  and  C_11 
REMARK    2  A    between atoms: C_4  and  C_5 
REMARK    3  A    between atoms: C_4  and  C_6 
REMARK    4  A    between atoms: C_6  and  C_12 
ROOT
ATOM      1  O   UNL A   1     -52.558  48.787  15.540  1.00  0.00    -0.361 OA
ATOM      2  H   UNL A   1     -52.978  49.164  16.288  1.00  0.00     0.217 HD
ENDROOT
BRANCH   1   3
ATOM      3  C   UNL A   1     -52.918  49.179  14.288  1.00  0.00     0.065 A 
ATOM      4  C   UNL A   1     -53.324  50.494  14.058  1.00  0.00     0.037 A 
ATOM      5  C   UNL A   1     -53.694  50.897  12.776  1.00  0.00     0.010 A 
ATOM      6  C   UNL A   1     -53.658  49.984  11.720  1.00  0.00    -0.058 A 
ATOM      7  C   UNL A   1     -53.251  48.670  11.950  1.00  0.00     0.010 A 
ATOM      8  C   UNL A   1     -52.881  48.267  13.232  1.00  0.00     0.037 A 
BRANCH   6   9
ATOM      9  C   UNL A   1     -54.052  50.414  10.349  1.00  0.00     0.049 C 
BRANCH   9  10
ATOM     10  C   UNL A   1     -54.865  49.365   9.582  1.00  0.00     0.117 C 
BRANCH  10  11
ATOM     11  C   UNL A   1     -54.089  48.800   8.417  1.00  0.00     0.172 C 
ATOM     12  O   UNL A   1     -54.775  47.847   7.738  1.00  0.00    -0.648 OA
ATOM     13  O   UNL A   1     -52.969  49.177   8.098  1.00  0.00    -0.648 OA
ENDBRANCH  10  11
ENDBRANCH   9  10
ENDBRANCH   6   9
ENDBRANCH   1   3
TORSDOF 4
ENDMDL
MODEL 7
REMARK VINA RESULT:     -16.9      2.909      5.527
REMARK  4 active torsions:
REMARK  status: ('A' for Active; 'I' for Inactive)
REMARK    1  A    between atoms: O_1  and  C_11 
REMARK    2  A    between atoms: C_4  and  C_5 
REMARK    3  A    between atoms: C_4  and  C_6 
REMARK    4  A    between atoms: C_6  and  C_12 
ROOT
ATOM      1  O   UNL A   1     -53.306  51.164  14.171  1.00  0.00    -0.361 OA
ATOM      2  H   UNL A   1     -53.872  51.853  14.456  1.00  0.00     0.217 HD
ENDROOT
BRANCH   1   3
ATOM      3  C   UNL A   1     -53.488  50.596  12.948  1.00  0.00     0.065 A 
ATOM      4  C   UNL A   1     -53.360  49.216  12.792  1.00  0.00     0.037 A 
ATOM      5  C   UNL A   1     -53.545  48.634  11.539  1.00  0.00     0.010 A 
ATOM      6  C   UNL A   1     -53.859  49.433  10.438  1.00  0.00    -0.058 A 
ATOM      7  C   UNL A   1     -53.988  50.813  10.594  1.00  0.00     0.010 A 
ATOM      8  C   UNL A   1     -53.802  51.395  11.847  1.00  0.00     0.037 A 
BRANCH   6   9
ATOM      9  C   UNL A   1     -54.059  48.811   9.098  1.00  0.00     0.049 C 
BRANCH   9  10
ATOM     10  C   UNL A   1     -55.206  47.795   9.053  1.00  0.00     0.117 C 
BRANCH  10  11
ATOM     11  C   UNL A   1     -54.883  46.629   8.150  1.00  0.00     0.172 C 
ATOM     12  O   UNL A   1     -54.107  46.979   7.094  1.00  0.00    -0.648 OA
ATOM     13  O   UNL A   1     -55.257  45.482   8.359  1.00  0.00    -0.648 OA
ENDBRANCH  10  11
ENDBRANCH   9  10
ENDBRANCH   6   9
ENDBRANCH   1   3
TORSDOF 4
ENDMDL
MODEL 8
REMARK VINA RESULT:     -16.8      1.289      5.784
REMARK  4 active torsions:
REMARK  status: ('A' for Active; 'I' for Inactive)
REMARK    1  A    between atoms: O_1  and  C_11 
REMARK    2  A    between atoms: C_4  and  C_5 
REMARK    3  A    between atoms: C_4  and  C_6 
REMARK    4  A    between atoms: C_6  and  C_12 
ROOT
ATOM      1  O   UNL A   1     -52.254  47.240  15.863  1.00  0.00    -0.361 OA
ATOM      2  H   UNL A   1     -51.474  46.723  15.803  1.00  0.00     0.217 HD
ENDROOT
BRANCH   1   3
ATOM      3  C   UNL A   1     -52.625  48.034  14.823  1.00  0.00     0.065 A 
ATOM      4  C   UNL A   1     -52.608  47.533  13.521  1.00  0.00     0.037 A 
ATOM      5  C   UNL A   1     -52.987  48.347  12.454  1.00  0.00     0.010 A 
ATOM      6  C   UNL A   1     -53.383  49.665  12.688  1.00  0.00    -0.058 A 
ATOM      7  C   UNL A   1     -53.399  50.166  13.989  1.00  0.00     0.010 A 
ATOM      8  C   UNL A   1     -53.021  49.352  15.057  1.00  0.00     0.037 A 
BRANCH   6   9
ATOM      9  C   UNL A   1     -53.789  50.535  11.548  1.00  0.00     0.049 C 
BRANCH   9  10
ATOM     10  C   UNL A   1     -54.423  49.768  10.381  1.00  0.00     0.117 C 
BRANCH  10  11
ATOM     11  C   UNL A   1     -53.955  50.298   9.047  1.00  0.00     0.172 C 
ATOM     12  O   UNL A   1     -53.220  49.396   8.350  1.00  0.00    -0.648 OA
ATOM     13  O   UNL A   1     -54.230  51.412   8.622  1.00  0.00    -0.648 OA
ENDBRANCH  10  11
ENDBRANCH   9  10
ENDBRANCH   6   9
ENDBRANCH   1   3
TORSDOF 4
ENDMDL
MODEL 9
REMARK VINA RESULT:     -16.7      2.963      4.062
REMARK  4 active torsions:
REMARK  status: ('A' for Active; 'I' for Inactive)
REMARK    1  A    between atoms: O_1  and  C_11 
REMARK    2  A    between atoms: C_4  and  C_5 
REMARK    3  A    between atoms: C_4  and  C_6 
REMARK    4  A    between atoms: C_6  and  C_12 
ROOT
ATOM      1  O   UNL A   1     -54.210  46.053   6.759  1.00  0.00    -0.361 OA
ATOM      2  H   UNL A   1     -55.004  45.571   6.635  1.00  0.00     0.217 HD
ENDROOT
BRANCH   1   3
ATOM      3  C   UNL A   1     -54.167  47.071   7.661  1.00  0.00     0.065 A 
ATOM      4  C   UNL A   1     -55.046  47.081   8.744  1.00  0.00     0.037 A 
ATOM      5  C   UNL A   1     -55.003  48.125   9.668  1.00  0.00     0.010 A 
ATOM      6  C   UNL A   1     -54.081  49.160   9.510  1.00  0.00    -0.058 A 
ATOM      7  C   UNL A   1     -53.203  49.150   8.427  1.00  0.00     0.010 A 
ATOM      8  C   UNL A   1     -53.245  48.107   7.502  1.00  0.00     0.037 A 
BRANCH   6   9
ATOM      9  C   UNL A   1     -54.035  50.275  10.498  1.00  0.00     0.049 C 
BRANCH   9  10
ATOM     10  C   UNL A   1     -53.672  49.827  11.918  1.00  0.00     0.117 C 
BRANCH  10  11
ATOM     11  C   UNL A   1     -53.622  50.994  12.875  1.00  0.00     0.172 C 
ATOM     12  O   UNL A   1     -53.426  50.612  14.162  1.00  0.00    -0.648 OA
ATOM     13  O   UNL A   1     -53.721  52.164  12.529  1.00  0.00    -0.648 OA
ENDBRANCH  10  11
ENDBRANCH   9  10
ENDBRANCH   6   9
ENDBRANCH   1   3
TORSDOF 4
ENDMDL
