MODEL 1
REMARK VINA RESULT:     -18.4      0.000      0.000
REMARK  4 active torsions:
REMARK  status: ('A' for Active; 'I' for Inactive)
REMARK    1  A    between atoms: O_1  and  C_11 
REMARK    2  A    between atoms: C_4  and  C_5 
REMARK    3  A    between atoms: C_4  and  C_6 
REMARK    4  A    between atoms: C_6  and  C_12 
ROOT
ATOM      1  O   UNL A   1     -54.208  51.609   8.132  1.00  0.00    -0.361 OA
ATOM      2  H   UNL A   1     -53.470  51.587   7.555  1.00  0.00     0.217 HD
ENDROOT
BRANCH   1   3
ATOM      3  C   UNL A   1     -54.045  51.333   9.454  1.00  0.00     0.065 A 
ATOM      4  C   UNL A   1     -53.918  52.373  10.374  1.00  0.00     0.037 A 
ATOM      5  C   UNL A   1     -53.750  52.091  11.729  1.00  0.00     0.010 A 
ATOM      6  C   UNL A   1     -53.709  50.766  12.166  1.00  0.00    -0.058 A 
ATOM      7  C   UNL A   1     -53.836  49.726  11.246  1.00  0.00     0.010 A 
ATOM      8  C   UNL A   1     -54.004  50.008   9.891  1.00  0.00     0.037 A 
BRANCH   6   9
ATOM      9  C   UNL A   1     -53.530  50.464  13.615  1.00  0.00     0.049 C 
BRANCH   9  10
ATOM     10  C   UNL A   1     -52.945  49.073  13.888  1.00  0.00     0.117 C 
BRANCH  10  11
ATOM     11  C   UNL A   1     -52.858  48.786  15.367  1.00  0.00     0.172 C 
ATOM     12  O   UNL A   1     -54.065  48.825  15.984  1.00  0.00    -0.648 OA
ATOM     13  O   UNL A   1     -51.814  48.519  15.949  1.00  0.00    -0.648 OA
ENDBRANCH  10  11
ENDBRANCH   9  10
ENDBRANCH   6   9
ENDBRANCH   1   3
TORSDOF 4
ENDMDL
MODEL 2
REMARK VINA RESULT:     -18.4      0.067      1.396
REMARK  4 active torsions:
REMARK  status: ('A' for Active; 'I' for Inactive)
REMARK    1  A    between atoms: O_1  and  C_11 
REMARK    2  A    between atoms: C_4  and  C_5 
REMARK    3  A    between atoms: C_4  and  C_6 
REMARK    4  A    between atoms: C_6  and  C_12 
ROOT
ATOM      1  O   UNL A   1     -54.224  51.606   8.137  1.00  0.00    -0.361 OA
ATOM      2  H   UNL A   1     -53.618  51.271   7.506  1.00  0.00     0.217 HD
ENDROOT
BRANCH   1   3
ATOM      3  C   UNL A   1     -54.052  51.329   9.458  1.00  0.00     0.065 A 
ATOM      4  C   UNL A   1     -54.025  50.005   9.896  1.00  0.00     0.037 A 
ATOM      5  C   UNL A   1     -53.849  49.719  11.249  1.00  0.00     0.010 A 
ATOM      6  C   UNL A   1     -53.701  50.759  12.168  1.00  0.00    -0.058 A 
ATOM      7  C   UNL A   1     -53.728  52.083  11.730  1.00  0.00     0.010 A 
ATOM      8  C   UNL A   1     -53.903  52.369  10.377  1.00  0.00     0.037 A 
BRANCH   6   9
ATOM      9  C   UNL A   1     -53.512  50.455  13.615  1.00  0.00     0.049 C 
BRANCH   9  10
ATOM     10  C   UNL A   1     -52.939  49.059  13.883  1.00  0.00     0.117 C 
BRANCH  10  11
ATOM     11  C   UNL A   1     -52.802  48.787  15.362  1.00  0.00     0.172 C 
ATOM     12  O   UNL A   1     -53.998  48.686  15.993  1.00  0.00    -0.648 OA
ATOM     13  O   UNL A   1     -51.728  48.645  15.931  1.00  0.00    -0.648 OA
ENDBRANCH  10  11
ENDBRANCH   9  10
ENDBRANCH   6   9
ENDBRANCH   1   3
TORSDOF 4
ENDMDL
MODEL 3
REMARK VINA RESULT:     -18.3      0.629      1.205
REMARK  4 active torsions:
REMARK  status: ('A' for Active; 'I' for Inactive)
REMARK    1  A    between atoms: O_1  and  C_11 
REMARK    2  A    between atoms: C_4  and  C_5 
REMARK    3  A    between atoms: C_4  and  C_6 
REMARK    4  A    between atoms: C_6  and  C_12 
ROOT
ATOM      1  O   UNL A   1     -54.175  51.963   8.117  1.00  0.00    -0.361 OA
ATOM      2  H   UNL A   1     -53.637  52.709   7.939  1.00  0.00     0.217 HD
ENDROOT
BRANCH   1   3
ATOM      3  C   UNL A   1     -54.008  51.265   9.273  1.00  0.00     0.065 A 
ATOM      4  C   UNL A   1     -53.914  51.941  10.489  1.00  0.00     0.037 A 
ATOM      5  C   UNL A   1     -53.742  51.226  11.674  1.00  0.00     0.010 A 
ATOM      6  C   UNL A   1     -53.662  49.833  11.643  1.00  0.00    -0.058 A 
ATOM      7  C   UNL A   1     -53.756  49.157  10.427  1.00  0.00     0.010 A 
ATOM      8  C   UNL A   1     -53.928  49.872   9.242  1.00  0.00     0.037 A 
BRANCH   6   9
ATOM      9  C   UNL A   1     -53.478  49.068  12.910  1.00  0.00     0.049 C 
BRANCH   9  10
ATOM     10  C   UNL A   1     -53.174  49.951  14.125  1.00  0.00     0.117 C 
BRANCH  10  11
ATOM     11  C   UNL A   1     -53.065  49.137  15.392  1.00  0.00     0.172 C 
ATOM     12  O   UNL A   1     -51.781  48.939  15.783  1.00  0.00    -0.648 OA
ATOM     13  O   UNL A   1     -54.030  48.720  16.019  1.00  0.00    -0.648 OA
ENDBRANCH  10  11
ENDBRANCH   9  10
ENDBRANCH   6   9
ENDBRANCH   1   3
TORSDOF 4
ENDMDL
MODEL 4
REMARK VINA RESULT:     -18.2      2.414      5.493
REMARK  4 active torsions:
REMARK  status: ('A' for Active; 'I' for Inactive)
REMARK    1  A    between atoms: O_1  and  C_11 
REMARK    2  A    between atoms: C_4  and  C_5 
REMARK    3  A    between atoms: C_4  and  C_6 
REMARK    4  A    between atoms: C_6  and  C_12 
ROOT
ATOM      1  O   UNL A   1     -52.936  50.452  15.208  1.00  0.00    -0.361 OA
ATOM      2  H   UNL A   1     -52.843  51.342  15.484  1.00  0.00     0.217 HD
ENDROOT
BRANCH   1   3
ATOM      3  C   UNL A   1     -53.187  50.168  13.900  1.00  0.00     0.065 A 
ATOM      4  C   UNL A   1     -53.056  48.861  13.432  1.00  0.00     0.037 A 
ATOM      5  C   UNL A   1     -53.312  48.570  12.093  1.00  0.00     0.010 A 
ATOM      6  C   UNL A   1     -53.699  49.587  11.219  1.00  0.00    -0.058 A 
ATOM      7  C   UNL A   1     -53.830  50.894  11.688  1.00  0.00     0.010 A 
ATOM      8  C   UNL A   1     -53.574  51.185  13.027  1.00  0.00     0.037 A 
BRANCH   6   9
ATOM      9  C   UNL A   1     -53.973  49.276   9.788  1.00  0.00     0.049 C 
BRANCH   9  10
ATOM     10  C   UNL A   1     -55.294  48.533   9.559  1.00  0.00     0.117 C 
BRANCH  10  11
ATOM     11  C   UNL A   1     -55.163  47.479   8.486  1.00  0.00     0.172 C 
ATOM     12  O   UNL A   1     -55.892  46.366   8.748  1.00  0.00    -0.648 OA
ATOM     13  O   UNL A   1     -54.492  47.619   7.472  1.00  0.00    -0.648 OA
ENDBRANCH  10  11
ENDBRANCH   9  10
ENDBRANCH   6   9
ENDBRANCH   1   3
TORSDOF 4
ENDMDL
MODEL 5
REMARK VINA RESULT:     -18.2      2.428      5.327
REMARK  4 active torsions:
REMARK  status: ('A' for Active; 'I' for Inactive)
REMARK    1  A    between atoms: O_1  and  C_11 
REMARK    2  A    between atoms: C_4  and  C_5 
REMARK    3  A    between atoms: C_4  and  C_6 
REMARK    4  A    between atoms: C_6  and  C_12 
ROOT
ATOM      1  O   UNL A   1     -52.957  50.485  15.208  1.00  0.00    -0.361 OA
ATOM      2  H   UNL A   1     -52.449  49.901  15.735  1.00  0.00     0.217 HD
ENDROOT
BRANCH   1   3
ATOM      3  C   UNL A   1     -53.195  50.188  13.901  1.00  0.00     0.065 A 
ATOM      4  C   UNL A   1     -53.591  51.193  13.018  1.00  0.00     0.037 A 
ATOM      5  C   UNL A   1     -53.836  50.890  11.680  1.00  0.00     0.010 A 
ATOM      6  C   UNL A   1     -53.686  49.579  11.223  1.00  0.00    -0.058 A 
ATOM      7  C   UNL A   1     -53.291  48.575  12.106  1.00  0.00     0.010 A 
ATOM      8  C   UNL A   1     -53.046  48.878  13.444  1.00  0.00     0.037 A 
BRANCH   6   9
ATOM      9  C   UNL A   1     -53.948  49.255   9.791  1.00  0.00     0.049 C 
BRANCH   9  10
ATOM     10  C   UNL A   1     -55.255  48.487   9.561  1.00  0.00     0.117 C 
BRANCH  10  11
ATOM     11  C   UNL A   1     -55.103  47.436   8.488  1.00  0.00     0.172 C 
ATOM     12  O   UNL A   1     -55.714  46.267   8.803  1.00  0.00    -0.648 OA
ATOM     13  O   UNL A   1     -54.514  47.623   7.431  1.00  0.00    -0.648 OA
ENDBRANCH  10  11
ENDBRANCH   9  10
ENDBRANCH   6   9
ENDBRANCH   1   3
TORSDOF 4
ENDMDL
MODEL 6
REMARK VINA RESULT:     -18.0      2.263      5.552
REMARK  4 active torsions:
REMARK  status: ('A' for Active; 'I' for Inactive)
REMARK    1  A    between atoms: O_1  and  C_11 
REMARK    2  A    between atoms: C_4  and  C_5 
REMARK    3  A    between atoms: C_4  and  C_6 
REMARK    4  A    between atoms: C_6  and  C_12 
ROOT
ATOM      1  O   UNL A   1     -52.963  50.454  15.133  1.00  0.00    -0.361 OA
ATOM      2  H   UNL A   1     -53.331  49.887  15.782  1.00  0.00     0.217 HD
ENDROOT
BRANCH   1   3
ATOM      3  C   UNL A   1     -53.233  50.244  13.816  1.00  0.00     0.065 A 
ATOM      4  C   UNL A   1     -53.152  48.958  13.283  1.00  0.00     0.037 A 
ATOM      5  C   UNL A   1     -53.428  48.742  11.933  1.00  0.00     0.010 A 
ATOM      6  C   UNL A   1     -53.784  49.814  11.114  1.00  0.00    -0.058 A 
ATOM      7  C   UNL A   1     -53.865  51.100  11.647  1.00  0.00     0.010 A 
ATOM      8  C   UNL A   1     -53.590  51.316  12.997  1.00  0.00     0.037 A 
BRANCH   6   9
ATOM      9  C   UNL A   1     -54.080  49.584   9.671  1.00  0.00     0.049 C 
BRANCH   9  10
ATOM     10  C   UNL A   1     -53.582  48.232   9.147  1.00  0.00     0.117 C 
BRANCH  10  11
ATOM     11  C   UNL A   1     -54.589  47.586   8.226  1.00  0.00     0.172 C 
ATOM     12  O   UNL A   1     -54.268  47.723   6.915  1.00  0.00    -0.648 OA
ATOM     13  O   UNL A   1     -55.578  46.980   8.615  1.00  0.00    -0.648 OA
ENDBRANCH  10  11
ENDBRANCH   9  10
ENDBRANCH   6   9
ENDBRANCH   1   3
TORSDOF 4
ENDMDL
MODEL 7
REMARK VINA RESULT:     -17.2      1.659      5.430
REMARK  4 active torsions:
REMARK  status: ('A' for Active; 'I' for Inactive)
REMARK    1  A    between atoms: O_1  and  C_11 
REMARK    2  A    between atoms: C_4  and  C_5 
REMARK    3  A    between atoms: C_4  and  C_6 
REMARK    4  A    between atoms: C_6  and  C_12 
ROOT
ATOM      1  O   UNL A   1     -52.535  48.699  15.549  1.00  0.00    -0.361 OA
ATOM      2  H   UNL A   1     -53.191  48.513  16.190  1.00  0.00     0.217 HD
ENDROOT
BRANCH   1   3
ATOM      3  C   UNL A   1     -52.899  49.086  14.296  1.00  0.00     0.065 A 
ATOM      4  C   UNL A   1     -53.329  50.393  14.066  1.00  0.00     0.037 A 
ATOM      5  C   UNL A   1     -53.703  50.789  12.783  1.00  0.00     0.010 A 
ATOM      6  C   UNL A   1     -53.648  49.878  11.727  1.00  0.00    -0.058 A 
ATOM      7  C   UNL A   1     -53.218  48.572  11.957  1.00  0.00     0.010 A 
ATOM      8  C   UNL A   1     -52.844  48.175  13.240  1.00  0.00     0.037 A 
BRANCH   6   9
ATOM      9  C   UNL A   1     -54.048  50.302  10.355  1.00  0.00     0.049 C 
BRANCH   9  10
ATOM     10  C   UNL A   1     -54.803  49.223   9.571  1.00  0.00     0.117 C 
BRANCH  10  11
ATOM     11  C   UNL A   1     -54.015  48.750   8.373  1.00  0.00     0.172 C 
ATOM     12  O   UNL A   1     -54.755  48.005   7.514  1.00  0.00    -0.648 OA
ATOM     13  O   UNL A   1     -52.839  49.028   8.178  1.00  0.00    -0.648 OA
ENDBRANCH  10  11
ENDBRANCH   9  10
ENDBRANCH   6   9
ENDBRANCH   1   3
TORSDOF 4
ENDMDL
MODEL 8
REMARK VINA RESULT:     -17.2      1.114      1.603
REMARK  4 active torsions:
REMARK  status: ('A' for Active; 'I' for Inactive)
REMARK    1  A    between atoms: O_1  and  C_11 
REMARK    2  A    between atoms: C_4  and  C_5 
REMARK    3  A    between atoms: C_4  and  C_6 
REMARK    4  A    between atoms: C_6  and  C_12 
ROOT
ATOM      1  O   UNL A   1     -53.889  49.291   7.861  1.00  0.00    -0.361 OA
ATOM      2  H   UNL A   1     -54.729  49.259   7.447  1.00  0.00     0.217 HD
ENDROOT
BRANCH   1   3
ATOM      3  C   UNL A   1     -53.802  49.447   9.210  1.00  0.00     0.065 A 
ATOM      4  C   UNL A   1     -53.969  50.709   9.779  1.00  0.00     0.037 A 
ATOM      5  C   UNL A   1     -53.879  50.870  11.161  1.00  0.00     0.010 A 
ATOM      6  C   UNL A   1     -53.620  49.768  11.976  1.00  0.00    -0.058 A 
ATOM      7  C   UNL A   1     -53.452  48.506  11.407  1.00  0.00     0.010 A 
ATOM      8  C   UNL A   1     -53.543  48.344  10.025  1.00  0.00     0.037 A 
BRANCH   6   9
ATOM      9  C   UNL A   1     -53.524  49.939  13.454  1.00  0.00     0.049 C 
BRANCH   9  10
ATOM     10  C   UNL A   1     -52.665  48.874  14.145  1.00  0.00     0.117 C 
BRANCH  10  11
ATOM     11  C   UNL A   1     -53.191  48.539  15.520  1.00  0.00     0.172 C 
ATOM     12  O   UNL A   1     -52.357  47.732  16.221  1.00  0.00    -0.648 OA
ATOM     13  O   UNL A   1     -54.246  48.969  15.969  1.00  0.00    -0.648 OA
ENDBRANCH  10  11
ENDBRANCH   9  10
ENDBRANCH   6   9
ENDBRANCH   1   3
TORSDOF 4
ENDMDL
MODEL 9
REMARK VINA RESULT:     -16.9      1.296      5.587
REMARK  4 active torsions:
REMARK  status: ('A' for Active; 'I' for Inactive)
REMARK    1  A    between atoms: O_1  and  C_11 
REMARK    2  A    between atoms: C_4  and  C_5 
REMARK    3  A    between atoms: C_4  and  C_6 
REMARK    4  A    between atoms: C_6  and  C_12 
ROOT
ATOM      1  O   UNL A   1     -52.190  47.371  15.834  1.00  0.00    -0.361 OA
ATOM      2  H   UNL A   1     -51.344  47.503  16.215  1.00  0.00     0.217 HD
ENDROOT
BRANCH   1   3
ATOM      3  C   UNL A   1     -52.584  48.129  14.774  1.00  0.00     0.065 A 
ATOM      4  C   UNL A   1     -52.972  49.454  14.969  1.00  0.00     0.037 A 
ATOM      5  C   UNL A   1     -53.377  50.230  13.883  1.00  0.00     0.010 A 
ATOM      6  C   UNL A   1     -53.393  49.681  12.601  1.00  0.00    -0.058 A 
ATOM      7  C   UNL A   1     -53.004  48.356  12.406  1.00  0.00     0.010 A 
ATOM      8  C   UNL A   1     -52.600  47.579  13.491  1.00  0.00     0.037 A 
BRANCH   6   9
ATOM      9  C   UNL A   1     -53.824  50.510  11.440  1.00  0.00     0.049 C 
BRANCH   9  10
ATOM     10  C   UNL A   1     -54.439  49.698  10.295  1.00  0.00     0.117 C 
BRANCH  10  11
ATOM     11  C   UNL A   1     -53.900  50.130   8.952  1.00  0.00     0.172 C 
ATOM     12  O   UNL A   1     -54.185  51.423   8.660  1.00  0.00    -0.648 OA
ATOM     13  O   UNL A   1     -53.249  49.402   8.213  1.00  0.00    -0.648 OA
ENDBRANCH  10  11
ENDBRANCH   9  10
ENDBRANCH   6   9
ENDBRANCH   1   3
TORSDOF 4
ENDMDL
