MODEL 1
REMARK VINA RESULT:      -4.2      0.000      0.000
REMARK  6 active torsions:
REMARK  status: ('A' for Active; 'I' for Inactive)
REMARK    1  A    between atoms: N_3  and  CA_7 
REMARK    2  A    between atoms: N_4  and  C_8 
REMARK    3  A    between atoms: C_5  and  C_6 
REMARK    4  A    between atoms: C_5  and  CA_7 
REMARK    5  A    between atoms: C_6  and  C_8 
REMARK    6  A    between atoms: CA_7  and  C_9 
ROOT
HETATM    1  O   UNL     1       7.742  -0.559  58.391  1.00  0.00    -0.646 OA
HETATM    2  OXT UNL     1       5.724  -1.038  57.474  1.00  0.00    -0.646 OA
HETATM    3  C   UNL     1       6.840  -1.403  57.820  1.00  0.00     0.204 C 
ENDROOT
BRANCH   3   4
HETATM    4  CA  UNL     1       7.392  -2.810  57.674  1.00  0.00     0.283 C 
BRANCH   4   5
HETATM    5  N   UNL     1       8.777  -2.709  57.213  1.00  0.00    -0.065 N 
HETATM    6  H   UNL     1       9.386  -3.222  57.852  1.00  0.00     0.275 HD
HETATM    7  H   UNL     1       9.057  -1.728  57.191  1.00  0.00     0.275 HD
HETATM    8  H   UNL     1       8.853  -3.106  56.277  1.00  0.00     0.275 HD
ENDBRANCH   4   5
BRANCH   4   9
HETATM    9  C   UNL     1       7.258  -3.627  58.969  1.00  0.00     0.045 C 
BRANCH   9  10
HETATM   10  C   UNL     1       8.575  -3.887  59.711  1.00  0.00     0.030 C 
BRANCH  10  11
HETATM   11  C   UNL     1       8.317  -4.232  61.178  1.00  0.00     0.230 C 
BRANCH  11  12
HETATM   12  N   UNL     1       8.402  -5.673  61.383  1.00  0.00    -0.079 N 
HETATM   13  H   UNL     1       9.360  -5.984  61.219  1.00  0.00     0.274 HD
HETATM   14  H   UNL     1       7.776  -6.147  60.731  1.00  0.00     0.274 HD
HETATM   15  H   UNL     1       8.131  -5.898  62.340  1.00  0.00     0.274 HD
ENDBRANCH  11  12
ENDBRANCH  10  11
ENDBRANCH   9  10
ENDBRANCH   4   9
ENDBRANCH   3   4
TORSDOF 6
ENDMDL
MODEL 2
REMARK VINA RESULT:      -4.2      2.615      4.709
REMARK  6 active torsions:
REMARK  status: ('A' for Active; 'I' for Inactive)
REMARK    1  A    between atoms: N_3  and  CA_7 
REMARK    2  A    between atoms: N_4  and  C_8 
REMARK    3  A    between atoms: C_5  and  C_6 
REMARK    4  A    between atoms: C_5  and  CA_7 
REMARK    5  A    between atoms: C_6  and  C_8 
REMARK    6  A    between atoms: CA_7  and  C_9 
ROOT
HETATM    1  O   UNL     1       6.530  -3.926  58.833  1.00  0.00    -0.646 OA
HETATM    2  OXT UNL     1       8.425  -3.350  59.936  1.00  0.00    -0.646 OA
HETATM    3  C   UNL     1       7.624  -3.143  59.035  1.00  0.00     0.204 C 
ENDROOT
BRANCH   3   4
HETATM    4  CA  UNL     1       7.709  -2.016  58.021  1.00  0.00     0.283 C 
BRANCH   4   5
HETATM    5  N   UNL     1       8.655  -2.414  56.978  1.00  0.00    -0.065 N 
HETATM    6  H   UNL     1       8.450  -1.902  56.119  1.00  0.00     0.275 HD
HETATM    7  H   UNL     1       8.569  -3.415  56.806  1.00  0.00     0.275 HD
HETATM    8  H   UNL     1       9.605  -2.202  57.282  1.00  0.00     0.275 HD
ENDBRANCH   4   5
BRANCH   4   9
HETATM    9  C   UNL     1       6.333  -1.632  57.456  1.00  0.00     0.045 C 
BRANCH   9  10
HETATM   10  C   UNL     1       5.979  -0.143  57.565  1.00  0.00     0.030 C 
BRANCH  10  11
HETATM   11  C   UNL     1       5.592   0.429  56.201  1.00  0.00     0.230 C 
BRANCH  11  12
HETATM   12  N   UNL     1       6.659   0.197  55.234  1.00  0.00    -0.079 N 
HETATM   13  H   UNL     1       6.504   0.778  54.410  1.00  0.00     0.274 HD
HETATM   14  H   UNL     1       6.662  -0.785  54.960  1.00  0.00     0.274 HD
HETATM   15  H   UNL     1       7.557   0.436  55.654  1.00  0.00     0.274 HD
ENDBRANCH  11  12
ENDBRANCH  10  11
ENDBRANCH   9  10
ENDBRANCH   4   9
ENDBRANCH   3   4
TORSDOF 6
ENDMDL
MODEL 3
REMARK VINA RESULT:      -4.0      1.657      2.299
REMARK  6 active torsions:
REMARK  status: ('A' for Active; 'I' for Inactive)
REMARK    1  A    between atoms: N_3  and  CA_7 
REMARK    2  A    between atoms: N_4  and  C_8 
REMARK    3  A    between atoms: C_5  and  C_6 
REMARK    4  A    between atoms: C_5  and  CA_7 
REMARK    5  A    between atoms: C_6  and  C_8 
REMARK    6  A    between atoms: CA_7  and  C_9 
ROOT
HETATM    1  O   UNL     1       5.777   0.266  57.656  1.00  0.00    -0.646 OA
HETATM    2  OXT UNL     1       7.728  -0.625  58.391  1.00  0.00    -0.646 OA
HETATM    3  C   UNL     1       6.751  -0.683  57.656  1.00  0.00     0.204 C 
ENDROOT
BRANCH   3   4
HETATM    4  CA  UNL     1       6.468  -1.787  56.652  1.00  0.00     0.283 C 
BRANCH   4   5
HETATM    5  N   UNL     1       6.987  -1.363  55.352  1.00  0.00    -0.065 N 
HETATM    6  H   UNL     1       7.881  -1.823  55.176  1.00  0.00     0.275 HD
HETATM    7  H   UNL     1       7.119  -0.352  55.353  1.00  0.00     0.275 HD
HETATM    8  H   UNL     1       6.323  -1.619  54.621  1.00  0.00     0.275 HD
ENDBRANCH   4   5
BRANCH   4   9
HETATM    9  C   UNL     1       7.033  -3.144  57.101  1.00  0.00     0.045 C 
BRANCH   9  10
HETATM   10  C   UNL     1       6.217  -3.860  58.186  1.00  0.00     0.030 C 
BRANCH  10  11
HETATM   11  C   UNL     1       7.007  -3.956  59.491  1.00  0.00     0.230 C 
BRANCH  11  12
HETATM   12  N   UNL     1       8.373  -3.484  59.292  1.00  0.00    -0.079 N 
HETATM   13  H   UNL     1       8.477  -2.558  59.708  1.00  0.00     0.274 HD
HETATM   14  H   UNL     1       8.572  -3.431  58.292  1.00  0.00     0.274 HD
HETATM   15  H   UNL     1       9.025  -4.131  59.735  1.00  0.00     0.274 HD
ENDBRANCH  11  12
ENDBRANCH  10  11
ENDBRANCH   9  10
ENDBRANCH   4   9
ENDBRANCH   3   4
TORSDOF 6
ENDMDL
MODEL 4
REMARK VINA RESULT:      -4.0     13.730     14.909
REMARK  6 active torsions:
REMARK  status: ('A' for Active; 'I' for Inactive)
REMARK    1  A    between atoms: N_3  and  CA_7 
REMARK    2  A    between atoms: N_4  and  C_8 
REMARK    3  A    between atoms: C_5  and  C_6 
REMARK    4  A    between atoms: C_5  and  CA_7 
REMARK    5  A    between atoms: C_6  and  C_8 
REMARK    6  A    between atoms: CA_7  and  C_9 
ROOT
HETATM    1  O   UNL     1      -3.173  -0.437  50.031  1.00  0.00    -0.646 OA
HETATM    2  OXT UNL     1      -5.003   0.267  48.892  1.00  0.00    -0.646 OA
HETATM    3  C   UNL     1      -4.475  -0.537  49.649  1.00  0.00     0.204 C 
ENDROOT
BRANCH   3   4
HETATM    4  CA  UNL     1      -5.158  -1.743  50.270  1.00  0.00     0.283 C 
BRANCH   4   5
HETATM    5  N   UNL     1      -6.604  -1.563  50.138  1.00  0.00    -0.065 N 
HETATM    6  H   UNL     1      -6.849  -0.598  50.363  1.00  0.00     0.275 HD
HETATM    7  H   UNL     1      -7.084  -2.195  50.779  1.00  0.00     0.275 HD
HETATM    8  H   UNL     1      -6.886  -1.771  49.180  1.00  0.00     0.275 HD
ENDBRANCH   4   5
BRANCH   4   9
HETATM    9  C   UNL     1      -4.669  -3.068  49.664  1.00  0.00     0.045 C 
BRANCH   9  10
HETATM   10  C   UNL     1      -4.327  -4.161  50.685  1.00  0.00     0.030 C 
BRANCH  10  11
HETATM   11  C   UNL     1      -3.391  -3.624  51.768  1.00  0.00     0.230 C 
BRANCH  11  12
HETATM   12  N   UNL     1      -2.120  -3.213  51.181  1.00  0.00    -0.079 N 
HETATM   13  H   UNL     1      -2.023  -2.200  51.253  1.00  0.00     0.274 HD
HETATM   14  H   UNL     1      -2.096  -3.486  50.198  1.00  0.00     0.274 HD
HETATM   15  H   UNL     1      -1.353  -3.665  51.679  1.00  0.00     0.274 HD
ENDBRANCH  11  12
ENDBRANCH  10  11
ENDBRANCH   9  10
ENDBRANCH   4   9
ENDBRANCH   3   4
TORSDOF 6
ENDMDL
MODEL 5
REMARK VINA RESULT:      -4.0      3.115      5.476
REMARK  6 active torsions:
REMARK  status: ('A' for Active; 'I' for Inactive)
REMARK    1  A    between atoms: N_3  and  CA_7 
REMARK    2  A    between atoms: N_4  and  C_8 
REMARK    3  A    between atoms: C_5  and  C_6 
REMARK    4  A    between atoms: C_5  and  CA_7 
REMARK    5  A    between atoms: C_6  and  C_8 
REMARK    6  A    between atoms: CA_7  and  C_9 
ROOT
HETATM    1  O   UNL     1       7.957  -0.793  58.403  1.00  0.00    -0.646 OA
HETATM    2  OXT UNL     1       7.694  -3.044  58.323  1.00  0.00    -0.646 OA
HETATM    3  C   UNL     1       7.341  -1.926  57.971  1.00  0.00     0.204 C 
ENDROOT
BRANCH   3   4
HETATM    4  CA  UNL     1       6.193  -1.622  57.024  1.00  0.00     0.283 C 
BRANCH   4   5
HETATM    5  N   UNL     1       5.073  -2.495  57.374  1.00  0.00    -0.065 N 
HETATM    6  H   UNL     1       5.132  -3.358  56.832  1.00  0.00     0.275 HD
HETATM    7  H   UNL     1       4.195  -2.021  57.164  1.00  0.00     0.275 HD
HETATM    8  H   UNL     1       5.111  -2.715  58.369  1.00  0.00     0.275 HD
ENDBRANCH   4   5
BRANCH   4   9
HETATM    9  C   UNL     1       5.809  -0.135  57.031  1.00  0.00     0.045 C 
BRANCH   9  10
HETATM   10  C   UNL     1       5.161   0.374  55.735  1.00  0.00     0.030 C 
BRANCH  10  11
HETATM   11  C   UNL     1       5.942  -0.102  54.510  1.00  0.00     0.230 C 
BRANCH  11  12
HETATM   12  N   UNL     1       5.828   0.868  53.428  1.00  0.00    -0.079 N 
HETATM   13  H   UNL     1       5.818   1.811  53.816  1.00  0.00     0.274 HD
HETATM   14  H   UNL     1       4.963   0.704  52.914  1.00  0.00     0.274 HD
HETATM   15  H   UNL     1       6.623   0.769  52.796  1.00  0.00     0.274 HD
ENDBRANCH  11  12
ENDBRANCH  10  11
ENDBRANCH   9  10
ENDBRANCH   4   9
ENDBRANCH   3   4
TORSDOF 6
ENDMDL
MODEL 6
REMARK VINA RESULT:      -4.0      2.886      3.314
REMARK  6 active torsions:
REMARK  status: ('A' for Active; 'I' for Inactive)
REMARK    1  A    between atoms: N_3  and  CA_7 
REMARK    2  A    between atoms: N_4  and  C_8 
REMARK    3  A    between atoms: C_5  and  C_6 
REMARK    4  A    between atoms: C_5  and  CA_7 
REMARK    5  A    between atoms: C_6  and  C_8 
REMARK    6  A    between atoms: CA_7  and  C_9 
ROOT
HETATM    1  O   UNL     1       4.443  -6.105  59.364  1.00  0.00    -0.646 OA
HETATM    2  OXT UNL     1       3.740  -3.954  59.231  1.00  0.00    -0.646 OA
HETATM    3  C   UNL     1       4.564  -4.815  58.952  1.00  0.00     0.204 C 
ENDROOT
BRANCH   3   4
HETATM    4  CA  UNL     1       5.820  -4.598  58.126  1.00  0.00     0.283 C 
BRANCH   4   5
HETATM    5  N   UNL     1       5.418  -4.101  56.810  1.00  0.00    -0.065 N 
HETATM    6  H   UNL     1       5.009  -3.171  56.908  1.00  0.00     0.275 HD
HETATM    7  H   UNL     1       4.729  -4.735  56.403  1.00  0.00     0.275 HD
HETATM    8  H   UNL     1       6.235  -4.051  56.201  1.00  0.00     0.275 HD
ENDBRANCH   4   5
BRANCH   4   9
HETATM    9  C   UNL     1       6.827  -3.672  58.825  1.00  0.00     0.045 C 
BRANCH   9  10
HETATM   10  C   UNL     1       7.092  -3.999  60.301  1.00  0.00     0.030 C 
BRANCH  10  11
HETATM   11  C   UNL     1       8.514  -4.526  60.497  1.00  0.00     0.230 C 
BRANCH  11  12
HETATM   12  N   UNL     1       8.508  -5.683  61.385  1.00  0.00    -0.079 N 
HETATM   13  H   UNL     1       8.927  -6.481  60.908  1.00  0.00     0.274 HD
HETATM   14  H   UNL     1       7.547  -5.909  61.643  1.00  0.00     0.274 HD
HETATM   15  H   UNL     1       9.044  -5.470  62.226  1.00  0.00     0.274 HD
ENDBRANCH  11  12
ENDBRANCH  10  11
ENDBRANCH   9  10
ENDBRANCH   4   9
ENDBRANCH   3   4
TORSDOF 6
ENDMDL
MODEL 7
REMARK VINA RESULT:      -4.0      2.970      4.456
REMARK  6 active torsions:
REMARK  status: ('A' for Active; 'I' for Inactive)
REMARK    1  A    between atoms: N_3  and  CA_7 
REMARK    2  A    between atoms: N_4  and  C_8 
REMARK    3  A    between atoms: C_5  and  C_6 
REMARK    4  A    between atoms: C_5  and  CA_7 
REMARK    5  A    between atoms: C_6  and  C_8 
REMARK    6  A    between atoms: CA_7  and  C_9 
ROOT
HETATM    1  O   UNL     1       4.857  -5.162  57.466  1.00  0.00    -0.646 OA
HETATM    2  OXT UNL     1       4.827  -6.057  59.549  1.00  0.00    -0.646 OA
HETATM    3  C   UNL     1       5.127  -5.137  58.799  1.00  0.00     0.204 C 
ENDROOT
BRANCH   3   4
HETATM    4  CA  UNL     1       5.826  -3.854  59.213  1.00  0.00     0.283 C 
BRANCH   4   5
HETATM    5  N   UNL     1       6.777  -4.179  60.276  1.00  0.00    -0.065 N 
HETATM    6  H   UNL     1       6.817  -3.408  60.943  1.00  0.00     0.275 HD
HETATM    7  H   UNL     1       7.701  -4.327  59.871  1.00  0.00     0.275 HD
HETATM    8  H   UNL     1       6.475  -5.028  60.754  1.00  0.00     0.275 HD
ENDBRANCH   4   5
BRANCH   4   9
HETATM    9  C   UNL     1       6.488  -3.141  58.024  1.00  0.00     0.045 C 
BRANCH   9  10
HETATM   10  C   UNL     1       5.780  -1.861  57.559  1.00  0.00     0.030 C 
BRANCH  10  11
HETATM   11  C   UNL     1       6.677  -0.638  57.754  1.00  0.00     0.230 C 
BRANCH  11  12
HETATM   12  N   UNL     1       8.059  -1.052  57.963  1.00  0.00    -0.079 N 
HETATM   13  H   UNL     1       8.200  -1.982  57.567  1.00  0.00     0.274 HD
HETATM   14  H   UNL     1       8.260  -1.076  58.963  1.00  0.00     0.274 HD
HETATM   15  H   UNL     1       8.686  -0.390  57.506  1.00  0.00     0.274 HD
ENDBRANCH  11  12
ENDBRANCH  10  11
ENDBRANCH   9  10
ENDBRANCH   4   9
ENDBRANCH   3   4
TORSDOF 6
ENDMDL
MODEL 8
REMARK VINA RESULT:      -3.9      1.984      2.348
REMARK  6 active torsions:
REMARK  status: ('A' for Active; 'I' for Inactive)
REMARK    1  A    between atoms: N_3  and  CA_7 
REMARK    2  A    between atoms: N_4  and  C_8 
REMARK    3  A    between atoms: C_5  and  C_6 
REMARK    4  A    between atoms: C_5  and  CA_7 
REMARK    5  A    between atoms: C_6  and  C_8 
REMARK    6  A    between atoms: CA_7  and  C_9 
ROOT
HETATM    1  O   UNL     1       7.738  -0.578  58.356  1.00  0.00    -0.646 OA
HETATM    2  OXT UNL     1       5.726  -1.263  57.565  1.00  0.00    -0.646 OA
HETATM    3  C   UNL     1       6.891  -1.513  57.847  1.00  0.00     0.204 C 
ENDROOT
BRANCH   3   4
HETATM    4  CA  UNL     1       7.568  -2.862  57.681  1.00  0.00     0.283 C 
BRANCH   4   5
HETATM    5  N   UNL     1       8.863  -2.644  57.037  1.00  0.00    -0.065 N 
HETATM    6  H   UNL     1       8.840  -1.767  56.515  1.00  0.00     0.275 HD
HETATM    7  H   UNL     1       9.060  -3.415  56.400  1.00  0.00     0.275 HD
HETATM    8  H   UNL     1       9.593  -2.596  57.749  1.00  0.00     0.275 HD
ENDBRANCH   4   5
BRANCH   4   9
HETATM    9  C   UNL     1       7.689  -3.621  59.012  1.00  0.00     0.045 C 
BRANCH   9  10
HETATM   10  C   UNL     1       6.356  -4.069  59.627  1.00  0.00     0.030 C 
BRANCH  10  11
HETATM   11  C   UNL     1       5.463  -4.728  58.575  1.00  0.00     0.230 C 
BRANCH  11  12
HETATM   12  N   UNL     1       4.225  -3.973  58.418  1.00  0.00    -0.079 N 
HETATM   13  H   UNL     1       3.816  -3.796  59.335  1.00  0.00     0.274 HD
HETATM   14  H   UNL     1       3.568  -4.512  57.852  1.00  0.00     0.274 HD
HETATM   15  H   UNL     1       4.423  -3.086  57.956  1.00  0.00     0.274 HD
ENDBRANCH  11  12
ENDBRANCH  10  11
ENDBRANCH   9  10
ENDBRANCH   4   9
ENDBRANCH   3   4
TORSDOF 6
ENDMDL
MODEL 9
REMARK VINA RESULT:      -3.9      2.760      4.263
REMARK  6 active torsions:
REMARK  status: ('A' for Active; 'I' for Inactive)
REMARK    1  A    between atoms: N_3  and  CA_7 
REMARK    2  A    between atoms: N_4  and  C_8 
REMARK    3  A    between atoms: C_5  and  C_6 
REMARK    4  A    between atoms: C_5  and  CA_7 
REMARK    5  A    between atoms: C_6  and  C_8 
REMARK    6  A    between atoms: CA_7  and  C_9 
ROOT
HETATM    1  O   UNL     1       6.112  -4.308  60.106  1.00  0.00    -0.646 OA
HETATM    2  OXT UNL     1       7.961  -3.474  59.093  1.00  0.00    -0.646 OA
HETATM    3  C   UNL     1       6.795  -3.840  59.026  1.00  0.00     0.204 C 
ENDROOT
BRANCH   3   4
HETATM    4  CA  UNL     1       5.939  -3.833  57.772  1.00  0.00     0.283 C 
BRANCH   4   5
HETATM    5  N   UNL     1       5.100  -5.031  57.789  1.00  0.00    -0.065 N 
HETATM    6  H   UNL     1       4.815  -5.233  58.748  1.00  0.00     0.275 HD
HETATM    7  H   UNL     1       5.627  -5.820  57.417  1.00  0.00     0.275 HD
HETATM    8  H   UNL     1       4.272  -4.874  57.214  1.00  0.00     0.275 HD
ENDBRANCH   4   5
BRANCH   4   9
HETATM    9  C   UNL     1       5.122  -2.540  57.630  1.00  0.00     0.045 C 
BRANCH   9  10
HETATM   10  C   UNL     1       5.750  -1.471  56.724  1.00  0.00     0.030 C 
BRANCH  10  11
HETATM   11  C   UNL     1       6.328  -0.324  57.553  1.00  0.00     0.230 C 
BRANCH  11  12
HETATM   12  N   UNL     1       7.702  -0.620  57.940  1.00  0.00    -0.079 N 
HETATM   13  H   UNL     1       7.924  -1.585  57.696  1.00  0.00     0.274 HD
HETATM   14  H   UNL     1       7.806  -0.493  58.947  1.00  0.00     0.274 HD
HETATM   15  H   UNL     1       8.337   0.009  57.450  1.00  0.00     0.274 HD
ENDBRANCH  11  12
ENDBRANCH  10  11
ENDBRANCH   9  10
ENDBRANCH   4   9
ENDBRANCH   3   4
TORSDOF 6
ENDMDL
