MODEL 1
REMARK VINA RESULT:      -4.2      0.000      0.000
REMARK  6 active torsions:
REMARK  status: ('A' for Active; 'I' for Inactive)
REMARK    1  A    between atoms: N_3  and  CA_7 
REMARK    2  A    between atoms: N_4  and  C_8 
REMARK    3  A    between atoms: C_5  and  C_6 
REMARK    4  A    between atoms: C_5  and  CA_7 
REMARK    5  A    between atoms: C_6  and  C_8 
REMARK    6  A    between atoms: CA_7  and  C_9 
ROOT
HETATM    1  O   UNL     1       6.624  -4.065  58.784  1.00  0.00    -0.646 OA
HETATM    2  OXT UNL     1       8.414  -3.368  59.988  1.00  0.00    -0.646 OA
HETATM    3  C   UNL     1       7.630  -3.194  59.064  1.00  0.00     0.204 C 
ENDROOT
BRANCH   3   4
HETATM    4  CA  UNL     1       7.645  -2.016  58.106  1.00  0.00     0.283 C 
BRANCH   4   5
HETATM    5  N   UNL     1       8.543  -2.343  56.998  1.00  0.00    -0.065 N 
HETATM    6  H   UNL     1       8.028  -2.859  56.284  1.00  0.00     0.275 HD
HETATM    7  H   UNL     1       9.313  -2.916  57.343  1.00  0.00     0.275 HD
HETATM    8  H   UNL     1       8.913  -1.482  56.596  1.00  0.00     0.275 HD
ENDBRANCH   4   5
BRANCH   4   9
HETATM    9  C   UNL     1       6.235  -1.632  57.631  1.00  0.00     0.045 C 
BRANCH   9  10
HETATM   10  C   UNL     1       5.977  -0.124  57.514  1.00  0.00     0.030 C 
BRANCH  10  11
HETATM   11  C   UNL     1       5.540   0.249  56.097  1.00  0.00     0.230 C 
BRANCH  11  12
HETATM   12  N   UNL     1       6.690   0.270  55.201  1.00  0.00    -0.079 N 
HETATM   13  H   UNL     1       6.372   0.181  54.236  1.00  0.00     0.274 HD
HETATM   14  H   UNL     1       7.311  -0.507  55.427  1.00  0.00     0.274 HD
HETATM   15  H   UNL     1       7.193   1.151  55.313  1.00  0.00     0.274 HD
ENDBRANCH  11  12
ENDBRANCH  10  11
ENDBRANCH   9  10
ENDBRANCH   4   9
ENDBRANCH   3   4
TORSDOF 6
ENDMDL
MODEL 2
REMARK VINA RESULT:      -4.1      2.640      4.716
REMARK  6 active torsions:
REMARK  status: ('A' for Active; 'I' for Inactive)
REMARK    1  A    between atoms: N_3  and  CA_7 
REMARK    2  A    between atoms: N_4  and  C_8 
REMARK    3  A    between atoms: C_5  and  C_6 
REMARK    4  A    between atoms: C_5  and  CA_7 
REMARK    5  A    between atoms: C_6  and  C_8 
REMARK    6  A    between atoms: CA_7  and  C_9 
ROOT
HETATM    1  O   UNL     1       7.718  -0.536  58.434  1.00  0.00    -0.646 OA
HETATM    2  OXT UNL     1       5.830  -0.929  57.242  1.00  0.00    -0.646 OA
HETATM    3  C   UNL     1       6.883  -1.335  57.716  1.00  0.00     0.204 C 
ENDROOT
BRANCH   3   4
HETATM    4  CA  UNL     1       7.420  -2.750  57.589  1.00  0.00     0.283 C 
BRANCH   4   5
HETATM    5  N   UNL     1       8.821  -2.668  57.177  1.00  0.00    -0.065 N 
HETATM    6  H   UNL     1       9.284  -1.917  57.691  1.00  0.00     0.275 HD
HETATM    7  H   UNL     1       8.871  -2.476  56.177  1.00  0.00     0.275 HD
HETATM    8  H   UNL     1       9.287  -3.553  57.377  1.00  0.00     0.275 HD
ENDBRANCH   4   5
BRANCH   4   9
HETATM    9  C   UNL     1       7.229  -3.564  58.878  1.00  0.00     0.045 C 
BRANCH   9  10
HETATM   10  C   UNL     1       8.522  -3.888  59.638  1.00  0.00     0.030 C 
BRANCH  10  11
HETATM   11  C   UNL     1       8.232  -4.181  61.110  1.00  0.00     0.230 C 
BRANCH  11  12
HETATM   12  N   UNL     1       8.459  -5.593  61.400  1.00  0.00    -0.079 N 
HETATM   13  H   UNL     1       9.274  -5.920  60.882  1.00  0.00     0.274 HD
HETATM   14  H   UNL     1       7.640  -6.133  61.122  1.00  0.00     0.274 HD
HETATM   15  H   UNL     1       8.622  -5.713  62.400  1.00  0.00     0.274 HD
ENDBRANCH  11  12
ENDBRANCH  10  11
ENDBRANCH   9  10
ENDBRANCH   4   9
ENDBRANCH   3   4
TORSDOF 6
ENDMDL
MODEL 3
REMARK VINA RESULT:      -4.0     13.913     14.654
REMARK  6 active torsions:
REMARK  status: ('A' for Active; 'I' for Inactive)
REMARK    1  A    between atoms: N_3  and  CA_7 
REMARK    2  A    between atoms: N_4  and  C_8 
REMARK    3  A    between atoms: C_5  and  C_6 
REMARK    4  A    between atoms: C_5  and  CA_7 
REMARK    5  A    between atoms: C_6  and  C_8 
REMARK    6  A    between atoms: CA_7  and  C_9 
ROOT
HETATM    1  O   UNL     1      -5.030   0.166  48.908  1.00  0.00    -0.646 OA
HETATM    2  OXT UNL     1      -3.119  -0.376  50.000  1.00  0.00    -0.646 OA
HETATM    3  C   UNL     1      -4.293  -0.609  49.749  1.00  0.00     0.204 C 
ENDROOT
BRANCH   3   4
HETATM    4  CA  UNL     1      -5.103  -1.764  50.312  1.00  0.00     0.283 C 
BRANCH   4   5
HETATM    5  N   UNL     1      -6.522  -1.457  50.126  1.00  0.00    -0.065 N 
HETATM    6  H   UNL     1      -6.754  -1.511  49.133  1.00  0.00     0.275 HD
HETATM    7  H   UNL     1      -6.713  -0.516  50.469  1.00  0.00     0.275 HD
HETATM    8  H   UNL     1      -7.086  -2.130  50.644  1.00  0.00     0.275 HD
ENDBRANCH   4   5
BRANCH   4   9
HETATM    9  C   UNL     1      -4.704  -3.113  49.694  1.00  0.00     0.045 C 
BRANCH   9  10
HETATM   10  C   UNL     1      -4.432  -4.234  50.706  1.00  0.00     0.030 C 
BRANCH  10  11
HETATM   11  C   UNL     1      -4.060  -5.535  49.994  1.00  0.00     0.230 C 
BRANCH  11  12
HETATM   12  N   UNL     1      -3.872  -5.296  48.568  1.00  0.00    -0.079 N 
HETATM   13  H   UNL     1      -4.265  -4.387  48.320  1.00  0.00     0.274 HD
HETATM   14  H   UNL     1      -4.346  -6.026  48.035  1.00  0.00     0.274 HD
HETATM   15  H   UNL     1      -2.876  -5.307  48.349  1.00  0.00     0.274 HD
ENDBRANCH  11  12
ENDBRANCH  10  11
ENDBRANCH   9  10
ENDBRANCH   4   9
ENDBRANCH   3   4
TORSDOF 6
ENDMDL
MODEL 4
REMARK VINA RESULT:      -4.0     12.773     14.255
REMARK  6 active torsions:
REMARK  status: ('A' for Active; 'I' for Inactive)
REMARK    1  A    between atoms: N_3  and  CA_7 
REMARK    2  A    between atoms: N_4  and  C_8 
REMARK    3  A    between atoms: C_5  and  C_6 
REMARK    4  A    between atoms: C_5  and  CA_7 
REMARK    5  A    between atoms: C_6  and  C_8 
REMARK    6  A    between atoms: CA_7  and  C_9 
ROOT
HETATM    1  O   UNL     1      -3.189  -0.466  50.024  1.00  0.00    -0.646 OA
HETATM    2  OXT UNL     1      -5.013   0.298  48.915  1.00  0.00    -0.646 OA
HETATM    3  C   UNL     1      -4.497  -0.530  49.653  1.00  0.00     0.204 C 
ENDROOT
BRANCH   3   4
HETATM    4  CA  UNL     1      -5.201  -1.731  50.260  1.00  0.00     0.283 C 
BRANCH   4   5
HETATM    5  N   UNL     1      -6.644  -1.520  50.138  1.00  0.00    -0.065 N 
HETATM    6  H   UNL     1      -7.036  -1.311  51.057  1.00  0.00     0.275 HD
HETATM    7  H   UNL     1      -7.080  -2.363  49.766  1.00  0.00     0.275 HD
HETATM    8  H   UNL     1      -6.820  -0.738  49.507  1.00  0.00     0.275 HD
ENDBRANCH   4   5
BRANCH   4   9
HETATM    9  C   UNL     1      -4.742  -3.056  49.634  1.00  0.00     0.045 C 
BRANCH   9  10
HETATM   10  C   UNL     1      -4.372  -4.155  50.639  1.00  0.00     0.030 C 
BRANCH  10  11
HETATM   11  C   UNL     1      -3.463  -3.606  51.739  1.00  0.00     0.230 C 
BRANCH  11  12
HETATM   12  N   UNL     1      -2.162  -3.243  51.187  1.00  0.00    -0.079 N 
HETATM   13  H   UNL     1      -1.424  -3.673  51.744  1.00  0.00     0.274 HD
HETATM   14  H   UNL     1      -2.056  -2.229  51.208  1.00  0.00     0.274 HD
HETATM   15  H   UNL     1      -2.098  -3.572  50.224  1.00  0.00     0.274 HD
ENDBRANCH  11  12
ENDBRANCH  10  11
ENDBRANCH   9  10
ENDBRANCH   4   9
ENDBRANCH   3   4
TORSDOF 6
ENDMDL
MODEL 5
REMARK VINA RESULT:      -4.0      2.443      4.093
REMARK  6 active torsions:
REMARK  status: ('A' for Active; 'I' for Inactive)
REMARK    1  A    between atoms: N_3  and  CA_7 
REMARK    2  A    between atoms: N_4  and  C_8 
REMARK    3  A    between atoms: C_5  and  C_6 
REMARK    4  A    between atoms: C_5  and  CA_7 
REMARK    5  A    between atoms: C_6  and  C_8 
REMARK    6  A    between atoms: CA_7  and  C_9 
ROOT
HETATM    1  O   UNL     1       6.108   0.198  57.542  1.00  0.00    -0.646 OA
HETATM    2  OXT UNL     1       7.895  -0.942  58.347  1.00  0.00    -0.646 OA
HETATM    3  C   UNL     1       6.762  -0.945  57.884  1.00  0.00     0.204 C 
ENDROOT
BRANCH   3   4
HETATM    4  CA  UNL     1       5.920  -2.181  57.621  1.00  0.00     0.283 C 
BRANCH   4   5
HETATM    5  N   UNL     1       5.427  -2.109  56.245  1.00  0.00    -0.065 N 
HETATM    6  H   UNL     1       5.664  -2.972  55.754  1.00  0.00     0.275 HD
HETATM    7  H   UNL     1       5.859  -1.317  55.770  1.00  0.00     0.275 HD
HETATM    8  H   UNL     1       4.414  -1.990  56.254  1.00  0.00     0.275 HD
ENDBRANCH   4   5
BRANCH   4   9
HETATM    9  C   UNL     1       6.686  -3.481  57.908  1.00  0.00     0.045 C 
BRANCH   9  10
HETATM   10  C   UNL     1       6.330  -4.164  59.236  1.00  0.00     0.030 C 
BRANCH  10  11
HETATM   11  C   UNL     1       7.501  -4.095  60.217  1.00  0.00     0.230 C 
BRANCH  11  12
HETATM   12  N   UNL     1       8.716  -3.675  59.527  1.00  0.00    -0.079 N 
HETATM   13  H   UNL     1       8.911  -2.698  59.744  1.00  0.00     0.274 HD
HETATM   14  H   UNL     1       8.588  -3.780  58.520  1.00  0.00     0.274 HD
HETATM   15  H   UNL     1       9.498  -4.254  59.833  1.00  0.00     0.274 HD
ENDBRANCH  11  12
ENDBRANCH  10  11
ENDBRANCH   9  10
ENDBRANCH   4   9
ENDBRANCH   3   4
TORSDOF 6
ENDMDL
MODEL 6
REMARK VINA RESULT:      -4.0      3.150      4.533
REMARK  6 active torsions:
REMARK  status: ('A' for Active; 'I' for Inactive)
REMARK    1  A    between atoms: N_3  and  CA_7 
REMARK    2  A    between atoms: N_4  and  C_8 
REMARK    3  A    between atoms: C_5  and  C_6 
REMARK    4  A    between atoms: C_5  and  CA_7 
REMARK    5  A    between atoms: C_6  and  C_8 
REMARK    6  A    between atoms: CA_7  and  C_9 
ROOT
HETATM    1  O   UNL     1       7.731  -0.966  52.991  1.00  0.00    -0.646 OA
HETATM    2  OXT UNL     1       6.523  -2.227  54.437  1.00  0.00    -0.646 OA
HETATM    3  C   UNL     1       6.820  -1.128  53.988  1.00  0.00     0.204 C 
ENDROOT
BRANCH   3   4
HETATM    4  CA  UNL     1       6.243   0.198  54.450  1.00  0.00     0.283 C 
BRANCH   4   5
HETATM    5  N   UNL     1       5.795   0.936  53.269  1.00  0.00    -0.065 N 
HETATM    6  H   UNL     1       4.919   1.415  53.478  1.00  0.00     0.275 HD
HETATM    7  H   UNL     1       5.651   0.285  52.497  1.00  0.00     0.275 HD
HETATM    8  H   UNL     1       6.504   1.621  53.007  1.00  0.00     0.275 HD
ENDBRANCH   4   5
BRANCH   4   9
HETATM    9  C   UNL     1       5.129   0.019  55.493  1.00  0.00     0.045 C 
BRANCH   9  10
HETATM   10  C   UNL     1       5.522   0.382  56.932  1.00  0.00     0.030 C 
BRANCH  10  11
HETATM   11  C   UNL     1       6.136  -0.820  57.650  1.00  0.00     0.230 C 
BRANCH  11  12
HETATM   12  N   UNL     1       7.570  -0.624  57.831  1.00  0.00    -0.079 N 
HETATM   13  H   UNL     1       7.961  -0.184  56.998  1.00  0.00     0.274 HD
HETATM   14  H   UNL     1       8.020  -1.527  57.981  1.00  0.00     0.274 HD
HETATM   15  H   UNL     1       7.732  -0.024  58.640  1.00  0.00     0.274 HD
ENDBRANCH  11  12
ENDBRANCH  10  11
ENDBRANCH   9  10
ENDBRANCH   4   9
ENDBRANCH   3   4
TORSDOF 6
ENDMDL
MODEL 7
REMARK VINA RESULT:      -3.9      1.918      2.337
REMARK  6 active torsions:
REMARK  status: ('A' for Active; 'I' for Inactive)
REMARK    1  A    between atoms: N_3  and  CA_7 
REMARK    2  A    between atoms: N_4  and  C_8 
REMARK    3  A    between atoms: C_5  and  C_6 
REMARK    4  A    between atoms: C_5  and  CA_7 
REMARK    5  A    between atoms: C_6  and  C_8 
REMARK    6  A    between atoms: CA_7  and  C_9 
ROOT
HETATM    1  O   UNL     1       7.943  -0.784  58.435  1.00  0.00    -0.646 OA
HETATM    2  OXT UNL     1       7.826  -3.041  58.253  1.00  0.00    -0.646 OA
HETATM    3  C   UNL     1       7.381  -1.935  57.976  1.00  0.00     0.204 C 
ENDROOT
BRANCH   3   4
HETATM    4  CA  UNL     1       6.168  -1.666  57.104  1.00  0.00     0.283 C 
BRANCH   4   5
HETATM    5  N   UNL     1       5.045  -2.438  57.636  1.00  0.00    -0.065 N 
HETATM    6  H   UNL     1       4.181  -2.136  57.187  1.00  0.00     0.275 HD
HETATM    7  H   UNL     1       4.977  -2.288  58.643  1.00  0.00     0.275 HD
HETATM    8  H   UNL     1       5.197  -3.430  57.450  1.00  0.00     0.275 HD
ENDBRANCH   4   5
BRANCH   4   9
HETATM    9  C   UNL     1       5.853  -0.166  56.989  1.00  0.00     0.045 C 
BRANCH   9  10
HETATM   10  C   UNL     1       5.164   0.253  55.683  1.00  0.00     0.030 C 
BRANCH  10  11
HETATM   11  C   UNL     1       6.039  -0.077  54.473  1.00  0.00     0.230 C 
BRANCH  11  12
HETATM   12  N   UNL     1       5.805   0.885  53.401  1.00  0.00    -0.079 N 
HETATM   13  H   UNL     1       6.404   1.698  53.537  1.00  0.00     0.274 HD
HETATM   14  H   UNL     1       4.828   1.177  53.414  1.00  0.00     0.274 HD
HETATM   15  H   UNL     1       6.019   0.451  52.503  1.00  0.00     0.274 HD
ENDBRANCH  11  12
ENDBRANCH  10  11
ENDBRANCH   9  10
ENDBRANCH   4   9
ENDBRANCH   3   4
TORSDOF 6
ENDMDL
MODEL 8
REMARK VINA RESULT:      -3.9      4.111      5.260
REMARK  6 active torsions:
REMARK  status: ('A' for Active; 'I' for Inactive)
REMARK    1  A    between atoms: N_3  and  CA_7 
REMARK    2  A    between atoms: N_4  and  C_8 
REMARK    3  A    between atoms: C_5  and  C_6 
REMARK    4  A    between atoms: C_5  and  CA_7 
REMARK    5  A    between atoms: C_6  and  C_8 
REMARK    6  A    between atoms: CA_7  and  C_9 
ROOT
HETATM    1  O   UNL     1       3.965  -5.963  57.230  1.00  0.00    -0.646 OA
HETATM    2  OXT UNL     1       3.995  -6.307  59.471  1.00  0.00    -0.646 OA
HETATM    3  C   UNL     1       4.418  -5.714  58.488  1.00  0.00     0.204 C 
ENDROOT
BRANCH   3   4
HETATM    4  CA  UNL     1       5.486  -4.635  58.502  1.00  0.00     0.283 C 
BRANCH   4   5
HETATM    5  N   UNL     1       4.826  -3.341  58.328  1.00  0.00    -0.065 N 
HETATM    6  H   UNL     1       5.107  -2.933  57.436  1.00  0.00     0.275 HD
HETATM    7  H   UNL     1       5.097  -2.716  59.088  1.00  0.00     0.275 HD
HETATM    8  H   UNL     1       3.814  -3.471  58.339  1.00  0.00     0.275 HD
ENDBRANCH   4   5
BRANCH   4   9
HETATM    9  C   UNL     1       6.355  -4.690  59.768  1.00  0.00     0.045 C 
BRANCH   9  10
HETATM   10  C   UNL     1       7.651  -3.870  59.702  1.00  0.00     0.030 C 
BRANCH  10  11
HETATM   11  C   UNL     1       8.619  -4.286  60.810  1.00  0.00     0.230 C 
BRANCH  11  12
HETATM   12  N   UNL     1       8.275  -5.613  61.311  1.00  0.00    -0.079 N 
HETATM   13  H   UNL     1       8.382  -6.297  60.563  1.00  0.00     0.274 HD
HETATM   14  H   UNL     1       7.308  -5.613  61.636  1.00  0.00     0.274 HD
HETATM   15  H   UNL     1       8.894  -5.855  62.085  1.00  0.00     0.274 HD
ENDBRANCH  11  12
ENDBRANCH  10  11
ENDBRANCH   9  10
ENDBRANCH   4   9
ENDBRANCH   3   4
TORSDOF 6
ENDMDL
MODEL 9
REMARK VINA RESULT:      -3.9      8.734      9.924
REMARK  6 active torsions:
REMARK  status: ('A' for Active; 'I' for Inactive)
REMARK    1  A    between atoms: N_3  and  CA_7 
REMARK    2  A    between atoms: N_4  and  C_8 
REMARK    3  A    between atoms: C_5  and  C_6 
REMARK    4  A    between atoms: C_5  and  CA_7 
REMARK    5  A    between atoms: C_6  and  C_8 
REMARK    6  A    between atoms: CA_7  and  C_9 
ROOT
HETATM    1  O   UNL     1       6.786  -0.630  50.391  1.00  0.00    -0.646 OA
HETATM    2  OXT UNL     1       6.726  -1.112  48.177  1.00  0.00    -0.646 OA
HETATM    3  C   UNL     1       6.174  -1.097  49.269  1.00  0.00     0.204 C 
ENDROOT
BRANCH   3   4
HETATM    4  CA  UNL     1       4.762  -1.577  49.550  1.00  0.00     0.283 C 
BRANCH   4   5
HETATM    5  N   UNL     1       4.235  -0.805  50.676  1.00  0.00    -0.065 N 
HETATM    6  H   UNL     1       5.002  -0.539  51.294  1.00  0.00     0.275 HD
HETATM    7  H   UNL     1       3.562  -1.371  51.191  1.00  0.00     0.275 HD
HETATM    8  H   UNL     1       3.774   0.035  50.324  1.00  0.00     0.275 HD
ENDBRANCH   4   5
BRANCH   4   9
HETATM    9  C   UNL     1       3.861  -1.503  48.308  1.00  0.00     0.045 C 
BRANCH   9  10
HETATM   10  C   UNL     1       3.667  -2.833  47.566  1.00  0.00     0.030 C 
BRANCH  10  11
HETATM   11  C   UNL     1       3.854  -2.650  46.060  1.00  0.00     0.230 C 
BRANCH  11  12
HETATM   12  N   UNL     1       4.872  -1.640  45.794  1.00  0.00    -0.079 N 
HETATM   13  H   UNL     1       4.443  -0.838  45.331  1.00  0.00     0.274 HD
HETATM   14  H   UNL     1       5.593  -2.035  45.190  1.00  0.00     0.274 HD
HETATM   15  H   UNL     1       5.291  -1.340  46.674  1.00  0.00     0.274 HD
ENDBRANCH  11  12
ENDBRANCH  10  11
ENDBRANCH   9  10
ENDBRANCH   4   9
ENDBRANCH   3   4
TORSDOF 6
ENDMDL
