MODEL 1
REMARK VINA RESULT:      -4.3      0.000      0.000
REMARK  6 active torsions:
REMARK  status: ('A' for Active; 'I' for Inactive)
REMARK    1  A    between atoms: N_3  and  CA_7 
REMARK    2  A    between atoms: N_4  and  C_8 
REMARK    3  A    between atoms: C_5  and  C_6 
REMARK    4  A    between atoms: C_5  and  CA_7 
REMARK    5  A    between atoms: C_6  and  C_8 
REMARK    6  A    between atoms: CA_7  and  C_9 
ROOT
HETATM    1  O   UNL     1       5.499  -9.539  58.123  1.00  0.00    -0.646 OA
HETATM    2  OXT UNL     1       3.914  -9.804  56.524  1.00  0.00    -0.646 OA
HETATM    3  C   UNL     1       4.818  -9.141  57.014  1.00  0.00     0.204 C 
ENDROOT
BRANCH   3   4
HETATM    4  CA  UNL     1       5.319  -7.808  56.489  1.00  0.00     0.283 C 
BRANCH   4   5
HETATM    5  N   UNL     1       6.607  -8.033  55.833  1.00  0.00    -0.065 N 
HETATM    6  H   UNL     1       7.023  -8.894  56.188  1.00  0.00     0.275 HD
HETATM    7  H   UNL     1       7.229  -7.248  56.027  1.00  0.00     0.275 HD
HETATM    8  H   UNL     1       6.466  -8.113  54.826  1.00  0.00     0.275 HD
ENDBRANCH   4   5
BRANCH   4   9
HETATM    9  C   UNL     1       4.298  -7.123  55.567  1.00  0.00     0.045 C 
BRANCH   9  10
HETATM   10  C   UNL     1       3.797  -5.757  56.056  1.00  0.00     0.030 C 
BRANCH  10  11
HETATM   11  C   UNL     1       3.927  -4.702  54.957  1.00  0.00     0.230 C 
BRANCH  11  12
HETATM   12  N   UNL     1       5.109  -4.961  54.143  1.00  0.00    -0.079 N 
HETATM   13  H   UNL     1       4.825  -5.348  53.244  1.00  0.00     0.274 HD
HETATM   14  H   UNL     1       5.713  -5.629  54.624  1.00  0.00     0.274 HD
HETATM   15  H   UNL     1       5.617  -4.090  53.994  1.00  0.00     0.274 HD
ENDBRANCH  11  12
ENDBRANCH  10  11
ENDBRANCH   9  10
ENDBRANCH   4   9
ENDBRANCH   3   4
TORSDOF 6
ENDMDL
MODEL 2
REMARK VINA RESULT:      -4.2      2.873      3.519
REMARK  6 active torsions:
REMARK  status: ('A' for Active; 'I' for Inactive)
REMARK    1  A    between atoms: N_3  and  CA_7 
REMARK    2  A    between atoms: N_4  and  C_8 
REMARK    3  A    between atoms: C_5  and  C_6 
REMARK    4  A    between atoms: C_5  and  CA_7 
REMARK    5  A    between atoms: C_6  and  C_8 
REMARK    6  A    between atoms: CA_7  and  C_9 
ROOT
HETATM    1  O   UNL     1       2.544 -10.231  54.647  1.00  0.00    -0.646 OA
HETATM    2  OXT UNL     1       1.891 -11.759  56.190  1.00  0.00    -0.646 OA
HETATM    3  C   UNL     1       2.463 -10.712  55.917  1.00  0.00     0.204 C 
ENDROOT
BRANCH   3   4
HETATM    4  CA  UNL     1       3.157  -9.801  56.914  1.00  0.00     0.283 C 
BRANCH   4   5
HETATM    5  N   UNL     1       4.044 -10.623  57.739  1.00  0.00    -0.065 N 
HETATM    6  H   UNL     1       3.545 -10.929  58.574  1.00  0.00     0.275 HD
HETATM    7  H   UNL     1       4.859 -10.074  58.011  1.00  0.00     0.275 HD
HETATM    8  H   UNL     1       4.345 -11.438  57.204  1.00  0.00     0.275 HD
ENDBRANCH   4   5
BRANCH   4   9
HETATM    9  C   UNL     1       3.893  -8.639  56.230  1.00  0.00     0.045 C 
BRANCH   9  10
HETATM   10  C   UNL     1       5.404  -8.585  56.492  1.00  0.00     0.030 C 
BRANCH  10  11
HETATM   11  C   UNL     1       6.146  -7.996  55.292  1.00  0.00     0.230 C 
BRANCH  11  12
HETATM   12  N   UNL     1       7.588  -8.069  55.501  1.00  0.00    -0.079 N 
HETATM   13  H   UNL     1       7.947  -7.142  55.724  1.00  0.00     0.274 HD
HETATM   14  H   UNL     1       8.037  -8.412  54.652  1.00  0.00     0.274 HD
HETATM   15  H   UNL     1       7.787  -8.706  56.273  1.00  0.00     0.274 HD
ENDBRANCH  11  12
ENDBRANCH  10  11
ENDBRANCH   9  10
ENDBRANCH   4   9
ENDBRANCH   3   4
TORSDOF 6
ENDMDL
MODEL 3
REMARK VINA RESULT:      -4.2      1.876      2.227
REMARK  6 active torsions:
REMARK  status: ('A' for Active; 'I' for Inactive)
REMARK    1  A    between atoms: N_3  and  CA_7 
REMARK    2  A    between atoms: N_4  and  C_8 
REMARK    3  A    between atoms: C_5  and  C_6 
REMARK    4  A    between atoms: C_5  and  CA_7 
REMARK    5  A    between atoms: C_6  and  C_8 
REMARK    6  A    between atoms: CA_7  and  C_9 
ROOT
HETATM    1  O   UNL     1       6.245  -8.046  55.168  1.00  0.00    -0.646 OA
HETATM    2  OXT UNL     1       5.384  -8.376  57.239  1.00  0.00    -0.646 OA
HETATM    3  C   UNL     1       5.265  -7.934  56.104  1.00  0.00     0.204 C 
ENDROOT
BRANCH   3   4
HETATM    4  CA  UNL     1       4.045  -7.208  55.565  1.00  0.00     0.283 C 
BRANCH   4   5
HETATM    5  N   UNL     1       2.871  -8.042  55.823  1.00  0.00    -0.065 N 
HETATM    6  H   UNL     1       2.024  -7.500  55.647  1.00  0.00     0.275 HD
HETATM    7  H   UNL     1       2.881  -8.351  56.795  1.00  0.00     0.275 HD
HETATM    8  H   UNL     1       2.889  -8.854  55.207  1.00  0.00     0.275 HD
ENDBRANCH   4   5
BRANCH   4   9
HETATM    9  C   UNL     1       3.904  -5.792  56.144  1.00  0.00     0.045 C 
BRANCH   9  10
HETATM   10  C   UNL     1       3.613  -4.695  55.110  1.00  0.00     0.030 C 
BRANCH  10  11
HETATM   11  C   UNL     1       4.413  -4.926  53.828  1.00  0.00     0.230 C 
BRANCH  11  12
HETATM   12  N   UNL     1       4.448  -3.707  53.027  1.00  0.00    -0.079 N 
HETATM   13  H   UNL     1       3.540  -3.246  53.068  1.00  0.00     0.274 HD
HETATM   14  H   UNL     1       4.665  -3.944  52.058  1.00  0.00     0.274 HD
HETATM   15  H   UNL     1       5.165  -3.080  53.392  1.00  0.00     0.274 HD
ENDBRANCH  11  12
ENDBRANCH  10  11
ENDBRANCH   9  10
ENDBRANCH   4   9
ENDBRANCH   3   4
TORSDOF 6
ENDMDL
MODEL 4
REMARK VINA RESULT:      -4.1     15.789     16.654
REMARK  6 active torsions:
REMARK  status: ('A' for Active; 'I' for Inactive)
REMARK    1  A    between atoms: N_3  and  CA_7 
REMARK    2  A    between atoms: N_4  and  C_8 
REMARK    3  A    between atoms: C_5  and  C_6 
REMARK    4  A    between atoms: C_5  and  CA_7 
REMARK    5  A    between atoms: C_6  and  C_8 
REMARK    6  A    between atoms: CA_7  and  C_9 
ROOT
HETATM    1  O   UNL     1      -6.744  -5.333  47.064  1.00  0.00    -0.646 OA
HETATM    2  OXT UNL     1      -6.325  -6.051  44.954  1.00  0.00    -0.646 OA
HETATM    3  C   UNL     1      -7.129  -5.744  45.825  1.00  0.00     0.204 C 
ENDROOT
BRANCH   3   4
HETATM    4  CA  UNL     1      -8.640  -5.768  45.679  1.00  0.00     0.283 C 
BRANCH   4   5
HETATM    5  N   UNL     1      -9.128  -7.035  46.225  1.00  0.00    -0.065 N 
HETATM    6  H   UNL     1     -10.029  -6.884  46.680  1.00  0.00     0.275 HD
HETATM    7  H   UNL     1      -8.458  -7.392  46.906  1.00  0.00     0.275 HD
HETATM    8  H   UNL     1      -9.238  -7.711  45.469  1.00  0.00     0.275 HD
ENDBRANCH   4   5
BRANCH   4   9
HETATM    9  C   UNL     1      -9.309  -4.547  46.327  1.00  0.00     0.045 C 
BRANCH   9  10
HETATM   10  C   UNL     1      -9.196  -3.243  45.525  1.00  0.00     0.030 C 
BRANCH  10  11
HETATM   11  C   UNL     1      -8.714  -2.095  46.413  1.00  0.00     0.230 C 
BRANCH  11  12
HETATM   12  N   UNL     1      -7.504  -2.483  47.130  1.00  0.00    -0.079 N 
HETATM   13  H   UNL     1      -6.783  -2.750  46.460  1.00  0.00     0.274 HD
HETATM   14  H   UNL     1      -7.710  -3.275  47.740  1.00  0.00     0.274 HD
HETATM   15  H   UNL     1      -7.175  -1.698  47.691  1.00  0.00     0.274 HD
ENDBRANCH  11  12
ENDBRANCH  10  11
ENDBRANCH   9  10
ENDBRANCH   4   9
ENDBRANCH   3   4
TORSDOF 6
ENDMDL
MODEL 5
REMARK VINA RESULT:      -4.0     15.044     16.216
REMARK  6 active torsions:
REMARK  status: ('A' for Active; 'I' for Inactive)
REMARK    1  A    between atoms: N_3  and  CA_7 
REMARK    2  A    between atoms: N_4  and  C_8 
REMARK    3  A    between atoms: C_5  and  C_6 
REMARK    4  A    between atoms: C_5  and  CA_7 
REMARK    5  A    between atoms: C_6  and  C_8 
REMARK    6  A    between atoms: CA_7  and  C_9 
ROOT
HETATM    1  O   UNL     1      -5.796  -3.312  46.536  1.00  0.00    -0.646 OA
HETATM    2  OXT UNL     1      -5.851  -4.981  48.070  1.00  0.00    -0.646 OA
HETATM    3  C   UNL     1      -6.263  -4.493  47.026  1.00  0.00     0.204 C 
ENDROOT
BRANCH   3   4
HETATM    4  CA  UNL     1      -7.327  -5.099  46.128  1.00  0.00     0.283 C 
BRANCH   4   5
HETATM    5  N   UNL     1      -7.289  -6.552  46.296  1.00  0.00    -0.065 N 
HETATM    6  H   UNL     1      -6.983  -6.987  45.425  1.00  0.00     0.275 HD
HETATM    7  H   UNL     1      -8.220  -6.890  46.537  1.00  0.00     0.275 HD
HETATM    8  H   UNL     1      -6.636  -6.790  47.043  1.00  0.00     0.275 HD
ENDBRANCH   4   5
BRANCH   4   9
HETATM    9  C   UNL     1      -8.720  -4.509  46.394  1.00  0.00     0.045 C 
BRANCH   9  10
HETATM   10  C   UNL     1      -9.298  -3.668  45.247  1.00  0.00     0.030 C 
BRANCH  10  11
HETATM   11  C   UNL     1      -9.174  -2.174  45.548  1.00  0.00     0.230 C 
BRANCH  11  12
HETATM   12  N   UNL     1      -8.669  -1.970  46.901  1.00  0.00    -0.079 N 
HETATM   13  H   UNL     1      -9.429  -1.658  47.505  1.00  0.00     0.274 HD
HETATM   14  H   UNL     1      -7.934  -1.263  46.887  1.00  0.00     0.274 HD
HETATM   15  H   UNL     1      -8.290  -2.847  47.258  1.00  0.00     0.274 HD
ENDBRANCH  11  12
ENDBRANCH  10  11
ENDBRANCH   9  10
ENDBRANCH   4   9
ENDBRANCH   3   4
TORSDOF 6
ENDMDL
MODEL 6
REMARK VINA RESULT:      -4.0     13.352     14.629
REMARK  6 active torsions:
REMARK  status: ('A' for Active; 'I' for Inactive)
REMARK    1  A    between atoms: N_3  and  CA_7 
REMARK    2  A    between atoms: N_4  and  C_8 
REMARK    3  A    between atoms: C_5  and  C_6 
REMARK    4  A    between atoms: C_5  and  CA_7 
REMARK    5  A    between atoms: C_6  and  C_8 
REMARK    6  A    between atoms: CA_7  and  C_9 
ROOT
HETATM    1  O   UNL     1      -4.607  -3.570  47.533  1.00  0.00    -0.646 OA
HETATM    2  OXT UNL     1      -6.193  -2.561  46.266  1.00  0.00    -0.646 OA
HETATM    3  C   UNL     1      -5.804  -3.541  46.887  1.00  0.00     0.204 C 
ENDROOT
BRANCH   3   4
HETATM    4  CA  UNL     1      -6.563  -4.847  47.040  1.00  0.00     0.283 C 
BRANCH   4   5
HETATM    5  N   UNL     1      -7.987  -4.568  46.854  1.00  0.00    -0.065 N 
HETATM    6  H   UNL     1      -8.418  -5.332  46.332  1.00  0.00     0.275 HD
HETATM    7  H   UNL     1      -8.098  -3.697  46.336  1.00  0.00     0.275 HD
HETATM    8  H   UNL     1      -8.438  -4.481  47.765  1.00  0.00     0.275 HD
ENDBRANCH   4   5
BRANCH   4   9
HETATM    9  C   UNL     1      -6.045  -5.938  46.090  1.00  0.00     0.045 C 
BRANCH   9  10
HETATM   10  C   UNL     1      -5.648  -7.255  46.770  1.00  0.00     0.030 C 
BRANCH  10  11
HETATM   11  C   UNL     1      -5.037  -6.996  48.147  1.00  0.00     0.230 C 
BRANCH  11  12
HETATM   12  N   UNL     1      -3.637  -6.606  48.015  1.00  0.00    -0.079 N 
HETATM   13  H   UNL     1      -3.581  -5.684  47.583  1.00  0.00     0.274 HD
HETATM   14  H   UNL     1      -3.149  -7.285  47.432  1.00  0.00     0.274 HD
HETATM   15  H   UNL     1      -3.204  -6.576  48.938  1.00  0.00     0.274 HD
ENDBRANCH  11  12
ENDBRANCH  10  11
ENDBRANCH   9  10
ENDBRANCH   4   9
ENDBRANCH   3   4
TORSDOF 6
ENDMDL
MODEL 7
REMARK VINA RESULT:      -4.0      3.610      4.882
REMARK  6 active torsions:
REMARK  status: ('A' for Active; 'I' for Inactive)
REMARK    1  A    between atoms: N_3  and  CA_7 
REMARK    2  A    between atoms: N_4  and  C_8 
REMARK    3  A    between atoms: C_5  and  C_6 
REMARK    4  A    between atoms: C_5  and  CA_7 
REMARK    5  A    between atoms: C_6  and  C_8 
REMARK    6  A    between atoms: CA_7  and  C_9 
ROOT
HETATM    1  O   UNL     1       1.700 -11.702  56.033  1.00  0.00    -0.646 OA
HETATM    2  OXT UNL     1       0.933  -9.594  56.364  1.00  0.00    -0.646 OA
HETATM    3  C   UNL     1       1.816 -10.347  55.977  1.00  0.00     0.204 C 
ENDROOT
BRANCH   3   4
HETATM    4  CA  UNL     1       3.148  -9.916  55.389  1.00  0.00     0.283 C 
BRANCH   4   5
HETATM    5  N   UNL     1       2.879  -9.004  54.277  1.00  0.00    -0.065 N 
HETATM    6  H   UNL     1       1.946  -9.186  53.906  1.00  0.00     0.275 HD
HETATM    7  H   UNL     1       3.571  -9.149  53.543  1.00  0.00     0.275 HD
HETATM    8  H   UNL     1       2.931  -8.040  54.608  1.00  0.00     0.275 HD
ENDBRANCH   4   5
BRANCH   4   9
HETATM    9  C   UNL     1       4.081  -9.303  56.444  1.00  0.00     0.045 C 
BRANCH   9  10
HETATM   10  C   UNL     1       4.089 -10.023  57.799  1.00  0.00     0.030 C 
BRANCH  10  11
HETATM   11  C   UNL     1       5.477 -10.583  58.113  1.00  0.00     0.230 C 
BRANCH  11  12
HETATM   12  N   UNL     1       5.367 -11.925  58.673  1.00  0.00    -0.079 N 
HETATM   13  H   UNL     1       4.859 -12.525  58.023  1.00  0.00     0.274 HD
HETATM   14  H   UNL     1       4.864 -11.883  59.560  1.00  0.00     0.274 HD
HETATM   15  H   UNL     1       6.300 -12.306  58.829  1.00  0.00     0.274 HD
ENDBRANCH  11  12
ENDBRANCH  10  11
ENDBRANCH   9  10
ENDBRANCH   4   9
ENDBRANCH   3   4
TORSDOF 6
ENDMDL
MODEL 8
REMARK VINA RESULT:      -4.0      2.564      3.885
REMARK  6 active torsions:
REMARK  status: ('A' for Active; 'I' for Inactive)
REMARK    1  A    between atoms: N_3  and  CA_7 
REMARK    2  A    between atoms: N_4  and  C_8 
REMARK    3  A    between atoms: C_5  and  C_6 
REMARK    4  A    between atoms: C_5  and  CA_7 
REMARK    5  A    between atoms: C_6  and  C_8 
REMARK    6  A    between atoms: CA_7  and  C_9 
ROOT
HETATM    1  O   UNL     1       4.438  -6.038  56.654  1.00  0.00    -0.646 OA
HETATM    2  OXT UNL     1       2.622  -4.939  55.857  1.00  0.00    -0.646 OA
HETATM    3  C   UNL     1       3.659  -5.555  55.649  1.00  0.00     0.204 C 
ENDROOT
BRANCH   3   4
HETATM    4  CA  UNL     1       4.234  -5.876  54.281  1.00  0.00     0.283 C 
BRANCH   4   5
HETATM    5  N   UNL     1       5.216  -4.843  53.948  1.00  0.00    -0.065 N 
HETATM    6  H   UNL     1       6.025  -5.275  53.500  1.00  0.00     0.275 HD
HETATM    7  H   UNL     1       5.512  -4.368  54.800  1.00  0.00     0.275 HD
HETATM    8  H   UNL     1       4.794  -4.167  53.310  1.00  0.00     0.275 HD
ENDBRANCH   4   5
BRANCH   4   9
HETATM    9  C   UNL     1       4.822  -7.294  54.212  1.00  0.00     0.045 C 
BRANCH   9  10
HETATM   10  C   UNL     1       6.242  -7.381  53.637  1.00  0.00     0.030 C 
BRANCH  10  11
HETATM   11  C   UNL     1       7.208  -7.984  54.657  1.00  0.00     0.230 C 
BRANCH  11  12
HETATM   12  N   UNL     1       6.610  -7.976  55.987  1.00  0.00    -0.079 N 
HETATM   13  H   UNL     1       6.873  -8.827  56.483  1.00  0.00     0.274 HD
HETATM   14  H   UNL     1       5.595  -7.932  55.903  1.00  0.00     0.274 HD
HETATM   15  H   UNL     1       6.944  -7.164  56.506  1.00  0.00     0.274 HD
ENDBRANCH  11  12
ENDBRANCH  10  11
ENDBRANCH   9  10
ENDBRANCH   4   9
ENDBRANCH   3   4
TORSDOF 6
ENDMDL
MODEL 9
REMARK VINA RESULT:      -4.0      1.513      1.801
REMARK  6 active torsions:
REMARK  status: ('A' for Active; 'I' for Inactive)
REMARK    1  A    between atoms: N_3  and  CA_7 
REMARK    2  A    between atoms: N_4  and  C_8 
REMARK    3  A    between atoms: C_5  and  C_6 
REMARK    4  A    between atoms: C_5  and  CA_7 
REMARK    5  A    between atoms: C_6  and  C_8 
REMARK    6  A    between atoms: CA_7  and  C_9 
ROOT
HETATM    1  O   UNL     1       3.388 -10.232  57.378  1.00  0.00    -0.646 OA
HETATM    2  OXT UNL     1       5.390  -9.241  57.763  1.00  0.00    -0.646 OA
HETATM    3  C   UNL     1       4.362  -9.324  57.103  1.00  0.00     0.204 C 
ENDROOT
BRANCH   3   4
HETATM    4  CA  UNL     1       4.010  -8.458  55.907  1.00  0.00     0.283 C 
BRANCH   4   5
HETATM    5  N   UNL     1       2.558  -8.281  55.886  1.00  0.00    -0.065 N 
HETATM    6  H   UNL     1       2.131  -9.034  55.346  1.00  0.00     0.275 HD
HETATM    7  H   UNL     1       2.331  -7.383  55.459  1.00  0.00     0.275 HD
HETATM    8  H   UNL     1       2.200  -8.302  56.842  1.00  0.00     0.275 HD
ENDBRANCH   4   5
BRANCH   4   9
HETATM    9  C   UNL     1       4.769  -7.122  55.909  1.00  0.00     0.045 C 
BRANCH   9  10
HETATM   10  C   UNL     1       3.901  -5.883  56.164  1.00  0.00     0.030 C 
BRANCH  10  11
HETATM   11  C   UNL     1       4.022  -4.884  55.013  1.00  0.00     0.230 C 
BRANCH  11  12
HETATM   12  N   UNL     1       5.199  -5.182  54.205  1.00  0.00    -0.079 N 
HETATM   13  H   UNL     1       5.434  -4.371  53.633  1.00  0.00     0.274 HD
HETATM   14  H   UNL     1       5.003  -5.980  53.600  1.00  0.00     0.274 HD
HETATM   15  H   UNL     1       5.984  -5.405  54.817  1.00  0.00     0.274 HD
ENDBRANCH  11  12
ENDBRANCH  10  11
ENDBRANCH   9  10
ENDBRANCH   4   9
ENDBRANCH   3   4
TORSDOF 6
ENDMDL
