MODEL 1
REMARK VINA RESULT:      -4.2      0.000      0.000
REMARK  6 active torsions:
REMARK  status: ('A' for Active; 'I' for Inactive)
REMARK    1  A    between atoms: N_3  and  CA_7 
REMARK    2  A    between atoms: N_4  and  C_8 
REMARK    3  A    between atoms: C_5  and  C_6 
REMARK    4  A    between atoms: C_5  and  CA_7 
REMARK    5  A    between atoms: C_6  and  C_8 
REMARK    6  A    between atoms: CA_7  and  C_9 
ROOT
HETATM    1  O   UNL     1       6.581  -4.024  58.822  1.00  0.00    -0.646 OA
HETATM    2  OXT UNL     1       8.428  -3.385  59.970  1.00  0.00    -0.646 OA
HETATM    3  C   UNL     1       7.625  -3.187  59.069  1.00  0.00     0.204 C 
ENDROOT
BRANCH   3   4
HETATM    4  CA  UNL     1       7.653  -2.015  58.104  1.00  0.00     0.283 C 
BRANCH   4   5
HETATM    5  N   UNL     1       8.573  -2.345  57.016  1.00  0.00    -0.065 N 
HETATM    6  H   UNL     1       8.496  -3.338  56.794  1.00  0.00     0.275 HD
HETATM    7  H   UNL     1       9.529  -2.134  57.303  1.00  0.00     0.275 HD
HETATM    8  H   UNL     1       8.336  -1.792  56.191  1.00  0.00     0.275 HD
ENDBRANCH   4   5
BRANCH   4   9
HETATM    9  C   UNL     1       6.251  -1.639  57.600  1.00  0.00     0.045 C 
BRANCH   9  10
HETATM   10  C   UNL     1       5.960  -0.132  57.556  1.00  0.00     0.030 C 
BRANCH  10  11
HETATM   11  C   UNL     1       5.554   0.305  56.149  1.00  0.00     0.230 C 
BRANCH  11  12
HETATM   12  N   UNL     1       6.736   0.503  55.318  1.00  0.00    -0.079 N 
HETATM   13  H   UNL     1       7.450  -0.179  55.575  1.00  0.00     0.274 HD
HETATM   14  H   UNL     1       7.099   1.445  55.463  1.00  0.00     0.274 HD
HETATM   15  H   UNL     1       6.487   0.381  54.337  1.00  0.00     0.274 HD
ENDBRANCH  11  12
ENDBRANCH  10  11
ENDBRANCH   9  10
ENDBRANCH   4   9
ENDBRANCH   3   4
TORSDOF 6
ENDMDL
MODEL 2
REMARK VINA RESULT:      -4.1      3.147      4.912
REMARK  6 active torsions:
REMARK  status: ('A' for Active; 'I' for Inactive)
REMARK    1  A    between atoms: N_3  and  CA_7 
REMARK    2  A    between atoms: N_4  and  C_8 
REMARK    3  A    between atoms: C_5  and  C_6 
REMARK    4  A    between atoms: C_5  and  CA_7 
REMARK    5  A    between atoms: C_6  and  C_8 
REMARK    6  A    between atoms: CA_7  and  C_9 
ROOT
HETATM    1  O   UNL     1       4.527  -3.665  59.671  1.00  0.00    -0.646 OA
HETATM    2  OXT UNL     1       5.568  -5.680  59.626  1.00  0.00    -0.646 OA
HETATM    3  C   UNL     1       5.534  -4.501  59.298  1.00  0.00     0.204 C 
ENDROOT
BRANCH   3   4
HETATM    4  CA  UNL     1       6.573  -3.793  58.447  1.00  0.00     0.283 C 
BRANCH   4   5
HETATM    5  N   UNL     1       5.950  -2.604  57.865  1.00  0.00    -0.065 N 
HETATM    6  H   UNL     1       4.936  -2.717  57.865  1.00  0.00     0.275 HD
HETATM    7  H   UNL     1       6.279  -2.481  56.908  1.00  0.00     0.275 HD
HETATM    8  H   UNL     1       6.201  -1.784  58.419  1.00  0.00     0.275 HD
ENDBRANCH   4   5
BRANCH   4   9
HETATM    9  C   UNL     1       7.850  -3.466  59.236  1.00  0.00     0.045 C 
BRANCH   9  10
HETATM   10  C   UNL     1       7.798  -3.821  60.729  1.00  0.00     0.030 C 
BRANCH  10  11
HETATM   11  C   UNL     1       8.805  -4.921  61.064  1.00  0.00     0.230 C 
BRANCH  11  12
HETATM   12  N   UNL     1       8.113  -6.178  61.326  1.00  0.00    -0.079 N 
HETATM   13  H   UNL     1       8.798  -6.916  61.490  1.00  0.00     0.274 HD
HETATM   14  H   UNL     1       7.537  -6.423  60.520  1.00  0.00     0.274 HD
HETATM   15  H   UNL     1       7.520  -6.076  62.149  1.00  0.00     0.274 HD
ENDBRANCH  11  12
ENDBRANCH  10  11
ENDBRANCH   9  10
ENDBRANCH   4   9
ENDBRANCH   3   4
TORSDOF 6
ENDMDL
MODEL 3
REMARK VINA RESULT:      -4.0      2.350      3.976
REMARK  6 active torsions:
REMARK  status: ('A' for Active; 'I' for Inactive)
REMARK    1  A    between atoms: N_3  and  CA_7 
REMARK    2  A    between atoms: N_4  and  C_8 
REMARK    3  A    between atoms: C_5  and  C_6 
REMARK    4  A    between atoms: C_5  and  CA_7 
REMARK    5  A    between atoms: C_6  and  C_8 
REMARK    6  A    between atoms: CA_7  and  C_9 
ROOT
HETATM    1  O   UNL     1       7.802  -0.742  58.350  1.00  0.00    -0.646 OA
HETATM    2  OXT UNL     1       5.852   0.236  57.730  1.00  0.00    -0.646 OA
HETATM    3  C   UNL     1       6.659  -0.677  57.614  1.00  0.00     0.204 C 
ENDROOT
BRANCH   3   4
HETATM    4  CA  UNL     1       6.529  -1.854  56.664  1.00  0.00     0.283 C 
BRANCH   4   5
HETATM    5  N   UNL     1       7.111  -1.466  55.379  1.00  0.00    -0.065 N 
HETATM    6  H   UNL     1       8.045  -1.084  55.531  1.00  0.00     0.275 HD
HETATM    7  H   UNL     1       6.522  -0.759  54.938  1.00  0.00     0.275 HD
HETATM    8  H   UNL     1       7.172  -2.284  54.773  1.00  0.00     0.275 HD
ENDBRANCH   4   5
BRANCH   4   9
HETATM    9  C   UNL     1       7.153  -3.137  57.233  1.00  0.00     0.045 C 
BRANCH   9  10
HETATM   10  C   UNL     1       6.286  -3.881  58.258  1.00  0.00     0.030 C 
BRANCH  10  11
HETATM   11  C   UNL     1       7.009  -4.004  59.599  1.00  0.00     0.230 C 
BRANCH  11  12
HETATM   12  N   UNL     1       8.383  -3.528  59.480  1.00  0.00    -0.079 N 
HETATM   13  H   UNL     1       8.556  -2.810  60.183  1.00  0.00     0.274 HD
HETATM   14  H   UNL     1       8.526  -3.133  58.550  1.00  0.00     0.274 HD
HETATM   15  H   UNL     1       9.026  -4.306  59.622  1.00  0.00     0.274 HD
ENDBRANCH  11  12
ENDBRANCH  10  11
ENDBRANCH   9  10
ENDBRANCH   4   9
ENDBRANCH   3   4
TORSDOF 6
ENDMDL
MODEL 4
REMARK VINA RESULT:      -4.0      1.883      2.237
REMARK  6 active torsions:
REMARK  status: ('A' for Active; 'I' for Inactive)
REMARK    1  A    between atoms: N_3  and  CA_7 
REMARK    2  A    between atoms: N_4  and  C_8 
REMARK    3  A    between atoms: C_5  and  C_6 
REMARK    4  A    between atoms: C_5  and  CA_7 
REMARK    5  A    between atoms: C_6  and  C_8 
REMARK    6  A    between atoms: CA_7  and  C_9 
ROOT
HETATM    1  O   UNL     1       8.850  -2.870  56.463  1.00  0.00    -0.646 OA
HETATM    2  OXT UNL     1       6.752  -3.175  55.660  1.00  0.00    -0.646 OA
HETATM    3  C   UNL     1       7.499  -2.721  56.517  1.00  0.00     0.204 C 
ENDROOT
BRANCH   3   4
HETATM    4  CA  UNL     1       7.062  -1.942  57.745  1.00  0.00     0.283 C 
BRANCH   4   5
HETATM    5  N   UNL     1       8.068  -0.915  58.013  1.00  0.00    -0.065 N 
HETATM    6  H   UNL     1       7.771  -0.031  57.598  1.00  0.00     0.275 HD
HETATM    7  H   UNL     1       8.960  -1.198  57.606  1.00  0.00     0.275 HD
HETATM    8  H   UNL     1       8.175  -0.799  59.021  1.00  0.00     0.275 HD
ENDBRANCH   4   5
BRANCH   4   9
HETATM    9  C   UNL     1       5.648  -1.360  57.594  1.00  0.00     0.045 C 
BRANCH   9  10
HETATM   10  C   UNL     1       5.595   0.133  57.240  1.00  0.00     0.030 C 
BRANCH  10  11
HETATM   11  C   UNL     1       5.369   0.331  55.741  1.00  0.00     0.230 C 
BRANCH  11  12
HETATM   12  N   UNL     1       6.643   0.519  55.057  1.00  0.00    -0.079 N 
HETATM   13  H   UNL     1       6.769  -0.219  54.365  1.00  0.00     0.274 HD
HETATM   14  H   UNL     1       7.402   0.481  55.736  1.00  0.00     0.274 HD
HETATM   15  H   UNL     1       6.648   1.426  54.591  1.00  0.00     0.274 HD
ENDBRANCH  11  12
ENDBRANCH  10  11
ENDBRANCH   9  10
ENDBRANCH   4   9
ENDBRANCH   3   4
TORSDOF 6
ENDMDL
MODEL 5
REMARK VINA RESULT:      -4.0     12.758     14.171
REMARK  6 active torsions:
REMARK  status: ('A' for Active; 'I' for Inactive)
REMARK    1  A    between atoms: N_3  and  CA_7 
REMARK    2  A    between atoms: N_4  and  C_8 
REMARK    3  A    between atoms: C_5  and  C_6 
REMARK    4  A    between atoms: C_5  and  CA_7 
REMARK    5  A    between atoms: C_6  and  C_8 
REMARK    6  A    between atoms: CA_7  and  C_9 
ROOT
HETATM    1  O   UNL     1      -5.010   0.164  48.905  1.00  0.00    -0.646 OA
HETATM    2  OXT UNL     1      -3.126  -0.386  50.040  1.00  0.00    -0.646 OA
HETATM    3  C   UNL     1      -4.295  -0.616  49.759  1.00  0.00     0.204 C 
ENDROOT
BRANCH   3   4
HETATM    4  CA  UNL     1      -5.119  -1.773  50.297  1.00  0.00     0.283 C 
BRANCH   4   5
HETATM    5  N   UNL     1      -6.531  -1.468  50.067  1.00  0.00    -0.065 N 
HETATM    6  H   UNL     1      -6.778  -0.608  50.557  1.00  0.00     0.275 HD
HETATM    7  H   UNL     1      -7.105  -2.235  50.417  1.00  0.00     0.275 HD
HETATM    8  H   UNL     1      -6.695  -1.350  49.067  1.00  0.00     0.275 HD
ENDBRANCH   4   5
BRANCH   4   9
HETATM    9  C   UNL     1      -4.698  -3.121  49.692  1.00  0.00     0.045 C 
BRANCH   9  10
HETATM   10  C   UNL     1      -4.348  -4.210  50.715  1.00  0.00     0.030 C 
BRANCH  10  11
HETATM   11  C   UNL     1      -3.403  -3.669  51.788  1.00  0.00     0.230 C 
BRANCH  11  12
HETATM   12  N   UNL     1      -2.133  -3.272  51.190  1.00  0.00    -0.079 N 
HETATM   13  H   UNL     1      -1.623  -2.673  51.840  1.00  0.00     0.274 HD
HETATM   14  H   UNL     1      -2.309  -2.760  50.325  1.00  0.00     0.274 HD
HETATM   15  H   UNL     1      -1.578  -4.103  50.987  1.00  0.00     0.274 HD
ENDBRANCH  11  12
ENDBRANCH  10  11
ENDBRANCH   9  10
ENDBRANCH   4   9
ENDBRANCH   3   4
TORSDOF 6
ENDMDL
MODEL 6
REMARK VINA RESULT:      -4.0      3.138      4.536
REMARK  6 active torsions:
REMARK  status: ('A' for Active; 'I' for Inactive)
REMARK    1  A    between atoms: N_3  and  CA_7 
REMARK    2  A    between atoms: N_4  and  C_8 
REMARK    3  A    between atoms: C_5  and  C_6 
REMARK    4  A    between atoms: C_5  and  CA_7 
REMARK    5  A    between atoms: C_6  and  C_8 
REMARK    6  A    between atoms: CA_7  and  C_9 
ROOT
HETATM    1  O   UNL     1       7.748  -1.104  53.155  1.00  0.00    -0.646 OA
HETATM    2  OXT UNL     1       6.200  -2.262  54.338  1.00  0.00    -0.646 OA
HETATM    3  C   UNL     1       6.687  -1.191  54.001  1.00  0.00     0.204 C 
ENDROOT
BRANCH   3   4
HETATM    4  CA  UNL     1       6.209   0.177  54.455  1.00  0.00     0.283 C 
BRANCH   4   5
HETATM    5  N   UNL     1       5.776   0.921  53.272  1.00  0.00    -0.065 N 
HETATM    6  H   UNL     1       6.513   1.567  52.988  1.00  0.00     0.275 HD
HETATM    7  H   UNL     1       4.930   1.446  53.491  1.00  0.00     0.275 HD
HETATM    8  H   UNL     1       5.584   0.268  52.511  1.00  0.00     0.275 HD
ENDBRANCH   4   5
BRANCH   4   9
HETATM    9  C   UNL     1       5.115   0.086  55.530  1.00  0.00     0.045 C 
BRANCH   9  10
HETATM   10  C   UNL     1       5.580   0.407  56.957  1.00  0.00     0.030 C 
BRANCH  10  11
HETATM   11  C   UNL     1       6.166  -0.833  57.632  1.00  0.00     0.230 C 
BRANCH  11  12
HETATM   12  N   UNL     1       7.585  -0.636  57.909  1.00  0.00    -0.079 N 
HETATM   13  H   UNL     1       7.739   0.320  58.230  1.00  0.00     0.274 HD
HETATM   14  H   UNL     1       8.123  -0.800  57.059  1.00  0.00     0.274 HD
HETATM   15  H   UNL     1       7.884  -1.289  58.633  1.00  0.00     0.274 HD
ENDBRANCH  11  12
ENDBRANCH  10  11
ENDBRANCH   9  10
ENDBRANCH   4   9
ENDBRANCH   3   4
TORSDOF 6
ENDMDL
MODEL 7
REMARK VINA RESULT:      -4.0      1.944      2.304
REMARK  6 active torsions:
REMARK  status: ('A' for Active; 'I' for Inactive)
REMARK    1  A    between atoms: N_3  and  CA_7 
REMARK    2  A    between atoms: N_4  and  C_8 
REMARK    3  A    between atoms: C_5  and  C_6 
REMARK    4  A    between atoms: C_5  and  CA_7 
REMARK    5  A    between atoms: C_6  and  C_8 
REMARK    6  A    between atoms: CA_7  and  C_9 
ROOT
HETATM    1  O   UNL     1       7.623  -3.036  58.075  1.00  0.00    -0.646 OA
HETATM    2  OXT UNL     1       7.950  -0.818  58.415  1.00  0.00    -0.646 OA
HETATM    3  C   UNL     1       7.287  -1.726  57.931  1.00  0.00     0.204 C 
ENDROOT
BRANCH   3   4
HETATM    4  CA  UNL     1       6.019  -1.552  57.114  1.00  0.00     0.283 C 
BRANCH   4   5
HETATM    5  N   UNL     1       4.998  -2.444  57.665  1.00  0.00    -0.065 N 
HETATM    6  H   UNL     1       4.341  -1.901  58.227  1.00  0.00     0.275 HD
HETATM    7  H   UNL     1       5.444  -3.150  58.250  1.00  0.00     0.275 HD
HETATM    8  H   UNL     1       4.498  -2.900  56.902  1.00  0.00     0.275 HD
ENDBRANCH   4   5
BRANCH   4   9
HETATM    9  C   UNL     1       5.557  -0.088  57.056  1.00  0.00     0.045 C 
BRANCH   9  10
HETATM   10  C   UNL     1       5.082   0.389  55.677  1.00  0.00     0.030 C 
BRANCH  10  11
HETATM   11  C   UNL     1       6.144   0.118  54.610  1.00  0.00     0.230 C 
BRANCH  11  12
HETATM   12  N   UNL     1       5.801   0.802  53.369  1.00  0.00    -0.079 N 
HETATM   13  H   UNL     1       5.848   0.143  52.592  1.00  0.00     0.274 HD
HETATM   14  H   UNL     1       6.460   1.564  53.208  1.00  0.00     0.274 HD
HETATM   15  H   UNL     1       4.856   1.179  53.437  1.00  0.00     0.274 HD
ENDBRANCH  11  12
ENDBRANCH  10  11
ENDBRANCH   9  10
ENDBRANCH   4   9
ENDBRANCH   3   4
TORSDOF 6
ENDMDL
MODEL 8
REMARK VINA RESULT:      -4.0      2.851      4.730
REMARK  6 active torsions:
REMARK  status: ('A' for Active; 'I' for Inactive)
REMARK    1  A    between atoms: N_3  and  CA_7 
REMARK    2  A    between atoms: N_4  and  C_8 
REMARK    3  A    between atoms: C_5  and  C_6 
REMARK    4  A    between atoms: C_5  and  CA_7 
REMARK    5  A    between atoms: C_6  and  C_8 
REMARK    6  A    between atoms: CA_7  and  C_9 
ROOT
HETATM    1  O   UNL     1       7.958  -0.923  58.340  1.00  0.00    -0.646 OA
HETATM    2  OXT UNL     1       6.075  -0.003  57.474  1.00  0.00    -0.646 OA
HETATM    3  C   UNL     1       6.668  -0.980  57.913  1.00  0.00     0.204 C 
ENDROOT
BRANCH   3   4
HETATM    4  CA  UNL     1       6.085  -2.376  58.052  1.00  0.00     0.283 C 
BRANCH   4   5
HETATM    5  N   UNL     1       5.388  -2.702  56.808  1.00  0.00    -0.065 N 
HETATM    6  H   UNL     1       5.565  -3.678  56.565  1.00  0.00     0.275 HD
HETATM    7  H   UNL     1       5.728  -2.099  56.059  1.00  0.00     0.275 HD
HETATM    8  H   UNL     1       4.386  -2.558  56.932  1.00  0.00     0.275 HD
ENDBRANCH   4   5
BRANCH   4   9
HETATM    9  C   UNL     1       7.150  -3.419  58.425  1.00  0.00     0.045 C 
BRANCH   9  10
HETATM   10  C   UNL     1       6.922  -4.126  59.768  1.00  0.00     0.030 C 
BRANCH  10  11
HETATM   11  C   UNL     1       8.197  -4.121  60.612  1.00  0.00     0.230 C 
BRANCH  11  12
HETATM   12  N   UNL     1       8.315  -5.368  61.359  1.00  0.00    -0.079 N 
HETATM   13  H   UNL     1       8.729  -6.085  60.762  1.00  0.00     0.274 HD
HETATM   14  H   UNL     1       7.389  -5.672  61.661  1.00  0.00     0.274 HD
HETATM   15  H   UNL     1       8.909  -5.221  62.175  1.00  0.00     0.274 HD
ENDBRANCH  11  12
ENDBRANCH  10  11
ENDBRANCH   9  10
ENDBRANCH   4   9
ENDBRANCH   3   4
TORSDOF 6
ENDMDL
MODEL 9
REMARK VINA RESULT:      -3.9      2.913      3.566
REMARK  6 active torsions:
REMARK  status: ('A' for Active; 'I' for Inactive)
REMARK    1  A    between atoms: N_3  and  CA_7 
REMARK    2  A    between atoms: N_4  and  C_8 
REMARK    3  A    between atoms: C_5  and  C_6 
REMARK    4  A    between atoms: C_5  and  CA_7 
REMARK    5  A    between atoms: C_6  and  C_8 
REMARK    6  A    between atoms: CA_7  and  C_9 
ROOT
HETATM    1  O   UNL     1       5.092  -5.118  57.488  1.00  0.00    -0.646 OA
HETATM    2  OXT UNL     1       4.625  -6.092  59.481  1.00  0.00    -0.646 OA
HETATM    3  C   UNL     1       5.125  -5.173  58.846  1.00  0.00     0.204 C 
ENDROOT
BRANCH   3   4
HETATM    4  CA  UNL     1       5.843  -3.976  59.446  1.00  0.00     0.283 C 
BRANCH   4   5
HETATM    5  N   UNL     1       6.954  -4.474  60.257  1.00  0.00    -0.065 N 
HETATM    6  H   UNL     1       7.609  -3.713  60.439  1.00  0.00     0.275 HD
HETATM    7  H   UNL     1       7.433  -5.222  59.755  1.00  0.00     0.275 HD
HETATM    8  H   UNL     1       6.595  -4.833  61.141  1.00  0.00     0.275 HD
ENDBRANCH   4   5
BRANCH   4   9
HETATM    9  C   UNL     1       6.295  -2.971  58.375  1.00  0.00     0.045 C 
BRANCH   9  10
HETATM   10  C   UNL     1       7.814  -2.877  58.174  1.00  0.00     0.030 C 
BRANCH  10  11
HETATM   11  C   UNL     1       8.161  -2.755  56.690  1.00  0.00     0.230 C 
BRANCH  11  12
HETATM   12  N   UNL     1       9.609  -2.745  56.508  1.00  0.00    -0.079 N 
HETATM   13  H   UNL     1       9.915  -1.802  56.267  1.00  0.00     0.274 HD
HETATM   14  H   UNL     1       9.861  -3.386  55.755  1.00  0.00     0.274 HD
HETATM   15  H   UNL     1      10.062  -3.039  57.372  1.00  0.00     0.274 HD
ENDBRANCH  11  12
ENDBRANCH  10  11
ENDBRANCH   9  10
ENDBRANCH   4   9
ENDBRANCH   3   4
TORSDOF 6
ENDMDL
