MODEL 1
REMARK VINA RESULT:      -2.9      0.000      0.000
REMARK  0 active torsions:
REMARK  status: ('A' for Active; 'I' for Inactive)
ROOT
ATOM      1  O   UNL A   1     -51.888  60.255   1.060  1.00  0.00    -0.648 OA
ATOM      2  O   UNL A   1     -53.107  61.219  -0.619  1.00  0.00    -0.648 OA
ATOM      3  C   UNL A   1     -50.769  61.148  -0.807  1.00  0.00     0.129 C 
ATOM      4  C   UNL A   1     -52.047  60.843  -0.045  1.00  0.00     0.168 C 
ENDROOT
TORSDOF 0
ENDMDL
MODEL 2
REMARK VINA RESULT:      -2.8     13.886     14.475
REMARK  0 active torsions:
REMARK  status: ('A' for Active; 'I' for Inactive)
ROOT
ATOM      1  O   UNL A   1     -53.448  52.596  11.609  1.00  0.00    -0.648 OA
ATOM      2  O   UNL A   1     -53.793  51.789   9.496  1.00  0.00    -0.648 OA
ATOM      3  C   UNL A   1     -53.516  50.269  11.263  1.00  0.00     0.129 C 
ATOM      4  C   UNL A   1     -53.593  51.693  10.739  1.00  0.00     0.168 C 
ENDROOT
TORSDOF 0
ENDMDL
MODEL 3
REMARK VINA RESULT:      -2.8     14.087     14.688
REMARK  0 active torsions:
REMARK  status: ('A' for Active; 'I' for Inactive)
ROOT
ATOM      1  O   UNL A   1     -53.846  51.460   9.524  1.00  0.00    -0.648 OA
ATOM      2  O   UNL A   1     -53.446  52.460  11.542  1.00  0.00    -0.648 OA
ATOM      3  C   UNL A   1     -53.479  50.116  11.421  1.00  0.00     0.129 C 
ATOM      4  C   UNL A   1     -53.603  51.480  10.762  1.00  0.00     0.168 C 
ENDROOT
TORSDOF 0
ENDMDL
MODEL 4
REMARK VINA RESULT:      -2.7      1.320      2.025
REMARK  0 active torsions:
REMARK  status: ('A' for Active; 'I' for Inactive)
ROOT
ATOM      1  O   UNL A   1     -53.042  61.175  -0.579  1.00  0.00    -0.648 OA
ATOM      2  O   UNL A   1     -50.785  60.846  -0.762  1.00  0.00    -0.648 OA
ATOM      3  C   UNL A   1     -51.798  60.646   1.346  1.00  0.00     0.129 C 
ATOM      4  C   UNL A   1     -51.885  60.916  -0.146  1.00  0.00     0.168 C 
ENDROOT
TORSDOF 0
ENDMDL
MODEL 5
REMARK VINA RESULT:      -2.7     13.883     14.493
REMARK  0 active torsions:
REMARK  status: ('A' for Active; 'I' for Inactive)
ROOT
ATOM      1  O   UNL A   1     -53.824  51.949   9.682  1.00  0.00    -0.648 OA
ATOM      2  O   UNL A   1     -53.813  49.827   8.829  1.00  0.00    -0.648 OA
ATOM      3  C   UNL A   1     -53.528  50.125  11.139  1.00  0.00     0.129 C 
ATOM      4  C   UNL A   1     -53.743  50.691   9.746  1.00  0.00     0.168 C 
ENDROOT
TORSDOF 0
ENDMDL
MODEL 6
REMARK VINA RESULT:      -2.7     13.885     14.519
REMARK  0 active torsions:
REMARK  status: ('A' for Active; 'I' for Inactive)
ROOT
ATOM      1  O   UNL A   1     -53.882  49.665   8.870  1.00  0.00    -0.648 OA
ATOM      2  O   UNL A   1     -53.748  51.848   9.538  1.00  0.00    -0.648 OA
ATOM      3  C   UNL A   1     -53.564  50.152  11.149  1.00  0.00     0.129 C 
ATOM      4  C   UNL A   1     -53.750  50.597   9.709  1.00  0.00     0.168 C 
ENDROOT
TORSDOF 0
ENDMDL
MODEL 7
REMARK VINA RESULT:      -2.6     14.838     15.443
REMARK  0 active torsions:
REMARK  status: ('A' for Active; 'I' for Inactive)
ROOT
ATOM      1  O   UNL A   1     -53.283  49.901  12.364  1.00  0.00    -0.648 OA
ATOM      2  O   UNL A   1     -53.512  51.983  11.443  1.00  0.00    -0.648 OA
ATOM      3  C   UNL A   1     -53.804  50.096  10.077  1.00  0.00     0.129 C 
ATOM      4  C   UNL A   1     -53.503  50.721  11.429  1.00  0.00     0.168 C 
ENDROOT
TORSDOF 0
ENDMDL
MODEL 8
REMARK VINA RESULT:      -2.5     15.241     15.896
REMARK  0 active torsions:
REMARK  status: ('A' for Active; 'I' for Inactive)
ROOT
ATOM      1  O   UNL A   1     -53.452  51.600  11.485  1.00  0.00    -0.648 OA
ATOM      2  O   UNL A   1     -53.234  49.652  12.664  1.00  0.00    -0.648 OA
ATOM      3  C   UNL A   1     -53.530  49.547  10.338  1.00  0.00     0.129 C 
ATOM      4  C   UNL A   1     -53.392  50.347  11.622  1.00  0.00     0.168 C 
ENDROOT
TORSDOF 0
ENDMDL
MODEL 9
REMARK VINA RESULT:      -2.5     21.460     21.745
REMARK  0 active torsions:
REMARK  status: ('A' for Active; 'I' for Inactive)
ROOT
ATOM      1  O   UNL A   1     -64.821  42.756   1.900  1.00  0.00    -0.648 OA
ATOM      2  O   UNL A   1     -64.272  42.187  -0.247  1.00  0.00    -0.648 OA
ATOM      3  C   UNL A   1     -64.045  44.422   0.431  1.00  0.00     0.129 C 
ATOM      4  C   UNL A   1     -64.416  42.979   0.725  1.00  0.00     0.168 C 
ENDROOT
TORSDOF 0
ENDMDL
