MODEL 1
REMARK VINA RESULT:      -3.7      0.000      0.000
REMARK  2 active torsions:
REMARK  status: ('A' for Active; 'I' for Inactive)
REMARK    1  A    between atoms: C_3  and  C_4 
REMARK    2  A    between atoms: C_4  and  C_6 
ROOT
ATOM      1  O   UNL A   1      13.800   3.696   8.036  1.00  0.00    -0.648 OA
ATOM      2  O   UNL A   1      12.344   4.443   9.629  1.00  0.00    -0.648 OA
ATOM      3  C   UNL A   1      13.486   4.283   9.108  1.00  0.00     0.172 C 
ENDROOT
BRANCH   3   4
ATOM      4  C   UNL A   1      14.639   4.880   9.921  1.00  0.00     0.113 C 
BRANCH   4   5
ATOM      5  C   UNL A   1      14.384   5.090  11.410  1.00  0.00     0.006 C 
ATOM      6  C   UNL A   1      15.664   5.367  12.186  1.00  0.00     0.005 C 
ENDBRANCH   4   5
ENDBRANCH   3   4
TORSDOF 2
ENDMDL
MODEL 2
REMARK VINA RESULT:      -3.7      0.108      1.322
REMARK  2 active torsions:
REMARK  status: ('A' for Active; 'I' for Inactive)
REMARK    1  A    between atoms: C_3  and  C_4 
REMARK    2  A    between atoms: C_4  and  C_6 
ROOT
ATOM      1  O   UNL A   1      12.363   4.302   9.718  1.00  0.00    -0.648 OA
ATOM      2  O   UNL A   1      13.838   3.709   8.077  1.00  0.00    -0.648 OA
ATOM      3  C   UNL A   1      13.501   4.243   9.174  1.00  0.00     0.172 C 
ENDROOT
BRANCH   3   4
ATOM      4  C   UNL A   1      14.651   4.925   9.922  1.00  0.00     0.113 C 
BRANCH   4   5
ATOM      5  C   UNL A   1      14.480   5.088  11.428  1.00  0.00     0.006 C 
ATOM      6  C   UNL A   1      15.791   5.413  12.131  1.00  0.00     0.005 C 
ENDBRANCH   4   5
ENDBRANCH   3   4
TORSDOF 2
ENDMDL
MODEL 3
REMARK VINA RESULT:      -3.7      5.666      6.400
REMARK  2 active torsions:
REMARK  status: ('A' for Active; 'I' for Inactive)
REMARK    1  A    between atoms: C_3  and  C_4 
REMARK    2  A    between atoms: C_4  and  C_6 
ROOT
ATOM      1  O   UNL A   1      12.381   6.502  13.681  1.00  0.00    -0.648 OA
ATOM      2  O   UNL A   1      11.330   7.707  15.313  1.00  0.00    -0.648 OA
ATOM      3  C   UNL A   1      11.868   7.542  14.179  1.00  0.00     0.172 C 
ENDROOT
BRANCH   3   4
ATOM      4  C   UNL A   1      11.906   8.804  13.312  1.00  0.00     0.113 C 
BRANCH   4   5
ATOM      5  C   UNL A   1      12.447  10.068  13.971  1.00  0.00     0.006 C 
ATOM      6  C   UNL A   1      11.850  11.336  13.378  1.00  0.00     0.005 C 
ENDBRANCH   4   5
ENDBRANCH   3   4
TORSDOF 2
ENDMDL
MODEL 4
REMARK VINA RESULT:      -3.6      5.286      5.983
REMARK  2 active torsions:
REMARK  status: ('A' for Active; 'I' for Inactive)
REMARK    1  A    between atoms: C_3  and  C_4 
REMARK    2  A    between atoms: C_4  and  C_6 
ROOT
ATOM      1  O   UNL A   1      13.945   7.914  13.232  1.00  0.00    -0.648 OA
ATOM      2  O   UNL A   1      12.051   6.868  12.500  1.00  0.00    -0.648 OA
ATOM      3  C   UNL A   1      12.700   7.797  13.063  1.00  0.00     0.172 C 
ENDROOT
BRANCH   3   4
ATOM      4  C   UNL A   1      11.827   8.921  13.629  1.00  0.00     0.113 C 
BRANCH   4   5
ATOM      5  C   UNL A   1      12.530  10.237  13.944  1.00  0.00     0.006 C 
ATOM      6  C   UNL A   1      11.830  11.436  13.320  1.00  0.00     0.005 C 
ENDBRANCH   4   5
ENDBRANCH   3   4
TORSDOF 2
ENDMDL
MODEL 5
REMARK VINA RESULT:      -3.5      1.107      1.171
REMARK  2 active torsions:
REMARK  status: ('A' for Active; 'I' for Inactive)
REMARK    1  A    between atoms: C_3  and  C_4 
REMARK    2  A    between atoms: C_4  and  C_6 
ROOT
ATOM      1  O   UNL A   1      14.339   3.881   8.676  1.00  0.00    -0.648 OA
ATOM      2  O   UNL A   1      12.337   4.455   9.613  1.00  0.00    -0.648 OA
ATOM      3  C   UNL A   1      13.599   4.388   9.564  1.00  0.00     0.172 C 
ENDROOT
BRANCH   3   4
ATOM      4  C   UNL A   1      14.310   4.999  10.776  1.00  0.00     0.113 C 
BRANCH   4   5
ATOM      5  C   UNL A   1      15.292   6.129  10.491  1.00  0.00     0.006 C 
ATOM      6  C   UNL A   1      16.742   5.691  10.641  1.00  0.00     0.005 C 
ENDBRANCH   4   5
ENDBRANCH   3   4
TORSDOF 2
ENDMDL
MODEL 6
REMARK VINA RESULT:      -3.4      1.022      1.753
REMARK  2 active torsions:
REMARK  status: ('A' for Active; 'I' for Inactive)
REMARK    1  A    between atoms: C_3  and  C_4 
REMARK    2  A    between atoms: C_4  and  C_6 
ROOT
ATOM      1  O   UNL A   1      12.288   4.608  10.183  1.00  0.00    -0.648 OA
ATOM      2  O   UNL A   1      14.038   4.277   8.752  1.00  0.00    -0.648 OA
ATOM      3  C   UNL A   1      13.506   4.606   9.852  1.00  0.00     0.172 C 
ENDROOT
BRANCH   3   4
ATOM      4  C   UNL A   1      14.501   5.086  10.914  1.00  0.00     0.113 C 
BRANCH   4   5
ATOM      5  C   UNL A   1      15.906   5.423  10.427  1.00  0.00     0.006 C 
ATOM      6  C   UNL A   1      16.854   5.755  11.570  1.00  0.00     0.005 C 
ENDBRANCH   4   5
ENDBRANCH   3   4
TORSDOF 2
ENDMDL
MODEL 7
REMARK VINA RESULT:      -3.4      2.527      3.388
REMARK  2 active torsions:
REMARK  status: ('A' for Active; 'I' for Inactive)
REMARK    1  A    between atoms: C_3  and  C_4 
REMARK    2  A    between atoms: C_4  and  C_6 
ROOT
ATOM      1  O   UNL A   1      11.639   5.538  11.483  1.00  0.00    -0.648 OA
ATOM      2  O   UNL A   1      12.306   3.489  12.240  1.00  0.00    -0.648 OA
ATOM      3  C   UNL A   1      12.362   4.503  11.485  1.00  0.00     0.172 C 
ENDROOT
BRANCH   3   4
ATOM      4  C   UNL A   1      13.458   4.434  10.418  1.00  0.00     0.113 C 
BRANCH   4   5
ATOM      5  C   UNL A   1      13.006   4.118   8.997  1.00  0.00     0.006 C 
ATOM      6  C   UNL A   1      13.799   2.978   8.374  1.00  0.00     0.005 C 
ENDBRANCH   4   5
ENDBRANCH   3   4
TORSDOF 2
ENDMDL
MODEL 8
REMARK VINA RESULT:      -3.2      2.178      2.534
REMARK  2 active torsions:
REMARK  status: ('A' for Active; 'I' for Inactive)
REMARK    1  A    between atoms: C_3  and  C_4 
REMARK    2  A    between atoms: C_4  and  C_6 
ROOT
ATOM      1  O   UNL A   1      11.669   5.536  11.487  1.00  0.00    -0.648 OA
ATOM      2  O   UNL A   1      12.301   3.508  12.327  1.00  0.00    -0.648 OA
ATOM      3  C   UNL A   1      12.358   4.480  11.518  1.00  0.00     0.172 C 
ENDROOT
BRANCH   3   4
ATOM      4  C   UNL A   1      13.410   4.320  10.416  1.00  0.00     0.113 C 
BRANCH   4   5
ATOM      5  C   UNL A   1      14.572   5.307  10.435  1.00  0.00     0.006 C 
ATOM      6  C   UNL A   1      15.358   5.256  11.737  1.00  0.00     0.005 C 
ENDBRANCH   4   5
ENDBRANCH   3   4
TORSDOF 2
ENDMDL
MODEL 9
REMARK VINA RESULT:      -3.2      1.272      1.918
REMARK  2 active torsions:
REMARK  status: ('A' for Active; 'I' for Inactive)
REMARK    1  A    between atoms: C_3  and  C_4 
REMARK    2  A    between atoms: C_4  and  C_6 
ROOT
ATOM      1  O   UNL A   1      11.994   4.929  11.322  1.00  0.00    -0.648 OA
ATOM      2  O   UNL A   1      12.498   4.150   9.235  1.00  0.00    -0.648 OA
ATOM      3  C   UNL A   1      12.770   4.641  10.369  1.00  0.00     0.172 C 
ENDROOT
BRANCH   3   4
ATOM      4  C   UNL A   1      14.257   4.935  10.588  1.00  0.00     0.113 C 
BRANCH   4   5
ATOM      5  C   UNL A   1      14.668   5.359  11.994  1.00  0.00     0.006 C 
ATOM      6  C   UNL A   1      14.856   6.864  12.116  1.00  0.00     0.005 C 
ENDBRANCH   4   5
ENDBRANCH   3   4
TORSDOF 2
ENDMDL
