MODEL 1
REMARK VINA RESULT:      -3.8      0.000      0.000
REMARK  2 active torsions:
REMARK  status: ('A' for Active; 'I' for Inactive)
REMARK    1  A    between atoms: C_3  and  C_4 
REMARK    2  A    between atoms: C_4  and  C_6 
ROOT
ATOM      1  O   UNL A   1      11.222   7.694  14.977  1.00  0.00    -0.648 OA
ATOM      2  O   UNL A   1      11.695   7.414  12.759  1.00  0.00    -0.648 OA
ATOM      3  C   UNL A   1      11.744   8.013  13.872  1.00  0.00     0.172 C 
ENDROOT
BRANCH   3   4
ATOM      4  C   UNL A   1      12.543   9.320  13.849  1.00  0.00     0.113 C 
BRANCH   4   5
ATOM      5  C   UNL A   1      11.777  10.579  13.455  1.00  0.00     0.006 C 
ATOM      6  C   UNL A   1      12.591  11.847  13.669  1.00  0.00     0.005 C 
ENDBRANCH   4   5
ENDBRANCH   3   4
TORSDOF 2
ENDMDL
MODEL 2
REMARK VINA RESULT:      -3.8      6.315      7.249
REMARK  2 active torsions:
REMARK  status: ('A' for Active; 'I' for Inactive)
REMARK    1  A    between atoms: C_3  and  C_4 
REMARK    2  A    between atoms: C_4  and  C_6 
ROOT
ATOM      1  O   UNL A   1      14.060   2.954   7.777  1.00  0.00    -0.648 OA
ATOM      2  O   UNL A   1      12.837   4.872   7.980  1.00  0.00    -0.648 OA
ATOM      3  C   UNL A   1      13.319   3.775   8.385  1.00  0.00     0.172 C 
ENDROOT
BRANCH   3   4
ATOM      4  C   UNL A   1      12.918   3.400   9.816  1.00  0.00     0.113 C 
BRANCH   4   5
ATOM      5  C   UNL A   1      12.891   4.534  10.834  1.00  0.00     0.006 C 
ATOM      6  C   UNL A   1      14.286   5.004  11.221  1.00  0.00     0.005 C 
ENDBRANCH   4   5
ENDBRANCH   3   4
TORSDOF 2
ENDMDL
MODEL 3
REMARK VINA RESULT:      -3.7      5.828      6.629
REMARK  2 active torsions:
REMARK  status: ('A' for Active; 'I' for Inactive)
REMARK    1  A    between atoms: C_3  and  C_4 
REMARK    2  A    between atoms: C_4  and  C_6 
ROOT
ATOM      1  O   UNL A   1      13.864   3.666   8.068  1.00  0.00    -0.648 OA
ATOM      2  O   UNL A   1      12.349   4.435   9.596  1.00  0.00    -0.648 OA
ATOM      3  C   UNL A   1      13.508   4.284   9.109  1.00  0.00     0.172 C 
ENDROOT
BRANCH   3   4
ATOM      4  C   UNL A   1      14.624   4.941   9.928  1.00  0.00     0.113 C 
BRANCH   4   5
ATOM      5  C   UNL A   1      14.380   5.076  11.427  1.00  0.00     0.006 C 
ATOM      6  C   UNL A   1      15.659   5.358  12.202  1.00  0.00     0.005 C 
ENDBRANCH   4   5
ENDBRANCH   3   4
TORSDOF 2
ENDMDL
MODEL 4
REMARK VINA RESULT:      -3.7      5.854      6.523
REMARK  2 active torsions:
REMARK  status: ('A' for Active; 'I' for Inactive)
REMARK    1  A    between atoms: C_3  and  C_4 
REMARK    2  A    between atoms: C_4  and  C_6 
ROOT
ATOM      1  O   UNL A   1      12.339   4.348   9.642  1.00  0.00    -0.648 OA
ATOM      2  O   UNL A   1      13.875   3.674   8.091  1.00  0.00    -0.648 OA
ATOM      3  C   UNL A   1      13.498   4.254   9.151  1.00  0.00     0.172 C 
ENDROOT
BRANCH   3   4
ATOM      4  C   UNL A   1      14.624   4.950   9.922  1.00  0.00     0.113 C 
BRANCH   4   5
ATOM      5  C   UNL A   1      14.450   5.055  11.433  1.00  0.00     0.006 C 
ATOM      6  C   UNL A   1      15.748   5.403  12.146  1.00  0.00     0.005 C 
ENDBRANCH   4   5
ENDBRANCH   3   4
TORSDOF 2
ENDMDL
MODEL 5
REMARK VINA RESULT:      -3.5      5.899      7.163
REMARK  2 active torsions:
REMARK  status: ('A' for Active; 'I' for Inactive)
REMARK    1  A    between atoms: C_3  and  C_4 
REMARK    2  A    between atoms: C_4  and  C_6 
ROOT
ATOM      1  O   UNL A   1      14.179   5.209  11.738  1.00  0.00    -0.648 OA
ATOM      2  O   UNL A   1      14.624   5.793   9.574  1.00  0.00    -0.648 OA
ATOM      3  C   UNL A   1      14.055   5.123  10.484  1.00  0.00     0.172 C 
ENDROOT
BRANCH   3   4
ATOM      4  C   UNL A   1      13.095   4.047   9.967  1.00  0.00     0.113 C 
BRANCH   4   5
ATOM      5  C   UNL A   1      13.190   3.706   8.484  1.00  0.00     0.006 C 
ATOM      6  C   UNL A   1      14.126   2.537   8.214  1.00  0.00     0.005 C 
ENDBRANCH   4   5
ENDBRANCH   3   4
TORSDOF 2
ENDMDL
MODEL 6
REMARK VINA RESULT:      -3.5      6.064      7.176
REMARK  2 active torsions:
REMARK  status: ('A' for Active; 'I' for Inactive)
REMARK    1  A    between atoms: C_3  and  C_4 
REMARK    2  A    between atoms: C_4  and  C_6 
ROOT
ATOM      1  O   UNL A   1      16.147   4.992   9.694  1.00  0.00    -0.648 OA
ATOM      2  O   UNL A   1      14.891   6.772  10.380  1.00  0.00    -0.648 OA
ATOM      3  C   UNL A   1      15.099   5.552  10.121  1.00  0.00     0.172 C 
ENDROOT
BRANCH   3   4
ATOM      4  C   UNL A   1      13.886   4.644  10.348  1.00  0.00     0.113 C 
BRANCH   4   5
ATOM      5  C   UNL A   1      13.057   4.294   9.117  1.00  0.00     0.006 C 
ATOM      6  C   UNL A   1      13.593   3.074   8.382  1.00  0.00     0.005 C 
ENDBRANCH   4   5
ENDBRANCH   3   4
TORSDOF 2
ENDMDL
MODEL 7
REMARK VINA RESULT:      -3.4      5.296      6.541
REMARK  2 active torsions:
REMARK  status: ('A' for Active; 'I' for Inactive)
REMARK    1  A    between atoms: C_3  and  C_4 
REMARK    2  A    between atoms: C_4  and  C_6 
ROOT
ATOM      1  O   UNL A   1      11.578   5.534  11.436  1.00  0.00    -0.648 OA
ATOM      2  O   UNL A   1      12.341   3.549  12.269  1.00  0.00    -0.648 OA
ATOM      3  C   UNL A   1      12.352   4.538  11.480  1.00  0.00     0.172 C 
ENDROOT
BRANCH   3   4
ATOM      4  C   UNL A   1      13.461   4.489  10.424  1.00  0.00     0.113 C 
BRANCH   4   5
ATOM      5  C   UNL A   1      13.027   4.193   8.993  1.00  0.00     0.006 C 
ATOM      6  C   UNL A   1      13.750   2.992   8.402  1.00  0.00     0.005 C 
ENDBRANCH   4   5
ENDBRANCH   3   4
TORSDOF 2
ENDMDL
MODEL 8
REMARK VINA RESULT:      -3.3      5.353      6.032
REMARK  2 active torsions:
REMARK  status: ('A' for Active; 'I' for Inactive)
REMARK    1  A    between atoms: C_3  and  C_4 
REMARK    2  A    between atoms: C_4  and  C_6 
ROOT
ATOM      1  O   UNL A   1      12.176   4.886  10.803  1.00  0.00    -0.648 OA
ATOM      2  O   UNL A   1      12.710   3.196   9.362  1.00  0.00    -0.648 OA
ATOM      3  C   UNL A   1      12.949   4.229  10.052  1.00  0.00     0.172 C 
ENDROOT
BRANCH   3   4
ATOM      4  C   UNL A   1      14.384   4.751   9.927  1.00  0.00     0.113 C 
BRANCH   4   5
ATOM      5  C   UNL A   1      14.799   5.843  10.906  1.00  0.00     0.006 C 
ATOM      6  C   UNL A   1      15.478   5.285  12.148  1.00  0.00     0.005 C 
ENDBRANCH   4   5
ENDBRANCH   3   4
TORSDOF 2
ENDMDL
MODEL 9
REMARK VINA RESULT:      -3.3      5.295      6.538
REMARK  2 active torsions:
REMARK  status: ('A' for Active; 'I' for Inactive)
REMARK    1  A    between atoms: C_3  and  C_4 
REMARK    2  A    between atoms: C_4  and  C_6 
ROOT
ATOM      1  O   UNL A   1      14.555   5.258   9.366  1.00  0.00    -0.648 OA
ATOM      2  O   UNL A   1      13.677   3.620   8.038  1.00  0.00    -0.648 OA
ATOM      3  C   UNL A   1      13.774   4.304   9.098  1.00  0.00     0.172 C 
ENDROOT
BRANCH   3   4
ATOM      4  C   UNL A   1      12.806   3.884  10.209  1.00  0.00     0.113 C 
BRANCH   4   5
ATOM      5  C   UNL A   1      13.046   4.491  11.586  1.00  0.00     0.006 C 
ATOM      6  C   UNL A   1      12.128   5.670  11.872  1.00  0.00     0.005 C 
ENDBRANCH   4   5
ENDBRANCH   3   4
TORSDOF 2
ENDMDL
