MODEL 1
REMARK VINA RESULT:      -3.7      0.000      0.000
REMARK  2 active torsions:
REMARK  status: ('A' for Active; 'I' for Inactive)
REMARK    1  A    between atoms: C_3  and  C_4 
REMARK    2  A    between atoms: C_4  and  C_6 
ROOT
ATOM      1  O   UNL A   1      11.248   5.581   5.032  1.00  0.00    -0.648 OA
ATOM      2  O   UNL A   1      10.310   7.553   5.704  1.00  0.00    -0.648 OA
ATOM      3  C   UNL A   1      10.690   6.356   5.858  1.00  0.00     0.172 C 
ENDROOT
BRANCH   3   4
ATOM      4  C   UNL A   1      10.403   5.778   7.248  1.00  0.00     0.113 C 
BRANCH   4   5
ATOM      5  C   UNL A   1      10.876   6.605   8.439  1.00  0.00     0.006 C 
ATOM      6  C   UNL A   1      12.379   6.844   8.422  1.00  0.00     0.005 C 
ENDBRANCH   4   5
ENDBRANCH   3   4
TORSDOF 2
ENDMDL
MODEL 2
REMARK VINA RESULT:      -3.7      1.194      1.564
REMARK  2 active torsions:
REMARK  status: ('A' for Active; 'I' for Inactive)
REMARK    1  A    between atoms: C_3  and  C_4 
REMARK    2  A    between atoms: C_4  and  C_6 
ROOT
ATOM      1  O   UNL A   1      11.117   6.164   5.394  1.00  0.00    -0.648 OA
ATOM      2  O   UNL A   1      10.030   6.877   7.272  1.00  0.00    -0.648 OA
ATOM      3  C   UNL A   1      11.050   6.620   6.569  1.00  0.00     0.172 C 
ENDROOT
BRANCH   3   4
ATOM      4  C   UNL A   1      12.384   6.891   7.272  1.00  0.00     0.113 C 
BRANCH   4   5
ATOM      5  C   UNL A   1      12.380   6.809   8.794  1.00  0.00     0.006 C 
ATOM      6  C   UNL A   1      13.785   6.743   9.378  1.00  0.00     0.005 C 
ENDBRANCH   4   5
ENDBRANCH   3   4
TORSDOF 2
ENDMDL
MODEL 3
REMARK VINA RESULT:      -3.6      6.259      7.029
REMARK  2 active torsions:
REMARK  status: ('A' for Active; 'I' for Inactive)
REMARK    1  A    between atoms: C_3  and  C_4 
REMARK    2  A    between atoms: C_4  and  C_6 
ROOT
ATOM      1  O   UNL A   1      11.000   8.128  11.507  1.00  0.00    -0.648 OA
ATOM      2  O   UNL A   1      10.510   9.090  13.520  1.00  0.00    -0.648 OA
ATOM      3  C   UNL A   1      10.814   9.099  12.292  1.00  0.00     0.172 C 
ENDROOT
BRANCH   3   4
ATOM      4  C   UNL A   1      10.994  10.500  11.698  1.00  0.00     0.113 C 
BRANCH   4   5
ATOM      5  C   UNL A   1      11.883  11.461  12.480  1.00  0.00     0.006 C 
ATOM      6  C   UNL A   1      11.518  12.919  12.238  1.00  0.00     0.005 C 
ENDBRANCH   4   5
ENDBRANCH   3   4
TORSDOF 2
ENDMDL
MODEL 4
REMARK VINA RESULT:      -3.6      7.048      8.074
REMARK  2 active torsions:
REMARK  status: ('A' for Active; 'I' for Inactive)
REMARK    1  A    between atoms: C_3  and  C_4 
REMARK    2  A    between atoms: C_4  and  C_6 
ROOT
ATOM      1  O   UNL A   1      12.946  13.665  12.756  1.00  0.00    -0.648 OA
ATOM      2  O   UNL A   1      10.901  13.332  11.793  1.00  0.00    -0.648 OA
ATOM      3  C   UNL A   1      11.976  12.966  12.350  1.00  0.00     0.172 C 
ENDROOT
BRANCH   3   4
ATOM      4  C   UNL A   1      12.107  11.450  12.531  1.00  0.00     0.113 C 
BRANCH   4   5
ATOM      5  C   UNL A   1      11.054  10.589  11.842  1.00  0.00     0.006 C 
ATOM      6  C   UNL A   1      11.651   9.353  11.185  1.00  0.00     0.005 C 
ENDBRANCH   4   5
ENDBRANCH   3   4
TORSDOF 2
ENDMDL
MODEL 5
REMARK VINA RESULT:      -3.5      2.175      3.054
REMARK  2 active torsions:
REMARK  status: ('A' for Active; 'I' for Inactive)
REMARK    1  A    between atoms: C_3  and  C_4 
REMARK    2  A    between atoms: C_4  and  C_6 
ROOT
ATOM      1  O   UNL A   1      12.735   7.674   7.145  1.00  0.00    -0.648 OA
ATOM      2  O   UNL A   1      12.483   6.571   9.129  1.00  0.00    -0.648 OA
ATOM      3  C   UNL A   1      12.138   6.921   7.963  1.00  0.00     0.172 C 
ENDROOT
BRANCH   3   4
ATOM      4  C   UNL A   1      10.790   6.353   7.508  1.00  0.00     0.113 C 
BRANCH   4   5
ATOM      5  C   UNL A   1      10.548   6.297   6.004  1.00  0.00     0.006 C 
ATOM      6  C   UNL A   1      11.185   5.076   5.356  1.00  0.00     0.005 C 
ENDBRANCH   4   5
ENDBRANCH   3   4
TORSDOF 2
ENDMDL
MODEL 6
REMARK VINA RESULT:      -3.4      1.568      2.094
REMARK  2 active torsions:
REMARK  status: ('A' for Active; 'I' for Inactive)
REMARK    1  A    between atoms: C_3  and  C_4 
REMARK    2  A    between atoms: C_4  and  C_6 
ROOT
ATOM      1  O   UNL A   1      11.721   6.249   5.949  1.00  0.00    -0.648 OA
ATOM      2  O   UNL A   1      10.049   6.923   7.351  1.00  0.00    -0.648 OA
ATOM      3  C   UNL A   1      11.249   6.668   7.041  1.00  0.00     0.172 C 
ENDROOT
BRANCH   3   4
ATOM      4  C   UNL A   1      12.253   6.890   8.177  1.00  0.00     0.113 C 
BRANCH   4   5
ATOM      5  C   UNL A   1      13.381   7.879   7.906  1.00  0.00     0.006 C 
ATOM      6  C   UNL A   1      14.733   7.195   7.762  1.00  0.00     0.005 C 
ENDBRANCH   4   5
ENDBRANCH   3   4
TORSDOF 2
ENDMDL
MODEL 7
REMARK VINA RESULT:      -3.4      2.252      3.254
REMARK  2 active torsions:
REMARK  status: ('A' for Active; 'I' for Inactive)
REMARK    1  A    between atoms: C_3  and  C_4 
REMARK    2  A    between atoms: C_4  and  C_6 
ROOT
ATOM      1  O   UNL A   1      13.231   8.474   8.213  1.00  0.00    -0.648 OA
ATOM      2  O   UNL A   1      13.801   6.806   6.760  1.00  0.00    -0.648 OA
ATOM      3  C   UNL A   1      13.034   7.410   7.565  1.00  0.00     0.172 C 
ENDROOT
BRANCH   3   4
ATOM      4  C   UNL A   1      11.682   6.721   7.782  1.00  0.00     0.113 C 
BRANCH   4   5
ATOM      5  C   UNL A   1      10.652   6.878   6.670  1.00  0.00     0.006 C 
ATOM      6  C   UNL A   1      10.697   5.733   5.668  1.00  0.00     0.005 C 
ENDBRANCH   4   5
ENDBRANCH   3   4
TORSDOF 2
ENDMDL
MODEL 8
REMARK VINA RESULT:      -3.3      2.546      3.343
REMARK  2 active torsions:
REMARK  status: ('A' for Active; 'I' for Inactive)
REMARK    1  A    between atoms: C_3  and  C_4 
REMARK    2  A    between atoms: C_4  and  C_6 
ROOT
ATOM      1  O   UNL A   1      11.749   6.574   9.984  1.00  0.00    -0.648 OA
ATOM      2  O   UNL A   1       9.789   7.436   9.186  1.00  0.00    -0.648 OA
ATOM      3  C   UNL A   1      10.929   6.896   9.080  1.00  0.00     0.172 C 
ENDROOT
BRANCH   3   4
ATOM      4  C   UNL A   1      11.362   6.619   7.636  1.00  0.00     0.113 C 
BRANCH   4   5
ATOM      5  C   UNL A   1      10.404   5.794   6.784  1.00  0.00     0.006 C 
ATOM      6  C   UNL A   1      11.030   5.350   5.470  1.00  0.00     0.005 C 
ENDBRANCH   4   5
ENDBRANCH   3   4
TORSDOF 2
ENDMDL
MODEL 9
REMARK VINA RESULT:      -3.2      1.675      2.065
REMARK  2 active torsions:
REMARK  status: ('A' for Active; 'I' for Inactive)
REMARK    1  A    between atoms: C_3  and  C_4 
REMARK    2  A    between atoms: C_4  and  C_6 
ROOT
ATOM      1  O   UNL A   1      12.145   6.465   6.320  1.00  0.00    -0.648 OA
ATOM      2  O   UNL A   1      10.083   6.920   7.191  1.00  0.00    -0.648 OA
ATOM      3  C   UNL A   1      11.343   6.807   7.232  1.00  0.00     0.172 C 
ENDROOT
BRANCH   3   4
ATOM      4  C   UNL A   1      11.959   7.119   8.600  1.00  0.00     0.113 C 
BRANCH   4   5
ATOM      5  C   UNL A   1      11.047   6.955   9.810  1.00  0.00     0.006 C 
ATOM      6  C   UNL A   1      10.676   8.288  10.445  1.00  0.00     0.005 C 
ENDBRANCH   4   5
ENDBRANCH   3   4
TORSDOF 2
ENDMDL
