MODEL 1
REMARK VINA RESULT:      -3.7      0.000      0.000
REMARK  2 active torsions:
REMARK  status: ('A' for Active; 'I' for Inactive)
REMARK    1  A    between atoms: C_3  and  C_4 
REMARK    2  A    between atoms: C_4  and  C_6 
ROOT
ATOM      1  O   UNL A   1      10.336   7.579   5.702  1.00  0.00    -0.648 OA
ATOM      2  O   UNL A   1      11.223   5.583   5.032  1.00  0.00    -0.648 OA
ATOM      3  C   UNL A   1      10.674   6.373   5.855  1.00  0.00     0.172 C 
ENDROOT
BRANCH   3   4
ATOM      4  C   UNL A   1      10.409   5.760   7.234  1.00  0.00     0.113 C 
BRANCH   4   5
ATOM      5  C   UNL A   1      10.872   6.572   8.439  1.00  0.00     0.006 C 
ATOM      6  C   UNL A   1      12.369   6.844   8.418  1.00  0.00     0.005 C 
ENDBRANCH   4   5
ENDBRANCH   3   4
TORSDOF 2
ENDMDL
MODEL 2
REMARK VINA RESULT:      -3.7      6.369      7.249
REMARK  2 active torsions:
REMARK  status: ('A' for Active; 'I' for Inactive)
REMARK    1  A    between atoms: C_3  and  C_4 
REMARK    2  A    between atoms: C_4  and  C_6 
ROOT
ATOM      1  O   UNL A   1      10.410   9.307  10.937  1.00  0.00    -0.648 OA
ATOM      2  O   UNL A   1      10.387   9.198  13.219  1.00  0.00    -0.648 OA
ATOM      3  C   UNL A   1      10.761   9.653  12.099  1.00  0.00     0.172 C 
ENDROOT
BRANCH   3   4
ATOM      4  C   UNL A   1      11.804  10.772  12.191  1.00  0.00     0.113 C 
BRANCH   4   5
ATOM      5  C   UNL A   1      11.273  12.201  12.155  1.00  0.00     0.006 C 
ATOM      6  C   UNL A   1      12.354  13.231  12.451  1.00  0.00     0.005 C 
ENDBRANCH   4   5
ENDBRANCH   3   4
TORSDOF 2
ENDMDL
MODEL 3
REMARK VINA RESULT:      -3.7      1.203      1.934
REMARK  2 active torsions:
REMARK  status: ('A' for Active; 'I' for Inactive)
REMARK    1  A    between atoms: C_3  and  C_4 
REMARK    2  A    between atoms: C_4  and  C_6 
ROOT
ATOM      1  O   UNL A   1      11.138   6.132   5.409  1.00  0.00    -0.648 OA
ATOM      2  O   UNL A   1      10.045   6.878   7.271  1.00  0.00    -0.648 OA
ATOM      3  C   UNL A   1      11.067   6.612   6.574  1.00  0.00     0.172 C 
ENDROOT
BRANCH   3   4
ATOM      4  C   UNL A   1      12.399   6.904   7.273  1.00  0.00     0.113 C 
BRANCH   4   5
ATOM      5  C   UNL A   1      12.405   6.807   8.794  1.00  0.00     0.006 C 
ATOM      6  C   UNL A   1      13.813   6.746   9.368  1.00  0.00     0.005 C 
ENDBRANCH   4   5
ENDBRANCH   3   4
TORSDOF 2
ENDMDL
MODEL 4
REMARK VINA RESULT:      -3.7      1.236      1.611
REMARK  2 active torsions:
REMARK  status: ('A' for Active; 'I' for Inactive)
REMARK    1  A    between atoms: C_3  and  C_4 
REMARK    2  A    between atoms: C_4  and  C_6 
ROOT
ATOM      1  O   UNL A   1      10.024   6.884   7.326  1.00  0.00    -0.648 OA
ATOM      2  O   UNL A   1      11.086   6.246   5.406  1.00  0.00    -0.648 OA
ATOM      3  C   UNL A   1      11.033   6.644   6.606  1.00  0.00     0.172 C 
ENDROOT
BRANCH   3   4
ATOM      4  C   UNL A   1      12.403   6.878   7.252  1.00  0.00     0.113 C 
BRANCH   4   5
ATOM      5  C   UNL A   1      12.455   6.826   8.775  1.00  0.00     0.006 C 
ATOM      6  C   UNL A   1      13.880   6.779   9.307  1.00  0.00     0.005 C 
ENDBRANCH   4   5
ENDBRANCH   3   4
TORSDOF 2
ENDMDL
MODEL 5
REMARK VINA RESULT:      -3.5      2.146      3.057
REMARK  2 active torsions:
REMARK  status: ('A' for Active; 'I' for Inactive)
REMARK    1  A    between atoms: C_3  and  C_4 
REMARK    2  A    between atoms: C_4  and  C_6 
ROOT
ATOM      1  O   UNL A   1      13.019   6.601   8.785  1.00  0.00    -0.648 OA
ATOM      2  O   UNL A   1      12.558   8.072   7.099  1.00  0.00    -0.648 OA
ATOM      3  C   UNL A   1      12.301   7.110   7.880  1.00  0.00     0.172 C 
ENDROOT
BRANCH   3   4
ATOM      4  C   UNL A   1      10.923   6.475   7.665  1.00  0.00     0.113 C 
BRANCH   4   5
ATOM      5  C   UNL A   1      10.446   6.356   6.222  1.00  0.00     0.006 C 
ATOM      6  C   UNL A   1      11.154   5.242   5.465  1.00  0.00     0.005 C 
ENDBRANCH   4   5
ENDBRANCH   3   4
TORSDOF 2
ENDMDL
MODEL 6
REMARK VINA RESULT:      -3.4      1.646      2.491
REMARK  2 active torsions:
REMARK  status: ('A' for Active; 'I' for Inactive)
REMARK    1  A    between atoms: C_3  and  C_4 
REMARK    2  A    between atoms: C_4  and  C_6 
ROOT
ATOM      1  O   UNL A   1      11.832   6.493   6.206  1.00  0.00    -0.648 OA
ATOM      2  O   UNL A   1      10.098   6.966   7.616  1.00  0.00    -0.648 OA
ATOM      3  C   UNL A   1      11.312   6.766   7.324  1.00  0.00     0.172 C 
ENDROOT
BRANCH   3   4
ATOM      4  C   UNL A   1      12.270   6.856   8.516  1.00  0.00     0.113 C 
BRANCH   4   5
ATOM      5  C   UNL A   1      13.732   7.143   8.195  1.00  0.00     0.006 C 
ATOM      6  C   UNL A   1      14.096   8.607   8.395  1.00  0.00     0.005 C 
ENDBRANCH   4   5
ENDBRANCH   3   4
TORSDOF 2
ENDMDL
MODEL 7
REMARK VINA RESULT:      -3.4      2.668      3.561
REMARK  2 active torsions:
REMARK  status: ('A' for Active; 'I' for Inactive)
REMARK    1  A    between atoms: C_3  and  C_4 
REMARK    2  A    between atoms: C_4  and  C_6 
ROOT
ATOM      1  O   UNL A   1      10.521   5.635  10.036  1.00  0.00    -0.648 OA
ATOM      2  O   UNL A   1       9.742   7.674   9.361  1.00  0.00    -0.648 OA
ATOM      3  C   UNL A   1      10.420   6.612   9.243  1.00  0.00     0.172 C 
ENDROOT
BRANCH   3   4
ATOM      4  C   UNL A   1      11.242   6.531   7.953  1.00  0.00     0.113 C 
BRANCH   4   5
ATOM      5  C   UNL A   1      10.460   6.562   6.644  1.00  0.00     0.006 C 
ATOM      6  C   UNL A   1      10.963   5.534   5.641  1.00  0.00     0.005 C 
ENDBRANCH   4   5
ENDBRANCH   3   4
TORSDOF 2
ENDMDL
MODEL 8
REMARK VINA RESULT:      -3.3      1.867      2.426
REMARK  2 active torsions:
REMARK  status: ('A' for Active; 'I' for Inactive)
REMARK    1  A    between atoms: C_3  and  C_4 
REMARK    2  A    between atoms: C_4  and  C_6 
ROOT
ATOM      1  O   UNL A   1      12.325   6.676   6.550  1.00  0.00    -0.648 OA
ATOM      2  O   UNL A   1      10.105   6.979   6.991  1.00  0.00    -0.648 OA
ATOM      3  C   UNL A   1      11.336   6.958   7.281  1.00  0.00     0.172 C 
ENDROOT
BRANCH   3   4
ATOM      4  C   UNL A   1      11.646   7.313   8.739  1.00  0.00     0.113 C 
BRANCH   4   5
ATOM      5  C   UNL A   1      10.450   7.449   9.675  1.00  0.00     0.006 C 
ATOM      6  C   UNL A   1      10.571   8.650  10.603  1.00  0.00     0.005 C 
ENDBRANCH   4   5
ENDBRANCH   3   4
TORSDOF 2
ENDMDL
MODEL 9
REMARK VINA RESULT:      -3.2      5.533      6.327
REMARK  2 active torsions:
REMARK  status: ('A' for Active; 'I' for Inactive)
REMARK    1  A    between atoms: C_3  and  C_4 
REMARK    2  A    between atoms: C_4  and  C_6 
ROOT
ATOM      1  O   UNL A   1      11.529   8.121  12.259  1.00  0.00    -0.648 OA
ATOM      2  O   UNL A   1      10.314   8.352  10.338  1.00  0.00    -0.648 OA
ATOM      3  C   UNL A   1      10.901   8.771  11.378  1.00  0.00     0.172 C 
ENDROOT
BRANCH   3   4
ATOM      4  C   UNL A   1      10.806  10.286  11.587  1.00  0.00     0.113 C 
BRANCH   4   5
ATOM      5  C   UNL A   1      11.989  10.953  12.280  1.00  0.00     0.006 C 
ATOM      6  C   UNL A   1      11.816  12.459  12.407  1.00  0.00     0.005 C 
ENDBRANCH   4   5
ENDBRANCH   3   4
TORSDOF 2
ENDMDL
