MODEL 1
REMARK VINA RESULT:      -3.7      0.000      0.000
REMARK  2 active torsions:
REMARK  status: ('A' for Active; 'I' for Inactive)
REMARK    1  A    between atoms: C_3  and  C_4 
REMARK    2  A    between atoms: C_4  and  C_6 
ROOT
ATOM      1  O   UNL A   1      11.435   7.547  14.880  1.00  0.00    -0.648 OA
ATOM      2  O   UNL A   1      11.689   7.750  12.619  1.00  0.00    -0.648 OA
ATOM      3  C   UNL A   1      11.816   8.121  13.822  1.00  0.00     0.172 C 
ENDROOT
BRANCH   3   4
ATOM      4  C   UNL A   1      12.520   9.471  13.994  1.00  0.00     0.113 C 
BRANCH   4   5
ATOM      5  C   UNL A   1      11.797  10.691  13.436  1.00  0.00     0.006 C 
ATOM      6  C   UNL A   1      12.613  11.968  13.581  1.00  0.00     0.005 C 
ENDBRANCH   4   5
ENDBRANCH   3   4
TORSDOF 2
ENDMDL
MODEL 2
REMARK VINA RESULT:      -3.7      5.886      6.672
REMARK  2 active torsions:
REMARK  status: ('A' for Active; 'I' for Inactive)
REMARK    1  A    between atoms: C_3  and  C_4 
REMARK    2  A    between atoms: C_4  and  C_6 
ROOT
ATOM      1  O   UNL A   1      13.824   3.670   8.052  1.00  0.00    -0.648 OA
ATOM      2  O   UNL A   1      12.337   4.380   9.634  1.00  0.00    -0.648 OA
ATOM      3  C   UNL A   1      13.484   4.263   9.114  1.00  0.00     0.172 C 
ENDROOT
BRANCH   3   4
ATOM      4  C   UNL A   1      14.609   4.928   9.913  1.00  0.00     0.113 C 
BRANCH   4   5
ATOM      5  C   UNL A   1      14.387   5.067  11.415  1.00  0.00     0.006 C 
ATOM      6  C   UNL A   1      15.677   5.351  12.170  1.00  0.00     0.005 C 
ENDBRANCH   4   5
ENDBRANCH   3   4
TORSDOF 2
ENDMDL
MODEL 3
REMARK VINA RESULT:      -3.7      6.265      7.259
REMARK  2 active torsions:
REMARK  status: ('A' for Active; 'I' for Inactive)
REMARK    1  A    between atoms: C_3  and  C_4 
REMARK    2  A    between atoms: C_4  and  C_6 
ROOT
ATOM      1  O   UNL A   1      14.022   2.954   7.727  1.00  0.00    -0.648 OA
ATOM      2  O   UNL A   1      12.855   4.901   7.984  1.00  0.00    -0.648 OA
ATOM      3  C   UNL A   1      13.325   3.790   8.366  1.00  0.00     0.172 C 
ENDROOT
BRANCH   3   4
ATOM      4  C   UNL A   1      12.969   3.418   9.809  1.00  0.00     0.113 C 
BRANCH   4   5
ATOM      5  C   UNL A   1      12.816   4.573  10.792  1.00  0.00     0.006 C 
ATOM      6  C   UNL A   1      14.145   5.005  11.394  1.00  0.00     0.005 C 
ENDBRANCH   4   5
ENDBRANCH   3   4
TORSDOF 2
ENDMDL
MODEL 4
REMARK VINA RESULT:      -3.7      5.896      6.564
REMARK  2 active torsions:
REMARK  status: ('A' for Active; 'I' for Inactive)
REMARK    1  A    between atoms: C_3  and  C_4 
REMARK    2  A    between atoms: C_4  and  C_6 
ROOT
ATOM      1  O   UNL A   1      12.345   4.291   9.726  1.00  0.00    -0.648 OA
ATOM      2  O   UNL A   1      13.810   3.727   8.067  1.00  0.00    -0.648 OA
ATOM      3  C   UNL A   1      13.478   4.245   9.173  1.00  0.00     0.172 C 
ENDROOT
BRANCH   3   4
ATOM      4  C   UNL A   1      14.631   4.922   9.922  1.00  0.00     0.113 C 
BRANCH   4   5
ATOM      5  C   UNL A   1      14.468   5.069  11.430  1.00  0.00     0.006 C 
ATOM      6  C   UNL A   1      15.779   5.404  12.127  1.00  0.00     0.005 C 
ENDBRANCH   4   5
ENDBRANCH   3   4
TORSDOF 2
ENDMDL
MODEL 5
REMARK VINA RESULT:      -3.6      1.308      1.555
REMARK  2 active torsions:
REMARK  status: ('A' for Active; 'I' for Inactive)
REMARK    1  A    between atoms: C_3  and  C_4 
REMARK    2  A    between atoms: C_4  and  C_6 
ROOT
ATOM      1  O   UNL A   1      13.865   7.786  13.153  1.00  0.00    -0.648 OA
ATOM      2  O   UNL A   1      11.935   6.785  12.452  1.00  0.00    -0.648 OA
ATOM      3  C   UNL A   1      12.619   7.717  12.967  1.00  0.00     0.172 C 
ENDROOT
BRANCH   3   4
ATOM      4  C   UNL A   1      11.792   8.915  13.445  1.00  0.00     0.113 C 
BRANCH   4   5
ATOM      5  C   UNL A   1      12.572  10.133  13.925  1.00  0.00     0.006 C 
ATOM      6  C   UNL A   1      11.973  11.441  13.430  1.00  0.00     0.005 C 
ENDBRANCH   4   5
ENDBRANCH   3   4
TORSDOF 2
ENDMDL
MODEL 6
REMARK VINA RESULT:      -3.6      1.524      1.936
REMARK  2 active torsions:
REMARK  status: ('A' for Active; 'I' for Inactive)
REMARK    1  A    between atoms: C_3  and  C_4 
REMARK    2  A    between atoms: C_4  and  C_6 
ROOT
ATOM      1  O   UNL A   1      13.064   7.109  12.279  1.00  0.00    -0.648 OA
ATOM      2  O   UNL A   1      14.023   7.929  14.183  1.00  0.00    -0.648 OA
ATOM      3  C   UNL A   1      13.142   7.877  13.277  1.00  0.00     0.172 C 
ENDROOT
BRANCH   3   4
ATOM      4  C   UNL A   1      12.028   8.919  13.423  1.00  0.00     0.113 C 
BRANCH   4   5
ATOM      5  C   UNL A   1      12.431  10.270  14.003  1.00  0.00     0.006 C 
ATOM      6  C   UNL A   1      11.779  11.436  13.273  1.00  0.00     0.005 C 
ENDBRANCH   4   5
ENDBRANCH   3   4
TORSDOF 2
ENDMDL
MODEL 7
REMARK VINA RESULT:      -3.6      2.656      3.652
REMARK  2 active torsions:
REMARK  status: ('A' for Active; 'I' for Inactive)
REMARK    1  A    between atoms: C_3  and  C_4 
REMARK    2  A    between atoms: C_4  and  C_6 
ROOT
ATOM      1  O   UNL A   1      11.272  11.580  12.824  1.00  0.00    -0.648 OA
ATOM      2  O   UNL A   1      13.065  12.410  13.971  1.00  0.00    -0.648 OA
ATOM      3  C   UNL A   1      12.297  11.494  13.555  1.00  0.00     0.172 C 
ENDROOT
BRANCH   3   4
ATOM      4  C   UNL A   1      12.676  10.089  14.034  1.00  0.00     0.113 C 
BRANCH   4   5
ATOM      5  C   UNL A   1      11.975   8.923  13.347  1.00  0.00     0.006 C 
ATOM      6  C   UNL A   1      11.605   7.811  14.318  1.00  0.00     0.005 C 
ENDBRANCH   4   5
ENDBRANCH   3   4
TORSDOF 2
ENDMDL
MODEL 8
REMARK VINA RESULT:      -3.5      5.961      7.260
REMARK  2 active torsions:
REMARK  status: ('A' for Active; 'I' for Inactive)
REMARK    1  A    between atoms: C_3  and  C_4 
REMARK    2  A    between atoms: C_4  and  C_6 
ROOT
ATOM      1  O   UNL A   1      14.718   5.972   9.613  1.00  0.00    -0.648 OA
ATOM      2  O   UNL A   1      14.815   4.956  11.657  1.00  0.00    -0.648 OA
ATOM      3  C   UNL A   1      14.359   5.139  10.491  1.00  0.00     0.172 C 
ENDROOT
BRANCH   3   4
ATOM      4  C   UNL A   1      13.192   4.219  10.119  1.00  0.00     0.113 C 
BRANCH   4   5
ATOM      5  C   UNL A   1      13.069   3.836   8.649  1.00  0.00     0.006 C 
ATOM      6  C   UNL A   1      14.039   2.733   8.251  1.00  0.00     0.005 C 
ENDBRANCH   4   5
ENDBRANCH   3   4
TORSDOF 2
ENDMDL
MODEL 9
REMARK VINA RESULT:      -3.4      5.363      6.622
REMARK  2 active torsions:
REMARK  status: ('A' for Active; 'I' for Inactive)
REMARK    1  A    between atoms: C_3  and  C_4 
REMARK    2  A    between atoms: C_4  and  C_6 
ROOT
ATOM      1  O   UNL A   1      11.583   5.533  11.457  1.00  0.00    -0.648 OA
ATOM      2  O   UNL A   1      12.344   3.562  12.325  1.00  0.00    -0.648 OA
ATOM      3  C   UNL A   1      12.352   4.534  11.515  1.00  0.00     0.172 C 
ENDROOT
BRANCH   3   4
ATOM      4  C   UNL A   1      13.451   4.457  10.450  1.00  0.00     0.113 C 
BRANCH   4   5
ATOM      5  C   UNL A   1      12.999   4.153   9.027  1.00  0.00     0.006 C 
ATOM      6  C   UNL A   1      13.775   3.002   8.403  1.00  0.00     0.005 C 
ENDBRANCH   4   5
ENDBRANCH   3   4
TORSDOF 2
ENDMDL
