MODEL 1
REMARK VINA RESULT:      -3.8      0.000      0.000
REMARK  2 active torsions:
REMARK  status: ('A' for Active; 'I' for Inactive)
REMARK    1  A    between atoms: C_3  and  C_4 
REMARK    2  A    between atoms: C_4  and  C_6 
ROOT
ATOM      1  O   UNL A   1      10.399   9.170  13.174  1.00  0.00    -0.648 OA
ATOM      2  O   UNL A   1      10.594   9.389  10.908  1.00  0.00    -0.648 OA
ATOM      3  C   UNL A   1      10.854   9.679  12.112  1.00  0.00     0.172 C 
ENDROOT
BRANCH   3   4
ATOM      4  C   UNL A   1      11.853  10.828  12.281  1.00  0.00     0.113 C 
BRANCH   4   5
ATOM      5  C   UNL A   1      11.286  12.240  12.200  1.00  0.00     0.006 C 
ATOM      6  C   UNL A   1      12.349  13.308  12.412  1.00  0.00     0.005 C 
ENDBRANCH   4   5
ENDBRANCH   3   4
TORSDOF 2
ENDMDL
MODEL 2
REMARK VINA RESULT:      -3.8      6.415      7.258
REMARK  2 active torsions:
REMARK  status: ('A' for Active; 'I' for Inactive)
REMARK    1  A    between atoms: C_3  and  C_4 
REMARK    2  A    between atoms: C_4  and  C_6 
ROOT
ATOM      1  O   UNL A   1      10.305   7.579   5.685  1.00  0.00    -0.648 OA
ATOM      2  O   UNL A   1      11.233   5.595   5.035  1.00  0.00    -0.648 OA
ATOM      3  C   UNL A   1      10.662   6.379   5.847  1.00  0.00     0.172 C 
ENDROOT
BRANCH   3   4
ATOM      4  C   UNL A   1      10.389   5.767   7.226  1.00  0.00     0.113 C 
BRANCH   4   5
ATOM      5  C   UNL A   1      10.889   6.555   8.431  1.00  0.00     0.006 C 
ATOM      6  C   UNL A   1      12.377   6.866   8.347  1.00  0.00     0.005 C 
ENDBRANCH   4   5
ENDBRANCH   3   4
TORSDOF 2
ENDMDL
MODEL 3
REMARK VINA RESULT:      -3.7      5.869      6.673
REMARK  2 active torsions:
REMARK  status: ('A' for Active; 'I' for Inactive)
REMARK    1  A    between atoms: C_3  and  C_4 
REMARK    2  A    between atoms: C_4  and  C_6 
ROOT
ATOM      1  O   UNL A   1      11.097   6.191   5.396  1.00  0.00    -0.648 OA
ATOM      2  O   UNL A   1      10.031   6.895   7.290  1.00  0.00    -0.648 OA
ATOM      3  C   UNL A   1      11.043   6.635   6.576  1.00  0.00     0.172 C 
ENDROOT
BRANCH   3   4
ATOM      4  C   UNL A   1      12.385   6.888   7.271  1.00  0.00     0.113 C 
BRANCH   4   5
ATOM      5  C   UNL A   1      12.390   6.803   8.793  1.00  0.00     0.006 C 
ATOM      6  C   UNL A   1      13.798   6.746   9.369  1.00  0.00     0.005 C 
ENDBRANCH   4   5
ENDBRANCH   3   4
TORSDOF 2
ENDMDL
MODEL 4
REMARK VINA RESULT:      -3.7      5.860      6.543
REMARK  2 active torsions:
REMARK  status: ('A' for Active; 'I' for Inactive)
REMARK    1  A    between atoms: C_3  and  C_4 
REMARK    2  A    between atoms: C_4  and  C_6 
ROOT
ATOM      1  O   UNL A   1      10.013   6.882   7.345  1.00  0.00    -0.648 OA
ATOM      2  O   UNL A   1      11.071   6.267   5.416  1.00  0.00    -0.648 OA
ATOM      3  C   UNL A   1      11.021   6.653   6.620  1.00  0.00     0.172 C 
ENDROOT
BRANCH   3   4
ATOM      4  C   UNL A   1      12.391   6.886   7.264  1.00  0.00     0.113 C 
BRANCH   4   5
ATOM      5  C   UNL A   1      12.447   6.827   8.786  1.00  0.00     0.006 C 
ATOM      6  C   UNL A   1      13.873   6.764   9.314  1.00  0.00     0.005 C 
ENDBRANCH   4   5
ENDBRANCH   3   4
TORSDOF 2
ENDMDL
MODEL 5
REMARK VINA RESULT:      -3.5      5.950      7.059
REMARK  2 active torsions:
REMARK  status: ('A' for Active; 'I' for Inactive)
REMARK    1  A    between atoms: C_3  and  C_4 
REMARK    2  A    between atoms: C_4  and  C_6 
ROOT
ATOM      1  O   UNL A   1      13.110   6.615   8.931  1.00  0.00    -0.648 OA
ATOM      2  O   UNL A   1      12.649   8.003   7.176  1.00  0.00    -0.648 OA
ATOM      3  C   UNL A   1      12.395   7.076   7.999  1.00  0.00     0.172 C 
ENDROOT
BRANCH   3   4
ATOM      4  C   UNL A   1      11.023   6.422   7.806  1.00  0.00     0.113 C 
BRANCH   4   5
ATOM      5  C   UNL A   1      10.455   6.436   6.391  1.00  0.00     0.006 C 
ATOM      6  C   UNL A   1      11.049   5.344   5.514  1.00  0.00     0.005 C 
ENDBRANCH   4   5
ENDBRANCH   3   4
TORSDOF 2
ENDMDL
MODEL 6
REMARK VINA RESULT:      -3.4      5.815      7.029
REMARK  2 active torsions:
REMARK  status: ('A' for Active; 'I' for Inactive)
REMARK    1  A    between atoms: C_3  and  C_4 
REMARK    2  A    between atoms: C_4  and  C_6 
ROOT
ATOM      1  O   UNL A   1      12.810   8.009   7.293  1.00  0.00    -0.648 OA
ATOM      2  O   UNL A   1      12.994   6.662   9.129  1.00  0.00    -0.648 OA
ATOM      3  C   UNL A   1      12.412   7.131   8.108  1.00  0.00     0.172 C 
ENDROOT
BRANCH   3   4
ATOM      4  C   UNL A   1      11.018   6.548   7.855  1.00  0.00     0.113 C 
BRANCH   4   5
ATOM      5  C   UNL A   1      10.484   6.656   6.431  1.00  0.00     0.006 C 
ATOM      6  C   UNL A   1      10.982   5.531   5.535  1.00  0.00     0.005 C 
ENDBRANCH   4   5
ENDBRANCH   3   4
TORSDOF 2
ENDMDL
MODEL 7
REMARK VINA RESULT:      -3.4      5.406      6.691
REMARK  2 active torsions:
REMARK  status: ('A' for Active; 'I' for Inactive)
REMARK    1  A    between atoms: C_3  and  C_4 
REMARK    2  A    between atoms: C_4  and  C_6 
ROOT
ATOM      1  O   UNL A   1      12.011   6.481   9.685  1.00  0.00    -0.648 OA
ATOM      2  O   UNL A   1       9.929   7.181   9.054  1.00  0.00    -0.648 OA
ATOM      3  C   UNL A   1      11.135   6.852   8.855  1.00  0.00     0.172 C 
ENDROOT
BRANCH   3   4
ATOM      4  C   UNL A   1      11.578   6.942   7.391  1.00  0.00     0.113 C 
BRANCH   4   5
ATOM      5  C   UNL A   1      10.547   6.544   6.341  1.00  0.00     0.006 C 
ATOM      6  C   UNL A   1      11.004   5.367   5.492  1.00  0.00     0.005 C 
ENDBRANCH   4   5
ENDBRANCH   3   4
TORSDOF 2
ENDMDL
MODEL 8
REMARK VINA RESULT:      -3.3      5.572      5.906
REMARK  2 active torsions:
REMARK  status: ('A' for Active; 'I' for Inactive)
REMARK    1  A    between atoms: C_3  and  C_4 
REMARK    2  A    between atoms: C_4  and  C_6 
ROOT
ATOM      1  O   UNL A   1      10.157   5.806   9.561  1.00  0.00    -0.648 OA
ATOM      2  O   UNL A   1      10.144   6.877   7.544  1.00  0.00    -0.648 OA
ATOM      3  C   UNL A   1      10.675   6.458   8.612  1.00  0.00     0.172 C 
ENDROOT
BRANCH   3   4
ATOM      4  C   UNL A   1      12.156   6.820   8.763  1.00  0.00     0.113 C 
BRANCH   4   5
ATOM      5  C   UNL A   1      12.913   7.139   7.479  1.00  0.00     0.006 C 
ATOM      6  C   UNL A   1      14.423   7.129   7.675  1.00  0.00     0.005 C 
ENDBRANCH   4   5
ENDBRANCH   3   4
TORSDOF 2
ENDMDL
MODEL 9
REMARK VINA RESULT:      -3.2      1.960      2.450
REMARK  2 active torsions:
REMARK  status: ('A' for Active; 'I' for Inactive)
REMARK    1  A    between atoms: C_3  and  C_4 
REMARK    2  A    between atoms: C_4  and  C_6 
ROOT
ATOM      1  O   UNL A   1      12.040   7.707  10.463  1.00  0.00    -0.648 OA
ATOM      2  O   UNL A   1       9.931   7.792   9.589  1.00  0.00    -0.648 OA
ATOM      3  C   UNL A   1      10.890   8.202  10.306  1.00  0.00     0.172 C 
ENDROOT
BRANCH   3   4
ATOM      4  C   UNL A   1      10.581   9.473  11.104  1.00  0.00     0.113 C 
BRANCH   4   5
ATOM      5  C   UNL A   1      11.744  10.098  11.866  1.00  0.00     0.006 C 
ATOM      6  C   UNL A   1      11.468  11.539  12.269  1.00  0.00     0.005 C 
ENDBRANCH   4   5
ENDBRANCH   3   4
TORSDOF 2
ENDMDL
