MODEL 1
REMARK VINA RESULT:      -2.9      0.000      0.000
REMARK  0 active torsions:
REMARK  status: ('A' for Active; 'I' for Inactive)
ROOT
ATOM      1  O   UNL A   1       5.887   5.501  20.186  1.00  0.00    -0.648 OA
ATOM      2  O   UNL A   1       4.454   6.117  21.861  1.00  0.00    -0.648 OA
ATOM      3  C   UNL A   1       3.799   4.430  20.366  1.00  0.00     0.129 C 
ATOM      4  C   UNL A   1       4.815   5.450  20.851  1.00  0.00     0.168 C 
ENDROOT
TORSDOF 0
ENDMDL
MODEL 2
REMARK VINA RESULT:      -2.9     15.630     16.193
REMARK  0 active torsions:
REMARK  status: ('A' for Active; 'I' for Inactive)
ROOT
ATOM      1  O   UNL A   1      10.438   7.460   5.769  1.00  0.00    -0.648 OA
ATOM      2  O   UNL A   1      11.253   5.502   4.912  1.00  0.00    -0.648 OA
ATOM      3  C   UNL A   1      10.247   5.484   7.033  1.00  0.00     0.129 C 
ATOM      4  C   UNL A   1      10.689   6.223   5.781  1.00  0.00     0.168 C 
ENDROOT
TORSDOF 0
ENDMDL
MODEL 3
REMARK VINA RESULT:      -2.9     15.634     16.138
REMARK  0 active torsions:
REMARK  status: ('A' for Active; 'I' for Inactive)
ROOT
ATOM      1  O   UNL A   1      11.210   5.509   4.881  1.00  0.00    -0.648 OA
ATOM      2  O   UNL A   1      10.418   7.463   5.770  1.00  0.00    -0.648 OA
ATOM      3  C   UNL A   1      10.250   5.489   7.029  1.00  0.00     0.129 C 
ATOM      4  C   UNL A   1      10.668   6.225   5.768  1.00  0.00     0.168 C 
ENDROOT
TORSDOF 0
ENDMDL
MODEL 4
REMARK VINA RESULT:      -2.8     14.994     15.470
REMARK  0 active torsions:
REMARK  status: ('A' for Active; 'I' for Inactive)
ROOT
ATOM      1  O   UNL A   1      12.178   7.347   6.818  1.00  0.00    -0.648 OA
ATOM      2  O   UNL A   1      10.075   6.935   7.621  1.00  0.00    -0.648 OA
ATOM      3  C   UNL A   1      10.861   5.688   5.794  1.00  0.00     0.129 C 
ATOM      4  C   UNL A   1      11.059   6.763   6.848  1.00  0.00     0.168 C 
ENDROOT
TORSDOF 0
ENDMDL
MODEL 5
REMARK VINA RESULT:      -2.8     14.961     15.504
REMARK  0 active torsions:
REMARK  status: ('A' for Active; 'I' for Inactive)
ROOT
ATOM      1  O   UNL A   1      10.087   6.936   7.692  1.00  0.00    -0.648 OA
ATOM      2  O   UNL A   1      12.148   7.400   6.812  1.00  0.00    -0.648 OA
ATOM      3  C   UNL A   1      10.844   5.715   5.828  1.00  0.00     0.129 C 
ATOM      4  C   UNL A   1      11.045   6.790   6.882  1.00  0.00     0.168 C 
ENDROOT
TORSDOF 0
ENDMDL
MODEL 6
REMARK VINA RESULT:      -2.8     15.122     15.737
REMARK  0 active torsions:
REMARK  status: ('A' for Active; 'I' for Inactive)
ROOT
ATOM      1  O   UNL A   1      10.006   6.888   7.346  1.00  0.00    -0.648 OA
ATOM      2  O   UNL A   1      11.069   6.270   5.417  1.00  0.00    -0.648 OA
ATOM      3  C   UNL A   1      12.358   6.870   7.285  1.00  0.00     0.129 C 
ATOM      4  C   UNL A   1      11.010   6.655   6.618  1.00  0.00     0.168 C 
ENDROOT
TORSDOF 0
ENDMDL
MODEL 7
REMARK VINA RESULT:      -2.8     15.155     15.684
REMARK  0 active torsions:
REMARK  status: ('A' for Active; 'I' for Inactive)
ROOT
ATOM      1  O   UNL A   1      11.119   6.209   5.403  1.00  0.00    -0.648 OA
ATOM      2  O   UNL A   1      10.017   6.868   7.297  1.00  0.00    -0.648 OA
ATOM      3  C   UNL A   1      12.365   6.873   7.285  1.00  0.00     0.129 C 
ATOM      4  C   UNL A   1      11.036   6.625   6.591  1.00  0.00     0.168 C 
ENDROOT
TORSDOF 0
ENDMDL
MODEL 8
REMARK VINA RESULT:      -2.7     13.152     13.486
REMARK  0 active torsions:
REMARK  status: ('A' for Active; 'I' for Inactive)
ROOT
ATOM      1  O   UNL A   1      12.933  13.668  12.758  1.00  0.00    -0.648 OA
ATOM      2  O   UNL A   1      10.887  13.369  11.781  1.00  0.00    -0.648 OA
ATOM      3  C   UNL A   1      12.083  11.488  12.516  1.00  0.00     0.129 C 
ATOM      4  C   UNL A   1      11.957  12.991  12.335  1.00  0.00     0.168 C 
ENDROOT
TORSDOF 0
ENDMDL
MODEL 9
REMARK VINA RESULT:      -2.6     15.906     16.533
REMARK  0 active torsions:
REMARK  status: ('A' for Active; 'I' for Inactive)
ROOT
ATOM      1  O   UNL A   1      19.684  11.806  16.333  1.00  0.00    -0.648 OA
ATOM      2  O   UNL A   1      18.382  10.021  15.739  1.00  0.00    -0.648 OA
ATOM      3  C   UNL A   1      19.696  11.066  14.099  1.00  0.00     0.129 C 
ATOM      4  C   UNL A   1      19.207  10.955  15.533  1.00  0.00     0.168 C 
ENDROOT
TORSDOF 0
ENDMDL
