MODEL 1
REMARK VINA RESULT:      -2.9      0.000      0.000
REMARK  0 active torsions:
REMARK  status: ('A' for Active; 'I' for Inactive)
ROOT
ATOM      1  O   UNL A   1       6.267   4.649  21.528  1.00  0.00    -0.648 OA
ATOM      2  O   UNL A   1       4.619   5.182  23.022  1.00  0.00    -0.648 OA
ATOM      3  C   UNL A   1       4.469   3.163  21.834  1.00  0.00     0.129 C 
ATOM      4  C   UNL A   1       5.191   4.459  22.159  1.00  0.00     0.168 C 
ENDROOT
TORSDOF 0
ENDMDL
MODEL 2
REMARK VINA RESULT:      -2.9     15.471     16.018
REMARK  0 active torsions:
REMARK  status: ('A' for Active; 'I' for Inactive)
ROOT
ATOM      1  O   UNL A   1      14.200   2.906   7.729  1.00  0.00    -0.648 OA
ATOM      2  O   UNL A   1      12.968   4.800   8.089  1.00  0.00    -0.648 OA
ATOM      3  C   UNL A   1      12.836   3.045   9.641  1.00  0.00     0.129 C 
ATOM      4  C   UNL A   1      13.391   3.642   8.359  1.00  0.00     0.168 C 
ENDROOT
TORSDOF 0
ENDMDL
MODEL 3
REMARK VINA RESULT:      -2.9     11.036     11.536
REMARK  0 active torsions:
REMARK  status: ('A' for Active; 'I' for Inactive)
ROOT
ATOM      1  O   UNL A   1       6.563   4.050  11.627  1.00  0.00    -0.648 OA
ATOM      2  O   UNL A   1       6.548   2.197  10.286  1.00  0.00    -0.648 OA
ATOM      3  C   UNL A   1       4.583   3.463  10.500  1.00  0.00     0.129 C 
ATOM      4  C   UNL A   1       6.043   3.213  10.839  1.00  0.00     0.168 C 
ENDROOT
TORSDOF 0
ENDMDL
MODEL 4
REMARK VINA RESULT:      -2.8     11.446     11.747
REMARK  0 active torsions:
REMARK  status: ('A' for Active; 'I' for Inactive)
ROOT
ATOM      1  O   UNL A   1       4.096   2.222  10.098  1.00  0.00    -0.648 OA
ATOM      2  O   UNL A   1       4.124   4.439  10.665  1.00  0.00    -0.648 OA
ATOM      3  C   UNL A   1       6.066   3.159  10.979  1.00  0.00     0.129 C 
ATOM      4  C   UNL A   1       4.619   3.284  10.536  1.00  0.00     0.168 C 
ENDROOT
TORSDOF 0
ENDMDL
MODEL 5
REMARK VINA RESULT:      -2.8     14.814     15.395
REMARK  0 active torsions:
REMARK  status: ('A' for Active; 'I' for Inactive)
ROOT
ATOM      1  O   UNL A   1      12.324   4.524   9.935  1.00  0.00    -0.648 OA
ATOM      2  O   UNL A   1      14.419   5.221   9.336  1.00  0.00    -0.648 OA
ATOM      3  C   UNL A   1      13.618   3.177   8.505  1.00  0.00     0.129 C 
ATOM      4  C   UNL A   1      13.434   4.431   9.342  1.00  0.00     0.168 C 
ENDROOT
TORSDOF 0
ENDMDL
MODEL 6
REMARK VINA RESULT:      -2.8     14.800     15.317
REMARK  0 active torsions:
REMARK  status: ('A' for Active; 'I' for Inactive)
ROOT
ATOM      1  O   UNL A   1      14.403   5.256   9.335  1.00  0.00    -0.648 OA
ATOM      2  O   UNL A   1      12.321   4.537   9.954  1.00  0.00    -0.648 OA
ATOM      3  C   UNL A   1      13.609   3.196   8.521  1.00  0.00     0.129 C 
ATOM      4  C   UNL A   1      13.428   4.455   9.352  1.00  0.00     0.168 C 
ENDROOT
TORSDOF 0
ENDMDL
MODEL 7
REMARK VINA RESULT:      -2.8     14.978     15.516
REMARK  0 active torsions:
REMARK  status: ('A' for Active; 'I' for Inactive)
ROOT
ATOM      1  O   UNL A   1      13.805   3.743   8.045  1.00  0.00    -0.648 OA
ATOM      2  O   UNL A   1      12.327   4.395   9.665  1.00  0.00    -0.648 OA
ATOM      3  C   UNL A   1      14.608   4.868   9.949  1.00  0.00     0.129 C 
ATOM      4  C   UNL A   1      13.468   4.277   9.138  1.00  0.00     0.168 C 
ENDROOT
TORSDOF 0
ENDMDL
MODEL 8
REMARK VINA RESULT:      -2.8     15.002     15.619
REMARK  0 active torsions:
REMARK  status: ('A' for Active; 'I' for Inactive)
ROOT
ATOM      1  O   UNL A   1      12.331   4.397   9.633  1.00  0.00    -0.648 OA
ATOM      2  O   UNL A   1      13.825   3.696   8.048  1.00  0.00    -0.648 OA
ATOM      3  C   UNL A   1      14.620   4.856   9.927  1.00  0.00     0.129 C 
ATOM      4  C   UNL A   1      13.478   4.257   9.124  1.00  0.00     0.168 C 
ENDROOT
TORSDOF 0
ENDMDL
MODEL 9
REMARK VINA RESULT:      -2.7     12.940     13.290
REMARK  0 active torsions:
REMARK  status: ('A' for Active; 'I' for Inactive)
ROOT
ATOM      1  O   UNL A   1      11.292  11.615  12.782  1.00  0.00    -0.648 OA
ATOM      2  O   UNL A   1      13.080  12.419  13.962  1.00  0.00    -0.648 OA
ATOM      3  C   UNL A   1      12.610  10.121  14.034  1.00  0.00     0.129 C 
ATOM      4  C   UNL A   1      12.295  11.523  13.543  1.00  0.00     0.168 C 
ENDROOT
TORSDOF 0
ENDMDL
