MODEL 1
REMARK VINA RESULT:      -3.0      0.000      0.000
REMARK  0 active torsions:
REMARK  status: ('A' for Active; 'I' for Inactive)
ROOT
ATOM      1  O   UNL A   1       4.726   5.132  23.030  1.00  0.00    -0.648 OA
ATOM      2  O   UNL A   1       6.302   4.614  21.456  1.00  0.00    -0.648 OA
ATOM      3  C   UNL A   1       4.487   3.159  21.771  1.00  0.00     0.129 C 
ATOM      4  C   UNL A   1       5.246   4.427  22.121  1.00  0.00     0.168 C 
ENDROOT
TORSDOF 0
ENDMDL
MODEL 2
REMARK VINA RESULT:      -2.9     10.931     11.399
REMARK  0 active torsions:
REMARK  status: ('A' for Active; 'I' for Inactive)
ROOT
ATOM      1  O   UNL A   1       6.597   3.945  11.729  1.00  0.00    -0.648 OA
ATOM      2  O   UNL A   1       6.508   2.208  10.243  1.00  0.00    -0.648 OA
ATOM      3  C   UNL A   1       4.613   3.565  10.522  1.00  0.00     0.129 C 
ATOM      4  C   UNL A   1       6.048   3.205  10.866  1.00  0.00     0.168 C 
ENDROOT
TORSDOF 0
ENDMDL
MODEL 3
REMARK VINA RESULT:      -2.8     11.411     11.708
REMARK  0 active torsions:
REMARK  status: ('A' for Active; 'I' for Inactive)
ROOT
ATOM      1  O   UNL A   1       4.118   4.437  10.658  1.00  0.00    -0.648 OA
ATOM      2  O   UNL A   1       4.090   2.217  10.107  1.00  0.00    -0.648 OA
ATOM      3  C   UNL A   1       6.061   3.149  10.976  1.00  0.00     0.129 C 
ATOM      4  C   UNL A   1       4.613   3.282  10.537  1.00  0.00     0.168 C 
ENDROOT
TORSDOF 0
ENDMDL
MODEL 4
REMARK VINA RESULT:      -2.8     14.739     15.263
REMARK  0 active torsions:
REMARK  status: ('A' for Active; 'I' for Inactive)
ROOT
ATOM      1  O   UNL A   1      12.326   4.524   9.943  1.00  0.00    -0.648 OA
ATOM      2  O   UNL A   1      14.420   5.225   9.344  1.00  0.00    -0.648 OA
ATOM      3  C   UNL A   1      13.622   3.180   8.511  1.00  0.00     0.129 C 
ATOM      4  C   UNL A   1      13.436   4.433   9.350  1.00  0.00     0.168 C 
ENDROOT
TORSDOF 0
ENDMDL
MODEL 5
REMARK VINA RESULT:      -2.8     14.733     15.320
REMARK  0 active torsions:
REMARK  status: ('A' for Active; 'I' for Inactive)
ROOT
ATOM      1  O   UNL A   1      14.418   5.241   9.351  1.00  0.00    -0.648 OA
ATOM      2  O   UNL A   1      12.326   4.534   9.948  1.00  0.00    -0.648 OA
ATOM      3  C   UNL A   1      13.615   3.194   8.516  1.00  0.00     0.129 C 
ATOM      4  C   UNL A   1      13.437   4.448   9.355  1.00  0.00     0.168 C 
ENDROOT
TORSDOF 0
ENDMDL
MODEL 6
REMARK VINA RESULT:      -2.8     14.934     15.467
REMARK  0 active torsions:
REMARK  status: ('A' for Active; 'I' for Inactive)
ROOT
ATOM      1  O   UNL A   1      12.323   4.416   9.634  1.00  0.00    -0.648 OA
ATOM      2  O   UNL A   1      13.808   3.701   8.048  1.00  0.00    -0.648 OA
ATOM      3  C   UNL A   1      14.616   4.853   9.927  1.00  0.00     0.129 C 
ATOM      4  C   UNL A   1      13.468   4.266   9.125  1.00  0.00     0.168 C 
ENDROOT
TORSDOF 0
ENDMDL
MODEL 7
REMARK VINA RESULT:      -2.8     14.925     15.545
REMARK  0 active torsions:
REMARK  status: ('A' for Active; 'I' for Inactive)
ROOT
ATOM      1  O   UNL A   1      13.813   3.730   8.044  1.00  0.00    -0.648 OA
ATOM      2  O   UNL A   1      12.331   4.404   9.652  1.00  0.00    -0.648 OA
ATOM      3  C   UNL A   1      14.615   4.862   9.945  1.00  0.00     0.129 C 
ATOM      4  C   UNL A   1      13.474   4.273   9.132  1.00  0.00     0.168 C 
ENDROOT
TORSDOF 0
ENDMDL
MODEL 8
REMARK VINA RESULT:      -2.6     16.241     16.605
REMARK  0 active torsions:
REMARK  status: ('A' for Active; 'I' for Inactive)
ROOT
ATOM      1  O   UNL A   1      19.672  12.849  19.542  1.00  0.00    -0.648 OA
ATOM      2  O   UNL A   1      18.365  12.046  17.845  1.00  0.00    -0.648 OA
ATOM      3  C   UNL A   1      20.364  10.932  18.367  1.00  0.00     0.129 C 
ATOM      4  C   UNL A   1      19.369  12.054  18.610  1.00  0.00     0.168 C 
ENDROOT
TORSDOF 0
ENDMDL
MODEL 9
REMARK VINA RESULT:      -2.5     14.997     15.606
REMARK  0 active torsions:
REMARK  status: ('A' for Active; 'I' for Inactive)
ROOT
ATOM      1  O   UNL A   1      16.233   5.023   9.704  1.00  0.00    -0.648 OA
ATOM      2  O   UNL A   1      13.992   5.228   9.290  1.00  0.00    -0.648 OA
ATOM      3  C   UNL A   1      14.738   5.175  11.515  1.00  0.00     0.129 C 
ATOM      4  C   UNL A   1      15.017   5.138  10.022  1.00  0.00     0.168 C 
ENDROOT
TORSDOF 0
ENDMDL
