MODEL 1
REMARK VINA RESULT:      -2.9      0.000      0.000
REMARK  0 active torsions:
REMARK  status: ('A' for Active; 'I' for Inactive)
ROOT
ATOM      1  O   UNL A   1       6.167   4.496  21.709  1.00  0.00    -0.648 OA
ATOM      2  O   UNL A   1       4.375   5.052  23.018  1.00  0.00    -0.648 OA
ATOM      3  C   UNL A   1       4.315   3.047  21.798  1.00  0.00     0.129 C 
ATOM      4  C   UNL A   1       5.024   4.325  22.216  1.00  0.00     0.168 C 
ENDROOT
TORSDOF 0
ENDMDL
MODEL 2
REMARK VINA RESULT:      -2.9     15.632     16.143
REMARK  0 active torsions:
REMARK  status: ('A' for Active; 'I' for Inactive)
ROOT
ATOM      1  O   UNL A   1      14.214   2.908   7.736  1.00  0.00    -0.648 OA
ATOM      2  O   UNL A   1      12.978   4.800   8.092  1.00  0.00    -0.648 OA
ATOM      3  C   UNL A   1      12.836   3.040   9.638  1.00  0.00     0.129 C 
ATOM      4  C   UNL A   1      13.399   3.641   8.362  1.00  0.00     0.168 C 
ENDROOT
TORSDOF 0
ENDMDL
MODEL 3
REMARK VINA RESULT:      -2.8     11.496     11.821
REMARK  0 active torsions:
REMARK  status: ('A' for Active; 'I' for Inactive)
ROOT
ATOM      1  O   UNL A   1       4.122   4.438  10.661  1.00  0.00    -0.648 OA
ATOM      2  O   UNL A   1       4.091   2.218  10.110  1.00  0.00    -0.648 OA
ATOM      3  C   UNL A   1       6.066   3.149  10.971  1.00  0.00     0.129 C 
ATOM      4  C   UNL A   1       4.616   3.283  10.538  1.00  0.00     0.168 C 
ENDROOT
TORSDOF 0
ENDMDL
MODEL 4
REMARK VINA RESULT:      -2.8     14.982     15.527
REMARK  0 active torsions:
REMARK  status: ('A' for Active; 'I' for Inactive)
ROOT
ATOM      1  O   UNL A   1      12.326   4.525   9.939  1.00  0.00    -0.648 OA
ATOM      2  O   UNL A   1      14.418   5.224   9.334  1.00  0.00    -0.648 OA
ATOM      3  C   UNL A   1      13.616   3.180   8.504  1.00  0.00     0.129 C 
ATOM      4  C   UNL A   1      13.434   4.433   9.342  1.00  0.00     0.168 C 
ENDROOT
TORSDOF 0
ENDMDL
MODEL 5
REMARK VINA RESULT:      -2.8     14.974     15.452
REMARK  0 active torsions:
REMARK  status: ('A' for Active; 'I' for Inactive)
ROOT
ATOM      1  O   UNL A   1      14.419   5.236   9.349  1.00  0.00    -0.648 OA
ATOM      2  O   UNL A   1      12.324   4.533   9.943  1.00  0.00    -0.648 OA
ATOM      3  C   UNL A   1      13.614   3.189   8.514  1.00  0.00     0.129 C 
ATOM      4  C   UNL A   1      13.436   4.444   9.351  1.00  0.00     0.168 C 
ENDROOT
TORSDOF 0
ENDMDL
MODEL 6
REMARK VINA RESULT:      -2.8     15.132     15.668
REMARK  0 active torsions:
REMARK  status: ('A' for Active; 'I' for Inactive)
ROOT
ATOM      1  O   UNL A   1      13.826   3.696   8.046  1.00  0.00    -0.648 OA
ATOM      2  O   UNL A   1      12.334   4.395   9.633  1.00  0.00    -0.648 OA
ATOM      3  C   UNL A   1      14.615   4.858   9.934  1.00  0.00     0.129 C 
ATOM      4  C   UNL A   1      13.480   4.256   9.123  1.00  0.00     0.168 C 
ENDROOT
TORSDOF 0
ENDMDL
MODEL 7
REMARK VINA RESULT:      -2.8     15.133     15.751
REMARK  0 active torsions:
REMARK  status: ('A' for Active; 'I' for Inactive)
ROOT
ATOM      1  O   UNL A   1      12.332   4.395   9.634  1.00  0.00    -0.648 OA
ATOM      2  O   UNL A   1      13.825   3.703   8.045  1.00  0.00    -0.648 OA
ATOM      3  C   UNL A   1      14.620   4.855   9.929  1.00  0.00     0.129 C 
ATOM      4  C   UNL A   1      13.478   4.259   9.124  1.00  0.00     0.168 C 
ENDROOT
TORSDOF 0
ENDMDL
MODEL 8
REMARK VINA RESULT:      -2.7     10.924     11.374
REMARK  0 active torsions:
REMARK  status: ('A' for Active; 'I' for Inactive)
ROOT
ATOM      1  O   UNL A   1       6.511   2.299  10.290  1.00  0.00    -0.648 OA
ATOM      2  O   UNL A   1       6.125   3.617  12.119  1.00  0.00    -0.648 OA
ATOM      3  C   UNL A   1       4.524   3.554  10.403  1.00  0.00     0.129 C 
ATOM      4  C   UNL A   1       5.852   3.112  10.995  1.00  0.00     0.168 C 
ENDROOT
TORSDOF 0
ENDMDL
MODEL 9
REMARK VINA RESULT:      -2.6     16.348     16.909
REMARK  0 active torsions:
REMARK  status: ('A' for Active; 'I' for Inactive)
ROOT
ATOM      1  O   UNL A   1      19.117  12.691  19.049  1.00  0.00    -0.648 OA
ATOM      2  O   UNL A   1      20.932  11.368  18.614  1.00  0.00    -0.648 OA
ATOM      3  C   UNL A   1      18.825  10.707  17.818  1.00  0.00     0.129 C 
ATOM      4  C   UNL A   1      19.711  11.687  18.568  1.00  0.00     0.168 C 
ENDROOT
TORSDOF 0
ENDMDL
