MODEL 1
REMARK VINA RESULT:      -2.9      0.000      0.000
REMARK  0 active torsions:
REMARK  status: ('A' for Active; 'I' for Inactive)
ROOT
ATOM      1  O   UNL A   1       5.887   5.497  20.186  1.00  0.00    -0.648 OA
ATOM      2  O   UNL A   1       4.455   6.116  21.859  1.00  0.00    -0.648 OA
ATOM      3  C   UNL A   1       3.797   4.431  20.364  1.00  0.00     0.129 C 
ATOM      4  C   UNL A   1       4.814   5.448  20.850  1.00  0.00     0.168 C 
ENDROOT
TORSDOF 0
ENDMDL
MODEL 2
REMARK VINA RESULT:      -2.9     15.631     16.136
REMARK  0 active torsions:
REMARK  status: ('A' for Active; 'I' for Inactive)
ROOT
ATOM      1  O   UNL A   1      11.222   5.502   4.902  1.00  0.00    -0.648 OA
ATOM      2  O   UNL A   1      10.434   7.472   5.756  1.00  0.00    -0.648 OA
ATOM      3  C   UNL A   1      10.258   5.520   7.048  1.00  0.00     0.129 C 
ATOM      4  C   UNL A   1      10.681   6.234   5.775  1.00  0.00     0.168 C 
ENDROOT
TORSDOF 0
ENDMDL
MODEL 3
REMARK VINA RESULT:      -2.8     14.965     15.507
REMARK  0 active torsions:
REMARK  status: ('A' for Active; 'I' for Inactive)
ROOT
ATOM      1  O   UNL A   1      10.079   6.937   7.673  1.00  0.00    -0.648 OA
ATOM      2  O   UNL A   1      12.159   7.377   6.826  1.00  0.00    -0.648 OA
ATOM      3  C   UNL A   1      10.848   5.711   5.818  1.00  0.00     0.129 C 
ATOM      4  C   UNL A   1      11.047   6.781   6.878  1.00  0.00     0.168 C 
ENDROOT
TORSDOF 0
ENDMDL
MODEL 4
REMARK VINA RESULT:      -2.8     15.124     15.739
REMARK  0 active torsions:
REMARK  status: ('A' for Active; 'I' for Inactive)
ROOT
ATOM      1  O   UNL A   1      10.006   6.884   7.344  1.00  0.00    -0.648 OA
ATOM      2  O   UNL A   1      11.069   6.265   5.415  1.00  0.00    -0.648 OA
ATOM      3  C   UNL A   1      12.358   6.870   7.281  1.00  0.00     0.129 C 
ATOM      4  C   UNL A   1      11.010   6.652   6.615  1.00  0.00     0.168 C 
ENDROOT
TORSDOF 0
ENDMDL
MODEL 5
REMARK VINA RESULT:      -2.6      1.214      2.197
REMARK  0 active torsions:
REMARK  status: ('A' for Active; 'I' for Inactive)
ROOT
ATOM      1  O   UNL A   1       4.127   6.154  21.912  1.00  0.00    -0.648 OA
ATOM      2  O   UNL A   1       4.430   4.443  20.424  1.00  0.00    -0.648 OA
ATOM      3  C   UNL A   1       5.962   6.221  20.440  1.00  0.00     0.129 C 
ATOM      4  C   UNL A   1       4.716   5.540  20.980  1.00  0.00     0.168 C 
ENDROOT
TORSDOF 0
ENDMDL
MODEL 6
REMARK VINA RESULT:      -2.6     15.903     16.531
REMARK  0 active torsions:
REMARK  status: ('A' for Active; 'I' for Inactive)
ROOT
ATOM      1  O   UNL A   1      19.687  11.803  16.335  1.00  0.00    -0.648 OA
ATOM      2  O   UNL A   1      18.377  10.024  15.742  1.00  0.00    -0.648 OA
ATOM      3  C   UNL A   1      19.690  11.067  14.100  1.00  0.00     0.129 C 
ATOM      4  C   UNL A   1      19.204  10.955  15.535  1.00  0.00     0.168 C 
ENDROOT
TORSDOF 0
ENDMDL
MODEL 7
REMARK VINA RESULT:      -2.6     15.905     16.531
REMARK  0 active torsions:
REMARK  status: ('A' for Active; 'I' for Inactive)
ROOT
ATOM      1  O   UNL A   1      18.378  10.025  15.739  1.00  0.00    -0.648 OA
ATOM      2  O   UNL A   1      19.676  11.819  16.314  1.00  0.00    -0.648 OA
ATOM      3  C   UNL A   1      19.693  11.069  14.090  1.00  0.00     0.129 C 
ATOM      4  C   UNL A   1      19.199  10.959  15.523  1.00  0.00     0.168 C 
ENDROOT
TORSDOF 0
ENDMDL
MODEL 8
REMARK VINA RESULT:      -2.4     15.297     15.926
REMARK  0 active torsions:
REMARK  status: ('A' for Active; 'I' for Inactive)
ROOT
ATOM      1  O   UNL A   1      11.968   7.518   6.923  1.00  0.00    -0.648 OA
ATOM      2  O   UNL A   1      14.149   6.842   6.789  1.00  0.00    -0.648 OA
ATOM      3  C   UNL A   1      13.084   6.839   8.880  1.00  0.00     0.129 C 
ATOM      4  C   UNL A   1      13.063   7.092   7.383  1.00  0.00     0.168 C 
ENDROOT
TORSDOF 0
ENDMDL
MODEL 9
REMARK VINA RESULT:      -2.3     13.340     13.906
REMARK  0 active torsions:
REMARK  status: ('A' for Active; 'I' for Inactive)
ROOT
ATOM      1  O   UNL A   1      10.088   6.954   7.476  1.00  0.00    -0.648 OA
ATOM      2  O   UNL A   1      10.265   5.747   9.411  1.00  0.00    -0.648 OA
ATOM      3  C   UNL A   1      12.163   6.849   8.580  1.00  0.00     0.129 C 
ATOM      4  C   UNL A   1      10.693   6.481   8.478  1.00  0.00     0.168 C 
ENDROOT
TORSDOF 0
ENDMDL
