MODEL 1
REMARK VINA RESULT:      -2.9      0.000      0.000
REMARK  0 active torsions:
REMARK  status: ('A' for Active; 'I' for Inactive)
ROOT
ATOM      1  O   UNL A   1       4.559   6.124  21.862  1.00  0.00    -0.648 OA
ATOM      2  O   UNL A   1       5.911   5.482  20.131  1.00  0.00    -0.648 OA
ATOM      3  C   UNL A   1       3.816   4.453  20.381  1.00  0.00     0.129 C 
ATOM      4  C   UNL A   1       4.865   5.452  20.838  1.00  0.00     0.168 C 
ENDROOT
TORSDOF 0
ENDMDL
MODEL 2
REMARK VINA RESULT:      -2.9     15.615     16.192
REMARK  0 active torsions:
REMARK  status: ('A' for Active; 'I' for Inactive)
ROOT
ATOM      1  O   UNL A   1      11.314   5.469   4.892  1.00  0.00    -0.648 OA
ATOM      2  O   UNL A   1      10.493   7.414   5.775  1.00  0.00    -0.648 OA
ATOM      3  C   UNL A   1      10.238   5.419   6.984  1.00  0.00     0.129 C 
ATOM      4  C   UNL A   1      10.731   6.174   5.762  1.00  0.00     0.168 C 
ENDROOT
TORSDOF 0
ENDMDL
MODEL 3
REMARK VINA RESULT:      -2.8     14.954     15.508
REMARK  0 active torsions:
REMARK  status: ('A' for Active; 'I' for Inactive)
ROOT
ATOM      1  O   UNL A   1      12.184   7.334   6.820  1.00  0.00    -0.648 OA
ATOM      2  O   UNL A   1      10.076   6.935   7.613  1.00  0.00    -0.648 OA
ATOM      3  C   UNL A   1      10.861   5.684   5.789  1.00  0.00     0.129 C 
ATOM      4  C   UNL A   1      11.062   6.758   6.845  1.00  0.00     0.168 C 
ENDROOT
TORSDOF 0
ENDMDL
MODEL 4
REMARK VINA RESULT:      -2.8     14.923     15.413
REMARK  0 active torsions:
REMARK  status: ('A' for Active; 'I' for Inactive)
ROOT
ATOM      1  O   UNL A   1      10.082   6.943   7.672  1.00  0.00    -0.648 OA
ATOM      2  O   UNL A   1      12.159   7.377   6.817  1.00  0.00    -0.648 OA
ATOM      3  C   UNL A   1      10.846   5.703   5.824  1.00  0.00     0.129 C 
ATOM      4  C   UNL A   1      11.047   6.781   6.876  1.00  0.00     0.168 C 
ENDROOT
TORSDOF 0
ENDMDL
MODEL 5
REMARK VINA RESULT:      -2.8     15.087     15.625
REMARK  0 active torsions:
REMARK  status: ('A' for Active; 'I' for Inactive)
ROOT
ATOM      1  O   UNL A   1      10.007   6.884   7.348  1.00  0.00    -0.648 OA
ATOM      2  O   UNL A   1      11.066   6.272   5.415  1.00  0.00    -0.648 OA
ATOM      3  C   UNL A   1      12.358   6.870   7.281  1.00  0.00     0.129 C 
ATOM      4  C   UNL A   1      11.009   6.654   6.617  1.00  0.00     0.168 C 
ENDROOT
TORSDOF 0
ENDMDL
MODEL 6
REMARK VINA RESULT:      -2.8     15.081     15.705
REMARK  0 active torsions:
REMARK  status: ('A' for Active; 'I' for Inactive)
ROOT
ATOM      1  O   UNL A   1      11.052   6.249   5.416  1.00  0.00    -0.648 OA
ATOM      2  O   UNL A   1      10.012   6.857   7.361  1.00  0.00    -0.648 OA
ATOM      3  C   UNL A   1      12.357   6.877   7.269  1.00  0.00     0.129 C 
ATOM      4  C   UNL A   1      11.007   6.637   6.616  1.00  0.00     0.168 C 
ENDROOT
TORSDOF 0
ENDMDL
MODEL 7
REMARK VINA RESULT:      -2.7     13.105     13.442
REMARK  0 active torsions:
REMARK  status: ('A' for Active; 'I' for Inactive)
ROOT
ATOM      1  O   UNL A   1      10.885  13.379  11.806  1.00  0.00    -0.648 OA
ATOM      2  O   UNL A   1      12.953  13.634  12.751  1.00  0.00    -0.648 OA
ATOM      3  C   UNL A   1      12.070  11.473  12.512  1.00  0.00     0.129 C 
ATOM      4  C   UNL A   1      11.956  12.977  12.339  1.00  0.00     0.168 C 
ENDROOT
TORSDOF 0
ENDMDL
MODEL 8
REMARK VINA RESULT:      -2.7      1.210      1.682
REMARK  0 active torsions:
REMARK  status: ('A' for Active; 'I' for Inactive)
ROOT
ATOM      1  O   UNL A   1       4.127   6.154  21.879  1.00  0.00    -0.648 OA
ATOM      2  O   UNL A   1       4.462   4.428  20.415  1.00  0.00    -0.648 OA
ATOM      3  C   UNL A   1       5.978   6.220  20.428  1.00  0.00     0.129 C 
ATOM      4  C   UNL A   1       4.733   5.534  20.961  1.00  0.00     0.168 C 
ENDROOT
TORSDOF 0
ENDMDL
MODEL 9
REMARK VINA RESULT:      -2.6     15.856     16.480
REMARK  0 active torsions:
REMARK  status: ('A' for Active; 'I' for Inactive)
ROOT
ATOM      1  O   UNL A   1      19.684  11.806  16.333  1.00  0.00    -0.648 OA
ATOM      2  O   UNL A   1      18.378  10.024  15.742  1.00  0.00    -0.648 OA
ATOM      3  C   UNL A   1      19.703  11.057  14.103  1.00  0.00     0.129 C 
ATOM      4  C   UNL A   1      19.206  10.953  15.535  1.00  0.00     0.168 C 
ENDROOT
TORSDOF 0
ENDMDL
