MODEL 1
REMARK VINA RESULT:      -4.4      0.000      0.000
REMARK  6 active torsions:
REMARK  status: ('A' for Active; 'I' for Inactive)
REMARK    1  A    between atoms: N_3  and  CA_7 
REMARK    2  A    between atoms: N_4  and  C_8 
REMARK    3  A    between atoms: C_5  and  C_6 
REMARK    4  A    between atoms: C_5  and  CA_7 
REMARK    5  A    between atoms: C_6  and  C_8 
REMARK    6  A    between atoms: CA_7  and  C_9 
ROOT
HETATM    1  O   UNL     1      13.326   6.145  12.347  1.00  0.00    -0.646 OA
HETATM    2  OXT UNL     1      11.230   5.831  11.542  1.00  0.00    -0.646 OA
HETATM    3  C   UNL     1      12.001   6.443  12.269  1.00  0.00     0.204 C 
ENDROOT
BRANCH   3   4
HETATM    4  CA  UNL     1      11.625   7.599  13.179  1.00  0.00     0.283 C 
BRANCH   4   5
HETATM    5  N   UNL     1      11.083   7.044  14.419  1.00  0.00    -0.065 N 
HETATM    6  H   UNL     1      11.085   7.763  15.143  1.00  0.00     0.275 HD
HETATM    7  H   UNL     1      11.658   6.257  14.719  1.00  0.00     0.275 HD
HETATM    8  H   UNL     1      10.127   6.725  14.259  1.00  0.00     0.275 HD
ENDBRANCH   4   5
BRANCH   4   9
HETATM    9  C   UNL     1      12.802   8.556  13.424  1.00  0.00     0.045 C 
BRANCH   9  10
HETATM   10  C   UNL     1      12.467   9.793  14.268  1.00  0.00     0.030 C 
BRANCH  10  11
HETATM   11  C   UNL     1      11.964  10.936  13.386  1.00  0.00     0.230 C 
BRANCH  11  12
HETATM   12  N   UNL     1      12.738  12.147  13.634  1.00  0.00    -0.079 N 
HETATM   13  H   UNL     1      13.073  12.525  12.748  1.00  0.00     0.274 HD
HETATM   14  H   UNL     1      13.535  11.924  14.231  1.00  0.00     0.274 HD
HETATM   15  H   UNL     1      12.149  12.839  14.097  1.00  0.00     0.274 HD
ENDBRANCH  11  12
ENDBRANCH  10  11
ENDBRANCH   9  10
ENDBRANCH   4   9
ENDBRANCH   3   4
TORSDOF 6
ENDMDL
MODEL 2
REMARK VINA RESULT:      -4.4      3.357      4.534
REMARK  6 active torsions:
REMARK  status: ('A' for Active; 'I' for Inactive)
REMARK    1  A    between atoms: N_3  and  CA_7 
REMARK    2  A    between atoms: N_4  and  C_8 
REMARK    3  A    between atoms: C_5  and  C_6 
REMARK    4  A    between atoms: C_5  and  CA_7 
REMARK    5  A    between atoms: C_6  and  C_8 
REMARK    6  A    between atoms: CA_7  and  C_9 
ROOT
HETATM    1  O   UNL     1      12.360   4.584   9.805  1.00  0.00    -0.646 OA
HETATM    2  OXT UNL     1      14.099   3.848   8.550  1.00  0.00    -0.646 OA
HETATM    3  C   UNL     1      13.685   4.469   9.521  1.00  0.00     0.204 C 
ENDROOT
BRANCH   3   4
HETATM    4  CA  UNL     1      14.549   5.192  10.539  1.00  0.00     0.283 C 
BRANCH   4   5
HETATM    5  N   UNL     1      15.000   6.448   9.941  1.00  0.00    -0.065 N 
HETATM    6  H   UNL     1      16.017   6.508  10.002  1.00  0.00     0.275 HD
HETATM    7  H   UNL     1      14.582   7.232  10.442  1.00  0.00     0.275 HD
HETATM    8  H   UNL     1      14.715   6.480   8.962  1.00  0.00     0.275 HD
ENDBRANCH   4   5
BRANCH   4   9
HETATM    9  C   UNL     1      13.824   5.400  11.878  1.00  0.00     0.045 C 
BRANCH   9  10
HETATM   10  C   UNL     1      13.646   6.865  12.298  1.00  0.00     0.030 C 
BRANCH  10  11
HETATM   11  C   UNL     1      12.194   7.151  12.681  1.00  0.00     0.230 C 
BRANCH  11  12
HETATM   12  N   UNL     1      11.317   6.112  12.154  1.00  0.00    -0.079 N 
HETATM   13  H   UNL     1      11.054   6.342  11.196  1.00  0.00     0.274 HD
HETATM   14  H   UNL     1      10.478   6.051  12.731  1.00  0.00     0.274 HD
HETATM   15  H   UNL     1      11.804   5.216  12.168  1.00  0.00     0.274 HD
ENDBRANCH  11  12
ENDBRANCH  10  11
ENDBRANCH   9  10
ENDBRANCH   4   9
ENDBRANCH   3   4
TORSDOF 6
ENDMDL
MODEL 3
REMARK VINA RESULT:      -4.4      3.335      4.448
REMARK  6 active torsions:
REMARK  status: ('A' for Active; 'I' for Inactive)
REMARK    1  A    between atoms: N_3  and  CA_7 
REMARK    2  A    between atoms: N_4  and  C_8 
REMARK    3  A    between atoms: C_5  and  C_6 
REMARK    4  A    between atoms: C_5  and  CA_7 
REMARK    5  A    between atoms: C_6  and  C_8 
REMARK    6  A    between atoms: CA_7  and  C_9 
ROOT
HETATM    1  O   UNL     1      14.263   3.854   8.639  1.00  0.00    -0.646 OA
HETATM    2  OXT UNL     1      12.363   4.484   9.703  1.00  0.00    -0.646 OA
HETATM    3  C   UNL     1      13.585   4.485   9.635  1.00  0.00     0.204 C 
ENDROOT
BRANCH   3   4
HETATM    4  CA  UNL     1      14.522   5.165  10.618  1.00  0.00     0.283 C 
BRANCH   4   5
HETATM    5  N   UNL     1      14.993   6.409  10.008  1.00  0.00    -0.065 N 
HETATM    6  H   UNL     1      14.315   6.726   9.314  1.00  0.00     0.275 HD
HETATM    7  H   UNL     1      15.892   6.246   9.555  1.00  0.00     0.275 HD
HETATM    8  H   UNL     1      15.100   7.122  10.730  1.00  0.00     0.275 HD
ENDBRANCH   4   5
BRANCH   4   9
HETATM    9  C   UNL     1      13.868   5.390  11.989  1.00  0.00     0.045 C 
BRANCH   9  10
HETATM   10  C   UNL     1      13.680   6.861  12.386  1.00  0.00     0.030 C 
BRANCH  10  11
HETATM   11  C   UNL     1      12.203   7.179  12.623  1.00  0.00     0.230 C 
BRANCH  11  12
HETATM   12  N   UNL     1      11.366   6.087  12.139  1.00  0.00    -0.079 N 
HETATM   13  H   UNL     1      10.613   5.915  12.804  1.00  0.00     0.274 HD
HETATM   14  H   UNL     1      11.931   5.243  12.040  1.00  0.00     0.274 HD
HETATM   15  H   UNL     1      10.969   6.339  11.234  1.00  0.00     0.274 HD
ENDBRANCH  11  12
ENDBRANCH  10  11
ENDBRANCH   9  10
ENDBRANCH   4   9
ENDBRANCH   3   4
TORSDOF 6
ENDMDL
MODEL 4
REMARK VINA RESULT:      -4.2      2.985      3.778
REMARK  6 active torsions:
REMARK  status: ('A' for Active; 'I' for Inactive)
REMARK    1  A    between atoms: N_3  and  CA_7 
REMARK    2  A    between atoms: N_4  and  C_8 
REMARK    3  A    between atoms: C_5  and  C_6 
REMARK    4  A    between atoms: C_5  and  CA_7 
REMARK    5  A    between atoms: C_6  and  C_8 
REMARK    6  A    between atoms: CA_7  and  C_9 
ROOT
HETATM    1  O   UNL     1      12.559   4.229   9.291  1.00  0.00    -0.646 OA
HETATM    2  OXT UNL     1      14.373   4.832  10.510  1.00  0.00    -0.646 OA
HETATM    3  C   UNL     1      13.160   4.699  10.417  1.00  0.00     0.204 C 
ENDROOT
BRANCH   3   4
HETATM    4  CA  UNL     1      12.152   5.025  11.505  1.00  0.00     0.283 C 
BRANCH   4   5
HETATM    5  N   UNL     1      11.758   3.771  12.148  1.00  0.00    -0.065 N 
HETATM    6  H   UNL     1      10.852   3.892  12.601  1.00  0.00     0.275 HD
HETATM    7  H   UNL     1      12.456   3.513  12.846  1.00  0.00     0.275 HD
HETATM    8  H   UNL     1      11.692   3.035  11.445  1.00  0.00     0.275 HD
ENDBRANCH   4   5
BRANCH   4   9
HETATM    9  C   UNL     1      12.687   6.060  12.506  1.00  0.00     0.045 C 
BRANCH   9  10
HETATM   10  C   UNL     1      11.732   7.223  12.809  1.00  0.00     0.030 C 
BRANCH  10  11
HETATM   11  C   UNL     1      11.590   7.434  14.317  1.00  0.00     0.230 C 
BRANCH  11  12
HETATM   12  N   UNL     1      11.444   6.152  14.996  1.00  0.00    -0.079 N 
HETATM   13  H   UNL     1      11.511   5.396  14.315  1.00  0.00     0.274 HD
HETATM   14  H   UNL     1      10.536   6.113  15.458  1.00  0.00     0.274 HD
HETATM   15  H   UNL     1      12.184   6.049  15.691  1.00  0.00     0.274 HD
ENDBRANCH  11  12
ENDBRANCH  10  11
ENDBRANCH   9  10
ENDBRANCH   4   9
ENDBRANCH   3   4
TORSDOF 6
ENDMDL
MODEL 5
REMARK VINA RESULT:      -4.2      4.671      5.003
REMARK  6 active torsions:
REMARK  status: ('A' for Active; 'I' for Inactive)
REMARK    1  A    between atoms: N_3  and  CA_7 
REMARK    2  A    between atoms: N_4  and  C_8 
REMARK    3  A    between atoms: C_5  and  C_6 
REMARK    4  A    between atoms: C_5  and  CA_7 
REMARK    5  A    between atoms: C_6  and  C_8 
REMARK    6  A    between atoms: CA_7  and  C_9 
ROOT
HETATM    1  O   UNL     1      13.665   4.680   8.684  1.00  0.00    -0.646 OA
HETATM    2  OXT UNL     1      12.819   2.741   9.500  1.00  0.00    -0.646 OA
HETATM    3  C   UNL     1      13.081   3.926   9.655  1.00  0.00     0.204 C 
ENDROOT
BRANCH   3   4
HETATM    4  CA  UNL     1      12.807   4.732  10.912  1.00  0.00     0.283 C 
BRANCH   4   5
HETATM    5  N   UNL     1      11.893   3.962  11.755  1.00  0.00    -0.065 N 
HETATM    6  H   UNL     1      11.207   4.590  12.175  1.00  0.00     0.275 HD
HETATM    7  H   UNL     1      12.422   3.494  12.491  1.00  0.00     0.275 HD
HETATM    8  H   UNL     1      11.412   3.265  11.186  1.00  0.00     0.275 HD
ENDBRANCH   4   5
BRANCH   4   9
HETATM    9  C   UNL     1      14.099   5.125  11.646  1.00  0.00     0.045 C 
BRANCH   9  10
HETATM   10  C   UNL     1      14.526   6.589  11.469  1.00  0.00     0.030 C 
BRANCH  10  11
HETATM   11  C   UNL     1      15.975   6.682  10.989  1.00  0.00     0.230 C 
BRANCH  11  12
HETATM   12  N   UNL     1      16.270   5.599  10.058  1.00  0.00    -0.079 N 
HETATM   13  H   UNL     1      16.642   4.800  10.571  1.00  0.00     0.274 HD
HETATM   14  H   UNL     1      16.960   5.916   9.376  1.00  0.00     0.274 HD
HETATM   15  H   UNL     1      15.415   5.324   9.574  1.00  0.00     0.274 HD
ENDBRANCH  11  12
ENDBRANCH  10  11
ENDBRANCH   9  10
ENDBRANCH   4   9
ENDBRANCH   3   4
TORSDOF 6
ENDMDL
MODEL 6
REMARK VINA RESULT:      -4.1      1.541      2.065
REMARK  6 active torsions:
REMARK  status: ('A' for Active; 'I' for Inactive)
REMARK    1  A    between atoms: N_3  and  CA_7 
REMARK    2  A    between atoms: N_4  and  C_8 
REMARK    3  A    between atoms: C_5  and  C_6 
REMARK    4  A    between atoms: C_5  and  CA_7 
REMARK    5  A    between atoms: C_6  and  C_8 
REMARK    6  A    between atoms: CA_7  and  C_9 
ROOT
HETATM    1  O   UNL     1      13.700   5.758  13.608  1.00  0.00    -0.646 OA
HETATM    2  OXT UNL     1      14.327   7.267  15.179  1.00  0.00    -0.646 OA
HETATM    3  C   UNL     1      13.463   6.801  14.448  1.00  0.00     0.204 C 
ENDROOT
BRANCH   3   4
HETATM    4  CA  UNL     1      12.029   7.290  14.355  1.00  0.00     0.283 C 
BRANCH   4   5
HETATM    5  N   UNL     1      11.526   7.482  15.715  1.00  0.00    -0.065 N 
HETATM    6  H   UNL     1      11.138   6.604  16.061  1.00  0.00     0.275 HD
HETATM    7  H   UNL     1      10.799   8.198  15.711  1.00  0.00     0.275 HD
HETATM    8  H   UNL     1      12.291   7.779  16.322  1.00  0.00     0.275 HD
ENDBRANCH   4   5
BRANCH   4   9
HETATM    9  C   UNL     1      11.898   8.554  13.492  1.00  0.00     0.045 C 
BRANCH   9  10
HETATM   10  C   UNL     1      12.514   9.822  14.099  1.00  0.00     0.030 C 
BRANCH  10  11
HETATM   11  C   UNL     1      11.898  11.079  13.484  1.00  0.00     0.230 C 
BRANCH  11  12
HETATM   12  N   UNL     1      12.781  12.223  13.679  1.00  0.00    -0.079 N 
HETATM   13  H   UNL     1      13.738  11.959  13.444  1.00  0.00     0.274 HD
HETATM   14  H   UNL     1      12.741  12.520  14.654  1.00  0.00     0.274 HD
HETATM   15  H   UNL     1      12.482  12.990  13.077  1.00  0.00     0.274 HD
ENDBRANCH  11  12
ENDBRANCH  10  11
ENDBRANCH   9  10
ENDBRANCH   4   9
ENDBRANCH   3   4
TORSDOF 6
ENDMDL
MODEL 7
REMARK VINA RESULT:      -4.1      3.171      4.743
REMARK  6 active torsions:
REMARK  status: ('A' for Active; 'I' for Inactive)
REMARK    1  A    between atoms: N_3  and  CA_7 
REMARK    2  A    between atoms: N_4  and  C_8 
REMARK    3  A    between atoms: C_5  and  C_6 
REMARK    4  A    between atoms: C_5  and  CA_7 
REMARK    5  A    between atoms: C_6  and  C_8 
REMARK    6  A    between atoms: CA_7  and  C_9 
ROOT
HETATM    1  O   UNL     1      11.153   6.155  11.737  1.00  0.00    -0.646 OA
HETATM    2  OXT UNL     1      11.893   8.027  12.781  1.00  0.00    -0.646 OA
HETATM    3  C   UNL     1      11.911   6.810  12.658  1.00  0.00     0.204 C 
ENDROOT
BRANCH   3   4
HETATM    4  CA  UNL     1      12.754   5.853  13.483  1.00  0.00     0.283 C 
BRANCH   4   5
HETATM    5  N   UNL     1      11.961   5.428  14.637  1.00  0.00    -0.065 N 
HETATM    6  H   UNL     1      10.989   5.709  14.503  1.00  0.00     0.275 HD
HETATM    7  H   UNL     1      12.329   5.866  15.481  1.00  0.00     0.275 HD
HETATM    8  H   UNL     1      12.013   4.414  14.730  1.00  0.00     0.275 HD
ENDBRANCH   4   5
BRANCH   4   9
HETATM    9  C   UNL     1      13.273   4.668  12.653  1.00  0.00     0.045 C 
BRANCH   9  10
HETATM   10  C   UNL     1      14.338   5.025  11.608  1.00  0.00     0.030 C 
BRANCH  10  11
HETATM   11  C   UNL     1      13.880   4.628  10.204  1.00  0.00     0.230 C 
BRANCH  11  12
HETATM   12  N   UNL     1      12.626   3.885  10.271  1.00  0.00    -0.079 N 
HETATM   13  H   UNL     1      12.222   3.815   9.337  1.00  0.00     0.274 HD
HETATM   14  H   UNL     1      11.975   4.373  10.887  1.00  0.00     0.274 HD
HETATM   15  H   UNL     1      12.804   2.950  10.635  1.00  0.00     0.274 HD
ENDBRANCH  11  12
ENDBRANCH  10  11
ENDBRANCH   9  10
ENDBRANCH   4   9
ENDBRANCH   3   4
TORSDOF 6
ENDMDL
MODEL 8
REMARK VINA RESULT:      -4.0      4.940      5.879
REMARK  6 active torsions:
REMARK  status: ('A' for Active; 'I' for Inactive)
REMARK    1  A    between atoms: N_3  and  CA_7 
REMARK    2  A    between atoms: N_4  and  C_8 
REMARK    3  A    between atoms: C_5  and  C_6 
REMARK    4  A    between atoms: C_5  and  CA_7 
REMARK    5  A    between atoms: C_6  and  C_8 
REMARK    6  A    between atoms: CA_7  and  C_9 
ROOT
HETATM    1  O   UNL     1      13.506   2.751   8.683  1.00  0.00    -0.646 OA
HETATM    2  OXT UNL     1      12.862   4.823   8.024  1.00  0.00    -0.646 OA
HETATM    3  C   UNL     1      13.343   4.088   8.876  1.00  0.00     0.204 C 
ENDROOT
BRANCH   3   4
HETATM    4  CA  UNL     1      13.824   4.526  10.248  1.00  0.00     0.283 C 
BRANCH   4   5
HETATM    5  N   UNL     1      14.503   5.814  10.101  1.00  0.00    -0.065 N 
HETATM    6  H   UNL     1      15.448   5.662   9.747  1.00  0.00     0.275 HD
HETATM    7  H   UNL     1      14.549   6.279  11.007  1.00  0.00     0.275 HD
HETATM    8  H   UNL     1      13.984   6.398   9.445  1.00  0.00     0.275 HD
ENDBRANCH   4   5
BRANCH   4   9
HETATM    9  C   UNL     1      12.686   4.572  11.279  1.00  0.00     0.045 C 
BRANCH   9  10
HETATM   10  C   UNL     1      13.139   4.554  12.746  1.00  0.00     0.030 C 
BRANCH  10  11
HETATM   11  C   UNL     1      12.378   3.492  13.540  1.00  0.00     0.230 C 
BRANCH  11  12
HETATM   12  N   UNL     1      11.434   2.793  12.675  1.00  0.00    -0.079 N 
HETATM   13  H   UNL     1      11.090   3.432  11.959  1.00  0.00     0.274 HD
HETATM   14  H   UNL     1      10.649   2.454  13.232  1.00  0.00     0.274 HD
HETATM   15  H   UNL     1      11.901   2.003  12.230  1.00  0.00     0.274 HD
ENDBRANCH  11  12
ENDBRANCH  10  11
ENDBRANCH   9  10
ENDBRANCH   4   9
ENDBRANCH   3   4
TORSDOF 6
ENDMDL
MODEL 9
REMARK VINA RESULT:      -4.0      3.993      4.935
REMARK  6 active torsions:
REMARK  status: ('A' for Active; 'I' for Inactive)
REMARK    1  A    between atoms: N_3  and  CA_7 
REMARK    2  A    between atoms: N_4  and  C_8 
REMARK    3  A    between atoms: C_5  and  C_6 
REMARK    4  A    between atoms: C_5  and  CA_7 
REMARK    5  A    between atoms: C_6  and  C_8 
REMARK    6  A    between atoms: CA_7  and  C_9 
ROOT
HETATM    1  O   UNL     1      15.216   4.939   9.556  1.00  0.00    -0.646 OA
HETATM    2  OXT UNL     1      13.885   3.706   8.196  1.00  0.00    -0.646 OA
HETATM    3  C   UNL     1      14.044   4.324   9.241  1.00  0.00     0.204 C 
ENDROOT
BRANCH   3   4
HETATM    4  CA  UNL     1      12.998   4.505  10.326  1.00  0.00     0.283 C 
BRANCH   4   5
HETATM    5  N   UNL     1      12.329   3.220  10.531  1.00  0.00    -0.065 N 
HETATM    6  H   UNL     1      12.074   3.123  11.514  1.00  0.00     0.275 HD
HETATM    7  H   UNL     1      12.959   2.464  10.266  1.00  0.00     0.275 HD
HETATM    8  H   UNL     1      11.487   3.180   9.955  1.00  0.00     0.275 HD
ENDBRANCH   4   5
BRANCH   4   9
HETATM    9  C   UNL     1      13.593   5.076  11.622  1.00  0.00     0.045 C 
BRANCH   9  10
HETATM   10  C   UNL     1      12.576   5.720  12.574  1.00  0.00     0.030 C 
BRANCH  10  11
HETATM   11  C   UNL     1      12.738   5.178  13.995  1.00  0.00     0.230 C 
BRANCH  11  12
HETATM   12  N   UNL     1      11.630   5.619  14.835  1.00  0.00    -0.079 N 
HETATM   13  H   UNL     1      10.758   5.553  14.310  1.00  0.00     0.274 HD
HETATM   14  H   UNL     1      11.784   6.587  15.119  1.00  0.00     0.274 HD
HETATM   15  H   UNL     1      11.574   5.026  15.663  1.00  0.00     0.274 HD
ENDBRANCH  11  12
ENDBRANCH  10  11
ENDBRANCH   9  10
ENDBRANCH   4   9
ENDBRANCH   3   4
TORSDOF 6
ENDMDL
