MODEL 1
REMARK VINA RESULT:      -4.1      0.000      0.000
REMARK  6 active torsions:
REMARK  status: ('A' for Active; 'I' for Inactive)
REMARK    1  A    between atoms: N_3  and  CA_7 
REMARK    2  A    between atoms: N_4  and  C_8 
REMARK    3  A    between atoms: C_5  and  C_6 
REMARK    4  A    between atoms: C_5  and  CA_7 
REMARK    5  A    between atoms: C_6  and  C_8 
REMARK    6  A    between atoms: CA_7  and  C_9 
ROOT
HETATM    1  O   UNL     1      11.552   6.189   5.852  1.00  0.00    -0.646 OA
HETATM    2  OXT UNL     1      10.052   6.996   7.348  1.00  0.00    -0.646 OA
HETATM    3  C   UNL     1      11.212   6.758   7.039  1.00  0.00     0.204 C 
ENDROOT
BRANCH   3   4
HETATM    4  CA  UNL     1      12.430   7.049   7.898  1.00  0.00     0.283 C 
BRANCH   4   5
HETATM    5  N   UNL     1      13.031   8.297   7.427  1.00  0.00    -0.065 N 
HETATM    6  H   UNL     1      12.401   8.747   6.762  1.00  0.00     0.275 HD
HETATM    7  H   UNL     1      13.920   8.095   6.971  1.00  0.00     0.275 HD
HETATM    8  H   UNL     1      13.189   8.918   8.221  1.00  0.00     0.275 HD
ENDBRANCH   4   5
BRANCH   4   9
HETATM    9  C   UNL     1      12.093   7.083   9.397  1.00  0.00     0.045 C 
BRANCH   9  10
HETATM   10  C   UNL     1      12.154   8.474  10.044  1.00  0.00     0.030 C 
BRANCH  10  11
HETATM   11  C   UNL     1      10.892   8.751  10.863  1.00  0.00     0.230 C 
BRANCH  11  12
HETATM   12  N   UNL     1       9.727   8.163  10.213  1.00  0.00    -0.079 N 
HETATM   13  H   UNL     1       9.663   8.504   9.254  1.00  0.00     0.274 HD
HETATM   14  H   UNL     1       8.884   8.426  10.723  1.00  0.00     0.274 HD
HETATM   15  H   UNL     1       9.817   7.147  10.207  1.00  0.00     0.274 HD
ENDBRANCH  11  12
ENDBRANCH  10  11
ENDBRANCH   9  10
ENDBRANCH   4   9
ENDBRANCH   3   4
TORSDOF 6
ENDMDL
MODEL 2
REMARK VINA RESULT:      -4.0      4.219      5.191
REMARK  6 active torsions:
REMARK  status: ('A' for Active; 'I' for Inactive)
REMARK    1  A    between atoms: N_3  and  CA_7 
REMARK    2  A    between atoms: N_4  and  C_8 
REMARK    3  A    between atoms: C_5  and  C_6 
REMARK    4  A    between atoms: C_5  and  CA_7 
REMARK    5  A    between atoms: C_6  and  C_8 
REMARK    6  A    between atoms: CA_7  and  C_9 
ROOT
HETATM    1  O   UNL     1      11.130   6.654  11.335  1.00  0.00    -0.646 OA
HETATM    2  OXT UNL     1      12.953   7.901  11.847  1.00  0.00    -0.646 OA
HETATM    3  C   UNL     1      11.736   7.772  11.819  1.00  0.00     0.204 C 
ENDROOT
BRANCH   3   4
HETATM    4  CA  UNL     1      10.729   8.801  12.302  1.00  0.00     0.283 C 
BRANCH   4   5
HETATM    5  N   UNL     1      10.783   8.837  13.763  1.00  0.00    -0.065 N 
HETATM    6  H   UNL     1       9.895   8.508  14.144  1.00  0.00     0.275 HD
HETATM    7  H   UNL     1      10.953   9.793  14.073  1.00  0.00     0.275 HD
HETATM    8  H   UNL     1      11.538   8.234  14.090  1.00  0.00     0.275 HD
ENDBRANCH   4   5
BRANCH   4   9
HETATM    9  C   UNL     1      10.955  10.182  11.667  1.00  0.00     0.045 C 
BRANCH   9  10
HETATM   10  C   UNL     1      11.833  11.137  12.488  1.00  0.00     0.030 C 
BRANCH  10  11
HETATM   11  C   UNL     1      11.422  12.591  12.256  1.00  0.00     0.230 C 
BRANCH  11  12
HETATM   12  N   UNL     1      12.556  13.480  12.485  1.00  0.00    -0.079 N 
HETATM   13  H   UNL     1      12.671  13.634  13.486  1.00  0.00     0.274 HD
HETATM   14  H   UNL     1      12.386  14.373  12.022  1.00  0.00     0.274 HD
HETATM   15  H   UNL     1      13.403  13.056  12.107  1.00  0.00     0.274 HD
ENDBRANCH  11  12
ENDBRANCH  10  11
ENDBRANCH   9  10
ENDBRANCH   4   9
ENDBRANCH   3   4
TORSDOF 6
ENDMDL
MODEL 3
REMARK VINA RESULT:      -3.9      1.531      2.632
REMARK  6 active torsions:
REMARK  status: ('A' for Active; 'I' for Inactive)
REMARK    1  A    between atoms: N_3  and  CA_7 
REMARK    2  A    between atoms: N_4  and  C_8 
REMARK    3  A    between atoms: C_5  and  C_6 
REMARK    4  A    between atoms: C_5  and  CA_7 
REMARK    5  A    between atoms: C_6  and  C_8 
REMARK    6  A    between atoms: CA_7  and  C_9 
ROOT
HETATM    1  O   UNL     1      12.570   6.646   6.581  1.00  0.00    -0.646 OA
HETATM    2  OXT UNL     1      10.469   7.215   5.945  1.00  0.00    -0.646 OA
HETATM    3  C   UNL     1      11.272   6.965   6.834  1.00  0.00     0.204 C 
ENDROOT
BRANCH   3   4
HETATM    4  CA  UNL     1      10.969   6.969   8.322  1.00  0.00     0.283 C 
BRANCH   4   5
HETATM    5  N   UNL     1      10.085   5.838   8.608  1.00  0.00    -0.065 N 
HETATM    6  H   UNL     1       9.174   6.186   8.908  1.00  0.00     0.275 HD
HETATM    7  H   UNL     1      10.492   5.267   9.347  1.00  0.00     0.275 HD
HETATM    8  H   UNL     1       9.972   5.274   7.765  1.00  0.00     0.275 HD
ENDBRANCH   4   5
BRANCH   4   9
HETATM    9  C   UNL     1      12.244   6.953   9.178  1.00  0.00     0.045 C 
BRANCH   9  10
HETATM   10  C   UNL     1      12.700   8.327   9.688  1.00  0.00     0.030 C 
BRANCH  10  11
HETATM   11  C   UNL     1      14.139   8.619   9.261  1.00  0.00     0.230 C 
BRANCH  11  12
HETATM   12  N   UNL     1      14.197   8.900   7.831  1.00  0.00    -0.079 N 
HETATM   13  H   UNL     1      13.904   9.862   7.662  1.00  0.00     0.274 HD
HETATM   14  H   UNL     1      13.574   8.263   7.334  1.00  0.00     0.274 HD
HETATM   15  H   UNL     1      15.152   8.772   7.497  1.00  0.00     0.274 HD
ENDBRANCH  11  12
ENDBRANCH  10  11
ENDBRANCH   9  10
ENDBRANCH   4   9
ENDBRANCH   3   4
TORSDOF 6
ENDMDL
MODEL 4
REMARK VINA RESULT:      -3.9      2.109      3.594
REMARK  6 active torsions:
REMARK  status: ('A' for Active; 'I' for Inactive)
REMARK    1  A    between atoms: N_3  and  CA_7 
REMARK    2  A    between atoms: N_4  and  C_8 
REMARK    3  A    between atoms: C_5  and  C_6 
REMARK    4  A    between atoms: C_5  and  CA_7 
REMARK    5  A    between atoms: C_6  and  C_8 
REMARK    6  A    between atoms: CA_7  and  C_9 
ROOT
HETATM    1  O   UNL     1      11.824   6.206   6.011  1.00  0.00    -0.646 OA
HETATM    2  OXT UNL     1      10.029   6.941   7.184  1.00  0.00    -0.646 OA
HETATM    3  C   UNL     1      11.242   6.824   7.074  1.00  0.00     0.204 C 
ENDROOT
BRANCH   3   4
HETATM    4  CA  UNL     1      12.271   7.330   8.069  1.00  0.00     0.283 C 
BRANCH   4   5
HETATM    5  N   UNL     1      12.037   6.656   9.346  1.00  0.00    -0.065 N 
HETATM    6  H   UNL     1      12.930   6.495   9.814  1.00  0.00     0.275 HD
HETATM    7  H   UNL     1      11.575   5.762   9.179  1.00  0.00     0.275 HD
HETATM    8  H   UNL     1      11.445   7.240   9.936  1.00  0.00     0.275 HD
ENDBRANCH   4   5
BRANCH   4   9
HETATM    9  C   UNL     1      13.710   7.155   7.562  1.00  0.00     0.045 C 
BRANCH   9  10
HETATM   10  C   UNL     1      14.767   6.973   8.660  1.00  0.00     0.030 C 
BRANCH  10  11
HETATM   11  C   UNL     1      16.178   7.136   8.092  1.00  0.00     0.230 C 
BRANCH  11  12
HETATM   12  N   UNL     1      16.118   7.614   6.716  1.00  0.00    -0.079 N 
HETATM   13  H   UNL     1      16.845   7.158   6.165  1.00  0.00     0.274 HD
HETATM   14  H   UNL     1      16.265   8.624   6.700  1.00  0.00     0.274 HD
HETATM   15  H   UNL     1      15.204   7.397   6.319  1.00  0.00     0.274 HD
ENDBRANCH  11  12
ENDBRANCH  10  11
ENDBRANCH   9  10
ENDBRANCH   4   9
ENDBRANCH   3   4
TORSDOF 6
ENDMDL
MODEL 5
REMARK VINA RESULT:      -3.8      2.508      4.032
REMARK  6 active torsions:
REMARK  status: ('A' for Active; 'I' for Inactive)
REMARK    1  A    between atoms: N_3  and  CA_7 
REMARK    2  A    between atoms: N_4  and  C_8 
REMARK    3  A    between atoms: C_5  and  C_6 
REMARK    4  A    between atoms: C_5  and  CA_7 
REMARK    5  A    between atoms: C_6  and  C_8 
REMARK    6  A    between atoms: CA_7  and  C_9 
ROOT
HETATM    1  O   UNL     1       9.594   8.383   9.955  1.00  0.00    -0.646 OA
HETATM    2  OXT UNL     1      10.741   9.941  11.136  1.00  0.00    -0.646 OA
HETATM    3  C   UNL     1      10.517   8.766  10.878  1.00  0.00     0.204 C 
ENDROOT
BRANCH   3   4
HETATM    4  CA  UNL     1      11.207   7.575  11.519  1.00  0.00     0.283 C 
BRANCH   4   5
HETATM    5  N   UNL     1      10.377   7.116  12.633  1.00  0.00    -0.065 N 
HETATM    6  H   UNL     1       9.653   6.489  12.282  1.00  0.00     0.275 HD
HETATM    7  H   UNL     1       9.941   7.919  13.086  1.00  0.00     0.275 HD
HETATM    8  H   UNL     1      10.959   6.620  13.308  1.00  0.00     0.275 HD
ENDBRANCH   4   5
BRANCH   4   9
HETATM    9  C   UNL     1      11.508   6.459  10.507  1.00  0.00     0.045 C 
BRANCH   9  10
HETATM   10  C   UNL     1      12.721   6.715   9.601  1.00  0.00     0.030 C 
BRANCH  10  11
HETATM   11  C   UNL     1      12.291   6.864   8.142  1.00  0.00     0.230 C 
BRANCH  11  12
HETATM   12  N   UNL     1      10.892   6.486   7.984  1.00  0.00    -0.079 N 
HETATM   13  H   UNL     1      10.539   6.110   8.864  1.00  0.00     0.274 HD
HETATM   14  H   UNL     1      10.812   5.776   7.256  1.00  0.00     0.274 HD
HETATM   15  H   UNL     1      10.345   7.305   7.721  1.00  0.00     0.274 HD
ENDBRANCH  11  12
ENDBRANCH  10  11
ENDBRANCH   9  10
ENDBRANCH   4   9
ENDBRANCH   3   4
TORSDOF 6
ENDMDL
MODEL 6
REMARK VINA RESULT:      -3.8      1.994      2.157
REMARK  6 active torsions:
REMARK  status: ('A' for Active; 'I' for Inactive)
REMARK    1  A    between atoms: N_3  and  CA_7 
REMARK    2  A    between atoms: N_4  and  C_8 
REMARK    3  A    between atoms: C_5  and  C_6 
REMARK    4  A    between atoms: C_5  and  CA_7 
REMARK    5  A    between atoms: C_6  and  C_8 
REMARK    6  A    between atoms: CA_7  and  C_9 
ROOT
HETATM    1  O   UNL     1      12.926   7.092   7.014  1.00  0.00    -0.646 OA
HETATM    2  OXT UNL     1      10.910   6.855   6.006  1.00  0.00    -0.646 OA
HETATM    3  C   UNL     1      11.575   6.931   7.030  1.00  0.00     0.204 C 
ENDROOT
BRANCH   3   4
HETATM    4  CA  UNL     1      11.028   6.864   8.444  1.00  0.00     0.283 C 
BRANCH   4   5
HETATM    5  N   UNL     1      10.017   5.807   8.490  1.00  0.00    -0.065 N 
HETATM    6  H   UNL     1       9.290   6.002   7.801  1.00  0.00     0.275 HD
HETATM    7  H   UNL     1       9.604   5.772   9.421  1.00  0.00     0.275 HD
HETATM    8  H   UNL     1      10.455   4.910   8.278  1.00  0.00     0.275 HD
ENDBRANCH   4   5
BRANCH   4   9
HETATM    9  C   UNL     1      12.136   6.668   9.491  1.00  0.00     0.045 C 
BRANCH   9  10
HETATM   10  C   UNL     1      11.642   6.308  10.899  1.00  0.00     0.030 C 
BRANCH  10  11
HETATM   11  C   UNL     1      11.170   7.554  11.648  1.00  0.00     0.230 C 
BRANCH  11  12
HETATM   12  N   UNL     1      10.430   7.175  12.847  1.00  0.00    -0.079 N 
HETATM   13  H   UNL     1       9.430   7.205  12.653  1.00  0.00     0.274 HD
HETATM   14  H   UNL     1      10.650   7.825  13.601  1.00  0.00     0.274 HD
HETATM   15  H   UNL     1      10.695   6.229  13.125  1.00  0.00     0.274 HD
ENDBRANCH  11  12
ENDBRANCH  10  11
ENDBRANCH   9  10
ENDBRANCH   4   9
ENDBRANCH   3   4
TORSDOF 6
ENDMDL
MODEL 7
REMARK VINA RESULT:      -3.7      2.061      2.609
REMARK  6 active torsions:
REMARK  status: ('A' for Active; 'I' for Inactive)
REMARK    1  A    between atoms: N_3  and  CA_7 
REMARK    2  A    between atoms: N_4  and  C_8 
REMARK    3  A    between atoms: C_5  and  C_6 
REMARK    4  A    between atoms: C_5  and  CA_7 
REMARK    5  A    between atoms: C_6  and  C_8 
REMARK    6  A    between atoms: CA_7  and  C_9 
ROOT
HETATM    1  O   UNL     1      12.783   6.795   8.814  1.00  0.00    -0.646 OA
HETATM    2  OXT UNL     1      11.296   6.546   7.121  1.00  0.00    -0.646 OA
HETATM    3  C   UNL     1      11.523   6.768   8.303  1.00  0.00     0.204 C 
ENDROOT
BRANCH   3   4
HETATM    4  CA  UNL     1      10.473   7.042   9.366  1.00  0.00     0.283 C 
BRANCH   4   5
HETATM    5  N   UNL     1       9.727   5.805   9.596  1.00  0.00    -0.065 N 
HETATM    6  H   UNL     1       8.966   5.736   8.918  1.00  0.00     0.275 HD
HETATM    7  H   UNL     1       9.342   5.810  10.540  1.00  0.00     0.275 HD
HETATM    8  H   UNL     1      10.352   5.006   9.488  1.00  0.00     0.275 HD
ENDBRANCH   4   5
BRANCH   4   9
HETATM    9  C   UNL     1      11.083   7.613  10.655  1.00  0.00     0.045 C 
BRANCH   9  10
HETATM   10  C   UNL     1      10.562   8.999  11.061  1.00  0.00     0.030 C 
BRANCH  10  11
HETATM   11  C   UNL     1      10.475   9.126  12.582  1.00  0.00     0.230 C 
BRANCH  11  12
HETATM   12  N   UNL     1      10.299   7.813  13.191  1.00  0.00    -0.079 N 
HETATM   13  H   UNL     1      10.615   7.842  14.160  1.00  0.00     0.274 HD
HETATM   14  H   UNL     1      10.846   7.123  12.676  1.00  0.00     0.274 HD
HETATM   15  H   UNL     1       9.313   7.554  13.163  1.00  0.00     0.274 HD
ENDBRANCH  11  12
ENDBRANCH  10  11
ENDBRANCH   9  10
ENDBRANCH   4   9
ENDBRANCH   3   4
TORSDOF 6
ENDMDL
MODEL 8
REMARK VINA RESULT:      -3.7      2.098      2.432
REMARK  6 active torsions:
REMARK  status: ('A' for Active; 'I' for Inactive)
REMARK    1  A    between atoms: N_3  and  CA_7 
REMARK    2  A    between atoms: N_4  and  C_8 
REMARK    3  A    between atoms: C_5  and  C_6 
REMARK    4  A    between atoms: C_5  and  CA_7 
REMARK    5  A    between atoms: C_6  and  C_8 
REMARK    6  A    between atoms: CA_7  and  C_9 
ROOT
HETATM    1  O   UNL     1      10.088   6.862   7.083  1.00  0.00    -0.646 OA
HETATM    2  OXT UNL     1      12.231   6.773   7.817  1.00  0.00    -0.646 OA
HETATM    3  C   UNL     1      11.036   6.873   8.059  1.00  0.00     0.204 C 
ENDROOT
BRANCH   3   4
HETATM    4  CA  UNL     1      10.426   7.021   9.442  1.00  0.00     0.283 C 
BRANCH   4   5
HETATM    5  N   UNL     1       9.624   5.827   9.714  1.00  0.00    -0.065 N 
HETATM    6  H   UNL     1       9.298   5.429   8.833  1.00  0.00     0.275 HD
HETATM    7  H   UNL     1       8.823   6.081  10.291  1.00  0.00     0.275 HD
HETATM    8  H   UNL     1      10.195   5.140  10.207  1.00  0.00     0.275 HD
ENDBRANCH   4   5
BRANCH   4   9
HETATM    9  C   UNL     1      11.486   7.281  10.523  1.00  0.00     0.045 C 
BRANCH   9  10
HETATM   10  C   UNL     1      11.496   8.706  11.092  1.00  0.00     0.030 C 
BRANCH  10  11
HETATM   11  C   UNL     1      10.439   8.865  12.186  1.00  0.00     0.230 C 
BRANCH  11  12
HETATM   12  N   UNL     1      10.372   7.660  13.004  1.00  0.00    -0.079 N 
HETATM   13  H   UNL     1      10.900   7.803  13.865  1.00  0.00     0.274 HD
HETATM   14  H   UNL     1      10.770   6.875  12.488  1.00  0.00     0.274 HD
HETATM   15  H   UNL     1       9.399   7.457  13.233  1.00  0.00     0.274 HD
ENDBRANCH  11  12
ENDBRANCH  10  11
ENDBRANCH   9  10
ENDBRANCH   4   9
ENDBRANCH   3   4
TORSDOF 6
ENDMDL
MODEL 9
REMARK VINA RESULT:      -3.7      2.640      4.220
REMARK  6 active torsions:
REMARK  status: ('A' for Active; 'I' for Inactive)
REMARK    1  A    between atoms: N_3  and  CA_7 
REMARK    2  A    between atoms: N_4  and  C_8 
REMARK    3  A    between atoms: C_5  and  C_6 
REMARK    4  A    between atoms: C_5  and  CA_7 
REMARK    5  A    between atoms: C_6  and  C_8 
REMARK    6  A    between atoms: CA_7  and  C_9 
ROOT
HETATM    1  O   UNL     1       9.539   8.422   9.983  1.00  0.00    -0.646 OA
HETATM    2  OXT UNL     1      11.706   8.907  10.440  1.00  0.00    -0.646 OA
HETATM    3  C   UNL     1      10.859   8.107  10.064  1.00  0.00     0.204 C 
ENDROOT
BRANCH   3   4
HETATM    4  CA  UNL     1      11.129   6.675   9.637  1.00  0.00     0.283 C 
BRANCH   4   5
HETATM    5  N   UNL     1       9.872   5.931   9.725  1.00  0.00    -0.065 N 
HETATM    6  H   UNL     1       9.150   6.530  10.129  1.00  0.00     0.275 HD
HETATM    7  H   UNL     1      10.003   5.111  10.316  1.00  0.00     0.275 HD
HETATM    8  H   UNL     1       9.586   5.635   8.791  1.00  0.00     0.275 HD
ENDBRANCH   4   5
BRANCH   4   9
HETATM    9  C   UNL     1      11.768   6.591   8.242  1.00  0.00     0.045 C 
BRANCH   9  10
HETATM   10  C   UNL     1      10.808   6.841   7.072  1.00  0.00     0.030 C 
BRANCH  10  11
HETATM   11  C   UNL     1      10.448   5.530   6.371  1.00  0.00     0.230 C 
BRANCH  11  12
HETATM   12  N   UNL     1      11.160   5.423   5.103  1.00  0.00    -0.079 N 
HETATM   13  H   UNL     1      11.345   4.441   4.898  1.00  0.00     0.274 HD
HETATM   14  H   UNL     1      12.044   5.928   5.165  1.00  0.00     0.274 HD
HETATM   15  H   UNL     1      10.591   5.823   4.357  1.00  0.00     0.274 HD
ENDBRANCH  11  12
ENDBRANCH  10  11
ENDBRANCH   9  10
ENDBRANCH   4   9
ENDBRANCH   3   4
TORSDOF 6
ENDMDL
