MODEL 1
REMARK VINA RESULT:      -4.1      0.000      0.000
REMARK  6 active torsions:
REMARK  status: ('A' for Active; 'I' for Inactive)
REMARK    1  A    between atoms: N_3  and  CA_7 
REMARK    2  A    between atoms: N_4  and  C_8 
REMARK    3  A    between atoms: C_5  and  C_6 
REMARK    4  A    between atoms: C_5  and  CA_7 
REMARK    5  A    between atoms: C_6  and  C_8 
REMARK    6  A    between atoms: CA_7  and  C_9 
ROOT
HETATM    1  O   UNL     1      11.595   6.190   5.924  1.00  0.00    -0.646 OA
HETATM    2  OXT UNL     1      10.079   6.988   7.408  1.00  0.00    -0.646 OA
HETATM    3  C   UNL     1      11.243   6.759   7.108  1.00  0.00     0.204 C 
ENDROOT
BRANCH   3   4
HETATM    4  CA  UNL     1      12.453   7.062   7.974  1.00  0.00     0.283 C 
BRANCH   4   5
HETATM    5  N   UNL     1      13.061   8.301   7.488  1.00  0.00    -0.065 N 
HETATM    6  H   UNL     1      13.715   8.656   8.187  1.00  0.00     0.275 HD
HETATM    7  H   UNL     1      12.332   8.994   7.320  1.00  0.00     0.275 HD
HETATM    8  H   UNL     1      13.561   8.115   6.618  1.00  0.00     0.275 HD
ENDBRANCH   4   5
BRANCH   4   9
HETATM    9  C   UNL     1      12.100   7.123   9.469  1.00  0.00     0.045 C 
BRANCH   9  10
HETATM   10  C   UNL     1      12.173   8.522  10.095  1.00  0.00     0.030 C 
BRANCH  10  11
HETATM   11  C   UNL     1      10.874   8.861  10.827  1.00  0.00     0.230 C 
BRANCH  11  12
HETATM   12  N   UNL     1       9.745   8.189  10.194  1.00  0.00    -0.079 N 
HETATM   13  H   UNL     1       9.519   8.657   9.316  1.00  0.00     0.274 HD
HETATM   14  H   UNL     1       8.936   8.224  10.814  1.00  0.00     0.274 HD
HETATM   15  H   UNL     1       9.989   7.216  10.007  1.00  0.00     0.274 HD
ENDBRANCH  11  12
ENDBRANCH  10  11
ENDBRANCH   9  10
ENDBRANCH   4   9
ENDBRANCH   3   4
TORSDOF 6
ENDMDL
MODEL 2
REMARK VINA RESULT:      -4.1      3.251      4.509
REMARK  6 active torsions:
REMARK  status: ('A' for Active; 'I' for Inactive)
REMARK    1  A    between atoms: N_3  and  CA_7 
REMARK    2  A    between atoms: N_4  and  C_8 
REMARK    3  A    between atoms: C_5  and  C_6 
REMARK    4  A    between atoms: C_5  and  CA_7 
REMARK    5  A    between atoms: C_6  and  C_8 
REMARK    6  A    between atoms: CA_7  and  C_9 
ROOT
HETATM    1  O   UNL     1       9.866   7.807   9.511  1.00  0.00    -0.646 OA
HETATM    2  OXT UNL     1      11.761   7.233  10.615  1.00  0.00    -0.646 OA
HETATM    3  C   UNL     1      10.803   7.983  10.481  1.00  0.00     0.204 C 
ENDROOT
BRANCH   3   4
HETATM    4  CA  UNL     1      10.507   9.196  11.345  1.00  0.00     0.283 C 
BRANCH   4   5
HETATM    5  N   UNL     1      10.044   8.722  12.649  1.00  0.00    -0.065 N 
HETATM    6  H   UNL     1      10.803   8.797  13.327  1.00  0.00     0.275 HD
HETATM    7  H   UNL     1       9.750   7.749  12.573  1.00  0.00     0.275 HD
HETATM    8  H   UNL     1       9.255   9.292  12.957  1.00  0.00     0.275 HD
ENDBRANCH   4   5
BRANCH   4   9
HETATM    9  C   UNL     1      11.711  10.145  11.453  1.00  0.00     0.045 C 
BRANCH   9  10
HETATM   10  C   UNL     1      11.658  11.128  12.630  1.00  0.00     0.030 C 
BRANCH  10  11
HETATM   11  C   UNL     1      11.397  12.553  12.142  1.00  0.00     0.230 C 
BRANCH  11  12
HETATM   12  N   UNL     1      12.516  13.421  12.490  1.00  0.00    -0.079 N 
HETATM   13  H   UNL     1      12.546  13.548  13.501  1.00  0.00     0.274 HD
HETATM   14  H   UNL     1      12.397  14.327  12.037  1.00  0.00     0.274 HD
HETATM   15  H   UNL     1      13.388  12.995  12.175  1.00  0.00     0.274 HD
ENDBRANCH  11  12
ENDBRANCH  10  11
ENDBRANCH   9  10
ENDBRANCH   4   9
ENDBRANCH   3   4
TORSDOF 6
ENDMDL
MODEL 3
REMARK VINA RESULT:      -4.0      4.079      5.237
REMARK  6 active torsions:
REMARK  status: ('A' for Active; 'I' for Inactive)
REMARK    1  A    between atoms: N_3  and  CA_7 
REMARK    2  A    between atoms: N_4  and  C_8 
REMARK    3  A    between atoms: C_5  and  C_6 
REMARK    4  A    between atoms: C_5  and  CA_7 
REMARK    5  A    between atoms: C_6  and  C_8 
REMARK    6  A    between atoms: CA_7  and  C_9 
ROOT
HETATM    1  O   UNL     1      11.435   6.841  12.394  1.00  0.00    -0.646 OA
HETATM    2  OXT UNL     1      10.801   8.495  13.810  1.00  0.00    -0.646 OA
HETATM    3  C   UNL     1      11.077   8.123  12.677  1.00  0.00     0.204 C 
ENDROOT
BRANCH   3   4
HETATM    4  CA  UNL     1      11.069   8.997  11.435  1.00  0.00     0.283 C 
BRANCH   4   5
HETATM    5  N   UNL     1      10.141   8.407  10.471  1.00  0.00    -0.065 N 
HETATM    6  H   UNL     1      10.336   8.778   9.540  1.00  0.00     0.275 HD
HETATM    7  H   UNL     1       9.184   8.639  10.735  1.00  0.00     0.275 HD
HETATM    8  H   UNL     1      10.256   7.393  10.465  1.00  0.00     0.275 HD
ENDBRANCH   4   5
BRANCH   4   9
HETATM    9  C   UNL     1      10.738  10.463  11.755  1.00  0.00     0.045 C 
BRANCH   9  10
HETATM   10  C   UNL     1      11.918  11.297  12.273  1.00  0.00     0.030 C 
BRANCH  10  11
HETATM   11  C   UNL     1      11.545  12.777  12.358  1.00  0.00     0.230 C 
BRANCH  11  12
HETATM   12  N   UNL     1      12.735  13.586  12.601  1.00  0.00    -0.079 N 
HETATM   13  H   UNL     1      12.845  14.264  11.847  1.00  0.00     0.274 HD
HETATM   14  H   UNL     1      13.556  12.981  12.635  1.00  0.00     0.274 HD
HETATM   15  H   UNL     1      12.637  14.078  13.489  1.00  0.00     0.274 HD
ENDBRANCH  11  12
ENDBRANCH  10  11
ENDBRANCH   9  10
ENDBRANCH   4   9
ENDBRANCH   3   4
TORSDOF 6
ENDMDL
MODEL 4
REMARK VINA RESULT:      -4.0      2.096      3.569
REMARK  6 active torsions:
REMARK  status: ('A' for Active; 'I' for Inactive)
REMARK    1  A    between atoms: N_3  and  CA_7 
REMARK    2  A    between atoms: N_4  and  C_8 
REMARK    3  A    between atoms: C_5  and  C_6 
REMARK    4  A    between atoms: C_5  and  CA_7 
REMARK    5  A    between atoms: C_6  and  C_8 
REMARK    6  A    between atoms: CA_7  and  C_9 
ROOT
HETATM    1  O   UNL     1      10.383   7.541   5.846  1.00  0.00    -0.646 OA
HETATM    2  OXT UNL     1      10.699   5.318   6.162  1.00  0.00    -0.646 OA
HETATM    3  C   UNL     1      10.654   6.454   6.617  1.00  0.00     0.204 C 
ENDROOT
BRANCH   3   4
HETATM    4  CA  UNL     1      10.884   6.831   8.070  1.00  0.00     0.283 C 
BRANCH   4   5
HETATM    5  N   UNL     1      10.050   5.963   8.902  1.00  0.00    -0.065 N 
HETATM    6  H   UNL     1       9.305   6.515   9.329  1.00  0.00     0.275 HD
HETATM    7  H   UNL     1      10.622   5.541   9.632  1.00  0.00     0.275 HD
HETATM    8  H   UNL     1       9.640   5.230   8.323  1.00  0.00     0.275 HD
ENDBRANCH   4   5
BRANCH   4   9
HETATM    9  C   UNL     1      12.369   6.775   8.460  1.00  0.00     0.045 C 
BRANCH   9  10
HETATM   10  C   UNL     1      13.345   7.217   7.361  1.00  0.00     0.030 C 
BRANCH  10  11
HETATM   11  C   UNL     1      14.785   7.209   7.874  1.00  0.00     0.230 C 
BRANCH  11  12
HETATM   12  N   UNL     1      15.721   7.285   6.757  1.00  0.00    -0.079 N 
HETATM   13  H   UNL     1      16.062   8.241   6.663  1.00  0.00     0.274 HD
HETATM   14  H   UNL     1      15.247   7.007   5.897  1.00  0.00     0.274 HD
HETATM   15  H   UNL     1      16.508   6.659   6.929  1.00  0.00     0.274 HD
ENDBRANCH  11  12
ENDBRANCH  10  11
ENDBRANCH   9  10
ENDBRANCH   4   9
ENDBRANCH   3   4
TORSDOF 6
ENDMDL
MODEL 5
REMARK VINA RESULT:      -3.9      2.127      2.503
REMARK  6 active torsions:
REMARK  status: ('A' for Active; 'I' for Inactive)
REMARK    1  A    between atoms: N_3  and  CA_7 
REMARK    2  A    between atoms: N_4  and  C_8 
REMARK    3  A    between atoms: C_5  and  C_6 
REMARK    4  A    between atoms: C_5  and  CA_7 
REMARK    5  A    between atoms: C_6  and  C_8 
REMARK    6  A    between atoms: CA_7  and  C_9 
ROOT
HETATM    1  O   UNL     1      10.070   6.727   7.005  1.00  0.00    -0.646 OA
HETATM    2  OXT UNL     1      12.156   6.935   7.869  1.00  0.00    -0.646 OA
HETATM    3  C   UNL     1      10.944   6.899   8.034  1.00  0.00     0.204 C 
ENDROOT
BRANCH   3   4
HETATM    4  CA  UNL     1      10.230   7.035   9.367  1.00  0.00     0.283 C 
BRANCH   4   5
HETATM    5  N   UNL     1       9.765   5.708   9.771  1.00  0.00    -0.065 N 
HETATM    6  H   UNL     1       9.676   5.113   8.946  1.00  0.00     0.275 HD
HETATM    7  H   UNL     1       8.859   5.791  10.231  1.00  0.00     0.275 HD
HETATM    8  H   UNL     1      10.438   5.294  10.417  1.00  0.00     0.275 HD
ENDBRANCH   4   5
BRANCH   4   9
HETATM    9  C   UNL     1      11.111   7.703  10.435  1.00  0.00     0.045 C 
BRANCH   9  10
HETATM   10  C   UNL     1      10.563   9.024  10.993  1.00  0.00     0.030 C 
BRANCH  10  11
HETATM   11  C   UNL     1      10.503   8.988  12.520  1.00  0.00     0.230 C 
BRANCH  11  12
HETATM   12  N   UNL     1      10.340   7.617  12.989  1.00  0.00    -0.079 N 
HETATM   13  H   UNL     1      10.830   7.499  13.875  1.00  0.00     0.274 HD
HETATM   14  H   UNL     1      10.727   6.974  12.299  1.00  0.00     0.274 HD
HETATM   15  H   UNL     1       9.348   7.418  13.121  1.00  0.00     0.274 HD
ENDBRANCH  11  12
ENDBRANCH  10  11
ENDBRANCH   9  10
ENDBRANCH   4   9
ENDBRANCH   3   4
TORSDOF 6
ENDMDL
MODEL 6
REMARK VINA RESULT:      -3.9      1.538      2.630
REMARK  6 active torsions:
REMARK  status: ('A' for Active; 'I' for Inactive)
REMARK    1  A    between atoms: N_3  and  CA_7 
REMARK    2  A    between atoms: N_4  and  C_8 
REMARK    3  A    between atoms: C_5  and  C_6 
REMARK    4  A    between atoms: C_5  and  CA_7 
REMARK    5  A    between atoms: C_6  and  C_8 
REMARK    6  A    between atoms: CA_7  and  C_9 
ROOT
HETATM    1  O   UNL     1      12.566   6.661   6.600  1.00  0.00    -0.646 OA
HETATM    2  OXT UNL     1      10.476   7.245   5.942  1.00  0.00    -0.646 OA
HETATM    3  C   UNL     1      11.264   6.976   6.839  1.00  0.00     0.204 C 
ENDROOT
BRANCH   3   4
HETATM    4  CA  UNL     1      10.937   6.949   8.322  1.00  0.00     0.283 C 
BRANCH   4   5
HETATM    5  N   UNL     1      10.077   5.793   8.576  1.00  0.00    -0.065 N 
HETATM    6  H   UNL     1       9.996   5.236   7.724  1.00  0.00     0.275 HD
HETATM    7  H   UNL     1       9.153   6.113   8.863  1.00  0.00     0.275 HD
HETATM    8  H   UNL     1      10.485   5.223   9.317  1.00  0.00     0.275 HD
ENDBRANCH   4   5
BRANCH   4   9
HETATM    9  C   UNL     1      12.198   6.953   9.199  1.00  0.00     0.045 C 
BRANCH   9  10
HETATM   10  C   UNL     1      12.656   8.339   9.672  1.00  0.00     0.030 C 
BRANCH  10  11
HETATM   11  C   UNL     1      14.108   8.601   9.272  1.00  0.00     0.230 C 
BRANCH  11  12
HETATM   12  N   UNL     1      14.196   8.904   7.848  1.00  0.00    -0.079 N 
HETATM   13  H   UNL     1      13.749   8.159   7.314  1.00  0.00     0.274 HD
HETATM   14  H   UNL     1      15.176   8.975   7.576  1.00  0.00     0.274 HD
HETATM   15  H   UNL     1      13.724   9.788   7.659  1.00  0.00     0.274 HD
ENDBRANCH  11  12
ENDBRANCH  10  11
ENDBRANCH   9  10
ENDBRANCH   4   9
ENDBRANCH   3   4
TORSDOF 6
ENDMDL
MODEL 7
REMARK VINA RESULT:      -3.9      2.184      2.485
REMARK  6 active torsions:
REMARK  status: ('A' for Active; 'I' for Inactive)
REMARK    1  A    between atoms: N_3  and  CA_7 
REMARK    2  A    between atoms: N_4  and  C_8 
REMARK    3  A    between atoms: C_5  and  C_6 
REMARK    4  A    between atoms: C_5  and  CA_7 
REMARK    5  A    between atoms: C_6  and  C_8 
REMARK    6  A    between atoms: CA_7  and  C_9 
ROOT
HETATM    1  O   UNL     1      12.125   6.900   8.131  1.00  0.00    -0.646 OA
HETATM    2  OXT UNL     1      10.129   6.848   7.058  1.00  0.00    -0.646 OA
HETATM    3  C   UNL     1      10.765   6.905   8.102  1.00  0.00     0.204 C 
ENDROOT
BRANCH   3   4
HETATM    4  CA  UNL     1      10.167   6.989   9.495  1.00  0.00     0.283 C 
BRANCH   4   5
HETATM    5  N   UNL     1       9.740   5.646   9.887  1.00  0.00    -0.065 N 
HETATM    6  H   UNL     1      10.414   4.961   9.543  1.00  0.00     0.275 HD
HETATM    7  H   UNL     1       8.822   5.452   9.488  1.00  0.00     0.275 HD
HETATM    8  H   UNL     1       9.687   5.590  10.905  1.00  0.00     0.275 HD
ENDBRANCH   4   5
BRANCH   4   9
HETATM    9  C   UNL     1      11.134   7.622  10.508  1.00  0.00     0.045 C 
BRANCH   9  10
HETATM   10  C   UNL     1      10.716   9.005  11.027  1.00  0.00     0.030 C 
BRANCH  10  11
HETATM   11  C   UNL     1      10.465   8.969  12.535  1.00  0.00     0.230 C 
BRANCH  11  12
HETATM   12  N   UNL     1      10.345   7.590  12.996  1.00  0.00    -0.079 N 
HETATM   13  H   UNL     1       9.916   7.023  12.265  1.00  0.00     0.274 HD
HETATM   14  H   UNL     1       9.762   7.562  13.833  1.00  0.00     0.274 HD
HETATM   15  H   UNL     1      11.271   7.222  13.213  1.00  0.00     0.274 HD
ENDBRANCH  11  12
ENDBRANCH  10  11
ENDBRANCH   9  10
ENDBRANCH   4   9
ENDBRANCH   3   4
TORSDOF 6
ENDMDL
MODEL 8
REMARK VINA RESULT:      -3.8      2.499      4.008
REMARK  6 active torsions:
REMARK  status: ('A' for Active; 'I' for Inactive)
REMARK    1  A    between atoms: N_3  and  CA_7 
REMARK    2  A    between atoms: N_4  and  C_8 
REMARK    3  A    between atoms: C_5  and  C_6 
REMARK    4  A    between atoms: C_5  and  CA_7 
REMARK    5  A    between atoms: C_6  and  C_8 
REMARK    6  A    between atoms: CA_7  and  C_9 
ROOT
HETATM    1  O   UNL     1       9.601   8.380   9.963  1.00  0.00    -0.646 OA
HETATM    2  OXT UNL     1      10.738   9.945  11.146  1.00  0.00    -0.646 OA
HETATM    3  C   UNL     1      10.520   8.768  10.888  1.00  0.00     0.204 C 
ENDROOT
BRANCH   3   4
HETATM    4  CA  UNL     1      11.215   7.581  11.531  1.00  0.00     0.283 C 
BRANCH   4   5
HETATM    5  N   UNL     1      10.395   7.132  12.657  1.00  0.00    -0.065 N 
HETATM    6  H   UNL     1      10.910   7.270  13.528  1.00  0.00     0.275 HD
HETATM    7  H   UNL     1      10.175   6.143  12.544  1.00  0.00     0.275 HD
HETATM    8  H   UNL     1       9.530   7.672  12.684  1.00  0.00     0.275 HD
ENDBRANCH   4   5
BRANCH   4   9
HETATM    9  C   UNL     1      11.504   6.457  10.525  1.00  0.00     0.045 C 
BRANCH   9  10
HETATM   10  C   UNL     1      12.708   6.704   9.605  1.00  0.00     0.030 C 
BRANCH  10  11
HETATM   11  C   UNL     1      12.260   6.877   8.153  1.00  0.00     0.230 C 
BRANCH  11  12
HETATM   12  N   UNL     1      10.870   6.464   7.999  1.00  0.00    -0.079 N 
HETATM   13  H   UNL     1      10.794   5.459   8.154  1.00  0.00     0.274 HD
HETATM   14  H   UNL     1      10.552   6.688   7.056  1.00  0.00     0.274 HD
HETATM   15  H   UNL     1      10.291   6.957   8.680  1.00  0.00     0.274 HD
ENDBRANCH  11  12
ENDBRANCH  10  11
ENDBRANCH   9  10
ENDBRANCH   4   9
ENDBRANCH   3   4
TORSDOF 6
ENDMDL
MODEL 9
REMARK VINA RESULT:      -3.8      2.147      2.352
REMARK  6 active torsions:
REMARK  status: ('A' for Active; 'I' for Inactive)
REMARK    1  A    between atoms: N_3  and  CA_7 
REMARK    2  A    between atoms: N_4  and  C_8 
REMARK    3  A    between atoms: C_5  and  C_6 
REMARK    4  A    between atoms: C_5  and  CA_7 
REMARK    5  A    between atoms: C_6  and  C_8 
REMARK    6  A    between atoms: CA_7  and  C_9 
ROOT
HETATM    1  O   UNL     1      12.277   6.831   7.350  1.00  0.00    -0.646 OA
HETATM    2  OXT UNL     1      10.055   6.790   6.904  1.00  0.00    -0.646 OA
HETATM    3  C   UNL     1      10.968   6.813   7.718  1.00  0.00     0.204 C 
ENDROOT
BRANCH   3   4
HETATM    4  CA  UNL     1      10.803   6.824   9.228  1.00  0.00     0.283 C 
BRANCH   4   5
HETATM    5  N   UNL     1       9.771   5.848   9.579  1.00  0.00    -0.065 N 
HETATM    6  H   UNL     1       8.880   6.328   9.713  1.00  0.00     0.275 HD
HETATM    7  H   UNL     1      10.033   5.370  10.441  1.00  0.00     0.275 HD
HETATM    8  H   UNL     1       9.679   5.165   8.826  1.00  0.00     0.275 HD
ENDBRANCH   4   5
BRANCH   4   9
HETATM    9  C   UNL     1      12.129   6.572   9.962  1.00  0.00     0.045 C 
BRANCH   9  10
HETATM   10  C   UNL     1      11.995   6.304  11.468  1.00  0.00     0.030 C 
BRANCH  10  11
HETATM   11  C   UNL     1      11.545   7.563  12.209  1.00  0.00     0.230 C 
BRANCH  11  12
HETATM   12  N   UNL     1      10.358   7.283  13.009  1.00  0.00    -0.079 N 
HETATM   13  H   UNL     1      10.036   6.334  12.819  1.00  0.00     0.274 HD
HETATM   14  H   UNL     1       9.622   7.946  12.769  1.00  0.00     0.274 HD
HETATM   15  H   UNL     1      10.587   7.371  14.000  1.00  0.00     0.274 HD
ENDBRANCH  11  12
ENDBRANCH  10  11
ENDBRANCH   9  10
ENDBRANCH   4   9
ENDBRANCH   3   4
TORSDOF 6
ENDMDL
