MODEL 1
REMARK VINA RESULT:      -4.5      0.000      0.000
REMARK  6 active torsions:
REMARK  status: ('A' for Active; 'I' for Inactive)
REMARK    1  A    between atoms: N_3  and  CA_7 
REMARK    2  A    between atoms: N_4  and  C_8 
REMARK    3  A    between atoms: C_5  and  C_6 
REMARK    4  A    between atoms: C_5  and  CA_7 
REMARK    5  A    between atoms: C_6  and  C_8 
REMARK    6  A    between atoms: CA_7  and  C_9 
ROOT
HETATM    1  O   UNL     1      11.313   5.732  11.592  1.00  0.00    -0.646 OA
HETATM    2  OXT UNL     1      13.358   5.927  12.553  1.00  0.00    -0.646 OA
HETATM    3  C   UNL     1      12.207   6.324  12.430  1.00  0.00     0.204 C 
ENDROOT
BRANCH   3   4
HETATM    4  CA  UNL     1      11.599   7.506  13.165  1.00  0.00     0.283 C 
BRANCH   4   5
HETATM    5  N   UNL     1      11.143   7.040  14.474  1.00  0.00    -0.065 N 
HETATM    6  H   UNL     1      11.012   7.840  15.094  1.00  0.00     0.275 HD
HETATM    7  H   UNL     1      11.840   6.411  14.873  1.00  0.00     0.275 HD
HETATM    8  H   UNL     1      10.258   6.543  14.368  1.00  0.00     0.275 HD
ENDBRANCH   4   5
BRANCH   4   9
HETATM    9  C   UNL     1      12.569   8.693  13.265  1.00  0.00     0.045 C 
BRANCH   9  10
HETATM   10  C   UNL     1      12.094   9.846  14.161  1.00  0.00     0.030 C 
BRANCH  10  11
HETATM   11  C   UNL     1      11.845  11.110  13.338  1.00  0.00     0.230 C 
BRANCH  11  12
HETATM   12  N   UNL     1      12.791  12.154  13.715  1.00  0.00    -0.079 N 
HETATM   13  H   UNL     1      13.743  11.806  13.606  1.00  0.00     0.274 HD
HETATM   14  H   UNL     1      12.635  12.419  14.687  1.00  0.00     0.274 HD
HETATM   15  H   UNL     1      12.657  12.968  13.114  1.00  0.00     0.274 HD
ENDBRANCH  11  12
ENDBRANCH  10  11
ENDBRANCH   9  10
ENDBRANCH   4   9
ENDBRANCH   3   4
TORSDOF 6
ENDMDL
MODEL 2
REMARK VINA RESULT:      -4.4      3.297      4.481
REMARK  6 active torsions:
REMARK  status: ('A' for Active; 'I' for Inactive)
REMARK    1  A    between atoms: N_3  and  CA_7 
REMARK    2  A    between atoms: N_4  and  C_8 
REMARK    3  A    between atoms: C_5  and  C_6 
REMARK    4  A    between atoms: C_5  and  CA_7 
REMARK    5  A    between atoms: C_6  and  C_8 
REMARK    6  A    between atoms: CA_7  and  C_9 
ROOT
HETATM    1  O   UNL     1      12.347   4.568   9.903  1.00  0.00    -0.646 OA
HETATM    2  OXT UNL     1      14.054   3.919   8.559  1.00  0.00    -0.646 OA
HETATM    3  C   UNL     1      13.663   4.492   9.567  1.00  0.00     0.204 C 
ENDROOT
BRANCH   3   4
HETATM    4  CA  UNL     1      14.549   5.192  10.583  1.00  0.00     0.283 C 
BRANCH   4   5
HETATM    5  N   UNL     1      15.033   6.436   9.982  1.00  0.00    -0.065 N 
HETATM    6  H   UNL     1      15.666   6.903  10.631  1.00  0.00     0.275 HD
HETATM    7  H   UNL     1      14.241   7.046   9.780  1.00  0.00     0.275 HD
HETATM    8  H   UNL     1      15.528   6.224   9.115  1.00  0.00     0.275 HD
ENDBRANCH   4   5
BRANCH   4   9
HETATM    9  C   UNL     1      13.833   5.422  11.922  1.00  0.00     0.045 C 
BRANCH   9  10
HETATM   10  C   UNL     1      13.670   6.894  12.327  1.00  0.00     0.030 C 
BRANCH  10  11
HETATM   11  C   UNL     1      12.218   7.202  12.692  1.00  0.00     0.230 C 
BRANCH  11  12
HETATM   12  N   UNL     1      11.333   6.165  12.173  1.00  0.00    -0.079 N 
HETATM   13  H   UNL     1      10.365   6.476  12.246  1.00  0.00     0.274 HD
HETATM   14  H   UNL     1      11.457   5.310  12.716  1.00  0.00     0.274 HD
HETATM   15  H   UNL     1      11.560   5.983  11.195  1.00  0.00     0.274 HD
ENDBRANCH  11  12
ENDBRANCH  10  11
ENDBRANCH   9  10
ENDBRANCH   4   9
ENDBRANCH   3   4
TORSDOF 6
ENDMDL
MODEL 3
REMARK VINA RESULT:      -4.3      5.395      5.803
REMARK  6 active torsions:
REMARK  status: ('A' for Active; 'I' for Inactive)
REMARK    1  A    between atoms: N_3  and  CA_7 
REMARK    2  A    between atoms: N_4  and  C_8 
REMARK    3  A    between atoms: C_5  and  C_6 
REMARK    4  A    between atoms: C_5  and  CA_7 
REMARK    5  A    between atoms: C_6  and  C_8 
REMARK    6  A    between atoms: CA_7  and  C_9 
ROOT
HETATM    1  O   UNL     1      12.931   4.818   8.113  1.00  0.00    -0.646 OA
HETATM    2  OXT UNL     1      13.333   2.794   9.054  1.00  0.00    -0.646 OA
HETATM    3  C   UNL     1      13.125   3.994   9.178  1.00  0.00     0.204 C 
ENDROOT
BRANCH   3   4
HETATM    4  CA  UNL     1      13.051   4.744  10.497  1.00  0.00     0.283 C 
BRANCH   4   5
HETATM    5  N   UNL     1      12.169   3.998  11.394  1.00  0.00    -0.065 N 
HETATM    6  H   UNL     1      11.548   4.647  11.877  1.00  0.00     0.275 HD
HETATM    7  H   UNL     1      12.731   3.491  12.078  1.00  0.00     0.275 HD
HETATM    8  H   UNL     1      11.614   3.335  10.852  1.00  0.00     0.275 HD
ENDBRANCH   4   5
BRANCH   4   9
HETATM    9  C   UNL     1      14.440   4.994  11.105  1.00  0.00     0.045 C 
BRANCH   9  10
HETATM   10  C   UNL     1      15.533   5.368  10.094  1.00  0.00     0.030 C 
BRANCH  10  11
HETATM   11  C   UNL     1      16.837   5.725  10.807  1.00  0.00     0.230 C 
BRANCH  11  12
HETATM   12  N   UNL     1      17.928   5.830   9.845  1.00  0.00    -0.079 N 
HETATM   13  H   UNL     1      18.821   5.762  10.333  1.00  0.00     0.274 HD
HETATM   14  H   UNL     1      17.872   6.727   9.363  1.00  0.00     0.274 HD
HETATM   15  H   UNL     1      17.856   5.073   9.164  1.00  0.00     0.274 HD
ENDBRANCH  11  12
ENDBRANCH  10  11
ENDBRANCH   9  10
ENDBRANCH   4   9
ENDBRANCH   3   4
TORSDOF 6
ENDMDL
MODEL 4
REMARK VINA RESULT:      -4.2      1.656      1.928
REMARK  6 active torsions:
REMARK  status: ('A' for Active; 'I' for Inactive)
REMARK    1  A    between atoms: N_3  and  CA_7 
REMARK    2  A    between atoms: N_4  and  C_8 
REMARK    3  A    between atoms: C_5  and  C_6 
REMARK    4  A    between atoms: C_5  and  CA_7 
REMARK    5  A    between atoms: C_6  and  C_8 
REMARK    6  A    between atoms: CA_7  and  C_9 
ROOT
HETATM    1  O   UNL     1      14.450   7.471  13.175  1.00  0.00    -0.646 OA
HETATM    2  OXT UNL     1      14.051   7.092  15.375  1.00  0.00    -0.646 OA
HETATM    3  C   UNL     1      13.628   7.319  14.248  1.00  0.00     0.204 C 
ENDROOT
BRANCH   3   4
HETATM    4  CA  UNL     1      12.165   7.463  13.868  1.00  0.00     0.283 C 
BRANCH   4   5
HETATM    5  N   UNL     1      11.359   7.194  15.059  1.00  0.00    -0.065 N 
HETATM    6  H   UNL     1      11.065   6.217  15.057  1.00  0.00     0.275 HD
HETATM    7  H   UNL     1      10.536   7.797  15.055  1.00  0.00     0.275 HD
HETATM    8  H   UNL     1      11.913   7.381  15.894  1.00  0.00     0.275 HD
ENDBRANCH   4   5
BRANCH   4   9
HETATM    9  C   UNL     1      11.857   8.832  13.242  1.00  0.00     0.045 C 
BRANCH   9  10
HETATM   10  C   UNL     1      12.298  10.042  14.078  1.00  0.00     0.030 C 
BRANCH  10  11
HETATM   11  C   UNL     1      11.908  11.351  13.391  1.00  0.00     0.230 C 
BRANCH  11  12
HETATM   12  N   UNL     1      12.870  12.399  13.716  1.00  0.00    -0.079 N 
HETATM   13  H   UNL     1      12.383  13.188  14.139  1.00  0.00     0.274 HD
HETATM   14  H   UNL     1      13.338  12.707  12.863  1.00  0.00     0.274 HD
HETATM   15  H   UNL     1      13.561  12.035  14.371  1.00  0.00     0.274 HD
ENDBRANCH  11  12
ENDBRANCH  10  11
ENDBRANCH   9  10
ENDBRANCH   4   9
ENDBRANCH   3   4
TORSDOF 6
ENDMDL
MODEL 5
REMARK VINA RESULT:      -4.2      2.957      3.771
REMARK  6 active torsions:
REMARK  status: ('A' for Active; 'I' for Inactive)
REMARK    1  A    between atoms: N_3  and  CA_7 
REMARK    2  A    between atoms: N_4  and  C_8 
REMARK    3  A    between atoms: C_5  and  C_6 
REMARK    4  A    between atoms: C_5  and  CA_7 
REMARK    5  A    between atoms: C_6  and  C_8 
REMARK    6  A    between atoms: CA_7  and  C_9 
ROOT
HETATM    1  O   UNL     1      14.280   4.839  10.632  1.00  0.00    -0.646 OA
HETATM    2  OXT UNL     1      12.544   4.274   9.287  1.00  0.00    -0.646 OA
HETATM    3  C   UNL     1      12.958   4.644  10.378  1.00  0.00     0.204 C 
ENDROOT
BRANCH   3   4
HETATM    4  CA  UNL     1      12.096   4.938  11.593  1.00  0.00     0.283 C 
BRANCH   4   5
HETATM    5  N   UNL     1      11.882   3.682  12.313  1.00  0.00    -0.065 N 
HETATM    6  H   UNL     1      11.283   3.070  11.757  1.00  0.00     0.275 HD
HETATM    7  H   UNL     1      11.435   3.875  13.208  1.00  0.00     0.275 HD
HETATM    8  H   UNL     1      12.780   3.225  12.473  1.00  0.00     0.275 HD
ENDBRANCH   4   5
BRANCH   4   9
HETATM    9  C   UNL     1      12.699   6.035  12.485  1.00  0.00     0.045 C 
BRANCH   9  10
HETATM   10  C   UNL     1      11.761   7.211  12.790  1.00  0.00     0.030 C 
BRANCH  10  11
HETATM   11  C   UNL     1      11.659   7.452  14.296  1.00  0.00     0.230 C 
BRANCH  11  12
HETATM   12  N   UNL     1      11.384   6.200  14.992  1.00  0.00    -0.079 N 
HETATM   13  H   UNL     1      10.376   6.066  15.066  1.00  0.00     0.274 HD
HETATM   14  H   UNL     1      11.791   6.234  15.927  1.00  0.00     0.274 HD
HETATM   15  H   UNL     1      11.793   5.424  14.471  1.00  0.00     0.274 HD
ENDBRANCH  11  12
ENDBRANCH  10  11
ENDBRANCH   9  10
ENDBRANCH   4   9
ENDBRANCH   3   4
TORSDOF 6
ENDMDL
MODEL 6
REMARK VINA RESULT:      -4.2      4.450      5.499
REMARK  6 active torsions:
REMARK  status: ('A' for Active; 'I' for Inactive)
REMARK    1  A    between atoms: N_3  and  CA_7 
REMARK    2  A    between atoms: N_4  and  C_8 
REMARK    3  A    between atoms: C_5  and  C_6 
REMARK    4  A    between atoms: C_5  and  CA_7 
REMARK    5  A    between atoms: C_6  and  C_8 
REMARK    6  A    between atoms: CA_7  and  C_9 
ROOT
HETATM    1  O   UNL     1      12.377   4.267   9.689  1.00  0.00    -0.646 OA
HETATM    2  OXT UNL     1      14.249   3.919   8.458  1.00  0.00    -0.646 OA
HETATM    3  C   UNL     1      13.710   4.395   9.448  1.00  0.00     0.204 C 
ENDROOT
BRANCH   3   4
HETATM    4  CA  UNL     1      14.411   5.181  10.542  1.00  0.00     0.283 C 
BRANCH   4   5
HETATM    5  N   UNL     1      15.004   6.373   9.934  1.00  0.00    -0.065 N 
HETATM    6  H   UNL     1      15.883   6.592  10.404  1.00  0.00     0.275 HD
HETATM    7  H   UNL     1      14.361   7.159  10.031  1.00  0.00     0.275 HD
HETATM    8  H   UNL     1      15.180   6.198   8.945  1.00  0.00     0.275 HD
ENDBRANCH   4   5
BRANCH   4   9
HETATM    9  C   UNL     1      13.474   5.517  11.712  1.00  0.00     0.045 C 
BRANCH   9  10
HETATM   10  C   UNL     1      13.799   4.800  13.030  1.00  0.00     0.030 C 
BRANCH  10  11
HETATM   11  C   UNL     1      12.581   4.038  13.552  1.00  0.00     0.230 C 
BRANCH  11  12
HETATM   12  N   UNL     1      11.872   3.398  12.450  1.00  0.00    -0.079 N 
HETATM   13  H   UNL     1      10.873   3.581  12.536  1.00  0.00     0.274 HD
HETATM   14  H   UNL     1      12.037   2.392  12.479  1.00  0.00     0.274 HD
HETATM   15  H   UNL     1      12.212   3.773  11.564  1.00  0.00     0.274 HD
ENDBRANCH  11  12
ENDBRANCH  10  11
ENDBRANCH   9  10
ENDBRANCH   4   9
ENDBRANCH   3   4
TORSDOF 6
ENDMDL
MODEL 7
REMARK VINA RESULT:      -4.2      4.320      4.816
REMARK  6 active torsions:
REMARK  status: ('A' for Active; 'I' for Inactive)
REMARK    1  A    between atoms: N_3  and  CA_7 
REMARK    2  A    between atoms: N_4  and  C_8 
REMARK    3  A    between atoms: C_5  and  C_6 
REMARK    4  A    between atoms: C_5  and  CA_7 
REMARK    5  A    between atoms: C_6  and  C_8 
REMARK    6  A    between atoms: CA_7  and  C_9 
ROOT
HETATM    1  O   UNL     1      15.043   4.607   9.326  1.00  0.00    -0.646 OA
HETATM    2  OXT UNL     1      13.033   4.383   8.302  1.00  0.00    -0.646 OA
HETATM    3  C   UNL     1      13.683   4.595   9.317  1.00  0.00     0.204 C 
ENDROOT
BRANCH   3   4
HETATM    4  CA  UNL     1      13.104   4.870  10.693  1.00  0.00     0.283 C 
BRANCH   4   5
HETATM    5  N   UNL     1      12.324   3.700  11.099  1.00  0.00    -0.065 N 
HETATM    6  H   UNL     1      11.438   3.690  10.594  1.00  0.00     0.275 HD
HETATM    7  H   UNL     1      12.144   3.744  12.102  1.00  0.00     0.275 HD
HETATM    8  H   UNL     1      12.848   2.851  10.884  1.00  0.00     0.275 HD
ENDBRANCH   4   5
BRANCH   4   9
HETATM    9  C   UNL     1      14.186   5.245  11.718  1.00  0.00     0.045 C 
BRANCH   9  10
HETATM   10  C   UNL     1      14.305   6.746  12.016  1.00  0.00     0.030 C 
BRANCH  10  11
HETATM   11  C   UNL     1      15.732   7.238  11.777  1.00  0.00     0.230 C 
BRANCH  11  12
HETATM   12  N   UNL     1      16.011   7.310  10.347  1.00  0.00    -0.079 N 
HETATM   13  H   UNL     1      16.561   8.145  10.149  1.00  0.00     0.274 HD
HETATM   14  H   UNL     1      15.132   7.351   9.831  1.00  0.00     0.274 HD
HETATM   15  H   UNL     1      16.535   6.482  10.061  1.00  0.00     0.274 HD
ENDBRANCH  11  12
ENDBRANCH  10  11
ENDBRANCH   9  10
ENDBRANCH   4   9
ENDBRANCH   3   4
TORSDOF 6
ENDMDL
MODEL 8
REMARK VINA RESULT:      -4.1      3.185      4.737
REMARK  6 active torsions:
REMARK  status: ('A' for Active; 'I' for Inactive)
REMARK    1  A    between atoms: N_3  and  CA_7 
REMARK    2  A    between atoms: N_4  and  C_8 
REMARK    3  A    between atoms: C_5  and  C_6 
REMARK    4  A    between atoms: C_5  and  CA_7 
REMARK    5  A    between atoms: C_6  and  C_8 
REMARK    6  A    between atoms: CA_7  and  C_9 
ROOT
HETATM    1  O   UNL     1      11.159   6.166  11.741  1.00  0.00    -0.646 OA
HETATM    2  OXT UNL     1      11.875   8.037  12.804  1.00  0.00    -0.646 OA
HETATM    3  C   UNL     1      11.907   6.821  12.670  1.00  0.00     0.204 C 
ENDROOT
BRANCH   3   4
HETATM    4  CA  UNL     1      12.757   5.866  13.490  1.00  0.00     0.283 C 
BRANCH   4   5
HETATM    5  N   UNL     1      11.975   5.448  14.654  1.00  0.00    -0.065 N 
HETATM    6  H   UNL     1      11.733   6.267  15.213  1.00  0.00     0.275 HD
HETATM    7  H   UNL     1      12.525   4.801  15.218  1.00  0.00     0.275 HD
HETATM    8  H   UNL     1      11.121   4.985  14.341  1.00  0.00     0.275 HD
ENDBRANCH   4   5
BRANCH   4   9
HETATM    9  C   UNL     1      13.265   4.677  12.661  1.00  0.00     0.045 C 
BRANCH   9  10
HETATM   10  C   UNL     1      14.344   5.023  11.625  1.00  0.00     0.030 C 
BRANCH  10  11
HETATM   11  C   UNL     1      13.889   4.646  10.215  1.00  0.00     0.230 C 
BRANCH  11  12
HETATM   12  N   UNL     1      12.629   3.913  10.268  1.00  0.00    -0.079 N 
HETATM   13  H   UNL     1      12.296   3.739   9.320  1.00  0.00     0.274 HD
HETATM   14  H   UNL     1      11.937   4.464  10.776  1.00  0.00     0.274 HD
HETATM   15  H   UNL     1      12.773   3.024  10.746  1.00  0.00     0.274 HD
ENDBRANCH  11  12
ENDBRANCH  10  11
ENDBRANCH   9  10
ENDBRANCH   4   9
ENDBRANCH   3   4
TORSDOF 6
ENDMDL
MODEL 9
REMARK VINA RESULT:      -4.1      3.808      4.689
REMARK  6 active torsions:
REMARK  status: ('A' for Active; 'I' for Inactive)
REMARK    1  A    between atoms: N_3  and  CA_7 
REMARK    2  A    between atoms: N_4  and  C_8 
REMARK    3  A    between atoms: C_5  and  C_6 
REMARK    4  A    between atoms: C_5  and  CA_7 
REMARK    5  A    between atoms: C_6  and  C_8 
REMARK    6  A    between atoms: CA_7  and  C_9 
ROOT
HETATM    1  O   UNL     1      13.153   4.696   8.494  1.00  0.00    -0.646 OA
HETATM    2  OXT UNL     1      15.173   4.743   9.523  1.00  0.00    -0.646 OA
HETATM    3  C   UNL     1      13.951   4.754   9.594  1.00  0.00     0.204 C 
ENDROOT
BRANCH   3   4
HETATM    4  CA  UNL     1      13.144   4.830  10.878  1.00  0.00     0.283 C 
BRANCH   4   5
HETATM    5  N   UNL     1      12.296   3.640  10.953  1.00  0.00    -0.065 N 
HETATM    6  H   UNL     1      11.799   3.521  10.069  1.00  0.00     0.275 HD
HETATM    7  H   UNL     1      11.622   3.750  11.710  1.00  0.00     0.275 HD
HETATM    8  H   UNL     1      12.877   2.820  11.130  1.00  0.00     0.275 HD
ENDBRANCH   4   5
BRANCH   4   9
HETATM    9  C   UNL     1      14.034   5.002  12.119  1.00  0.00     0.045 C 
BRANCH   9  10
HETATM   10  C   UNL     1      13.330   4.755  13.460  1.00  0.00     0.030 C 
BRANCH  10  11
HETATM   11  C   UNL     1      12.663   6.032  13.971  1.00  0.00     0.230 C 
BRANCH  11  12
HETATM   12  N   UNL     1      11.606   5.706  14.922  1.00  0.00    -0.079 N 
HETATM   13  H   UNL     1      10.773   6.253  14.705  1.00  0.00     0.274 HD
HETATM   14  H   UNL     1      11.920   5.927  15.867  1.00  0.00     0.274 HD
HETATM   15  H   UNL     1      11.387   4.712  14.860  1.00  0.00     0.274 HD
ENDBRANCH  11  12
ENDBRANCH  10  11
ENDBRANCH   9  10
ENDBRANCH   4   9
ENDBRANCH   3   4
TORSDOF 6
ENDMDL
