MODEL 1
REMARK VINA RESULT:      -4.4      0.000      0.000
REMARK  6 active torsions:
REMARK  status: ('A' for Active; 'I' for Inactive)
REMARK    1  A    between atoms: N_3  and  CA_7 
REMARK    2  A    between atoms: N_4  and  C_8 
REMARK    3  A    between atoms: C_5  and  C_6 
REMARK    4  A    between atoms: C_5  and  CA_7 
REMARK    5  A    between atoms: C_6  and  C_8 
REMARK    6  A    between atoms: CA_7  and  C_9 
ROOT
HETATM    1  O   UNL     1      11.839   7.431  10.663  1.00  0.00    -0.646 OA
HETATM    2  OXT UNL     1       9.931   7.746   9.480  1.00  0.00    -0.646 OA
HETATM    3  C   UNL     1      10.674   8.080  10.393  1.00  0.00     0.204 C 
ENDROOT
BRANCH   3   4
HETATM    4  CA  UNL     1      10.434   9.237  11.347  1.00  0.00     0.283 C 
BRANCH   4   5
HETATM    5  N   UNL     1      10.052   8.682  12.645  1.00  0.00    -0.065 N 
HETATM    6  H   UNL     1       9.136   9.042  12.913  1.00  0.00     0.275 HD
HETATM    7  H   UNL     1      10.742   8.951  13.346  1.00  0.00     0.275 HD
HETATM    8  H   UNL     1      10.012   7.664  12.581  1.00  0.00     0.275 HD
ENDBRANCH   4   5
BRANCH   4   9
HETATM    9  C   UNL     1      11.644  10.179  11.439  1.00  0.00     0.045 C 
BRANCH   9  10
HETATM   10  C   UNL     1      11.620  11.152  12.626  1.00  0.00     0.030 C 
BRANCH  10  11
HETATM   11  C   UNL     1      11.393  12.587  12.151  1.00  0.00     0.230 C 
BRANCH  11  12
HETATM   12  N   UNL     1      12.538  13.422  12.498  1.00  0.00    -0.079 N 
HETATM   13  H   UNL     1      13.211  13.412  11.733  1.00  0.00     0.274 HD
HETATM   14  H   UNL     1      12.979  13.060  13.344  1.00  0.00     0.274 HD
HETATM   15  H   UNL     1      12.224  14.379  12.662  1.00  0.00     0.274 HD
ENDBRANCH  11  12
ENDBRANCH  10  11
ENDBRANCH   9  10
ENDBRANCH   4   9
ENDBRANCH   3   4
TORSDOF 6
ENDMDL
MODEL 2
REMARK VINA RESULT:      -4.4      3.226      4.467
REMARK  6 active torsions:
REMARK  status: ('A' for Active; 'I' for Inactive)
REMARK    1  A    between atoms: N_3  and  CA_7 
REMARK    2  A    between atoms: N_4  and  C_8 
REMARK    3  A    between atoms: C_5  and  C_6 
REMARK    4  A    between atoms: C_5  and  CA_7 
REMARK    5  A    between atoms: C_6  and  C_8 
REMARK    6  A    between atoms: CA_7  and  C_9 
ROOT
HETATM    1  O   UNL     1      11.573   6.234   5.946  1.00  0.00    -0.646 OA
HETATM    2  OXT UNL     1      10.085   6.981   7.485  1.00  0.00    -0.646 OA
HETATM    3  C   UNL     1      11.244   6.775   7.150  1.00  0.00     0.204 C 
ENDROOT
BRANCH   3   4
HETATM    4  CA  UNL     1      12.471   7.077   7.991  1.00  0.00     0.283 C 
BRANCH   4   5
HETATM    5  N   UNL     1      13.072   8.313   7.489  1.00  0.00    -0.065 N 
HETATM    6  H   UNL     1      13.676   8.100   6.695  1.00  0.00     0.275 HD
HETATM    7  H   UNL     1      13.623   8.748   8.229  1.00  0.00     0.275 HD
HETATM    8  H   UNL     1      12.334   8.954   7.194  1.00  0.00     0.275 HD
ENDBRANCH   4   5
BRANCH   4   9
HETATM    9  C   UNL     1      12.149   7.142   9.492  1.00  0.00     0.045 C 
BRANCH   9  10
HETATM   10  C   UNL     1      12.172   8.552  10.099  1.00  0.00     0.030 C 
BRANCH  10  11
HETATM   11  C   UNL     1      10.891   8.828  10.887  1.00  0.00     0.230 C 
BRANCH  11  12
HETATM   12  N   UNL     1       9.746   8.218  10.222  1.00  0.00    -0.079 N 
HETATM   13  H   UNL     1       9.921   8.170   9.219  1.00  0.00     0.274 HD
HETATM   14  H   UNL     1       8.913   8.782  10.394  1.00  0.00     0.274 HD
HETATM   15  H   UNL     1       9.602   7.277  10.588  1.00  0.00     0.274 HD
ENDBRANCH  11  12
ENDBRANCH  10  11
ENDBRANCH   9  10
ENDBRANCH   4   9
ENDBRANCH   3   4
TORSDOF 6
ENDMDL
MODEL 3
REMARK VINA RESULT:      -4.2      2.989      3.741
REMARK  6 active torsions:
REMARK  status: ('A' for Active; 'I' for Inactive)
REMARK    1  A    between atoms: N_3  and  CA_7 
REMARK    2  A    between atoms: N_4  and  C_8 
REMARK    3  A    between atoms: C_5  and  C_6 
REMARK    4  A    between atoms: C_5  and  CA_7 
REMARK    5  A    between atoms: C_6  and  C_8 
REMARK    6  A    between atoms: CA_7  and  C_9 
ROOT
HETATM    1  O   UNL     1      10.080   6.875   6.938  1.00  0.00    -0.646 OA
HETATM    2  OXT UNL     1      12.146   6.653   7.846  1.00  0.00    -0.646 OA
HETATM    3  C   UNL     1      10.950   6.875   7.984  1.00  0.00     0.204 C 
ENDROOT
BRANCH   3   4
HETATM    4  CA  UNL     1      10.256   7.179   9.300  1.00  0.00     0.283 C 
BRANCH   4   5
HETATM    5  N   UNL     1       9.766   5.918   9.857  1.00  0.00    -0.065 N 
HETATM    6  H   UNL     1      10.532   5.434  10.327  1.00  0.00     0.275 HD
HETATM    7  H   UNL     1       9.404   5.332   9.104  1.00  0.00     0.275 HD
HETATM    8  H   UNL     1       9.021   6.109  10.527  1.00  0.00     0.275 HD
ENDBRANCH   4   5
BRANCH   4   9
HETATM    9  C   UNL     1      11.163   7.943  10.276  1.00  0.00     0.045 C 
BRANCH   9  10
HETATM   10  C   UNL     1      10.466   9.051  11.078  1.00  0.00     0.030 C 
BRANCH  10  11
HETATM   11  C   UNL     1      10.724   8.886  12.576  1.00  0.00     0.230 C 
BRANCH  11  12
HETATM   12  N   UNL     1      10.329   7.552  13.014  1.00  0.00    -0.079 N 
HETATM   13  H   UNL     1       9.313   7.470  12.979  1.00  0.00     0.274 HD
HETATM   14  H   UNL     1      10.648   7.400  13.971  1.00  0.00     0.274 HD
HETATM   15  H   UNL     1      10.748   6.854  12.400  1.00  0.00     0.274 HD
ENDBRANCH  11  12
ENDBRANCH  10  11
ENDBRANCH   9  10
ENDBRANCH   4   9
ENDBRANCH   3   4
TORSDOF 6
ENDMDL
MODEL 4
REMARK VINA RESULT:      -4.2      4.303      4.675
REMARK  6 active torsions:
REMARK  status: ('A' for Active; 'I' for Inactive)
REMARK    1  A    between atoms: N_3  and  CA_7 
REMARK    2  A    between atoms: N_4  and  C_8 
REMARK    3  A    between atoms: C_5  and  C_6 
REMARK    4  A    between atoms: C_5  and  CA_7 
REMARK    5  A    between atoms: C_6  and  C_8 
REMARK    6  A    between atoms: CA_7  and  C_9 
ROOT
HETATM    1  O   UNL     1      12.593   6.593   6.559  1.00  0.00    -0.646 OA
HETATM    2  OXT UNL     1      10.476   7.076   5.905  1.00  0.00    -0.646 OA
HETATM    3  C   UNL     1      11.287   6.887   6.802  1.00  0.00     0.204 C 
ENDROOT
BRANCH   3   4
HETATM    4  CA  UNL     1      10.985   6.947   8.289  1.00  0.00     0.283 C 
BRANCH   4   5
HETATM    5  N   UNL     1      10.079   5.845   8.613  1.00  0.00    -0.065 N 
HETATM    6  H   UNL     1       9.254   6.212   9.089  1.00  0.00     0.275 HD
HETATM    7  H   UNL     1      10.556   5.181   9.222  1.00  0.00     0.275 HD
HETATM    8  H   UNL     1       9.795   5.375   7.753  1.00  0.00     0.275 HD
ENDBRANCH   4   5
BRANCH   4   9
HETATM    9  C   UNL     1      12.262   6.935   9.145  1.00  0.00     0.045 C 
BRANCH   9  10
HETATM   10  C   UNL     1      12.704   8.308   9.670  1.00  0.00     0.030 C 
BRANCH  10  11
HETATM   11  C   UNL     1      14.143   8.614   9.255  1.00  0.00     0.230 C 
BRANCH  11  12
HETATM   12  N   UNL     1      14.211   8.885   7.823  1.00  0.00    -0.079 N 
HETATM   13  H   UNL     1      13.665   8.186   7.319  1.00  0.00     0.274 HD
HETATM   14  H   UNL     1      15.182   8.844   7.515  1.00  0.00     0.274 HD
HETATM   15  H   UNL     1      13.832   9.813   7.634  1.00  0.00     0.274 HD
ENDBRANCH  11  12
ENDBRANCH  10  11
ENDBRANCH   9  10
ENDBRANCH   4   9
ENDBRANCH   3   4
TORSDOF 6
ENDMDL
MODEL 5
REMARK VINA RESULT:      -4.1      5.008      5.705
REMARK  6 active torsions:
REMARK  status: ('A' for Active; 'I' for Inactive)
REMARK    1  A    between atoms: N_3  and  CA_7 
REMARK    2  A    between atoms: N_4  and  C_8 
REMARK    3  A    between atoms: C_5  and  C_6 
REMARK    4  A    between atoms: C_5  and  CA_7 
REMARK    5  A    between atoms: C_6  and  C_8 
REMARK    6  A    between atoms: CA_7  and  C_9 
ROOT
HETATM    1  O   UNL     1      12.630   6.496   6.306  1.00  0.00    -0.646 OA
HETATM    2  OXT UNL     1      11.182   5.453   4.907  1.00  0.00    -0.646 OA
HETATM    3  C   UNL     1      11.399   6.027   5.966  1.00  0.00     0.204 C 
ENDROOT
BRANCH   3   4
HETATM    4  CA  UNL     1      10.368   6.304   7.046  1.00  0.00     0.283 C 
BRANCH   4   5
HETATM    5  N   UNL     1       9.788   5.026   7.459  1.00  0.00    -0.065 N 
HETATM    6  H   UNL     1       8.862   5.186   7.857  1.00  0.00     0.275 HD
HETATM    7  H   UNL     1      10.389   4.590   8.158  1.00  0.00     0.275 HD
HETATM    8  H   UNL     1       9.709   4.412   6.648  1.00  0.00     0.275 HD
ENDBRANCH   4   5
BRANCH   4   9
HETATM    9  C   UNL     1      10.956   7.095   8.225  1.00  0.00     0.045 C 
BRANCH   9  10
HETATM   10  C   UNL     1      11.019   6.329   9.554  1.00  0.00     0.030 C 
BRANCH  10  11
HETATM   11  C   UNL     1      12.379   6.513  10.227  1.00  0.00     0.230 C 
BRANCH  11  12
HETATM   12  N   UNL     1      13.433   6.602   9.223  1.00  0.00    -0.079 N 
HETATM   13  H   UNL     1      13.681   7.580   9.076  1.00  0.00     0.274 HD
HETATM   14  H   UNL     1      13.102   6.200   8.346  1.00  0.00     0.274 HD
HETATM   15  H   UNL     1      14.254   6.088   9.544  1.00  0.00     0.274 HD
ENDBRANCH  11  12
ENDBRANCH  10  11
ENDBRANCH   9  10
ENDBRANCH   4   9
ENDBRANCH   3   4
TORSDOF 6
ENDMDL
MODEL 6
REMARK VINA RESULT:      -4.1      2.900      4.892
REMARK  6 active torsions:
REMARK  status: ('A' for Active; 'I' for Inactive)
REMARK    1  A    between atoms: N_3  and  CA_7 
REMARK    2  A    between atoms: N_4  and  C_8 
REMARK    3  A    between atoms: C_5  and  C_6 
REMARK    4  A    between atoms: C_5  and  CA_7 
REMARK    5  A    between atoms: C_6  and  C_8 
REMARK    6  A    between atoms: CA_7  and  C_9 
ROOT
HETATM    1  O   UNL     1       9.726   8.442  10.081  1.00  0.00    -0.646 OA
HETATM    2  OXT UNL     1      10.752  10.135  11.186  1.00  0.00    -0.646 OA
HETATM    3  C   UNL     1      10.556   8.936  11.039  1.00  0.00     0.204 C 
ENDROOT
BRANCH   3   4
HETATM    4  CA  UNL     1      11.182   7.832  11.873  1.00  0.00     0.283 C 
BRANCH   4   5
HETATM    5  N   UNL     1      10.305   7.572  13.014  1.00  0.00    -0.065 N 
HETATM    6  H   UNL     1       9.385   7.284  12.678  1.00  0.00     0.275 HD
HETATM    7  H   UNL     1      10.213   8.420  13.573  1.00  0.00     0.275 HD
HETATM    8  H   UNL     1      10.705   6.829  13.588  1.00  0.00     0.275 HD
ENDBRANCH   4   5
BRANCH   4   9
HETATM    9  C   UNL     1      11.469   6.568  11.047  1.00  0.00     0.045 C 
BRANCH   9  10
HETATM   10  C   UNL     1      10.823   5.283  11.582  1.00  0.00     0.030 C 
BRANCH  10  11
HETATM   11  C   UNL     1       9.864   4.684  10.554  1.00  0.00     0.230 C 
BRANCH  11  12
HETATM   12  N   UNL     1       9.587   5.650   9.497  1.00  0.00    -0.079 N 
HETATM   13  H   UNL     1      10.436   5.816   8.957  1.00  0.00     0.274 HD
HETATM   14  H   UNL     1       9.271   6.527   9.912  1.00  0.00     0.274 HD
HETATM   15  H   UNL     1       8.860   5.283   8.882  1.00  0.00     0.274 HD
ENDBRANCH  11  12
ENDBRANCH  10  11
ENDBRANCH   9  10
ENDBRANCH   4   9
ENDBRANCH   3   4
TORSDOF 6
ENDMDL
MODEL 7
REMARK VINA RESULT:      -4.1      4.451      5.471
REMARK  6 active torsions:
REMARK  status: ('A' for Active; 'I' for Inactive)
REMARK    1  A    between atoms: N_3  and  CA_7 
REMARK    2  A    between atoms: N_4  and  C_8 
REMARK    3  A    between atoms: C_5  and  C_6 
REMARK    4  A    between atoms: C_5  and  CA_7 
REMARK    5  A    between atoms: C_6  and  C_8 
REMARK    6  A    between atoms: CA_7  and  C_9 
ROOT
HETATM    1  O   UNL     1      10.045   6.860   7.221  1.00  0.00    -0.646 OA
HETATM    2  OXT UNL     1      11.620   6.159   5.749  1.00  0.00    -0.646 OA
HETATM    3  C   UNL     1      11.328   6.596   6.854  1.00  0.00     0.204 C 
ENDROOT
BRANCH   3   4
HETATM    4  CA  UNL     1      12.312   6.908   7.967  1.00  0.00     0.283 C 
BRANCH   4   5
HETATM    5  N   UNL     1      13.305   7.848   7.444  1.00  0.00    -0.065 N 
HETATM    6  H   UNL     1      14.008   7.337   6.909  1.00  0.00     0.275 HD
HETATM    7  H   UNL     1      13.755   8.333   8.220  1.00  0.00     0.275 HD
HETATM    8  H   UNL     1      12.844   8.527   6.839  1.00  0.00     0.275 HD
ENDBRANCH   4   5
BRANCH   4   9
HETATM    9  C   UNL     1      11.616   7.428   9.234  1.00  0.00     0.045 C 
BRANCH   9  10
HETATM   10  C   UNL     1      11.893   6.615  10.506  1.00  0.00     0.030 C 
BRANCH  10  11
HETATM   11  C   UNL     1      10.798   5.573  10.737  1.00  0.00     0.230 C 
BRANCH  11  12
HETATM   12  N   UNL     1       9.618   5.892   9.942  1.00  0.00    -0.079 N 
HETATM   13  H   UNL     1       9.907   6.215   9.019  1.00  0.00     0.274 HD
HETATM   14  H   UNL     1       9.085   6.628  10.407  1.00  0.00     0.274 HD
HETATM   15  H   UNL     1       9.037   5.060   9.846  1.00  0.00     0.274 HD
ENDBRANCH  11  12
ENDBRANCH  10  11
ENDBRANCH   9  10
ENDBRANCH   4   9
ENDBRANCH   3   4
TORSDOF 6
ENDMDL
MODEL 8
REMARK VINA RESULT:      -4.0      2.514      3.153
REMARK  6 active torsions:
REMARK  status: ('A' for Active; 'I' for Inactive)
REMARK    1  A    between atoms: N_3  and  CA_7 
REMARK    2  A    between atoms: N_4  and  C_8 
REMARK    3  A    between atoms: C_5  and  C_6 
REMARK    4  A    between atoms: C_5  and  CA_7 
REMARK    5  A    between atoms: C_6  and  C_8 
REMARK    6  A    between atoms: CA_7  and  C_9 
ROOT
HETATM    1  O   UNL     1       9.518   8.018   9.576  1.00  0.00    -0.646 OA
HETATM    2  OXT UNL     1      11.134   6.558   8.946  1.00  0.00    -0.646 OA
HETATM    3  C   UNL     1      10.779   7.511   9.628  1.00  0.00     0.204 C 
ENDROOT
BRANCH   3   4
HETATM    4  CA  UNL     1      11.654   8.264  10.614  1.00  0.00     0.283 C 
BRANCH   4   5
HETATM    5  N   UNL     1      12.935   8.542   9.963  1.00  0.00    -0.065 N 
HETATM    6  H   UNL     1      13.526   7.711  10.008  1.00  0.00     0.275 HD
HETATM    7  H   UNL     1      13.398   9.315  10.441  1.00  0.00     0.275 HD
HETATM    8  H   UNL     1      12.773   8.793   8.988  1.00  0.00     0.275 HD
ENDBRANCH   4   5
BRANCH   4   9
HETATM    9  C   UNL     1      10.974   9.534  11.147  1.00  0.00     0.045 C 
BRANCH   9  10
HETATM   10  C   UNL     1      10.519   9.461  12.611  1.00  0.00     0.030 C 
BRANCH  10  11
HETATM   11  C   UNL     1      11.068   8.206  13.291  1.00  0.00     0.230 C 
BRANCH  11  12
HETATM   12  N   UNL     1      10.844   8.272  14.731  1.00  0.00    -0.079 N 
HETATM   13  H   UNL     1      10.946   7.341  15.134  1.00  0.00     0.274 HD
HETATM   14  H   UNL     1       9.902   8.619  14.913  1.00  0.00     0.274 HD
HETATM   15  H   UNL     1      11.526   8.902  15.153  1.00  0.00     0.274 HD
ENDBRANCH  11  12
ENDBRANCH  10  11
ENDBRANCH   9  10
ENDBRANCH   4   9
ENDBRANCH   3   4
TORSDOF 6
ENDMDL
MODEL 9
REMARK VINA RESULT:      -4.0      3.088      3.935
REMARK  6 active torsions:
REMARK  status: ('A' for Active; 'I' for Inactive)
REMARK    1  A    between atoms: N_3  and  CA_7 
REMARK    2  A    between atoms: N_4  and  C_8 
REMARK    3  A    between atoms: C_5  and  C_6 
REMARK    4  A    between atoms: C_5  and  CA_7 
REMARK    5  A    between atoms: C_6  and  C_8 
REMARK    6  A    between atoms: CA_7  and  C_9 
ROOT
HETATM    1  O   UNL     1      12.296   6.816   6.762  1.00  0.00    -0.646 OA
HETATM    2  OXT UNL     1      10.109   6.892   7.353  1.00  0.00    -0.646 OA
HETATM    3  C   UNL     1      11.290   6.962   7.666  1.00  0.00     0.204 C 
ENDROOT
BRANCH   3   4
HETATM    4  CA  UNL     1      11.818   7.214   9.067  1.00  0.00     0.283 C 
BRANCH   4   5
HETATM    5  N   UNL     1      12.676   8.398   9.022  1.00  0.00    -0.065 N 
HETATM    6  H   UNL     1      12.803   8.762   9.968  1.00  0.00     0.275 HD
HETATM    7  H   UNL     1      12.240   9.111   8.439  1.00  0.00     0.275 HD
HETATM    8  H   UNL     1      13.584   8.145   8.631  1.00  0.00     0.275 HD
ENDBRANCH   4   5
BRANCH   4   9
HETATM    9  C   UNL     1      10.690   7.339  10.102  1.00  0.00     0.045 C 
BRANCH   9  10
HETATM   10  C   UNL     1      10.543   8.729  10.737  1.00  0.00     0.030 C 
BRANCH  10  11
HETATM   11  C   UNL     1      10.822   8.676  12.239  1.00  0.00     0.230 C 
BRANCH  11  12
HETATM   12  N   UNL     1      10.309   7.434  12.806  1.00  0.00    -0.079 N 
HETATM   13  H   UNL     1      10.160   7.553  13.808  1.00  0.00     0.274 HD
HETATM   14  H   UNL     1      10.984   6.685  12.650  1.00  0.00     0.274 HD
HETATM   15  H   UNL     1       9.425   7.194  12.357  1.00  0.00     0.274 HD
ENDBRANCH  11  12
ENDBRANCH  10  11
ENDBRANCH   9  10
ENDBRANCH   4   9
ENDBRANCH   3   4
TORSDOF 6
ENDMDL
