MODEL 1
REMARK VINA RESULT:      -4.5      0.000      0.000
REMARK  6 active torsions:
REMARK  status: ('A' for Active; 'I' for Inactive)
REMARK    1  A    between atoms: N_3  and  CA_7 
REMARK    2  A    between atoms: N_4  and  C_8 
REMARK    3  A    between atoms: C_5  and  C_6 
REMARK    4  A    between atoms: C_5  and  CA_7 
REMARK    5  A    between atoms: C_6  and  C_8 
REMARK    6  A    between atoms: CA_7  and  C_9 
ROOT
HETATM    1  O   UNL     1      11.233   5.906  11.570  1.00  0.00    -0.646 OA
HETATM    2  OXT UNL     1      13.332   6.080  12.408  1.00  0.00    -0.646 OA
HETATM    3  C   UNL     1      12.170   6.464  12.383  1.00  0.00     0.204 C 
ENDROOT
BRANCH   3   4
HETATM    4  CA  UNL     1      11.595   7.589  13.225  1.00  0.00     0.283 C 
BRANCH   4   5
HETATM    5  N   UNL     1      11.195   7.030  14.517  1.00  0.00    -0.065 N 
HETATM    6  H   UNL     1      10.180   6.928  14.543  1.00  0.00     0.275 HD
HETATM    7  H   UNL     1      11.494   7.655  15.265  1.00  0.00     0.275 HD
HETATM    8  H   UNL     1      11.632   6.117  14.641  1.00  0.00     0.275 HD
ENDBRANCH   4   5
BRANCH   4   9
HETATM    9  C   UNL     1      12.568   8.769  13.367  1.00  0.00     0.045 C 
BRANCH   9  10
HETATM   10  C   UNL     1      12.031   9.960  14.172  1.00  0.00     0.030 C 
BRANCH  10  11
HETATM   11  C   UNL     1      11.899  11.201  13.289  1.00  0.00     0.230 C 
BRANCH  11  12
HETATM   12  N   UNL     1      12.832  12.234  13.723  1.00  0.00    -0.079 N 
HETATM   13  H   UNL     1      12.496  12.654  14.590  1.00  0.00     0.274 HD
HETATM   14  H   UNL     1      12.903  12.953  13.003  1.00  0.00     0.274 HD
HETATM   15  H   UNL     1      13.750  11.819  13.881  1.00  0.00     0.274 HD
ENDBRANCH  11  12
ENDBRANCH  10  11
ENDBRANCH   9  10
ENDBRANCH   4   9
ENDBRANCH   3   4
TORSDOF 6
ENDMDL
MODEL 2
REMARK VINA RESULT:      -4.4      3.334      4.549
REMARK  6 active torsions:
REMARK  status: ('A' for Active; 'I' for Inactive)
REMARK    1  A    between atoms: N_3  and  CA_7 
REMARK    2  A    between atoms: N_4  and  C_8 
REMARK    3  A    between atoms: C_5  and  C_6 
REMARK    4  A    between atoms: C_5  and  CA_7 
REMARK    5  A    between atoms: C_6  and  C_8 
REMARK    6  A    between atoms: CA_7  and  C_9 
ROOT
HETATM    1  O   UNL     1      12.385   4.548   9.842  1.00  0.00    -0.646 OA
HETATM    2  OXT UNL     1      14.141   3.868   8.580  1.00  0.00    -0.646 OA
HETATM    3  C   UNL     1      13.712   4.471   9.554  1.00  0.00     0.204 C 
ENDROOT
BRANCH   3   4
HETATM    4  CA  UNL     1      14.558   5.213  10.575  1.00  0.00     0.283 C 
BRANCH   4   5
HETATM    5  N   UNL     1      14.998   6.471   9.971  1.00  0.00    -0.065 N 
HETATM    6  H   UNL     1      15.771   6.288   9.330  1.00  0.00     0.275 HD
HETATM    7  H   UNL     1      15.307   7.109  10.703  1.00  0.00     0.275 HD
HETATM    8  H   UNL     1      14.222   6.891   9.458  1.00  0.00     0.275 HD
ENDBRANCH   4   5
BRANCH   4   9
HETATM    9  C   UNL     1      13.818   5.422  11.905  1.00  0.00     0.045 C 
BRANCH   9  10
HETATM   10  C   UNL     1      13.660   6.887  12.336  1.00  0.00     0.030 C 
BRANCH  10  11
HETATM   11  C   UNL     1      12.199   7.210  12.649  1.00  0.00     0.230 C 
BRANCH  11  12
HETATM   12  N   UNL     1      11.331   6.138  12.177  1.00  0.00    -0.079 N 
HETATM   13  H   UNL     1      10.778   6.470  11.387  1.00  0.00     0.274 HD
HETATM   14  H   UNL     1      10.707   5.849  12.930  1.00  0.00     0.274 HD
HETATM   15  H   UNL     1      11.899   5.344  11.883  1.00  0.00     0.274 HD
ENDBRANCH  11  12
ENDBRANCH  10  11
ENDBRANCH   9  10
ENDBRANCH   4   9
ENDBRANCH   3   4
TORSDOF 6
ENDMDL
MODEL 3
REMARK VINA RESULT:      -4.2      4.466      5.519
REMARK  6 active torsions:
REMARK  status: ('A' for Active; 'I' for Inactive)
REMARK    1  A    between atoms: N_3  and  CA_7 
REMARK    2  A    between atoms: N_4  and  C_8 
REMARK    3  A    between atoms: C_5  and  C_6 
REMARK    4  A    between atoms: C_5  and  CA_7 
REMARK    5  A    between atoms: C_6  and  C_8 
REMARK    6  A    between atoms: CA_7  and  C_9 
ROOT
HETATM    1  O   UNL     1      12.406   4.419   9.606  1.00  0.00    -0.646 OA
HETATM    2  OXT UNL     1      14.332   3.846   8.556  1.00  0.00    -0.646 OA
HETATM    3  C   UNL     1      13.759   4.427   9.469  1.00  0.00     0.204 C 
ENDROOT
BRANCH   3   4
HETATM    4  CA  UNL     1      14.437   5.228  10.566  1.00  0.00     0.283 C 
BRANCH   4   5
HETATM    5  N   UNL     1      15.018   6.426   9.961  1.00  0.00    -0.065 N 
HETATM    6  H   UNL     1      14.271   7.058   9.671  1.00  0.00     0.275 HD
HETATM    7  H   UNL     1      15.574   6.161   9.148  1.00  0.00     0.275 HD
HETATM    8  H   UNL     1      15.615   6.895  10.642  1.00  0.00     0.275 HD
ENDBRANCH   4   5
BRANCH   4   9
HETATM    9  C   UNL     1      13.482   5.555  11.725  1.00  0.00     0.045 C 
BRANCH   9  10
HETATM   10  C   UNL     1      13.815   4.863  13.054  1.00  0.00     0.030 C 
BRANCH  10  11
HETATM   11  C   UNL     1      12.635   4.024  13.544  1.00  0.00     0.230 C 
BRANCH  11  12
HETATM   12  N   UNL     1      11.832   3.570  12.414  1.00  0.00    -0.079 N 
HETATM   13  H   UNL     1      10.855   3.815  12.570  1.00  0.00     0.274 HD
HETATM   14  H   UNL     1      11.917   2.557  12.322  1.00  0.00     0.274 HD
HETATM   15  H   UNL     1      12.163   4.018  11.560  1.00  0.00     0.274 HD
ENDBRANCH  11  12
ENDBRANCH  10  11
ENDBRANCH   9  10
ENDBRANCH   4   9
ENDBRANCH   3   4
TORSDOF 6
ENDMDL
MODEL 4
REMARK VINA RESULT:      -4.2      3.026      3.851
REMARK  6 active torsions:
REMARK  status: ('A' for Active; 'I' for Inactive)
REMARK    1  A    between atoms: N_3  and  CA_7 
REMARK    2  A    between atoms: N_4  and  C_8 
REMARK    3  A    between atoms: C_5  and  C_6 
REMARK    4  A    between atoms: C_5  and  CA_7 
REMARK    5  A    between atoms: C_6  and  C_8 
REMARK    6  A    between atoms: CA_7  and  C_9 
ROOT
HETATM    1  O   UNL     1      14.261   4.919  10.650  1.00  0.00    -0.646 OA
HETATM    2  OXT UNL     1      12.528   4.353   9.302  1.00  0.00    -0.646 OA
HETATM    3  C   UNL     1      12.944   4.684  10.404  1.00  0.00     0.204 C 
ENDROOT
BRANCH   3   4
HETATM    4  CA  UNL     1      12.091   4.883  11.645  1.00  0.00     0.283 C 
BRANCH   4   5
HETATM    5  N   UNL     1      11.893   3.577  12.273  1.00  0.00    -0.065 N 
HETATM    6  H   UNL     1      12.799   3.169  12.502  1.00  0.00     0.275 HD
HETATM    7  H   UNL     1      11.395   2.962  11.630  1.00  0.00     0.275 HD
HETATM    8  H   UNL     1      11.345   3.690  13.127  1.00  0.00     0.275 HD
ENDBRANCH   4   5
BRANCH   4   9
HETATM    9  C   UNL     1      12.693   5.918  12.608  1.00  0.00     0.045 C 
BRANCH   9  10
HETATM   10  C   UNL     1      11.860   7.194  12.791  1.00  0.00     0.030 C 
BRANCH  10  11
HETATM   11  C   UNL     1      11.524   7.419  14.266  1.00  0.00     0.230 C 
BRANCH  11  12
HETATM   12  N   UNL     1      11.522   6.150  14.984  1.00  0.00    -0.079 N 
HETATM   13  H   UNL     1      10.600   5.990  15.390  1.00  0.00     0.274 HD
HETATM   14  H   UNL     1      12.220   6.180  15.728  1.00  0.00     0.274 HD
HETATM   15  H   UNL     1      11.745   5.393  14.339  1.00  0.00     0.274 HD
ENDBRANCH  11  12
ENDBRANCH  10  11
ENDBRANCH   9  10
ENDBRANCH   4   9
ENDBRANCH   3   4
TORSDOF 6
ENDMDL
MODEL 5
REMARK VINA RESULT:      -4.2      4.327      4.825
REMARK  6 active torsions:
REMARK  status: ('A' for Active; 'I' for Inactive)
REMARK    1  A    between atoms: N_3  and  CA_7 
REMARK    2  A    between atoms: N_4  and  C_8 
REMARK    3  A    between atoms: C_5  and  C_6 
REMARK    4  A    between atoms: C_5  and  CA_7 
REMARK    5  A    between atoms: C_6  and  C_8 
REMARK    6  A    between atoms: CA_7  and  C_9 
ROOT
HETATM    1  O   UNL     1      15.005   4.588   9.373  1.00  0.00    -0.646 OA
HETATM    2  OXT UNL     1      13.002   4.531   8.313  1.00  0.00    -0.646 OA
HETATM    3  C   UNL     1      13.646   4.648   9.347  1.00  0.00     0.204 C 
ENDROOT
BRANCH   3   4
HETATM    4  CA  UNL     1      13.061   4.872  10.729  1.00  0.00     0.283 C 
BRANCH   4   5
HETATM    5  N   UNL     1      12.322   3.667  11.110  1.00  0.00    -0.065 N 
HETATM    6  H   UNL     1      11.329   3.803  10.919  1.00  0.00     0.275 HD
HETATM    7  H   UNL     1      12.456   3.487  12.105  1.00  0.00     0.275 HD
HETATM    8  H   UNL     1      12.667   2.873  10.571  1.00  0.00     0.275 HD
ENDBRANCH   4   5
BRANCH   4   9
HETATM    9  C   UNL     1      14.131   5.260  11.761  1.00  0.00     0.045 C 
BRANCH   9  10
HETATM   10  C   UNL     1      14.258   6.766  12.029  1.00  0.00     0.030 C 
BRANCH  10  11
HETATM   11  C   UNL     1      15.686   7.248  11.774  1.00  0.00     0.230 C 
BRANCH  11  12
HETATM   12  N   UNL     1      15.953   7.305  10.341  1.00  0.00    -0.079 N 
HETATM   13  H   UNL     1      16.857   7.748  10.181  1.00  0.00     0.274 HD
HETATM   14  H   UNL     1      15.222   7.848   9.881  1.00  0.00     0.274 HD
HETATM   15  H   UNL     1      15.965   6.359   9.959  1.00  0.00     0.274 HD
ENDBRANCH  11  12
ENDBRANCH  10  11
ENDBRANCH   9  10
ENDBRANCH   4   9
ENDBRANCH   3   4
TORSDOF 6
ENDMDL
MODEL 6
REMARK VINA RESULT:      -4.2      1.756      2.156
REMARK  6 active torsions:
REMARK  status: ('A' for Active; 'I' for Inactive)
REMARK    1  A    between atoms: N_3  and  CA_7 
REMARK    2  A    between atoms: N_4  and  C_8 
REMARK    3  A    between atoms: C_5  and  C_6 
REMARK    4  A    between atoms: C_5  and  CA_7 
REMARK    5  A    between atoms: C_6  and  C_8 
REMARK    6  A    between atoms: CA_7  and  C_9 
ROOT
HETATM    1  O   UNL     1      13.887   6.725  15.898  1.00  0.00    -0.646 OA
HETATM    2  OXT UNL     1      14.286   6.911  13.674  1.00  0.00    -0.646 OA
HETATM    3  C   UNL     1      13.507   6.975  14.616  1.00  0.00     0.204 C 
ENDROOT
BRANCH   3   4
HETATM    4  CA  UNL     1      12.034   7.332  14.520  1.00  0.00     0.283 C 
BRANCH   4   5
HETATM    5  N   UNL     1      11.508   7.461  15.879  1.00  0.00    -0.065 N 
HETATM    6  H   UNL     1      12.280   7.432  16.546  1.00  0.00     0.275 HD
HETATM    7  H   UNL     1      10.865   6.693  16.069  1.00  0.00     0.275 HD
HETATM    8  H   UNL     1      11.014   8.349  15.969  1.00  0.00     0.275 HD
ENDBRANCH   4   5
BRANCH   4   9
HETATM    9  C   UNL     1      11.792   8.589  13.670  1.00  0.00     0.045 C 
BRANCH   9  10
HETATM   10  C   UNL     1      12.529   9.848  14.150  1.00  0.00     0.030 C 
BRANCH  10  11
HETATM   11  C   UNL     1      11.896  11.109  13.561  1.00  0.00     0.230 C 
BRANCH  11  12
HETATM   12  N   UNL     1      12.791  12.249  13.725  1.00  0.00    -0.079 N 
HETATM   13  H   UNL     1      12.538  12.763  14.568  1.00  0.00     0.274 HD
HETATM   14  H   UNL     1      12.710  12.864  12.915  1.00  0.00     0.274 HD
HETATM   15  H   UNL     1      13.753  11.917  13.805  1.00  0.00     0.274 HD
ENDBRANCH  11  12
ENDBRANCH  10  11
ENDBRANCH   9  10
ENDBRANCH   4   9
ENDBRANCH   3   4
TORSDOF 6
ENDMDL
MODEL 7
REMARK VINA RESULT:      -4.1      5.043      5.789
REMARK  6 active torsions:
REMARK  status: ('A' for Active; 'I' for Inactive)
REMARK    1  A    between atoms: N_3  and  CA_7 
REMARK    2  A    between atoms: N_4  and  C_8 
REMARK    3  A    between atoms: C_5  and  C_6 
REMARK    4  A    between atoms: C_5  and  CA_7 
REMARK    5  A    between atoms: C_6  and  C_8 
REMARK    6  A    between atoms: CA_7  and  C_9 
ROOT
HETATM    1  O   UNL     1      15.040   4.582   9.255  1.00  0.00    -0.646 OA
HETATM    2  OXT UNL     1      14.141   3.072   7.823  1.00  0.00    -0.646 OA
HETATM    3  C   UNL     1      14.024   3.803   8.798  1.00  0.00     0.204 C 
ENDROOT
BRANCH   3   4
HETATM    4  CA  UNL     1      12.768   3.959   9.636  1.00  0.00     0.283 C 
BRANCH   4   5
HETATM    5  N   UNL     1      12.395   2.639  10.145  1.00  0.00    -0.065 N 
HETATM    6  H   UNL     1      11.383   2.597  10.275  1.00  0.00     0.275 HD
HETATM    7  H   UNL     1      12.859   2.475  11.038  1.00  0.00     0.275 HD
HETATM    8  H   UNL     1      12.681   1.923   9.476  1.00  0.00     0.275 HD
ENDBRANCH   4   5
BRANCH   4   9
HETATM    9  C   UNL     1      12.938   4.997  10.756  1.00  0.00     0.045 C 
BRANCH   9  10
HETATM   10  C   UNL     1      12.996   4.417  12.176  1.00  0.00     0.030 C 
BRANCH  10  11
HETATM   11  C   UNL     1      14.128   5.055  12.981  1.00  0.00     0.230 C 
BRANCH  11  12
HETATM   12  N   UNL     1      15.339   5.141  12.171  1.00  0.00    -0.079 N 
HETATM   13  H   UNL     1      16.097   5.526  12.734  1.00  0.00     0.274 HD
HETATM   14  H   UNL     1      15.169   5.748  11.369  1.00  0.00     0.274 HD
HETATM   15  H   UNL     1      15.597   4.209  11.845  1.00  0.00     0.274 HD
ENDBRANCH  11  12
ENDBRANCH  10  11
ENDBRANCH   9  10
ENDBRANCH   4   9
ENDBRANCH   3   4
TORSDOF 6
ENDMDL
MODEL 8
REMARK VINA RESULT:      -4.1      5.075      5.887
REMARK  6 active torsions:
REMARK  status: ('A' for Active; 'I' for Inactive)
REMARK    1  A    between atoms: N_3  and  CA_7 
REMARK    2  A    between atoms: N_4  and  C_8 
REMARK    3  A    between atoms: C_5  and  C_6 
REMARK    4  A    between atoms: C_5  and  CA_7 
REMARK    5  A    between atoms: C_6  and  C_8 
REMARK    6  A    between atoms: CA_7  and  C_9 
ROOT
HETATM    1  O   UNL     1      14.421   3.871   8.675  1.00  0.00    -0.646 OA
HETATM    2  OXT UNL     1      12.366   4.271   9.546  1.00  0.00    -0.646 OA
HETATM    3  C   UNL     1      13.574   4.471   9.554  1.00  0.00     0.204 C 
ENDROOT
BRANCH   3   4
HETATM    4  CA  UNL     1      14.308   5.390  10.513  1.00  0.00     0.283 C 
BRANCH   4   5
HETATM    5  N   UNL     1      13.849   5.092  11.870  1.00  0.00    -0.065 N 
HETATM    6  H   UNL     1      14.640   5.131  12.513  1.00  0.00     0.275 HD
HETATM    7  H   UNL     1      13.438   4.159  11.892  1.00  0.00     0.275 HD
HETATM    8  H   UNL     1      13.149   5.779  12.150  1.00  0.00     0.275 HD
ENDBRANCH   4   5
BRANCH   4   9
HETATM    9  C   UNL     1      15.835   5.286  10.369  1.00  0.00     0.045 C 
BRANCH   9  10
HETATM   10  C   UNL     1      16.632   5.658  11.627  1.00  0.00     0.030 C 
BRANCH  10  11
HETATM   11  C   UNL     1      18.015   6.196  11.258  1.00  0.00     0.230 C 
BRANCH  11  12
HETATM   12  N   UNL     1      18.201   6.165   9.812  1.00  0.00    -0.079 N 
HETATM   13  H   UNL     1      18.932   5.493   9.577  1.00  0.00     0.274 HD
HETATM   14  H   UNL     1      18.474   7.091   9.484  1.00  0.00     0.274 HD
HETATM   15  H   UNL     1      17.328   5.888   9.362  1.00  0.00     0.274 HD
ENDBRANCH  11  12
ENDBRANCH  10  11
ENDBRANCH   9  10
ENDBRANCH   4   9
ENDBRANCH   3   4
TORSDOF 6
ENDMDL
MODEL 9
REMARK VINA RESULT:      -4.0      3.967      5.012
REMARK  6 active torsions:
REMARK  status: ('A' for Active; 'I' for Inactive)
REMARK    1  A    between atoms: N_3  and  CA_7 
REMARK    2  A    between atoms: N_4  and  C_8 
REMARK    3  A    between atoms: C_5  and  C_6 
REMARK    4  A    between atoms: C_5  and  CA_7 
REMARK    5  A    between atoms: C_6  and  C_8 
REMARK    6  A    between atoms: CA_7  and  C_9 
ROOT
HETATM    1  O   UNL     1      11.101   6.000  11.562  1.00  0.00    -0.646 OA
HETATM    2  OXT UNL     1      13.086   6.590  12.487  1.00  0.00    -0.646 OA
HETATM    3  C   UNL     1      12.365   5.734  11.990  1.00  0.00     0.204 C 
ENDROOT
BRANCH   3   4
HETATM    4  CA  UNL     1      12.744   4.280  11.774  1.00  0.00     0.283 C 
BRANCH   4   5
HETATM    5  N   UNL     1      11.729   3.446  12.420  1.00  0.00    -0.065 N 
HETATM    6  H   UNL     1      10.958   3.286  11.771  1.00  0.00     0.275 HD
HETATM    7  H   UNL     1      11.381   3.919  13.253  1.00  0.00     0.275 HD
HETATM    8  H   UNL     1      12.143   2.552  12.684  1.00  0.00     0.275 HD
ENDBRANCH   4   5
BRANCH   4   9
HETATM    9  C   UNL     1      12.930   3.940  10.287  1.00  0.00     0.045 C 
BRANCH   9  10
HETATM   10  C   UNL     1      13.755   4.957   9.488  1.00  0.00     0.030 C 
BRANCH  10  11
HETATM   11  C   UNL     1      15.165   5.092  10.065  1.00  0.00     0.230 C 
BRANCH  11  12
HETATM   12  N   UNL     1      15.490   6.496  10.288  1.00  0.00    -0.079 N 
HETATM   13  H   UNL     1      15.066   7.064   9.554  1.00  0.00     0.274 HD
HETATM   14  H   UNL     1      16.502   6.618  10.269  1.00  0.00     0.274 HD
HETATM   15  H   UNL     1      15.129   6.789  11.195  1.00  0.00     0.274 HD
ENDBRANCH  11  12
ENDBRANCH  10  11
ENDBRANCH   9  10
ENDBRANCH   4   9
ENDBRANCH   3   4
TORSDOF 6
ENDMDL
