MODEL 1
REMARK VINA RESULT:      -2.8      0.000      0.000
REMARK  0 active torsions:
REMARK  status: ('A' for Active; 'I' for Inactive)
ROOT
ATOM      1  O   UNL A   1     -53.806  51.792   9.492  1.00  0.00    -0.648 OA
ATOM      2  O   UNL A   1     -53.449  52.570  11.614  1.00  0.00    -0.648 OA
ATOM      3  C   UNL A   1     -53.513  50.252  11.247  1.00  0.00     0.129 C 
ATOM      4  C   UNL A   1     -53.598  51.679  10.732  1.00  0.00     0.168 C 
ENDROOT
TORSDOF 0
ENDMDL
MODEL 2
REMARK VINA RESULT:      -2.8      0.022      1.618
REMARK  0 active torsions:
REMARK  status: ('A' for Active; 'I' for Inactive)
ROOT
ATOM      1  O   UNL A   1     -53.453  52.594  11.613  1.00  0.00    -0.648 OA
ATOM      2  O   UNL A   1     -53.804  51.812   9.492  1.00  0.00    -0.648 OA
ATOM      3  C   UNL A   1     -53.517  50.272  11.239  1.00  0.00     0.129 C 
ATOM      4  C   UNL A   1     -53.599  51.701  10.733  1.00  0.00     0.168 C 
ENDROOT
TORSDOF 0
ENDMDL
MODEL 3
REMARK VINA RESULT:      -2.8     13.838     14.408
REMARK  0 active torsions:
REMARK  status: ('A' for Active; 'I' for Inactive)
ROOT
ATOM      1  O   UNL A   1     -51.544  60.876   1.435  1.00  0.00    -0.648 OA
ATOM      2  O   UNL A   1     -53.105  61.049  -0.229  1.00  0.00    -0.648 OA
ATOM      3  C   UNL A   1     -50.832  60.936  -0.807  1.00  0.00     0.129 C 
ATOM      4  C   UNL A   1     -51.935  60.955   0.238  1.00  0.00     0.168 C 
ENDROOT
TORSDOF 0
ENDMDL
MODEL 4
REMARK VINA RESULT:      -2.7      1.268      2.086
REMARK  0 active torsions:
REMARK  status: ('A' for Active; 'I' for Inactive)
ROOT
ATOM      1  O   UNL A   1     -53.825  51.969   9.639  1.00  0.00    -0.648 OA
ATOM      2  O   UNL A   1     -53.817  49.827   8.836  1.00  0.00    -0.648 OA
ATOM      3  C   UNL A   1     -53.531  50.180  11.139  1.00  0.00     0.129 C 
ATOM      4  C   UNL A   1     -53.746  50.713   9.732  1.00  0.00     0.168 C 
ENDROOT
TORSDOF 0
ENDMDL
MODEL 5
REMARK VINA RESULT:      -2.6      1.008      1.085
REMARK  0 active torsions:
REMARK  status: ('A' for Active; 'I' for Inactive)
ROOT
ATOM      1  O   UNL A   1     -53.772  50.922   9.441  1.00  0.00    -0.648 OA
ATOM      2  O   UNL A   1     -53.470  51.362  11.666  1.00  0.00    -0.648 OA
ATOM      3  C   UNL A   1     -53.535  49.129  10.946  1.00  0.00     0.129 C 
ATOM      4  C   UNL A   1     -53.599  50.618  10.654  1.00  0.00     0.168 C 
ENDROOT
TORSDOF 0
ENDMDL
MODEL 6
REMARK VINA RESULT:      -2.6      1.670      2.040
REMARK  0 active torsions:
REMARK  status: ('A' for Active; 'I' for Inactive)
ROOT
ATOM      1  O   UNL A   1     -53.471  51.726  11.502  1.00  0.00    -0.648 OA
ATOM      2  O   UNL A   1     -53.164  49.740  12.595  1.00  0.00    -0.648 OA
ATOM      3  C   UNL A   1     -53.759  49.710  10.325  1.00  0.00     0.129 C 
ATOM      4  C   UNL A   1     -53.433  50.468  11.599  1.00  0.00     0.168 C 
ENDROOT
TORSDOF 0
ENDMDL
MODEL 7
REMARK VINA RESULT:      -2.5      1.718      2.296
REMARK  0 active torsions:
REMARK  status: ('A' for Active; 'I' for Inactive)
ROOT
ATOM      1  O   UNL A   1     -53.759  50.950   9.359  1.00  0.00    -0.648 OA
ATOM      2  O   UNL A   1     -54.849  49.046  10.006  1.00  0.00    -0.648 OA
ATOM      3  C   UNL A   1     -53.402  50.100  11.523  1.00  0.00     0.129 C 
ATOM      4  C   UNL A   1     -54.069  50.026  10.161  1.00  0.00     0.168 C 
ENDROOT
TORSDOF 0
ENDMDL
MODEL 8
REMARK VINA RESULT:      -2.5     10.961     11.454
REMARK  0 active torsions:
REMARK  status: ('A' for Active; 'I' for Inactive)
ROOT
ATOM      1  O   UNL A   1     -59.367  57.679  17.220  1.00  0.00    -0.648 OA
ATOM      2  O   UNL A   1     -59.450  59.404  18.720  1.00  0.00    -0.648 OA
ATOM      3  C   UNL A   1     -57.968  57.626  19.111  1.00  0.00     0.129 C 
ATOM      4  C   UNL A   1     -59.034  58.302  18.266  1.00  0.00     0.168 C 
ENDROOT
TORSDOF 0
ENDMDL
MODEL 9
REMARK VINA RESULT:      -2.5      1.953      2.499
REMARK  0 active torsions:
REMARK  status: ('A' for Active; 'I' for Inactive)
ROOT
ATOM      1  O   UNL A   1     -55.006  48.850  10.117  1.00  0.00    -0.648 OA
ATOM      2  O   UNL A   1     -53.794  50.556   9.192  1.00  0.00    -0.648 OA
ATOM      3  C   UNL A   1     -53.401  49.962  11.429  1.00  0.00     0.129 C 
ATOM      4  C   UNL A   1     -54.141  49.769  10.117  1.00  0.00     0.168 C 
ENDROOT
TORSDOF 0
ENDMDL
