MODEL 1
REMARK VINA RESULT:      -2.8      0.000      0.000
REMARK  0 active torsions:
REMARK  status: ('A' for Active; 'I' for Inactive)
ROOT
ATOM      1  O   UNL A   1     -53.806  51.794   9.493  1.00  0.00    -0.648 OA
ATOM      2  O   UNL A   1     -53.448  52.571  11.615  1.00  0.00    -0.648 OA
ATOM      3  C   UNL A   1     -53.513  50.254  11.248  1.00  0.00     0.129 C 
ATOM      4  C   UNL A   1     -53.598  51.680  10.733  1.00  0.00     0.168 C 
ENDROOT
TORSDOF 0
ENDMDL
MODEL 2
REMARK VINA RESULT:      -2.8      0.024      1.618
REMARK  0 active torsions:
REMARK  status: ('A' for Active; 'I' for Inactive)
ROOT
ATOM      1  O   UNL A   1     -53.449  52.602  11.612  1.00  0.00    -0.648 OA
ATOM      2  O   UNL A   1     -53.796  51.804   9.496  1.00  0.00    -0.648 OA
ATOM      3  C   UNL A   1     -53.515  50.277  11.256  1.00  0.00     0.129 C 
ATOM      4  C   UNL A   1     -53.594  51.702  10.738  1.00  0.00     0.168 C 
ENDROOT
TORSDOF 0
ENDMDL
MODEL 3
REMARK VINA RESULT:      -2.7      1.228      2.038
REMARK  0 active torsions:
REMARK  status: ('A' for Active; 'I' for Inactive)
ROOT
ATOM      1  O   UNL A   1     -53.813  52.068   9.669  1.00  0.00    -0.648 OA
ATOM      2  O   UNL A   1     -53.714  49.943   8.828  1.00  0.00    -0.648 OA
ATOM      3  C   UNL A   1     -53.543  50.258  11.147  1.00  0.00     0.129 C 
ATOM      4  C   UNL A   1     -53.706  50.813   9.743  1.00  0.00     0.168 C 
ENDROOT
TORSDOF 0
ENDMDL
MODEL 4
REMARK VINA RESULT:      -2.7      1.267      1.647
REMARK  0 active torsions:
REMARK  status: ('A' for Active; 'I' for Inactive)
ROOT
ATOM      1  O   UNL A   1     -53.924  49.749   8.960  1.00  0.00    -0.648 OA
ATOM      2  O   UNL A   1     -53.787  51.932   9.630  1.00  0.00    -0.648 OA
ATOM      3  C   UNL A   1     -53.512  50.232  11.225  1.00  0.00     0.129 C 
ATOM      4  C   UNL A   1     -53.766  50.681   9.796  1.00  0.00     0.168 C 
ENDROOT
TORSDOF 0
ENDMDL
MODEL 5
REMARK VINA RESULT:      -2.6      1.609      1.960
REMARK  0 active torsions:
REMARK  status: ('A' for Active; 'I' for Inactive)
ROOT
ATOM      1  O   UNL A   1     -53.487  51.863  11.457  1.00  0.00    -0.648 OA
ATOM      2  O   UNL A   1     -53.182  49.824  12.449  1.00  0.00    -0.648 OA
ATOM      3  C   UNL A   1     -53.840  49.907  10.198  1.00  0.00     0.129 C 
ATOM      4  C   UNL A   1     -53.466  50.602  11.496  1.00  0.00     0.168 C 
ENDROOT
TORSDOF 0
ENDMDL
MODEL 6
REMARK VINA RESULT:      -2.6     11.201     11.792
REMARK  0 active torsions:
REMARK  status: ('A' for Active; 'I' for Inactive)
ROOT
ATOM      1  O   UNL A   1     -60.734  58.853  18.200  1.00  0.00    -0.648 OA
ATOM      2  O   UNL A   1     -59.164  57.452  17.303  1.00  0.00    -0.648 OA
ATOM      3  C   UNL A   1     -58.456  59.259  18.623  1.00  0.00     0.129 C 
ATOM      4  C   UNL A   1     -59.562  58.441  17.979  1.00  0.00     0.168 C 
ENDROOT
TORSDOF 0
ENDMDL
MODEL 7
REMARK VINA RESULT:      -2.5     10.956     11.448
REMARK  0 active torsions:
REMARK  status: ('A' for Active; 'I' for Inactive)
ROOT
ATOM      1  O   UNL A   1     -59.365  57.678  17.212  1.00  0.00    -0.648 OA
ATOM      2  O   UNL A   1     -59.455  59.396  18.721  1.00  0.00    -0.648 OA
ATOM      3  C   UNL A   1     -57.973  57.617  19.108  1.00  0.00     0.129 C 
ATOM      4  C   UNL A   1     -59.036  58.296  18.262  1.00  0.00     0.168 C 
ENDROOT
TORSDOF 0
ENDMDL
MODEL 8
REMARK VINA RESULT:      -2.4     10.816     11.266
REMARK  0 active torsions:
REMARK  status: ('A' for Active; 'I' for Inactive)
ROOT
ATOM      1  O   UNL A   1     -53.900  39.434  13.357  1.00  0.00    -0.648 OA
ATOM      2  O   UNL A   1     -53.187  41.433  12.502  1.00  0.00    -0.648 OA
ATOM      3  C   UNL A   1     -54.929  41.425  14.076  1.00  0.00     0.129 C 
ATOM      4  C   UNL A   1     -53.904  40.690  13.228  1.00  0.00     0.168 C 
ENDROOT
TORSDOF 0
ENDMDL
MODEL 9
REMARK VINA RESULT:      -2.4      4.939      5.451
REMARK  0 active torsions:
REMARK  status: ('A' for Active; 'I' for Inactive)
ROOT
ATOM      1  O   UNL A   1     -50.927  48.385  15.472  1.00  0.00    -0.648 OA
ATOM      2  O   UNL A   1     -52.561  49.980  15.615  1.00  0.00    -0.648 OA
ATOM      3  C   UNL A   1     -52.615  48.452  13.834  1.00  0.00     0.129 C 
ATOM      4  C   UNL A   1     -51.969  48.992  15.099  1.00  0.00     0.168 C 
ENDROOT
TORSDOF 0
ENDMDL
