MODEL 1
REMARK VINA RESULT:      -3.9      0.000      0.000
REMARK  2 active torsions:
REMARK  status: ('A' for Active; 'I' for Inactive)
REMARK    1  A    between atoms: C_3  and  C_4 
REMARK    2  A    between atoms: C_4  and  C_6 
ROOT
ATOM      1  O   UNL A   1     -54.076  52.587   9.489  1.00  0.00    -0.648 OA
ATOM      2  O   UNL A   1     -53.379  52.540  11.664  1.00  0.00    -0.648 OA
ATOM      3  C   UNL A   1     -53.692  52.025  10.552  1.00  0.00     0.172 C 
ENDROOT
BRANCH   3   4
ATOM      4  C   UNL A   1     -53.603  50.496  10.519  1.00  0.00     0.113 C 
BRANCH   4   5
ATOM      5  C   UNL A   1     -53.305  49.803  11.845  1.00  0.00     0.006 C 
ATOM      6  C   UNL A   1     -53.071  48.308  11.681  1.00  0.00     0.005 C 
ENDBRANCH   4   5
ENDBRANCH   3   4
TORSDOF 2
ENDMDL
MODEL 2
REMARK VINA RESULT:      -3.9      0.364      1.359
REMARK  2 active torsions:
REMARK  status: ('A' for Active; 'I' for Inactive)
REMARK    1  A    between atoms: C_3  and  C_4 
REMARK    2  A    between atoms: C_4  and  C_6 
ROOT
ATOM      1  O   UNL A   1     -53.415  52.347  11.685  1.00  0.00    -0.648 OA
ATOM      2  O   UNL A   1     -53.823  52.150   9.446  1.00  0.00    -0.648 OA
ATOM      3  C   UNL A   1     -53.632  51.711  10.617  1.00  0.00     0.172 C 
ENDROOT
BRANCH   3   4
ATOM      4  C   UNL A   1     -53.652  50.182  10.727  1.00  0.00     0.113 C 
BRANCH   4   5
ATOM      5  C   UNL A   1     -53.236  49.591  12.069  1.00  0.00     0.006 C 
ATOM      6  C   UNL A   1     -52.953  48.098  11.985  1.00  0.00     0.005 C 
ENDBRANCH   4   5
ENDBRANCH   3   4
TORSDOF 2
ENDMDL
MODEL 3
REMARK VINA RESULT:      -3.9      1.181      1.275
REMARK  2 active torsions:
REMARK  status: ('A' for Active; 'I' for Inactive)
REMARK    1  A    between atoms: C_3  and  C_4 
REMARK    2  A    between atoms: C_4  and  C_6 
ROOT
ATOM      1  O   UNL A   1     -53.793  51.917   9.502  1.00  0.00    -0.648 OA
ATOM      2  O   UNL A   1     -53.492  52.657  11.642  1.00  0.00    -0.648 OA
ATOM      3  C   UNL A   1     -53.602  51.775  10.741  1.00  0.00     0.172 C 
ENDROOT
BRANCH   3   4
ATOM      4  C   UNL A   1     -53.504  50.335  11.255  1.00  0.00     0.113 C 
BRANCH   4   5
ATOM      5  C   UNL A   1     -53.581  49.231  10.207  1.00  0.00     0.006 C 
ATOM      6  C   UNL A   1     -54.903  48.477  10.250  1.00  0.00     0.005 C 
ENDBRANCH   4   5
ENDBRANCH   3   4
TORSDOF 2
ENDMDL
MODEL 4
REMARK VINA RESULT:      -3.6      2.221      2.657
REMARK  2 active torsions:
REMARK  status: ('A' for Active; 'I' for Inactive)
REMARK    1  A    between atoms: C_3  and  C_4 
REMARK    2  A    between atoms: C_4  and  C_6 
ROOT
ATOM      1  O   UNL A   1     -53.395  50.757   8.543  1.00  0.00    -0.648 OA
ATOM      2  O   UNL A   1     -52.957  48.515   8.520  1.00  0.00    -0.648 OA
ATOM      3  C   UNL A   1     -53.437  49.582   9.002  1.00  0.00     0.172 C 
ENDROOT
BRANCH   3   4
ATOM      4  C   UNL A   1     -54.152  49.401  10.345  1.00  0.00     0.113 C 
BRANCH   4   5
ATOM      5  C   UNL A   1     -53.462  49.991  11.569  1.00  0.00     0.006 C 
ATOM      6  C   UNL A   1     -53.148  48.940  12.624  1.00  0.00     0.005 C 
ENDBRANCH   4   5
ENDBRANCH   3   4
TORSDOF 2
ENDMDL
MODEL 5
REMARK VINA RESULT:      -3.5      2.125      2.871
REMARK  2 active torsions:
REMARK  status: ('A' for Active; 'I' for Inactive)
REMARK    1  A    between atoms: C_3  and  C_4 
REMARK    2  A    between atoms: C_4  and  C_6 
ROOT
ATOM      1  O   UNL A   1     -52.947  49.564  13.155  1.00  0.00    -0.648 OA
ATOM      2  O   UNL A   1     -53.480  51.152  11.602  1.00  0.00    -0.648 OA
ATOM      3  C   UNL A   1     -53.263  49.972  12.003  1.00  0.00     0.172 C 
ENDROOT
BRANCH   3   4
ATOM      4  C   UNL A   1     -53.388  48.903  10.913  1.00  0.00     0.113 C 
BRANCH   4   5
ATOM      5  C   UNL A   1     -54.714  48.847  10.163  1.00  0.00     0.006 C 
ATOM      6  C   UNL A   1     -55.041  47.449   9.660  1.00  0.00     0.005 C 
ENDBRANCH   4   5
ENDBRANCH   3   4
TORSDOF 2
ENDMDL
MODEL 6
REMARK VINA RESULT:      -3.5      3.054      3.995
REMARK  2 active torsions:
REMARK  status: ('A' for Active; 'I' for Inactive)
REMARK    1  A    between atoms: C_3  and  C_4 
REMARK    2  A    between atoms: C_4  and  C_6 
ROOT
ATOM      1  O   UNL A   1     -53.899  49.258  14.199  1.00  0.00    -0.648 OA
ATOM      2  O   UNL A   1     -52.147  47.817  13.929  1.00  0.00    -0.648 OA
ATOM      3  C   UNL A   1     -53.061  48.593  13.528  1.00  0.00     0.172 C 
ENDROOT
BRANCH   3   4
ATOM      4  C   UNL A   1     -53.160  48.716  12.004  1.00  0.00     0.113 C 
BRANCH   4   5
ATOM      5  C   UNL A   1     -53.417  50.112  11.448  1.00  0.00     0.006 C 
ATOM      6  C   UNL A   1     -53.899  50.085  10.005  1.00  0.00     0.005 C 
ENDBRANCH   4   5
ENDBRANCH   3   4
TORSDOF 2
ENDMDL
MODEL 7
REMARK VINA RESULT:      -3.5      3.874      4.884
REMARK  2 active torsions:
REMARK  status: ('A' for Active; 'I' for Inactive)
REMARK    1  A    between atoms: C_3  and  C_4 
REMARK    2  A    between atoms: C_4  and  C_6 
ROOT
ATOM      1  O   UNL A   1     -50.862  48.398  15.695  1.00  0.00    -0.648 OA
ATOM      2  O   UNL A   1     -52.516  49.966  15.551  1.00  0.00    -0.648 OA
ATOM      3  C   UNL A   1     -51.890  48.928  15.191  1.00  0.00     0.172 C 
ENDROOT
BRANCH   3   4
ATOM      4  C   UNL A   1     -52.471  48.241  13.950  1.00  0.00     0.113 C 
BRANCH   4   5
ATOM      5  C   UNL A   1     -53.079  49.152  12.890  1.00  0.00     0.006 C 
ATOM      6  C   UNL A   1     -53.476  48.396  11.630  1.00  0.00     0.005 C 
ENDBRANCH   4   5
ENDBRANCH   3   4
TORSDOF 2
ENDMDL
MODEL 8
REMARK VINA RESULT:      -3.4     10.955     11.520
REMARK  2 active torsions:
REMARK  status: ('A' for Active; 'I' for Inactive)
REMARK    1  A    between atoms: C_3  and  C_4 
REMARK    2  A    between atoms: C_4  and  C_6 
ROOT
ATOM      1  O   UNL A   1     -59.334  57.525  17.182  1.00  0.00    -0.648 OA
ATOM      2  O   UNL A   1     -59.859  59.217  18.624  1.00  0.00    -0.648 OA
ATOM      3  C   UNL A   1     -59.163  58.247  18.203  1.00  0.00     0.172 C 
ENDROOT
BRANCH   3   4
ATOM      4  C   UNL A   1     -57.957  57.908  19.084  1.00  0.00     0.113 C 
BRANCH   4   5
ATOM      5  C   UNL A   1     -57.620  56.429  19.236  1.00  0.00     0.006 C 
ATOM      6  C   UNL A   1     -58.493  55.736  20.272  1.00  0.00     0.005 C 
ENDBRANCH   4   5
ENDBRANCH   3   4
TORSDOF 2
ENDMDL
MODEL 9
REMARK VINA RESULT:      -3.4      4.018      4.677
REMARK  2 active torsions:
REMARK  status: ('A' for Active; 'I' for Inactive)
REMARK    1  A    between atoms: C_3  and  C_4 
REMARK    2  A    between atoms: C_4  and  C_6 
ROOT
ATOM      1  O   UNL A   1     -55.773  46.056   9.027  1.00  0.00    -0.648 OA
ATOM      2  O   UNL A   1     -54.250  47.394   7.975  1.00  0.00    -0.648 OA
ATOM      3  C   UNL A   1     -55.013  47.059   8.926  1.00  0.00     0.172 C 
ENDROOT
BRANCH   3   4
ATOM      4  C   UNL A   1     -55.013  48.035  10.108  1.00  0.00     0.113 C 
BRANCH   4   5
ATOM      5  C   UNL A   1     -54.230  49.329   9.921  1.00  0.00     0.006 C 
ATOM      6  C   UNL A   1     -53.536  49.780  11.198  1.00  0.00     0.005 C 
ENDBRANCH   4   5
ENDBRANCH   3   4
TORSDOF 2
ENDMDL
