MODEL 1
REMARK VINA RESULT:      -7.6      0.000      0.000
REMARK  4 active torsions:
REMARK  status: ('A' for Active; 'I' for Inactive)
REMARK    1  A    between atoms: O_1  and  C_5 
REMARK    2  A    between atoms: O_1  and  C_14 
REMARK    3  A    between atoms: O_2  and  C_18 
REMARK    4  A    between atoms: C_10  and  C_13 
ROOT
HETATM    1  O   UNL     1       4.618  -4.441  59.313  1.00  0.00    -0.343 OA
ENDROOT
BRANCH   1   2
HETATM    2  C   UNL     1       4.465  -5.662  58.601  1.00  0.00     0.129 C 
HETATM    3  C   UNL     1       4.209  -5.362  57.132  1.00  0.00     0.032 C 
HETATM    4  C   UNL     1       2.726  -4.999  57.069  1.00  0.00     0.002 C 
HETATM    5  C   UNL     1       2.080  -5.622  58.306  1.00  0.00     0.002 C 
HETATM    6  C   UNL     1       3.192  -6.372  59.034  1.00  0.00     0.032 C 
ENDBRANCH   1   2
BRANCH   1   7
HETATM    7  C   UNL     1       5.632  -3.613  58.908  1.00  0.00     0.103 A 
HETATM    8  C   UNL     1       5.334  -2.534  58.080  1.00  0.00     0.047 A 
HETATM    9  C   UNL     1       6.357  -1.685  57.659  1.00  0.00    -0.049 A 
HETATM   10  C   UNL     1       7.671  -1.918  58.066  1.00  0.00     0.010 A 
HETATM   11  C   UNL     1       7.962  -3.002  58.895  1.00  0.00     0.040 A 
HETATM   12  C   UNL     1       6.939  -3.852  59.317  1.00  0.00     0.101 A 
BRANCH   9  13
HETATM   13  C   UNL     1       6.042  -0.508  56.760  1.00  0.00     0.045 C 
HETATM   14  C   UNL     1       5.354  -0.846  55.437  1.00  0.00     0.132 C 
HETATM   15  N   UNL     1       4.716   0.383  55.059  1.00  0.00    -0.360 N 
HETATM   16  C   UNL     1       4.528   1.240  56.135  1.00  0.00     0.218 C 
HETATM   17  H   UNL     1       4.441   0.595  54.138  1.00  0.00     0.162 HD
HETATM   18  O   UNL     1       3.975   2.327  56.130  1.00  0.00    -0.274 OA
HETATM   19  C   UNL     1       5.093   0.551  57.354  1.00  0.00     0.113 C 
ENDBRANCH   9  13
BRANCH  12  20
HETATM   20  O   UNL     1       7.235  -4.908  60.125  1.00  0.00    -0.353 OA
HETATM   21  C   UNL     1       8.454  -4.837  60.862  1.00  0.00     0.210 C 
ENDBRANCH  12  20
ENDBRANCH   1   7
TORSDOF 4
ENDMDL
MODEL 2
REMARK VINA RESULT:      -7.1      1.622      1.969
REMARK  4 active torsions:
REMARK  status: ('A' for Active; 'I' for Inactive)
REMARK    1  A    between atoms: O_1  and  C_5 
REMARK    2  A    between atoms: O_1  and  C_14 
REMARK    3  A    between atoms: O_2  and  C_18 
REMARK    4  A    between atoms: C_10  and  C_13 
ROOT
HETATM    1  O   UNL     1       4.382  -4.228  59.046  1.00  0.00    -0.343 OA
ENDROOT
BRANCH   1   2
HETATM    2  C   UNL     1       4.214  -5.584  58.653  1.00  0.00     0.129 C 
HETATM    3  C   UNL     1       3.940  -5.646  57.157  1.00  0.00     0.032 C 
HETATM    4  C   UNL     1       2.459  -5.297  57.024  1.00  0.00     0.002 C 
HETATM    5  C   UNL     1       1.824  -5.596  58.382  1.00  0.00     0.002 C 
HETATM    6  C   UNL     1       2.942  -6.157  59.258  1.00  0.00     0.032 C 
ENDBRANCH   1   2
BRANCH   1   7
HETATM    7  C   UNL     1       5.367  -3.519  58.409  1.00  0.00     0.103 A 
HETATM    8  C   UNL     1       5.042  -2.773  57.281  1.00  0.00     0.047 A 
HETATM    9  C   UNL     1       6.035  -2.047  56.623  1.00  0.00    -0.049 A 
HETATM   10  C   UNL     1       7.348  -2.074  57.095  1.00  0.00     0.010 A 
HETATM   11  C   UNL     1       7.666  -2.825  58.225  1.00  0.00     0.040 A 
HETATM   12  C   UNL     1       6.673  -3.550  58.885  1.00  0.00     0.101 A 
BRANCH   9  13
HETATM   13  C   UNL     1       5.689  -1.231  55.396  1.00  0.00     0.045 C 
HETATM   14  C   UNL     1       6.169   0.221  55.404  1.00  0.00     0.132 C 
HETATM   15  N   UNL     1       6.199   0.578  54.014  1.00  0.00    -0.360 N 
HETATM   16  C   UNL     1       6.261  -0.528  53.179  1.00  0.00     0.218 C 
HETATM   17  H   UNL     1       6.179   1.507  53.688  1.00  0.00     0.162 HD
HETATM   18  O   UNL     1       6.345  -0.536  51.961  1.00  0.00    -0.274 OA
HETATM   19  C   UNL     1       6.261  -1.752  54.063  1.00  0.00     0.113 C 
ENDBRANCH   9  13
BRANCH  12  20
HETATM   20  O   UNL     1       6.997  -4.281  59.988  1.00  0.00    -0.353 OA
HETATM   21  C   UNL     1       8.307  -4.103  60.521  1.00  0.00     0.210 C 
ENDBRANCH  12  20
ENDBRANCH   1   7
TORSDOF 4
ENDMDL
MODEL 3
REMARK VINA RESULT:      -7.1      2.102      2.660
REMARK  4 active torsions:
REMARK  status: ('A' for Active; 'I' for Inactive)
REMARK    1  A    between atoms: O_1  and  C_5 
REMARK    2  A    between atoms: O_1  and  C_14 
REMARK    3  A    between atoms: O_2  and  C_18 
REMARK    4  A    between atoms: C_10  and  C_13 
ROOT
HETATM    1  O   UNL     1       5.186  -5.039  57.643  1.00  0.00    -0.343 OA
ENDROOT
BRANCH   1   2
HETATM    2  C   UNL     1       3.916  -5.078  58.280  1.00  0.00     0.129 C 
HETATM    3  C   UNL     1       3.681  -6.468  58.852  1.00  0.00     0.032 C 
HETATM    4  C   UNL     1       3.239  -7.306  57.653  1.00  0.00     0.002 C 
HETATM    5  C   UNL     1       2.705  -6.319  56.615  1.00  0.00     0.002 C 
HETATM    6  C   UNL     1       2.804  -4.936  57.254  1.00  0.00     0.032 C 
ENDBRANCH   1   2
BRANCH   1   7
HETATM    7  C   UNL     1       5.704  -3.799  57.374  1.00  0.00     0.103 A 
HETATM    8  C   UNL     1       5.386  -3.179  56.170  1.00  0.00     0.047 A 
HETATM    9  C   UNL     1       5.907  -1.917  55.884  1.00  0.00    -0.049 A 
HETATM   10  C   UNL     1       6.745  -1.283  56.802  1.00  0.00     0.010 A 
HETATM   11  C   UNL     1       7.060  -1.911  58.007  1.00  0.00     0.040 A 
HETATM   12  C   UNL     1       6.539  -3.173  58.294  1.00  0.00     0.101 A 
BRANCH   9  13
HETATM   13  C   UNL     1       5.564  -1.235  54.577  1.00  0.00     0.045 C 
HETATM   14  C   UNL     1       5.860   0.264  54.510  1.00  0.00     0.132 C 
HETATM   15  N   UNL     1       5.959   0.530  53.102  1.00  0.00    -0.360 N 
HETATM   16  C   UNL     1       6.224  -0.612  52.360  1.00  0.00     0.218 C 
HETATM   17  H   UNL     1       5.852   1.425  52.706  1.00  0.00     0.162 HD
HETATM   18  O   UNL     1       6.407  -0.689  51.156  1.00  0.00    -0.274 OA
HETATM   19  C   UNL     1       6.303  -1.764  53.333  1.00  0.00     0.113 C 
ENDBRANCH   9  13
BRANCH  12  20
HETATM   20  O   UNL     1       6.855  -3.777  59.473  1.00  0.00    -0.353 OA
HETATM   21  C   UNL     1       8.235  -3.827  59.825  1.00  0.00     0.210 C 
ENDBRANCH  12  20
ENDBRANCH   1   7
TORSDOF 4
ENDMDL
MODEL 4
REMARK VINA RESULT:      -7.0      3.607      5.336
REMARK  4 active torsions:
REMARK  status: ('A' for Active; 'I' for Inactive)
REMARK    1  A    between atoms: O_1  and  C_5 
REMARK    2  A    between atoms: O_1  and  C_14 
REMARK    3  A    between atoms: O_2  and  C_18 
REMARK    4  A    between atoms: C_10  and  C_13 
ROOT
HETATM    1  O   UNL     1       4.713  -2.754  56.294  1.00  0.00    -0.343 OA
ENDROOT
BRANCH   1   2
HETATM    2  C   UNL     1       5.580  -3.859  56.513  1.00  0.00     0.129 C 
HETATM    3  C   UNL     1       4.794  -5.002  57.139  1.00  0.00     0.032 C 
HETATM    4  C   UNL     1       4.695  -4.633  58.618  1.00  0.00     0.002 C 
HETATM    5  C   UNL     1       5.841  -3.660  58.894  1.00  0.00     0.002 C 
HETATM    6  C   UNL     1       6.609  -3.524  57.581  1.00  0.00     0.032 C 
ENDBRANCH   1   2
BRANCH   1   7
HETATM    7  C   UNL     1       5.119  -1.824  55.374  1.00  0.00     0.103 A 
HETATM    8  C   UNL     1       5.208  -2.190  54.034  1.00  0.00     0.047 A 
HETATM    9  C   UNL     1       5.621  -1.253  53.088  1.00  0.00    -0.049 A 
HETATM   10  C   UNL     1       5.945   0.044  53.485  1.00  0.00     0.010 A 
HETATM   11  C   UNL     1       5.855   0.405  54.829  1.00  0.00     0.040 A 
HETATM   12  C   UNL     1       5.441  -0.532  55.777  1.00  0.00     0.101 A 
BRANCH   9  13
HETATM   13  C   UNL     1       5.718  -1.644  51.629  1.00  0.00     0.045 C 
HETATM   14  C   UNL     1       4.432  -1.499  50.813  1.00  0.00     0.132 C 
HETATM   15  N   UNL     1       4.896  -1.407  49.457  1.00  0.00    -0.360 N 
HETATM   16  C   UNL     1       6.226  -1.019  49.373  1.00  0.00     0.218 C 
HETATM   17  H   UNL     1       4.333  -1.598  48.673  1.00  0.00     0.162 HD
HETATM   18  O   UNL     1       6.876  -0.812  48.361  1.00  0.00    -0.274 OA
HETATM   19  C   UNL     1       6.725  -0.838  50.786  1.00  0.00     0.113 C 
ENDBRANCH   9  13
BRANCH  12  20
HETATM   20  O   UNL     1       5.358  -0.169  57.087  1.00  0.00    -0.353 OA
HETATM   21  C   UNL     1       4.790   1.108  57.370  1.00  0.00     0.210 C 
ENDBRANCH  12  20
ENDBRANCH   1   7
TORSDOF 4
ENDMDL
MODEL 5
REMARK VINA RESULT:      -6.9      2.837      5.943
REMARK  4 active torsions:
REMARK  status: ('A' for Active; 'I' for Inactive)
REMARK    1  A    between atoms: O_1  and  C_5 
REMARK    2  A    between atoms: O_1  and  C_14 
REMARK    3  A    between atoms: O_2  and  C_18 
REMARK    4  A    between atoms: C_10  and  C_13 
ROOT
HETATM    1  O   UNL     1       5.966  -2.232  56.891  1.00  0.00    -0.343 OA
ENDROOT
BRANCH   1   2
HETATM    2  C   UNL     1       4.999  -1.241  56.569  1.00  0.00     0.129 C 
HETATM    3  C   UNL     1       5.044  -0.960  55.074  1.00  0.00     0.032 C 
HETATM    4  C   UNL     1       6.239  -0.025  54.895  1.00  0.00     0.002 C 
HETATM    5  C   UNL     1       6.478   0.629  56.256  1.00  0.00     0.002 C 
HETATM    6  C   UNL     1       5.387   0.096  57.181  1.00  0.00     0.032 C 
ENDBRANCH   1   2
BRANCH   1   7
HETATM    7  C   UNL     1       5.500  -3.386  57.464  1.00  0.00     0.103 A 
HETATM    8  C   UNL     1       4.396  -4.022  56.904  1.00  0.00     0.047 A 
HETATM    9  C   UNL     1       3.911  -5.197  57.478  1.00  0.00    -0.049 A 
HETATM   10  C   UNL     1       4.529  -5.729  58.610  1.00  0.00     0.010 A 
HETATM   11  C   UNL     1       5.634  -5.086  59.167  1.00  0.00     0.040 A 
HETATM   12  C   UNL     1       6.121  -3.911  58.593  1.00  0.00     0.101 A 
BRANCH   9  13
HETATM   13  C   UNL     1       2.712  -5.896  56.873  1.00  0.00     0.045 C 
HETATM   14  C   UNL     1       2.892  -7.383  56.565  1.00  0.00     0.132 C 
HETATM   15  N   UNL     1       1.549  -7.889  56.527  1.00  0.00    -0.360 N 
HETATM   16  C   UNL     1       0.650  -7.071  57.198  1.00  0.00     0.218 C 
HETATM   17  H   UNL     1       1.293  -8.725  56.075  1.00  0.00     0.162 HD
HETATM   18  O   UNL     1      -0.542  -7.265  57.374  1.00  0.00    -0.274 OA
HETATM   19  C   UNL     1       1.434  -5.898  57.735  1.00  0.00     0.113 C 
ENDBRANCH   9  13
BRANCH  12  20
HETATM   20  O   UNL     1       7.200  -3.291  59.146  1.00  0.00    -0.353 OA
HETATM   21  C   UNL     1       7.827  -3.943  60.248  1.00  0.00     0.210 C 
ENDBRANCH  12  20
ENDBRANCH   1   7
TORSDOF 4
ENDMDL
MODEL 6
REMARK VINA RESULT:      -6.8      2.648      4.685
REMARK  4 active torsions:
REMARK  status: ('A' for Active; 'I' for Inactive)
REMARK    1  A    between atoms: O_1  and  C_5 
REMARK    2  A    between atoms: O_1  and  C_14 
REMARK    3  A    between atoms: O_2  and  C_18 
REMARK    4  A    between atoms: C_10  and  C_13 
ROOT
HETATM    1  O   UNL     1       6.200  -4.168  57.377  1.00  0.00    -0.343 OA
ENDROOT
BRANCH   1   2
HETATM    2  C   UNL     1       6.196  -3.192  58.412  1.00  0.00     0.129 C 
HETATM    3  C   UNL     1       7.608  -2.663  58.613  1.00  0.00     0.032 C 
HETATM    4  C   UNL     1       8.301  -3.731  59.458  1.00  0.00     0.002 C 
HETATM    5  C   UNL     1       7.188  -4.506  60.163  1.00  0.00     0.002 C 
HETATM    6  C   UNL     1       5.878  -3.840  59.750  1.00  0.00     0.032 C 
ENDBRANCH   1   2
BRANCH   1   7
HETATM    7  C   UNL     1       5.236  -4.047  56.412  1.00  0.00     0.103 A 
HETATM    8  C   UNL     1       5.376  -3.068  55.433  1.00  0.00     0.047 A 
HETATM    9  C   UNL     1       4.400  -2.934  54.445  1.00  0.00    -0.049 A 
HETATM   10  C   UNL     1       3.290  -3.779  54.441  1.00  0.00     0.010 A 
HETATM   11  C   UNL     1       3.156  -4.758  55.425  1.00  0.00     0.040 A 
HETATM   12  C   UNL     1       4.131  -4.893  56.414  1.00  0.00     0.101 A 
BRANCH   9  13
HETATM   13  C   UNL     1       4.546  -1.872  53.377  1.00  0.00     0.045 C 
HETATM   14  C   UNL     1       5.434  -0.680  53.738  1.00  0.00     0.132 C 
HETATM   15  N   UNL     1       5.823  -0.145  52.464  1.00  0.00    -0.360 N 
HETATM   16  C   UNL     1       5.696  -1.068  51.435  1.00  0.00     0.218 C 
HETATM   17  H   UNL     1       6.145   0.776  52.334  1.00  0.00     0.162 HD
HETATM   18  O   UNL     1       5.994  -0.916  50.262  1.00  0.00    -0.274 OA
HETATM   19  C   UNL     1       5.166  -2.342  52.046  1.00  0.00     0.113 C 
ENDBRANCH   9  13
BRANCH  12  20
HETATM   20  O   UNL     1       3.989  -5.852  57.370  1.00  0.00    -0.353 OA
HETATM   21  C   UNL     1       2.907  -5.697  58.286  1.00  0.00     0.210 C 
ENDBRANCH  12  20
ENDBRANCH   1   7
TORSDOF 4
ENDMDL
MODEL 7
REMARK VINA RESULT:      -6.8      3.022      6.022
REMARK  4 active torsions:
REMARK  status: ('A' for Active; 'I' for Inactive)
REMARK    1  A    between atoms: O_1  and  C_5 
REMARK    2  A    between atoms: O_1  and  C_14 
REMARK    3  A    between atoms: O_2  and  C_18 
REMARK    4  A    between atoms: C_10  and  C_13 
ROOT
HETATM    1  O   UNL     1       6.382  -2.860  55.204  1.00  0.00    -0.343 OA
ENDROOT
BRANCH   1   2
HETATM    2  C   UNL     1       5.310  -2.266  54.484  1.00  0.00     0.129 C 
HETATM    3  C   UNL     1       5.771  -1.934  53.073  1.00  0.00     0.032 C 
HETATM    4  C   UNL     1       6.554  -0.630  53.222  1.00  0.00     0.002 C 
HETATM    5  C   UNL     1       6.064   0.017  54.517  1.00  0.00     0.002 C 
HETATM    6  C   UNL     1       4.974  -0.901  55.065  1.00  0.00     0.032 C 
ENDBRANCH   1   2
BRANCH   1   7
HETATM    7  C   UNL     1       6.061  -3.500  56.372  1.00  0.00     0.103 A 
HETATM    8  C   UNL     1       5.042  -4.449  56.367  1.00  0.00     0.047 A 
HETATM    9  C   UNL     1       4.705  -5.107  57.550  1.00  0.00    -0.049 A 
HETATM   10  C   UNL     1       5.386  -4.812  58.731  1.00  0.00     0.010 A 
HETATM   11  C   UNL     1       6.404  -3.860  58.730  1.00  0.00     0.040 A 
HETATM   12  C   UNL     1       6.743  -3.202  57.547  1.00  0.00     0.101 A 
BRANCH   9  13
HETATM   13  C   UNL     1       3.600  -6.141  57.551  1.00  0.00     0.045 C 
HETATM   14  C   UNL     1       2.239  -5.661  58.057  1.00  0.00     0.132 C 
HETATM   15  N   UNL     1       1.311  -6.592  57.478  1.00  0.00    -0.360 N 
HETATM   16  C   UNL     1       1.833  -7.248  56.372  1.00  0.00     0.218 C 
HETATM   17  H   UNL     1       0.404  -6.748  57.828  1.00  0.00     0.162 HD
HETATM   18  O   UNL     1       1.266  -8.054  55.652  1.00  0.00    -0.274 OA
HETATM   19  C   UNL     1       3.240  -6.737  56.176  1.00  0.00     0.113 C 
ENDBRANCH   9  13
BRANCH  12  20
HETATM   20  O   UNL     1       7.739  -2.273  57.558  1.00  0.00    -0.353 OA
HETATM   21  C   UNL     1       7.398  -0.963  58.005  1.00  0.00     0.210 C 
ENDBRANCH  12  20
ENDBRANCH   1   7
TORSDOF 4
ENDMDL
MODEL 8
REMARK VINA RESULT:      -6.7      3.052      6.065
REMARK  4 active torsions:
REMARK  status: ('A' for Active; 'I' for Inactive)
REMARK    1  A    between atoms: O_1  and  C_5 
REMARK    2  A    between atoms: O_1  and  C_14 
REMARK    3  A    between atoms: O_2  and  C_18 
REMARK    4  A    between atoms: C_10  and  C_13 
ROOT
HETATM    1  O   UNL     1       4.757  -2.409  57.627  1.00  0.00    -0.343 OA
ENDROOT
BRANCH   1   2
HETATM    2  C   UNL     1       5.894  -2.062  56.847  1.00  0.00     0.129 C 
HETATM    3  C   UNL     1       6.788  -1.125  57.647  1.00  0.00     0.032 C 
HETATM    4  C   UNL     1       6.126   0.246  57.511  1.00  0.00     0.002 C 
HETATM    5  C   UNL     1       5.262   0.181  56.252  1.00  0.00     0.002 C 
HETATM    6  C   UNL     1       5.480  -1.209  55.658  1.00  0.00     0.032 C 
ENDBRANCH   1   2
BRANCH   1   7
HETATM    7  C   UNL     1       4.435  -3.739  57.691  1.00  0.00     0.103 A 
HETATM    8  C   UNL     1       3.772  -4.327  56.618  1.00  0.00     0.047 A 
HETATM    9  C   UNL     1       3.438  -5.681  56.671  1.00  0.00    -0.049 A 
HETATM   10  C   UNL     1       3.767  -6.438  57.796  1.00  0.00     0.010 A 
HETATM   11  C   UNL     1       4.431  -5.841  58.867  1.00  0.00     0.040 A 
HETATM   12  C   UNL     1       4.766  -4.488  58.815  1.00  0.00     0.101 A 
BRANCH   9  13
HETATM   13  C   UNL     1       2.718  -6.328  55.508  1.00  0.00     0.045 C 
HETATM   14  C   UNL     1       2.957  -5.691  54.138  1.00  0.00     0.132 C 
HETATM   15  N   UNL     1       2.637  -6.741  53.212  1.00  0.00    -0.360 N 
HETATM   16  C   UNL     1       2.692  -8.000  53.793  1.00  0.00     0.218 C 
HETATM   17  H   UNL     1       2.405  -6.585  52.268  1.00  0.00     0.162 HD
HETATM   18  O   UNL     1       2.516  -9.078  53.247  1.00  0.00    -0.274 OA
HETATM   19  C   UNL     1       3.069  -7.804  55.242  1.00  0.00     0.113 C 
ENDBRANCH   9  13
BRANCH  12  20
HETATM   20  O   UNL     1       5.413  -3.916  59.869  1.00  0.00    -0.353 OA
HETATM   21  C   UNL     1       6.807  -4.189  59.997  1.00  0.00     0.210 C 
ENDBRANCH  12  20
ENDBRANCH   1   7
TORSDOF 4
ENDMDL
MODEL 9
REMARK VINA RESULT:      -6.7      3.445      5.869
REMARK  4 active torsions:
REMARK  status: ('A' for Active; 'I' for Inactive)
REMARK    1  A    between atoms: O_1  and  C_5 
REMARK    2  A    between atoms: O_1  and  C_14 
REMARK    3  A    between atoms: O_2  and  C_18 
REMARK    4  A    between atoms: C_10  and  C_13 
ROOT
HETATM    1  O   UNL     1       5.928  -3.688  53.968  1.00  0.00    -0.343 OA
ENDROOT
BRANCH   1   2
HETATM    2  C   UNL     1       4.981  -4.744  53.880  1.00  0.00     0.129 C 
HETATM    3  C   UNL     1       5.352  -5.659  52.722  1.00  0.00     0.032 C 
HETATM    4  C   UNL     1       4.838  -4.933  51.480  1.00  0.00     0.002 C 
HETATM    5  C   UNL     1       3.749  -3.976  51.964  1.00  0.00     0.002 C 
HETATM    6  C   UNL     1       3.621  -4.203  53.469  1.00  0.00     0.032 C 
ENDBRANCH   1   2
BRANCH   1   7
HETATM    7  C   UNL     1       5.850  -2.879  55.072  1.00  0.00     0.103 A 
HETATM    8  C   UNL     1       6.117  -3.418  56.327  1.00  0.00     0.047 A 
HETATM    9  C   UNL     1       6.039  -2.606  57.458  1.00  0.00    -0.049 A 
HETATM   10  C   UNL     1       5.693  -1.260  57.329  1.00  0.00     0.010 A 
HETATM   11  C   UNL     1       5.427  -0.727  56.069  1.00  0.00     0.040 A 
HETATM   12  C   UNL     1       5.505  -1.538  54.936  1.00  0.00     0.101 A 
BRANCH   9  13
HETATM   13  C   UNL     1       6.329  -3.184  58.826  1.00  0.00     0.045 C 
HETATM   14  C   UNL     1       5.805  -4.599  59.076  1.00  0.00     0.132 C 
HETATM   15  N   UNL     1       6.627  -5.083  60.149  1.00  0.00    -0.360 N 
HETATM   16  C   UNL     1       7.821  -4.385  60.264  1.00  0.00     0.218 C 
HETATM   17  H   UNL     1       6.372  -5.829  60.739  1.00  0.00     0.162 HD
HETATM   18  O   UNL     1       8.733  -4.599  61.046  1.00  0.00    -0.274 OA
HETATM   19  C   UNL     1       7.820  -3.324  59.190  1.00  0.00     0.113 C 
ENDBRANCH   9  13
BRANCH  12  20
HETATM   20  O   UNL     1       5.241  -1.007  53.710  1.00  0.00    -0.353 OA
HETATM   21  C   UNL     1       6.322  -0.367  53.036  1.00  0.00     0.210 C 
ENDBRANCH  12  20
ENDBRANCH   1   7
TORSDOF 4
ENDMDL
