MODEL 1
REMARK VINA RESULT:      -7.6      0.000      0.000
REMARK  4 active torsions:
REMARK  status: ('A' for Active; 'I' for Inactive)
REMARK    1  A    between atoms: O_1  and  C_5 
REMARK    2  A    between atoms: O_1  and  C_14 
REMARK    3  A    between atoms: O_2  and  C_18 
REMARK    4  A    between atoms: C_10  and  C_13 
ROOT
HETATM    1  O   UNL     1       4.614  -4.410  59.300  1.00  0.00    -0.343 OA
ENDROOT
BRANCH   1   2
HETATM    2  C   UNL     1       4.479  -5.645  58.609  1.00  0.00     0.129 C 
HETATM    3  C   UNL     1       4.231  -5.373  57.132  1.00  0.00     0.032 C 
HETATM    4  C   UNL     1       2.745  -5.025  57.051  1.00  0.00     0.002 C 
HETATM    5  C   UNL     1       2.096  -5.633  58.294  1.00  0.00     0.002 C 
HETATM    6  C   UNL     1       3.210  -6.359  59.044  1.00  0.00     0.032 C 
ENDBRANCH   1   2
BRANCH   1   7
HETATM    7  C   UNL     1       5.625  -3.580  58.890  1.00  0.00     0.103 A 
HETATM    8  C   UNL     1       5.325  -2.508  58.056  1.00  0.00     0.047 A 
HETATM    9  C   UNL     1       6.345  -1.657  57.631  1.00  0.00    -0.049 A 
HETATM   10  C   UNL     1       7.659  -1.884  58.039  1.00  0.00     0.010 A 
HETATM   11  C   UNL     1       7.953  -2.961  58.874  1.00  0.00     0.040 A 
HETATM   12  C   UNL     1       6.934  -3.812  59.301  1.00  0.00     0.101 A 
BRANCH   9  13
HETATM   13  C   UNL     1       6.026  -0.487  56.725  1.00  0.00     0.045 C 
HETATM   14  C   UNL     1       5.348  -0.836  55.399  1.00  0.00     0.132 C 
HETATM   15  N   UNL     1       4.703   0.387  55.012  1.00  0.00    -0.360 N 
HETATM   16  C   UNL     1       4.503   1.247  56.083  1.00  0.00     0.218 C 
HETATM   17  H   UNL     1       4.431   0.593  54.089  1.00  0.00     0.162 HD
HETATM   18  O   UNL     1       3.941   2.330  56.070  1.00  0.00    -0.274 OA
HETATM   19  C   UNL     1       5.066   0.568  57.308  1.00  0.00     0.113 C 
ENDBRANCH   9  13
BRANCH  12  20
HETATM   20  O   UNL     1       7.233  -4.862  60.115  1.00  0.00    -0.353 OA
HETATM   21  C   UNL     1       8.456  -4.788  60.844  1.00  0.00     0.210 C 
ENDBRANCH  12  20
ENDBRANCH   1   7
TORSDOF 4
ENDMDL
MODEL 2
REMARK VINA RESULT:      -7.1      2.016      2.544
REMARK  4 active torsions:
REMARK  status: ('A' for Active; 'I' for Inactive)
REMARK    1  A    between atoms: O_1  and  C_5 
REMARK    2  A    between atoms: O_1  and  C_14 
REMARK    3  A    between atoms: O_2  and  C_18 
REMARK    4  A    between atoms: C_10  and  C_13 
ROOT
HETATM    1  O   UNL     1       5.285  -5.077  57.823  1.00  0.00    -0.343 OA
ENDROOT
BRANCH   1   2
HETATM    2  C   UNL     1       4.035  -5.091  58.500  1.00  0.00     0.129 C 
HETATM    3  C   UNL     1       3.710  -6.513  58.933  1.00  0.00     0.032 C 
HETATM    4  C   UNL     1       3.171  -7.185  57.671  1.00  0.00     0.002 C 
HETATM    5  C   UNL     1       2.684  -6.057  56.762  1.00  0.00     0.002 C 
HETATM    6  C   UNL     1       2.906  -4.760  57.536  1.00  0.00     0.032 C 
ENDBRANCH   1   2
BRANCH   1   7
HETATM    7  C   UNL     1       5.809  -3.848  57.521  1.00  0.00     0.103 A 
HETATM    8  C   UNL     1       5.462  -3.241  56.317  1.00  0.00     0.047 A 
HETATM    9  C   UNL     1       5.990  -1.990  55.998  1.00  0.00    -0.049 A 
HETATM   10  C   UNL     1       6.862  -1.354  56.881  1.00  0.00     0.010 A 
HETATM   11  C   UNL     1       7.206  -1.968  58.085  1.00  0.00     0.040 A 
HETATM   12  C   UNL     1       6.678  -3.219  58.406  1.00  0.00     0.101 A 
BRANCH   9  13
HETATM   13  C   UNL     1       5.617  -1.323  54.691  1.00  0.00     0.045 C 
HETATM   14  C   UNL     1       5.759   0.199  54.655  1.00  0.00     0.132 C 
HETATM   15  N   UNL     1       5.871   0.499  53.256  1.00  0.00    -0.360 N 
HETATM   16  C   UNL     1       6.272  -0.597  52.505  1.00  0.00     0.218 C 
HETATM   17  H   UNL     1       5.684   1.386  52.870  1.00  0.00     0.162 HD
HETATM   18  O   UNL     1       6.496  -0.633  51.306  1.00  0.00    -0.274 OA
HETATM   19  C   UNL     1       6.440  -1.752  53.462  1.00  0.00     0.113 C 
ENDBRANCH   9  13
BRANCH  12  20
HETATM   20  O   UNL     1       7.022  -3.810  59.584  1.00  0.00    -0.353 OA
HETATM   21  C   UNL     1       8.407  -3.830  59.918  1.00  0.00     0.210 C 
ENDBRANCH  12  20
ENDBRANCH   1   7
TORSDOF 4
ENDMDL
MODEL 3
REMARK VINA RESULT:      -7.1      1.609      1.956
REMARK  4 active torsions:
REMARK  status: ('A' for Active; 'I' for Inactive)
REMARK    1  A    between atoms: O_1  and  C_5 
REMARK    2  A    between atoms: O_1  and  C_14 
REMARK    3  A    between atoms: O_2  and  C_18 
REMARK    4  A    between atoms: C_10  and  C_13 
ROOT
HETATM    1  O   UNL     1       4.401  -4.282  59.076  1.00  0.00    -0.343 OA
ENDROOT
BRANCH   1   2
HETATM    2  C   UNL     1       4.204  -5.628  58.664  1.00  0.00     0.129 C 
HETATM    3  C   UNL     1       3.899  -5.661  57.174  1.00  0.00     0.032 C 
HETATM    4  C   UNL     1       2.420  -5.288  57.077  1.00  0.00     0.002 C 
HETATM    5  C   UNL     1       1.810  -5.600  58.443  1.00  0.00     0.002 C 
HETATM    6  C   UNL     1       2.937  -6.192  59.287  1.00  0.00     0.032 C 
ENDBRANCH   1   2
BRANCH   1   7
HETATM    7  C   UNL     1       5.381  -3.576  58.428  1.00  0.00     0.103 A 
HETATM    8  C   UNL     1       5.047  -2.831  57.301  1.00  0.00     0.047 A 
HETATM    9  C   UNL     1       6.035  -2.109  56.632  1.00  0.00    -0.049 A 
HETATM   10  C   UNL     1       7.352  -2.137  57.092  1.00  0.00     0.010 A 
HETATM   11  C   UNL     1       7.680  -2.886  58.222  1.00  0.00     0.040 A 
HETATM   12  C   UNL     1       6.692  -3.608  58.892  1.00  0.00     0.101 A 
BRANCH   9  13
HETATM   13  C   UNL     1       5.679  -1.296  55.407  1.00  0.00     0.045 C 
HETATM   14  C   UNL     1       6.154   0.158  55.410  1.00  0.00     0.132 C 
HETATM   15  N   UNL     1       6.175   0.514  54.019  1.00  0.00    -0.360 N 
HETATM   16  C   UNL     1       6.235  -0.593  53.185  1.00  0.00     0.218 C 
HETATM   17  H   UNL     1       6.150   1.443  53.693  1.00  0.00     0.162 HD
HETATM   18  O   UNL     1       6.312  -0.602  51.967  1.00  0.00    -0.274 OA
HETATM   19  C   UNL     1       6.245  -1.816  54.071  1.00  0.00     0.113 C 
ENDBRANCH   9  13
BRANCH  12  20
HETATM   20  O   UNL     1       7.025  -4.337  59.993  1.00  0.00    -0.353 OA
HETATM   21  C   UNL     1       8.365  -4.222  60.466  1.00  0.00     0.210 C 
ENDBRANCH  12  20
ENDBRANCH   1   7
TORSDOF 4
ENDMDL
MODEL 4
REMARK VINA RESULT:      -7.0      3.587      5.294
REMARK  4 active torsions:
REMARK  status: ('A' for Active; 'I' for Inactive)
REMARK    1  A    between atoms: O_1  and  C_5 
REMARK    2  A    between atoms: O_1  and  C_14 
REMARK    3  A    between atoms: O_2  and  C_18 
REMARK    4  A    between atoms: C_10  and  C_13 
ROOT
HETATM    1  O   UNL     1       4.694  -2.778  56.293  1.00  0.00    -0.343 OA
ENDROOT
BRANCH   1   2
HETATM    2  C   UNL     1       5.554  -3.889  56.508  1.00  0.00     0.129 C 
HETATM    3  C   UNL     1       4.758  -5.035  57.116  1.00  0.00     0.032 C 
HETATM    4  C   UNL     1       4.647  -4.680  58.598  1.00  0.00     0.002 C 
HETATM    5  C   UNL     1       5.794  -3.714  58.894  1.00  0.00     0.002 C 
HETATM    6  C   UNL     1       6.574  -3.568  57.589  1.00  0.00     0.032 C 
ENDBRANCH   1   2
BRANCH   1   7
HETATM    7  C   UNL     1       5.103  -1.850  55.372  1.00  0.00     0.103 A 
HETATM    8  C   UNL     1       5.181  -2.215  54.031  1.00  0.00     0.047 A 
HETATM    9  C   UNL     1       5.597  -1.280  53.084  1.00  0.00    -0.049 A 
HETATM   10  C   UNL     1       5.935   0.014  53.482  1.00  0.00     0.010 A 
HETATM   11  C   UNL     1       5.855   0.373  54.826  1.00  0.00     0.040 A 
HETATM   12  C   UNL     1       5.438  -0.562  55.775  1.00  0.00     0.101 A 
BRANCH   9  13
HETATM   13  C   UNL     1       5.683  -1.669  51.624  1.00  0.00     0.045 C 
HETATM   14  C   UNL     1       4.396  -1.509  50.814  1.00  0.00     0.132 C 
HETATM   15  N   UNL     1       4.854  -1.419  49.456  1.00  0.00    -0.360 N 
HETATM   16  C   UNL     1       6.188  -1.045  49.367  1.00  0.00     0.218 C 
HETATM   17  H   UNL     1       4.285  -1.603  48.674  1.00  0.00     0.162 HD
HETATM   18  O   UNL     1       6.835  -0.843  48.352  1.00  0.00    -0.274 OA
HETATM   19  C   UNL     1       6.696  -0.873  50.778  1.00  0.00     0.113 C 
ENDBRANCH   9  13
BRANCH  12  20
HETATM   20  O   UNL     1       5.365  -0.200  57.086  1.00  0.00    -0.353 OA
HETATM   21  C   UNL     1       4.816   1.083  57.374  1.00  0.00     0.210 C 
ENDBRANCH  12  20
ENDBRANCH   1   7
TORSDOF 4
ENDMDL
MODEL 5
REMARK VINA RESULT:      -6.9      2.808      5.910
REMARK  4 active torsions:
REMARK  status: ('A' for Active; 'I' for Inactive)
REMARK    1  A    between atoms: O_1  and  C_5 
REMARK    2  A    between atoms: O_1  and  C_14 
REMARK    3  A    between atoms: O_2  and  C_18 
REMARK    4  A    between atoms: C_10  and  C_13 
ROOT
HETATM    1  O   UNL     1       6.002  -2.177  57.003  1.00  0.00    -0.343 OA
ENDROOT
BRANCH   1   2
HETATM    2  C   UNL     1       5.018  -1.213  56.651  1.00  0.00     0.129 C 
HETATM    3  C   UNL     1       5.040  -0.995  55.146  1.00  0.00     0.032 C 
HETATM    4  C   UNL     1       6.221  -0.053  54.912  1.00  0.00     0.002 C 
HETATM    5  C   UNL     1       6.468   0.661  56.240  1.00  0.00     0.002 C 
HETATM    6  C   UNL     1       5.396   0.154  57.201  1.00  0.00     0.032 C 
ENDBRANCH   1   2
BRANCH   1   7
HETATM    7  C   UNL     1       5.551  -3.346  57.557  1.00  0.00     0.103 A 
HETATM    8  C   UNL     1       4.450  -3.983  56.991  1.00  0.00     0.047 A 
HETATM    9  C   UNL     1       3.980  -5.173  57.546  1.00  0.00    -0.049 A 
HETATM   10  C   UNL     1       4.610  -5.718  58.665  1.00  0.00     0.010 A 
HETATM   11  C   UNL     1       5.712  -5.075  59.227  1.00  0.00     0.040 A 
HETATM   12  C   UNL     1       6.184  -3.885  58.672  1.00  0.00     0.101 A 
BRANCH   9  13
HETATM   13  C   UNL     1       2.785  -5.872  56.935  1.00  0.00     0.045 C 
HETATM   14  C   UNL     1       2.958  -7.365  56.654  1.00  0.00     0.132 C 
HETATM   15  N   UNL     1       1.612  -7.862  56.604  1.00  0.00    -0.360 N 
HETATM   16  C   UNL     1       0.710  -7.027  57.249  1.00  0.00     0.218 C 
HETATM   17  H   UNL     1       1.356  -8.703  56.161  1.00  0.00     0.162 HD
HETATM   18  O   UNL     1      -0.486  -7.210  57.410  1.00  0.00    -0.274 OA
HETATM   19  C   UNL     1       1.495  -5.851  57.778  1.00  0.00     0.113 C 
ENDBRANCH   9  13
BRANCH  12  20
HETATM   20  O   UNL     1       7.260  -3.264  59.231  1.00  0.00    -0.353 OA
HETATM   21  C   UNL     1       8.008  -4.006  60.191  1.00  0.00     0.210 C 
ENDBRANCH  12  20
ENDBRANCH   1   7
TORSDOF 4
ENDMDL
MODEL 6
REMARK VINA RESULT:      -6.8      2.557      4.615
REMARK  4 active torsions:
REMARK  status: ('A' for Active; 'I' for Inactive)
REMARK    1  A    between atoms: O_1  and  C_5 
REMARK    2  A    between atoms: O_1  and  C_14 
REMARK    3  A    between atoms: O_2  and  C_18 
REMARK    4  A    between atoms: C_10  and  C_13 
ROOT
HETATM    1  O   UNL     1       6.164  -4.227  57.453  1.00  0.00    -0.343 OA
ENDROOT
BRANCH   1   2
HETATM    2  C   UNL     1       6.201  -3.234  58.469  1.00  0.00     0.129 C 
HETATM    3  C   UNL     1       7.615  -2.687  58.590  1.00  0.00     0.032 C 
HETATM    4  C   UNL     1       8.362  -3.733  59.416  1.00  0.00     0.002 C 
HETATM    5  C   UNL     1       7.296  -4.508  60.190  1.00  0.00     0.002 C 
HETATM    6  C   UNL     1       5.959  -3.862  59.833  1.00  0.00     0.032 C 
ENDBRANCH   1   2
BRANCH   1   7
HETATM    7  C   UNL     1       5.210  -4.079  56.480  1.00  0.00     0.103 A 
HETATM    8  C   UNL     1       5.373  -3.087  55.518  1.00  0.00     0.047 A 
HETATM    9  C   UNL     1       4.408  -2.926  54.523  1.00  0.00    -0.049 A 
HETATM   10  C   UNL     1       3.286  -3.754  54.497  1.00  0.00     0.010 A 
HETATM   11  C   UNL     1       3.129  -4.746  55.464  1.00  0.00     0.040 A 
HETATM   12  C   UNL     1       4.094  -4.909  56.460  1.00  0.00     0.101 A 
BRANCH   9  13
HETATM   13  C   UNL     1       4.579  -1.850  53.472  1.00  0.00     0.045 C 
HETATM   14  C   UNL     1       5.365  -0.612  53.906  1.00  0.00     0.132 C 
HETATM   15  N   UNL     1       5.825  -0.047  52.669  1.00  0.00    -0.360 N 
HETATM   16  C   UNL     1       5.834  -0.969  51.631  1.00  0.00     0.218 C 
HETATM   17  H   UNL     1       6.103   0.891  52.567  1.00  0.00     0.162 HD
HETATM   18  O   UNL     1       6.215  -0.794  50.485  1.00  0.00    -0.274 OA
HETATM   19  C   UNL     1       5.329  -2.276  52.195  1.00  0.00     0.113 C 
ENDBRANCH   9  13
BRANCH  12  20
HETATM   20  O   UNL     1       3.929  -5.880  57.401  1.00  0.00    -0.353 OA
HETATM   21  C   UNL     1       2.957  -5.640  58.416  1.00  0.00     0.210 C 
ENDBRANCH  12  20
ENDBRANCH   1   7
TORSDOF 4
ENDMDL
MODEL 7
REMARK VINA RESULT:      -6.8      3.019      6.021
REMARK  4 active torsions:
REMARK  status: ('A' for Active; 'I' for Inactive)
REMARK    1  A    between atoms: O_1  and  C_5 
REMARK    2  A    between atoms: O_1  and  C_14 
REMARK    3  A    between atoms: O_2  and  C_18 
REMARK    4  A    between atoms: C_10  and  C_13 
ROOT
HETATM    1  O   UNL     1       6.373  -2.894  55.201  1.00  0.00    -0.343 OA
ENDROOT
BRANCH   1   2
HETATM    2  C   UNL     1       5.305  -2.297  54.477  1.00  0.00     0.129 C 
HETATM    3  C   UNL     1       5.777  -1.951  53.073  1.00  0.00     0.032 C 
HETATM    4  C   UNL     1       6.554  -0.645  53.241  1.00  0.00     0.002 C 
HETATM    5  C   UNL     1       6.049  -0.012  54.537  1.00  0.00     0.002 C 
HETATM    6  C   UNL     1       4.958  -0.939  55.067  1.00  0.00     0.032 C 
ENDBRANCH   1   2
BRANCH   1   7
HETATM    7  C   UNL     1       6.047  -3.528  56.371  1.00  0.00     0.103 A 
HETATM    8  C   UNL     1       5.026  -4.474  56.367  1.00  0.00     0.047 A 
HETATM    9  C   UNL     1       4.684  -5.125  57.552  1.00  0.00    -0.049 A 
HETATM   10  C   UNL     1       5.362  -4.827  58.734  1.00  0.00     0.010 A 
HETATM   11  C   UNL     1       6.382  -3.877  58.731  1.00  0.00     0.040 A 
HETATM   12  C   UNL     1       6.726  -3.225  57.547  1.00  0.00     0.101 A 
BRANCH   9  13
HETATM   13  C   UNL     1       3.576  -6.157  57.555  1.00  0.00     0.045 C 
HETATM   14  C   UNL     1       2.222  -5.680  58.082  1.00  0.00     0.132 C 
HETATM   15  N   UNL     1       1.286  -6.602  57.504  1.00  0.00    -0.360 N 
HETATM   16  C   UNL     1       1.793  -7.247  56.385  1.00  0.00     0.218 C 
HETATM   17  H   UNL     1       0.382  -6.760  57.862  1.00  0.00     0.162 HD
HETATM   18  O   UNL     1       1.217  -8.044  55.662  1.00  0.00    -0.274 OA
HETATM   19  C   UNL     1       3.199  -6.738  56.179  1.00  0.00     0.113 C 
ENDBRANCH   9  13
BRANCH  12  20
HETATM   20  O   UNL     1       7.724  -2.298  57.556  1.00  0.00    -0.353 OA
HETATM   21  C   UNL     1       7.384  -0.985  57.993  1.00  0.00     0.210 C 
ENDBRANCH  12  20
ENDBRANCH   1   7
TORSDOF 4
ENDMDL
MODEL 8
REMARK VINA RESULT:      -6.6      3.375      6.483
REMARK  4 active torsions:
REMARK  status: ('A' for Active; 'I' for Inactive)
REMARK    1  A    between atoms: O_1  and  C_5 
REMARK    2  A    between atoms: O_1  and  C_14 
REMARK    3  A    between atoms: O_2  and  C_18 
REMARK    4  A    between atoms: C_10  and  C_13 
ROOT
HETATM    1  O   UNL     1       5.453  -3.344  53.374  1.00  0.00    -0.343 OA
ENDROOT
BRANCH   1   2
HETATM    2  C   UNL     1       4.729  -2.167  53.039  1.00  0.00     0.129 C 
HETATM    3  C   UNL     1       5.324  -1.548  51.783  1.00  0.00     0.032 C 
HETATM    4  C   UNL     1       6.559  -0.794  52.275  1.00  0.00     0.002 C 
HETATM    5  C   UNL     1       6.333  -0.528  53.763  1.00  0.00     0.002 C 
HETATM    6  C   UNL     1       4.951  -1.090  54.090  1.00  0.00     0.032 C 
ENDBRANCH   1   2
BRANCH   1   7
HETATM    7  C   UNL     1       5.030  -4.034  54.479  1.00  0.00     0.103 A 
HETATM    8  C   UNL     1       5.531  -3.685  55.730  1.00  0.00     0.047 A 
HETATM    9  C   UNL     1       5.109  -4.381  56.862  1.00  0.00    -0.049 A 
HETATM   10  C   UNL     1       4.190  -5.424  56.739  1.00  0.00     0.010 A 
HETATM   11  C   UNL     1       3.693  -5.769  55.483  1.00  0.00     0.040 A 
HETATM   12  C   UNL     1       4.114  -5.073  54.350  1.00  0.00     0.101 A 
BRANCH   9  13
HETATM   13  C   UNL     1       5.648  -4.006  58.226  1.00  0.00     0.045 C 
HETATM   14  C   UNL     1       5.693  -5.133  59.259  1.00  0.00     0.132 C 
HETATM   15  N   UNL     1       6.680  -4.691  60.204  1.00  0.00    -0.360 N 
HETATM   16  C   UNL     1       7.536  -3.736  59.675  1.00  0.00     0.218 C 
HETATM   17  H   UNL     1       6.742  -5.029  61.127  1.00  0.00     0.162 HD
HETATM   18  O   UNL     1       8.495  -3.214  60.222  1.00  0.00    -0.274 OA
HETATM   19  C   UNL     1       7.100  -3.488  58.251  1.00  0.00     0.113 C 
ENDBRANCH   9  13
BRANCH  12  20
HETATM   20  O   UNL     1       3.622  -5.420  53.128  1.00  0.00    -0.353 OA
HETATM   21  C   UNL     1       2.288  -5.015  52.828  1.00  0.00     0.210 C 
ENDBRANCH  12  20
ENDBRANCH   1   7
TORSDOF 4
ENDMDL
MODEL 9
REMARK VINA RESULT:      -6.6      3.077      6.074
REMARK  4 active torsions:
REMARK  status: ('A' for Active; 'I' for Inactive)
REMARK    1  A    between atoms: O_1  and  C_5 
REMARK    2  A    between atoms: O_1  and  C_14 
REMARK    3  A    between atoms: O_2  and  C_18 
REMARK    4  A    between atoms: C_10  and  C_13 
ROOT
HETATM    1  O   UNL     1       4.707  -2.472  57.540  1.00  0.00    -0.343 OA
ENDROOT
BRANCH   1   2
HETATM    2  C   UNL     1       5.676  -2.115  56.562  1.00  0.00     0.129 C 
HETATM    3  C   UNL     1       7.013  -1.866  57.243  1.00  0.00     0.032 C 
HETATM    4  C   UNL     1       6.895  -0.454  57.816  1.00  0.00     0.002 C 
HETATM    5  C   UNL     1       5.800   0.245  57.010  1.00  0.00     0.002 C 
HETATM    6  C   UNL     1       5.342  -0.760  55.956  1.00  0.00     0.032 C 
ENDBRANCH   1   2
BRANCH   1   7
HETATM    7  C   UNL     1       4.375  -3.798  57.623  1.00  0.00     0.103 A 
HETATM    8  C   UNL     1       3.702  -4.395  56.561  1.00  0.00     0.047 A 
HETATM    9  C   UNL     1       3.356  -5.745  56.634  1.00  0.00    -0.049 A 
HETATM   10  C   UNL     1       3.683  -6.489  57.767  1.00  0.00     0.010 A 
HETATM   11  C   UNL     1       4.357  -5.884  58.828  1.00  0.00     0.040 A 
HETATM   12  C   UNL     1       4.703  -4.535  58.756  1.00  0.00     0.101 A 
BRANCH   9  13
HETATM   13  C   UNL     1       2.626  -6.402  55.482  1.00  0.00     0.045 C 
HETATM   14  C   UNL     1       2.615  -5.620  54.167  1.00  0.00     0.132 C 
HETATM   15  N   UNL     1       2.366  -6.626  53.174  1.00  0.00    -0.360 N 
HETATM   16  C   UNL     1       2.679  -7.904  53.617  1.00  0.00     0.218 C 
HETATM   17  H   UNL     1       2.012  -6.432  52.275  1.00  0.00     0.162 HD
HETATM   18  O   UNL     1       2.617  -8.945  52.983  1.00  0.00    -0.274 OA
HETATM   19  C   UNL     1       3.174  -7.771  55.037  1.00  0.00     0.113 C 
ENDBRANCH   9  13
BRANCH  12  20
HETATM   20  O   UNL     1       5.360  -3.954  59.799  1.00  0.00    -0.353 OA
HETATM   21  C   UNL     1       6.736  -4.289  59.964  1.00  0.00     0.210 C 
ENDBRANCH  12  20
ENDBRANCH   1   7
TORSDOF 4
ENDMDL
