MODEL 1
REMARK VINA RESULT:      -7.5      0.000      0.000
REMARK  4 active torsions:
REMARK  status: ('A' for Active; 'I' for Inactive)
REMARK    1  A    between atoms: O_1  and  C_5 
REMARK    2  A    between atoms: O_1  and  C_14 
REMARK    3  A    between atoms: O_2  and  C_18 
REMARK    4  A    between atoms: C_10  and  C_13 
ROOT
HETATM    1  O   UNL     1       1.619  -9.928  56.206  1.00  0.00    -0.343 OA
ENDROOT
BRANCH   1   2
HETATM    2  C   UNL     1       1.577 -11.078  55.370  1.00  0.00     0.129 C 
HETATM    3  C   UNL     1       1.521 -10.642  53.914  1.00  0.00     0.032 C 
HETATM    4  C   UNL     1       0.057 -10.270  53.681  1.00  0.00     0.002 C 
HETATM    5  C   UNL     1      -0.746 -11.003  54.755  1.00  0.00     0.002 C 
HETATM    6  C   UNL     1       0.264 -11.821  55.557  1.00  0.00     0.032 C 
ENDBRANCH   1   2
BRANCH   1   7
HETATM    7  C   UNL     1       2.677  -9.075  56.029  1.00  0.00     0.103 A 
HETATM    8  C   UNL     1       2.547  -8.008  55.146  1.00  0.00     0.047 A 
HETATM    9  C   UNL     1       3.617  -7.134  54.956  1.00  0.00    -0.049 A 
HETATM   10  C   UNL     1       4.811  -7.331  55.650  1.00  0.00     0.010 A 
HETATM   11  C   UNL     1       4.935  -8.403  56.533  1.00  0.00     0.040 A 
HETATM   12  C   UNL     1       3.865  -9.278  56.724  1.00  0.00     0.101 A 
BRANCH   9  13
HETATM   13  C   UNL     1       3.482  -5.970  53.998  1.00  0.00     0.045 C 
HETATM   14  C   UNL     1       4.383  -4.767  54.279  1.00  0.00     0.132 C 
HETATM   15  N   UNL     1       4.459  -4.093  53.014  1.00  0.00    -0.360 N 
HETATM   16  C   UNL     1       4.141  -4.922  51.947  1.00  0.00     0.218 C 
HETATM   17  H   UNL     1       4.710  -3.146  52.913  1.00  0.00     0.162 HD
HETATM   18  O   UNL     1       4.164  -4.645  50.759  1.00  0.00    -0.274 OA
HETATM   19  C   UNL     1       3.807  -6.277  52.523  1.00  0.00     0.113 C 
ENDBRANCH   9  13
BRANCH  12  20
HETATM   20  O   UNL     1       3.998 -10.322  57.588  1.00  0.00    -0.353 OA
HETATM   21  C   UNL     1       5.214 -10.398  58.329  1.00  0.00     0.210 C 
ENDBRANCH  12  20
ENDBRANCH   1   7
TORSDOF 4
ENDMDL
MODEL 2
REMARK VINA RESULT:      -7.5      3.033      6.070
REMARK  4 active torsions:
REMARK  status: ('A' for Active; 'I' for Inactive)
REMARK    1  A    between atoms: O_1  and  C_5 
REMARK    2  A    between atoms: O_1  and  C_14 
REMARK    3  A    between atoms: O_2  and  C_18 
REMARK    4  A    between atoms: C_10  and  C_13 
ROOT
HETATM    1  O   UNL     1       3.915  -7.600  54.227  1.00  0.00    -0.343 OA
ENDROOT
BRANCH   1   2
HETATM    2  C   UNL     1       3.086  -6.482  53.933  1.00  0.00     0.129 C 
HETATM    3  C   UNL     1       3.941  -5.351  53.381  1.00  0.00     0.032 C 
HETATM    4  C   UNL     1       4.574  -4.711  54.616  1.00  0.00     0.002 C 
HETATM    5  C   UNL     1       3.679  -5.084  55.798  1.00  0.00     0.002 C 
HETATM    6  C   UNL     1       2.521  -5.891  55.215  1.00  0.00     0.032 C 
ENDBRANCH   1   2
BRANCH   1   7
HETATM    7  C   UNL     1       3.284  -8.741  54.648  1.00  0.00     0.103 A 
HETATM    8  C   UNL     1       2.300  -9.307  53.843  1.00  0.00     0.047 A 
HETATM    9  C   UNL     1       1.650 -10.468  54.262  1.00  0.00    -0.049 A 
HETATM   10  C   UNL     1       1.986 -11.056  55.481  1.00  0.00     0.010 A 
HETATM   11  C   UNL     1       2.972 -10.483  56.282  1.00  0.00     0.040 A 
HETATM   12  C   UNL     1       3.624  -9.322  55.865  1.00  0.00     0.101 A 
BRANCH   9  13
HETATM   13  C   UNL     1       0.579 -11.091  53.392  1.00  0.00     0.045 C 
HETATM   14  C   UNL     1       0.673 -12.605  53.198  1.00  0.00     0.132 C 
HETATM   15  N   UNL     1      -0.661 -12.987  52.830  1.00  0.00    -0.360 N 
HETATM   16  C   UNL     1      -1.609 -12.048  53.211  1.00  0.00     0.218 C 
HETATM   17  H   UNL     1      -0.879 -13.823  52.358  1.00  0.00     0.162 HD
HETATM   18  O   UNL     1      -2.820 -12.120  53.076  1.00  0.00    -0.274 OA
HETATM   19  C   UNL     1      -0.869 -10.920  53.888  1.00  0.00     0.113 C 
ENDBRANCH   9  13
BRANCH  12  20
HETATM   20  O   UNL     1       4.585  -8.770  56.657  1.00  0.00    -0.353 OA
HETATM   21  C   UNL     1       5.169  -9.612  57.648  1.00  0.00     0.210 C 
ENDBRANCH  12  20
ENDBRANCH   1   7
TORSDOF 4
ENDMDL
MODEL 3
REMARK VINA RESULT:      -7.2      2.973      5.819
REMARK  4 active torsions:
REMARK  status: ('A' for Active; 'I' for Inactive)
REMARK    1  A    between atoms: O_1  and  C_5 
REMARK    2  A    between atoms: O_1  and  C_14 
REMARK    3  A    between atoms: O_2  and  C_18 
REMARK    4  A    between atoms: C_10  and  C_13 
ROOT
HETATM    1  O   UNL     1       3.731  -8.026  54.233  1.00  0.00    -0.343 OA
ENDROOT
BRANCH   1   2
HETATM    2  C   UNL     1       2.874  -6.897  54.126  1.00  0.00     0.129 C 
HETATM    3  C   UNL     1       3.549  -5.828  53.279  1.00  0.00     0.032 C 
HETATM    4  C   UNL     1       4.529  -5.145  54.233  1.00  0.00     0.002 C 
HETATM    5  C   UNL     1       4.013  -5.422  55.645  1.00  0.00     0.002 C 
HETATM    6  C   UNL     1       2.720  -6.217  55.477  1.00  0.00     0.032 C 
ENDBRANCH   1   2
BRANCH   1   7
HETATM    7  C   UNL     1       3.217  -9.134  54.852  1.00  0.00     0.103 A 
HETATM    8  C   UNL     1       2.174  -9.827  54.244  1.00  0.00     0.047 A 
HETATM    9  C   UNL     1       1.640 -10.957  54.865  1.00  0.00    -0.049 A 
HETATM   10  C   UNL     1       2.151 -11.387  56.090  1.00  0.00     0.010 A 
HETATM   11  C   UNL     1       3.195 -10.687  56.694  1.00  0.00     0.040 A 
HETATM   12  C   UNL     1       3.730  -9.558  56.074  1.00  0.00     0.101 A 
BRANCH   9  13
HETATM   13  C   UNL     1       0.507 -11.716  54.209  1.00  0.00     0.045 C 
HETATM   14  C   UNL     1      -0.837 -10.989  54.150  1.00  0.00     0.132 C 
HETATM   15  N   UNL     1      -1.532 -11.640  53.076  1.00  0.00    -0.360 N 
HETATM   16  C   UNL     1      -0.674 -12.303  52.209  1.00  0.00     0.218 C 
HETATM   17  H   UNL     1      -2.510 -11.618  52.965  1.00  0.00     0.162 HD
HETATM   18  O   UNL     1      -0.968 -12.902  51.188  1.00  0.00    -0.274 OA
HETATM   19  C   UNL     1       0.728 -12.103  52.734  1.00  0.00     0.113 C 
ENDBRANCH   9  13
BRANCH  12  20
HETATM   20  O   UNL     1       4.749  -8.882  56.674  1.00  0.00    -0.353 OA
HETATM   21  C   UNL     1       5.445  -9.556  57.719  1.00  0.00     0.210 C 
ENDBRANCH  12  20
ENDBRANCH   1   7
TORSDOF 4
ENDMDL
MODEL 4
REMARK VINA RESULT:      -7.0      1.703      3.999
REMARK  4 active torsions:
REMARK  status: ('A' for Active; 'I' for Inactive)
REMARK    1  A    between atoms: O_1  and  C_5 
REMARK    2  A    between atoms: O_1  and  C_14 
REMARK    3  A    between atoms: O_2  and  C_18 
REMARK    4  A    between atoms: C_10  and  C_13 
ROOT
HETATM    1  O   UNL     1       3.651  -9.633  55.080  1.00  0.00    -0.343 OA
ENDROOT
BRANCH   1   2
HETATM    2  C   UNL     1       3.564  -8.909  56.300  1.00  0.00     0.129 C 
HETATM    3  C   UNL     1       4.933  -8.349  56.655  1.00  0.00     0.032 C 
HETATM    4  C   UNL     1       5.683  -9.531  57.269  1.00  0.00     0.002 C 
HETATM    5  C   UNL     1       4.614 -10.509  57.755  1.00  0.00     0.002 C 
HETATM    6  C   UNL     1       3.269  -9.852  57.456  1.00  0.00     0.032 C 
ENDBRANCH   1   2
BRANCH   1   7
HETATM    7  C   UNL     1       2.865  -9.196  54.046  1.00  0.00     0.103 A 
HETATM    8  C   UNL     1       3.171  -7.987  53.427  1.00  0.00     0.047 A 
HETATM    9  C   UNL     1       2.378  -7.531  52.374  1.00  0.00    -0.049 A 
HETATM   10  C   UNL     1       1.284  -8.284  51.946  1.00  0.00     0.010 A 
HETATM   11  C   UNL     1       0.984  -9.493  52.571  1.00  0.00     0.040 A 
HETATM   12  C   UNL     1       1.776  -9.951  53.624  1.00  0.00     0.101 A 
BRANCH   9  13
HETATM   13  C   UNL     1       2.704  -6.218  51.695  1.00  0.00     0.045 C 
HETATM   14  C   UNL     1       3.820  -5.394  52.339  1.00  0.00     0.132 C 
HETATM   15  N   UNL     1       4.275  -4.544  51.275  1.00  0.00    -0.360 N 
HETATM   16  C   UNL     1       3.941  -5.033  50.020  1.00  0.00     0.218 C 
HETATM   17  H   UNL     1       4.770  -3.705  51.420  1.00  0.00     0.162 HD
HETATM   18  O   UNL     1       4.232  -4.556  48.936  1.00  0.00    -0.274 OA
HETATM   19  C   UNL     1       3.183  -6.322  50.234  1.00  0.00     0.113 C 
ENDBRANCH   9  13
BRANCH  12  20
HETATM   20  O   UNL     1       1.472 -11.134  54.228  1.00  0.00    -0.353 OA
HETATM   21  C   UNL     1       0.771 -12.098  53.446  1.00  0.00     0.210 C 
ENDBRANCH  12  20
ENDBRANCH   1   7
TORSDOF 4
ENDMDL
MODEL 5
REMARK VINA RESULT:      -6.7      3.179      6.248
REMARK  4 active torsions:
REMARK  status: ('A' for Active; 'I' for Inactive)
REMARK    1  A    between atoms: O_1  and  C_5 
REMARK    2  A    between atoms: O_1  and  C_14 
REMARK    3  A    between atoms: O_2  and  C_18 
REMARK    4  A    between atoms: C_10  and  C_13 
ROOT
HETATM    1  O   UNL     1       3.974  -8.899  54.739  1.00  0.00    -0.343 OA
ENDROOT
BRANCH   1   2
HETATM    2  C   UNL     1       3.676  -8.371  56.025  1.00  0.00     0.129 C 
HETATM    3  C   UNL     1       4.973  -8.128  56.783  1.00  0.00     0.032 C 
HETATM    4  C   UNL     1       5.373  -9.506  57.308  1.00  0.00     0.002 C 
HETATM    5  C   UNL     1       4.094 -10.341  57.338  1.00  0.00     0.002 C 
HETATM    6  C   UNL     1       2.971  -9.415  56.876  1.00  0.00     0.032 C 
ENDBRANCH   1   2
BRANCH   1   7
HETATM    7  C   UNL     1       3.011  -8.755  53.775  1.00  0.00     0.103 A 
HETATM    8  C   UNL     1       2.133  -9.808  53.532  1.00  0.00     0.047 A 
HETATM    9  C   UNL     1       1.149  -9.674  52.553  1.00  0.00    -0.049 A 
HETATM   10  C   UNL     1       1.048  -8.491  51.820  1.00  0.00     0.010 A 
HETATM   11  C   UNL     1       1.932  -7.441  52.068  1.00  0.00     0.040 A 
HETATM   12  C   UNL     1       2.916  -7.573  53.048  1.00  0.00     0.101 A 
BRANCH   9  13
HETATM   13  C   UNL     1       0.189 -10.814  52.284  1.00  0.00     0.045 C 
HETATM   14  C   UNL     1       0.571 -12.164  52.893  1.00  0.00     0.132 C 
HETATM   15  N   UNL     1      -0.676 -12.874  52.959  1.00  0.00    -0.360 N 
HETATM   16  C   UNL     1      -1.775 -12.027  52.922  1.00  0.00     0.218 C 
HETATM   17  H   UNL     1      -0.744 -13.854  53.024  1.00  0.00     0.162 HD
HETATM   18  O   UNL     1      -2.953 -12.336  53.008  1.00  0.00    -0.274 OA
HETATM   19  C   UNL     1      -1.246 -10.618  52.810  1.00  0.00     0.113 C 
ENDBRANCH   9  13
BRANCH  12  20
HETATM   20  O   UNL     1       3.774  -6.541  53.280  1.00  0.00    -0.353 OA
HETATM   21  C   UNL     1       3.241  -5.390  53.930  1.00  0.00     0.210 C 
ENDBRANCH  12  20
ENDBRANCH   1   7
TORSDOF 4
ENDMDL
MODEL 6
REMARK VINA RESULT:      -6.7      3.095      6.585
REMARK  4 active torsions:
REMARK  status: ('A' for Active; 'I' for Inactive)
REMARK    1  A    between atoms: O_1  and  C_5 
REMARK    2  A    between atoms: O_1  and  C_14 
REMARK    3  A    between atoms: O_2  and  C_18 
REMARK    4  A    between atoms: C_10  and  C_13 
ROOT
HETATM    1  O   UNL     1       3.422  -7.531  50.982  1.00  0.00    -0.343 OA
ENDROOT
BRANCH   1   2
HETATM    2  C   UNL     1       2.956  -6.197  51.141  1.00  0.00     0.129 C 
HETATM    3  C   UNL     1       1.775  -5.960  50.212  1.00  0.00     0.032 C 
HETATM    4  C   UNL     1       2.409  -5.704  48.845  1.00  0.00     0.002 C 
HETATM    5  C   UNL     1       3.843  -5.252  49.116  1.00  0.00     0.002 C 
HETATM    6  C   UNL     1       3.995  -5.209  50.635  1.00  0.00     0.032 C 
ENDBRANCH   1   2
BRANCH   1   7
HETATM    7  C   UNL     1       2.886  -8.475  51.817  1.00  0.00     0.103 A 
HETATM    8  C   UNL     1       3.190  -8.429  53.175  1.00  0.00     0.047 A 
HETATM    9  C   UNL     1       2.651  -9.386  54.036  1.00  0.00    -0.049 A 
HETATM   10  C   UNL     1       1.815 -10.383  53.535  1.00  0.00     0.010 A 
HETATM   11  C   UNL     1       1.516 -10.424  52.174  1.00  0.00     0.040 A 
HETATM   12  C   UNL     1       2.053  -9.468  51.312  1.00  0.00     0.101 A 
BRANCH   9  13
HETATM   13  C   UNL     1       2.976  -9.341  55.513  1.00  0.00     0.045 C 
HETATM   14  C   UNL     1       2.815 -10.659  56.272  1.00  0.00     0.132 C 
HETATM   15  N   UNL     1       3.650 -10.493  57.428  1.00  0.00    -0.360 N 
HETATM   16  C   UNL     1       4.612  -9.508  57.255  1.00  0.00     0.218 C 
HETATM   17  H   UNL     1       3.551 -11.020  58.254  1.00  0.00     0.162 HD
HETATM   18  O   UNL     1       5.486  -9.178  58.040  1.00  0.00    -0.274 OA
HETATM   19  C   UNL     1       4.420  -8.939  55.869  1.00  0.00     0.113 C 
ENDBRANCH   9  13
BRANCH  12  20
HETATM   20  O   UNL     1       1.755  -9.518  49.984  1.00  0.00    -0.353 OA
HETATM   21  C   UNL     1       2.199 -10.666  49.264  1.00  0.00     0.210 C 
ENDBRANCH  12  20
ENDBRANCH   1   7
TORSDOF 4
ENDMDL
MODEL 7
REMARK VINA RESULT:      -6.7      3.209      5.759
REMARK  4 active torsions:
REMARK  status: ('A' for Active; 'I' for Inactive)
REMARK    1  A    between atoms: O_1  and  C_5 
REMARK    2  A    between atoms: O_1  and  C_14 
REMARK    3  A    between atoms: O_2  and  C_18 
REMARK    4  A    between atoms: C_10  and  C_13 
ROOT
HETATM    1  O   UNL     1       2.175  -7.826  55.341  1.00  0.00    -0.343 OA
ENDROOT
BRANCH   1   2
HETATM    2  C   UNL     1       3.319  -7.301  54.680  1.00  0.00     0.129 C 
HETATM    3  C   UNL     1       4.398  -6.992  55.707  1.00  0.00     0.032 C 
HETATM    4  C   UNL     1       3.982  -5.651  56.310  1.00  0.00     0.002 C 
HETATM    5  C   UNL     1       3.065  -4.987  55.283  1.00  0.00     0.002 C 
HETATM    6  C   UNL     1       3.009  -5.935  54.087  1.00  0.00     0.032 C 
ENDBRANCH   1   2
BRANCH   1   7
HETATM    7  C   UNL     1       1.848  -9.128  55.069  1.00  0.00     0.103 A 
HETATM    8  C   UNL     1       1.284  -9.441  53.836  1.00  0.00     0.047 A 
HETATM    9  C   UNL     1       0.946 -10.764  53.547  1.00  0.00    -0.049 A 
HETATM   10  C   UNL     1       1.172 -11.765  54.492  1.00  0.00     0.010 A 
HETATM   11  C   UNL     1       1.737 -11.443  55.725  1.00  0.00     0.040 A 
HETATM   12  C   UNL     1       2.076 -10.121  56.015  1.00  0.00     0.101 A 
BRANCH   9  13
HETATM   13  C   UNL     1       0.333 -11.112  52.207  1.00  0.00     0.045 C 
HETATM   14  C   UNL     1      -0.857 -12.072  52.248  1.00  0.00     0.132 C 
HETATM   15  N   UNL     1      -1.543 -11.818  51.013  1.00  0.00    -0.360 N 
HETATM   16  C   UNL     1      -1.229 -10.579  50.472  1.00  0.00     0.218 C 
HETATM   17  H   UNL     1      -2.168 -12.454  50.595  1.00  0.00     0.162 HD
HETATM   18  O   UNL     1      -1.690 -10.073  49.462  1.00  0.00    -0.274 OA
HETATM   19  C   UNL     1      -0.237  -9.927  51.404  1.00  0.00     0.113 C 
ENDBRANCH   9  13
BRANCH  12  20
HETATM   20  O   UNL     1       2.626  -9.819  57.224  1.00  0.00    -0.353 OA
HETATM   21  C   UNL     1       3.961 -10.264  57.457  1.00  0.00     0.210 C 
ENDBRANCH  12  20
ENDBRANCH   1   7
TORSDOF 4
ENDMDL
MODEL 8
REMARK VINA RESULT:      -6.6      3.080      6.053
REMARK  4 active torsions:
REMARK  status: ('A' for Active; 'I' for Inactive)
REMARK    1  A    between atoms: O_1  and  C_5 
REMARK    2  A    between atoms: O_1  and  C_14 
REMARK    3  A    between atoms: O_2  and  C_18 
REMARK    4  A    between atoms: C_10  and  C_13 
ROOT
HETATM    1  O   UNL     1       3.589  -7.807  53.005  1.00  0.00    -0.343 OA
ENDROOT
BRANCH   1   2
HETATM    2  C   UNL     1       2.883  -6.573  52.984  1.00  0.00     0.129 C 
HETATM    3  C   UNL     1       1.960  -6.540  51.775  1.00  0.00     0.032 C 
HETATM    4  C   UNL     1       2.873  -6.176  50.605  1.00  0.00     0.002 C 
HETATM    5  C   UNL     1       4.093  -5.485  51.213  1.00  0.00     0.002 C 
HETATM    6  C   UNL     1       3.839  -5.421  52.718  1.00  0.00     0.032 C 
ENDBRANCH   1   2
BRANCH   1   7
HETATM    7  C   UNL     1       3.221  -8.712  53.965  1.00  0.00     0.103 A 
HETATM    8  C   UNL     1       2.134  -9.548  53.726  1.00  0.00     0.047 A 
HETATM    9  C   UNL     1       1.748 -10.473  54.697  1.00  0.00    -0.049 A 
HETATM   10  C   UNL     1       2.450 -10.557  55.899  1.00  0.00     0.010 A 
HETATM   11  C   UNL     1       3.537  -9.716  56.132  1.00  0.00     0.040 A 
HETATM   12  C   UNL     1       3.924  -8.791  55.162  1.00  0.00     0.101 A 
BRANCH   9  13
HETATM   13  C   UNL     1       0.568 -11.387  54.444  1.00  0.00     0.045 C 
HETATM   14  C   UNL     1      -0.811 -10.730  54.521  1.00  0.00     0.132 C 
HETATM   15  N   UNL     1      -1.651 -11.609  53.757  1.00  0.00    -0.360 N 
HETATM   16  C   UNL     1      -0.931 -12.406  52.878  1.00  0.00     0.218 C 
HETATM   17  H   UNL     1      -2.631 -11.642  53.845  1.00  0.00     0.162 HD
HETATM   18  O   UNL     1      -1.373 -13.210  52.073  1.00  0.00    -0.274 OA
HETATM   19  C   UNL     1       0.527 -12.059  53.058  1.00  0.00     0.113 C 
ENDBRANCH   9  13
BRANCH  12  20
HETATM   20  O   UNL     1       4.988  -7.974  55.401  1.00  0.00    -0.353 OA
HETATM   21  C   UNL     1       4.767  -6.859  56.262  1.00  0.00     0.210 C 
ENDBRANCH  12  20
ENDBRANCH   1   7
TORSDOF 4
ENDMDL
MODEL 9
REMARK VINA RESULT:      -6.6      3.426      5.738
REMARK  4 active torsions:
REMARK  status: ('A' for Active; 'I' for Inactive)
REMARK    1  A    between atoms: O_1  and  C_5 
REMARK    2  A    between atoms: O_1  and  C_14 
REMARK    3  A    between atoms: O_2  and  C_18 
REMARK    4  A    between atoms: C_10  and  C_13 
ROOT
HETATM    1  O   UNL     1       1.153 -10.126  51.422  1.00  0.00    -0.343 OA
ENDROOT
BRANCH   1   2
HETATM    2  C   UNL     1       2.388  -9.934  50.744  1.00  0.00     0.129 C 
HETATM    3  C   UNL     1       2.271  -8.738  49.810  1.00  0.00     0.032 C 
HETATM    4  C   UNL     1       1.541  -9.281  48.582  1.00  0.00     0.002 C 
HETATM    5  C   UNL     1       1.762 -10.793  48.587  1.00  0.00     0.002 C 
HETATM    6  C   UNL     1       2.654 -11.089  49.790  1.00  0.00     0.032 C 
ENDBRANCH   1   2
BRANCH   1   7
HETATM    7  C   UNL     1       1.222 -10.602  52.705  1.00  0.00     0.103 A 
HETATM    8  C   UNL     1       1.966  -9.901  53.649  1.00  0.00     0.047 A 
HETATM    9  C   UNL     1       2.044 -10.376  54.958  1.00  0.00    -0.049 A 
HETATM   10  C   UNL     1       1.380 -11.550  55.316  1.00  0.00     0.010 A 
HETATM   11  C   UNL     1       0.638 -12.248  54.365  1.00  0.00     0.040 A 
HETATM   12  C   UNL     1       0.558 -11.773  53.055  1.00  0.00     0.101 A 
BRANCH   9  13
HETATM   13  C   UNL     1       2.850  -9.617  55.991  1.00  0.00     0.045 C 
HETATM   14  C   UNL     1       3.581 -10.473  57.026  1.00  0.00     0.132 C 
HETATM   15  N   UNL     1       4.628  -9.614  57.502  1.00  0.00    -0.360 N 
HETATM   16  C   UNL     1       4.919  -8.585  56.616  1.00  0.00     0.218 C 
HETATM   17  H   UNL     1       5.091  -9.741  58.362  1.00  0.00     0.162 HD
HETATM   18  O   UNL     1       5.786  -7.734  56.727  1.00  0.00    -0.274 OA
HETATM   19  C   UNL     1       3.989  -8.739  55.438  1.00  0.00     0.113 C 
ENDBRANCH   9  13
BRANCH  12  20
HETATM   20  O   UNL     1      -0.170 -12.465  52.134  1.00  0.00    -0.353 OA
HETATM   21  C   UNL     1      -1.561 -12.627  52.398  1.00  0.00     0.210 C 
ENDBRANCH  12  20
ENDBRANCH   1   7
TORSDOF 4
ENDMDL
