MODEL 1
REMARK VINA RESULT:      -7.6      0.000      0.000
REMARK  4 active torsions:
REMARK  status: ('A' for Active; 'I' for Inactive)
REMARK    1  A    between atoms: O_1  and  C_5 
REMARK    2  A    between atoms: O_1  and  C_14 
REMARK    3  A    between atoms: O_2  and  C_18 
REMARK    4  A    between atoms: C_10  and  C_13 
ROOT
HETATM    1  O   UNL     1       4.611  -4.392  59.301  1.00  0.00    -0.343 OA
ENDROOT
BRANCH   1   2
HETATM    2  C   UNL     1       4.479  -5.632  58.619  1.00  0.00     0.129 C 
HETATM    3  C   UNL     1       4.245  -5.372  57.139  1.00  0.00     0.032 C 
HETATM    4  C   UNL     1       2.760  -5.022  57.041  1.00  0.00     0.002 C 
HETATM    5  C   UNL     1       2.098  -5.617  58.284  1.00  0.00     0.002 C 
HETATM    6  C   UNL     1       3.204  -6.340  59.050  1.00  0.00     0.032 C 
ENDBRANCH   1   2
BRANCH   1   7
HETATM    7  C   UNL     1       5.622  -3.565  58.887  1.00  0.00     0.103 A 
HETATM    8  C   UNL     1       5.320  -2.493  58.052  1.00  0.00     0.047 A 
HETATM    9  C   UNL     1       6.341  -1.644  57.622  1.00  0.00    -0.049 A 
HETATM   10  C   UNL     1       7.656  -1.872  58.027  1.00  0.00     0.010 A 
HETATM   11  C   UNL     1       7.951  -2.948  58.863  1.00  0.00     0.040 A 
HETATM   12  C   UNL     1       6.931  -3.798  59.294  1.00  0.00     0.101 A 
BRANCH   9  13
HETATM   13  C   UNL     1       6.020  -0.476  56.715  1.00  0.00     0.045 C 
HETATM   14  C   UNL     1       5.345  -0.827  55.388  1.00  0.00     0.132 C 
HETATM   15  N   UNL     1       4.698   0.395  55.000  1.00  0.00    -0.360 N 
HETATM   16  C   UNL     1       4.495   1.255  56.070  1.00  0.00     0.218 C 
HETATM   17  H   UNL     1       4.427   0.600  54.076  1.00  0.00     0.162 HD
HETATM   18  O   UNL     1       3.931   2.337  56.056  1.00  0.00    -0.274 OA
HETATM   19  C   UNL     1       5.058   0.578  57.296  1.00  0.00     0.113 C 
ENDBRANCH   9  13
BRANCH  12  20
HETATM   20  O   UNL     1       7.232  -4.846  60.110  1.00  0.00    -0.353 OA
HETATM   21  C   UNL     1       8.454  -4.770  60.839  1.00  0.00     0.210 C 
ENDBRANCH  12  20
ENDBRANCH   1   7
TORSDOF 4
ENDMDL
MODEL 2
REMARK VINA RESULT:      -7.1      1.583      1.925
REMARK  4 active torsions:
REMARK  status: ('A' for Active; 'I' for Inactive)
REMARK    1  A    between atoms: O_1  and  C_5 
REMARK    2  A    between atoms: O_1  and  C_14 
REMARK    3  A    between atoms: O_2  and  C_18 
REMARK    4  A    between atoms: C_10  and  C_13 
ROOT
HETATM    1  O   UNL     1       4.408  -4.297  59.086  1.00  0.00    -0.343 OA
ENDROOT
BRANCH   1   2
HETATM    2  C   UNL     1       4.212  -5.638  58.658  1.00  0.00     0.129 C 
HETATM    3  C   UNL     1       3.915  -5.653  57.165  1.00  0.00     0.032 C 
HETATM    4  C   UNL     1       2.437  -5.276  57.065  1.00  0.00     0.002 C 
HETATM    5  C   UNL     1       1.819  -5.604  58.424  1.00  0.00     0.002 C 
HETATM    6  C   UNL     1       2.940  -6.208  59.266  1.00  0.00     0.032 C 
ENDBRANCH   1   2
BRANCH   1   7
HETATM    7  C   UNL     1       5.385  -3.581  58.445  1.00  0.00     0.103 A 
HETATM    8  C   UNL     1       5.046  -2.824  57.327  1.00  0.00     0.047 A 
HETATM    9  C   UNL     1       6.031  -2.092  56.665  1.00  0.00    -0.049 A 
HETATM   10  C   UNL     1       7.349  -2.122  57.121  1.00  0.00     0.010 A 
HETATM   11  C   UNL     1       7.682  -2.884  58.240  1.00  0.00     0.040 A 
HETATM   12  C   UNL     1       6.697  -3.616  58.904  1.00  0.00     0.101 A 
BRANCH   9  13
HETATM   13  C   UNL     1       5.670  -1.264  55.450  1.00  0.00     0.045 C 
HETATM   14  C   UNL     1       6.171   0.181  55.455  1.00  0.00     0.132 C 
HETATM   15  N   UNL     1       6.176   0.546  54.066  1.00  0.00    -0.360 N 
HETATM   16  C   UNL     1       6.203  -0.557  53.224  1.00  0.00     0.218 C 
HETATM   17  H   UNL     1       6.163   1.476  53.746  1.00  0.00     0.162 HD
HETATM   18  O   UNL     1       6.260  -0.559  52.005  1.00  0.00    -0.274 OA
HETATM   19  C   UNL     1       6.205  -1.785  54.102  1.00  0.00     0.113 C 
ENDBRANCH   9  13
BRANCH  12  20
HETATM   20  O   UNL     1       7.034  -4.357  59.996  1.00  0.00    -0.353 OA
HETATM   21  C   UNL     1       8.355  -4.193  60.508  1.00  0.00     0.210 C 
ENDBRANCH  12  20
ENDBRANCH   1   7
TORSDOF 4
ENDMDL
MODEL 3
REMARK VINA RESULT:      -7.1      2.030      2.569
REMARK  4 active torsions:
REMARK  status: ('A' for Active; 'I' for Inactive)
REMARK    1  A    between atoms: O_1  and  C_5 
REMARK    2  A    between atoms: O_1  and  C_14 
REMARK    3  A    between atoms: O_2  and  C_18 
REMARK    4  A    between atoms: C_10  and  C_13 
ROOT
HETATM    1  O   UNL     1       5.192  -5.075  57.800  1.00  0.00    -0.343 OA
ENDROOT
BRANCH   1   2
HETATM    2  C   UNL     1       3.859  -5.066  58.292  1.00  0.00     0.129 C 
HETATM    3  C   UNL     1       3.515  -6.441  58.844  1.00  0.00     0.032 C 
HETATM    4  C   UNL     1       3.182  -7.278  57.609  1.00  0.00     0.002 C 
HETATM    5  C   UNL     1       2.800  -6.286  56.511  1.00  0.00     0.002 C 
HETATM    6  C   UNL     1       2.872  -4.899  57.146  1.00  0.00     0.032 C 
ENDBRANCH   1   2
BRANCH   1   7
HETATM    7  C   UNL     1       5.748  -3.858  57.501  1.00  0.00     0.103 A 
HETATM    8  C   UNL     1       5.414  -3.238  56.301  1.00  0.00     0.047 A 
HETATM    9  C   UNL     1       5.974  -1.999  55.985  1.00  0.00    -0.049 A 
HETATM   10  C   UNL     1       6.865  -1.390  56.868  1.00  0.00     0.010 A 
HETATM   11  C   UNL     1       7.195  -2.018  58.068  1.00  0.00     0.040 A 
HETATM   12  C   UNL     1       6.636  -3.256  58.386  1.00  0.00     0.101 A 
BRANCH   9  13
HETATM   13  C   UNL     1       5.614  -1.317  54.683  1.00  0.00     0.045 C 
HETATM   14  C   UNL     1       5.795   0.201  54.653  1.00  0.00     0.132 C 
HETATM   15  N   UNL     1       5.911   0.504  53.254  1.00  0.00    -0.360 N 
HETATM   16  C   UNL     1       6.282  -0.598  52.498  1.00  0.00     0.218 C 
HETATM   17  H   UNL     1       5.746   1.397  52.873  1.00  0.00     0.162 HD
HETATM   18  O   UNL     1       6.503  -0.635  51.298  1.00  0.00    -0.274 OA
HETATM   19  C   UNL     1       6.424  -1.762  53.449  1.00  0.00     0.113 C 
ENDBRANCH   9  13
BRANCH  12  20
HETATM   20  O   UNL     1       6.967  -3.861  59.561  1.00  0.00    -0.353 OA
HETATM   21  C   UNL     1       8.339  -3.815  59.948  1.00  0.00     0.210 C 
ENDBRANCH  12  20
ENDBRANCH   1   7
TORSDOF 4
ENDMDL
MODEL 4
REMARK VINA RESULT:      -6.8      3.426      5.178
REMARK  4 active torsions:
REMARK  status: ('A' for Active; 'I' for Inactive)
REMARK    1  A    between atoms: O_1  and  C_5 
REMARK    2  A    between atoms: O_1  and  C_14 
REMARK    3  A    between atoms: O_2  and  C_18 
REMARK    4  A    between atoms: C_10  and  C_13 
ROOT
HETATM    1  O   UNL     1       4.997  -2.553  56.745  1.00  0.00    -0.343 OA
ENDROOT
BRANCH   1   2
HETATM    2  C   UNL     1       5.821  -3.707  56.849  1.00  0.00     0.129 C 
HETATM    3  C   UNL     1       4.958  -4.916  57.181  1.00  0.00     0.032 C 
HETATM    4  C   UNL     1       4.709  -4.809  58.684  1.00  0.00     0.002 C 
HETATM    5  C   UNL     1       5.833  -3.937  59.243  1.00  0.00     0.002 C 
HETATM    6  C   UNL     1       6.736  -3.597  58.059  1.00  0.00     0.032 C 
ENDBRANCH   1   2
BRANCH   1   7
HETATM    7  C   UNL     1       5.271  -1.690  55.717  1.00  0.00     0.103 A 
HETATM    8  C   UNL     1       5.280  -2.173  54.411  1.00  0.00     0.047 A 
HETATM    9  C   UNL     1       5.559  -1.304  53.356  1.00  0.00    -0.049 A 
HETATM   10  C   UNL     1       5.829   0.040  53.611  1.00  0.00     0.010 A 
HETATM   11  C   UNL     1       5.820   0.516  54.921  1.00  0.00     0.040 A 
HETATM   12  C   UNL     1       5.540  -0.351  55.978  1.00  0.00     0.101 A 
BRANCH   9  13
HETATM   13  C   UNL     1       5.568  -1.822  51.934  1.00  0.00     0.045 C 
HETATM   14  C   UNL     1       4.196  -2.050  51.298  1.00  0.00     0.132 C 
HETATM   15  N   UNL     1       4.461  -2.007  49.887  1.00  0.00    -0.360 N 
HETATM   16  C   UNL     1       5.646  -1.350  49.586  1.00  0.00     0.218 C 
HETATM   17  H   UNL     1       3.867  -2.400  49.208  1.00  0.00     0.162 HD
HETATM   18  O   UNL     1       6.106  -1.119  48.480  1.00  0.00    -0.274 OA
HETATM   19  C   UNL     1       6.256  -0.913  50.896  1.00  0.00     0.113 C 
ENDBRANCH   9  13
BRANCH  12  20
HETATM   20  O   UNL     1       5.535   0.126  57.254  1.00  0.00    -0.353 OA
HETATM   21  C   UNL     1       4.698   1.248  57.522  1.00  0.00     0.210 C 
ENDBRANCH  12  20
ENDBRANCH   1   7
TORSDOF 4
ENDMDL
MODEL 5
REMARK VINA RESULT:      -6.8      2.658      4.712
REMARK  4 active torsions:
REMARK  status: ('A' for Active; 'I' for Inactive)
REMARK    1  A    between atoms: O_1  and  C_5 
REMARK    2  A    between atoms: O_1  and  C_14 
REMARK    3  A    between atoms: O_2  and  C_18 
REMARK    4  A    between atoms: C_10  and  C_13 
ROOT
HETATM    1  O   UNL     1       6.202  -4.161  57.371  1.00  0.00    -0.343 OA
ENDROOT
BRANCH   1   2
HETATM    2  C   UNL     1       6.211  -3.183  58.403  1.00  0.00     0.129 C 
HETATM    3  C   UNL     1       7.629  -2.665  58.596  1.00  0.00     0.032 C 
HETATM    4  C   UNL     1       8.317  -3.737  59.440  1.00  0.00     0.002 C 
HETATM    5  C   UNL     1       7.202  -4.501  60.153  1.00  0.00     0.002 C 
HETATM    6  C   UNL     1       5.895  -3.824  59.745  1.00  0.00     0.032 C 
ENDBRANCH   1   2
BRANCH   1   7
HETATM    7  C   UNL     1       5.236  -4.033  56.408  1.00  0.00     0.103 A 
HETATM    8  C   UNL     1       5.382  -3.054  55.430  1.00  0.00     0.047 A 
HETATM    9  C   UNL     1       4.405  -2.913  54.444  1.00  0.00    -0.049 A 
HETATM   10  C   UNL     1       3.288  -3.749  54.443  1.00  0.00     0.010 A 
HETATM   11  C   UNL     1       3.149  -4.727  55.426  1.00  0.00     0.040 A 
HETATM   12  C   UNL     1       4.125  -4.870  56.412  1.00  0.00     0.101 A 
BRANCH   9  13
HETATM   13  C   UNL     1       4.556  -1.851  53.376  1.00  0.00     0.045 C 
HETATM   14  C   UNL     1       5.452  -0.665  53.737  1.00  0.00     0.132 C 
HETATM   15  N   UNL     1       5.843  -0.132  52.462  1.00  0.00    -0.360 N 
HETATM   16  C   UNL     1       5.709  -1.054  51.433  1.00  0.00     0.218 C 
HETATM   17  H   UNL     1       6.171   0.787  52.332  1.00  0.00     0.162 HD
HETATM   18  O   UNL     1       6.006  -0.904  50.259  1.00  0.00    -0.274 OA
HETATM   19  C   UNL     1       5.171  -2.325  52.045  1.00  0.00     0.113 C 
ENDBRANCH   9  13
BRANCH  12  20
HETATM   20  O   UNL     1       3.978  -5.828  57.369  1.00  0.00    -0.353 OA
HETATM   21  C   UNL     1       3.200  -6.972  57.025  1.00  0.00     0.210 C 
ENDBRANCH  12  20
ENDBRANCH   1   7
TORSDOF 4
ENDMDL
MODEL 6
REMARK VINA RESULT:      -6.8      3.026      6.029
REMARK  4 active torsions:
REMARK  status: ('A' for Active; 'I' for Inactive)
REMARK    1  A    between atoms: O_1  and  C_5 
REMARK    2  A    between atoms: O_1  and  C_14 
REMARK    3  A    between atoms: O_2  and  C_18 
REMARK    4  A    between atoms: C_10  and  C_13 
ROOT
HETATM    1  O   UNL     1       6.353  -2.932  55.163  1.00  0.00    -0.343 OA
ENDROOT
BRANCH   1   2
HETATM    2  C   UNL     1       5.292  -2.300  54.459  1.00  0.00     0.129 C 
HETATM    3  C   UNL     1       5.763  -1.931  53.060  1.00  0.00     0.032 C 
HETATM    4  C   UNL     1       6.564  -0.644  53.252  1.00  0.00     0.002 C 
HETATM    5  C   UNL     1       6.079  -0.030  54.565  1.00  0.00     0.002 C 
HETATM    6  C   UNL     1       4.974  -0.949  55.081  1.00  0.00     0.032 C 
ENDBRANCH   1   2
BRANCH   1   7
HETATM    7  C   UNL     1       6.027  -3.557  56.338  1.00  0.00     0.103 A 
HETATM    8  C   UNL     1       4.998  -4.494  56.344  1.00  0.00     0.047 A 
HETATM    9  C   UNL     1       4.656  -5.137  57.534  1.00  0.00    -0.049 A 
HETATM   10  C   UNL     1       5.343  -4.839  58.711  1.00  0.00     0.010 A 
HETATM   11  C   UNL     1       6.372  -3.898  58.698  1.00  0.00     0.040 A 
HETATM   12  C   UNL     1       6.716  -3.255  57.508  1.00  0.00     0.101 A 
BRANCH   9  13
HETATM   13  C   UNL     1       3.539  -6.159  57.547  1.00  0.00     0.045 C 
HETATM   14  C   UNL     1       2.183  -5.657  58.046  1.00  0.00     0.132 C 
HETATM   15  N   UNL     1       1.246  -6.585  57.478  1.00  0.00    -0.360 N 
HETATM   16  C   UNL     1       1.761  -7.261  56.381  1.00  0.00     0.218 C 
HETATM   17  H   UNL     1       0.337  -6.726  57.829  1.00  0.00     0.162 HD
HETATM   18  O   UNL     1       1.186  -8.070  55.671  1.00  0.00    -0.274 OA
HETATM   19  C   UNL     1       3.174  -6.768  56.180  1.00  0.00     0.113 C 
ENDBRANCH   9  13
BRANCH  12  20
HETATM   20  O   UNL     1       7.722  -2.337  57.508  1.00  0.00    -0.353 OA
HETATM   21  C   UNL     1       7.409  -1.034  57.993  1.00  0.00     0.210 C 
ENDBRANCH  12  20
ENDBRANCH   1   7
TORSDOF 4
ENDMDL
MODEL 7
REMARK VINA RESULT:      -6.7      3.503      6.574
REMARK  4 active torsions:
REMARK  status: ('A' for Active; 'I' for Inactive)
REMARK    1  A    between atoms: O_1  and  C_5 
REMARK    2  A    between atoms: O_1  and  C_14 
REMARK    3  A    between atoms: O_2  and  C_18 
REMARK    4  A    between atoms: C_10  and  C_13 
ROOT
HETATM    1  O   UNL     1       5.373  -3.209  53.498  1.00  0.00    -0.343 OA
ENDROOT
BRANCH   1   2
HETATM    2  C   UNL     1       4.659  -2.008  53.235  1.00  0.00     0.129 C 
HETATM    3  C   UNL     1       4.158  -2.022  51.799  1.00  0.00     0.032 C 
HETATM    4  C   UNL     1       5.374  -1.625  50.964  1.00  0.00     0.002 C 
HETATM    5  C   UNL     1       6.316  -0.878  51.908  1.00  0.00     0.002 C 
HETATM    6  C   UNL     1       5.603  -0.816  53.257  1.00  0.00     0.032 C 
ENDBRANCH   1   2
BRANCH   1   7
HETATM    7  C   UNL     1       4.972  -3.939  54.586  1.00  0.00     0.103 A 
HETATM    8  C   UNL     1       5.484  -3.621  55.840  1.00  0.00     0.047 A 
HETATM    9  C   UNL     1       5.085  -4.357  56.956  1.00  0.00    -0.049 A 
HETATM   10  C   UNL     1       4.179  -5.407  56.812  1.00  0.00     0.010 A 
HETATM   11  C   UNL     1       3.671  -5.722  55.552  1.00  0.00     0.040 A 
HETATM   12  C   UNL     1       4.069  -4.986  54.435  1.00  0.00     0.101 A 
BRANCH   9  13
HETATM   13  C   UNL     1       5.636  -4.015  58.324  1.00  0.00     0.045 C 
HETATM   14  C   UNL     1       5.700  -5.170  59.324  1.00  0.00     0.132 C 
HETATM   15  N   UNL     1       6.693  -4.748  60.271  1.00  0.00    -0.360 N 
HETATM   16  C   UNL     1       7.538  -3.772  59.761  1.00  0.00     0.218 C 
HETATM   17  H   UNL     1       6.768  -5.111  61.184  1.00  0.00     0.162 HD
HETATM   18  O   UNL     1       8.498  -3.259  60.312  1.00  0.00    -0.274 OA
HETATM   19  C   UNL     1       7.084  -3.488  58.349  1.00  0.00     0.113 C 
ENDBRANCH   9  13
BRANCH  12  20
HETATM   20  O   UNL     1       3.567  -5.302  53.209  1.00  0.00    -0.353 OA
HETATM   21  C   UNL     1       2.151  -5.234  53.052  1.00  0.00     0.210 C 
ENDBRANCH  12  20
ENDBRANCH   1   7
TORSDOF 4
ENDMDL
MODEL 8
REMARK VINA RESULT:      -6.7      3.129      6.231
REMARK  4 active torsions:
REMARK  status: ('A' for Active; 'I' for Inactive)
REMARK    1  A    between atoms: O_1  and  C_5 
REMARK    2  A    between atoms: O_1  and  C_14 
REMARK    3  A    between atoms: O_2  and  C_18 
REMARK    4  A    between atoms: C_10  and  C_13 
ROOT
HETATM    1  O   UNL     1       4.739  -2.515  57.893  1.00  0.00    -0.343 OA
ENDROOT
BRANCH   1   2
HETATM    2  C   UNL     1       5.524  -2.187  56.754  1.00  0.00     0.129 C 
HETATM    3  C   UNL     1       6.985  -2.498  57.041  1.00  0.00     0.032 C 
HETATM    4  C   UNL     1       7.474  -1.311  57.871  1.00  0.00     0.002 C 
HETATM    5  C   UNL     1       6.521  -0.155  57.567  1.00  0.00     0.002 C 
HETATM    6  C   UNL     1       5.530  -0.683  56.531  1.00  0.00     0.032 C 
ENDBRANCH   1   2
BRANCH   1   7
HETATM    7  C   UNL     1       4.449  -3.842  58.081  1.00  0.00     0.103 A 
HETATM    8  C   UNL     1       3.605  -4.485  57.181  1.00  0.00     0.047 A 
HETATM    9  C   UNL     1       3.302  -5.834  57.362  1.00  0.00    -0.049 A 
HETATM   10  C   UNL     1       3.843  -6.533  58.441  1.00  0.00     0.010 A 
HETATM   11  C   UNL     1       4.687  -5.882  59.340  1.00  0.00     0.040 A 
HETATM   12  C   UNL     1       4.992  -4.532  59.160  1.00  0.00     0.101 A 
BRANCH   9  13
HETATM   13  C   UNL     1       2.386  -6.541  56.386  1.00  0.00     0.045 C 
HETATM   14  C   UNL     1       2.886  -7.886  55.856  1.00  0.00     0.132 C 
HETATM   15  N   UNL     1       1.688  -8.551  55.426  1.00  0.00    -0.360 N 
HETATM   16  C   UNL     1       0.546  -8.031  56.019  1.00  0.00     0.218 C 
HETATM   17  H   UNL     1       1.678  -9.295  54.781  1.00  0.00     0.162 HD
HETATM   18  O   UNL     1      -0.602  -8.421  55.885  1.00  0.00    -0.274 OA
HETATM   19  C   UNL     1       0.990  -6.908  56.925  1.00  0.00     0.113 C 
ENDBRANCH   9  13
BRANCH  12  20
HETATM   20  O   UNL     1       5.817  -3.906  60.044  1.00  0.00    -0.353 OA
HETATM   21  C   UNL     1       7.150  -4.400  60.146  1.00  0.00     0.210 C 
ENDBRANCH  12  20
ENDBRANCH   1   7
TORSDOF 4
ENDMDL
MODEL 9
REMARK VINA RESULT:      -6.5      3.034      5.827
REMARK  4 active torsions:
REMARK  status: ('A' for Active; 'I' for Inactive)
REMARK    1  A    between atoms: O_1  and  C_5 
REMARK    2  A    between atoms: O_1  and  C_14 
REMARK    3  A    between atoms: O_2  and  C_18 
REMARK    4  A    between atoms: C_10  and  C_13 
ROOT
HETATM    1  O   UNL     1       4.748  -2.522  57.618  1.00  0.00    -0.343 OA
ENDROOT
BRANCH   1   2
HETATM    2  C   UNL     1       5.624  -2.101  56.580  1.00  0.00     0.129 C 
HETATM    3  C   UNL     1       7.065  -2.321  57.015  1.00  0.00     0.032 C 
HETATM    4  C   UNL     1       7.376  -1.133  57.925  1.00  0.00     0.002 C 
HETATM    5  C   UNL     1       6.381  -0.036  57.550  1.00  0.00     0.002 C 
HETATM    6  C   UNL     1       5.546  -0.593  56.400  1.00  0.00     0.032 C 
ENDBRANCH   1   2
BRANCH   1   7
HETATM    7  C   UNL     1       4.406  -3.849  57.637  1.00  0.00     0.103 A 
HETATM    8  C   UNL     1       3.806  -4.410  56.514  1.00  0.00     0.047 A 
HETATM    9  C   UNL     1       3.453  -5.760  56.522  1.00  0.00    -0.049 A 
HETATM   10  C   UNL     1       3.700  -6.540  57.651  1.00  0.00     0.010 A 
HETATM   11  C   UNL     1       4.301  -5.971  58.773  1.00  0.00     0.040 A 
HETATM   12  C   UNL     1       4.655  -4.621  58.767  1.00  0.00     0.101 A 
BRANCH   9  13
HETATM   13  C   UNL     1       2.801  -6.377  55.303  1.00  0.00     0.045 C 
HETATM   14  C   UNL     1       1.807  -5.488  54.555  1.00  0.00     0.132 C 
HETATM   15  N   UNL     1       1.761  -6.058  53.238  1.00  0.00    -0.360 N 
HETATM   16  C   UNL     1       2.876  -6.833  52.953  1.00  0.00     0.218 C 
HETATM   17  H   UNL     1       1.020  -5.915  52.607  1.00  0.00     0.162 HD
HETATM   18  O   UNL     1       3.137  -7.401  51.905  1.00  0.00    -0.274 OA
HETATM   19  C   UNL     1       3.760  -6.806  54.176  1.00  0.00     0.113 C 
ENDBRANCH   9  13
BRANCH  12  20
HETATM   20  O   UNL     1       5.241  -4.076  59.869  1.00  0.00    -0.353 OA
HETATM   21  C   UNL     1       6.647  -4.260  60.013  1.00  0.00     0.210 C 
ENDBRANCH  12  20
ENDBRANCH   1   7
TORSDOF 4
ENDMDL
