MODEL 1
REMARK VINA RESULT:      -7.2      0.000      0.000
REMARK  4 active torsions:
REMARK  status: ('A' for Active; 'I' for Inactive)
REMARK    1  A    between atoms: O_1  and  C_5 
REMARK    2  A    between atoms: O_1  and  C_14 
REMARK    3  A    between atoms: O_2  and  C_18 
REMARK    4  A    between atoms: C_10  and  C_13 
ROOT
HETATM    1  O   UNL     1       3.910  -7.595  54.243  1.00  0.00    -0.343 OA
ENDROOT
BRANCH   1   2
HETATM    2  C   UNL     1       3.077  -6.483  53.937  1.00  0.00     0.129 C 
HETATM    3  C   UNL     1       3.923  -5.369  53.339  1.00  0.00     0.032 C 
HETATM    4  C   UNL     1       4.581  -4.698  54.544  1.00  0.00     0.002 C 
HETATM    5  C   UNL     1       3.709  -5.038  55.752  1.00  0.00     0.002 C 
HETATM    6  C   UNL     1       2.538  -5.858  55.214  1.00  0.00     0.032 C 
ENDBRANCH   1   2
BRANCH   1   7
HETATM    7  C   UNL     1       3.282  -8.739  54.661  1.00  0.00     0.103 A 
HETATM    8  C   UNL     1       2.301  -9.306  53.853  1.00  0.00     0.047 A 
HETATM    9  C   UNL     1       1.654 -10.471  54.268  1.00  0.00    -0.049 A 
HETATM   10  C   UNL     1       1.990 -11.060  55.487  1.00  0.00     0.010 A 
HETATM   11  C   UNL     1       2.973 -10.485  56.291  1.00  0.00     0.040 A 
HETATM   12  C   UNL     1       3.621  -9.321  55.878  1.00  0.00     0.101 A 
BRANCH   9  13
HETATM   13  C   UNL     1       0.587 -11.095  53.394  1.00  0.00     0.045 C 
HETATM   14  C   UNL     1       0.684 -12.609  53.202  1.00  0.00     0.132 C 
HETATM   15  N   UNL     1      -0.648 -12.993  52.829  1.00  0.00    -0.360 N 
HETATM   16  C   UNL     1      -1.599 -12.055  53.207  1.00  0.00     0.218 C 
HETATM   17  H   UNL     1      -0.864 -13.829  52.357  1.00  0.00     0.162 HD
HETATM   18  O   UNL     1      -2.809 -12.128  53.067  1.00  0.00    -0.274 OA
HETATM   19  C   UNL     1      -0.863 -10.926  53.886  1.00  0.00     0.113 C 
ENDBRANCH   9  13
BRANCH  12  20
HETATM   20  O   UNL     1       4.580  -8.768  56.672  1.00  0.00    -0.353 OA
HETATM   21  C   UNL     1       5.163  -9.610  57.664  1.00  0.00     0.210 C 
ENDBRANCH  12  20
ENDBRANCH   1   7
TORSDOF 4
ENDMDL
MODEL 2
REMARK VINA RESULT:      -7.2      3.030      6.070
REMARK  4 active torsions:
REMARK  status: ('A' for Active; 'I' for Inactive)
REMARK    1  A    between atoms: O_1  and  C_5 
REMARK    2  A    between atoms: O_1  and  C_14 
REMARK    3  A    between atoms: O_2  and  C_18 
REMARK    4  A    between atoms: C_10  and  C_13 
ROOT
HETATM    1  O   UNL     1       1.613  -9.921  56.219  1.00  0.00    -0.343 OA
ENDROOT
BRANCH   1   2
HETATM    2  C   UNL     1       1.568 -11.075  55.390  1.00  0.00     0.129 C 
HETATM    3  C   UNL     1       1.527 -10.648  53.930  1.00  0.00     0.032 C 
HETATM    4  C   UNL     1       0.068 -10.265  53.684  1.00  0.00     0.002 C 
HETATM    5  C   UNL     1      -0.750 -10.985  54.756  1.00  0.00     0.002 C 
HETATM    6  C   UNL     1       0.247 -11.806  55.571  1.00  0.00     0.032 C 
ENDBRANCH   1   2
BRANCH   1   7
HETATM    7  C   UNL     1       2.673  -9.072  56.037  1.00  0.00     0.103 A 
HETATM    8  C   UNL     1       2.542  -8.006  55.151  1.00  0.00     0.047 A 
HETATM    9  C   UNL     1       3.614  -7.135  54.957  1.00  0.00    -0.049 A 
HETATM   10  C   UNL     1       4.811  -7.335  55.646  1.00  0.00     0.010 A 
HETATM   11  C   UNL     1       4.935  -8.405  56.531  1.00  0.00     0.040 A 
HETATM   12  C   UNL     1       3.863  -9.277  56.727  1.00  0.00     0.101 A 
BRANCH   9  13
HETATM   13  C   UNL     1       3.480  -5.973  53.996  1.00  0.00     0.045 C 
HETATM   14  C   UNL     1       4.380  -4.769  54.277  1.00  0.00     0.132 C 
HETATM   15  N   UNL     1       4.456  -4.097  53.010  1.00  0.00    -0.360 N 
HETATM   16  C   UNL     1       4.139  -4.927  51.945  1.00  0.00     0.218 C 
HETATM   17  H   UNL     1       4.706  -3.150  52.908  1.00  0.00     0.162 HD
HETATM   18  O   UNL     1       4.163  -4.652  50.756  1.00  0.00    -0.274 OA
HETATM   19  C   UNL     1       3.806  -6.282  52.522  1.00  0.00     0.113 C 
ENDBRANCH   9  13
BRANCH  12  20
HETATM   20  O   UNL     1       3.996 -10.320  57.593  1.00  0.00    -0.353 OA
HETATM   21  C   UNL     1       5.229 -10.420  58.301  1.00  0.00     0.210 C 
ENDBRANCH  12  20
ENDBRANCH   1   7
TORSDOF 4
ENDMDL
MODEL 3
REMARK VINA RESULT:      -6.6      3.287      5.933
REMARK  4 active torsions:
REMARK  status: ('A' for Active; 'I' for Inactive)
REMARK    1  A    between atoms: O_1  and  C_5 
REMARK    2  A    between atoms: O_1  and  C_14 
REMARK    3  A    between atoms: O_2  and  C_18 
REMARK    4  A    between atoms: C_10  and  C_13 
ROOT
HETATM    1  O   UNL     1       3.648  -9.553  55.036  1.00  0.00    -0.343 OA
ENDROOT
BRANCH   1   2
HETATM    2  C   UNL     1       3.531  -8.833  56.257  1.00  0.00     0.129 C 
HETATM    3  C   UNL     1       4.900  -8.310  56.668  1.00  0.00     0.032 C 
HETATM    4  C   UNL     1       5.595  -9.513  57.303  1.00  0.00     0.002 C 
HETATM    5  C   UNL     1       4.484 -10.467  57.741  1.00  0.00     0.002 C 
HETATM    6  C   UNL     1       3.168  -9.775  57.394  1.00  0.00     0.032 C 
ENDBRANCH   1   2
BRANCH   1   7
HETATM    7  C   UNL     1       2.868  -9.129  53.993  1.00  0.00     0.103 A 
HETATM    8  C   UNL     1       3.172  -7.923  53.367  1.00  0.00     0.047 A 
HETATM    9  C   UNL     1       2.385  -7.480  52.304  1.00  0.00    -0.049 A 
HETATM   10  C   UNL     1       1.299  -8.241  51.874  1.00  0.00     0.010 A 
HETATM   11  C   UNL     1       0.999  -9.448  52.506  1.00  0.00     0.040 A 
HETATM   12  C   UNL     1       1.786  -9.893  53.569  1.00  0.00     0.101 A 
BRANCH   9  13
HETATM   13  C   UNL     1       2.710  -6.171  51.617  1.00  0.00     0.045 C 
HETATM   14  C   UNL     1       3.850  -5.359  52.234  1.00  0.00     0.132 C 
HETATM   15  N   UNL     1       4.289  -4.514  51.160  1.00  0.00    -0.360 N 
HETATM   16  C   UNL     1       3.921  -5.000  49.913  1.00  0.00     0.218 C 
HETATM   17  H   UNL     1       4.797  -3.681  51.292  1.00  0.00     0.162 HD
HETATM   18  O   UNL     1       4.192  -4.526  48.822  1.00  0.00    -0.274 OA
HETATM   19  C   UNL     1       3.154  -6.280  50.145  1.00  0.00     0.113 C 
ENDBRANCH   9  13
BRANCH  12  20
HETATM   20  O   UNL     1       1.484 -11.072  54.180  1.00  0.00    -0.353 OA
HETATM   21  C   UNL     1       0.407 -11.060  55.114  1.00  0.00     0.210 C 
ENDBRANCH  12  20
ENDBRANCH   1   7
TORSDOF 4
ENDMDL
MODEL 4
REMARK VINA RESULT:      -6.5      1.050      1.322
REMARK  4 active torsions:
REMARK  status: ('A' for Active; 'I' for Inactive)
REMARK    1  A    between atoms: O_1  and  C_5 
REMARK    2  A    between atoms: O_1  and  C_14 
REMARK    3  A    between atoms: O_2  and  C_18 
REMARK    4  A    between atoms: C_10  and  C_13 
ROOT
HETATM    1  O   UNL     1       2.426  -7.540  55.798  1.00  0.00    -0.343 OA
ENDROOT
BRANCH   1   2
HETATM    2  C   UNL     1       3.666  -7.059  55.294  1.00  0.00     0.129 C 
HETATM    3  C   UNL     1       4.163  -5.923  56.176  1.00  0.00     0.032 C 
HETATM    4  C   UNL     1       3.365  -4.704  55.717  1.00  0.00     0.002 C 
HETATM    5  C   UNL     1       2.890  -5.013  54.297  1.00  0.00     0.002 C 
HETATM    6  C   UNL     1       3.464  -6.384  53.947  1.00  0.00     0.032 C 
ENDBRANCH   1   2
BRANCH   1   7
HETATM    7  C   UNL     1       2.183  -8.882  55.660  1.00  0.00     0.103 A 
HETATM    8  C   UNL     1       1.287  -9.311  54.686  1.00  0.00     0.047 A 
HETATM    9  C   UNL     1       1.030 -10.674  54.537  1.00  0.00    -0.049 A 
HETATM   10  C   UNL     1       1.668 -11.599  55.362  1.00  0.00     0.010 A 
HETATM   11  C   UNL     1       2.565 -11.162  56.337  1.00  0.00     0.040 A 
HETATM   12  C   UNL     1       2.823  -9.799  56.487  1.00  0.00     0.101 A 
BRANCH   9  13
HETATM   13  C   UNL     1       0.058 -11.149  53.478  1.00  0.00     0.045 C 
HETATM   14  C   UNL     1       0.283 -12.567  52.954  1.00  0.00     0.132 C 
HETATM   15  N   UNL     1      -0.995 -12.942  52.419  1.00  0.00    -0.360 N 
HETATM   16  C   UNL     1      -2.035 -12.182  52.939  1.00  0.00     0.218 C 
HETATM   17  H   UNL     1      -1.122 -13.659  51.757  1.00  0.00     0.162 HD
HETATM   18  O   UNL     1      -3.227 -12.302  52.710  1.00  0.00    -0.274 OA
HETATM   19  C   UNL     1      -1.423 -11.194  53.902  1.00  0.00     0.113 C 
ENDBRANCH   9  13
BRANCH  12  20
HETATM   20  O   UNL     1       3.700  -9.384  57.443  1.00  0.00    -0.353 OA
HETATM   21  C   UNL     1       4.713 -10.306  57.837  1.00  0.00     0.210 C 
ENDBRANCH  12  20
ENDBRANCH   1   7
TORSDOF 4
ENDMDL
MODEL 5
REMARK VINA RESULT:      -6.4      1.262      3.391
REMARK  4 active torsions:
REMARK  status: ('A' for Active; 'I' for Inactive)
REMARK    1  A    between atoms: O_1  and  C_5 
REMARK    2  A    between atoms: O_1  and  C_14 
REMARK    3  A    between atoms: O_2  and  C_18 
REMARK    4  A    between atoms: C_10  and  C_13 
ROOT
HETATM    1  O   UNL     1       3.979  -9.004  54.839  1.00  0.00    -0.343 OA
ENDROOT
BRANCH   1   2
HETATM    2  C   UNL     1       3.686  -8.476  56.126  1.00  0.00     0.129 C 
HETATM    3  C   UNL     1       4.986  -8.192  56.864  1.00  0.00     0.032 C 
HETATM    4  C   UNL     1       5.432  -9.555  57.392  1.00  0.00     0.002 C 
HETATM    5  C   UNL     1       4.176 -10.425  57.446  1.00  0.00     0.002 C 
HETATM    6  C   UNL     1       3.022  -9.533  56.994  1.00  0.00     0.032 C 
ENDBRANCH   1   2
BRANCH   1   7
HETATM    7  C   UNL     1       3.021  -8.842  53.872  1.00  0.00     0.103 A 
HETATM    8  C   UNL     1       2.145  -9.889  53.605  1.00  0.00     0.047 A 
HETATM    9  C   UNL     1       1.166  -9.737  52.623  1.00  0.00    -0.049 A 
HETATM   10  C   UNL     1       1.070  -8.540  51.913  1.00  0.00     0.010 A 
HETATM   11  C   UNL     1       1.952  -7.495  52.185  1.00  0.00     0.040 A 
HETATM   12  C   UNL     1       2.931  -7.646  53.168  1.00  0.00     0.101 A 
BRANCH   9  13
HETATM   13  C   UNL     1       0.209 -10.871  52.327  1.00  0.00     0.045 C 
HETATM   14  C   UNL     1       0.566 -12.224  52.945  1.00  0.00     0.132 C 
HETATM   15  N   UNL     1      -0.685 -12.927  52.976  1.00  0.00    -0.360 N 
HETATM   16  C   UNL     1      -1.779 -12.075  52.909  1.00  0.00     0.218 C 
HETATM   17  H   UNL     1      -0.760 -13.907  53.037  1.00  0.00     0.162 HD
HETATM   18  O   UNL     1      -2.960 -12.377  52.963  1.00  0.00    -0.274 OA
HETATM   19  C   UNL     1      -1.239 -10.668  52.813  1.00  0.00     0.113 C 
ENDBRANCH   9  13
BRANCH  12  20
HETATM   20  O   UNL     1       3.787  -6.618  53.425  1.00  0.00    -0.353 OA
HETATM   21  C   UNL     1       3.230  -5.440  54.001  1.00  0.00     0.210 C 
ENDBRANCH  12  20
ENDBRANCH   1   7
TORSDOF 4
ENDMDL
MODEL 6
REMARK VINA RESULT:      -6.4      2.211      2.578
REMARK  4 active torsions:
REMARK  status: ('A' for Active; 'I' for Inactive)
REMARK    1  A    between atoms: O_1  and  C_5 
REMARK    2  A    between atoms: O_1  and  C_14 
REMARK    3  A    between atoms: O_2  and  C_18 
REMARK    4  A    between atoms: C_10  and  C_13 
ROOT
HETATM    1  O   UNL     1       2.215  -7.784  55.315  1.00  0.00    -0.343 OA
ENDROOT
BRANCH   1   2
HETATM    2  C   UNL     1       3.339  -7.214  54.655  1.00  0.00     0.129 C 
HETATM    3  C   UNL     1       4.395  -6.844  55.685  1.00  0.00     0.032 C 
HETATM    4  C   UNL     1       3.913  -5.517  56.269  1.00  0.00     0.002 C 
HETATM    5  C   UNL     1       2.973  -4.908  55.228  1.00  0.00     0.002 C 
HETATM    6  C   UNL     1       2.970  -5.872  54.044  1.00  0.00     0.032 C 
ENDBRANCH   1   2
BRANCH   1   7
HETATM    7  C   UNL     1       1.881  -9.066  54.967  1.00  0.00     0.103 A 
HETATM    8  C   UNL     1       1.434  -9.323  53.674  1.00  0.00     0.047 A 
HETATM    9  C   UNL     1       1.089 -10.624  53.309  1.00  0.00    -0.049 A 
HETATM   10  C   UNL     1       1.190 -11.660  54.237  1.00  0.00     0.010 A 
HETATM   11  C   UNL     1       1.637 -11.396  55.531  1.00  0.00     0.040 A 
HETATM   12  C   UNL     1       1.983 -10.095  55.898  1.00  0.00     0.101 A 
BRANCH   9  13
HETATM   13  C   UNL     1       0.605 -10.911  51.904  1.00  0.00     0.045 C 
HETATM   14  C   UNL     1       1.156  -9.998  50.808  1.00  0.00     0.132 C 
HETATM   15  N   UNL     1       0.995 -10.768  49.607  1.00  0.00    -0.360 N 
HETATM   16  C   UNL     1       0.870 -12.127  49.857  1.00  0.00     0.218 C 
HETATM   17  H   UNL     1       0.975 -10.374  48.705  1.00  0.00     0.162 HD
HETATM   18  O   UNL     1       0.769 -13.026  49.038  1.00  0.00    -0.274 OA
HETATM   19  C   UNL     1       0.940 -12.311  51.354  1.00  0.00     0.113 C 
ENDBRANCH   9  13
BRANCH  12  20
HETATM   20  O   UNL     1       2.417  -9.848  57.165  1.00  0.00    -0.353 OA
HETATM   21  C   UNL     1       3.792 -10.106  57.440  1.00  0.00     0.210 C 
ENDBRANCH  12  20
ENDBRANCH   1   7
TORSDOF 4
ENDMDL
MODEL 7
REMARK VINA RESULT:      -6.4      3.141      5.526
REMARK  4 active torsions:
REMARK  status: ('A' for Active; 'I' for Inactive)
REMARK    1  A    between atoms: O_1  and  C_5 
REMARK    2  A    between atoms: O_1  and  C_14 
REMARK    3  A    between atoms: O_2  and  C_18 
REMARK    4  A    between atoms: C_10  and  C_13 
ROOT
HETATM    1  O   UNL     1       3.375  -7.741  51.011  1.00  0.00    -0.343 OA
ENDROOT
BRANCH   1   2
HETATM    2  C   UNL     1       2.995  -6.382  51.179  1.00  0.00     0.129 C 
HETATM    3  C   UNL     1       1.604  -6.171  50.600  1.00  0.00     0.032 C 
HETATM    4  C   UNL     1       1.830  -6.048  49.094  1.00  0.00     0.002 C 
HETATM    5  C   UNL     1       3.290  -5.633  48.913  1.00  0.00     0.002 C 
HETATM    6  C   UNL     1       3.865  -5.478  50.319  1.00  0.00     0.032 C 
ENDBRANCH   1   2
BRANCH   1   7
HETATM    7  C   UNL     1       2.818  -8.649  51.874  1.00  0.00     0.103 A 
HETATM    8  C   UNL     1       3.145  -8.587  53.225  1.00  0.00     0.047 A 
HETATM    9  C   UNL     1       2.586  -9.505  54.114  1.00  0.00    -0.049 A 
HETATM   10  C   UNL     1       1.706 -10.481  53.647  1.00  0.00     0.010 A 
HETATM   11  C   UNL     1       1.383 -10.538  52.292  1.00  0.00     0.040 A 
HETATM   12  C   UNL     1       1.941  -9.619  51.402  1.00  0.00     0.101 A 
BRANCH   9  13
HETATM   13  C   UNL     1       2.936  -9.443  55.585  1.00  0.00     0.045 C 
HETATM   14  C   UNL     1       2.891 -10.774  56.338  1.00  0.00     0.132 C 
HETATM   15  N   UNL     1       3.734 -10.550  57.479  1.00  0.00    -0.360 N 
HETATM   16  C   UNL     1       4.615  -9.494  57.293  1.00  0.00     0.218 C 
HETATM   17  H   UNL     1       3.692 -11.087  58.303  1.00  0.00     0.162 HD
HETATM   18  O   UNL     1       5.476  -9.102  58.063  1.00  0.00    -0.274 OA
HETATM   19  C   UNL     1       4.352  -8.935  55.916  1.00  0.00     0.113 C 
ENDBRANCH   9  13
BRANCH  12  20
HETATM   20  O   UNL     1       1.620  -9.685  50.080  1.00  0.00    -0.353 OA
HETATM   21  C   UNL     1       2.446 -10.501  49.253  1.00  0.00     0.210 C 
ENDBRANCH  12  20
ENDBRANCH   1   7
TORSDOF 4
ENDMDL
MODEL 8
REMARK VINA RESULT:      -6.3      3.138      6.038
REMARK  4 active torsions:
REMARK  status: ('A' for Active; 'I' for Inactive)
REMARK    1  A    between atoms: O_1  and  C_5 
REMARK    2  A    between atoms: O_1  and  C_14 
REMARK    3  A    between atoms: O_2  and  C_18 
REMARK    4  A    between atoms: C_10  and  C_13 
ROOT
HETATM    1  O   UNL     1       1.333 -10.205  51.367  1.00  0.00    -0.343 OA
ENDROOT
BRANCH   1   2
HETATM    2  C   UNL     1       2.439  -9.405  50.970  1.00  0.00     0.129 C 
HETATM    3  C   UNL     1       1.932  -8.081  50.417  1.00  0.00     0.032 C 
HETATM    4  C   UNL     1       1.499  -8.404  48.988  1.00  0.00     0.002 C 
HETATM    5  C   UNL     1       2.253  -9.672  48.588  1.00  0.00     0.002 C 
HETATM    6  C   UNL     1       3.143 -10.029  49.776  1.00  0.00     0.032 C 
ENDBRANCH   1   2
BRANCH   1   7
HETATM    7  C   UNL     1       1.328 -10.652  52.662  1.00  0.00     0.103 A 
HETATM    8  C   UNL     1       2.054  -9.954  53.622  1.00  0.00     0.047 A 
HETATM    9  C   UNL     1       2.058 -10.399  54.944  1.00  0.00    -0.049 A 
HETATM   10  C   UNL     1       1.337 -11.540  55.299  1.00  0.00     0.010 A 
HETATM   11  C   UNL     1       0.612 -12.235  54.331  1.00  0.00     0.040 A 
HETATM   12  C   UNL     1       0.607 -11.790  53.009  1.00  0.00     0.101 A 
BRANCH   9  13
HETATM   13  C   UNL     1       2.844  -9.645  55.994  1.00  0.00     0.045 C 
HETATM   14  C   UNL     1       3.591 -10.505  57.014  1.00  0.00     0.132 C 
HETATM   15  N   UNL     1       4.619  -9.633  57.510  1.00  0.00    -0.360 N 
HETATM   16  C   UNL     1       4.889  -8.581  56.647  1.00  0.00     0.218 C 
HETATM   17  H   UNL     1       5.081  -9.767  58.369  1.00  0.00     0.162 HD
HETATM   18  O   UNL     1       5.737  -7.713  56.777  1.00  0.00    -0.274 OA
HETATM   19  C   UNL     1       3.965  -8.731  55.462  1.00  0.00     0.113 C 
ENDBRANCH   9  13
BRANCH  12  20
HETATM   20  O   UNL     1      -0.104 -12.478  52.072  1.00  0.00    -0.353 OA
HETATM   21  C   UNL     1      -1.495 -12.663  52.323  1.00  0.00     0.210 C 
ENDBRANCH  12  20
ENDBRANCH   1   7
TORSDOF 4
ENDMDL
MODEL 9
REMARK VINA RESULT:      -6.3      1.519      2.213
REMARK  4 active torsions:
REMARK  status: ('A' for Active; 'I' for Inactive)
REMARK    1  A    between atoms: O_1  and  C_5 
REMARK    2  A    between atoms: O_1  and  C_14 
REMARK    3  A    between atoms: O_2  and  C_18 
REMARK    4  A    between atoms: C_10  and  C_13 
ROOT
HETATM    1  O   UNL     1       3.439  -7.999  52.830  1.00  0.00    -0.343 OA
ENDROOT
BRANCH   1   2
HETATM    2  C   UNL     1       2.839  -6.711  52.872  1.00  0.00     0.129 C 
HETATM    3  C   UNL     1       1.881  -6.561  51.699  1.00  0.00     0.032 C 
HETATM    4  C   UNL     1       2.782  -6.236  50.508  1.00  0.00     0.002 C 
HETATM    5  C   UNL     1       4.076  -5.670  51.092  1.00  0.00     0.002 C 
HETATM    6  C   UNL     1       3.878  -5.634  52.606  1.00  0.00     0.032 C 
ENDBRANCH   1   2
BRANCH   1   7
HETATM    7  C   UNL     1       3.062  -8.887  53.803  1.00  0.00     0.103 A 
HETATM    8  C   UNL     1       1.968  -9.717  53.576  1.00  0.00     0.047 A 
HETATM    9  C   UNL     1       1.574 -10.625  54.559  1.00  0.00    -0.049 A 
HETATM   10  C   UNL     1       2.273 -10.696  55.764  1.00  0.00     0.010 A 
HETATM   11  C   UNL     1       3.367  -9.861  55.985  1.00  0.00     0.040 A 
HETATM   12  C   UNL     1       3.763  -8.953  55.003  1.00  0.00     0.101 A 
BRANCH   9  13
HETATM   13  C   UNL     1       0.387 -11.532  54.319  1.00  0.00     0.045 C 
HETATM   14  C   UNL     1      -0.990 -10.888  54.491  1.00  0.00     0.132 C 
HETATM   15  N   UNL     1      -1.861 -11.735  53.726  1.00  0.00    -0.360 N 
HETATM   16  C   UNL     1      -1.180 -12.486  52.778  1.00  0.00     0.218 C 
HETATM   17  H   UNL     1      -2.836 -11.778  53.858  1.00  0.00     0.162 HD
HETATM   18  O   UNL     1      -1.656 -13.253  51.957  1.00  0.00    -0.274 OA
HETATM   19  C   UNL     1       0.283 -12.138  52.906  1.00  0.00     0.113 C 
ENDBRANCH   9  13
BRANCH  12  20
HETATM   20  O   UNL     1       4.833  -8.142  55.230  1.00  0.00    -0.353 OA
HETATM   21  C   UNL     1       4.779  -7.309  56.387  1.00  0.00     0.210 C 
ENDBRANCH  12  20
ENDBRANCH   1   7
TORSDOF 4
ENDMDL
