MODEL 1
REMARK VINA RESULT:     -19.0      0.000      0.000
REMARK  8 active torsions:
REMARK  status: ('A' for Active; 'I' for Inactive)
REMARK    1  A    between atoms: O_1  and  C_2 
REMARK    2  A    between atoms: C_2  and  C_3 
REMARK    3  A    between atoms: C_2  and  C_8 
REMARK    4  A    between atoms: C_3  and  C_4 
REMARK    5  A    between atoms: C_4  and  C_5 
REMARK    6  A    between atoms: C_8  and  C_9 
REMARK    7  A    between atoms: C_11  and  O_16 
REMARK    8  A    between atoms: C_12  and  O_15 
ROOT
HETATM    1  O   UNL     1     -54.524  49.383   7.957  1.00  0.00    -0.395 OA
HETATM    2  H   UNL     1     -55.254  49.454   8.592  1.00  0.00     0.210 HD
ENDROOT
BRANCH   1   3
HETATM    3  C   UNL     1     -53.311  49.106   8.656  1.00  0.00     0.122 C 
BRANCH   3   4
HETATM    4  C   UNL     1     -52.270  48.532   7.681  1.00  0.00     0.042 C 
BRANCH   4   5
HETATM    5  C   UNL     1     -52.681  47.187   7.077  1.00  0.00     0.116 C 
BRANCH   5   6
HETATM    6  C   UNL     1     -52.947  47.188   5.593  1.00  0.00     0.172 C 
HETATM    7  O   UNL     1     -53.744  46.463   5.020  1.00  0.00    -0.648 OA
HETATM    8  O   UNL     1     -52.293  48.144   4.906  1.00  0.00    -0.648 OA
ENDBRANCH   5   6
ENDBRANCH   4   5
ENDBRANCH   3   4
BRANCH   3   9
HETATM    9  C   UNL     1     -53.584  48.118   9.803  1.00  0.00     0.070 C 
BRANCH   9  10
HETATM   10  C   UNL     1     -53.460  48.758  11.169  1.00  0.00    -0.053 A 
HETATM   11  C   UNL     1     -53.764  50.116  11.347  1.00  0.00     0.046 A 
HETATM   12  C   UNL     1     -53.628  50.692  12.602  1.00  0.00     0.099 A 
HETATM   13  C   UNL     1     -53.222  49.930  13.693  1.00  0.00     0.098 A 
HETATM   14  C   UNL     1     -52.899  48.591  13.533  1.00  0.00     0.040 A 
HETATM   15  C   UNL     1     -53.015  48.005  12.269  1.00  0.00     0.010 A 
BRANCH  12  16
HETATM   16  O   UNL     1     -53.865  52.028  12.749  1.00  0.00    -0.358 OA
HETATM   17  H   UNL     1     -54.247  52.516  12.046  1.00  0.00     0.217 HD
ENDBRANCH  12  16
BRANCH  13  18
HETATM   18  O   UNL     1     -53.164  50.480  14.941  1.00  0.00    -0.358 OA
HETATM   19  H   UNL     1     -53.077  49.928  15.693  1.00  0.00     0.217 HD
ENDBRANCH  13  18
ENDBRANCH   9  10
ENDBRANCH   3   9
ENDBRANCH   1   3
TORSDOF 8
ENDMDL
MODEL 2
REMARK VINA RESULT:     -18.7      2.277      6.913
REMARK  8 active torsions:
REMARK  status: ('A' for Active; 'I' for Inactive)
REMARK    1  A    between atoms: O_1  and  C_2 
REMARK    2  A    between atoms: C_2  and  C_3 
REMARK    3  A    between atoms: C_2  and  C_8 
REMARK    4  A    between atoms: C_3  and  C_4 
REMARK    5  A    between atoms: C_4  and  C_5 
REMARK    6  A    between atoms: C_8  and  C_9 
REMARK    7  A    between atoms: C_11  and  O_16 
REMARK    8  A    between atoms: C_12  and  O_15 
ROOT
HETATM    1  O   UNL     1     -54.809  49.744  15.013  1.00  0.00    -0.395 OA
HETATM    2  H   UNL     1     -55.292  50.526  14.704  1.00  0.00     0.210 HD
ENDROOT
BRANCH   1   3
HETATM    3  C   UNL     1     -53.695  49.502  14.155  1.00  0.00     0.122 C 
BRANCH   3   4
HETATM    4  C   UNL     1     -52.426  49.292  14.998  1.00  0.00     0.042 C 
BRANCH   4   5
HETATM    5  C   UNL     1     -52.160  47.823  15.338  1.00  0.00     0.116 C 
BRANCH   5   6
HETATM    6  C   UNL     1     -52.860  47.295  16.564  1.00  0.00     0.172 C 
HETATM    7  O   UNL     1     -54.019  47.524  16.866  1.00  0.00    -0.648 OA
HETATM    8  O   UNL     1     -52.130  46.435  17.300  1.00  0.00    -0.648 OA
ENDBRANCH   5   6
ENDBRANCH   4   5
ENDBRANCH   3   4
BRANCH   3   9
HETATM    9  C   UNL     1     -53.514  50.685  13.188  1.00  0.00     0.070 C 
BRANCH   9  10
HETATM   10  C   UNL     1     -53.661  50.283  11.737  1.00  0.00    -0.053 A 
HETATM   11  C   UNL     1     -53.866  51.255  10.747  1.00  0.00     0.046 A 
HETATM   12  C   UNL     1     -54.017  50.867   9.423  1.00  0.00     0.099 A 
HETATM   13  C   UNL     1     -53.937  49.526   9.063  1.00  0.00     0.098 A 
HETATM   14  C   UNL     1     -53.754  48.549  10.029  1.00  0.00     0.040 A 
HETATM   15  C   UNL     1     -53.618  48.927  11.368  1.00  0.00     0.010 A 
BRANCH  12  16
HETATM   16  O   UNL     1     -54.279  51.818   8.479  1.00  0.00    -0.358 OA
HETATM   17  H   UNL     1     -54.790  52.571   8.702  1.00  0.00     0.217 HD
ENDBRANCH  12  16
BRANCH  13  18
HETATM   18  O   UNL     1     -54.007  49.155   7.751  1.00  0.00    -0.358 OA
HETATM   19  H   UNL     1     -53.224  49.085   7.241  1.00  0.00     0.217 HD
ENDBRANCH  13  18
ENDBRANCH   9  10
ENDBRANCH   3   9
ENDBRANCH   1   3
TORSDOF 8
ENDMDL
MODEL 3
REMARK VINA RESULT:     -18.6      1.225      2.115
REMARK  8 active torsions:
REMARK  status: ('A' for Active; 'I' for Inactive)
REMARK    1  A    between atoms: O_1  and  C_2 
REMARK    2  A    between atoms: C_2  and  C_3 
REMARK    3  A    between atoms: C_2  and  C_8 
REMARK    4  A    between atoms: C_3  and  C_4 
REMARK    5  A    between atoms: C_4  and  C_5 
REMARK    6  A    between atoms: C_8  and  C_9 
REMARK    7  A    between atoms: C_11  and  O_16 
REMARK    8  A    between atoms: C_12  and  O_15 
ROOT
HETATM    1  O   UNL     1     -52.554  49.652   7.531  1.00  0.00    -0.395 OA
HETATM    2  H   UNL     1     -52.806  49.441   6.618  1.00  0.00     0.210 HD
ENDROOT
BRANCH   1   3
HETATM    3  C   UNL     1     -53.440  48.992   8.433  1.00  0.00     0.122 C 
BRANCH   3   4
HETATM    4  C   UNL     1     -54.331  48.007   7.659  1.00  0.00     0.042 C 
BRANCH   4   5
HETATM    5  C   UNL     1     -53.544  46.893   6.965  1.00  0.00     0.116 C 
BRANCH   5   6
HETATM    6  C   UNL     1     -53.290  47.089   5.492  1.00  0.00     0.172 C 
HETATM    7  O   UNL     1     -52.712  48.043   4.997  1.00  0.00    -0.648 OA
HETATM    8  O   UNL     1     -53.672  46.057   4.714  1.00  0.00    -0.648 OA
ENDBRANCH   5   6
ENDBRANCH   4   5
ENDBRANCH   3   4
BRANCH   3   9
HETATM    9  C   UNL     1     -54.298  50.031   9.177  1.00  0.00     0.070 C 
BRANCH   9  10
HETATM   10  C   UNL     1     -53.959  50.125  10.648  1.00  0.00    -0.053 A 
HETATM   11  C   UNL     1     -53.598  48.976  11.369  1.00  0.00     0.046 A 
HETATM   12  C   UNL     1     -53.308  49.077  12.722  1.00  0.00     0.099 A 
HETATM   13  C   UNL     1     -53.344  50.310  13.366  1.00  0.00     0.098 A 
HETATM   14  C   UNL     1     -53.718  51.453  12.676  1.00  0.00     0.040 A 
HETATM   15  C   UNL     1     -54.029  51.360  11.316  1.00  0.00     0.010 A 
BRANCH  12  16
HETATM   16  O   UNL     1     -53.019  47.943  13.426  1.00  0.00    -0.358 OA
HETATM   17  H   UNL     1     -52.192  47.858  13.857  1.00  0.00     0.217 HD
ENDBRANCH  12  16
BRANCH  13  18
HETATM   18  O   UNL     1     -52.983  50.418  14.678  1.00  0.00    -0.358 OA
HETATM   19  H   UNL     1     -53.234  49.753  15.289  1.00  0.00     0.217 HD
ENDBRANCH  13  18
ENDBRANCH   9  10
ENDBRANCH   3   9
ENDBRANCH   1   3
TORSDOF 8
ENDMDL
MODEL 4
REMARK VINA RESULT:     -18.4      1.235      2.134
REMARK  8 active torsions:
REMARK  status: ('A' for Active; 'I' for Inactive)
REMARK    1  A    between atoms: O_1  and  C_2 
REMARK    2  A    between atoms: C_2  and  C_3 
REMARK    3  A    between atoms: C_2  and  C_8 
REMARK    4  A    between atoms: C_3  and  C_4 
REMARK    5  A    between atoms: C_4  and  C_5 
REMARK    6  A    between atoms: C_8  and  C_9 
REMARK    7  A    between atoms: C_11  and  O_16 
REMARK    8  A    between atoms: C_12  and  O_15 
ROOT
HETATM    1  O   UNL     1     -55.871  47.003   8.920  1.00  0.00    -0.395 OA
HETATM    2  H   UNL     1     -55.848  46.119   8.521  1.00  0.00     0.210 HD
ENDROOT
BRANCH   1   3
HETATM    3  C   UNL     1     -54.581  47.605   8.819  1.00  0.00     0.122 C 
BRANCH   3   4
HETATM    4  C   UNL     1     -53.716  46.815   7.823  1.00  0.00     0.042 C 
BRANCH   4   5
HETATM    5  C   UNL     1     -52.833  47.707   6.947  1.00  0.00     0.116 C 
BRANCH   5   6
HETATM    6  C   UNL     1     -52.939  47.479   5.461  1.00  0.00     0.172 C 
HETATM    7  O   UNL     1     -53.671  46.664   4.923  1.00  0.00    -0.648 OA
HETATM    8  O   UNL     1     -52.215  48.330   4.709  1.00  0.00    -0.648 OA
ENDBRANCH   5   6
ENDBRANCH   4   5
ENDBRANCH   3   4
BRANCH   3   9
HETATM    9  C   UNL     1     -53.914  47.645  10.205  1.00  0.00     0.070 C 
BRANCH   9  10
HETATM   10  C   UNL     1     -53.855  49.041  10.786  1.00  0.00    -0.053 A 
HETATM   11  C   UNL     1     -53.649  49.230  12.161  1.00  0.00     0.046 A 
HETATM   12  C   UNL     1     -53.616  50.517  12.680  1.00  0.00     0.099 A 
HETATM   13  C   UNL     1     -53.755  51.622  11.847  1.00  0.00     0.098 A 
HETATM   14  C   UNL     1     -53.979  51.455  10.489  1.00  0.00     0.040 A 
HETATM   15  C   UNL     1     -54.032  50.163   9.958  1.00  0.00     0.010 A 
BRANCH  12  16
HETATM   16  O   UNL     1     -53.478  50.686  14.028  1.00  0.00    -0.358 OA
HETATM   17  H   UNL     1     -52.626  50.797  14.401  1.00  0.00     0.217 HD
ENDBRANCH  12  16
BRANCH  13  18
HETATM   18  O   UNL     1     -53.644  52.887  12.349  1.00  0.00    -0.358 OA
HETATM   19  H   UNL     1     -52.926  53.108  12.908  1.00  0.00     0.217 HD
ENDBRANCH  13  18
ENDBRANCH   9  10
ENDBRANCH   3   9
ENDBRANCH   1   3
TORSDOF 8
ENDMDL
MODEL 5
REMARK VINA RESULT:     -18.3      2.230      2.767
REMARK  8 active torsions:
REMARK  status: ('A' for Active; 'I' for Inactive)
REMARK    1  A    between atoms: O_1  and  C_2 
REMARK    2  A    between atoms: C_2  and  C_3 
REMARK    3  A    between atoms: C_2  and  C_8 
REMARK    4  A    between atoms: C_3  and  C_4 
REMARK    5  A    between atoms: C_4  and  C_5 
REMARK    6  A    between atoms: C_8  and  C_9 
REMARK    7  A    between atoms: C_11  and  O_16 
REMARK    8  A    between atoms: C_12  and  O_15 
ROOT
HETATM    1  O   UNL     1     -52.514  48.862   7.239  1.00  0.00    -0.395 OA
HETATM    2  H   UNL     1     -52.990  49.284   6.507  1.00  0.00     0.210 HD
ENDROOT
BRANCH   1   3
HETATM    3  C   UNL     1     -53.437  48.517   8.270  1.00  0.00     0.122 C 
BRANCH   3   4
HETATM    4  C   UNL     1     -54.457  47.499   7.735  1.00  0.00     0.042 C 
BRANCH   4   5
HETATM    5  C   UNL     1     -55.349  46.903   8.826  1.00  0.00     0.116 C 
BRANCH   5   6
HETATM    6  C   UNL     1     -55.296  45.403   8.971  1.00  0.00     0.172 C 
HETATM    7  O   UNL     1     -54.406  44.780   9.525  1.00  0.00    -0.648 OA
HETATM    8  O   UNL     1     -56.386  44.756   8.516  1.00  0.00    -0.648 OA
ENDBRANCH   5   6
ENDBRANCH   4   5
ENDBRANCH   3   4
BRANCH   3   9
HETATM    9  C   UNL     1     -54.149  49.783   8.779  1.00  0.00     0.070 C 
BRANCH   9  10
HETATM   10  C   UNL     1     -53.923  50.029  10.254  1.00  0.00    -0.053 A 
HETATM   11  C   UNL     1     -53.916  51.336  10.764  1.00  0.00     0.046 A 
HETATM   12  C   UNL     1     -53.689  51.545  12.117  1.00  0.00     0.099 A 
HETATM   13  C   UNL     1     -53.498  50.470  12.979  1.00  0.00     0.098 A 
HETATM   14  C   UNL     1     -53.482  49.172  12.491  1.00  0.00     0.040 A 
HETATM   15  C   UNL     1     -53.692  48.951  11.127  1.00  0.00     0.010 A 
BRANCH  12  16
HETATM   16  O   UNL     1     -53.622  52.824  12.589  1.00  0.00    -0.358 OA
HETATM   17  H   UNL     1     -52.839  53.326  12.473  1.00  0.00     0.217 HD
ENDBRANCH  12  16
BRANCH  13  18
HETATM   18  O   UNL     1     -53.353  50.675  14.321  1.00  0.00    -0.358 OA
HETATM   19  H   UNL     1     -52.761  51.331  14.634  1.00  0.00     0.217 HD
ENDBRANCH  13  18
ENDBRANCH   9  10
ENDBRANCH   3   9
ENDBRANCH   1   3
TORSDOF 8
ENDMDL
MODEL 6
REMARK VINA RESULT:     -18.1      2.268      2.853
REMARK  8 active torsions:
REMARK  status: ('A' for Active; 'I' for Inactive)
REMARK    1  A    between atoms: O_1  and  C_2 
REMARK    2  A    between atoms: C_2  and  C_3 
REMARK    3  A    between atoms: C_2  and  C_8 
REMARK    4  A    between atoms: C_3  and  C_4 
REMARK    5  A    between atoms: C_4  and  C_5 
REMARK    6  A    between atoms: C_8  and  C_9 
REMARK    7  A    between atoms: C_11  and  O_16 
REMARK    8  A    between atoms: C_12  and  O_15 
ROOT
HETATM    1  O   UNL     1     -53.987  50.998   8.146  1.00  0.00    -0.395 OA
HETATM    2  H   UNL     1     -54.768  50.795   7.608  1.00  0.00     0.210 HD
ENDROOT
BRANCH   1   3
HETATM    3  C   UNL     1     -53.905  50.075   9.231  1.00  0.00     0.122 C 
BRANCH   3   4
HETATM    4  C   UNL     1     -54.955  48.967   9.052  1.00  0.00     0.042 C 
BRANCH   4   5
HETATM    5  C   UNL     1     -54.384  47.681   8.450  1.00  0.00     0.116 C 
BRANCH   5   6
HETATM    6  C   UNL     1     -54.967  46.395   8.976  1.00  0.00     0.172 C 
HETATM    7  O   UNL     1     -54.345  45.532   9.574  1.00  0.00    -0.648 OA
HETATM    8  O   UNL     1     -56.300  46.280   8.828  1.00  0.00    -0.648 OA
ENDBRANCH   5   6
ENDBRANCH   4   5
ENDBRANCH   3   4
BRANCH   3   9
HETATM    9  C   UNL     1     -54.118  50.816  10.563  1.00  0.00     0.070 C 
BRANCH   9  10
HETATM   10  C   UNL     1     -53.656  50.014  11.759  1.00  0.00    -0.053 A 
HETATM   11  C   UNL     1     -53.556  50.615  13.023  1.00  0.00     0.046 A 
HETATM   12  C   UNL     1     -53.113  49.869  14.106  1.00  0.00     0.099 A 
HETATM   13  C   UNL     1     -52.794  48.523  13.959  1.00  0.00     0.098 A 
HETATM   14  C   UNL     1     -52.866  47.916  12.714  1.00  0.00     0.040 A 
HETATM   15  C   UNL     1     -53.295  48.662  11.613  1.00  0.00     0.010 A 
BRANCH  12  16
HETATM   16  O   UNL     1     -52.961  50.482  15.317  1.00  0.00    -0.358 OA
HETATM   17  H   UNL     1     -52.246  50.246  15.875  1.00  0.00     0.217 HD
ENDBRANCH  12  16
BRANCH  13  18
HETATM   18  O   UNL     1     -52.433  47.774  15.041  1.00  0.00    -0.358 OA
HETATM   19  H   UNL     1     -52.819  47.943  15.878  1.00  0.00     0.217 HD
ENDBRANCH  13  18
ENDBRANCH   9  10
ENDBRANCH   3   9
ENDBRANCH   1   3
TORSDOF 8
ENDMDL
MODEL 7
REMARK VINA RESULT:     -17.9      1.668      2.128
REMARK  8 active torsions:
REMARK  status: ('A' for Active; 'I' for Inactive)
REMARK    1  A    between atoms: O_1  and  C_2 
REMARK    2  A    between atoms: C_2  and  C_3 
REMARK    3  A    between atoms: C_2  and  C_8 
REMARK    4  A    between atoms: C_3  and  C_4 
REMARK    5  A    between atoms: C_4  and  C_5 
REMARK    6  A    between atoms: C_8  and  C_9 
REMARK    7  A    between atoms: C_11  and  O_16 
REMARK    8  A    between atoms: C_12  and  O_15 
ROOT
HETATM    1  O   UNL     1     -55.476  46.769   8.479  1.00  0.00    -0.395 OA
HETATM    2  H   UNL     1     -54.971  45.953   8.334  1.00  0.00     0.210 HD
ENDROOT
BRANCH   1   3
HETATM    3  C   UNL     1     -54.578  47.873   8.581  1.00  0.00     0.122 C 
BRANCH   3   4
HETATM    4  C   UNL     1     -53.477  47.746   7.515  1.00  0.00     0.042 C 
BRANCH   4   5
HETATM    5  C   UNL     1     -53.561  46.450   6.706  1.00  0.00     0.116 C 
BRANCH   5   6
HETATM    6  C   UNL     1     -53.265  46.573   5.234  1.00  0.00     0.172 C 
HETATM    7  O   UNL     1     -53.662  45.810   4.369  1.00  0.00    -0.648 OA
HETATM    8  O   UNL     1     -52.582  47.682   4.890  1.00  0.00    -0.648 OA
ENDBRANCH   5   6
ENDBRANCH   4   5
ENDBRANCH   3   4
BRANCH   3   9
HETATM    9  C   UNL     1     -53.965  47.920   9.991  1.00  0.00     0.070 C 
BRANCH   9  10
HETATM   10  C   UNL     1     -53.902  49.322  10.556  1.00  0.00    -0.053 A 
HETATM   11  C   UNL     1     -54.023  50.435   9.710  1.00  0.00     0.046 A 
HETATM   12  C   UNL     1     -53.945  51.714  10.242  1.00  0.00     0.099 A 
HETATM   13  C   UNL     1     -53.777  51.906  11.610  1.00  0.00     0.098 A 
HETATM   14  C   UNL     1     -53.636  50.819  12.459  1.00  0.00     0.040 A 
HETATM   15  C   UNL     1     -53.695  49.526  11.932  1.00  0.00     0.010 A 
BRANCH  12  16
HETATM   16  O   UNL     1     -54.002  52.788   9.400  1.00  0.00    -0.358 OA
HETATM   17  H   UNL     1     -53.794  52.683   8.493  1.00  0.00     0.217 HD
ENDBRANCH  12  16
BRANCH  13  18
HETATM   18  O   UNL     1     -53.779  53.164  12.139  1.00  0.00    -0.358 OA
HETATM   19  H   UNL     1     -54.262  53.848  11.720  1.00  0.00     0.217 HD
ENDBRANCH  13  18
ENDBRANCH   9  10
ENDBRANCH   3   9
ENDBRANCH   1   3
TORSDOF 8
ENDMDL
MODEL 8
REMARK VINA RESULT:     -17.8      2.180      6.970
REMARK  8 active torsions:
REMARK  status: ('A' for Active; 'I' for Inactive)
REMARK    1  A    between atoms: O_1  and  C_2 
REMARK    2  A    between atoms: C_2  and  C_3 
REMARK    3  A    between atoms: C_2  and  C_8 
REMARK    4  A    between atoms: C_3  and  C_4 
REMARK    5  A    between atoms: C_4  and  C_5 
REMARK    6  A    between atoms: C_8  and  C_9 
REMARK    7  A    between atoms: C_11  and  O_16 
REMARK    8  A    between atoms: C_12  and  O_15 
ROOT
HETATM    1  O   UNL     1     -53.304  51.012  14.042  1.00  0.00    -0.395 OA
HETATM    2  H   UNL     1     -53.161  51.310  13.130  1.00  0.00     0.210 HD
ENDROOT
BRANCH   1   3
HETATM    3  C   UNL     1     -53.867  49.701  14.032  1.00  0.00     0.122 C 
BRANCH   3   4
HETATM    4  C   UNL     1     -53.492  48.964  15.328  1.00  0.00     0.042 C 
BRANCH   4   5
HETATM    5  C   UNL     1     -52.238  48.097  15.193  1.00  0.00     0.116 C 
BRANCH   5   6
HETATM    6  C   UNL     1     -51.704  47.511  16.474  1.00  0.00     0.172 C 
HETATM    7  O   UNL     1     -52.207  46.586  17.090  1.00  0.00    -0.648 OA
HETATM    8  O   UNL     1     -50.527  48.026  16.879  1.00  0.00    -0.648 OA
ENDBRANCH   5   6
ENDBRANCH   4   5
ENDBRANCH   3   4
BRANCH   3   9
HETATM    9  C   UNL     1     -53.361  48.926  12.802  1.00  0.00     0.070 C 
BRANCH   9  10
HETATM   10  C   UNL     1     -53.579  49.677  11.507  1.00  0.00    -0.053 A 
HETATM   11  C   UNL     1     -53.616  48.990  10.284  1.00  0.00     0.046 A 
HETATM   12  C   UNL     1     -53.799  49.697   9.104  1.00  0.00     0.099 A 
HETATM   13  C   UNL     1     -53.976  51.077   9.122  1.00  0.00     0.098 A 
HETATM   14  C   UNL     1     -53.923  51.776  10.319  1.00  0.00     0.040 A 
HETATM   15  C   UNL     1     -53.722  51.076  11.512  1.00  0.00     0.010 A 
BRANCH  12  16
HETATM   16  O   UNL     1     -53.769  49.024   7.916  1.00  0.00    -0.358 OA
HETATM   17  H   UNL     1     -53.685  49.498   7.112  1.00  0.00     0.217 HD
ENDBRANCH  12  16
BRANCH  13  18
HETATM   18  O   UNL     1     -54.233  51.758   7.968  1.00  0.00    -0.358 OA
HETATM   19  H   UNL     1     -53.903  52.628   7.854  1.00  0.00     0.217 HD
ENDBRANCH  13  18
ENDBRANCH   9  10
ENDBRANCH   3   9
ENDBRANCH   1   3
TORSDOF 8
ENDMDL
MODEL 9
REMARK VINA RESULT:     -17.7      2.132      2.904
REMARK  8 active torsions:
REMARK  status: ('A' for Active; 'I' for Inactive)
REMARK    1  A    between atoms: O_1  and  C_2 
REMARK    2  A    between atoms: C_2  and  C_3 
REMARK    3  A    between atoms: C_2  and  C_8 
REMARK    4  A    between atoms: C_3  and  C_4 
REMARK    5  A    between atoms: C_4  and  C_5 
REMARK    6  A    between atoms: C_8  and  C_9 
REMARK    7  A    between atoms: C_11  and  O_16 
REMARK    8  A    between atoms: C_12  and  O_15 
ROOT
HETATM    1  O   UNL     1     -52.658  49.707   7.536  1.00  0.00    -0.395 OA
HETATM    2  H   UNL     1     -53.112  49.568   6.690  1.00  0.00     0.210 HD
ENDROOT
BRANCH   1   3
HETATM    3  C   UNL     1     -53.278  48.911   8.545  1.00  0.00     0.122 C 
BRANCH   3   4
HETATM    4  C   UNL     1     -53.919  47.669   7.906  1.00  0.00     0.042 C 
BRANCH   4   5
HETATM    5  C   UNL     1     -55.193  47.209   8.619  1.00  0.00     0.116 C 
BRANCH   5   6
HETATM    6  C   UNL     1     -55.383  45.718   8.729  1.00  0.00     0.172 C 
HETATM    7  O   UNL     1     -56.460  45.145   8.760  1.00  0.00    -0.648 OA
HETATM    8  O   UNL     1     -54.242  45.002   8.694  1.00  0.00    -0.648 OA
ENDBRANCH   5   6
ENDBRANCH   4   5
ENDBRANCH   3   4
BRANCH   3   9
HETATM    9  C   UNL     1     -54.334  49.744   9.292  1.00  0.00     0.070 C 
BRANCH   9  10
HETATM   10  C   UNL     1     -53.983  49.965  10.747  1.00  0.00    -0.053 A 
HETATM   11  C   UNL     1     -53.627  48.883  11.565  1.00  0.00     0.046 A 
HETATM   12  C   UNL     1     -53.326  49.101  12.902  1.00  0.00     0.099 A 
HETATM   13  C   UNL     1     -53.345  50.387  13.433  1.00  0.00     0.098 A 
HETATM   14  C   UNL     1     -53.713  51.467  12.646  1.00  0.00     0.040 A 
HETATM   15  C   UNL     1     -54.035  51.256  11.302  1.00  0.00     0.010 A 
BRANCH  12  16
HETATM   16  O   UNL     1     -53.043  48.032  13.702  1.00  0.00    -0.358 OA
HETATM   17  H   UNL     1     -53.514  47.908  14.503  1.00  0.00     0.217 HD
ENDBRANCH  12  16
BRANCH  13  18
HETATM   18  O   UNL     1     -52.973  50.607  14.728  1.00  0.00    -0.358 OA
HETATM   19  H   UNL     1     -52.981  51.477  15.076  1.00  0.00     0.217 HD
ENDBRANCH  13  18
ENDBRANCH   9  10
ENDBRANCH   3   9
ENDBRANCH   1   3
TORSDOF 8
ENDMDL
