MODEL 1
REMARK VINA RESULT:     -19.3      0.000      0.000
REMARK  8 active torsions:
REMARK  status: ('A' for Active; 'I' for Inactive)
REMARK    1  A    between atoms: O_1  and  C_2 
REMARK    2  A    between atoms: C_2  and  C_3 
REMARK    3  A    between atoms: C_2  and  C_8 
REMARK    4  A    between atoms: C_3  and  C_4 
REMARK    5  A    between atoms: C_4  and  C_5 
REMARK    6  A    between atoms: C_8  and  C_9 
REMARK    7  A    between atoms: C_11  and  O_16 
REMARK    8  A    between atoms: C_12  and  O_15 
ROOT
HETATM    1  O   UNL     1     -54.419  50.025   8.143  1.00  0.00    -0.395 OA
HETATM    2  H   UNL     1     -54.118  50.493   7.349  1.00  0.00     0.210 HD
ENDROOT
BRANCH   1   3
HETATM    3  C   UNL     1     -53.320  49.331   8.732  1.00  0.00     0.122 C 
BRANCH   3   4
HETATM    4  C   UNL     1     -52.576  48.526   7.655  1.00  0.00     0.042 C 
BRANCH   4   5
HETATM    5  C   UNL     1     -53.433  47.430   7.016  1.00  0.00     0.116 C 
BRANCH   5   6
HETATM    6  C   UNL     1     -53.205  47.190   5.546  1.00  0.00     0.172 C 
HETATM    7  O   UNL     1     -53.731  46.310   4.886  1.00  0.00    -0.648 OA
HETATM    8  O   UNL     1     -52.420  48.104   4.943  1.00  0.00    -0.648 OA
ENDBRANCH   5   6
ENDBRANCH   4   5
ENDBRANCH   3   4
BRANCH   3   9
HETATM    9  C   UNL     1     -53.827  48.403   9.850  1.00  0.00     0.070 C 
BRANCH   9  10
HETATM   10  C   UNL     1     -53.589  48.969  11.233  1.00  0.00    -0.053 A 
HETATM   11  C   UNL     1     -53.801  50.332  11.490  1.00  0.00     0.046 A 
HETATM   12  C   UNL     1     -53.562  50.838  12.759  1.00  0.00     0.099 A 
HETATM   13  C   UNL     1     -53.141  50.003  13.789  1.00  0.00     0.098 A 
HETATM   14  C   UNL     1     -52.907  48.657  13.550  1.00  0.00     0.040 A 
HETATM   15  C   UNL     1     -53.128  48.140  12.271  1.00  0.00     0.010 A 
BRANCH  12  16
HETATM   16  O   UNL     1     -53.711  52.178  12.979  1.00  0.00    -0.358 OA
HETATM   17  H   UNL     1     -53.782  52.503  13.855  1.00  0.00     0.217 HD
ENDBRANCH  12  16
BRANCH  13  18
HETATM   18  O   UNL     1     -52.981  50.488  15.054  1.00  0.00    -0.358 OA
HETATM   19  H   UNL     1     -52.126  50.528  15.436  1.00  0.00     0.217 HD
ENDBRANCH  13  18
ENDBRANCH   9  10
ENDBRANCH   3   9
ENDBRANCH   1   3
TORSDOF 8
ENDMDL
MODEL 2
REMARK VINA RESULT:     -18.7      1.120      2.059
REMARK  8 active torsions:
REMARK  status: ('A' for Active; 'I' for Inactive)
REMARK    1  A    between atoms: O_1  and  C_2 
REMARK    2  A    between atoms: C_2  and  C_3 
REMARK    3  A    between atoms: C_2  and  C_8 
REMARK    4  A    between atoms: C_3  and  C_4 
REMARK    5  A    between atoms: C_4  and  C_5 
REMARK    6  A    between atoms: C_8  and  C_9 
REMARK    7  A    between atoms: C_11  and  O_16 
REMARK    8  A    between atoms: C_12  and  O_15 
ROOT
HETATM    1  O   UNL     1     -52.510  49.533   7.511  1.00  0.00    -0.395 OA
HETATM    2  H   UNL     1     -51.653  49.761   7.906  1.00  0.00     0.210 HD
ENDROOT
BRANCH   1   3
HETATM    3  C   UNL     1     -53.329  48.896   8.490  1.00  0.00     0.122 C 
BRANCH   3   4
HETATM    4  C   UNL     1     -54.165  47.789   7.827  1.00  0.00     0.042 C 
BRANCH   4   5
HETATM    5  C   UNL     1     -53.328  46.806   7.006  1.00  0.00     0.116 C 
BRANCH   5   6
HETATM    6  C   UNL     1     -53.240  47.091   5.529  1.00  0.00     0.172 C 
HETATM    7  O   UNL     1     -52.591  47.992   5.022  1.00  0.00    -0.648 OA
HETATM    8  O   UNL     1     -53.872  46.196   4.745  1.00  0.00    -0.648 OA
ENDBRANCH   5   6
ENDBRANCH   4   5
ENDBRANCH   3   4
BRANCH   3   9
HETATM    9  C   UNL     1     -54.242  49.935   9.165  1.00  0.00     0.070 C 
BRANCH   9  10
HETATM   10  C   UNL     1     -53.938  50.113  10.636  1.00  0.00    -0.053 A 
HETATM   11  C   UNL     1     -53.583  49.010  11.427  1.00  0.00     0.046 A 
HETATM   12  C   UNL     1     -53.326  49.188  12.779  1.00  0.00     0.099 A 
HETATM   13  C   UNL     1     -53.388  50.454  13.353  1.00  0.00     0.098 A 
HETATM   14  C   UNL     1     -53.756  51.553  12.592  1.00  0.00     0.040 A 
HETATM   15  C   UNL     1     -54.034  51.383  11.233  1.00  0.00     0.010 A 
BRANCH  12  16
HETATM   16  O   UNL     1     -53.043  48.098  13.551  1.00  0.00    -0.358 OA
HETATM   17  H   UNL     1     -53.696  47.439  13.687  1.00  0.00     0.217 HD
ENDBRANCH  12  16
BRANCH  13  18
HETATM   18  O   UNL     1     -53.058  50.637  14.665  1.00  0.00    -0.358 OA
HETATM   19  H   UNL     1     -52.244  51.042  14.891  1.00  0.00     0.217 HD
ENDBRANCH  13  18
ENDBRANCH   9  10
ENDBRANCH   3   9
ENDBRANCH   1   3
TORSDOF 8
ENDMDL
MODEL 3
REMARK VINA RESULT:     -18.7      2.227      6.955
REMARK  8 active torsions:
REMARK  status: ('A' for Active; 'I' for Inactive)
REMARK    1  A    between atoms: O_1  and  C_2 
REMARK    2  A    between atoms: C_2  and  C_3 
REMARK    3  A    between atoms: C_2  and  C_8 
REMARK    4  A    between atoms: C_3  and  C_4 
REMARK    5  A    between atoms: C_4  and  C_5 
REMARK    6  A    between atoms: C_8  and  C_9 
REMARK    7  A    between atoms: C_11  and  O_16 
REMARK    8  A    between atoms: C_12  and  O_15 
ROOT
HETATM    1  O   UNL     1     -54.724  49.736  15.116  1.00  0.00    -0.395 OA
HETATM    2  H   UNL     1     -54.790  49.025  15.773  1.00  0.00     0.210 HD
ENDROOT
BRANCH   1   3
HETATM    3  C   UNL     1     -53.737  49.394  14.144  1.00  0.00     0.122 C 
BRANCH   3   4
HETATM    4  C   UNL     1     -52.425  49.012  14.848  1.00  0.00     0.042 C 
BRANCH   4   5
HETATM    5  C   UNL     1     -52.362  47.538  15.254  1.00  0.00     0.116 C 
BRANCH   5   6
HETATM    6  C   UNL     1     -52.911  47.208  16.619  1.00  0.00     0.172 C 
HETATM    7  O   UNL     1     -54.043  47.456  17.002  1.00  0.00    -0.648 OA
HETATM    8  O   UNL     1     -52.074  46.505  17.406  1.00  0.00    -0.648 OA
ENDBRANCH   5   6
ENDBRANCH   4   5
ENDBRANCH   3   4
BRANCH   3   9
HETATM    9  C   UNL     1     -53.515  50.579  13.187  1.00  0.00     0.070 C 
BRANCH   9  10
HETATM   10  C   UNL     1     -53.652  50.190  11.732  1.00  0.00    -0.053 A 
HETATM   11  C   UNL     1     -53.865  51.170  10.751  1.00  0.00     0.046 A 
HETATM   12  C   UNL     1     -54.007  50.794   9.423  1.00  0.00     0.099 A 
HETATM   13  C   UNL     1     -53.910  49.458   9.049  1.00  0.00     0.098 A 
HETATM   14  C   UNL     1     -53.720  48.473  10.006  1.00  0.00     0.040 A 
HETATM   15  C   UNL     1     -53.593  48.838  11.349  1.00  0.00     0.010 A 
BRANCH  12  16
HETATM   16  O   UNL     1     -54.277  51.751   8.487  1.00  0.00    -0.358 OA
HETATM   17  H   UNL     1     -54.723  52.537   8.736  1.00  0.00     0.217 HD
ENDBRANCH  12  16
BRANCH  13  18
HETATM   18  O   UNL     1     -53.973  49.100   7.733  1.00  0.00    -0.358 OA
HETATM   19  H   UNL     1     -54.490  48.364   7.472  1.00  0.00     0.217 HD
ENDBRANCH  13  18
ENDBRANCH   9  10
ENDBRANCH   3   9
ENDBRANCH   1   3
TORSDOF 8
ENDMDL
MODEL 4
REMARK VINA RESULT:     -18.5      1.296      2.152
REMARK  8 active torsions:
REMARK  status: ('A' for Active; 'I' for Inactive)
REMARK    1  A    between atoms: O_1  and  C_2 
REMARK    2  A    between atoms: C_2  and  C_3 
REMARK    3  A    between atoms: C_2  and  C_8 
REMARK    4  A    between atoms: C_3  and  C_4 
REMARK    5  A    between atoms: C_4  and  C_5 
REMARK    6  A    between atoms: C_8  and  C_9 
REMARK    7  A    between atoms: C_11  and  O_16 
REMARK    8  A    between atoms: C_12  and  O_15 
ROOT
HETATM    1  O   UNL     1     -55.619  47.041   8.686  1.00  0.00    -0.395 OA
HETATM    2  H   UNL     1     -56.321  47.710   8.705  1.00  0.00     0.210 HD
ENDROOT
BRANCH   1   3
HETATM    3  C   UNL     1     -54.349  47.682   8.796  1.00  0.00     0.122 C 
BRANCH   3   4
HETATM    4  C   UNL     1     -53.317  46.943   7.928  1.00  0.00     0.042 C 
BRANCH   4   5
HETATM    5  C   UNL     1     -52.644  47.842   6.888  1.00  0.00     0.116 C 
BRANCH   5   6
HETATM    6  C   UNL     1     -52.929  47.507   5.447  1.00  0.00     0.172 C 
HETATM    7  O   UNL     1     -53.763  46.704   5.062  1.00  0.00    -0.648 OA
HETATM    8  O   UNL     1     -52.245  48.246   4.552  1.00  0.00    -0.648 OA
ENDBRANCH   5   6
ENDBRANCH   4   5
ENDBRANCH   3   4
BRANCH   3   9
HETATM    9  C   UNL     1     -53.902  47.706  10.268  1.00  0.00     0.070 C 
BRANCH   9  10
HETATM   10  C   UNL     1     -53.838  49.106  10.837  1.00  0.00    -0.053 A 
HETATM   11  C   UNL     1     -53.619  49.307  12.208  1.00  0.00     0.046 A 
HETATM   12  C   UNL     1     -53.581  50.598  12.716  1.00  0.00     0.099 A 
HETATM   13  C   UNL     1     -53.728  51.697  11.876  1.00  0.00     0.098 A 
HETATM   14  C   UNL     1     -53.966  51.519  10.522  1.00  0.00     0.040 A 
HETATM   15  C   UNL     1     -54.023  50.222  10.002  1.00  0.00     0.010 A 
BRANCH  12  16
HETATM   16  O   UNL     1     -53.430  50.778  14.062  1.00  0.00    -0.358 OA
HETATM   17  H   UNL     1     -52.636  51.144  14.399  1.00  0.00     0.217 HD
ENDBRANCH  12  16
BRANCH  13  18
HETATM   18  O   UNL     1     -53.613  52.965  12.367  1.00  0.00    -0.358 OA
HETATM   19  H   UNL     1     -54.188  53.259  13.046  1.00  0.00     0.217 HD
ENDBRANCH  13  18
ENDBRANCH   9  10
ENDBRANCH   3   9
ENDBRANCH   1   3
TORSDOF 8
ENDMDL
MODEL 5
REMARK VINA RESULT:     -18.4      2.182      2.528
REMARK  8 active torsions:
REMARK  status: ('A' for Active; 'I' for Inactive)
REMARK    1  A    between atoms: O_1  and  C_2 
REMARK    2  A    between atoms: C_2  and  C_3 
REMARK    3  A    between atoms: C_2  and  C_8 
REMARK    4  A    between atoms: C_3  and  C_4 
REMARK    5  A    between atoms: C_4  and  C_5 
REMARK    6  A    between atoms: C_8  and  C_9 
REMARK    7  A    between atoms: C_11  and  O_16 
REMARK    8  A    between atoms: C_12  and  O_15 
ROOT
HETATM    1  O   UNL     1     -52.545  49.301   7.201  1.00  0.00    -0.395 OA
HETATM    2  H   UNL     1     -51.682  48.877   7.076  1.00  0.00     0.210 HD
ENDROOT
BRANCH   1   3
HETATM    3  C   UNL     1     -53.232  48.672   8.282  1.00  0.00     0.122 C 
BRANCH   3   4
HETATM    4  C   UNL     1     -53.935  47.400   7.781  1.00  0.00     0.042 C 
BRANCH   4   5
HETATM    5  C   UNL     1     -55.176  47.032   8.597  1.00  0.00     0.116 C 
BRANCH   5   6
HETATM    6  C   UNL     1     -55.344  45.568   8.913  1.00  0.00     0.172 C 
HETATM    7  O   UNL     1     -56.161  44.824   8.395  1.00  0.00    -0.648 OA
HETATM    8  O   UNL     1     -54.436  45.072   9.775  1.00  0.00    -0.648 OA
ENDBRANCH   5   6
ENDBRANCH   4   5
ENDBRANCH   3   4
BRANCH   3   9
HETATM    9  C   UNL     1     -54.250  49.651   8.894  1.00  0.00     0.070 C 
BRANCH   9  10
HETATM   10  C   UNL     1     -53.974  49.947  10.351  1.00  0.00    -0.053 A 
HETATM   11  C   UNL     1     -53.943  51.272  10.814  1.00  0.00     0.046 A 
HETATM   12  C   UNL     1     -53.671  51.527  12.150  1.00  0.00     0.099 A 
HETATM   13  C   UNL     1     -53.457  50.482  13.043  1.00  0.00     0.098 A 
HETATM   14  C   UNL     1     -53.463  49.168  12.602  1.00  0.00     0.040 A 
HETATM   15  C   UNL     1     -53.719  48.900  11.254  1.00  0.00     0.010 A 
BRANCH  12  16
HETATM   16  O   UNL     1     -53.582  52.822  12.574  1.00  0.00    -0.358 OA
HETATM   17  H   UNL     1     -53.800  53.041  13.459  1.00  0.00     0.217 HD
ENDBRANCH  12  16
BRANCH  13  18
HETATM   18  O   UNL     1     -53.266  50.733  14.371  1.00  0.00    -0.358 OA
HETATM   19  H   UNL     1     -52.826  50.104  14.909  1.00  0.00     0.217 HD
ENDBRANCH  13  18
ENDBRANCH   9  10
ENDBRANCH   3   9
ENDBRANCH   1   3
TORSDOF 8
ENDMDL
MODEL 6
REMARK VINA RESULT:     -18.4      2.178      7.035
REMARK  8 active torsions:
REMARK  status: ('A' for Active; 'I' for Inactive)
REMARK    1  A    between atoms: O_1  and  C_2 
REMARK    2  A    between atoms: C_2  and  C_3 
REMARK    3  A    between atoms: C_2  and  C_8 
REMARK    4  A    between atoms: C_3  and  C_4 
REMARK    5  A    between atoms: C_4  and  C_5 
REMARK    6  A    between atoms: C_8  and  C_9 
REMARK    7  A    between atoms: C_11  and  O_16 
REMARK    8  A    between atoms: C_12  and  O_15 
ROOT
HETATM    1  O   UNL     1     -53.396  51.224  13.767  1.00  0.00    -0.395 OA
HETATM    2  H   UNL     1     -53.882  51.470  12.964  1.00  0.00     0.210 HD
ENDROOT
BRANCH   1   3
HETATM    3  C   UNL     1     -53.634  49.849  14.066  1.00  0.00     0.122 C 
BRANCH   3   4
HETATM    4  C   UNL     1     -52.738  49.408  15.234  1.00  0.00     0.042 C 
BRANCH   4   5
HETATM    5  C   UNL     1     -52.559  47.891  15.323  1.00  0.00     0.116 C 
BRANCH   5   6
HETATM    6  C   UNL     1     -52.969  47.256  16.626  1.00  0.00     0.172 C 
HETATM    7  O   UNL     1     -52.246  46.578  17.338  1.00  0.00    -0.648 OA
HETATM    8  O   UNL     1     -54.214  47.567  17.036  1.00  0.00    -0.648 OA
ENDBRANCH   5   6
ENDBRANCH   4   5
ENDBRANCH   3   4
BRANCH   3   9
HETATM    9  C   UNL     1     -53.362  48.989  12.819  1.00  0.00     0.070 C 
BRANCH   9  10
HETATM   10  C   UNL     1     -53.596  49.741  11.527  1.00  0.00    -0.053 A 
HETATM   11  C   UNL     1     -53.668  49.053  10.307  1.00  0.00     0.046 A 
HETATM   12  C   UNL     1     -53.865  49.760   9.129  1.00  0.00     0.099 A 
HETATM   13  C   UNL     1     -54.021  51.142   9.148  1.00  0.00     0.098 A 
HETATM   14  C   UNL     1     -53.933  51.843  10.342  1.00  0.00     0.040 A 
HETATM   15  C   UNL     1     -53.718  51.142  11.532  1.00  0.00     0.010 A 
BRANCH  12  16
HETATM   16  O   UNL     1     -53.870  49.085   7.942  1.00  0.00    -0.358 OA
HETATM   17  H   UNL     1     -54.678  48.773   7.584  1.00  0.00     0.217 HD
ENDBRANCH  12  16
BRANCH  13  18
HETATM   18  O   UNL     1     -54.292  51.825   7.998  1.00  0.00    -0.358 OA
HETATM   19  H   UNL     1     -53.819  51.629   7.214  1.00  0.00     0.217 HD
ENDBRANCH  13  18
ENDBRANCH   9  10
ENDBRANCH   3   9
ENDBRANCH   1   3
TORSDOF 8
ENDMDL
MODEL 7
REMARK VINA RESULT:     -18.4      1.600      2.256
REMARK  8 active torsions:
REMARK  status: ('A' for Active; 'I' for Inactive)
REMARK    1  A    between atoms: O_1  and  C_2 
REMARK    2  A    between atoms: C_2  and  C_3 
REMARK    3  A    between atoms: C_2  and  C_8 
REMARK    4  A    between atoms: C_3  and  C_4 
REMARK    5  A    between atoms: C_4  and  C_5 
REMARK    6  A    between atoms: C_8  and  C_9 
REMARK    7  A    between atoms: C_11  and  O_16 
REMARK    8  A    between atoms: C_12  and  O_15 
ROOT
HETATM    1  O   UNL     1     -56.083  47.108   8.985  1.00  0.00    -0.395 OA
HETATM    2  H   UNL     1     -56.269  46.334   8.431  1.00  0.00     0.210 HD
ENDROOT
BRANCH   1   3
HETATM    3  C   UNL     1     -54.783  47.610   8.679  1.00  0.00     0.122 C 
BRANCH   3   4
HETATM    4  C   UNL     1     -54.094  46.684   7.665  1.00  0.00     0.042 C 
BRANCH   4   5
HETATM    5  C   UNL     1     -52.937  47.354   6.920  1.00  0.00     0.116 C 
BRANCH   5   6
HETATM    6  C   UNL     1     -52.959  47.224   5.418  1.00  0.00     0.172 C 
HETATM    7  O   UNL     1     -53.604  46.399   4.792  1.00  0.00    -0.648 OA
HETATM    8  O   UNL     1     -52.268  48.175   4.762  1.00  0.00    -0.648 OA
ENDBRANCH   5   6
ENDBRANCH   4   5
ENDBRANCH   3   4
BRANCH   3   9
HETATM    9  C   UNL     1     -53.949  47.720   9.968  1.00  0.00     0.070 C 
BRANCH   9  10
HETATM   10  C   UNL     1     -53.892  49.132  10.509  1.00  0.00    -0.053 A 
HETATM   11  C   UNL     1     -54.020  50.230   9.646  1.00  0.00     0.046 A 
HETATM   12  C   UNL     1     -53.947  51.518  10.157  1.00  0.00     0.099 A 
HETATM   13  C   UNL     1     -53.778  51.732  11.521  1.00  0.00     0.098 A 
HETATM   14  C   UNL     1     -53.630  50.660  12.388  1.00  0.00     0.040 A 
HETATM   15  C   UNL     1     -53.684  49.358  11.882  1.00  0.00     0.010 A 
BRANCH  12  16
HETATM   16  O   UNL     1     -54.010  52.578   9.298  1.00  0.00    -0.358 OA
HETATM   17  H   UNL     1     -54.813  53.049   9.193  1.00  0.00     0.217 HD
ENDBRANCH  12  16
BRANCH  13  18
HETATM   18  O   UNL     1     -53.784  52.999  12.030  1.00  0.00    -0.358 OA
HETATM   19  H   UNL     1     -54.360  53.645  11.671  1.00  0.00     0.217 HD
ENDBRANCH  13  18
ENDBRANCH   9  10
ENDBRANCH   3   9
ENDBRANCH   1   3
TORSDOF 8
ENDMDL
MODEL 8
REMARK VINA RESULT:     -17.7      2.622      2.985
REMARK  8 active torsions:
REMARK  status: ('A' for Active; 'I' for Inactive)
REMARK    1  A    between atoms: O_1  and  C_2 
REMARK    2  A    between atoms: C_2  and  C_3 
REMARK    3  A    between atoms: C_2  and  C_8 
REMARK    4  A    between atoms: C_3  and  C_4 
REMARK    5  A    between atoms: C_4  and  C_5 
REMARK    6  A    between atoms: C_8  and  C_9 
REMARK    7  A    between atoms: C_11  and  O_16 
REMARK    8  A    between atoms: C_12  and  O_15 
ROOT
HETATM    1  O   UNL     1     -52.223  47.014   8.789  1.00  0.00    -0.395 OA
HETATM    2  H   UNL     1     -51.694  47.810   8.956  1.00  0.00     0.210 HD
ENDROOT
BRANCH   1   3
HETATM    3  C   UNL     1     -53.522  47.180   9.357  1.00  0.00     0.122 C 
BRANCH   3   4
HETATM    4  C   UNL     1     -54.567  46.474   8.478  1.00  0.00     0.042 C 
BRANCH   4   5
HETATM    5  C   UNL     1     -54.905  45.060   8.953  1.00  0.00     0.116 C 
BRANCH   5   6
HETATM    6  C   UNL     1     -56.319  44.602   8.701  1.00  0.00     0.172 C 
HETATM    7  O   UNL     1     -56.640  43.493   8.306  1.00  0.00    -0.648 OA
HETATM    8  O   UNL     1     -57.268  45.496   9.040  1.00  0.00    -0.648 OA
ENDBRANCH   5   6
ENDBRANCH   4   5
ENDBRANCH   3   4
BRANCH   3   9
HETATM    9  C   UNL     1     -53.847  48.678   9.490  1.00  0.00     0.070 C 
BRANCH   9  10
HETATM   10  C   UNL     1     -53.656  49.195  10.899  1.00  0.00    -0.053 A 
HETATM   11  C   UNL     1     -53.867  50.551  11.194  1.00  0.00     0.046 A 
HETATM   12  C   UNL     1     -53.670  51.011  12.488  1.00  0.00     0.099 A 
HETATM   13  C   UNL     1     -53.294  50.138  13.503  1.00  0.00     0.098 A 
HETATM   14  C   UNL     1     -53.062  48.799  13.228  1.00  0.00     0.040 A 
HETATM   15  C   UNL     1     -53.240  48.327  11.925  1.00  0.00     0.010 A 
BRANCH  12  16
HETATM   16  O   UNL     1     -53.818  52.344  12.747  1.00  0.00    -0.358 OA
HETATM   17  H   UNL     1     -54.619  52.664  13.113  1.00  0.00     0.217 HD
ENDBRANCH  12  16
BRANCH  13  18
HETATM   18  O   UNL     1     -53.177  50.580  14.789  1.00  0.00    -0.358 OA
HETATM   19  H   UNL     1     -52.537  50.200  15.359  1.00  0.00     0.217 HD
ENDBRANCH  13  18
ENDBRANCH   9  10
ENDBRANCH   3   9
ENDBRANCH   1   3
TORSDOF 8
ENDMDL
MODEL 9
REMARK VINA RESULT:     -17.3      1.496      6.994
REMARK  8 active torsions:
REMARK  status: ('A' for Active; 'I' for Inactive)
REMARK    1  A    between atoms: O_1  and  C_2 
REMARK    2  A    between atoms: C_2  and  C_3 
REMARK    3  A    between atoms: C_2  and  C_8 
REMARK    4  A    between atoms: C_3  and  C_4 
REMARK    5  A    between atoms: C_4  and  C_5 
REMARK    6  A    between atoms: C_8  and  C_9 
REMARK    7  A    between atoms: C_11  and  O_16 
REMARK    8  A    between atoms: C_12  and  O_15 
ROOT
HETATM    1  O   UNL     1     -52.992  46.314  11.038  1.00  0.00    -0.395 OA
HETATM    2  H   UNL     1     -53.800  46.080  11.521  1.00  0.00     0.210 HD
ENDROOT
BRANCH   1   3
HETATM    3  C   UNL     1     -53.031  47.697  10.688  1.00  0.00     0.122 C 
BRANCH   3   4
HETATM    4  C   UNL     1     -53.303  48.543  11.942  1.00  0.00     0.042 C 
BRANCH   4   5
HETATM    5  C   UNL     1     -53.688  49.990  11.626  1.00  0.00     0.116 C 
BRANCH   5   6
HETATM    6  C   UNL     1     -53.682  50.942  12.794  1.00  0.00     0.172 C 
HETATM    7  O   UNL     1     -53.588  50.618  13.967  1.00  0.00    -0.648 OA
HETATM    8  O   UNL     1     -53.690  52.246  12.457  1.00  0.00    -0.648 OA
ENDBRANCH   5   6
ENDBRANCH   4   5
ENDBRANCH   3   4
BRANCH   3   9
HETATM    9  C   UNL     1     -54.119  47.935   9.626  1.00  0.00     0.070 C 
BRANCH   9  10
HETATM   10  C   UNL     1     -53.571  47.936   8.216  1.00  0.00    -0.053 A 
HETATM   11  C   UNL     1     -54.090  47.060   7.251  1.00  0.00     0.046 A 
HETATM   12  C   UNL     1     -53.563  47.061   5.967  1.00  0.00     0.099 A 
HETATM   13  C   UNL     1     -52.545  47.943   5.618  1.00  0.00     0.098 A 
HETATM   14  C   UNL     1     -52.005  48.802   6.563  1.00  0.00     0.040 A 
HETATM   15  C   UNL     1     -52.516  48.797   7.864  1.00  0.00     0.010 A 
BRANCH  12  16
HETATM   16  O   UNL     1     -54.033  46.160   5.055  1.00  0.00    -0.358 OA
HETATM   17  H   UNL     1     -53.434  45.623   4.576  1.00  0.00     0.217 HD
ENDBRANCH  12  16
BRANCH  13  18
HETATM   18  O   UNL     1     -52.082  47.995   4.335  1.00  0.00    -0.358 OA
HETATM   19  H   UNL     1     -51.236  48.355   4.157  1.00  0.00     0.217 HD
ENDBRANCH  13  18
ENDBRANCH   9  10
ENDBRANCH   3   9
ENDBRANCH   1   3
TORSDOF 8
ENDMDL
