MODEL 1
REMARK VINA RESULT:      -8.3      0.000      0.000
REMARK  8 active torsions:
REMARK  status: ('A' for Active; 'I' for Inactive)
REMARK    1  A    between atoms: O_1  and  C_2 
REMARK    2  A    between atoms: C_2  and  C_3 
REMARK    3  A    between atoms: C_2  and  C_8 
REMARK    4  A    between atoms: C_3  and  C_4 
REMARK    5  A    between atoms: C_4  and  C_5 
REMARK    6  A    between atoms: C_8  and  C_9 
REMARK    7  A    between atoms: C_11  and  O_16 
REMARK    8  A    between atoms: C_12  and  O_15 
ROOT
HETATM    1  O   UNL     1     -52.500  48.323   8.031  1.00  0.00    -0.395 OA
HETATM    2  H   UNL     1     -52.817  49.231   8.154  1.00  0.00     0.210 HD
ENDROOT
BRANCH   1   3
HETATM    3  C   UNL     1     -53.065  47.481   9.035  1.00  0.00     0.122 C 
BRANCH   3   4
HETATM    4  C   UNL     1     -53.498  48.331  10.241  1.00  0.00     0.042 C 
BRANCH   4   5
HETATM    5  C   UNL     1     -54.563  49.374   9.898  1.00  0.00     0.116 C 
BRANCH   5   6
HETATM    6  C   UNL     1     -54.079  50.798   9.796  1.00  0.00     0.172 C 
HETATM    7  O   UNL     1     -53.831  51.528  10.742  1.00  0.00    -0.648 OA
HETATM    8  O   UNL     1     -53.830  51.218   8.541  1.00  0.00    -0.648 OA
ENDBRANCH   5   6
ENDBRANCH   4   5
ENDBRANCH   3   4
BRANCH   3   9
HETATM    9  C   UNL     1     -52.041  46.415   9.461  1.00  0.00     0.070 C 
BRANCH   9  10
HETATM   10  C   UNL     1     -52.230  45.099   8.739  1.00  0.00    -0.053 A 
HETATM   11  C   UNL     1     -53.434  44.820   8.074  1.00  0.00     0.046 A 
HETATM   12  C   UNL     1     -53.597  43.601   7.432  1.00  0.00     0.099 A 
HETATM   13  C   UNL     1     -52.570  42.664   7.416  1.00  0.00     0.098 A 
HETATM   14  C   UNL     1     -51.380  42.913   8.084  1.00  0.00     0.040 A 
HETATM   15  C   UNL     1     -51.211  44.130   8.749  1.00  0.00     0.010 A 
BRANCH  12  16
HETATM   16  O   UNL     1     -54.796  43.317   6.843  1.00  0.00    -0.358 OA
HETATM   17  H   UNL     1     -55.532  43.077   7.370  1.00  0.00     0.217 HD
ENDBRANCH  12  16
BRANCH  13  18
HETATM   18  O   UNL     1     -52.705  41.498   6.718  1.00  0.00    -0.358 OA
HETATM   19  H   UNL     1     -53.556  41.205   6.457  1.00  0.00     0.217 HD
ENDBRANCH  13  18
ENDBRANCH   9  10
ENDBRANCH   3   9
ENDBRANCH   1   3
TORSDOF 8
ENDMDL
MODEL 2
REMARK VINA RESULT:      -7.6      0.717      1.882
REMARK  8 active torsions:
REMARK  status: ('A' for Active; 'I' for Inactive)
REMARK    1  A    between atoms: O_1  and  C_2 
REMARK    2  A    between atoms: C_2  and  C_3 
REMARK    3  A    between atoms: C_2  and  C_8 
REMARK    4  A    between atoms: C_3  and  C_4 
REMARK    5  A    between atoms: C_4  and  C_5 
REMARK    6  A    between atoms: C_8  and  C_9 
REMARK    7  A    between atoms: C_11  and  O_16 
REMARK    8  A    between atoms: C_12  and  O_15 
ROOT
HETATM    1  O   UNL     1     -52.259  48.431   7.824  1.00  0.00    -0.395 OA
HETATM    2  H   UNL     1     -52.922  49.083   7.548  1.00  0.00     0.210 HD
ENDROOT
BRANCH   1   3
HETATM    3  C   UNL     1     -52.826  47.563   8.805  1.00  0.00     0.122 C 
BRANCH   3   4
HETATM    4  C   UNL     1     -53.268  48.381  10.029  1.00  0.00     0.042 C 
BRANCH   4   5
HETATM    5  C   UNL     1     -54.434  49.329   9.738  1.00  0.00     0.116 C 
BRANCH   5   6
HETATM    6  C   UNL     1     -54.070  50.779   9.544  1.00  0.00     0.172 C 
HETATM    7  O   UNL     1     -54.055  51.365   8.474  1.00  0.00    -0.648 OA
HETATM    8  O   UNL     1     -53.839  51.457  10.684  1.00  0.00    -0.648 OA
ENDBRANCH   5   6
ENDBRANCH   4   5
ENDBRANCH   3   4
BRANCH   3   9
HETATM    9  C   UNL     1     -51.799  46.491   9.210  1.00  0.00     0.070 C 
BRANCH   9  10
HETATM   10  C   UNL     1     -52.063  45.152   8.559  1.00  0.00    -0.053 A 
HETATM   11  C   UNL     1     -51.048  44.186   8.482  1.00  0.00     0.046 A 
HETATM   12  C   UNL     1     -51.303  42.969   7.865  1.00  0.00     0.099 A 
HETATM   13  C   UNL     1     -52.563  42.685   7.349  1.00  0.00     0.098 A 
HETATM   14  C   UNL     1     -53.573  43.633   7.398  1.00  0.00     0.040 A 
HETATM   15  C   UNL     1     -53.323  44.869   8.001  1.00  0.00     0.010 A 
BRANCH  12  16
HETATM   16  O   UNL     1     -50.289  42.063   7.741  1.00  0.00    -0.358 OA
HETATM   17  H   UNL     1     -49.423  42.355   7.534  1.00  0.00     0.217 HD
ENDBRANCH  12  16
BRANCH  13  18
HETATM   18  O   UNL     1     -52.832  41.458   6.813  1.00  0.00    -0.358 OA
HETATM   19  H   UNL     1     -52.138  40.941   6.454  1.00  0.00     0.217 HD
ENDBRANCH  13  18
ENDBRANCH   9  10
ENDBRANCH   3   9
ENDBRANCH   1   3
TORSDOF 8
ENDMDL
MODEL 3
REMARK VINA RESULT:      -7.5      1.920      2.455
REMARK  8 active torsions:
REMARK  status: ('A' for Active; 'I' for Inactive)
REMARK    1  A    between atoms: O_1  and  C_2 
REMARK    2  A    between atoms: C_2  and  C_3 
REMARK    3  A    between atoms: C_2  and  C_8 
REMARK    4  A    between atoms: C_3  and  C_4 
REMARK    5  A    between atoms: C_4  and  C_5 
REMARK    6  A    between atoms: C_8  and  C_9 
REMARK    7  A    between atoms: C_11  and  O_16 
REMARK    8  A    between atoms: C_12  and  O_15 
ROOT
HETATM    1  O   UNL     1     -52.843  48.489   8.195  1.00  0.00    -0.395 OA
HETATM    2  H   UNL     1     -52.074  47.901   8.150  1.00  0.00     0.210 HD
ENDROOT
BRANCH   1   3
HETATM    3  C   UNL     1     -53.859  47.884   8.994  1.00  0.00     0.122 C 
BRANCH   3   4
HETATM    4  C   UNL     1     -55.052  48.843   9.132  1.00  0.00     0.042 C 
BRANCH   4   5
HETATM    5  C   UNL     1     -54.848  49.916  10.204  1.00  0.00     0.116 C 
BRANCH   5   6
HETATM    6  C   UNL     1     -54.063  51.130   9.777  1.00  0.00     0.172 C 
HETATM    7  O   UNL     1     -53.781  51.417   8.626  1.00  0.00    -0.648 OA
HETATM    8  O   UNL     1     -53.753  51.978  10.777  1.00  0.00    -0.648 OA
ENDBRANCH   5   6
ENDBRANCH   4   5
ENDBRANCH   3   4
BRANCH   3   9
HETATM    9  C   UNL     1     -53.289  47.524  10.378  1.00  0.00     0.070 C 
BRANCH   9  10
HETATM   10  C   UNL     1     -53.039  46.041  10.540  1.00  0.00    -0.053 A 
HETATM   11  C   UNL     1     -53.423  45.141   9.534  1.00  0.00     0.046 A 
HETATM   12  C   UNL     1     -53.203  43.782   9.708  1.00  0.00     0.099 A 
HETATM   13  C   UNL     1     -52.578  43.304  10.855  1.00  0.00     0.098 A 
HETATM   14  C   UNL     1     -52.209  44.175  11.869  1.00  0.00     0.040 A 
HETATM   15  C   UNL     1     -52.442  45.545  11.713  1.00  0.00     0.010 A 
BRANCH  12  16
HETATM   16  O   UNL     1     -53.639  42.911   8.750  1.00  0.00    -0.358 OA
HETATM   17  H   UNL     1     -53.026  42.360   8.305  1.00  0.00     0.217 HD
ENDBRANCH  12  16
BRANCH  13  18
HETATM   18  O   UNL     1     -52.293  41.976  10.988  1.00  0.00    -0.358 OA
HETATM   19  H   UNL     1     -52.977  41.367  11.186  1.00  0.00     0.217 HD
ENDBRANCH  13  18
ENDBRANCH   9  10
ENDBRANCH   3   9
ENDBRANCH   1   3
TORSDOF 8
ENDMDL
MODEL 4
REMARK VINA RESULT:      -7.5      2.122      2.971
REMARK  8 active torsions:
REMARK  status: ('A' for Active; 'I' for Inactive)
REMARK    1  A    between atoms: O_1  and  C_2 
REMARK    2  A    between atoms: C_2  and  C_3 
REMARK    3  A    between atoms: C_2  and  C_8 
REMARK    4  A    between atoms: C_3  and  C_4 
REMARK    5  A    between atoms: C_4  and  C_5 
REMARK    6  A    between atoms: C_8  and  C_9 
REMARK    7  A    between atoms: C_11  and  O_16 
REMARK    8  A    between atoms: C_12  and  O_15 
ROOT
HETATM    1  O   UNL     1     -54.784  44.971   8.982  1.00  0.00    -0.395 OA
HETATM    2  H   UNL     1     -55.020  45.882   8.749  1.00  0.00     0.210 HD
ENDROOT
BRANCH   1   3
HETATM    3  C   UNL     1     -53.718  44.983   9.931  1.00  0.00     0.122 C 
BRANCH   3   4
HETATM    4  C   UNL     1     -53.363  46.434  10.295  1.00  0.00     0.042 C 
BRANCH   4   5
HETATM    5  C   UNL     1     -52.182  46.989   9.494  1.00  0.00     0.116 C 
BRANCH   5   6
HETATM    6  C   UNL     1     -52.519  48.045   8.473  1.00  0.00     0.172 C 
HETATM    7  O   UNL     1     -51.763  48.454   7.607  1.00  0.00    -0.648 OA
HETATM    8  O   UNL     1     -53.797  48.470   8.505  1.00  0.00    -0.648 OA
ENDBRANCH   5   6
ENDBRANCH   4   5
ENDBRANCH   3   4
BRANCH   3   9
HETATM    9  C   UNL     1     -52.494  44.254   9.350  1.00  0.00     0.070 C 
BRANCH   9  10
HETATM   10  C   UNL     1     -52.710  43.788   7.928  1.00  0.00    -0.053 A 
HETATM   11  C   UNL     1     -52.403  44.631   6.849  1.00  0.00     0.046 A 
HETATM   12  C   UNL     1     -52.625  44.194   5.551  1.00  0.00     0.099 A 
HETATM   13  C   UNL     1     -53.121  42.918   5.305  1.00  0.00     0.098 A 
HETATM   14  C   UNL     1     -53.449  42.077   6.358  1.00  0.00     0.040 A 
HETATM   15  C   UNL     1     -53.246  42.513   7.671  1.00  0.00     0.010 A 
BRANCH  12  16
HETATM   16  O   UNL     1     -52.382  45.048   4.512  1.00  0.00    -0.358 OA
HETATM   17  H   UNL     1     -52.840  44.942   3.702  1.00  0.00     0.217 HD
ENDBRANCH  12  16
BRANCH  13  18
HETATM   18  O   UNL     1     -53.265  42.464   4.026  1.00  0.00    -0.358 OA
HETATM   19  H   UNL     1     -52.671  42.748   3.359  1.00  0.00     0.217 HD
ENDBRANCH  13  18
ENDBRANCH   9  10
ENDBRANCH   3   9
ENDBRANCH   1   3
TORSDOF 8
ENDMDL
MODEL 5
REMARK VINA RESULT:      -7.3      2.008      2.887
REMARK  8 active torsions:
REMARK  status: ('A' for Active; 'I' for Inactive)
REMARK    1  A    between atoms: O_1  and  C_2 
REMARK    2  A    between atoms: C_2  and  C_3 
REMARK    3  A    between atoms: C_2  and  C_8 
REMARK    4  A    between atoms: C_3  and  C_4 
REMARK    5  A    between atoms: C_4  and  C_5 
REMARK    6  A    between atoms: C_8  and  C_9 
REMARK    7  A    between atoms: C_11  and  O_16 
REMARK    8  A    between atoms: C_12  and  O_15 
ROOT
HETATM    1  O   UNL     1     -54.428  43.785  10.393  1.00  0.00    -0.395 OA
HETATM    2  H   UNL     1     -55.142  44.284  10.819  1.00  0.00     0.210 HD
ENDROOT
BRANCH   1   3
HETATM    3  C   UNL     1     -53.564  44.687   9.703  1.00  0.00     0.122 C 
BRANCH   3   4
HETATM    4  C   UNL     1     -53.523  46.035  10.440  1.00  0.00     0.042 C 
BRANCH   4   5
HETATM    5  C   UNL     1     -52.722  47.108   9.700  1.00  0.00     0.116 C 
BRANCH   5   6
HETATM    6  C   UNL     1     -53.458  48.390   9.402  1.00  0.00     0.172 C 
HETATM    7  O   UNL     1     -54.054  48.635   8.366  1.00  0.00    -0.648 OA
HETATM    8  O   UNL     1     -53.507  49.261  10.428  1.00  0.00    -0.648 OA
ENDBRANCH   5   6
ENDBRANCH   4   5
ENDBRANCH   3   4
BRANCH   3   9
HETATM    9  C   UNL     1     -54.053  44.875   8.256  1.00  0.00     0.070 C 
BRANCH   9  10
HETATM   10  C   UNL     1     -53.177  44.167   7.245  1.00  0.00    -0.053 A 
HETATM   11  C   UNL     1     -53.722  43.687   6.045  1.00  0.00     0.046 A 
HETATM   12  C   UNL     1     -52.908  43.024   5.137  1.00  0.00     0.099 A 
HETATM   13  C   UNL     1     -51.550  42.857   5.391  1.00  0.00     0.098 A 
HETATM   14  C   UNL     1     -50.997  43.307   6.580  1.00  0.00     0.040 A 
HETATM   15  C   UNL     1     -51.811  43.961   7.510  1.00  0.00     0.010 A 
BRANCH  12  16
HETATM   16  O   UNL     1     -53.463  42.506   4.002  1.00  0.00    -0.358 OA
HETATM   17  H   UNL     1     -53.315  42.923   3.176  1.00  0.00     0.217 HD
ENDBRANCH  12  16
BRANCH  13  18
HETATM   18  O   UNL     1     -50.738  42.274   4.462  1.00  0.00    -0.358 OA
HETATM   19  H   UNL     1     -51.090  41.998   3.639  1.00  0.00     0.217 HD
ENDBRANCH  13  18
ENDBRANCH   9  10
ENDBRANCH   3   9
ENDBRANCH   1   3
TORSDOF 8
ENDMDL
MODEL 6
REMARK VINA RESULT:      -7.3      2.859      4.395
REMARK  8 active torsions:
REMARK  status: ('A' for Active; 'I' for Inactive)
REMARK    1  A    between atoms: O_1  and  C_2 
REMARK    2  A    between atoms: C_2  and  C_3 
REMARK    3  A    between atoms: C_2  and  C_8 
REMARK    4  A    between atoms: C_3  and  C_4 
REMARK    5  A    between atoms: C_4  and  C_5 
REMARK    6  A    between atoms: C_8  and  C_9 
REMARK    7  A    between atoms: C_11  and  O_16 
REMARK    8  A    between atoms: C_12  and  O_15 
ROOT
HETATM    1  O   UNL     1     -55.054  46.309   8.426  1.00  0.00    -0.395 OA
HETATM    2  H   UNL     1     -55.778  46.758   7.961  1.00  0.00     0.210 HD
ENDROOT
BRANCH   1   3
HETATM    3  C   UNL     1     -54.322  47.259   9.199  1.00  0.00     0.122 C 
BRANCH   3   4
HETATM    4  C   UNL     1     -54.774  48.683   8.834  1.00  0.00     0.042 C 
BRANCH   4   5
HETATM    5  C   UNL     1     -54.815  49.632  10.034  1.00  0.00     0.116 C 
BRANCH   5   6
HETATM    6  C   UNL     1     -54.266  51.016   9.797  1.00  0.00     0.172 C 
HETATM    7  O   UNL     1     -53.738  51.719  10.643  1.00  0.00    -0.648 OA
HETATM    8  O   UNL     1     -54.304  51.422   8.514  1.00  0.00    -0.648 OA
ENDBRANCH   5   6
ENDBRANCH   4   5
ENDBRANCH   3   4
BRANCH   3   9
HETATM    9  C   UNL     1     -52.814  47.087   8.947  1.00  0.00     0.070 C 
BRANCH   9  10
HETATM   10  C   UNL     1     -52.028  46.879  10.222  1.00  0.00    -0.053 A 
HETATM   11  C   UNL     1     -52.609  47.157  11.469  1.00  0.00     0.046 A 
HETATM   12  C   UNL     1     -51.867  46.978  12.628  1.00  0.00     0.099 A 
HETATM   13  C   UNL     1     -50.562  46.498  12.569  1.00  0.00     0.098 A 
HETATM   14  C   UNL     1     -49.964  46.237  11.346  1.00  0.00     0.040 A 
HETATM   15  C   UNL     1     -50.696  46.430  10.171  1.00  0.00     0.010 A 
BRANCH  12  16
HETATM   16  O   UNL     1     -52.423  47.311  13.830  1.00  0.00    -0.358 OA
HETATM   17  H   UNL     1     -53.251  47.749  13.857  1.00  0.00     0.217 HD
ENDBRANCH  12  16
BRANCH  13  18
HETATM   18  O   UNL     1     -49.863  46.250  13.715  1.00  0.00    -0.358 OA
HETATM   19  H   UNL     1     -49.359  46.932  14.113  1.00  0.00     0.217 HD
ENDBRANCH  13  18
ENDBRANCH   9  10
ENDBRANCH   3   9
ENDBRANCH   1   3
TORSDOF 8
ENDMDL
MODEL 7
REMARK VINA RESULT:      -7.2      4.077      5.296
REMARK  8 active torsions:
REMARK  status: ('A' for Active; 'I' for Inactive)
REMARK    1  A    between atoms: O_1  and  C_2 
REMARK    2  A    between atoms: C_2  and  C_3 
REMARK    3  A    between atoms: C_2  and  C_8 
REMARK    4  A    between atoms: C_3  and  C_4 
REMARK    5  A    between atoms: C_4  and  C_5 
REMARK    6  A    between atoms: C_8  and  C_9 
REMARK    7  A    between atoms: C_11  and  O_16 
REMARK    8  A    between atoms: C_12  and  O_15 
ROOT
HETATM    1  O   UNL     1     -53.018  47.527  13.885  1.00  0.00    -0.395 OA
HETATM    2  H   UNL     1     -52.633  48.075  14.587  1.00  0.00     0.210 HD
ENDROOT
BRANCH   1   3
HETATM    3  C   UNL     1     -52.085  46.517  13.504  1.00  0.00     0.122 C 
BRANCH   3   4
HETATM    4  C   UNL     1     -50.943  46.450  14.531  1.00  0.00     0.042 C 
BRANCH   4   5
HETATM    5  C   UNL     1     -49.984  47.640  14.451  1.00  0.00     0.116 C 
BRANCH   5   6
HETATM    6  C   UNL     1     -50.154  48.695  15.514  1.00  0.00     0.172 C 
HETATM    7  O   UNL     1     -49.262  49.130  16.223  1.00  0.00    -0.648 OA
HETATM    8  O   UNL     1     -51.388  49.229  15.582  1.00  0.00    -0.648 OA
ENDBRANCH   5   6
ENDBRANCH   4   5
ENDBRANCH   3   4
BRANCH   3   9
HETATM    9  C   UNL     1     -51.534  46.818  12.099  1.00  0.00     0.070 C 
BRANCH   9  10
HETATM   10  C   UNL     1     -52.566  46.616  11.011  1.00  0.00    -0.053 A 
HETATM   11  C   UNL     1     -52.917  47.675  10.159  1.00  0.00     0.046 A 
HETATM   12  C   UNL     1     -53.878  47.478   9.178  1.00  0.00     0.099 A 
HETATM   13  C   UNL     1     -54.476  46.234   9.010  1.00  0.00     0.098 A 
HETATM   14  C   UNL     1     -54.157  45.180   9.854  1.00  0.00     0.040 A 
HETATM   15  C   UNL     1     -53.203  45.372  10.857  1.00  0.00     0.010 A 
BRANCH  12  16
HETATM   16  O   UNL     1     -54.256  48.533   8.397  1.00  0.00    -0.358 OA
HETATM   17  H   UNL     1     -54.904  48.414   7.731  1.00  0.00     0.217 HD
ENDBRANCH  12  16
BRANCH  13  18
HETATM   18  O   UNL     1     -55.364  46.022   7.994  1.00  0.00    -0.358 OA
HETATM   19  H   UNL     1     -55.117  46.210   7.110  1.00  0.00     0.217 HD
ENDBRANCH  13  18
ENDBRANCH   9  10
ENDBRANCH   3   9
ENDBRANCH   1   3
TORSDOF 8
ENDMDL
MODEL 8
REMARK VINA RESULT:      -7.1      2.058      3.149
REMARK  8 active torsions:
REMARK  status: ('A' for Active; 'I' for Inactive)
REMARK    1  A    between atoms: O_1  and  C_2 
REMARK    2  A    between atoms: C_2  and  C_3 
REMARK    3  A    between atoms: C_2  and  C_8 
REMARK    4  A    between atoms: C_3  and  C_4 
REMARK    5  A    between atoms: C_4  and  C_5 
REMARK    6  A    between atoms: C_8  and  C_9 
REMARK    7  A    between atoms: C_11  and  O_16 
REMARK    8  A    between atoms: C_12  and  O_15 
ROOT
HETATM    1  O   UNL     1     -54.928  44.948   9.121  1.00  0.00    -0.395 OA
HETATM    2  H   UNL     1     -55.481  44.875   8.327  1.00  0.00     0.210 HD
ENDROOT
BRANCH   1   3
HETATM    3  C   UNL     1     -53.556  44.791   8.761  1.00  0.00     0.122 C 
BRANCH   3   4
HETATM    4  C   UNL     1     -52.847  46.154   8.809  1.00  0.00     0.042 C 
BRANCH   4   5
HETATM    5  C   UNL     1     -53.270  47.017  10.000  1.00  0.00     0.116 C 
BRANCH   5   6
HETATM    6  C   UNL     1     -53.614  48.450   9.684  1.00  0.00     0.172 C 
HETATM    7  O   UNL     1     -53.606  49.370  10.485  1.00  0.00    -0.648 OA
HETATM    8  O   UNL     1     -53.854  48.696   8.381  1.00  0.00    -0.648 OA
ENDBRANCH   5   6
ENDBRANCH   4   5
ENDBRANCH   3   4
BRANCH   3   9
HETATM    9  C   UNL     1     -53.452  44.174   7.355  1.00  0.00     0.070 C 
BRANCH   9  10
HETATM   10  C   UNL     1     -52.144  43.449   7.129  1.00  0.00    -0.053 A 
HETATM   11  C   UNL     1     -51.654  43.255   5.829  1.00  0.00     0.046 A 
HETATM   12  C   UNL     1     -50.461  42.572   5.639  1.00  0.00     0.099 A 
HETATM   13  C   UNL     1     -49.731  42.102   6.725  1.00  0.00     0.098 A 
HETATM   14  C   UNL     1     -50.208  42.267   8.017  1.00  0.00     0.040 A 
HETATM   15  C   UNL     1     -51.417  42.938   8.219  1.00  0.00     0.010 A 
BRANCH  12  16
HETATM   16  O   UNL     1     -50.028  42.335   4.366  1.00  0.00    -0.358 OA
HETATM   17  H   UNL     1     -49.807  43.053   3.805  1.00  0.00     0.217 HD
ENDBRANCH  12  16
BRANCH  13  18
HETATM   18  O   UNL     1     -48.520  41.499   6.539  1.00  0.00    -0.358 OA
HETATM   19  H   UNL     1     -48.102  41.537   5.701  1.00  0.00     0.217 HD
ENDBRANCH  13  18
ENDBRANCH   9  10
ENDBRANCH   3   9
ENDBRANCH   1   3
TORSDOF 8
ENDMDL
MODEL 9
REMARK VINA RESULT:      -7.0      2.345      6.482
REMARK  8 active torsions:
REMARK  status: ('A' for Active; 'I' for Inactive)
REMARK    1  A    between atoms: O_1  and  C_2 
REMARK    2  A    between atoms: C_2  and  C_3 
REMARK    3  A    between atoms: C_2  and  C_8 
REMARK    4  A    between atoms: C_3  and  C_4 
REMARK    5  A    between atoms: C_4  and  C_5 
REMARK    6  A    between atoms: C_8  and  C_9 
REMARK    7  A    between atoms: C_11  and  O_16 
REMARK    8  A    between atoms: C_12  and  O_15 
ROOT
HETATM    1  O   UNL     1     -54.067  42.737   7.361  1.00  0.00    -0.395 OA
HETATM    2  H   UNL     1     -54.866  42.774   6.812  1.00  0.00     0.210 HD
ENDROOT
BRANCH   1   3
HETATM    3  C   UNL     1     -53.546  44.054   7.534  1.00  0.00     0.122 C 
BRANCH   3   4
HETATM    4  C   UNL     1     -52.066  44.085   7.118  1.00  0.00     0.042 C 
BRANCH   4   5
HETATM    5  C   UNL     1     -51.797  43.394   5.779  1.00  0.00     0.116 C 
BRANCH   5   6
HETATM    6  C   UNL     1     -51.692  44.302   4.581  1.00  0.00     0.172 C 
HETATM    7  O   UNL     1     -52.430  45.244   4.343  1.00  0.00    -0.648 OA
HETATM    8  O   UNL     1     -50.627  44.066   3.790  1.00  0.00    -0.648 OA
ENDBRANCH   5   6
ENDBRANCH   4   5
ENDBRANCH   3   4
BRANCH   3   9
HETATM    9  C   UNL     1     -53.707  44.491   9.000  1.00  0.00     0.070 C 
BRANCH   9  10
HETATM   10  C   UNL     1     -54.265  45.890   9.136  1.00  0.00    -0.053 A 
HETATM   11  C   UNL     1     -53.517  46.897   9.764  1.00  0.00     0.046 A 
HETATM   12  C   UNL     1     -54.051  48.171   9.896  1.00  0.00     0.099 A 
HETATM   13  C   UNL     1     -55.311  48.469   9.385  1.00  0.00     0.098 A 
HETATM   14  C   UNL     1     -56.074  47.483   8.778  1.00  0.00     0.040 A 
HETATM   15  C   UNL     1     -55.553  46.192   8.656  1.00  0.00     0.010 A 
BRANCH  12  16
HETATM   16  O   UNL     1     -53.339  49.124  10.565  1.00  0.00    -0.358 OA
HETATM   17  H   UNL     1     -52.576  49.501  10.172  1.00  0.00     0.217 HD
ENDBRANCH  12  16
BRANCH  13  18
HETATM   18  O   UNL     1     -55.801  49.741   9.448  1.00  0.00    -0.358 OA
HETATM   19  H   UNL     1     -56.690  49.913   9.207  1.00  0.00     0.217 HD
ENDBRANCH  13  18
ENDBRANCH   9  10
ENDBRANCH   3   9
ENDBRANCH   1   3
TORSDOF 8
ENDMDL
