MODEL 1
REMARK VINA RESULT:      -8.3      0.000      0.000
REMARK  8 active torsions:
REMARK  status: ('A' for Active; 'I' for Inactive)
REMARK    1  A    between atoms: O_1  and  C_2 
REMARK    2  A    between atoms: C_2  and  C_3 
REMARK    3  A    between atoms: C_2  and  C_8 
REMARK    4  A    between atoms: C_3  and  C_4 
REMARK    5  A    between atoms: C_4  and  C_5 
REMARK    6  A    between atoms: C_8  and  C_9 
REMARK    7  A    between atoms: C_11  and  O_16 
REMARK    8  A    between atoms: C_12  and  O_15 
ROOT
HETATM    1  O   UNL     1     -52.575  48.408   8.007  1.00  0.00    -0.395 OA
HETATM    2  H   UNL     1     -53.129  49.201   7.944  1.00  0.00     0.210 HD
ENDROOT
BRANCH   1   3
HETATM    3  C   UNL     1     -53.100  47.538   9.008  1.00  0.00     0.122 C 
BRANCH   3   4
HETATM    4  C   UNL     1     -53.534  48.359  10.233  1.00  0.00     0.042 C 
BRANCH   4   5
HETATM    5  C   UNL     1     -54.583  49.425   9.909  1.00  0.00     0.116 C 
BRANCH   5   6
HETATM    6  C   UNL     1     -54.072  50.838   9.800  1.00  0.00     0.172 C 
HETATM    7  O   UNL     1     -53.793  51.562  10.742  1.00  0.00    -0.648 OA
HETATM    8  O   UNL     1     -53.836  51.255   8.541  1.00  0.00    -0.648 OA
ENDBRANCH   5   6
ENDBRANCH   4   5
ENDBRANCH   3   4
BRANCH   3   9
HETATM    9  C   UNL     1     -52.040  46.494   9.402  1.00  0.00     0.070 C 
BRANCH   9  10
HETATM   10  C   UNL     1     -52.221  45.176   8.681  1.00  0.00    -0.053 A 
HETATM   11  C   UNL     1     -53.440  44.869   8.057  1.00  0.00     0.046 A 
HETATM   12  C   UNL     1     -53.594  43.648   7.416  1.00  0.00     0.099 A 
HETATM   13  C   UNL     1     -52.544  42.737   7.360  1.00  0.00     0.098 A 
HETATM   14  C   UNL     1     -51.339  43.014   7.988  1.00  0.00     0.040 A 
HETATM   15  C   UNL     1     -51.178  44.233   8.652  1.00  0.00     0.010 A 
BRANCH  12  16
HETATM   16  O   UNL     1     -54.805  43.335   6.867  1.00  0.00    -0.358 OA
HETATM   17  H   UNL     1     -54.885  43.229   5.939  1.00  0.00     0.217 HD
ENDBRANCH  12  16
BRANCH  13  18
HETATM   18  O   UNL     1     -52.674  41.571   6.663  1.00  0.00    -0.358 OA
HETATM   19  H   UNL     1     -52.083  40.861   6.822  1.00  0.00     0.217 HD
ENDBRANCH  13  18
ENDBRANCH   9  10
ENDBRANCH   3   9
ENDBRANCH   1   3
TORSDOF 8
ENDMDL
MODEL 2
REMARK VINA RESULT:      -8.0      1.816      2.155
REMARK  8 active torsions:
REMARK  status: ('A' for Active; 'I' for Inactive)
REMARK    1  A    between atoms: O_1  and  C_2 
REMARK    2  A    between atoms: C_2  and  C_3 
REMARK    3  A    between atoms: C_2  and  C_8 
REMARK    4  A    between atoms: C_3  and  C_4 
REMARK    5  A    between atoms: C_4  and  C_5 
REMARK    6  A    between atoms: C_8  and  C_9 
REMARK    7  A    between atoms: C_11  and  O_16 
REMARK    8  A    between atoms: C_12  and  O_15 
ROOT
HETATM    1  O   UNL     1     -55.347  48.475   7.820  1.00  0.00    -0.395 OA
HETATM    2  H   UNL     1     -55.357  47.615   7.371  1.00  0.00     0.210 HD
ENDROOT
BRANCH   1   3
HETATM    3  C   UNL     1     -54.946  48.299   9.178  1.00  0.00     0.122 C 
BRANCH   3   4
HETATM    4  C   UNL     1     -55.359  49.526  10.006  1.00  0.00     0.042 C 
BRANCH   4   5
HETATM    5  C   UNL     1     -54.226  50.535  10.203  1.00  0.00     0.116 C 
BRANCH   5   6
HETATM    6  C   UNL     1     -54.224  51.713   9.263  1.00  0.00     0.172 C 
HETATM    7  O   UNL     1     -53.793  52.824   9.526  1.00  0.00    -0.648 OA
HETATM    8  O   UNL     1     -54.659  51.439   8.018  1.00  0.00    -0.648 OA
ENDBRANCH   5   6
ENDBRANCH   4   5
ENDBRANCH   3   4
BRANCH   3   9
HETATM    9  C   UNL     1     -53.423  48.084   9.248  1.00  0.00     0.070 C 
BRANCH   9  10
HETATM   10  C   UNL     1     -53.036  46.622   9.216  1.00  0.00    -0.053 A 
HETATM   11  C   UNL     1     -53.844  45.658   9.837  1.00  0.00     0.046 A 
HETATM   12  C   UNL     1     -53.465  44.324   9.813  1.00  0.00     0.099 A 
HETATM   13  C   UNL     1     -52.306  43.927   9.154  1.00  0.00     0.098 A 
HETATM   14  C   UNL     1     -51.484  44.867   8.550  1.00  0.00     0.040 A 
HETATM   15  C   UNL     1     -51.847  46.216   8.584  1.00  0.00     0.010 A 
BRANCH  12  16
HETATM   16  O   UNL     1     -54.227  43.405  10.475  1.00  0.00    -0.358 OA
HETATM   17  H   UNL     1     -53.829  42.633  10.828  1.00  0.00     0.217 HD
ENDBRANCH  12  16
BRANCH  13  18
HETATM   18  O   UNL     1     -51.976  42.605   9.065  1.00  0.00    -0.358 OA
HETATM   19  H   UNL     1     -52.646  41.963   8.933  1.00  0.00     0.217 HD
ENDBRANCH  13  18
ENDBRANCH   9  10
ENDBRANCH   3   9
ENDBRANCH   1   3
TORSDOF 8
ENDMDL
MODEL 3
REMARK VINA RESULT:      -7.6      0.756      1.737
REMARK  8 active torsions:
REMARK  status: ('A' for Active; 'I' for Inactive)
REMARK    1  A    between atoms: O_1  and  C_2 
REMARK    2  A    between atoms: C_2  and  C_3 
REMARK    3  A    between atoms: C_2  and  C_8 
REMARK    4  A    between atoms: C_3  and  C_4 
REMARK    5  A    between atoms: C_4  and  C_5 
REMARK    6  A    between atoms: C_8  and  C_9 
REMARK    7  A    between atoms: C_11  and  O_16 
REMARK    8  A    between atoms: C_12  and  O_15 
ROOT
HETATM    1  O   UNL     1     -52.269  48.420   7.905  1.00  0.00    -0.395 OA
HETATM    2  H   UNL     1     -51.371  48.154   7.650  1.00  0.00     0.210 HD
ENDROOT
BRANCH   1   3
HETATM    3  C   UNL     1     -52.783  47.499   8.866  1.00  0.00     0.122 C 
BRANCH   3   4
HETATM    4  C   UNL     1     -53.239  48.259  10.122  1.00  0.00     0.042 C 
BRANCH   4   5
HETATM    5  C   UNL     1     -54.405  49.216   9.862  1.00  0.00     0.116 C 
BRANCH   5   6
HETATM    6  C   UNL     1     -54.050  50.678   9.782  1.00  0.00     0.172 C 
HETATM    7  O   UNL     1     -53.907  51.422  10.739  1.00  0.00    -0.648 OA
HETATM    8  O   UNL     1     -53.791  51.127   8.539  1.00  0.00    -0.648 OA
ENDBRANCH   5   6
ENDBRANCH   4   5
ENDBRANCH   3   4
BRANCH   3   9
HETATM    9  C   UNL     1     -51.705  46.460   9.222  1.00  0.00     0.070 C 
BRANCH   9  10
HETATM   10  C   UNL     1     -51.978  45.102   8.614  1.00  0.00    -0.053 A 
HETATM   11  C   UNL     1     -51.027  44.074   8.712  1.00  0.00     0.046 A 
HETATM   12  C   UNL     1     -51.286  42.840   8.133  1.00  0.00     0.099 A 
HETATM   13  C   UNL     1     -52.491  42.601   7.480  1.00  0.00     0.098 A 
HETATM   14  C   UNL     1     -53.435  43.609   7.355  1.00  0.00     0.040 A 
HETATM   15  C   UNL     1     -53.177  44.862   7.919  1.00  0.00     0.010 A 
BRANCH  12  16
HETATM   16  O   UNL     1     -50.327  41.870   8.182  1.00  0.00    -0.358 OA
HETATM   17  H   UNL     1     -50.464  41.102   8.702  1.00  0.00     0.217 HD
ENDBRANCH  12  16
BRANCH  13  18
HETATM   18  O   UNL     1     -52.775  41.363   6.980  1.00  0.00    -0.358 OA
HETATM   19  H   UNL     1     -52.665  41.191   6.065  1.00  0.00     0.217 HD
ENDBRANCH  13  18
ENDBRANCH   9  10
ENDBRANCH   3   9
ENDBRANCH   1   3
TORSDOF 8
ENDMDL
MODEL 4
REMARK VINA RESULT:      -7.3      2.982      4.292
REMARK  8 active torsions:
REMARK  status: ('A' for Active; 'I' for Inactive)
REMARK    1  A    between atoms: O_1  and  C_2 
REMARK    2  A    between atoms: C_2  and  C_3 
REMARK    3  A    between atoms: C_2  and  C_8 
REMARK    4  A    between atoms: C_3  and  C_4 
REMARK    5  A    between atoms: C_4  and  C_5 
REMARK    6  A    between atoms: C_8  and  C_9 
REMARK    7  A    between atoms: C_11  and  O_16 
REMARK    8  A    between atoms: C_12  and  O_15 
ROOT
HETATM    1  O   UNL     1     -55.433  46.169   8.091  1.00  0.00    -0.395 OA
HETATM    2  H   UNL     1     -56.081  45.584   8.514  1.00  0.00     0.210 HD
ENDROOT
BRANCH   1   3
HETATM    3  C   UNL     1     -54.979  47.138   9.035  1.00  0.00     0.122 C 
BRANCH   3   4
HETATM    4  C   UNL     1     -55.438  48.540   8.602  1.00  0.00     0.042 C 
BRANCH   4   5
HETATM    5  C   UNL     1     -55.432  49.560   9.743  1.00  0.00     0.116 C 
BRANCH   5   6
HETATM    6  C   UNL     1     -54.469  50.710   9.591  1.00  0.00     0.172 C 
HETATM    7  O   UNL     1     -53.636  51.045  10.417  1.00  0.00    -0.648 OA
HETATM    8  O   UNL     1     -54.514  51.325   8.394  1.00  0.00    -0.648 OA
ENDBRANCH   5   6
ENDBRANCH   4   5
ENDBRANCH   3   4
BRANCH   3   9
HETATM    9  C   UNL     1     -53.446  47.079   9.148  1.00  0.00     0.070 C 
BRANCH   9  10
HETATM   10  C   UNL     1     -52.978  46.480  10.456  1.00  0.00    -0.053 A 
HETATM   11  C   UNL     1     -52.577  47.310  11.515  1.00  0.00     0.046 A 
HETATM   12  C   UNL     1     -52.134  46.743  12.701  1.00  0.00     0.099 A 
HETATM   13  C   UNL     1     -52.109  45.362  12.864  1.00  0.00     0.098 A 
HETATM   14  C   UNL     1     -52.482  44.526  11.823  1.00  0.00     0.040 A 
HETATM   15  C   UNL     1     -52.914  45.085  10.617  1.00  0.00     0.010 A 
BRANCH  12  16
HETATM   16  O   UNL     1     -51.687  47.560  13.700  1.00  0.00    -0.358 OA
HETATM   17  H   UNL     1     -51.757  48.491  13.611  1.00  0.00     0.217 HD
ENDBRANCH  12  16
BRANCH  13  18
HETATM   18  O   UNL     1     -51.746  44.811  14.058  1.00  0.00    -0.358 OA
HETATM   19  H   UNL     1     -51.708  43.879  14.152  1.00  0.00     0.217 HD
ENDBRANCH  13  18
ENDBRANCH   9  10
ENDBRANCH   3   9
ENDBRANCH   1   3
TORSDOF 8
ENDMDL
MODEL 5
REMARK VINA RESULT:      -7.3      2.213      2.532
REMARK  8 active torsions:
REMARK  status: ('A' for Active; 'I' for Inactive)
REMARK    1  A    between atoms: O_1  and  C_2 
REMARK    2  A    between atoms: C_2  and  C_3 
REMARK    3  A    between atoms: C_2  and  C_8 
REMARK    4  A    between atoms: C_3  and  C_4 
REMARK    5  A    between atoms: C_4  and  C_5 
REMARK    6  A    between atoms: C_8  and  C_9 
REMARK    7  A    between atoms: C_11  and  O_16 
REMARK    8  A    between atoms: C_12  and  O_15 
ROOT
HETATM    1  O   UNL     1     -52.175  48.506   7.713  1.00  0.00    -0.395 OA
HETATM    2  H   UNL     1     -51.347  48.966   7.921  1.00  0.00     0.210 HD
ENDROOT
BRANCH   1   3
HETATM    3  C   UNL     1     -52.532  47.655   8.801  1.00  0.00     0.122 C 
BRANCH   3   4
HETATM    4  C   UNL     1     -53.215  48.480   9.904  1.00  0.00     0.042 C 
BRANCH   4   5
HETATM    5  C   UNL     1     -54.404  49.301   9.398  1.00  0.00     0.116 C 
BRANCH   5   6
HETATM    6  C   UNL     1     -54.210  50.796   9.380  1.00  0.00     0.172 C 
HETATM    7  O   UNL     1     -54.419  51.522   8.422  1.00  0.00    -0.648 OA
HETATM    8  O   UNL     1     -53.864  51.332  10.566  1.00  0.00    -0.648 OA
ENDBRANCH   5   6
ENDBRANCH   4   5
ENDBRANCH   3   4
BRANCH   3   9
HETATM    9  C   UNL     1     -51.277  46.952   9.348  1.00  0.00     0.070 C 
BRANCH   9  10
HETATM   10  C   UNL     1     -51.590  45.635  10.023  1.00  0.00    -0.053 A 
HETATM   11  C   UNL     1     -52.873  45.074   9.927  1.00  0.00     0.046 A 
HETATM   12  C   UNL     1     -53.148  43.874  10.567  1.00  0.00     0.099 A 
HETATM   13  C   UNL     1     -52.158  43.205  11.278  1.00  0.00     0.098 A 
HETATM   14  C   UNL     1     -50.889  43.753  11.401  1.00  0.00     0.040 A 
HETATM   15  C   UNL     1     -50.606  44.970  10.775  1.00  0.00     0.010 A 
BRANCH  12  16
HETATM   16  O   UNL     1     -54.417  43.372  10.518  1.00  0.00    -0.358 OA
HETATM   17  H   UNL     1     -54.849  43.269   9.693  1.00  0.00     0.217 HD
ENDBRANCH  12  16
BRANCH  13  18
HETATM   18  O   UNL     1     -52.410  41.988  11.841  1.00  0.00    -0.358 OA
HETATM   19  H   UNL     1     -53.198  41.527  11.627  1.00  0.00     0.217 HD
ENDBRANCH  13  18
ENDBRANCH   9  10
ENDBRANCH   3   9
ENDBRANCH   1   3
TORSDOF 8
ENDMDL
MODEL 6
REMARK VINA RESULT:      -7.3      0.968      1.317
REMARK  8 active torsions:
REMARK  status: ('A' for Active; 'I' for Inactive)
REMARK    1  A    between atoms: O_1  and  C_2 
REMARK    2  A    between atoms: C_2  and  C_3 
REMARK    3  A    between atoms: C_2  and  C_8 
REMARK    4  A    between atoms: C_3  and  C_4 
REMARK    5  A    between atoms: C_4  and  C_5 
REMARK    6  A    between atoms: C_8  and  C_9 
REMARK    7  A    between atoms: C_11  and  O_16 
REMARK    8  A    between atoms: C_12  and  O_15 
ROOT
HETATM    1  O   UNL     1     -52.119  48.243   7.784  1.00  0.00    -0.395 OA
HETATM    2  H   UNL     1     -51.442  48.838   8.142  1.00  0.00     0.210 HD
ENDROOT
BRANCH   1   3
HETATM    3  C   UNL     1     -52.554  47.349   8.807  1.00  0.00     0.122 C 
BRANCH   3   4
HETATM    4  C   UNL     1     -52.847  48.135  10.095  1.00  0.00     0.042 C 
BRANCH   4   5
HETATM    5  C   UNL     1     -54.312  48.557  10.229  1.00  0.00     0.116 C 
BRANCH   5   6
HETATM    6  C   UNL     1     -54.905  49.260   9.035  1.00  0.00     0.172 C 
HETATM    7  O   UNL     1     -55.273  48.714   8.008  1.00  0.00    -0.648 OA
HETATM    8  O   UNL     1     -55.106  50.581   9.203  1.00  0.00    -0.648 OA
ENDBRANCH   5   6
ENDBRANCH   4   5
ENDBRANCH   3   4
BRANCH   3   9
HETATM    9  C   UNL     1     -51.477  46.278   9.058  1.00  0.00     0.070 C 
BRANCH   9  10
HETATM   10  C   UNL     1     -51.843  44.932   8.472  1.00  0.00    -0.053 A 
HETATM   11  C   UNL     1     -53.106  44.726   7.898  1.00  0.00     0.046 A 
HETATM   12  C   UNL     1     -53.431  43.480   7.382  1.00  0.00     0.099 A 
HETATM   13  C   UNL     1     -52.508  42.440   7.402  1.00  0.00     0.098 A 
HETATM   14  C   UNL     1     -51.261  42.618   7.983  1.00  0.00     0.040 A 
HETATM   15  C   UNL     1     -50.929  43.864   8.521  1.00  0.00     0.010 A 
BRANCH  12  16
HETATM   16  O   UNL     1     -54.686  43.275   6.882  1.00  0.00    -0.358 OA
HETATM   17  H   UNL     1     -54.795  42.910   6.026  1.00  0.00     0.217 HD
ENDBRANCH  12  16
BRANCH  13  18
HETATM   18  O   UNL     1     -52.803  41.239   6.824  1.00  0.00    -0.358 OA
HETATM   19  H   UNL     1     -53.179  40.551   7.338  1.00  0.00     0.217 HD
ENDBRANCH  13  18
ENDBRANCH   9  10
ENDBRANCH   3   9
ENDBRANCH   1   3
TORSDOF 8
ENDMDL
MODEL 7
REMARK VINA RESULT:      -7.3      1.977      2.771
REMARK  8 active torsions:
REMARK  status: ('A' for Active; 'I' for Inactive)
REMARK    1  A    between atoms: O_1  and  C_2 
REMARK    2  A    between atoms: C_2  and  C_3 
REMARK    3  A    between atoms: C_2  and  C_8 
REMARK    4  A    between atoms: C_3  and  C_4 
REMARK    5  A    between atoms: C_4  and  C_5 
REMARK    6  A    between atoms: C_8  and  C_9 
REMARK    7  A    between atoms: C_11  and  O_16 
REMARK    8  A    between atoms: C_12  and  O_15 
ROOT
HETATM    1  O   UNL     1     -54.432  43.843  10.420  1.00  0.00    -0.395 OA
HETATM    2  H   UNL     1     -53.998  43.550  11.237  1.00  0.00     0.210 HD
ENDROOT
BRANCH   1   3
HETATM    3  C   UNL     1     -53.553  44.701   9.695  1.00  0.00     0.122 C 
BRANCH   3   4
HETATM    4  C   UNL     1     -53.477  46.072  10.388  1.00  0.00     0.042 C 
BRANCH   4   5
HETATM    5  C   UNL     1     -52.863  47.163   9.508  1.00  0.00     0.116 C 
BRANCH   5   6
HETATM    6  C   UNL     1     -53.598  48.478   9.484  1.00  0.00     0.172 C 
HETATM    7  O   UNL     1     -53.539  49.335  10.351  1.00  0.00    -0.648 OA
HETATM    8  O   UNL     1     -54.289  48.715   8.352  1.00  0.00    -0.648 OA
ENDBRANCH   5   6
ENDBRANCH   4   5
ENDBRANCH   3   4
BRANCH   3   9
HETATM    9  C   UNL     1     -54.048  44.852   8.246  1.00  0.00     0.070 C 
BRANCH   9  10
HETATM   10  C   UNL     1     -53.156  44.148   7.247  1.00  0.00    -0.053 A 
HETATM   11  C   UNL     1     -53.671  43.718   6.014  1.00  0.00     0.046 A 
HETATM   12  C   UNL     1     -52.843  43.058   5.117  1.00  0.00     0.099 A 
HETATM   13  C   UNL     1     -51.501  42.845   5.413  1.00  0.00     0.098 A 
HETATM   14  C   UNL     1     -50.979  43.245   6.634  1.00  0.00     0.040 A 
HETATM   15  C   UNL     1     -51.807  43.895   7.553  1.00  0.00     0.010 A 
BRANCH  12  16
HETATM   16  O   UNL     1     -53.371  42.589   3.949  1.00  0.00    -0.358 OA
HETATM   17  H   UNL     1     -54.148  42.064   3.963  1.00  0.00     0.217 HD
ENDBRANCH  12  16
BRANCH  13  18
HETATM   18  O   UNL     1     -50.672  42.265   4.497  1.00  0.00    -0.358 OA
HETATM   19  H   UNL     1     -51.027  41.890   3.715  1.00  0.00     0.217 HD
ENDBRANCH  13  18
ENDBRANCH   9  10
ENDBRANCH   3   9
ENDBRANCH   1   3
TORSDOF 8
ENDMDL
MODEL 8
REMARK VINA RESULT:      -7.2      2.139      2.824
REMARK  8 active torsions:
REMARK  status: ('A' for Active; 'I' for Inactive)
REMARK    1  A    between atoms: O_1  and  C_2 
REMARK    2  A    between atoms: C_2  and  C_3 
REMARK    3  A    between atoms: C_2  and  C_8 
REMARK    4  A    between atoms: C_3  and  C_4 
REMARK    5  A    between atoms: C_4  and  C_5 
REMARK    6  A    between atoms: C_8  and  C_9 
REMARK    7  A    between atoms: C_11  and  O_16 
REMARK    8  A    between atoms: C_12  and  O_15 
ROOT
HETATM    1  O   UNL     1     -54.787  45.968   8.158  1.00  0.00    -0.395 OA
HETATM    2  H   UNL     1     -54.777  45.495   7.311  1.00  0.00     0.210 HD
ENDROOT
BRANCH   1   3
HETATM    3  C   UNL     1     -53.894  45.328   9.070  1.00  0.00     0.122 C 
BRANCH   3   4
HETATM    4  C   UNL     1     -53.564  46.282  10.229  1.00  0.00     0.042 C 
BRANCH   4   5
HETATM    5  C   UNL     1     -52.754  47.506   9.796  1.00  0.00     0.116 C 
BRANCH   5   6
HETATM    6  C   UNL     1     -53.543  48.770   9.569  1.00  0.00     0.172 C 
HETATM    7  O   UNL     1     -53.585  49.721  10.332  1.00  0.00    -0.648 OA
HETATM    8  O   UNL     1     -54.159  48.840   8.373  1.00  0.00    -0.648 OA
ENDBRANCH   5   6
ENDBRANCH   4   5
ENDBRANCH   3   4
BRANCH   3   9
HETATM    9  C   UNL     1     -52.611  44.904   8.333  1.00  0.00     0.070 C 
BRANCH   9  10
HETATM   10  C   UNL     1     -52.893  44.124   7.069  1.00  0.00    -0.053 A 
HETATM   11  C   UNL     1     -52.154  44.371   5.901  1.00  0.00     0.046 A 
HETATM   12  C   UNL     1     -52.438  43.659   4.745  1.00  0.00     0.099 A 
HETATM   13  C   UNL     1     -53.427  42.681   4.738  1.00  0.00     0.098 A 
HETATM   14  C   UNL     1     -54.182  42.436   5.875  1.00  0.00     0.040 A 
HETATM   15  C   UNL     1     -53.916  43.160   7.041  1.00  0.00     0.010 A 
BRANCH  12  16
HETATM   16  O   UNL     1     -51.755  43.953   3.600  1.00  0.00    -0.358 OA
HETATM   17  H   UNL     1     -52.143  43.779   2.765  1.00  0.00     0.217 HD
ENDBRANCH  12  16
BRANCH  13  18
HETATM   18  O   UNL     1     -53.651  41.929   3.621  1.00  0.00    -0.358 OA
HETATM   19  H   UNL     1     -53.950  42.338   2.832  1.00  0.00     0.217 HD
ENDBRANCH  13  18
ENDBRANCH   9  10
ENDBRANCH   3   9
ENDBRANCH   1   3
TORSDOF 8
ENDMDL
MODEL 9
REMARK VINA RESULT:      -7.2      1.884      6.215
REMARK  8 active torsions:
REMARK  status: ('A' for Active; 'I' for Inactive)
REMARK    1  A    between atoms: O_1  and  C_2 
REMARK    2  A    between atoms: C_2  and  C_3 
REMARK    3  A    between atoms: C_2  and  C_8 
REMARK    4  A    between atoms: C_3  and  C_4 
REMARK    5  A    between atoms: C_4  and  C_5 
REMARK    6  A    between atoms: C_8  and  C_9 
REMARK    7  A    between atoms: C_11  and  O_16 
REMARK    8  A    between atoms: C_12  and  O_15 
ROOT
HETATM    1  O   UNL     1     -53.706  42.404   7.846  1.00  0.00    -0.395 OA
HETATM    2  H   UNL     1     -54.184  42.077   8.624  1.00  0.00     0.210 HD
ENDROOT
BRANCH   1   3
HETATM    3  C   UNL     1     -53.321  43.761   8.060  1.00  0.00     0.122 C 
BRANCH   3   4
HETATM    4  C   UNL     1     -51.870  43.969   7.597  1.00  0.00     0.042 C 
BRANCH   4   5
HETATM    5  C   UNL     1     -51.573  43.345   6.232  1.00  0.00     0.116 C 
BRANCH   5   6
HETATM    6  C   UNL     1     -52.445  43.809   5.093  1.00  0.00     0.172 C 
HETATM    7  O   UNL     1     -52.552  44.963   4.713  1.00  0.00    -0.648 OA
HETATM    8  O   UNL     1     -53.062  42.820   4.419  1.00  0.00    -0.648 OA
ENDBRANCH   5   6
ENDBRANCH   4   5
ENDBRANCH   3   4
BRANCH   3   9
HETATM    9  C   UNL     1     -53.473  44.118   9.549  1.00  0.00     0.070 C 
BRANCH   9  10
HETATM   10  C   UNL     1     -53.524  45.611   9.791  1.00  0.00    -0.053 A 
HETATM   11  C   UNL     1     -54.263  46.444   8.938  1.00  0.00     0.046 A 
HETATM   12  C   UNL     1     -54.285  47.813   9.164  1.00  0.00     0.099 A 
HETATM   13  C   UNL     1     -53.605  48.365  10.245  1.00  0.00     0.098 A 
HETATM   14  C   UNL     1     -52.853  47.561  11.088  1.00  0.00     0.040 A 
HETATM   15  C   UNL     1     -52.810  46.182  10.859  1.00  0.00     0.010 A 
BRANCH  12  16
HETATM   16  O   UNL     1     -54.956  48.620   8.291  1.00  0.00    -0.358 OA
HETATM   17  H   UNL     1     -54.624  49.474   8.092  1.00  0.00     0.217 HD
ENDBRANCH  12  16
BRANCH  13  18
HETATM   18  O   UNL     1     -53.691  49.702  10.509  1.00  0.00    -0.358 OA
HETATM   19  H   UNL     1     -54.341  50.020  11.105  1.00  0.00     0.217 HD
ENDBRANCH  13  18
ENDBRANCH   9  10
ENDBRANCH   3   9
ENDBRANCH   1   3
TORSDOF 8
ENDMDL
