MODEL 1
REMARK VINA RESULT:     -19.0      0.000      0.000
REMARK  8 active torsions:
REMARK  status: ('A' for Active; 'I' for Inactive)
REMARK    1  A    between atoms: O_1  and  C_2 
REMARK    2  A    between atoms: C_2  and  C_3 
REMARK    3  A    between atoms: C_2  and  C_8 
REMARK    4  A    between atoms: C_3  and  C_4 
REMARK    5  A    between atoms: C_4  and  C_5 
REMARK    6  A    between atoms: C_8  and  C_9 
REMARK    7  A    between atoms: C_11  and  O_16 
REMARK    8  A    between atoms: C_12  and  O_15 
ROOT
HETATM    1  O   UNL     1     -54.555  49.370   7.982  1.00  0.00    -0.395 OA
HETATM    2  H   UNL     1     -54.521  49.077   7.058  1.00  0.00     0.210 HD
ENDROOT
BRANCH   1   3
HETATM    3  C   UNL     1     -53.307  49.091   8.615  1.00  0.00     0.122 C 
BRANCH   3   4
HETATM    4  C   UNL     1     -52.314  48.533   7.584  1.00  0.00     0.042 C 
BRANCH   4   5
HETATM    5  C   UNL     1     -52.728  47.174   7.016  1.00  0.00     0.116 C 
BRANCH   5   6
HETATM    6  C   UNL     1     -53.019  47.141   5.537  1.00  0.00     0.172 C 
HETATM    7  O   UNL     1     -53.795  46.376   4.988  1.00  0.00    -0.648 OA
HETATM    8  O   UNL     1     -52.416  48.112   4.824  1.00  0.00    -0.648 OA
ENDBRANCH   5   6
ENDBRANCH   4   5
ENDBRANCH   3   4
BRANCH   3   9
HETATM    9  C   UNL     1     -53.518  48.089   9.764  1.00  0.00     0.070 C 
BRANCH   9  10
HETATM   10  C   UNL     1     -53.413  48.733  11.129  1.00  0.00    -0.053 A 
HETATM   11  C   UNL     1     -53.709  50.094  11.298  1.00  0.00     0.046 A 
HETATM   12  C   UNL     1     -53.590  50.672  12.553  1.00  0.00     0.099 A 
HETATM   13  C   UNL     1     -53.210  49.911  13.653  1.00  0.00     0.098 A 
HETATM   14  C   UNL     1     -52.895  48.568  13.504  1.00  0.00     0.040 A 
HETATM   15  C   UNL     1     -52.994  47.979  12.240  1.00  0.00     0.010 A 
BRANCH  12  16
HETATM   16  O   UNL     1     -53.819  52.011  12.692  1.00  0.00    -0.358 OA
HETATM   17  H   UNL     1     -54.270  52.482  12.018  1.00  0.00     0.217 HD
ENDBRANCH  12  16
BRANCH  13  18
HETATM   18  O   UNL     1     -53.170  50.465  14.900  1.00  0.00    -0.358 OA
HETATM   19  H   UNL     1     -52.345  50.625  15.315  1.00  0.00     0.217 HD
ENDBRANCH  13  18
ENDBRANCH   9  10
ENDBRANCH   3   9
ENDBRANCH   1   3
TORSDOF 8
ENDMDL
MODEL 2
REMARK VINA RESULT:     -18.8      1.220      2.120
REMARK  8 active torsions:
REMARK  status: ('A' for Active; 'I' for Inactive)
REMARK    1  A    between atoms: O_1  and  C_2 
REMARK    2  A    between atoms: C_2  and  C_3 
REMARK    3  A    between atoms: C_2  and  C_8 
REMARK    4  A    between atoms: C_3  and  C_4 
REMARK    5  A    between atoms: C_4  and  C_5 
REMARK    6  A    between atoms: C_8  and  C_9 
REMARK    7  A    between atoms: C_11  and  O_16 
REMARK    8  A    between atoms: C_12  and  O_15 
ROOT
HETATM    1  O   UNL     1     -52.538  49.508   7.443  1.00  0.00    -0.395 OA
HETATM    2  H   UNL     1     -51.706  49.011   7.401  1.00  0.00     0.210 HD
ENDROOT
BRANCH   1   3
HETATM    3  C   UNL     1     -53.393  48.919   8.422  1.00  0.00     0.122 C 
BRANCH   3   4
HETATM    4  C   UNL     1     -54.309  47.880   7.754  1.00  0.00     0.042 C 
BRANCH   4   5
HETATM    5  C   UNL     1     -53.543  46.802   6.984  1.00  0.00     0.116 C 
BRANCH   5   6
HETATM    6  C   UNL     1     -53.356  47.055   5.510  1.00  0.00     0.172 C 
HETATM    7  O   UNL     1     -52.705  47.967   5.028  1.00  0.00    -0.648 OA
HETATM    8  O   UNL     1     -53.897  46.119   4.707  1.00  0.00    -0.648 OA
ENDBRANCH   5   6
ENDBRANCH   4   5
ENDBRANCH   3   4
BRANCH   3   9
HETATM    9  C   UNL     1     -54.226  50.012   9.113  1.00  0.00     0.070 C 
BRANCH   9  10
HETATM   10  C   UNL     1     -53.927  50.130  10.592  1.00  0.00    -0.053 A 
HETATM   11  C   UNL     1     -53.569  48.996  11.337  1.00  0.00     0.046 A 
HETATM   12  C   UNL     1     -53.315  49.119  12.695  1.00  0.00     0.099 A 
HETATM   13  C   UNL     1     -53.382  50.360  13.321  1.00  0.00     0.098 A 
HETATM   14  C   UNL     1     -53.753  51.488  12.606  1.00  0.00     0.040 A 
HETATM   15  C   UNL     1     -54.028  51.373  11.241  1.00  0.00     0.010 A 
BRANCH  12  16
HETATM   16  O   UNL     1     -53.030  47.998  13.422  1.00  0.00    -0.358 OA
HETATM   17  H   UNL     1     -52.672  48.078  14.284  1.00  0.00     0.217 HD
ENDBRANCH  12  16
BRANCH  13  18
HETATM   18  O   UNL     1     -53.056  50.490  14.640  1.00  0.00    -0.358 OA
HETATM   19  H   UNL     1     -53.711  50.366  15.299  1.00  0.00     0.217 HD
ENDBRANCH  13  18
ENDBRANCH   9  10
ENDBRANCH   3   9
ENDBRANCH   1   3
TORSDOF 8
ENDMDL
MODEL 3
REMARK VINA RESULT:     -18.7      2.310      6.944
REMARK  8 active torsions:
REMARK  status: ('A' for Active; 'I' for Inactive)
REMARK    1  A    between atoms: O_1  and  C_2 
REMARK    2  A    between atoms: C_2  and  C_3 
REMARK    3  A    between atoms: C_2  and  C_8 
REMARK    4  A    between atoms: C_3  and  C_4 
REMARK    5  A    between atoms: C_4  and  C_5 
REMARK    6  A    between atoms: C_8  and  C_9 
REMARK    7  A    between atoms: C_11  and  O_16 
REMARK    8  A    between atoms: C_12  and  O_15 
ROOT
HETATM    1  O   UNL     1     -54.752  49.742  15.100  1.00  0.00    -0.395 OA
HETATM    2  H   UNL     1     -54.840  50.705  15.169  1.00  0.00     0.210 HD
ENDROOT
BRANCH   1   3
HETATM    3  C   UNL     1     -53.736  49.423  14.150  1.00  0.00     0.122 C 
BRANCH   3   4
HETATM    4  C   UNL     1     -52.433  49.065  14.882  1.00  0.00     0.042 C 
BRANCH   4   5
HETATM    5  C   UNL     1     -52.307  47.573  15.200  1.00  0.00     0.116 C 
BRANCH   5   6
HETATM    6  C   UNL     1     -52.741  47.156  16.581  1.00  0.00     0.172 C 
HETATM    7  O   UNL     1     -52.026  46.624  17.414  1.00  0.00    -0.648 OA
HETATM    8  O   UNL     1     -54.002  47.503  16.902  1.00  0.00    -0.648 OA
ENDBRANCH   5   6
ENDBRANCH   4   5
ENDBRANCH   3   4
BRANCH   3   9
HETATM    9  C   UNL     1     -53.516  50.616  13.202  1.00  0.00     0.070 C 
BRANCH   9  10
HETATM   10  C   UNL     1     -53.663  50.240  11.744  1.00  0.00    -0.053 A 
HETATM   11  C   UNL     1     -53.877  51.230  10.773  1.00  0.00     0.046 A 
HETATM   12  C   UNL     1     -54.028  50.866   9.443  1.00  0.00     0.099 A 
HETATM   13  C   UNL     1     -53.939  49.533   9.057  1.00  0.00     0.098 A 
HETATM   14  C   UNL     1     -53.747  48.538  10.004  1.00  0.00     0.040 A 
HETATM   15  C   UNL     1     -53.611  48.891  11.349  1.00  0.00     0.010 A 
BRANCH  12  16
HETATM   16  O   UNL     1     -54.299  51.832   8.517  1.00  0.00    -0.358 OA
HETATM   17  H   UNL     1     -54.034  52.718   8.673  1.00  0.00     0.217 HD
ENDBRANCH  12  16
BRANCH  13  18
HETATM   18  O   UNL     1     -54.010  49.186   7.738  1.00  0.00    -0.358 OA
HETATM   19  H   UNL     1     -54.374  49.784   7.116  1.00  0.00     0.217 HD
ENDBRANCH  13  18
ENDBRANCH   9  10
ENDBRANCH   3   9
ENDBRANCH   1   3
TORSDOF 8
ENDMDL
MODEL 4
REMARK VINA RESULT:     -18.4      2.020      2.643
REMARK  8 active torsions:
REMARK  status: ('A' for Active; 'I' for Inactive)
REMARK    1  A    between atoms: O_1  and  C_2 
REMARK    2  A    between atoms: C_2  and  C_3 
REMARK    3  A    between atoms: C_2  and  C_8 
REMARK    4  A    between atoms: C_3  and  C_4 
REMARK    5  A    between atoms: C_4  and  C_5 
REMARK    6  A    between atoms: C_8  and  C_9 
REMARK    7  A    between atoms: C_11  and  O_16 
REMARK    8  A    between atoms: C_12  and  O_15 
ROOT
HETATM    1  O   UNL     1     -53.825  51.491   8.152  1.00  0.00    -0.395 OA
HETATM    2  H   UNL     1     -52.981  51.495   7.674  1.00  0.00     0.210 HD
ENDROOT
BRANCH   1   3
HETATM    3  C   UNL     1     -53.792  50.491   9.169  1.00  0.00     0.122 C 
BRANCH   3   4
HETATM    4  C   UNL     1     -54.822  49.395   8.853  1.00  0.00     0.042 C 
BRANCH   4   5
HETATM    5  C   UNL     1     -54.266  48.275   7.970  1.00  0.00     0.116 C 
BRANCH   5   6
HETATM    6  C   UNL     1     -54.860  46.907   8.192  1.00  0.00     0.172 C 
HETATM    7  O   UNL     1     -54.357  45.855   7.833  1.00  0.00    -0.648 OA
HETATM    8  O   UNL     1     -55.988  46.897   8.927  1.00  0.00    -0.648 OA
ENDBRANCH   5   6
ENDBRANCH   4   5
ENDBRANCH   3   4
BRANCH   3   9
HETATM    9  C   UNL     1     -54.081  51.129  10.539  1.00  0.00     0.070 C 
BRANCH   9  10
HETATM   10  C   UNL     1     -53.667  50.246  11.695  1.00  0.00    -0.053 A 
HETATM   11  C   UNL     1     -53.549  50.777  12.989  1.00  0.00     0.046 A 
HETATM   12  C   UNL     1     -53.151  49.956  14.034  1.00  0.00     0.099 A 
HETATM   13  C   UNL     1     -52.895  48.606  13.820  1.00  0.00     0.098 A 
HETATM   14  C   UNL     1     -52.986  48.067  12.546  1.00  0.00     0.040 A 
HETATM   15  C   UNL     1     -53.370  48.888  11.481  1.00  0.00     0.010 A 
BRANCH  12  16
HETATM   16  O   UNL     1     -52.979  50.499  15.276  1.00  0.00    -0.358 OA
HETATM   17  H   UNL     1     -52.617  49.981  15.967  1.00  0.00     0.217 HD
ENDBRANCH  12  16
BRANCH  13  18
HETATM   18  O   UNL     1     -52.579  47.786  14.864  1.00  0.00    -0.358 OA
HETATM   19  H   UNL     1     -52.484  46.864  14.724  1.00  0.00     0.217 HD
ENDBRANCH  13  18
ENDBRANCH   9  10
ENDBRANCH   3   9
ENDBRANCH   1   3
TORSDOF 8
ENDMDL
MODEL 5
REMARK VINA RESULT:     -18.4      1.194      2.085
REMARK  8 active torsions:
REMARK  status: ('A' for Active; 'I' for Inactive)
REMARK    1  A    between atoms: O_1  and  C_2 
REMARK    2  A    between atoms: C_2  and  C_3 
REMARK    3  A    between atoms: C_2  and  C_8 
REMARK    4  A    between atoms: C_3  and  C_4 
REMARK    5  A    between atoms: C_4  and  C_5 
REMARK    6  A    between atoms: C_8  and  C_9 
REMARK    7  A    between atoms: C_11  and  O_16 
REMARK    8  A    between atoms: C_12  and  O_15 
ROOT
HETATM    1  O   UNL     1     -55.498  46.937   8.554  1.00  0.00    -0.395 OA
HETATM    2  H   UNL     1     -56.174  47.260   9.169  1.00  0.00     0.210 HD
ENDROOT
BRANCH   1   3
HETATM    3  C   UNL     1     -54.281  47.650   8.767  1.00  0.00     0.122 C 
BRANCH   3   4
HETATM    4  C   UNL     1     -53.146  46.995   7.964  1.00  0.00     0.042 C 
BRANCH   4   5
HETATM    5  C   UNL     1     -52.532  47.922   6.913  1.00  0.00     0.116 C 
BRANCH   5   6
HETATM    6  C   UNL     1     -52.856  47.596   5.478  1.00  0.00     0.172 C 
HETATM    7  O   UNL     1     -53.703  46.798   5.111  1.00  0.00    -0.648 OA
HETATM    8  O   UNL     1     -52.194  48.338   4.569  1.00  0.00    -0.648 OA
ENDBRANCH   5   6
ENDBRANCH   4   5
ENDBRANCH   3   4
BRANCH   3   9
HETATM    9  C   UNL     1     -53.943  47.669  10.268  1.00  0.00     0.070 C 
BRANCH   9  10
HETATM   10  C   UNL     1     -53.860  49.070  10.833  1.00  0.00    -0.053 A 
HETATM   11  C   UNL     1     -53.651  49.273  12.205  1.00  0.00     0.046 A 
HETATM   12  C   UNL     1     -53.595  50.564  12.708  1.00  0.00     0.099 A 
HETATM   13  C   UNL     1     -53.715  51.662  11.863  1.00  0.00     0.098 A 
HETATM   14  C   UNL     1     -53.942  51.483  10.506  1.00  0.00     0.040 A 
HETATM   15  C   UNL     1     -54.017  50.186   9.991  1.00  0.00     0.010 A 
BRANCH  12  16
HETATM   16  O   UNL     1     -53.455  50.747  14.055  1.00  0.00    -0.358 OA
HETATM   17  H   UNL     1     -52.897  51.426  14.379  1.00  0.00     0.217 HD
ENDBRANCH  12  16
BRANCH  13  18
HETATM   18  O   UNL     1     -53.583  52.930  12.349  1.00  0.00    -0.358 OA
HETATM   19  H   UNL     1     -52.890  53.133  12.946  1.00  0.00     0.217 HD
ENDBRANCH  13  18
ENDBRANCH   9  10
ENDBRANCH   3   9
ENDBRANCH   1   3
TORSDOF 8
ENDMDL
MODEL 6
REMARK VINA RESULT:     -18.3      2.256      7.022
REMARK  8 active torsions:
REMARK  status: ('A' for Active; 'I' for Inactive)
REMARK    1  A    between atoms: O_1  and  C_2 
REMARK    2  A    between atoms: C_2  and  C_3 
REMARK    3  A    between atoms: C_2  and  C_8 
REMARK    4  A    between atoms: C_3  and  C_4 
REMARK    5  A    between atoms: C_4  and  C_5 
REMARK    6  A    between atoms: C_8  and  C_9 
REMARK    7  A    between atoms: C_11  and  O_16 
REMARK    8  A    between atoms: C_12  and  O_15 
ROOT
HETATM    1  O   UNL     1     -53.525  51.201  13.763  1.00  0.00    -0.395 OA
HETATM    2  H   UNL     1     -52.583  51.427  13.711  1.00  0.00     0.210 HD
ENDROOT
BRANCH   1   3
HETATM    3  C   UNL     1     -53.665  49.812  14.060  1.00  0.00     0.122 C 
BRANCH   3   4
HETATM    4  C   UNL     1     -52.698  49.422  15.190  1.00  0.00     0.042 C 
BRANCH   4   5
HETATM    5  C   UNL     1     -52.491  47.912  15.317  1.00  0.00     0.116 C 
BRANCH   5   6
HETATM    6  C   UNL     1     -52.932  47.295  16.619  1.00  0.00     0.172 C 
HETATM    7  O   UNL     1     -52.204  46.713  17.407  1.00  0.00    -0.648 OA
HETATM    8  O   UNL     1     -54.224  47.511  16.933  1.00  0.00    -0.648 OA
ENDBRANCH   5   6
ENDBRANCH   4   5
ENDBRANCH   3   4
BRANCH   3   9
HETATM    9  C   UNL     1     -53.387  48.978  12.797  1.00  0.00     0.070 C 
BRANCH   9  10
HETATM   10  C   UNL     1     -53.613  49.757  11.520  1.00  0.00    -0.053 A 
HETATM   11  C   UNL     1     -53.703  49.091  10.287  1.00  0.00     0.046 A 
HETATM   12  C   UNL     1     -53.892  49.823   9.124  1.00  0.00     0.099 A 
HETATM   13  C   UNL     1     -54.024  51.207   9.168  1.00  0.00     0.098 A 
HETATM   14  C   UNL     1     -53.919  51.884  10.373  1.00  0.00     0.040 A 
HETATM   15  C   UNL     1     -53.711  51.159  11.550  1.00  0.00     0.010 A 
BRANCH  12  16
HETATM   16  O   UNL     1     -53.914  49.169   7.925  1.00  0.00    -0.358 OA
HETATM   17  H   UNL     1     -53.437  49.513   7.195  1.00  0.00     0.217 HD
ENDBRANCH  12  16
BRANCH  13  18
HETATM   18  O   UNL     1     -54.288  51.915   8.032  1.00  0.00    -0.358 OA
HETATM   19  H   UNL     1     -53.609  52.062   7.403  1.00  0.00     0.217 HD
ENDBRANCH  13  18
ENDBRANCH   9  10
ENDBRANCH   3   9
ENDBRANCH   1   3
TORSDOF 8
ENDMDL
MODEL 7
REMARK VINA RESULT:     -18.3      1.576      2.058
REMARK  8 active torsions:
REMARK  status: ('A' for Active; 'I' for Inactive)
REMARK    1  A    between atoms: O_1  and  C_2 
REMARK    2  A    between atoms: C_2  and  C_3 
REMARK    3  A    between atoms: C_2  and  C_8 
REMARK    4  A    between atoms: C_3  and  C_4 
REMARK    5  A    between atoms: C_4  and  C_5 
REMARK    6  A    between atoms: C_8  and  C_9 
REMARK    7  A    between atoms: C_11  and  O_16 
REMARK    8  A    between atoms: C_12  and  O_15 
ROOT
HETATM    1  O   UNL     1     -55.178  46.902   8.144  1.00  0.00    -0.395 OA
HETATM    2  H   UNL     1     -55.982  47.418   7.978  1.00  0.00     0.210 HD
ENDROOT
BRANCH   1   3
HETATM    3  C   UNL     1     -54.129  47.777   8.558  1.00  0.00     0.122 C 
BRANCH   3   4
HETATM    4  C   UNL     1     -52.788  47.286   7.989  1.00  0.00     0.042 C 
BRANCH   4   5
HETATM    5  C   UNL     1     -52.293  48.114   6.801  1.00  0.00     0.116 C 
BRANCH   5   6
HETATM    6  C   UNL     1     -52.793  47.684   5.446  1.00  0.00     0.172 C 
HETATM    7  O   UNL     1     -53.706  46.899   5.249  1.00  0.00    -0.648 OA
HETATM    8  O   UNL     1     -52.213  48.315   4.407  1.00  0.00    -0.648 OA
ENDBRANCH   5   6
ENDBRANCH   4   5
ENDBRANCH   3   4
BRANCH   3   9
HETATM    9  C   UNL     1     -54.077  47.839  10.095  1.00  0.00     0.070 C 
BRANCH   9  10
HETATM   10  C   UNL     1     -53.971  49.253  10.620  1.00  0.00    -0.053 A 
HETATM   11  C   UNL     1     -54.088  50.346   9.749  1.00  0.00     0.046 A 
HETATM   12  C   UNL     1     -53.971  51.637  10.245  1.00  0.00     0.099 A 
HETATM   13  C   UNL     1     -53.768  51.860  11.603  1.00  0.00     0.098 A 
HETATM   14  C   UNL     1     -53.630  50.793  12.477  1.00  0.00     0.040 A 
HETATM   15  C   UNL     1     -53.729  49.488  11.986  1.00  0.00     0.010 A 
BRANCH  12  16
HETATM   16  O   UNL     1     -54.024  52.689   9.376  1.00  0.00    -0.358 OA
HETATM   17  H   UNL     1     -54.795  53.220   9.330  1.00  0.00     0.217 HD
ENDBRANCH  12  16
BRANCH  13  18
HETATM   18  O   UNL     1     -53.730  53.131  12.099  1.00  0.00    -0.358 OA
HETATM   19  H   UNL     1     -53.820  53.862  11.520  1.00  0.00     0.217 HD
ENDBRANCH  13  18
ENDBRANCH   9  10
ENDBRANCH   3   9
ENDBRANCH   1   3
TORSDOF 8
ENDMDL
MODEL 8
REMARK VINA RESULT:     -18.3      2.184      2.690
REMARK  8 active torsions:
REMARK  status: ('A' for Active; 'I' for Inactive)
REMARK    1  A    between atoms: O_1  and  C_2 
REMARK    2  A    between atoms: C_2  and  C_3 
REMARK    3  A    between atoms: C_2  and  C_8 
REMARK    4  A    between atoms: C_3  and  C_4 
REMARK    5  A    between atoms: C_4  and  C_5 
REMARK    6  A    between atoms: C_8  and  C_9 
REMARK    7  A    between atoms: C_11  and  O_16 
REMARK    8  A    between atoms: C_12  and  O_15 
ROOT
HETATM    1  O   UNL     1     -52.547  49.104   7.274  1.00  0.00    -0.395 OA
HETATM    2  H   UNL     1     -51.892  49.735   7.613  1.00  0.00     0.210 HD
ENDROOT
BRANCH   1   3
HETATM    3  C   UNL     1     -53.277  48.544   8.365  1.00  0.00     0.122 C 
BRANCH   3   4
HETATM    4  C   UNL     1     -54.041  47.296   7.893  1.00  0.00     0.042 C 
BRANCH   4   5
HETATM    5  C   UNL     1     -55.051  46.779   8.920  1.00  0.00     0.116 C 
BRANCH   5   6
HETATM    6  C   UNL     1     -55.238  45.284   8.961  1.00  0.00     0.172 C 
HETATM    7  O   UNL     1     -54.593  44.511   9.651  1.00  0.00    -0.648 OA
HETATM    8  O   UNL     1     -56.272  44.827   8.228  1.00  0.00    -0.648 OA
ENDBRANCH   5   6
ENDBRANCH   4   5
ENDBRANCH   3   4
BRANCH   3   9
HETATM    9  C   UNL     1     -54.248  49.592   8.936  1.00  0.00     0.070 C 
BRANCH   9  10
HETATM   10  C   UNL     1     -53.969  49.922  10.386  1.00  0.00    -0.053 A 
HETATM   11  C   UNL     1     -53.950  51.255  10.821  1.00  0.00     0.046 A 
HETATM   12  C   UNL     1     -53.674  51.541  12.150  1.00  0.00     0.099 A 
HETATM   13  C   UNL     1     -53.444  50.517  13.064  1.00  0.00     0.098 A 
HETATM   14  C   UNL     1     -53.439  49.194  12.649  1.00  0.00     0.040 A 
HETATM   15  C   UNL     1     -53.699  48.895  11.308  1.00  0.00     0.010 A 
BRANCH  12  16
HETATM   16  O   UNL     1     -53.596  52.845  12.547  1.00  0.00    -0.358 OA
HETATM   17  H   UNL     1     -54.379  53.332  12.713  1.00  0.00     0.217 HD
ENDBRANCH  12  16
BRANCH  13  18
HETATM   18  O   UNL     1     -53.250  50.797  14.385  1.00  0.00    -0.358 OA
HETATM   19  H   UNL     1     -52.418  51.112  14.680  1.00  0.00     0.217 HD
ENDBRANCH  13  18
ENDBRANCH   9  10
ENDBRANCH   3   9
ENDBRANCH   1   3
TORSDOF 8
ENDMDL
MODEL 9
REMARK VINA RESULT:     -18.1      2.221      3.055
REMARK  8 active torsions:
REMARK  status: ('A' for Active; 'I' for Inactive)
REMARK    1  A    between atoms: O_1  and  C_2 
REMARK    2  A    between atoms: C_2  and  C_3 
REMARK    3  A    between atoms: C_2  and  C_8 
REMARK    4  A    between atoms: C_3  and  C_4 
REMARK    5  A    between atoms: C_4  and  C_5 
REMARK    6  A    between atoms: C_8  and  C_9 
REMARK    7  A    between atoms: C_11  and  O_16 
REMARK    8  A    between atoms: C_12  and  O_15 
ROOT
HETATM    1  O   UNL     1     -52.572  49.436   7.602  1.00  0.00    -0.395 OA
HETATM    2  H   UNL     1     -52.295  50.310   7.919  1.00  0.00     0.210 HD
ENDROOT
BRANCH   1   3
HETATM    3  C   UNL     1     -53.409  48.819   8.579  1.00  0.00     0.122 C 
BRANCH   3   4
HETATM    4  C   UNL     1     -54.287  47.749   7.910  1.00  0.00     0.042 C 
BRANCH   4   5
HETATM    5  C   UNL     1     -55.303  47.115   8.863  1.00  0.00     0.116 C 
BRANCH   5   6
HETATM    6  C   UNL     1     -55.356  45.609   8.859  1.00  0.00     0.172 C 
HETATM    7  O   UNL     1     -54.416  44.870   9.103  1.00  0.00    -0.648 OA
HETATM    8  O   UNL     1     -56.582  45.091   8.654  1.00  0.00    -0.648 OA
ENDBRANCH   5   6
ENDBRANCH   4   5
ENDBRANCH   3   4
BRANCH   3   9
HETATM    9  C   UNL     1     -54.280  49.884   9.268  1.00  0.00     0.070 C 
BRANCH   9  10
HETATM   10  C   UNL     1     -53.948  50.053  10.734  1.00  0.00    -0.053 A 
HETATM   11  C   UNL     1     -53.601  48.941  11.517  1.00  0.00     0.046 A 
HETATM   12  C   UNL     1     -53.316  49.112  12.865  1.00  0.00     0.099 A 
HETATM   13  C   UNL     1     -53.343  50.377  13.442  1.00  0.00     0.098 A 
HETATM   14  C   UNL     1     -53.703  51.485  12.690  1.00  0.00     0.040 A 
HETATM   15  C   UNL     1     -54.009  51.323  11.335  1.00  0.00     0.010 A 
BRANCH  12  16
HETATM   16  O   UNL     1     -53.042  48.014  13.629  1.00  0.00    -0.358 OA
HETATM   17  H   UNL     1     -53.495  47.209  13.473  1.00  0.00     0.217 HD
ENDBRANCH  12  16
BRANCH  13  18
HETATM   18  O   UNL     1     -52.988  50.551  14.748  1.00  0.00    -0.358 OA
HETATM   19  H   UNL     1     -53.509  51.094  15.307  1.00  0.00     0.217 HD
ENDBRANCH  13  18
ENDBRANCH   9  10
ENDBRANCH   3   9
ENDBRANCH   1   3
TORSDOF 8
ENDMDL
