MODEL 1
REMARK VINA RESULT:      -8.2      0.000      0.000
REMARK  8 active torsions:
REMARK  status: ('A' for Active; 'I' for Inactive)
REMARK    1  A    between atoms: O_1  and  C_2 
REMARK    2  A    between atoms: C_2  and  C_3 
REMARK    3  A    between atoms: C_2  and  C_8 
REMARK    4  A    between atoms: C_3  and  C_4 
REMARK    5  A    between atoms: C_4  and  C_5 
REMARK    6  A    between atoms: C_8  and  C_9 
REMARK    7  A    between atoms: C_11  and  O_16 
REMARK    8  A    between atoms: C_12  and  O_15 
ROOT
HETATM    1  O   UNL     1     -52.549  48.348   7.971  1.00  0.00    -0.395 OA
HETATM    2  H   UNL     1     -52.036  47.815   7.343  1.00  0.00     0.210 HD
ENDROOT
BRANCH   1   3
HETATM    3  C   UNL     1     -53.059  47.506   9.004  1.00  0.00     0.122 C 
BRANCH   3   4
HETATM    4  C   UNL     1     -53.444  48.356  10.225  1.00  0.00     0.042 C 
BRANCH   4   5
HETATM    5  C   UNL     1     -54.524  49.398   9.924  1.00  0.00     0.116 C 
BRANCH   5   6
HETATM    6  C   UNL     1     -54.049  50.823   9.809  1.00  0.00     0.172 C 
HETATM    7  O   UNL     1     -53.868  51.584  10.745  1.00  0.00    -0.648 OA
HETATM    8  O   UNL     1     -53.726  51.208   8.559  1.00  0.00    -0.648 OA
ENDBRANCH   5   6
ENDBRANCH   4   5
ENDBRANCH   3   4
BRANCH   3   9
HETATM    9  C   UNL     1     -52.005  46.452   9.387  1.00  0.00     0.070 C 
BRANCH   9  10
HETATM   10  C   UNL     1     -52.205  45.136   8.666  1.00  0.00    -0.053 A 
HETATM   11  C   UNL     1     -53.430  44.843   8.048  1.00  0.00     0.046 A 
HETATM   12  C   UNL     1     -53.602  43.624   7.407  1.00  0.00     0.099 A 
HETATM   13  C   UNL     1     -52.563  42.701   7.346  1.00  0.00     0.098 A 
HETATM   14  C   UNL     1     -51.351  42.965   7.967  1.00  0.00     0.040 A 
HETATM   15  C   UNL     1     -51.173  44.182   8.631  1.00  0.00     0.010 A 
BRANCH  12  16
HETATM   16  O   UNL     1     -54.819  43.326   6.864  1.00  0.00    -0.358 OA
HETATM   17  H   UNL     1     -54.876  43.030   5.977  1.00  0.00     0.217 HD
ENDBRANCH  12  16
BRANCH  13  18
HETATM   18  O   UNL     1     -52.710  41.537   6.648  1.00  0.00    -0.358 OA
HETATM   19  H   UNL     1     -52.407  40.730   7.015  1.00  0.00     0.217 HD
ENDBRANCH  13  18
ENDBRANCH   9  10
ENDBRANCH   3   9
ENDBRANCH   1   3
TORSDOF 8
ENDMDL
MODEL 2
REMARK VINA RESULT:      -7.7      0.682      1.686
REMARK  8 active torsions:
REMARK  status: ('A' for Active; 'I' for Inactive)
REMARK    1  A    between atoms: O_1  and  C_2 
REMARK    2  A    between atoms: C_2  and  C_3 
REMARK    3  A    between atoms: C_2  and  C_8 
REMARK    4  A    between atoms: C_3  and  C_4 
REMARK    5  A    between atoms: C_4  and  C_5 
REMARK    6  A    between atoms: C_8  and  C_9 
REMARK    7  A    between atoms: C_11  and  O_16 
REMARK    8  A    between atoms: C_12  and  O_15 
ROOT
HETATM    1  O   UNL     1     -52.565  48.383   8.002  1.00  0.00    -0.395 OA
HETATM    2  H   UNL     1     -52.908  48.104   7.138  1.00  0.00     0.210 HD
ENDROOT
BRANCH   1   3
HETATM    3  C   UNL     1     -53.106  47.545   9.022  1.00  0.00     0.122 C 
BRANCH   3   4
HETATM    4  C   UNL     1     -53.498  48.396  10.240  1.00  0.00     0.042 C 
BRANCH   4   5
HETATM    5  C   UNL     1     -54.556  49.456   9.925  1.00  0.00     0.116 C 
BRANCH   5   6
HETATM    6  C   UNL     1     -54.056  50.874   9.823  1.00  0.00     0.172 C 
HETATM    7  O   UNL     1     -53.841  51.615  10.768  1.00  0.00    -0.648 OA
HETATM    8  O   UNL     1     -53.752  51.273   8.573  1.00  0.00    -0.648 OA
ENDBRANCH   5   6
ENDBRANCH   4   5
ENDBRANCH   3   4
BRANCH   3   9
HETATM    9  C   UNL     1     -52.075  46.473   9.417  1.00  0.00     0.070 C 
BRANCH   9  10
HETATM   10  C   UNL     1     -52.259  45.177   8.659  1.00  0.00    -0.053 A 
HETATM   11  C   UNL     1     -51.183  44.292   8.492  1.00  0.00     0.046 A 
HETATM   12  C   UNL     1     -51.364  43.116   7.778  1.00  0.00     0.099 A 
HETATM   13  C   UNL     1     -52.610  42.790   7.251  1.00  0.00     0.098 A 
HETATM   14  C   UNL     1     -53.680  43.660   7.388  1.00  0.00     0.040 A 
HETATM   15  C   UNL     1     -53.505  44.856   8.090  1.00  0.00     0.010 A 
BRANCH  12  16
HETATM   16  O   UNL     1     -50.294  42.294   7.569  1.00  0.00    -0.358 OA
HETATM   17  H   UNL     1     -50.427  41.426   7.244  1.00  0.00     0.217 HD
ENDBRANCH  12  16
BRANCH  13  18
HETATM   18  O   UNL     1     -52.803  41.597   6.617  1.00  0.00    -0.358 OA
HETATM   19  H   UNL     1     -53.118  41.581   5.734  1.00  0.00     0.217 HD
ENDBRANCH  13  18
ENDBRANCH   9  10
ENDBRANCH   3   9
ENDBRANCH   1   3
TORSDOF 8
ENDMDL
MODEL 3
REMARK VINA RESULT:      -7.6      2.452      2.928
REMARK  8 active torsions:
REMARK  status: ('A' for Active; 'I' for Inactive)
REMARK    1  A    between atoms: O_1  and  C_2 
REMARK    2  A    between atoms: C_2  and  C_3 
REMARK    3  A    between atoms: C_2  and  C_8 
REMARK    4  A    between atoms: C_3  and  C_4 
REMARK    5  A    between atoms: C_4  and  C_5 
REMARK    6  A    between atoms: C_8  and  C_9 
REMARK    7  A    between atoms: C_11  and  O_16 
REMARK    8  A    between atoms: C_12  and  O_15 
ROOT
HETATM    1  O   UNL     1     -52.616  48.528   8.098  1.00  0.00    -0.395 OA
HETATM    2  H   UNL     1     -51.981  47.849   7.821  1.00  0.00     0.210 HD
ENDROOT
BRANCH   1   3
HETATM    3  C   UNL     1     -53.558  47.956   9.004  1.00  0.00     0.122 C 
BRANCH   3   4
HETATM    4  C   UNL     1     -54.851  48.787   9.002  1.00  0.00     0.042 C 
BRANCH   4   5
HETATM    5  C   UNL     1     -54.904  49.830  10.121  1.00  0.00     0.116 C 
BRANCH   5   6
HETATM    6  C   UNL     1     -54.144  51.106   9.865  1.00  0.00     0.172 C 
HETATM    7  O   UNL     1     -53.721  51.859  10.727  1.00  0.00    -0.648 OA
HETATM    8  O   UNL     1     -53.858  51.340   8.570  1.00  0.00    -0.648 OA
ENDBRANCH   5   6
ENDBRANCH   4   5
ENDBRANCH   3   4
BRANCH   3   9
HETATM    9  C   UNL     1     -52.953  47.895  10.418  1.00  0.00     0.070 C 
BRANCH   9  10
HETATM   10  C   UNL     1     -52.703  46.479  10.887  1.00  0.00    -0.053 A 
HETATM   11  C   UNL     1     -53.482  45.420  10.398  1.00  0.00     0.046 A 
HETATM   12  C   UNL     1     -53.250  44.129  10.853  1.00  0.00     0.099 A 
HETATM   13  C   UNL     1     -52.234  43.870  11.767  1.00  0.00     0.098 A 
HETATM   14  C   UNL     1     -51.466  44.906  12.277  1.00  0.00     0.040 A 
HETATM   15  C   UNL     1     -51.702  46.213  11.839  1.00  0.00     0.010 A 
BRANCH  12  16
HETATM   16  O   UNL     1     -54.057  43.117  10.418  1.00  0.00    -0.358 OA
HETATM   17  H   UNL     1     -53.981  42.803   9.538  1.00  0.00     0.217 HD
ENDBRANCH  12  16
BRANCH  13  18
HETATM   18  O   UNL     1     -51.959  42.590  12.153  1.00  0.00    -0.358 OA
HETATM   19  H   UNL     1     -52.599  42.095  12.624  1.00  0.00     0.217 HD
ENDBRANCH  13  18
ENDBRANCH   9  10
ENDBRANCH   3   9
ENDBRANCH   1   3
TORSDOF 8
ENDMDL
MODEL 4
REMARK VINA RESULT:      -7.4      2.181      3.016
REMARK  8 active torsions:
REMARK  status: ('A' for Active; 'I' for Inactive)
REMARK    1  A    between atoms: O_1  and  C_2 
REMARK    2  A    between atoms: C_2  and  C_3 
REMARK    3  A    between atoms: C_2  and  C_8 
REMARK    4  A    between atoms: C_3  and  C_4 
REMARK    5  A    between atoms: C_4  and  C_5 
REMARK    6  A    between atoms: C_8  and  C_9 
REMARK    7  A    between atoms: C_11  and  O_16 
REMARK    8  A    between atoms: C_12  and  O_15 
ROOT
HETATM    1  O   UNL     1     -54.687  44.858   9.046  1.00  0.00    -0.395 OA
HETATM    2  H   UNL     1     -54.315  44.852   8.150  1.00  0.00     0.210 HD
ENDROOT
BRANCH   1   3
HETATM    3  C   UNL     1     -53.630  44.752  10.000  1.00  0.00     0.122 C 
BRANCH   3   4
HETATM    4  C   UNL     1     -53.309  46.141  10.576  1.00  0.00     0.042 C 
BRANCH   4   5
HETATM    5  C   UNL     1     -52.267  46.910   9.760  1.00  0.00     0.116 C 
BRANCH   5   6
HETATM    6  C   UNL     1     -52.812  47.824   8.693  1.00  0.00     0.172 C 
HETATM    7  O   UNL     1     -52.143  48.404   7.853  1.00  0.00    -0.648 OA
HETATM    8  O   UNL     1     -54.156  47.901   8.651  1.00  0.00    -0.648 OA
ENDBRANCH   5   6
ENDBRANCH   4   5
ENDBRANCH   3   4
BRANCH   3   9
HETATM    9  C   UNL     1     -52.386  44.139   9.335  1.00  0.00     0.070 C 
BRANCH   9  10
HETATM   10  C   UNL     1     -52.639  43.704   7.908  1.00  0.00    -0.053 A 
HETATM   11  C   UNL     1     -52.405  44.587   6.843  1.00  0.00     0.046 A 
HETATM   12  C   UNL     1     -52.659  44.178   5.542  1.00  0.00     0.099 A 
HETATM   13  C   UNL     1     -53.117  42.891   5.279  1.00  0.00     0.098 A 
HETATM   14  C   UNL     1     -53.373  42.010   6.319  1.00  0.00     0.040 A 
HETATM   15  C   UNL     1     -53.137  42.417   7.635  1.00  0.00     0.010 A 
BRANCH  12  16
HETATM   16  O   UNL     1     -52.487  45.067   4.520  1.00  0.00    -0.358 OA
HETATM   17  H   UNL     1     -51.788  45.690   4.554  1.00  0.00     0.217 HD
ENDBRANCH  12  16
BRANCH  13  18
HETATM   18  O   UNL     1     -53.292  42.466   3.994  1.00  0.00    -0.358 OA
HETATM   19  H   UNL     1     -52.980  41.622   3.733  1.00  0.00     0.217 HD
ENDBRANCH  13  18
ENDBRANCH   9  10
ENDBRANCH   3   9
ENDBRANCH   1   3
TORSDOF 8
ENDMDL
MODEL 5
REMARK VINA RESULT:      -7.3      1.420      1.700
REMARK  8 active torsions:
REMARK  status: ('A' for Active; 'I' for Inactive)
REMARK    1  A    between atoms: O_1  and  C_2 
REMARK    2  A    between atoms: C_2  and  C_3 
REMARK    3  A    between atoms: C_2  and  C_8 
REMARK    4  A    between atoms: C_3  and  C_4 
REMARK    5  A    between atoms: C_4  and  C_5 
REMARK    6  A    between atoms: C_8  and  C_9 
REMARK    7  A    between atoms: C_11  and  O_16 
REMARK    8  A    between atoms: C_12  and  O_15 
ROOT
HETATM    1  O   UNL     1     -52.104  48.257   7.812  1.00  0.00    -0.395 OA
HETATM    2  H   UNL     1     -52.624  48.156   6.999  1.00  0.00     0.210 HD
ENDROOT
BRANCH   1   3
HETATM    3  C   UNL     1     -52.652  47.425   8.834  1.00  0.00     0.122 C 
BRANCH   3   4
HETATM    4  C   UNL     1     -53.010  48.277  10.062  1.00  0.00     0.042 C 
BRANCH   4   5
HETATM    5  C   UNL     1     -54.500  48.613  10.154  1.00  0.00     0.116 C 
BRANCH   5   6
HETATM    6  C   UNL     1     -55.348  48.164   8.991  1.00  0.00     0.172 C 
HETATM    7  O   UNL     1     -56.168  47.262   9.025  1.00  0.00    -0.648 OA
HETATM    8  O   UNL     1     -55.215  48.910   7.878  1.00  0.00    -0.648 OA
ENDBRANCH   5   6
ENDBRANCH   4   5
ENDBRANCH   3   4
BRANCH   3   9
HETATM    9  C   UNL     1     -51.642  46.327   9.210  1.00  0.00     0.070 C 
BRANCH   9  10
HETATM   10  C   UNL     1     -51.958  44.994   8.567  1.00  0.00    -0.053 A 
HETATM   11  C   UNL     1     -53.207  44.773   7.968  1.00  0.00     0.046 A 
HETATM   12  C   UNL     1     -53.487  43.539   7.399  1.00  0.00     0.099 A 
HETATM   13  C   UNL     1     -52.532  42.528   7.389  1.00  0.00     0.098 A 
HETATM   14  C   UNL     1     -51.299  42.721   7.993  1.00  0.00     0.040 A 
HETATM   15  C   UNL     1     -51.012  43.954   8.586  1.00  0.00     0.010 A 
BRANCH  12  16
HETATM   16  O   UNL     1     -54.729  43.316   6.875  1.00  0.00    -0.358 OA
HETATM   17  H   UNL     1     -55.384  43.984   6.923  1.00  0.00     0.217 HD
ENDBRANCH  12  16
BRANCH  13  18
HETATM   18  O   UNL     1     -52.783  41.343   6.760  1.00  0.00    -0.358 OA
HETATM   19  H   UNL     1     -52.132  40.960   6.206  1.00  0.00     0.217 HD
ENDBRANCH  13  18
ENDBRANCH   9  10
ENDBRANCH   3   9
ENDBRANCH   1   3
TORSDOF 8
ENDMDL
MODEL 6
REMARK VINA RESULT:      -7.2      2.122      3.050
REMARK  8 active torsions:
REMARK  status: ('A' for Active; 'I' for Inactive)
REMARK    1  A    between atoms: O_1  and  C_2 
REMARK    2  A    between atoms: C_2  and  C_3 
REMARK    3  A    between atoms: C_2  and  C_8 
REMARK    4  A    between atoms: C_3  and  C_4 
REMARK    5  A    between atoms: C_4  and  C_5 
REMARK    6  A    between atoms: C_8  and  C_9 
REMARK    7  A    between atoms: C_11  and  O_16 
REMARK    8  A    between atoms: C_12  and  O_15 
ROOT
HETATM    1  O   UNL     1     -54.482  43.978  10.285  1.00  0.00    -0.395 OA
HETATM    2  H   UNL     1     -55.311  44.213   9.840  1.00  0.00     0.210 HD
ENDROOT
BRANCH   1   3
HETATM    3  C   UNL     1     -53.381  44.526   9.562  1.00  0.00     0.122 C 
BRANCH   3   4
HETATM    4  C   UNL     1     -53.033  45.916  10.120  1.00  0.00     0.042 C 
BRANCH   4   5
HETATM    5  C   UNL     1     -54.024  47.004   9.701  1.00  0.00     0.116 C 
BRANCH   5   6
HETATM    6  C   UNL     1     -53.421  48.338   9.340  1.00  0.00     0.172 C 
HETATM    7  O   UNL     1     -52.980  48.638   8.243  1.00  0.00    -0.648 OA
HETATM    8  O   UNL     1     -53.483  49.264  10.316  1.00  0.00    -0.648 OA
ENDBRANCH   5   6
ENDBRANCH   4   5
ENDBRANCH   3   4
BRANCH   3   9
HETATM    9  C   UNL     1     -53.731  44.614   8.066  1.00  0.00     0.070 C 
BRANCH   9  10
HETATM   10  C   UNL     1     -52.691  43.963   7.182  1.00  0.00    -0.053 A 
HETATM   11  C   UNL     1     -52.694  44.187   5.797  1.00  0.00     0.046 A 
HETATM   12  C   UNL     1     -51.743  43.568   4.998  1.00  0.00     0.099 A 
HETATM   13  C   UNL     1     -50.768  42.750   5.560  1.00  0.00     0.098 A 
HETATM   14  C   UNL     1     -50.760  42.500   6.924  1.00  0.00     0.040 A 
HETATM   15  C   UNL     1     -51.724  43.105   7.736  1.00  0.00     0.010 A 
BRANCH  12  16
HETATM   16  O   UNL     1     -51.795  43.744   3.645  1.00  0.00    -0.358 OA
HETATM   17  H   UNL     1     -52.289  44.454   3.284  1.00  0.00     0.217 HD
ENDBRANCH  12  16
BRANCH  13  18
HETATM   18  O   UNL     1     -49.788  42.205   4.782  1.00  0.00    -0.358 OA
HETATM   19  H   UNL     1     -49.685  41.274   4.741  1.00  0.00     0.217 HD
ENDBRANCH  13  18
ENDBRANCH   9  10
ENDBRANCH   3   9
ENDBRANCH   1   3
TORSDOF 8
ENDMDL
MODEL 7
REMARK VINA RESULT:      -7.1      1.896      5.824
REMARK  8 active torsions:
REMARK  status: ('A' for Active; 'I' for Inactive)
REMARK    1  A    between atoms: O_1  and  C_2 
REMARK    2  A    between atoms: C_2  and  C_3 
REMARK    3  A    between atoms: C_2  and  C_8 
REMARK    4  A    between atoms: C_3  and  C_4 
REMARK    5  A    between atoms: C_4  and  C_5 
REMARK    6  A    between atoms: C_8  and  C_9 
REMARK    7  A    between atoms: C_11  and  O_16 
REMARK    8  A    between atoms: C_12  and  O_15 
ROOT
HETATM    1  O   UNL     1     -51.259  44.139   9.298  1.00  0.00    -0.395 OA
HETATM    2  H   UNL     1     -50.511  43.657   8.912  1.00  0.00     0.210 HD
ENDROOT
BRANCH   1   3
HETATM    3  C   UNL     1     -52.481  43.610   8.783  1.00  0.00     0.122 C 
BRANCH   3   4
HETATM    4  C   UNL     1     -52.648  44.025   7.312  1.00  0.00     0.042 C 
BRANCH   4   5
HETATM    5  C   UNL     1     -53.734  43.235   6.578  1.00  0.00     0.116 C 
BRANCH   5   6
HETATM    6  C   UNL     1     -54.931  44.030   6.124  1.00  0.00     0.172 C 
HETATM    7  O   UNL     1     -55.943  44.217   6.779  1.00  0.00    -0.648 OA
HETATM    8  O   UNL     1     -54.782  44.636   4.930  1.00  0.00    -0.648 OA
ENDBRANCH   5   6
ENDBRANCH   4   5
ENDBRANCH   3   4
BRANCH   3   9
HETATM    9  C   UNL     1     -53.665  44.116   9.627  1.00  0.00     0.070 C 
BRANCH   9  10
HETATM   10  C   UNL     1     -53.647  45.616   9.821  1.00  0.00    -0.053 A 
HETATM   11  C   UNL     1     -54.368  46.453   8.956  1.00  0.00     0.046 A 
HETATM   12  C   UNL     1     -54.327  47.828   9.137  1.00  0.00     0.099 A 
HETATM   13  C   UNL     1     -53.602  48.385  10.185  1.00  0.00     0.098 A 
HETATM   14  C   UNL     1     -52.867  47.576  11.039  1.00  0.00     0.040 A 
HETATM   15  C   UNL     1     -52.887  46.190  10.855  1.00  0.00     0.010 A 
BRANCH  12  16
HETATM   16  O   UNL     1     -54.982  48.634   8.250  1.00  0.00    -0.358 OA
HETATM   17  H   UNL     1     -55.915  48.596   8.183  1.00  0.00     0.217 HD
ENDBRANCH  12  16
BRANCH  13  18
HETATM   18  O   UNL     1     -53.626  49.731  10.407  1.00  0.00    -0.358 OA
HETATM   19  H   UNL     1     -53.099  50.302   9.883  1.00  0.00     0.217 HD
ENDBRANCH  13  18
ENDBRANCH   9  10
ENDBRANCH   3   9
ENDBRANCH   1   3
TORSDOF 8
ENDMDL
MODEL 8
REMARK VINA RESULT:      -7.0      2.034      3.155
REMARK  8 active torsions:
REMARK  status: ('A' for Active; 'I' for Inactive)
REMARK    1  A    between atoms: O_1  and  C_2 
REMARK    2  A    between atoms: C_2  and  C_3 
REMARK    3  A    between atoms: C_2  and  C_8 
REMARK    4  A    between atoms: C_3  and  C_4 
REMARK    5  A    between atoms: C_4  and  C_5 
REMARK    6  A    between atoms: C_8  and  C_9 
REMARK    7  A    between atoms: C_11  and  O_16 
REMARK    8  A    between atoms: C_12  and  O_15 
ROOT
HETATM    1  O   UNL     1     -54.891  44.911   9.249  1.00  0.00    -0.395 OA
HETATM    2  H   UNL     1     -55.054  44.328  10.007  1.00  0.00     0.210 HD
ENDROOT
BRANCH   1   3
HETATM    3  C   UNL     1     -53.533  44.777   8.830  1.00  0.00     0.122 C 
BRANCH   3   4
HETATM    4  C   UNL     1     -52.866  46.161   8.778  1.00  0.00     0.042 C 
BRANCH   4   5
HETATM    5  C   UNL     1     -53.177  47.030   9.998  1.00  0.00     0.116 C 
BRANCH   5   6
HETATM    6  C   UNL     1     -53.620  48.440   9.705  1.00  0.00     0.172 C 
HETATM    7  O   UNL     1     -53.743  49.328  10.533  1.00  0.00    -0.648 OA
HETATM    8  O   UNL     1     -53.795  48.714   8.397  1.00  0.00    -0.648 OA
ENDBRANCH   5   6
ENDBRANCH   4   5
ENDBRANCH   3   4
BRANCH   3   9
HETATM    9  C   UNL     1     -53.477  44.095   7.452  1.00  0.00     0.070 C 
BRANCH   9  10
HETATM   10  C   UNL     1     -52.161  43.394   7.198  1.00  0.00    -0.053 A 
HETATM   11  C   UNL     1     -51.681  43.235   5.889  1.00  0.00     0.046 A 
HETATM   12  C   UNL     1     -50.480  42.574   5.674  1.00  0.00     0.099 A 
HETATM   13  C   UNL     1     -49.732  42.093   6.743  1.00  0.00     0.098 A 
HETATM   14  C   UNL     1     -50.199  42.223   8.042  1.00  0.00     0.040 A 
HETATM   15  C   UNL     1     -51.416  42.872   8.270  1.00  0.00     0.010 A 
BRANCH  12  16
HETATM   16  O   UNL     1     -50.055  42.370   4.392  1.00  0.00    -0.358 OA
HETATM   17  H   UNL     1     -49.635  43.064   3.922  1.00  0.00     0.217 HD
ENDBRANCH  12  16
BRANCH  13  18
HETATM   18  O   UNL     1     -48.514  41.513   6.533  1.00  0.00    -0.358 OA
HETATM   19  H   UNL     1     -48.116  41.554   5.685  1.00  0.00     0.217 HD
ENDBRANCH  13  18
ENDBRANCH   9  10
ENDBRANCH   3   9
ENDBRANCH   1   3
TORSDOF 8
ENDMDL
MODEL 9
REMARK VINA RESULT:      -7.0      2.173      3.445
REMARK  8 active torsions:
REMARK  status: ('A' for Active; 'I' for Inactive)
REMARK    1  A    between atoms: O_1  and  C_2 
REMARK    2  A    between atoms: C_2  and  C_3 
REMARK    3  A    between atoms: C_2  and  C_8 
REMARK    4  A    between atoms: C_3  and  C_4 
REMARK    5  A    between atoms: C_4  and  C_5 
REMARK    6  A    between atoms: C_8  and  C_9 
REMARK    7  A    between atoms: C_11  and  O_16 
REMARK    8  A    between atoms: C_12  and  O_15 
ROOT
HETATM    1  O   UNL     1     -54.036  43.498  10.105  1.00  0.00    -0.395 OA
HETATM    2  H   UNL     1     -54.050  43.696  11.055  1.00  0.00     0.210 HD
ENDROOT
BRANCH   1   3
HETATM    3  C   UNL     1     -53.209  44.448   9.434  1.00  0.00     0.122 C 
BRANCH   3   4
HETATM    4  C   UNL     1     -53.299  45.808  10.143  1.00  0.00     0.042 C 
BRANCH   4   5
HETATM    5  C   UNL     1     -52.643  46.947   9.358  1.00  0.00     0.116 C 
BRANCH   5   6
HETATM    6  C   UNL     1     -53.392  48.254   9.347  1.00  0.00     0.172 C 
HETATM    7  O   UNL     1     -54.002  48.709   8.393  1.00  0.00    -0.648 OA
HETATM    8  O   UNL     1     -53.437  48.887  10.535  1.00  0.00    -0.648 OA
ENDBRANCH   5   6
ENDBRANCH   4   5
ENDBRANCH   3   4
BRANCH   3   9
HETATM    9  C   UNL     1     -53.644  44.572   7.963  1.00  0.00     0.070 C 
BRANCH   9  10
HETATM   10  C   UNL     1     -52.643  43.968   7.004  1.00  0.00    -0.053 A 
HETATM   11  C   UNL     1     -51.535  43.255   7.487  1.00  0.00     0.046 A 
HETATM   12  C   UNL     1     -50.617  42.724   6.593  1.00  0.00     0.099 A 
HETATM   13  C   UNL     1     -50.797  42.865   5.221  1.00  0.00     0.098 A 
HETATM   14  C   UNL     1     -51.875  43.582   4.724  1.00  0.00     0.040 A 
HETATM   15  C   UNL     1     -52.797  44.137   5.616  1.00  0.00     0.010 A 
BRANCH  12  16
HETATM   16  O   UNL     1     -49.510  42.087   7.078  1.00  0.00    -0.358 OA
HETATM   17  H   UNL     1     -48.682  42.200   6.654  1.00  0.00     0.217 HD
ENDBRANCH  12  16
BRANCH  13  18
HETATM   18  O   UNL     1     -49.934  42.274   4.344  1.00  0.00    -0.358 OA
HETATM   19  H   UNL     1     -50.244  41.617   3.752  1.00  0.00     0.217 HD
ENDBRANCH  13  18
ENDBRANCH   9  10
ENDBRANCH   3   9
ENDBRANCH   1   3
TORSDOF 8
ENDMDL
