MODEL 1
REMARK VINA RESULT:      -7.0      0.000      0.000
REMARK  3 active torsions:
REMARK  status: ('A' for Active; 'I' for Inactive)
REMARK    1  A    between atoms: O_5  and  C_15 
REMARK    2  A    between atoms: N_8  and  C_16 
REMARK    3  A    between atoms: N_12  and  C_21 
ROOT
HETATM    1  P   UNL     1      13.076   5.746   8.222  1.00  0.00     0.408 P 
HETATM    2  O   UNL     1      13.536   6.513  12.453  1.00  0.00    -0.353 OA
HETATM    3  O   UNL     1      14.459   6.019   9.036  1.00  0.00    -0.279 OA
HETATM    4  O   UNL     1      11.888   6.345   9.156  1.00  0.00    -0.287 OA
HETATM    5  O   UNL     1      12.869   4.142   8.310  1.00  0.00    -0.624 OA
HETATM    6  O   UNL     1      13.075   6.274   6.816  1.00  0.00    -0.624 OA
HETATM    7  C   UNL     1      14.407   5.790  10.426  1.00  0.00     0.198 C 
HETATM    8  C   UNL     1      13.314   6.632  11.049  1.00  0.00     0.180 C 
HETATM    9  C   UNL     1      15.605   6.221  11.240  1.00  0.00     0.199 C 
HETATM   10  C   UNL     1      14.975   6.410  12.633  1.00  0.00     0.262 C 
HETATM   11  C   UNL     1      11.953   6.168  10.572  1.00  0.00     0.216 C 
ENDROOT
BRANCH   9  12
HETATM   12  O   UNL     1      16.093   7.473  10.768  1.00  0.00    -0.388 OA
HETATM   13  H   UNL     1      15.797   8.181  11.363  1.00  0.00     0.210 HD
ENDBRANCH   9  12
BRANCH  10  14
HETATM   14  N   UNL     1      15.273   5.319  13.563  1.00  0.00    -0.294 N 
HETATM   15  C   UNL     1      16.506   4.936  14.008  1.00  0.00     0.167 A 
HETATM   16  N   UNL     1      17.693   5.475  13.693  1.00  0.00    -0.222 NA
HETATM   17  C   UNL     1      16.269   3.869  14.860  1.00  0.00     0.149 A 
HETATM   18  C   UNL     1      18.691   4.826  14.333  1.00  0.00     0.237 A 
HETATM   19  N   UNL     1      18.612   3.776  15.186  1.00  0.00    -0.222 NA
HETATM   20  C   UNL     1      17.380   3.284  15.459  1.00  0.00     0.155 A 
HETATM   21  N   UNL     1      14.926   3.600  14.939  1.00  0.00    -0.236 NA
HETATM   22  C   UNL     1      14.356   4.487  14.150  1.00  0.00     0.214 A 
BRANCH  20  23
HETATM   23  N   UNL     1      17.232   2.195  16.335  1.00  0.00    -0.382 N 
HETATM   24  H   UNL     1      16.636   2.268  17.116  1.00  0.00     0.157 HD
HETATM   25  H   UNL     1      17.724   1.358  16.169  1.00  0.00     0.157 HD
ENDBRANCH  20  23
ENDBRANCH  10  14
TORSDOF 3
ENDMDL
MODEL 2
REMARK VINA RESULT:      -6.8      4.694      7.036
REMARK  3 active torsions:
REMARK  status: ('A' for Active; 'I' for Inactive)
REMARK    1  A    between atoms: O_5  and  C_15 
REMARK    2  A    between atoms: N_8  and  C_16 
REMARK    3  A    between atoms: N_12  and  C_21 
ROOT
HETATM    1  P   UNL     1      18.167   1.978  17.000  1.00  0.00     0.408 P 
HETATM    2  O   UNL     1      17.019   4.793  13.925  1.00  0.00    -0.353 OA
HETATM    3  O   UNL     1      17.161   3.249  17.145  1.00  0.00    -0.279 OA
HETATM    4  O   UNL     1      19.067   2.275  15.679  1.00  0.00    -0.287 OA
HETATM    5  O   UNL     1      17.206   0.754  16.550  1.00  0.00    -0.624 OA
HETATM    6  O   UNL     1      18.970   1.686  18.235  1.00  0.00    -0.624 OA
HETATM    7  C   UNL     1      16.598   3.724  15.943  1.00  0.00     0.198 C 
HETATM    8  C   UNL     1      17.696   4.095  14.969  1.00  0.00     0.180 C 
HETATM    9  C   UNL     1      15.821   5.019  16.011  1.00  0.00     0.199 C 
HETATM   10  C   UNL     1      15.925   5.514  14.556  1.00  0.00     0.262 C 
HETATM   11  C   UNL     1      18.452   2.858  14.529  1.00  0.00     0.216 C 
ENDROOT
BRANCH   9  12
HETATM   12  O   UNL     1      16.481   5.941  16.872  1.00  0.00    -0.388 OA
HETATM   13  H   UNL     1      17.037   6.537  16.344  1.00  0.00     0.210 HD
ENDBRANCH   9  12
BRANCH  10  14
HETATM   14  N   UNL     1      14.699   5.316  13.782  1.00  0.00    -0.294 N 
HETATM   15  C   UNL     1      14.496   5.644  12.472  1.00  0.00     0.167 A 
HETATM   16  N   UNL     1      15.368   6.210  11.625  1.00  0.00    -0.222 NA
HETATM   17  C   UNL     1      13.190   5.265  12.201  1.00  0.00     0.149 A 
HETATM   18  C   UNL     1      14.804   6.381  10.409  1.00  0.00     0.237 A 
HETATM   19  N   UNL     1      13.551   6.063  10.002  1.00  0.00    -0.222 NA
HETATM   20  C   UNL     1      12.723   5.494  10.910  1.00  0.00     0.155 A 
HETATM   21  N   UNL     1      12.603   4.717  13.314  1.00  0.00    -0.236 NA
HETATM   22  C   UNL     1      13.534   4.762  14.244  1.00  0.00     0.214 A 
BRANCH  20  23
HETATM   23  N   UNL     1      11.411   5.142  10.549  1.00  0.00    -0.382 N 
HETATM   24  H   UNL     1      11.254   4.549   9.779  1.00  0.00     0.157 HD
HETATM   25  H   UNL     1      10.649   5.489  11.067  1.00  0.00     0.157 HD
ENDBRANCH  20  23
ENDBRANCH  10  14
TORSDOF 3
ENDMDL
MODEL 3
REMARK VINA RESULT:      -6.6      4.303      6.960
REMARK  3 active torsions:
REMARK  status: ('A' for Active; 'I' for Inactive)
REMARK    1  A    between atoms: O_5  and  C_15 
REMARK    2  A    between atoms: N_8  and  C_16 
REMARK    3  A    between atoms: N_12  and  C_21 
ROOT
HETATM    1  P   UNL     1      17.560   2.670  16.183  1.00  0.00     0.408 P 
HETATM    2  O   UNL     1      17.126   6.209  13.736  1.00  0.00    -0.353 OA
HETATM    3  O   UNL     1      16.182   3.445  15.795  1.00  0.00    -0.279 OA
HETATM    4  O   UNL     1      18.753   3.750  15.954  1.00  0.00    -0.287 OA
HETATM    5  O   UNL     1      17.768   1.599  14.987  1.00  0.00    -0.624 OA
HETATM    6  O   UNL     1      17.551   2.048  17.550  1.00  0.00    -0.624 OA
HETATM    7  C   UNL     1      16.243   4.267  14.651  1.00  0.00     0.198 C 
HETATM    8  C   UNL     1      17.339   5.298  14.813  1.00  0.00     0.180 C 
HETATM    9  C   UNL     1      15.050   5.153  14.375  1.00  0.00     0.199 C 
HETATM   10  C   UNL     1      15.688   6.270  13.528  1.00  0.00     0.262 C 
HETATM   11  C   UNL     1      18.698   4.627  14.828  1.00  0.00     0.216 C 
ENDROOT
BRANCH   9  12
HETATM   12  O   UNL     1      14.558   5.705  15.592  1.00  0.00    -0.388 OA
HETATM   13  H   UNL     1      14.957   6.578  15.737  1.00  0.00     0.210 HD
ENDBRANCH   9  12
BRANCH  10  14
HETATM   14  N   UNL     1      15.397   6.158  12.098  1.00  0.00    -0.294 N 
HETATM   15  C   UNL     1      14.163   6.130  11.513  1.00  0.00     0.167 A 
HETATM   16  N   UNL     1      12.969   6.198  12.119  1.00  0.00    -0.222 NA
HETATM   17  C   UNL     1      14.409   6.015  10.154  1.00  0.00     0.149 A 
HETATM   18  C   UNL     1      11.973   6.139  11.208  1.00  0.00     0.237 A 
HETATM   19  N   UNL     1      12.059   6.027   9.861  1.00  0.00    -0.222 NA
HETATM   20  C   UNL     1      13.298   5.963   9.317  1.00  0.00     0.155 A 
HETATM   21  N   UNL     1      15.757   5.974   9.906  1.00  0.00    -0.236 NA
HETATM   22  C   UNL     1      16.323   6.063  11.092  1.00  0.00     0.214 A 
BRANCH  20  23
HETATM   23  N   UNL     1      13.455   5.845   7.925  1.00  0.00    -0.382 N 
HETATM   24  H   UNL     1      14.088   6.430   7.449  1.00  0.00     0.157 HD
HETATM   25  H   UNL     1      12.931   5.178   7.425  1.00  0.00     0.157 HD
ENDBRANCH  20  23
ENDBRANCH  10  14
TORSDOF 3
ENDMDL
MODEL 4
REMARK VINA RESULT:      -6.3      1.917      2.305
REMARK  3 active torsions:
REMARK  status: ('A' for Active; 'I' for Inactive)
REMARK    1  A    between atoms: O_5  and  C_15 
REMARK    2  A    between atoms: N_8  and  C_16 
REMARK    3  A    between atoms: N_12  and  C_21 
ROOT
HETATM    1  P   UNL     1      12.370   5.814  11.099  1.00  0.00     0.408 P 
HETATM    2  O   UNL     1      14.935   6.415  14.527  1.00  0.00    -0.353 OA
HETATM    3  O   UNL     1      13.996   5.754  11.144  1.00  0.00    -0.279 OA
HETATM    4  O   UNL     1      11.923   6.661  12.412  1.00  0.00    -0.287 OA
HETATM    5  O   UNL     1      11.904   4.299  11.434  1.00  0.00    -0.624 OA
HETATM    6  O   UNL     1      11.809   6.341   9.809  1.00  0.00    -0.624 OA
HETATM    7  C   UNL     1      14.566   5.530  12.413  1.00  0.00     0.198 C 
HETATM    8  C   UNL     1      14.102   6.595  13.384  1.00  0.00     0.180 C 
HETATM    9  C   UNL     1      16.067   5.667  12.528  1.00  0.00     0.199 C 
HETATM   10  C   UNL     1      16.230   5.982  14.027  1.00  0.00     0.262 C 
HETATM   11  C   UNL     1      12.615   6.460  13.645  1.00  0.00     0.216 C 
ENDROOT
BRANCH   9  12
HETATM   12  O   UNL     1      16.518   6.777  11.760  1.00  0.00    -0.388 OA
HETATM   13  H   UNL     1      16.120   6.741  10.875  1.00  0.00     0.210 HD
ENDBRANCH   9  12
BRANCH  10  14
HETATM   14  N   UNL     1      16.702   4.843  14.817  1.00  0.00    -0.294 N 
HETATM   15  C   UNL     1      17.944   4.278  14.777  1.00  0.00     0.167 A 
HETATM   16  N   UNL     1      18.986   4.643  14.015  1.00  0.00    -0.222 NA
HETATM   17  C   UNL     1      17.901   3.241  15.696  1.00  0.00     0.149 A 
HETATM   18  C   UNL     1      20.050   3.845  14.254  1.00  0.00     0.237 A 
HETATM   19  N   UNL     1      20.154   2.803  15.114  1.00  0.00    -0.222 NA
HETATM   20  C   UNL     1      19.062   2.490  15.852  1.00  0.00     0.155 A 
HETATM   21  N   UNL     1      16.665   3.168  16.288  1.00  0.00    -0.236 NA
HETATM   22  C   UNL     1      15.969   4.143  15.739  1.00  0.00     0.214 A 
BRANCH  20  23
HETATM   23  N   UNL     1      19.106   1.419  16.761  1.00  0.00    -0.382 N 
HETATM   24  H   UNL     1      19.037   0.492  16.435  1.00  0.00     0.157 HD
HETATM   25  H   UNL     1      19.206   1.595  17.725  1.00  0.00     0.157 HD
ENDBRANCH  20  23
ENDBRANCH  10  14
TORSDOF 3
ENDMDL
MODEL 5
REMARK VINA RESULT:      -6.2      8.717     10.621
REMARK  3 active torsions:
REMARK  status: ('A' for Active; 'I' for Inactive)
REMARK    1  A    between atoms: O_5  and  C_15 
REMARK    2  A    between atoms: N_8  and  C_16 
REMARK    3  A    between atoms: N_12  and  C_21 
ROOT
HETATM    1  P   UNL     1      14.382   6.562  21.405  1.00  0.00     0.408 P 
HETATM    2  O   UNL     1      17.827   7.564  18.991  1.00  0.00    -0.353 OA
HETATM    3  O   UNL     1      15.944   6.223  21.716  1.00  0.00    -0.279 OA
HETATM    4  O   UNL     1      14.302   6.846  19.807  1.00  0.00    -0.287 OA
HETATM    5  O   UNL     1      14.148   8.019  22.072  1.00  0.00    -0.624 OA
HETATM    6  O   UNL     1      13.418   5.519  21.892  1.00  0.00    -0.624 OA
HETATM    7  C   UNL     1      16.890   7.025  21.046  1.00  0.00     0.198 C 
HETATM    8  C   UNL     1      16.673   6.940  19.550  1.00  0.00     0.180 C 
HETATM    9  C   UNL     1      18.340   6.613  21.152  1.00  0.00     0.199 C 
HETATM   10  C   UNL     1      18.933   7.255  19.883  1.00  0.00     0.262 C 
HETATM   11  C   UNL     1      15.351   7.577  19.171  1.00  0.00     0.216 C 
ENDROOT
BRANCH   9  12
HETATM   12  O   UNL     1      18.455   5.197  21.064  1.00  0.00    -0.388 OA
HETATM   13  H   UNL     1      17.580   4.810  20.903  1.00  0.00     0.210 HD
ENDBRANCH   9  12
BRANCH  10  14
HETATM   14  N   UNL     1      19.702   8.472  20.148  1.00  0.00    -0.294 N 
HETATM   15  C   UNL     1      20.942   8.550  20.716  1.00  0.00     0.167 A 
HETATM   16  N   UNL     1      21.710   7.538  21.146  1.00  0.00    -0.222 NA
HETATM   17  C   UNL     1      21.239   9.903  20.753  1.00  0.00     0.149 A 
HETATM   18  C   UNL     1      22.873   8.008  21.649  1.00  0.00     0.237 A 
HETATM   19  N   UNL     1      23.297   9.291  21.751  1.00  0.00    -0.222 NA
HETATM   20  C   UNL     1      22.470  10.262  21.296  1.00  0.00     0.155 A 
HETATM   21  N   UNL     1      20.212  10.641  20.222  1.00  0.00    -0.236 NA
HETATM   22  C   UNL     1      19.306   9.753  19.868  1.00  0.00     0.214 A 
BRANCH  20  23
HETATM   23  N   UNL     1      22.852  11.612  21.374  1.00  0.00    -0.382 N 
HETATM   24  H   UNL     1      23.126  12.094  20.561  1.00  0.00     0.157 HD
HETATM   25  H   UNL     1      22.846  12.076  22.243  1.00  0.00     0.157 HD
ENDBRANCH  20  23
ENDBRANCH  10  14
TORSDOF 3
ENDMDL
MODEL 6
REMARK VINA RESULT:      -6.2      1.102      1.921
REMARK  3 active torsions:
REMARK  status: ('A' for Active; 'I' for Inactive)
REMARK    1  A    between atoms: O_5  and  C_15 
REMARK    2  A    between atoms: N_8  and  C_16 
REMARK    3  A    between atoms: N_12  and  C_21 
ROOT
HETATM    1  P   UNL     1      12.675   5.669   8.672  1.00  0.00     0.408 P 
HETATM    2  O   UNL     1      14.796   6.728  12.288  1.00  0.00    -0.353 OA
HETATM    3  O   UNL     1      14.243   6.083   8.818  1.00  0.00    -0.279 OA
HETATM    4  O   UNL     1      11.941   6.246  10.002  1.00  0.00    -0.287 OA
HETATM    5  O   UNL     1      12.663   4.064   8.885  1.00  0.00    -0.624 OA
HETATM    6  O   UNL     1      12.041   6.108   7.383  1.00  0.00    -0.624 OA
HETATM    7  C   UNL     1      14.797   5.938  10.105  1.00  0.00     0.198 C 
HETATM    8  C   UNL     1      13.997   6.744  11.106  1.00  0.00     0.180 C 
HETATM    9  C   UNL     1      16.184   6.498  10.325  1.00  0.00     0.199 C 
HETATM   10  C   UNL     1      16.181   6.731  11.847  1.00  0.00     0.262 C 
HETATM   11  C   UNL     1      12.607   6.162  11.263  1.00  0.00     0.216 C 
ENDROOT
BRANCH   9  12
HETATM   12  O   UNL     1      16.320   7.747   9.655  1.00  0.00    -0.388 OA
HETATM   13  H   UNL     1      17.028   8.263  10.073  1.00  0.00     0.210 HD
ENDBRANCH   9  12
BRANCH  10  14
HETATM   14  N   UNL     1      16.933   5.722  12.595  1.00  0.00    -0.294 N 
HETATM   15  C   UNL     1      16.513   5.043  13.703  1.00  0.00     0.167 A 
HETATM   16  N   UNL     1      15.335   5.153  14.333  1.00  0.00    -0.222 NA
HETATM   17  C   UNL     1      17.569   4.210  14.039  1.00  0.00     0.149 A 
HETATM   18  C   UNL     1      15.285   4.316  15.393  1.00  0.00     0.237 A 
HETATM   19  N   UNL     1      16.230   3.453  15.839  1.00  0.00    -0.222 NA
HETATM   20  C   UNL     1      17.396   3.394  15.154  1.00  0.00     0.155 A 
HETATM   21  N   UNL     1      18.612   4.371  13.163  1.00  0.00    -0.236 NA
HETATM   22  C   UNL     1      18.199   5.284  12.309  1.00  0.00     0.214 A 
BRANCH  20  23
HETATM   23  N   UNL     1      18.416   2.520  15.567  1.00  0.00    -0.382 N 
HETATM   24  H   UNL     1      18.990   2.758  16.331  1.00  0.00     0.157 HD
HETATM   25  H   UNL     1      18.558   1.669  15.092  1.00  0.00     0.157 HD
ENDBRANCH  20  23
ENDBRANCH  10  14
TORSDOF 3
ENDMDL
MODEL 7
REMARK VINA RESULT:      -6.0      4.851      7.091
REMARK  3 active torsions:
REMARK  status: ('A' for Active; 'I' for Inactive)
REMARK    1  A    between atoms: O_5  and  C_15 
REMARK    2  A    between atoms: N_8  and  C_16 
REMARK    3  A    between atoms: N_12  and  C_21 
ROOT
HETATM    1  P   UNL     1      18.329   8.224  17.843  1.00  0.00     0.408 P 
HETATM    2  O   UNL     1      16.307   4.682  16.405  1.00  0.00    -0.353 OA
HETATM    3  O   UNL     1      18.333   7.625  16.329  1.00  0.00    -0.279 OA
HETATM    4  O   UNL     1      17.898   6.987  18.806  1.00  0.00    -0.287 OA
HETATM    5  O   UNL     1      17.045   9.212  17.880  1.00  0.00    -0.624 OA
HETATM    6  O   UNL     1      19.612   8.894  18.242  1.00  0.00    -0.624 OA
HETATM    7  C   UNL     1      17.267   6.759  16.010  1.00  0.00     0.198 C 
HETATM    8  C   UNL     1      17.236   5.598  16.981  1.00  0.00     0.180 C 
HETATM    9  C   UNL     1      17.345   6.029  14.689  1.00  0.00     0.199 C 
HETATM   10  C   UNL     1      16.450   4.806  14.963  1.00  0.00     0.262 C 
HETATM   11  C   UNL     1      16.881   6.083  18.373  1.00  0.00     0.216 C 
ENDROOT
BRANCH   9  12
HETATM   12  O   UNL     1      18.679   5.595  14.447  1.00  0.00    -0.388 OA
HETATM   13  H   UNL     1      18.696   5.020  13.665  1.00  0.00     0.210 HD
ENDBRANCH   9  12
BRANCH  10  14
HETATM   14  N   UNL     1      15.126   4.899  14.347  1.00  0.00    -0.294 N 
HETATM   15  C   UNL     1      14.839   5.328  13.083  1.00  0.00     0.167 A 
HETATM   16  N   UNL     1      15.702   5.748  12.146  1.00  0.00    -0.222 NA
HETATM   17  C   UNL     1      13.461   5.235  12.972  1.00  0.00     0.149 A 
HETATM   18  C   UNL     1      15.044   6.092  11.017  1.00  0.00     0.237 A 
HETATM   19  N   UNL     1      13.713   6.055  10.765  1.00  0.00    -0.222 NA
HETATM   20  C   UNL     1      12.900   5.620  11.757  1.00  0.00     0.155 A 
HETATM   21  N   UNL     1      12.911   4.762  14.136  1.00  0.00    -0.236 NA
HETATM   22  C   UNL     1      13.936   4.570  14.941  1.00  0.00     0.214 A 
BRANCH  20  23
HETATM   23  N   UNL     1      11.510   5.560  11.558  1.00  0.00    -0.382 N 
HETATM   24  H   UNL     1      11.086   6.123  10.870  1.00  0.00     0.157 HD
HETATM   25  H   UNL     1      10.960   4.955  12.107  1.00  0.00     0.157 HD
ENDBRANCH  20  23
ENDBRANCH  10  14
TORSDOF 3
ENDMDL
MODEL 8
REMARK VINA RESULT:      -6.0      5.144      7.219
REMARK  3 active torsions:
REMARK  status: ('A' for Active; 'I' for Inactive)
REMARK    1  A    between atoms: O_5  and  C_15 
REMARK    2  A    between atoms: N_8  and  C_16 
REMARK    3  A    between atoms: N_12  and  C_21 
ROOT
HETATM    1  P   UNL     1      18.268   9.100  18.158  1.00  0.00     0.408 P 
HETATM    2  O   UNL     1      16.314   5.693  16.349  1.00  0.00    -0.353 OA
HETATM    3  O   UNL     1      18.799   8.198  16.911  1.00  0.00    -0.279 OA
HETATM    4  O   UNL     1      17.177   8.179  18.935  1.00  0.00    -0.287 OA
HETATM    5  O   UNL     1      17.377  10.260  17.465  1.00  0.00    -0.624 OA
HETATM    6  O   UNL     1      19.360   9.631  19.042  1.00  0.00    -0.624 OA
HETATM    7  C   UNL     1      17.812   7.462  16.224  1.00  0.00     0.198 C 
HETATM    8  C   UNL     1      17.080   6.554  17.189  1.00  0.00     0.180 C 
HETATM    9  C   UNL     1      18.290   6.465  15.194  1.00  0.00     0.199 C 
HETATM   10  C   UNL     1      17.104   5.482  15.147  1.00  0.00     0.262 C 
HETATM   11  C   UNL     1      16.273   7.373  18.177  1.00  0.00     0.216 C 
ENDROOT
BRANCH   9  12
HETATM   12  O   UNL     1      19.448   5.786  15.669  1.00  0.00    -0.388 OA
HETATM   13  H   UNL     1      19.189   4.933  16.052  1.00  0.00     0.210 HD
ENDBRANCH   9  12
BRANCH  10  14
HETATM   14  N   UNL     1      16.253   5.648  13.968  1.00  0.00    -0.294 N 
HETATM   15  C   UNL     1      16.664   5.748  12.669  1.00  0.00     0.167 A 
HETATM   16  N   UNL     1      17.921   5.714  12.204  1.00  0.00    -0.222 NA
HETATM   17  C   UNL     1      15.500   5.892  11.931  1.00  0.00     0.149 A 
HETATM   18  C   UNL     1      17.930   5.844  10.858  1.00  0.00     0.237 A 
HETATM   19  N   UNL     1      16.883   5.991  10.012  1.00  0.00    -0.222 NA
HETATM   20  C   UNL     1      15.641   6.017  10.552  1.00  0.00     0.155 A 
HETATM   21  N   UNL     1      14.400   5.881  12.751  1.00  0.00    -0.236 NA
HETATM   22  C   UNL     1      14.886   5.733  13.966  1.00  0.00     0.214 A 
BRANCH  20  23
HETATM   23  N   UNL     1      14.514   6.169   9.727  1.00  0.00    -0.382 N 
HETATM   24  H   UNL     1      13.628   5.878  10.045  1.00  0.00     0.157 HD
HETATM   25  H   UNL     1      14.609   6.565   8.830  1.00  0.00     0.157 HD
ENDBRANCH  20  23
ENDBRANCH  10  14
TORSDOF 3
ENDMDL
MODEL 9
REMARK VINA RESULT:      -5.9      6.218      8.369
REMARK  3 active torsions:
REMARK  status: ('A' for Active; 'I' for Inactive)
REMARK    1  A    between atoms: O_5  and  C_15 
REMARK    2  A    between atoms: N_8  and  C_16 
REMARK    3  A    between atoms: N_12  and  C_21 
ROOT
HETATM    1  P   UNL     1      14.904   7.282  21.445  1.00  0.00     0.408 P 
HETATM    2  O   UNL     1      18.387   7.520  18.893  1.00  0.00    -0.353 OA
HETATM    3  O   UNL     1      14.941   7.322  19.818  1.00  0.00    -0.279 OA
HETATM    4  O   UNL     1      16.331   7.889  21.934  1.00  0.00    -0.287 OA
HETATM    5  O   UNL     1      15.005   5.708  21.810  1.00  0.00    -0.624 OA
HETATM    6  O   UNL     1      13.710   7.962  22.050  1.00  0.00    -0.624 OA
HETATM    7  C   UNL     1      16.162   6.945  19.224  1.00  0.00     0.198 C 
HETATM    8  C   UNL     1      17.283   7.817  19.747  1.00  0.00     0.180 C 
HETATM    9  C   UNL     1      16.298   7.160  17.734  1.00  0.00     0.199 C 
HETATM   10  C   UNL     1      17.828   7.253  17.578  1.00  0.00     0.262 C 
HETATM   11  C   UNL     1      17.520   7.548  21.219  1.00  0.00     0.216 C 
ENDROOT
BRANCH   9  12
HETATM   12  O   UNL     1      15.708   8.401  17.362  1.00  0.00    -0.388 OA
HETATM   13  H   UNL     1      15.811   9.039  18.087  1.00  0.00     0.210 HD
ENDBRANCH   9  12
BRANCH  10  14
HETATM   14  N   UNL     1      18.435   6.041  17.026  1.00  0.00    -0.294 N 
HETATM   15  C   UNL     1      18.455   5.658  15.715  1.00  0.00     0.167 A 
HETATM   16  N   UNL     1      17.931   6.308  14.666  1.00  0.00    -0.222 NA
HETATM   17  C   UNL     1      19.137   4.453  15.700  1.00  0.00     0.149 A 
HETATM   18  C   UNL     1      18.152   5.617  13.525  1.00  0.00     0.237 A 
HETATM   19  N   UNL     1      18.796   4.437  13.357  1.00  0.00    -0.222 NA
HETATM   20  C   UNL     1      19.301   3.838  14.462  1.00  0.00     0.155 A 
HETATM   21  N   UNL     1      19.528   4.099  16.967  1.00  0.00    -0.236 NA
HETATM   22  C   UNL     1      19.091   5.072  17.739  1.00  0.00     0.214 A 
BRANCH  20  23
HETATM   23  N   UNL     1      19.979   2.611  14.354  1.00  0.00    -0.382 N 
HETATM   24  H   UNL     1      19.858   1.920  15.045  1.00  0.00     0.157 HD
HETATM   25  H   UNL     1      20.574   2.443  13.588  1.00  0.00     0.157 HD
ENDBRANCH  20  23
ENDBRANCH  10  14
TORSDOF 3
ENDMDL
