MODEL 1
REMARK VINA RESULT:      -7.0      0.000      0.000
REMARK  3 active torsions:
REMARK  status: ('A' for Active; 'I' for Inactive)
REMARK    1  A    between atoms: O_5  and  C_15 
REMARK    2  A    between atoms: N_8  and  C_16 
REMARK    3  A    between atoms: N_12  and  C_21 
ROOT
HETATM    1  P   UNL     1      13.070   5.745   8.212  1.00  0.00     0.408 P 
HETATM    2  O   UNL     1      13.525   6.518  12.442  1.00  0.00    -0.353 OA
HETATM    3  O   UNL     1      14.452   6.017   9.027  1.00  0.00    -0.279 OA
HETATM    4  O   UNL     1      11.882   6.348   9.143  1.00  0.00    -0.287 OA
HETATM    5  O   UNL     1      12.860   4.142   8.301  1.00  0.00    -0.624 OA
HETATM    6  O   UNL     1      13.072   6.272   6.805  1.00  0.00    -0.624 OA
HETATM    7  C   UNL     1      14.398   5.790  10.417  1.00  0.00     0.198 C 
HETATM    8  C   UNL     1      13.306   6.635  11.037  1.00  0.00     0.180 C 
HETATM    9  C   UNL     1      15.595   6.220  11.233  1.00  0.00     0.199 C 
HETATM   10  C   UNL     1      14.964   6.412  12.624  1.00  0.00     0.262 C 
HETATM   11  C   UNL     1      11.944   6.172  10.559  1.00  0.00     0.216 C 
ENDROOT
BRANCH   9  12
HETATM   12  O   UNL     1      16.086   7.470  10.760  1.00  0.00    -0.388 OA
HETATM   13  H   UNL     1      17.019   7.378  10.508  1.00  0.00     0.210 HD
ENDBRANCH   9  12
BRANCH  10  14
HETATM   14  N   UNL     1      15.258   5.322  13.556  1.00  0.00    -0.294 N 
HETATM   15  C   UNL     1      16.490   4.934  14.000  1.00  0.00     0.167 A 
HETATM   16  N   UNL     1      17.679   5.467  13.682  1.00  0.00    -0.222 NA
HETATM   17  C   UNL     1      16.250   3.870  14.855  1.00  0.00     0.149 A 
HETATM   18  C   UNL     1      18.676   4.814  14.321  1.00  0.00     0.237 A 
HETATM   19  N   UNL     1      18.593   3.767  15.177  1.00  0.00    -0.222 NA
HETATM   20  C   UNL     1      17.360   3.281  15.453  1.00  0.00     0.155 A 
HETATM   21  N   UNL     1      14.906   3.607  14.936  1.00  0.00    -0.236 NA
HETATM   22  C   UNL     1      14.338   4.495  14.146  1.00  0.00     0.214 A 
BRANCH  20  23
HETATM   23  N   UNL     1      17.208   2.195  16.332  1.00  0.00    -0.382 N 
HETATM   24  H   UNL     1      17.768   2.132  17.139  1.00  0.00     0.157 HD
HETATM   25  H   UNL     1      16.540   1.496  16.141  1.00  0.00     0.157 HD
ENDBRANCH  20  23
ENDBRANCH  10  14
TORSDOF 3
ENDMDL
MODEL 2
REMARK VINA RESULT:      -6.9      4.802      7.117
REMARK  3 active torsions:
REMARK  status: ('A' for Active; 'I' for Inactive)
REMARK    1  A    between atoms: O_5  and  C_15 
REMARK    2  A    between atoms: N_8  and  C_16 
REMARK    3  A    between atoms: N_12  and  C_21 
ROOT
HETATM    1  P   UNL     1      18.350   1.895  17.147  1.00  0.00     0.408 P 
HETATM    2  O   UNL     1      17.100   4.598  14.012  1.00  0.00    -0.353 OA
HETATM    3  O   UNL     1      17.417   3.221  17.294  1.00  0.00    -0.279 OA
HETATM    4  O   UNL     1      19.159   2.077  15.749  1.00  0.00    -0.287 OA
HETATM    5  O   UNL     1      17.302   0.699  16.839  1.00  0.00    -0.624 OA
HETATM    6  O   UNL     1      19.231   1.629  18.334  1.00  0.00    -0.624 OA
HETATM    7  C   UNL     1      16.787   3.660  16.112  1.00  0.00     0.198 C 
HETATM    8  C   UNL     1      17.823   3.923  15.040  1.00  0.00     0.180 C 
HETATM    9  C   UNL     1      16.078   4.994  16.165  1.00  0.00     0.199 C 
HETATM   10  C   UNL     1      16.093   5.405  14.680  1.00  0.00     0.262 C 
HETATM   11  C   UNL     1      18.485   2.628  14.616  1.00  0.00     0.216 C 
ENDROOT
BRANCH   9  12
HETATM   12  O   UNL     1      16.844   5.926  16.921  1.00  0.00    -0.388 OA
HETATM   13  H   UNL     1      17.440   5.446  17.519  1.00  0.00     0.210 HD
ENDBRANCH   9  12
BRANCH  10  14
HETATM   14  N   UNL     1      14.803   5.228  14.011  1.00  0.00    -0.294 N 
HETATM   15  C   UNL     1      14.500   5.549  12.719  1.00  0.00     0.167 A 
HETATM   16  N   UNL     1      15.312   6.088  11.798  1.00  0.00    -0.222 NA
HETATM   17  C   UNL     1      13.169   5.198  12.560  1.00  0.00     0.149 A 
HETATM   18  C   UNL     1      14.654   6.262  10.630  1.00  0.00     0.237 A 
HETATM   19  N   UNL     1      13.365   5.969  10.330  1.00  0.00    -0.222 NA
HETATM   20  C   UNL     1      12.603   5.426  11.309  1.00  0.00     0.155 A 
HETATM   21  N   UNL     1      12.663   4.674  13.723  1.00  0.00    -0.236 NA
HETATM   22  C   UNL     1      13.668   4.705  14.574  1.00  0.00     0.214 A 
BRANCH  20  23
HETATM   23  N   UNL     1      11.258   5.102  11.061  1.00  0.00    -0.382 N 
HETATM   24  H   UNL     1      10.603   5.816  10.884  1.00  0.00     0.157 HD
HETATM   25  H   UNL     1      10.970   4.160  11.064  1.00  0.00     0.157 HD
ENDBRANCH  20  23
ENDBRANCH  10  14
TORSDOF 3
ENDMDL
MODEL 3
REMARK VINA RESULT:      -6.6      4.306      6.961
REMARK  3 active torsions:
REMARK  status: ('A' for Active; 'I' for Inactive)
REMARK    1  A    between atoms: O_5  and  C_15 
REMARK    2  A    between atoms: N_8  and  C_16 
REMARK    3  A    between atoms: N_12  and  C_21 
ROOT
HETATM    1  P   UNL     1      17.558   2.671  16.182  1.00  0.00     0.408 P 
HETATM    2  O   UNL     1      17.124   6.210  13.736  1.00  0.00    -0.353 OA
HETATM    3  O   UNL     1      16.180   3.445  15.794  1.00  0.00    -0.279 OA
HETATM    4  O   UNL     1      18.751   3.750  15.953  1.00  0.00    -0.287 OA
HETATM    5  O   UNL     1      17.766   1.599  14.986  1.00  0.00    -0.624 OA
HETATM    6  O   UNL     1      17.550   2.048  17.549  1.00  0.00    -0.624 OA
HETATM    7  C   UNL     1      16.241   4.267  14.651  1.00  0.00     0.198 C 
HETATM    8  C   UNL     1      17.337   5.299  14.813  1.00  0.00     0.180 C 
HETATM    9  C   UNL     1      15.048   5.153  14.375  1.00  0.00     0.199 C 
HETATM   10  C   UNL     1      15.686   6.270  13.528  1.00  0.00     0.262 C 
HETATM   11  C   UNL     1      18.696   4.628  14.827  1.00  0.00     0.216 C 
ENDROOT
BRANCH   9  12
HETATM   12  O   UNL     1      14.556   5.705  15.593  1.00  0.00    -0.388 OA
HETATM   13  H   UNL     1      14.883   6.613  15.692  1.00  0.00     0.210 HD
ENDBRANCH   9  12
BRANCH  10  14
HETATM   14  N   UNL     1      15.395   6.159  12.098  1.00  0.00    -0.294 N 
HETATM   15  C   UNL     1      14.161   6.130  11.514  1.00  0.00     0.167 A 
HETATM   16  N   UNL     1      12.966   6.197  12.120  1.00  0.00    -0.222 NA
HETATM   17  C   UNL     1      14.406   6.016  10.155  1.00  0.00     0.149 A 
HETATM   18  C   UNL     1      11.970   6.137  11.209  1.00  0.00     0.237 A 
HETATM   19  N   UNL     1      12.056   6.026   9.862  1.00  0.00    -0.222 NA
HETATM   20  C   UNL     1      13.295   5.963   9.318  1.00  0.00     0.155 A 
HETATM   21  N   UNL     1      15.754   5.976   9.906  1.00  0.00    -0.236 NA
HETATM   22  C   UNL     1      16.320   6.065  11.092  1.00  0.00     0.214 A 
BRANCH  20  23
HETATM   23  N   UNL     1      13.451   5.846   7.926  1.00  0.00    -0.382 N 
HETATM   24  H   UNL     1      13.260   6.616   7.342  1.00  0.00     0.157 HD
HETATM   25  H   UNL     1      13.752   4.994   7.534  1.00  0.00     0.157 HD
ENDBRANCH  20  23
ENDBRANCH  10  14
TORSDOF 3
ENDMDL
MODEL 4
REMARK VINA RESULT:      -6.5      4.212      6.651
REMARK  3 active torsions:
REMARK  status: ('A' for Active; 'I' for Inactive)
REMARK    1  A    between atoms: O_5  and  C_15 
REMARK    2  A    between atoms: N_8  and  C_16 
REMARK    3  A    between atoms: N_12  and  C_21 
ROOT
HETATM    1  P   UNL     1      17.385   2.830  16.224  1.00  0.00     0.408 P 
HETATM    2  O   UNL     1      16.194   6.172  13.752  1.00  0.00    -0.353 OA
HETATM    3  O   UNL     1      16.067   3.770  16.395  1.00  0.00    -0.279 OA
HETATM    4  O   UNL     1      18.427   3.691  15.322  1.00  0.00    -0.287 OA
HETATM    5  O   UNL     1      16.904   1.641  15.235  1.00  0.00    -0.624 OA
HETATM    6  O   UNL     1      17.959   2.335  17.520  1.00  0.00    -0.624 OA
HETATM    7  C   UNL     1      15.662   4.472  15.242  1.00  0.00     0.198 C 
HETATM    8  C   UNL     1      16.799   5.334  14.735  1.00  0.00     0.180 C 
HETATM    9  C   UNL     1      14.570   5.503  15.411  1.00  0.00     0.199 C 
HETATM   10  C   UNL     1      14.840   6.433  14.213  1.00  0.00     0.262 C 
HETATM   11  C   UNL     1      17.934   4.467  14.229  1.00  0.00     0.216 C 
ENDROOT
BRANCH   9  12
HETATM   12  O   UNL     1      14.762   6.225  16.623  1.00  0.00    -0.388 OA
HETATM   13  H   UNL     1      15.005   7.143  16.418  1.00  0.00     0.210 HD
ENDBRANCH   9  12
BRANCH  10  14
HETATM   14  N   UNL     1      13.902   6.246  13.105  1.00  0.00    -0.294 N 
HETATM   15  C   UNL     1      14.206   6.196  11.774  1.00  0.00     0.167 A 
HETATM   16  N   UNL     1      15.417   6.305  11.207  1.00  0.00    -0.222 NA
HETATM   17  C   UNL     1      12.994   6.007  11.132  1.00  0.00     0.149 A 
HETATM   18  C   UNL     1      15.320   6.206   9.863  1.00  0.00     0.237 A 
HETATM   19  N   UNL     1      14.213   6.023   9.102  1.00  0.00    -0.222 NA
HETATM   20  C   UNL     1      13.024   5.920   9.742  1.00  0.00     0.155 A 
HETATM   21  N   UNL     1      11.967   5.941  12.040  1.00  0.00    -0.236 NA
HETATM   22  C   UNL     1      12.545   6.087  13.214  1.00  0.00     0.214 A 
BRANCH  20  23
HETATM   23  N   UNL     1      11.840   5.730   9.010  1.00  0.00    -0.382 N 
HETATM   24  H   UNL     1      11.114   5.178   9.381  1.00  0.00     0.157 HD
HETATM   25  H   UNL     1      11.736   6.150   8.125  1.00  0.00     0.157 HD
ENDBRANCH  20  23
ENDBRANCH  10  14
TORSDOF 3
ENDMDL
MODEL 5
REMARK VINA RESULT:      -6.3      1.926      2.318
REMARK  3 active torsions:
REMARK  status: ('A' for Active; 'I' for Inactive)
REMARK    1  A    between atoms: O_5  and  C_15 
REMARK    2  A    between atoms: N_8  and  C_16 
REMARK    3  A    between atoms: N_12  and  C_21 
ROOT
HETATM    1  P   UNL     1      12.352   5.793  11.100  1.00  0.00     0.408 P 
HETATM    2  O   UNL     1      14.949   6.430  14.498  1.00  0.00    -0.353 OA
HETATM    3  O   UNL     1      13.979   5.754  11.126  1.00  0.00    -0.279 OA
HETATM    4  O   UNL     1      11.909   6.635  12.417  1.00  0.00    -0.287 OA
HETATM    5  O   UNL     1      11.909   4.273  11.442  1.00  0.00    -0.624 OA
HETATM    6  O   UNL     1      11.769   6.312   9.817  1.00  0.00    -0.624 OA
HETATM    7  C   UNL     1      14.566   5.538  12.389  1.00  0.00     0.198 C 
HETATM    8  C   UNL     1      14.100   6.598  13.364  1.00  0.00     0.180 C 
HETATM    9  C   UNL     1      16.066   5.694  12.486  1.00  0.00     0.199 C 
HETATM   10  C   UNL     1      16.243   6.013  13.983  1.00  0.00     0.262 C 
HETATM   11  C   UNL     1      12.618   6.444  13.643  1.00  0.00     0.216 C 
ENDROOT
BRANCH   9  12
HETATM   12  O   UNL     1      16.494   6.810  11.712  1.00  0.00    -0.388 OA
HETATM   13  H   UNL     1      16.362   7.627  12.220  1.00  0.00     0.210 HD
ENDBRANCH   9  12
BRANCH  10  14
HETATM   14  N   UNL     1      16.739   4.881  14.768  1.00  0.00    -0.294 N 
HETATM   15  C   UNL     1      17.968   4.294  14.673  1.00  0.00     0.167 A 
HETATM   16  N   UNL     1      18.973   4.629  13.850  1.00  0.00    -0.222 NA
HETATM   17  C   UNL     1      17.958   3.276  15.612  1.00  0.00     0.149 A 
HETATM   18  C   UNL     1      20.036   3.818  14.047  1.00  0.00     0.237 A 
HETATM   19  N   UNL     1      20.169   2.790  14.920  1.00  0.00    -0.222 NA
HETATM   20  C   UNL     1      19.114   2.508  15.721  1.00  0.00     0.155 A 
HETATM   21  N   UNL     1      16.755   3.234  16.270  1.00  0.00    -0.236 NA
HETATM   22  C   UNL     1      16.046   4.210  15.741  1.00  0.00     0.214 A 
BRANCH  20  23
HETATM   23  N   UNL     1      19.190   1.453  16.646  1.00  0.00    -0.382 N 
HETATM   24  H   UNL     1      19.830   0.719  16.504  1.00  0.00     0.157 HD
HETATM   25  H   UNL     1      18.603   1.449  17.437  1.00  0.00     0.157 HD
ENDBRANCH  20  23
ENDBRANCH  10  14
TORSDOF 3
ENDMDL
MODEL 6
REMARK VINA RESULT:      -6.2      8.727     10.634
REMARK  3 active torsions:
REMARK  status: ('A' for Active; 'I' for Inactive)
REMARK    1  A    between atoms: O_5  and  C_15 
REMARK    2  A    between atoms: N_8  and  C_16 
REMARK    3  A    between atoms: N_12  and  C_21 
ROOT
HETATM    1  P   UNL     1      14.382   6.562  21.405  1.00  0.00     0.408 P 
HETATM    2  O   UNL     1      17.827   7.565  18.991  1.00  0.00    -0.353 OA
HETATM    3  O   UNL     1      15.944   6.223  21.716  1.00  0.00    -0.279 OA
HETATM    4  O   UNL     1      14.302   6.846  19.807  1.00  0.00    -0.287 OA
HETATM    5  O   UNL     1      14.148   8.019  22.072  1.00  0.00    -0.624 OA
HETATM    6  O   UNL     1      13.418   5.519  21.892  1.00  0.00    -0.624 OA
HETATM    7  C   UNL     1      16.890   7.025  21.046  1.00  0.00     0.198 C 
HETATM    8  C   UNL     1      16.673   6.940  19.550  1.00  0.00     0.180 C 
HETATM    9  C   UNL     1      18.340   6.613  21.152  1.00  0.00     0.199 C 
HETATM   10  C   UNL     1      18.933   7.255  19.883  1.00  0.00     0.262 C 
HETATM   11  C   UNL     1      15.351   7.577  19.171  1.00  0.00     0.216 C 
ENDROOT
BRANCH   9  12
HETATM   12  O   UNL     1      18.455   5.197  21.064  1.00  0.00    -0.388 OA
HETATM   13  H   UNL     1      17.587   4.791  21.220  1.00  0.00     0.210 HD
ENDBRANCH   9  12
BRANCH  10  14
HETATM   14  N   UNL     1      19.702   8.472  20.148  1.00  0.00    -0.294 N 
HETATM   15  C   UNL     1      20.942   8.550  20.716  1.00  0.00     0.167 A 
HETATM   16  N   UNL     1      21.710   7.538  21.146  1.00  0.00    -0.222 NA
HETATM   17  C   UNL     1      21.239   9.903  20.752  1.00  0.00     0.149 A 
HETATM   18  C   UNL     1      22.873   8.009  21.649  1.00  0.00     0.237 A 
HETATM   19  N   UNL     1      23.297   9.291  21.751  1.00  0.00    -0.222 NA
HETATM   20  C   UNL     1      22.470  10.262  21.296  1.00  0.00     0.155 A 
HETATM   21  N   UNL     1      20.212  10.641  20.222  1.00  0.00    -0.236 NA
HETATM   22  C   UNL     1      19.306   9.753  19.868  1.00  0.00     0.214 A 
BRANCH  20  23
HETATM   23  N   UNL     1      22.852  11.612  21.374  1.00  0.00    -0.382 N 
HETATM   24  H   UNL     1      23.124  12.095  20.560  1.00  0.00     0.157 HD
HETATM   25  H   UNL     1      22.848  12.075  22.243  1.00  0.00     0.157 HD
ENDBRANCH  20  23
ENDBRANCH  10  14
TORSDOF 3
ENDMDL
MODEL 7
REMARK VINA RESULT:      -6.2      1.101      1.919
REMARK  3 active torsions:
REMARK  status: ('A' for Active; 'I' for Inactive)
REMARK    1  A    between atoms: O_5  and  C_15 
REMARK    2  A    between atoms: N_8  and  C_16 
REMARK    3  A    between atoms: N_12  and  C_21 
ROOT
HETATM    1  P   UNL     1      12.683   5.664   8.677  1.00  0.00     0.408 P 
HETATM    2  O   UNL     1      14.805   6.737  12.289  1.00  0.00    -0.353 OA
HETATM    3  O   UNL     1      14.255   6.064   8.823  1.00  0.00    -0.279 OA
HETATM    4  O   UNL     1      11.951   6.261  10.000  1.00  0.00    -0.287 OA
HETATM    5  O   UNL     1      12.655   4.061   8.906  1.00  0.00    -0.624 OA
HETATM    6  O   UNL     1      12.057   6.096   7.383  1.00  0.00    -0.624 OA
HETATM    7  C   UNL     1      14.804   5.926  10.114  1.00  0.00     0.198 C 
HETATM    8  C   UNL     1      14.010   6.749  11.105  1.00  0.00     0.180 C 
HETATM    9  C   UNL     1      16.196   6.474  10.332  1.00  0.00     0.199 C 
HETATM   10  C   UNL     1      16.192   6.722  11.852  1.00  0.00     0.262 C 
HETATM   11  C   UNL     1      12.613   6.182  11.263  1.00  0.00     0.216 C 
ENDROOT
BRANCH   9  12
HETATM   12  O   UNL     1      16.346   7.715   9.650  1.00  0.00    -0.388 OA
HETATM   13  H   UNL     1      15.561   8.266   9.804  1.00  0.00     0.210 HD
ENDBRANCH   9  12
BRANCH  10  14
HETATM   14  N   UNL     1      16.932   5.713  12.612  1.00  0.00    -0.294 N 
HETATM   15  C   UNL     1      16.503   5.049  13.725  1.00  0.00     0.167 A 
HETATM   16  N   UNL     1      15.323   5.177  14.351  1.00  0.00    -0.222 NA
HETATM   17  C   UNL     1      17.549   4.209  14.072  1.00  0.00     0.149 A 
HETATM   18  C   UNL     1      15.263   4.351  15.419  1.00  0.00     0.237 A 
HETATM   19  N   UNL     1      16.198   3.483  15.876  1.00  0.00    -0.222 NA
HETATM   20  C   UNL     1      17.366   3.406  15.194  1.00  0.00     0.155 A 
HETATM   21  N   UNL     1      18.596   4.350  13.197  1.00  0.00    -0.236 NA
HETATM   22  C   UNL     1      18.194   5.260  12.333  1.00  0.00     0.214 A 
BRANCH  20  23
HETATM   23  N   UNL     1      18.376   2.525  15.618  1.00  0.00    -0.382 N 
HETATM   24  H   UNL     1      19.100   2.272  15.001  1.00  0.00     0.157 HD
HETATM   25  H   UNL     1      18.360   2.162  16.533  1.00  0.00     0.157 HD
ENDBRANCH  20  23
ENDBRANCH  10  14
TORSDOF 3
ENDMDL
MODEL 8
REMARK VINA RESULT:      -6.0      4.468      6.901
REMARK  3 active torsions:
REMARK  status: ('A' for Active; 'I' for Inactive)
REMARK    1  A    between atoms: O_5  and  C_15 
REMARK    2  A    between atoms: N_8  and  C_16 
REMARK    3  A    between atoms: N_12  and  C_21 
ROOT
HETATM    1  P   UNL     1      18.747   2.592  15.920  1.00  0.00     0.408 P 
HETATM    2  O   UNL     1      18.798   5.064  12.373  1.00  0.00    -0.353 OA
HETATM    3  O   UNL     1      18.102   4.075  15.735  1.00  0.00    -0.279 OA
HETATM    4  O   UNL     1      19.858   2.444  14.744  1.00  0.00    -0.287 OA
HETATM    5  O   UNL     1      17.564   1.582  15.469  1.00  0.00    -0.624 OA
HETATM    6  O   UNL     1      19.274   2.318  17.300  1.00  0.00    -0.624 OA
HETATM    7  C   UNL     1      17.848   4.471  14.407  1.00  0.00     0.198 C 
HETATM    8  C   UNL     1      19.123   4.402  13.594  1.00  0.00     0.180 C 
HETATM    9  C   UNL     1      17.440   5.909  14.183  1.00  0.00     0.199 C 
HETATM   10  C   UNL     1      17.861   6.121  12.717  1.00  0.00     0.262 C 
HETATM   11  C   UNL     1      19.577   2.964  13.444  1.00  0.00     0.216 C 
ENDROOT
BRANCH   9  12
HETATM   12  O   UNL     1      18.201   6.771  15.023  1.00  0.00    -0.388 OA
HETATM   13  H   UNL     1      17.612   7.420  15.440  1.00  0.00     0.210 HD
ENDBRANCH   9  12
BRANCH  10  14
HETATM   14  N   UNL     1      16.739   6.104  11.777  1.00  0.00    -0.294 N 
HETATM   15  C   UNL     1      15.410   6.157  12.088  1.00  0.00     0.167 A 
HETATM   16  N   UNL     1      14.857   6.237  13.307  1.00  0.00    -0.222 NA
HETATM   17  C   UNL     1      14.751   6.110  10.870  1.00  0.00     0.149 A 
HETATM   18  C   UNL     1      13.509   6.270  13.214  1.00  0.00     0.237 A 
HETATM   19  N   UNL     1      12.734   6.232  12.103  1.00  0.00    -0.222 NA
HETATM   20  C   UNL     1      13.360   6.150  10.905  1.00  0.00     0.155 A 
HETATM   21  N   UNL     1      15.648   6.031   9.834  1.00  0.00    -0.236 NA
HETATM   22  C   UNL     1      16.832   6.029  10.412  1.00  0.00     0.214 A 
BRANCH  20  23
HETATM   23  N   UNL     1      12.611   6.106   9.717  1.00  0.00    -0.382 N 
HETATM   24  H   UNL     1      11.627   6.094   9.755  1.00  0.00     0.157 HD
HETATM   25  H   UNL     1      13.070   6.087   8.846  1.00  0.00     0.157 HD
ENDBRANCH  20  23
ENDBRANCH  10  14
TORSDOF 3
ENDMDL
MODEL 9
REMARK VINA RESULT:      -6.0      4.866      7.109
REMARK  3 active torsions:
REMARK  status: ('A' for Active; 'I' for Inactive)
REMARK    1  A    between atoms: O_5  and  C_15 
REMARK    2  A    between atoms: N_8  and  C_16 
REMARK    3  A    between atoms: N_12  and  C_21 
ROOT
HETATM    1  P   UNL     1      18.087   8.218  18.017  1.00  0.00     0.408 P 
HETATM    2  O   UNL     1      16.246   4.655  16.400  1.00  0.00    -0.353 OA
HETATM    3  O   UNL     1      18.142   7.683  16.481  1.00  0.00    -0.279 OA
HETATM    4  O   UNL     1      17.697   6.925  18.921  1.00  0.00    -0.287 OA
HETATM    5  O   UNL     1      16.762   9.147  18.072  1.00  0.00    -0.624 OA
HETATM    6  O   UNL     1      19.333   8.926  18.466  1.00  0.00    -0.624 OA
HETATM    7  C   UNL     1      17.120   6.786  16.108  1.00  0.00     0.198 C 
HETATM    8  C   UNL     1      17.125   5.586  17.030  1.00  0.00     0.180 C 
HETATM    9  C   UNL     1      17.250   6.116  14.759  1.00  0.00     0.199 C 
HETATM   10  C   UNL     1      16.406   4.845  14.968  1.00  0.00     0.262 C 
HETATM   11  C   UNL     1      16.727   5.996  18.434  1.00  0.00     0.216 C 
ENDROOT
BRANCH   9  12
HETATM   12  O   UNL     1      18.606   5.750  14.523  1.00  0.00    -0.388 OA
HETATM   13  H   UNL     1      19.183   6.233  15.136  1.00  0.00     0.210 HD
ENDBRANCH   9  12
BRANCH  10  14
HETATM   14  N   UNL     1      15.089   4.907  14.333  1.00  0.00    -0.294 N 
HETATM   15  C   UNL     1      14.810   5.331  13.065  1.00  0.00     0.167 A 
HETATM   16  N   UNL     1      15.675   5.775  12.142  1.00  0.00    -0.222 NA
HETATM   17  C   UNL     1      13.436   5.204  12.935  1.00  0.00     0.149 A 
HETATM   18  C   UNL     1      15.024   6.105  11.004  1.00  0.00     0.237 A 
HETATM   19  N   UNL     1      13.699   6.035  10.733  1.00  0.00    -0.222 NA
HETATM   20  C   UNL     1      12.883   5.577  11.713  1.00  0.00     0.155 A 
HETATM   21  N   UNL     1      12.881   4.715  14.090  1.00  0.00    -0.236 NA
HETATM   22  C   UNL     1      13.899   4.546  14.909  1.00  0.00     0.214 A 
BRANCH  20  23
HETATM   23  N   UNL     1      11.498   5.483  11.494  1.00  0.00    -0.382 N 
HETATM   24  H   UNL     1      11.111   5.793  10.643  1.00  0.00     0.157 HD
HETATM   25  H   UNL     1      10.914   5.107  12.192  1.00  0.00     0.157 HD
ENDBRANCH  20  23
ENDBRANCH  10  14
TORSDOF 3
ENDMDL
