MODEL 1
REMARK VINA RESULT:      -7.0      0.000      0.000
REMARK  3 active torsions:
REMARK  status: ('A' for Active; 'I' for Inactive)
REMARK    1  A    between atoms: O_5  and  C_15 
REMARK    2  A    between atoms: N_8  and  C_16 
REMARK    3  A    between atoms: N_12  and  C_21 
ROOT
HETATM    1  P   UNL     1      13.066   5.746   8.209  1.00  0.00     0.408 P 
HETATM    2  O   UNL     1      13.520   6.517  12.440  1.00  0.00    -0.353 OA
HETATM    3  O   UNL     1      14.448   6.021   9.025  1.00  0.00    -0.279 OA
HETATM    4  O   UNL     1      11.877   6.346   9.141  1.00  0.00    -0.287 OA
HETATM    5  O   UNL     1      12.860   4.143   8.297  1.00  0.00    -0.624 OA
HETATM    6  O   UNL     1      13.067   6.274   6.803  1.00  0.00    -0.624 OA
HETATM    7  C   UNL     1      14.394   5.792  10.414  1.00  0.00     0.198 C 
HETATM    8  C   UNL     1      13.300   6.635  11.035  1.00  0.00     0.180 C 
HETATM    9  C   UNL     1      15.591   6.225  11.230  1.00  0.00     0.199 C 
HETATM   10  C   UNL     1      14.959   6.414  12.622  1.00  0.00     0.262 C 
HETATM   11  C   UNL     1      11.940   6.169  10.557  1.00  0.00     0.216 C 
ENDROOT
BRANCH   9  12
HETATM   12  O   UNL     1      16.079   7.476  10.758  1.00  0.00    -0.388 OA
HETATM   13  H   UNL     1      17.049   7.460  10.742  1.00  0.00     0.210 HD
ENDBRANCH   9  12
BRANCH  10  14
HETATM   14  N   UNL     1      15.256   5.324  13.553  1.00  0.00    -0.294 N 
HETATM   15  C   UNL     1      16.489   4.942  14.000  1.00  0.00     0.167 A 
HETATM   16  N   UNL     1      17.676   5.482  13.687  1.00  0.00    -0.222 NA
HETATM   17  C   UNL     1      16.251   3.876  14.852  1.00  0.00     0.149 A 
HETATM   18  C   UNL     1      18.674   4.833  14.329  1.00  0.00     0.237 A 
HETATM   19  N   UNL     1      18.594   3.784  15.182  1.00  0.00    -0.222 NA
HETATM   20  C   UNL     1      17.362   3.291  15.454  1.00  0.00     0.155 A 
HETATM   21  N   UNL     1      14.908   3.605  14.929  1.00  0.00    -0.236 NA
HETATM   22  C   UNL     1      14.339   4.492  14.138  1.00  0.00     0.214 A 
BRANCH  20  23
HETATM   23  N   UNL     1      17.213   2.203  16.330  1.00  0.00    -0.382 N 
HETATM   24  H   UNL     1      16.529   2.231  17.038  1.00  0.00     0.157 HD
HETATM   25  H   UNL     1      17.792   1.412  16.237  1.00  0.00     0.157 HD
ENDBRANCH  20  23
ENDBRANCH  10  14
TORSDOF 3
ENDMDL
MODEL 2
REMARK VINA RESULT:      -6.8      4.783      7.104
REMARK  3 active torsions:
REMARK  status: ('A' for Active; 'I' for Inactive)
REMARK    1  A    between atoms: O_5  and  C_15 
REMARK    2  A    between atoms: N_8  and  C_16 
REMARK    3  A    between atoms: N_12  and  C_21 
ROOT
HETATM    1  P   UNL     1      18.422   2.057  17.134  1.00  0.00     0.408 P 
HETATM    2  O   UNL     1      17.108   4.681  13.958  1.00  0.00    -0.353 OA
HETATM    3  O   UNL     1      17.461   3.365  17.261  1.00  0.00    -0.279 OA
HETATM    4  O   UNL     1      19.224   2.233  15.731  1.00  0.00    -0.287 OA
HETATM    5  O   UNL     1      17.399   0.834  16.848  1.00  0.00    -0.624 OA
HETATM    6  O   UNL     1      19.311   1.829  18.322  1.00  0.00    -0.624 OA
HETATM    7  C   UNL     1      16.819   3.771  16.074  1.00  0.00     0.198 C 
HETATM    8  C   UNL     1      17.847   4.039  14.995  1.00  0.00     0.180 C 
HETATM    9  C   UNL     1      16.082   5.090  16.106  1.00  0.00     0.199 C 
HETATM   10  C   UNL     1      16.085   5.478  14.616  1.00  0.00     0.262 C 
HETATM   11  C   UNL     1      18.536   2.751  14.591  1.00  0.00     0.216 C 
ENDROOT
BRANCH   9  12
HETATM   12  O   UNL     1      16.829   6.051  16.846  1.00  0.00    -0.388 OA
HETATM   13  H   UNL     1      17.311   6.629  16.233  1.00  0.00     0.210 HD
ENDBRANCH   9  12
BRANCH  10  14
HETATM   14  N   UNL     1      14.798   5.263  13.952  1.00  0.00    -0.294 N 
HETATM   15  C   UNL     1      14.479   5.576  12.662  1.00  0.00     0.167 A 
HETATM   16  N   UNL     1      15.270   6.141  11.738  1.00  0.00    -0.222 NA
HETATM   17  C   UNL     1      13.159   5.184  12.510  1.00  0.00     0.149 A 
HETATM   18  C   UNL     1      14.601   6.296  10.574  1.00  0.00     0.237 A 
HETATM   19  N   UNL     1      13.320   5.964  10.280  1.00  0.00    -0.222 NA
HETATM   20  C   UNL     1      12.579   5.397  11.262  1.00  0.00     0.155 A 
HETATM   21  N   UNL     1      12.675   4.644  13.674  1.00  0.00    -0.236 NA
HETATM   22  C   UNL     1      13.683   4.704  14.520  1.00  0.00     0.214 A 
BRANCH  20  23
HETATM   23  N   UNL     1      11.244   5.032  11.020  1.00  0.00    -0.382 N 
HETATM   24  H   UNL     1      10.540   5.284  11.661  1.00  0.00     0.157 HD
HETATM   25  H   UNL     1      11.012   4.524  10.209  1.00  0.00     0.157 HD
ENDBRANCH  20  23
ENDBRANCH  10  14
TORSDOF 3
ENDMDL
MODEL 3
REMARK VINA RESULT:      -6.5      4.300      6.958
REMARK  3 active torsions:
REMARK  status: ('A' for Active; 'I' for Inactive)
REMARK    1  A    between atoms: O_5  and  C_15 
REMARK    2  A    between atoms: N_8  and  C_16 
REMARK    3  A    between atoms: N_12  and  C_21 
ROOT
HETATM    1  P   UNL     1      17.545   2.676  16.162  1.00  0.00     0.408 P 
HETATM    2  O   UNL     1      17.136   6.207  13.700  1.00  0.00    -0.353 OA
HETATM    3  O   UNL     1      16.173   3.461  15.774  1.00  0.00    -0.279 OA
HETATM    4  O   UNL     1      18.747   3.744  15.924  1.00  0.00    -0.287 OA
HETATM    5  O   UNL     1      17.741   1.596  14.971  1.00  0.00    -0.624 OA
HETATM    6  O   UNL     1      17.535   2.060  17.532  1.00  0.00    -0.624 OA
HETATM    7  C   UNL     1      16.238   4.276  14.626  1.00  0.00     0.198 C 
HETATM    8  C   UNL     1      17.343   5.299  14.780  1.00  0.00     0.180 C 
HETATM    9  C   UNL     1      15.052   5.171  14.349  1.00  0.00     0.199 C 
HETATM   10  C   UNL     1      15.698   6.278  13.495  1.00  0.00     0.262 C 
HETATM   11  C   UNL     1      18.696   4.616  14.794  1.00  0.00     0.216 C 
ENDROOT
BRANCH   9  12
HETATM   12  O   UNL     1      14.568   5.733  15.565  1.00  0.00    -0.388 OA
HETATM   13  H   UNL     1      15.149   5.470  16.297  1.00  0.00     0.210 HD
ENDBRANCH   9  12
BRANCH  10  14
HETATM   14  N   UNL     1      15.402   6.163  12.066  1.00  0.00    -0.294 N 
HETATM   15  C   UNL     1      14.166   6.136  11.486  1.00  0.00     0.167 A 
HETATM   16  N   UNL     1      12.974   6.210  12.095  1.00  0.00    -0.222 NA
HETATM   17  C   UNL     1      14.407   6.015  10.126  1.00  0.00     0.149 A 
HETATM   18  C   UNL     1      11.974   6.151  11.187  1.00  0.00     0.237 A 
HETATM   19  N   UNL     1      12.056   6.034   9.840  1.00  0.00    -0.222 NA
HETATM   20  C   UNL     1      13.293   5.964   9.292  1.00  0.00     0.155 A 
HETATM   21  N   UNL     1      15.754   5.969   9.874  1.00  0.00    -0.236 NA
HETATM   22  C   UNL     1      16.324   6.061  11.058  1.00  0.00     0.214 A 
BRANCH  20  23
HETATM   23  N   UNL     1      13.445   5.841   7.901  1.00  0.00    -0.382 N 
HETATM   24  H   UNL     1      14.263   5.438   7.528  1.00  0.00     0.157 HD
HETATM   25  H   UNL     1      12.734   6.157   7.298  1.00  0.00     0.157 HD
ENDBRANCH  20  23
ENDBRANCH  10  14
TORSDOF 3
ENDMDL
MODEL 4
REMARK VINA RESULT:      -6.3      4.254      6.557
REMARK  3 active torsions:
REMARK  status: ('A' for Active; 'I' for Inactive)
REMARK    1  A    between atoms: O_5  and  C_15 
REMARK    2  A    between atoms: N_8  and  C_16 
REMARK    3  A    between atoms: N_12  and  C_21 
ROOT
HETATM    1  P   UNL     1      17.157   3.901  16.152  1.00  0.00     0.408 P 
HETATM    2  O   UNL     1      15.075   6.990  13.956  1.00  0.00    -0.353 OA
HETATM    3  O   UNL     1      15.557   4.199  16.135  1.00  0.00    -0.279 OA
HETATM    4  O   UNL     1      17.867   5.274  15.650  1.00  0.00    -0.287 OA
HETATM    5  O   UNL     1      17.387   2.872  14.922  1.00  0.00    -0.624 OA
HETATM    6  O   UNL     1      17.674   3.389  17.466  1.00  0.00    -0.624 OA
HETATM    7  C   UNL     1      15.082   4.930  15.027  1.00  0.00     0.198 C 
HETATM    8  C   UNL     1      15.813   6.252  14.928  1.00  0.00     0.180 C 
HETATM    9  C   UNL     1      13.645   5.397  15.075  1.00  0.00     0.199 C 
HETATM   10  C   UNL     1      13.683   6.601  14.116  1.00  0.00     0.262 C 
HETATM   11  C   UNL     1      17.273   6.025  14.590  1.00  0.00     0.216 C 
ENDROOT
BRANCH   9  12
HETATM   12  O   UNL     1      13.320   5.847  16.387  1.00  0.00    -0.388 OA
HETATM   13  H   UNL     1      12.625   5.282  16.760  1.00  0.00     0.210 HD
ENDBRANCH   9  12
BRANCH  10  14
HETATM   14  N   UNL     1      13.101   6.321  12.802  1.00  0.00    -0.294 N 
HETATM   15  C   UNL     1      13.764   6.253  11.610  1.00  0.00     0.167 A 
HETATM   16  N   UNL     1      15.076   6.426  11.393  1.00  0.00    -0.222 NA
HETATM   17  C   UNL     1      12.789   5.966  10.669  1.00  0.00     0.149 A 
HETATM   18  C   UNL     1      15.360   6.282  10.079  1.00  0.00     0.237 A 
HETATM   19  N   UNL     1      14.520   6.004   9.054  1.00  0.00    -0.222 NA
HETATM   20  C   UNL     1      13.207   5.842   9.347  1.00  0.00     0.155 A 
HETATM   21  N   UNL     1      11.556   5.859  11.262  1.00  0.00    -0.236 NA
HETATM   22  C   UNL     1      11.778   6.077  12.542  1.00  0.00     0.214 A 
BRANCH  20  23
HETATM   23  N   UNL     1      12.285   5.554   8.327  1.00  0.00    -0.382 N 
HETATM   24  H   UNL     1      12.107   6.218   7.621  1.00  0.00     0.157 HD
HETATM   25  H   UNL     1      11.816   4.688   8.316  1.00  0.00     0.157 HD
ENDBRANCH  20  23
ENDBRANCH  10  14
TORSDOF 3
ENDMDL
MODEL 5
REMARK VINA RESULT:      -6.3      1.930      2.326
REMARK  3 active torsions:
REMARK  status: ('A' for Active; 'I' for Inactive)
REMARK    1  A    between atoms: O_5  and  C_15 
REMARK    2  A    between atoms: N_8  and  C_16 
REMARK    3  A    between atoms: N_12  and  C_21 
ROOT
HETATM    1  P   UNL     1      12.346   5.786  11.110  1.00  0.00     0.408 P 
HETATM    2  O   UNL     1      14.919   6.419  14.528  1.00  0.00    -0.353 OA
HETATM    3  O   UNL     1      13.973   5.740  11.150  1.00  0.00    -0.279 OA
HETATM    4  O   UNL     1      11.897   6.634  12.422  1.00  0.00    -0.287 OA
HETATM    5  O   UNL     1      11.893   4.269  11.452  1.00  0.00    -0.624 OA
HETATM    6  O   UNL     1      11.777   6.305   9.821  1.00  0.00    -0.624 OA
HETATM    7  C   UNL     1      14.549   5.524  12.418  1.00  0.00     0.198 C 
HETATM    8  C   UNL     1      14.080   6.588  13.387  1.00  0.00     0.180 C 
HETATM    9  C   UNL     1      16.049   5.673  12.527  1.00  0.00     0.199 C 
HETATM   10  C   UNL     1      16.215   5.994  14.024  1.00  0.00     0.262 C 
HETATM   11  C   UNL     1      12.595   6.442  13.654  1.00  0.00     0.216 C 
ENDROOT
BRANCH   9  12
HETATM   12  O   UNL     1      16.488   6.785  11.753  1.00  0.00    -0.388 OA
HETATM   13  H   UNL     1      16.206   7.609  12.181  1.00  0.00     0.210 HD
ENDBRANCH   9  12
BRANCH  10  14
HETATM   14  N   UNL     1      16.699   4.861  14.815  1.00  0.00    -0.294 N 
HETATM   15  C   UNL     1      17.915   4.249  14.710  1.00  0.00     0.167 A 
HETATM   16  N   UNL     1      18.915   4.555  13.870  1.00  0.00    -0.222 NA
HETATM   17  C   UNL     1      17.898   3.242  15.662  1.00  0.00     0.149 A 
HETATM   18  C   UNL     1      19.964   3.724  14.062  1.00  0.00     0.237 A 
HETATM   19  N   UNL     1      20.089   2.704  14.945  1.00  0.00    -0.222 NA
HETATM   20  C   UNL     1      19.040   2.453  15.764  1.00  0.00     0.155 A 
HETATM   21  N   UNL     1      16.703   3.232  16.336  1.00  0.00    -0.236 NA
HETATM   22  C   UNL     1      16.007   4.215  15.805  1.00  0.00     0.214 A 
BRANCH  20  23
HETATM   23  N   UNL     1      19.108   1.407  16.700  1.00  0.00    -0.382 N 
HETATM   24  H   UNL     1      19.959   1.203  17.151  1.00  0.00     0.157 HD
HETATM   25  H   UNL     1      18.303   0.878  16.907  1.00  0.00     0.157 HD
ENDBRANCH  20  23
ENDBRANCH  10  14
TORSDOF 3
ENDMDL
MODEL 6
REMARK VINA RESULT:      -6.2      8.728     10.632
REMARK  3 active torsions:
REMARK  status: ('A' for Active; 'I' for Inactive)
REMARK    1  A    between atoms: O_5  and  C_15 
REMARK    2  A    between atoms: N_8  and  C_16 
REMARK    3  A    between atoms: N_12  and  C_21 
ROOT
HETATM    1  P   UNL     1      14.383   6.563  21.409  1.00  0.00     0.408 P 
HETATM    2  O   UNL     1      17.827   7.560  18.991  1.00  0.00    -0.353 OA
HETATM    3  O   UNL     1      15.945   6.221  21.718  1.00  0.00    -0.279 OA
HETATM    4  O   UNL     1      14.301   6.846  19.810  1.00  0.00    -0.287 OA
HETATM    5  O   UNL     1      14.151   8.020  22.076  1.00  0.00    -0.624 OA
HETATM    6  O   UNL     1      13.418   5.520  21.896  1.00  0.00    -0.624 OA
HETATM    7  C   UNL     1      16.890   7.022  21.046  1.00  0.00     0.198 C 
HETATM    8  C   UNL     1      16.672   6.937  19.551  1.00  0.00     0.180 C 
HETATM    9  C   UNL     1      18.341   6.609  21.151  1.00  0.00     0.199 C 
HETATM   10  C   UNL     1      18.933   7.249  19.882  1.00  0.00     0.262 C 
HETATM   11  C   UNL     1      15.351   7.576  19.173  1.00  0.00     0.216 C 
ENDROOT
BRANCH   9  12
HETATM   12  O   UNL     1      18.454   5.192  21.063  1.00  0.00    -0.388 OA
HETATM   13  H   UNL     1      18.861   4.849  21.874  1.00  0.00     0.210 HD
ENDBRANCH   9  12
BRANCH  10  14
HETATM   14  N   UNL     1      19.704   8.465  20.145  1.00  0.00    -0.294 N 
HETATM   15  C   UNL     1      20.945   8.542  20.710  1.00  0.00     0.167 A 
HETATM   16  N   UNL     1      21.713   7.529  21.137  1.00  0.00    -0.222 NA
HETATM   17  C   UNL     1      21.244   9.895  20.747  1.00  0.00     0.149 A 
HETATM   18  C   UNL     1      22.878   7.998  21.638  1.00  0.00     0.237 A 
HETATM   19  N   UNL     1      23.304   9.280  21.739  1.00  0.00    -0.222 NA
HETATM   20  C   UNL     1      22.476  10.252  21.287  1.00  0.00     0.155 A 
HETATM   21  N   UNL     1      20.215  10.634  20.219  1.00  0.00    -0.236 NA
HETATM   22  C   UNL     1      19.308   9.747  19.867  1.00  0.00     0.214 A 
BRANCH  20  23
HETATM   23  N   UNL     1      22.860  11.602  21.366  1.00  0.00    -0.382 N 
HETATM   24  H   UNL     1      22.374  12.283  20.846  1.00  0.00     0.157 HD
HETATM   25  H   UNL     1      23.614  11.867  21.940  1.00  0.00     0.157 HD
ENDBRANCH  20  23
ENDBRANCH  10  14
TORSDOF 3
ENDMDL
MODEL 7
REMARK VINA RESULT:      -6.0      4.858      7.075
REMARK  3 active torsions:
REMARK  status: ('A' for Active; 'I' for Inactive)
REMARK    1  A    between atoms: O_5  and  C_15 
REMARK    2  A    between atoms: N_8  and  C_16 
REMARK    3  A    between atoms: N_12  and  C_21 
ROOT
HETATM    1  P   UNL     1      18.108   8.338  17.877  1.00  0.00     0.408 P 
HETATM    2  O   UNL     1      16.175   4.747  16.439  1.00  0.00    -0.353 OA
HETATM    3  O   UNL     1      18.162   7.717  16.373  1.00  0.00    -0.279 OA
HETATM    4  O   UNL     1      17.669   7.110  18.847  1.00  0.00    -0.287 OA
HETATM    5  O   UNL     1      16.811   9.308  17.864  1.00  0.00    -0.624 OA
HETATM    6  O   UNL     1      19.371   9.032  18.301  1.00  0.00    -0.624 OA
HETATM    7  C   UNL     1      17.118   6.831  16.039  1.00  0.00     0.198 C 
HETATM    8  C   UNL     1      17.076   5.685  17.027  1.00  0.00     0.180 C 
HETATM    9  C   UNL     1      17.241   6.083  14.732  1.00  0.00     0.199 C 
HETATM   10  C   UNL     1      16.356   4.851  15.000  1.00  0.00     0.262 C 
HETATM   11  C   UNL     1      16.677   6.185  18.401  1.00  0.00     0.216 C 
ENDROOT
BRANCH   9  12
HETATM   12  O   UNL     1      18.587   5.664  14.532  1.00  0.00    -0.388 OA
HETATM   13  H   UNL     1      19.182   6.423  14.643  1.00  0.00     0.210 HD
ENDBRANCH   9  12
BRANCH  10  14
HETATM   14  N   UNL     1      15.048   4.917  14.347  1.00  0.00    -0.294 N 
HETATM   15  C   UNL     1      14.789   5.330  13.071  1.00  0.00     0.167 A 
HETATM   16  N   UNL     1      15.670   5.756  12.155  1.00  0.00    -0.222 NA
HETATM   17  C   UNL     1      13.416   5.213  12.924  1.00  0.00     0.149 A 
HETATM   18  C   UNL     1      15.038   6.079  11.005  1.00  0.00     0.237 A 
HETATM   19  N   UNL     1      13.715   6.018  10.717  1.00  0.00    -0.222 NA
HETATM   20  C   UNL     1      12.883   5.577  11.691  1.00  0.00     0.155 A 
HETATM   21  N   UNL     1      12.842   4.741  14.077  1.00  0.00    -0.236 NA
HETATM   22  C   UNL     1      13.847   4.573  14.911  1.00  0.00     0.214 A 
BRANCH  20  23
HETATM   23  N   UNL     1      11.500   5.492  11.454  1.00  0.00    -0.382 N 
HETATM   24  H   UNL     1      10.898   6.195  11.792  1.00  0.00     0.157 HD
HETATM   25  H   UNL     1      11.132   4.729  10.951  1.00  0.00     0.157 HD
ENDBRANCH  20  23
ENDBRANCH  10  14
TORSDOF 3
ENDMDL
MODEL 8
REMARK VINA RESULT:      -6.0      4.766      7.265
REMARK  3 active torsions:
REMARK  status: ('A' for Active; 'I' for Inactive)
REMARK    1  A    between atoms: O_5  and  C_15 
REMARK    2  A    between atoms: N_8  and  C_16 
REMARK    3  A    between atoms: N_12  and  C_21 
ROOT
HETATM    1  P   UNL     1      17.125   6.547  18.979  1.00  0.00     0.408 P 
HETATM    2  O   UNL     1      15.605   5.893  14.984  1.00  0.00    -0.353 OA
HETATM    3  O   UNL     1      17.322   5.227  18.046  1.00  0.00    -0.279 OA
HETATM    4  O   UNL     1      15.831   7.323  18.377  1.00  0.00    -0.287 OA
HETATM    5  O   UNL     1      18.372   7.504  18.587  1.00  0.00    -0.624 OA
HETATM    6  O   UNL     1      17.035   6.253  20.449  1.00  0.00    -0.624 OA
HETATM    7  C   UNL     1      17.139   5.422  16.663  1.00  0.00     0.198 C 
HETATM    8  C   UNL     1      15.760   5.990  16.399  1.00  0.00     0.180 C 
HETATM    9  C   UNL     1      17.115   4.188  15.790  1.00  0.00     0.199 C 
HETATM   10  C   UNL     1      16.309   4.688  14.576  1.00  0.00     0.262 C 
HETATM   11  C   UNL     1      15.650   7.393  16.962  1.00  0.00     0.216 C 
ENDROOT
BRANCH   9  12
HETATM   12  O   UNL     1      16.396   3.144  16.438  1.00  0.00    -0.388 OA
HETATM   13  H   UNL     1      15.962   2.588  15.771  1.00  0.00     0.210 HD
ENDBRANCH   9  12
BRANCH  10  14
HETATM   14  N   UNL     1      17.137   4.980  13.405  1.00  0.00    -0.294 N 
HETATM   15  C   UNL     1      16.714   5.490  12.210  1.00  0.00     0.167 A 
HETATM   16  N   UNL     1      15.464   5.829  11.862  1.00  0.00    -0.222 NA
HETATM   17  C   UNL     1      17.856   5.584  11.431  1.00  0.00     0.149 A 
HETATM   18  C   UNL     1      15.438   6.298  10.594  1.00  0.00     0.237 A 
HETATM   19  N   UNL     1      16.464   6.446   9.722  1.00  0.00    -0.222 NA
HETATM   20  C   UNL     1      17.699   6.083  10.142  1.00  0.00     0.155 A 
HETATM   21  N   UNL     1      18.955   5.144  12.125  1.00  0.00    -0.236 NA
HETATM   22  C   UNL     1      18.490   4.790  13.306  1.00  0.00     0.214 A 
BRANCH  20  23
HETATM   23  N   UNL     1      18.804   6.211   9.283  1.00  0.00    -0.382 N 
HETATM   24  H   UNL     1      19.112   5.436   8.758  1.00  0.00     0.157 HD
HETATM   25  H   UNL     1      19.271   7.074   9.205  1.00  0.00     0.157 HD
ENDBRANCH  20  23
ENDBRANCH  10  14
TORSDOF 3
ENDMDL
MODEL 9
REMARK VINA RESULT:      -5.9      6.165      8.298
REMARK  3 active torsions:
REMARK  status: ('A' for Active; 'I' for Inactive)
REMARK    1  A    between atoms: O_5  and  C_15 
REMARK    2  A    between atoms: N_8  and  C_16 
REMARK    3  A    between atoms: N_12  and  C_21 
ROOT
HETATM    1  P   UNL     1      14.947   7.329  21.339  1.00  0.00     0.408 P 
HETATM    2  O   UNL     1      18.371   7.590  18.711  1.00  0.00    -0.353 OA
HETATM    3  O   UNL     1      14.947   7.387  19.712  1.00  0.00    -0.279 OA
HETATM    4  O   UNL     1      16.385   7.928  21.802  1.00  0.00    -0.287 OA
HETATM    5  O   UNL     1      15.053   5.750  21.684  1.00  0.00    -0.624 OA
HETATM    6  O   UNL     1      13.768   8.004  21.979  1.00  0.00    -0.624 OA
HETATM    7  C   UNL     1      16.153   7.014  19.086  1.00  0.00     0.198 C 
HETATM    8  C   UNL     1      17.288   7.879  19.593  1.00  0.00     0.180 C 
HETATM    9  C   UNL     1      16.255   7.246  17.596  1.00  0.00     0.199 C 
HETATM   10  C   UNL     1      17.781   7.338  17.406  1.00  0.00     0.262 C 
HETATM   11  C   UNL     1      17.557   7.593  21.056  1.00  0.00     0.216 C 
ENDROOT
BRANCH   9  12
HETATM   12  O   UNL     1      15.659   8.492  17.252  1.00  0.00    -0.388 OA
HETATM   13  H   UNL     1      14.958   8.703  17.889  1.00  0.00     0.210 HD
ENDBRANCH   9  12
BRANCH  10  14
HETATM   14  N   UNL     1      18.373   6.131  16.827  1.00  0.00    -0.294 N 
HETATM   15  C   UNL     1      18.405   5.787  15.506  1.00  0.00     0.167 A 
HETATM   16  N   UNL     1      17.908   6.476  14.469  1.00  0.00    -0.222 NA
HETATM   17  C   UNL     1      19.065   4.569  15.464  1.00  0.00     0.149 A 
HETATM   18  C   UNL     1      18.132   5.815  13.311  1.00  0.00     0.237 A 
HETATM   19  N   UNL     1      18.756   4.629  13.118  1.00  0.00    -0.222 NA
HETATM   20  C   UNL     1      19.234   3.988  14.211  1.00  0.00     0.155 A 
HETATM   21  N   UNL     1      19.431   4.171  16.725  1.00  0.00    -0.236 NA
HETATM   22  C   UNL     1      19.002   5.130  17.520  1.00  0.00     0.214 A 
BRANCH  20  23
HETATM   23  N   UNL     1      19.891   2.752  14.076  1.00  0.00    -0.382 N 
HETATM   24  H   UNL     1      19.593   1.976  14.605  1.00  0.00     0.157 HD
HETATM   25  H   UNL     1      20.648   2.662  13.454  1.00  0.00     0.157 HD
ENDBRANCH  20  23
ENDBRANCH  10  14
TORSDOF 3
ENDMDL
