MODEL 1
REMARK VINA RESULT:      -6.9      0.000      0.000
REMARK  7 active torsions:
REMARK  status: ('A' for Active; 'I' for Inactive)
REMARK    1  A    between atoms: O_1  and  C_12 
REMARK    2  A    between atoms: O_3  and  C_15 
REMARK    3  A    between atoms: C_5  and  C_6 
REMARK    4  A    between atoms: C_5  and  C_7 
REMARK    5  A    between atoms: C_6  and  C_8 
REMARK    6  A    between atoms: C_7  and  C_9 
REMARK    7  A    between atoms: C_9  and  C_14 
ROOT
HETATM    1  O   UNL     1      21.590  -0.502  31.704  1.00  0.00    -0.358 OA
HETATM    2  H   UNL     1      22.373  -0.023  31.514  1.00  0.00     0.217 HD
ENDROOT
BRANCH   1   3
HETATM    3  C   UNL     1      21.669  -1.767  32.205  1.00  0.00     0.099 A 
HETATM    4  C   UNL     1      21.409  -2.852  31.368  1.00  0.00     0.046 A 
HETATM    5  C   UNL     1      21.484  -4.152  31.868  1.00  0.00    -0.055 A 
HETATM    6  C   UNL     1      21.819  -4.367  33.205  1.00  0.00     0.010 A 
HETATM    7  C   UNL     1      22.081  -3.281  34.041  1.00  0.00     0.040 A 
HETATM    8  C   UNL     1      22.005  -1.981  33.541  1.00  0.00     0.098 A 
BRANCH   5   9
HETATM    9  C   UNL     1      21.201  -5.325  30.963  1.00  0.00     0.038 C 
BRANCH   9  10
HETATM   10  C   UNL     1      22.449  -6.126  30.576  1.00  0.00     0.005 C 
BRANCH  10  11
HETATM   11  C   UNL     1      22.513  -7.502  31.254  1.00  0.00     0.011 C 
BRANCH  11  12
HETATM   12  C   UNL     1      23.555  -7.554  32.371  1.00  0.00     0.113 C 
BRANCH  12  13
HETATM   13  C   UNL     1      22.948  -7.613  33.754  1.00  0.00     0.172 C 
HETATM   14  O   UNL     1      21.613  -7.862  33.700  1.00  0.00    -0.648 OA
HETATM   15  O   UNL     1      23.559  -7.479  34.805  1.00  0.00    -0.648 OA
ENDBRANCH  12  13
ENDBRANCH  11  12
ENDBRANCH  10  11
ENDBRANCH   9  10
ENDBRANCH   5   9
BRANCH   8  16
HETATM   16  O   UNL     1      22.261  -0.929  34.367  1.00  0.00    -0.358 OA
HETATM   17  H   UNL     1      21.611  -0.646  34.981  1.00  0.00     0.217 HD
ENDBRANCH   8  16
ENDBRANCH   1   3
TORSDOF 7
ENDMDL
MODEL 2
REMARK VINA RESULT:      -6.8      1.439      5.490
REMARK  7 active torsions:
REMARK  status: ('A' for Active; 'I' for Inactive)
REMARK    1  A    between atoms: O_1  and  C_12 
REMARK    2  A    between atoms: O_3  and  C_15 
REMARK    3  A    between atoms: C_5  and  C_6 
REMARK    4  A    between atoms: C_5  and  C_7 
REMARK    5  A    between atoms: C_6  and  C_8 
REMARK    6  A    between atoms: C_7  and  C_9 
REMARK    7  A    between atoms: C_9  and  C_14 
ROOT
HETATM    1  O   UNL     1      23.782  -7.391  34.579  1.00  0.00    -0.358 OA
HETATM    2  H   UNL     1      23.211  -7.605  35.291  1.00  0.00     0.217 HD
ENDROOT
BRANCH   1   3
HETATM    3  C   UNL     1      23.271  -6.859  33.433  1.00  0.00     0.099 A 
HETATM    4  C   UNL     1      22.464  -5.724  33.505  1.00  0.00     0.046 A 
HETATM    5  C   UNL     1      21.933  -5.170  32.339  1.00  0.00    -0.055 A 
HETATM    6  C   UNL     1      22.209  -5.752  31.102  1.00  0.00     0.010 A 
HETATM    7  C   UNL     1      23.018  -6.887  31.030  1.00  0.00     0.040 A 
HETATM    8  C   UNL     1      23.548  -7.440  32.196  1.00  0.00     0.098 A 
BRANCH   5   9
HETATM    9  C   UNL     1      21.059  -3.944  32.418  1.00  0.00     0.038 C 
BRANCH   9  10
HETATM   10  C   UNL     1      21.676  -2.698  31.773  1.00  0.00     0.005 C 
BRANCH  10  11
HETATM   11  C   UNL     1      21.716  -1.491  32.719  1.00  0.00     0.011 C 
BRANCH  11  12
HETATM   12  C   UNL     1      21.388  -1.871  34.163  1.00  0.00     0.113 C 
BRANCH  12  13
HETATM   13  C   UNL     1      22.540  -1.648  35.117  1.00  0.00     0.172 C 
HETATM   14  O   UNL     1      22.259  -2.128  36.356  1.00  0.00    -0.648 OA
HETATM   15  O   UNL     1      23.608  -1.123  34.832  1.00  0.00    -0.648 OA
ENDBRANCH  12  13
ENDBRANCH  11  12
ENDBRANCH  10  11
ENDBRANCH   9  10
ENDBRANCH   5   9
BRANCH   8  16
HETATM   16  O   UNL     1      24.336  -8.549  32.114  1.00  0.00    -0.358 OA
HETATM   17  H   UNL     1      25.265  -8.458  32.034  1.00  0.00     0.217 HD
ENDBRANCH   8  16
ENDBRANCH   1   3
TORSDOF 7
ENDMDL
MODEL 3
REMARK VINA RESULT:      -6.8      1.439      5.473
REMARK  7 active torsions:
REMARK  status: ('A' for Active; 'I' for Inactive)
REMARK    1  A    between atoms: O_1  and  C_12 
REMARK    2  A    between atoms: O_3  and  C_15 
REMARK    3  A    between atoms: C_5  and  C_6 
REMARK    4  A    between atoms: C_5  and  C_7 
REMARK    5  A    between atoms: C_6  and  C_8 
REMARK    6  A    between atoms: C_7  and  C_9 
REMARK    7  A    between atoms: C_9  and  C_14 
ROOT
HETATM    1  O   UNL     1      23.693  -7.488  34.934  1.00  0.00    -0.358 OA
HETATM    2  H   UNL     1      23.142  -7.187  35.629  1.00  0.00     0.217 HD
ENDROOT
BRANCH   1   3
HETATM    3  C   UNL     1      23.364  -7.219  33.639  1.00  0.00     0.099 A 
HETATM    4  C   UNL     1      22.409  -6.241  33.364  1.00  0.00     0.046 A 
HETATM    5  C   UNL     1      22.062  -5.957  32.043  1.00  0.00    -0.055 A 
HETATM    6  C   UNL     1      22.669  -6.653  30.997  1.00  0.00     0.010 A 
HETATM    7  C   UNL     1      23.626  -7.631  31.273  1.00  0.00     0.040 A 
HETATM    8  C   UNL     1      23.972  -7.914  32.594  1.00  0.00     0.098 A 
BRANCH   5   9
HETATM    9  C   UNL     1      21.028  -4.901  31.745  1.00  0.00     0.038 C 
BRANCH   9  10
HETATM   10  C   UNL     1      21.622  -3.532  31.396  1.00  0.00     0.005 C 
BRANCH  10  11
HETATM   11  C   UNL     1      20.879  -2.368  32.066  1.00  0.00     0.011 C 
BRANCH  11  12
HETATM   12  C   UNL     1      21.800  -1.511  32.934  1.00  0.00     0.113 C 
BRANCH  12  13
HETATM   13  C   UNL     1      21.918  -2.011  34.356  1.00  0.00     0.172 C 
HETATM   14  O   UNL     1      21.176  -1.258  35.210  1.00  0.00    -0.648 OA
HETATM   15  O   UNL     1      22.573  -2.979  34.718  1.00  0.00    -0.648 OA
ENDBRANCH  12  13
ENDBRANCH  11  12
ENDBRANCH  10  11
ENDBRANCH   9  10
ENDBRANCH   5   9
BRANCH   8  16
HETATM   16  O   UNL     1      24.907  -8.872  32.851  1.00  0.00    -0.358 OA
HETATM   17  H   UNL     1      24.878  -9.350  33.656  1.00  0.00     0.217 HD
ENDBRANCH   8  16
ENDBRANCH   1   3
TORSDOF 7
ENDMDL
MODEL 4
REMARK VINA RESULT:      -6.7      1.582      5.230
REMARK  7 active torsions:
REMARK  status: ('A' for Active; 'I' for Inactive)
REMARK    1  A    between atoms: O_1  and  C_12 
REMARK    2  A    between atoms: O_3  and  C_15 
REMARK    3  A    between atoms: C_5  and  C_6 
REMARK    4  A    between atoms: C_5  and  C_7 
REMARK    5  A    between atoms: C_6  and  C_8 
REMARK    6  A    between atoms: C_7  and  C_9 
REMARK    7  A    between atoms: C_9  and  C_14 
ROOT
HETATM    1  O   UNL     1      24.247  -8.215  33.411  1.00  0.00    -0.358 OA
HETATM    2  H   UNL     1      24.750  -8.180  34.201  1.00  0.00     0.217 HD
ENDROOT
BRANCH   1   3
HETATM    3  C   UNL     1      23.122  -7.456  33.286  1.00  0.00     0.099 A 
HETATM    4  C   UNL     1      23.038  -6.518  32.257  1.00  0.00     0.046 A 
HETATM    5  C   UNL     1      21.892  -5.734  32.120  1.00  0.00    -0.055 A 
HETATM    6  C   UNL     1      20.831  -5.887  33.013  1.00  0.00     0.010 A 
HETATM    7  C   UNL     1      20.915  -6.827  34.041  1.00  0.00     0.040 A 
HETATM    8  C   UNL     1      22.061  -7.610  34.178  1.00  0.00     0.098 A 
BRANCH   5   9
HETATM    9  C   UNL     1      21.802  -4.719  31.008  1.00  0.00     0.038 C 
BRANCH   9  10
HETATM   10  C   UNL     1      20.938  -3.500  31.349  1.00  0.00     0.005 C 
BRANCH  10  11
HETATM   11  C   UNL     1      21.722  -2.391  32.064  1.00  0.00     0.011 C 
BRANCH  11  12
HETATM   12  C   UNL     1      20.995  -1.870  33.304  1.00  0.00     0.113 C 
BRANCH  12  13
HETATM   13  C   UNL     1      21.801  -2.011  34.575  1.00  0.00     0.172 C 
HETATM   14  O   UNL     1      22.564  -3.135  34.557  1.00  0.00    -0.648 OA
HETATM   15  O   UNL     1      21.802  -1.219  35.508  1.00  0.00    -0.648 OA
ENDBRANCH  12  13
ENDBRANCH  11  12
ENDBRANCH  10  11
ENDBRANCH   9  10
ENDBRANCH   5   9
BRANCH   8  16
HETATM   16  O   UNL     1      22.132  -8.523  35.187  1.00  0.00    -0.358 OA
HETATM   17  H   UNL     1      21.482  -8.526  35.862  1.00  0.00     0.217 HD
ENDBRANCH   8  16
ENDBRANCH   1   3
TORSDOF 7
ENDMDL
MODEL 5
REMARK VINA RESULT:      -6.7      4.102      6.162
REMARK  7 active torsions:
REMARK  status: ('A' for Active; 'I' for Inactive)
REMARK    1  A    between atoms: O_1  and  C_12 
REMARK    2  A    between atoms: O_3  and  C_15 
REMARK    3  A    between atoms: C_5  and  C_6 
REMARK    4  A    between atoms: C_5  and  C_7 
REMARK    5  A    between atoms: C_6  and  C_8 
REMARK    6  A    between atoms: C_7  and  C_9 
REMARK    7  A    between atoms: C_9  and  C_14 
ROOT
HETATM    1  O   UNL     1      17.960  -2.358  25.480  1.00  0.00    -0.358 OA
HETATM    2  H   UNL     1      17.133  -2.644  25.817  1.00  0.00     0.217 HD
ENDROOT
BRANCH   1   3
HETATM    3  C   UNL     1      19.038  -2.265  26.308  1.00  0.00     0.099 A 
HETATM    4  C   UNL     1      18.986  -2.856  27.570  1.00  0.00     0.046 A 
HETATM    5  C   UNL     1      20.082  -2.766  28.428  1.00  0.00    -0.055 A 
HETATM    6  C   UNL     1      21.231  -2.085  28.024  1.00  0.00     0.010 A 
HETATM    7  C   UNL     1      21.283  -1.495  26.760  1.00  0.00     0.040 A 
HETATM    8  C   UNL     1      20.186  -1.585  25.903  1.00  0.00     0.098 A 
BRANCH   5   9
HETATM    9  C   UNL     1      20.025  -3.404  29.794  1.00  0.00     0.038 C 
BRANCH   9  10
HETATM   10  C   UNL     1      20.108  -2.402  30.951  1.00  0.00     0.005 C 
BRANCH  10  11
HETATM   11  C   UNL     1      21.317  -2.642  31.866  1.00  0.00     0.011 C 
BRANCH  11  12
HETATM   12  C   UNL     1      21.429  -1.593  32.972  1.00  0.00     0.113 C 
BRANCH  12  13
HETATM   13  C   UNL     1      21.864  -2.167  34.301  1.00  0.00     0.172 C 
HETATM   14  O   UNL     1      21.502  -1.361  35.333  1.00  0.00    -0.648 OA
HETATM   15  O   UNL     1      22.451  -3.229  34.458  1.00  0.00    -0.648 OA
ENDBRANCH  12  13
ENDBRANCH  11  12
ENDBRANCH  10  11
ENDBRANCH   9  10
ENDBRANCH   5   9
BRANCH   8  16
HETATM   16  O   UNL     1      20.248  -1.004  24.672  1.00  0.00    -0.358 OA
HETATM   17  H   UNL     1      20.241  -0.070  24.594  1.00  0.00     0.217 HD
ENDBRANCH   8  16
ENDBRANCH   1   3
TORSDOF 7
ENDMDL
MODEL 6
REMARK VINA RESULT:      -6.5      3.125      5.436
REMARK  7 active torsions:
REMARK  status: ('A' for Active; 'I' for Inactive)
REMARK    1  A    between atoms: O_1  and  C_12 
REMARK    2  A    between atoms: O_3  and  C_15 
REMARK    3  A    between atoms: C_5  and  C_6 
REMARK    4  A    between atoms: C_5  and  C_7 
REMARK    5  A    between atoms: C_6  and  C_8 
REMARK    6  A    between atoms: C_7  and  C_9 
REMARK    7  A    between atoms: C_9  and  C_14 
ROOT
HETATM    1  O   UNL     1      21.621  -0.788  32.964  1.00  0.00    -0.358 OA
HETATM    2  H   UNL     1      20.809  -0.325  33.033  1.00  0.00     0.217 HD
ENDROOT
BRANCH   1   3
HETATM    3  C   UNL     1      21.622  -2.123  32.692  1.00  0.00     0.099 A 
HETATM    4  C   UNL     1      21.184  -2.568  31.445  1.00  0.00     0.046 A 
HETATM    5  C   UNL     1      21.178  -3.933  31.154  1.00  0.00    -0.055 A 
HETATM    6  C   UNL     1      21.609  -4.852  32.111  1.00  0.00     0.010 A 
HETATM    7  C   UNL     1      22.048  -4.406  33.358  1.00  0.00     0.040 A 
HETATM    8  C   UNL     1      22.053  -3.041  33.648  1.00  0.00     0.098 A 
BRANCH   5   9
HETATM    9  C   UNL     1      20.703  -4.415  29.806  1.00  0.00     0.038 C 
BRANCH   9  10
HETATM   10  C   UNL     1      19.212  -4.172  29.550  1.00  0.00     0.005 C 
BRANCH  10  11
HETATM   11  C   UNL     1      18.900  -3.861  28.079  1.00  0.00     0.011 C 
BRANCH  11  12
HETATM   12  C   UNL     1      20.055  -3.147  27.377  1.00  0.00     0.113 C 
BRANCH  12  13
HETATM   13  C   UNL     1      19.622  -1.915  26.615  1.00  0.00     0.172 C 
HETATM   14  O   UNL     1      18.808  -1.127  27.365  1.00  0.00    -0.648 OA
HETATM   15  O   UNL     1      19.962  -1.628  25.475  1.00  0.00    -0.648 OA
ENDBRANCH  12  13
ENDBRANCH  11  12
ENDBRANCH  10  11
ENDBRANCH   9  10
ENDBRANCH   5   9
BRANCH   8  16
HETATM   16  O   UNL     1      22.483  -2.618  34.870  1.00  0.00    -0.358 OA
HETATM   17  H   UNL     1      23.259  -2.985  35.246  1.00  0.00     0.217 HD
ENDBRANCH   8  16
ENDBRANCH   1   3
TORSDOF 7
ENDMDL
MODEL 7
REMARK VINA RESULT:      -6.5      3.368      5.905
REMARK  7 active torsions:
REMARK  status: ('A' for Active; 'I' for Inactive)
REMARK    1  A    between atoms: O_1  and  C_12 
REMARK    2  A    between atoms: O_3  and  C_15 
REMARK    3  A    between atoms: C_5  and  C_6 
REMARK    4  A    between atoms: C_5  and  C_7 
REMARK    5  A    between atoms: C_6  and  C_8 
REMARK    6  A    between atoms: C_7  and  C_9 
REMARK    7  A    between atoms: C_9  and  C_14 
ROOT
HETATM    1  O   UNL     1      22.457  -5.095  33.973  1.00  0.00    -0.358 OA
HETATM    2  H   UNL     1      22.858  -5.076  34.820  1.00  0.00     0.217 HD
ENDROOT
BRANCH   1   3
HETATM    3  C   UNL     1      22.084  -3.930  33.370  1.00  0.00     0.099 A 
HETATM    4  C   UNL     1      21.690  -3.947  32.032  1.00  0.00     0.046 A 
HETATM    5  C   UNL     1      21.308  -2.762  31.403  1.00  0.00    -0.055 A 
HETATM    6  C   UNL     1      21.320  -1.560  32.112  1.00  0.00     0.010 A 
HETATM    7  C   UNL     1      21.713  -1.545  33.451  1.00  0.00     0.040 A 
HETATM    8  C   UNL     1      22.096  -2.730  34.079  1.00  0.00     0.098 A 
BRANCH   5   9
HETATM    9  C   UNL     1      20.884  -2.779  29.956  1.00  0.00     0.038 C 
BRANCH   9  10
HETATM   10  C   UNL     1      19.366  -2.833  29.754  1.00  0.00     0.005 C 
BRANCH  10  11
HETATM   11  C   UNL     1      18.960  -3.504  28.434  1.00  0.00     0.011 C 
BRANCH  11  12
HETATM   12  C   UNL     1      19.859  -3.089  27.270  1.00  0.00     0.113 C 
BRANCH  12  13
HETATM   13  C   UNL     1      19.233  -2.046  26.372  1.00  0.00     0.172 C 
HETATM   14  O   UNL     1      20.146  -1.513  25.518  1.00  0.00    -0.648 OA
HETATM   15  O   UNL     1      18.055  -1.718  26.377  1.00  0.00    -0.648 OA
ENDBRANCH  12  13
ENDBRANCH  11  12
ENDBRANCH  10  11
ENDBRANCH   9  10
ENDBRANCH   5   9
BRANCH   8  16
HETATM   16  O   UNL     1      22.478  -2.702  35.387  1.00  0.00    -0.358 OA
HETATM   17  H   UNL     1      23.389  -2.710  35.608  1.00  0.00     0.217 HD
ENDBRANCH   8  16
ENDBRANCH   1   3
TORSDOF 7
ENDMDL
MODEL 8
REMARK VINA RESULT:      -6.5      2.843      4.435
REMARK  7 active torsions:
REMARK  status: ('A' for Active; 'I' for Inactive)
REMARK    1  A    between atoms: O_1  and  C_12 
REMARK    2  A    between atoms: O_3  and  C_15 
REMARK    3  A    between atoms: C_5  and  C_6 
REMARK    4  A    between atoms: C_5  and  C_7 
REMARK    5  A    between atoms: C_6  and  C_8 
REMARK    6  A    between atoms: C_7  and  C_9 
REMARK    7  A    between atoms: C_9  and  C_14 
ROOT
HETATM    1  O   UNL     1      21.576  -0.485  31.905  1.00  0.00    -0.358 OA
HETATM    2  H   UNL     1      22.187   0.141  32.242  1.00  0.00     0.217 HD
ENDROOT
BRANCH   1   3
HETATM    3  C   UNL     1      21.670  -1.795  32.270  1.00  0.00     0.099 A 
HETATM    4  C   UNL     1      21.459  -2.789  31.315  1.00  0.00     0.046 A 
HETATM    5  C   UNL     1      21.550  -4.133  31.676  1.00  0.00    -0.055 A 
HETATM    6  C   UNL     1      21.851  -4.483  32.993  1.00  0.00     0.010 A 
HETATM    7  C   UNL     1      22.063  -3.488  33.947  1.00  0.00     0.040 A 
HETATM    8  C   UNL     1      21.971  -2.144  33.586  1.00  0.00     0.098 A 
BRANCH   5   9
HETATM    9  C   UNL     1      21.321  -5.208  30.643  1.00  0.00     0.038 C 
BRANCH   9  10
HETATM   10  C   UNL     1      21.951  -4.904  29.280  1.00  0.00     0.005 C 
BRANCH  10  11
HETATM   11  C   UNL     1      20.913  -4.778  28.156  1.00  0.00     0.011 C 
BRANCH  11  12
HETATM   12  C   UNL     1      20.645  -3.323  27.770  1.00  0.00     0.113 C 
BRANCH  12  13
HETATM   13  C   UNL     1      19.255  -2.854  28.135  1.00  0.00     0.172 C 
HETATM   14  O   UNL     1      18.408  -2.938  27.075  1.00  0.00    -0.648 OA
HETATM   15  O   UNL     1      18.903  -2.464  29.240  1.00  0.00    -0.648 OA
ENDBRANCH  12  13
ENDBRANCH  11  12
ENDBRANCH  10  11
ENDBRANCH   9  10
ENDBRANCH   5   9
BRANCH   8  16
HETATM   16  O   UNL     1      22.179  -1.181  34.527  1.00  0.00    -0.358 OA
HETATM   17  H   UNL     1      22.423  -0.315  34.265  1.00  0.00     0.217 HD
ENDBRANCH   8  16
ENDBRANCH   1   3
TORSDOF 7
ENDMDL
MODEL 9
REMARK VINA RESULT:      -6.4      2.155      2.734
REMARK  7 active torsions:
REMARK  status: ('A' for Active; 'I' for Inactive)
REMARK    1  A    between atoms: O_1  and  C_12 
REMARK    2  A    between atoms: O_3  and  C_15 
REMARK    3  A    between atoms: C_5  and  C_6 
REMARK    4  A    between atoms: C_5  and  C_7 
REMARK    5  A    between atoms: C_6  and  C_8 
REMARK    6  A    between atoms: C_7  and  C_9 
REMARK    7  A    between atoms: C_9  and  C_14 
ROOT
HETATM    1  O   UNL     1      21.024  -2.106  29.889  1.00  0.00    -0.358 OA
HETATM    2  H   UNL     1      21.503  -1.359  29.585  1.00  0.00     0.217 HD
ENDROOT
BRANCH   1   3
HETATM    3  C   UNL     1      21.327  -2.665  31.094  1.00  0.00     0.099 A 
HETATM    4  C   UNL     1      21.350  -4.054  31.219  1.00  0.00     0.046 A 
HETATM    5  C   UNL     1      21.656  -4.639  32.448  1.00  0.00    -0.055 A 
HETATM    6  C   UNL     1      21.938  -3.835  33.552  1.00  0.00     0.010 A 
HETATM    7  C   UNL     1      21.916  -2.445  33.427  1.00  0.00     0.040 A 
HETATM    8  C   UNL     1      21.609  -1.861  32.198  1.00  0.00     0.098 A 
BRANCH   5   9
HETATM    9  C   UNL     1      21.680  -6.141  32.583  1.00  0.00     0.038 C 
BRANCH   9  10
HETATM   10  C   UNL     1      22.917  -6.680  33.308  1.00  0.00     0.005 C 
BRANCH  10  11
HETATM   11  C   UNL     1      23.683  -7.729  32.489  1.00  0.00     0.011 C 
BRANCH  11  12
HETATM   12  C   UNL     1      23.480  -7.554  30.984  1.00  0.00     0.113 C 
BRANCH  12  13
HETATM   13  C   UNL     1      24.357  -8.463  30.152  1.00  0.00     0.172 C 
HETATM   14  O   UNL     1      25.597  -8.589  30.694  1.00  0.00    -0.648 OA
HETATM   15  O   UNL     1      24.014  -9.041  29.130  1.00  0.00    -0.648 OA
ENDBRANCH  12  13
ENDBRANCH  11  12
ENDBRANCH  10  11
ENDBRANCH   9  10
ENDBRANCH   5   9
BRANCH   8  16
HETATM   16  O   UNL     1      21.589  -0.503  32.088  1.00  0.00    -0.358 OA
HETATM   17  H   UNL     1      21.229  -0.100  31.322  1.00  0.00     0.217 HD
ENDBRANCH   8  16
ENDBRANCH   1   3
TORSDOF 7
ENDMDL
