MODEL 1
REMARK VINA RESULT:      -6.6      0.000      0.000
REMARK  5 active torsions:
REMARK  status: ('A' for Active; 'I' for Inactive)
REMARK    1  A    between atoms: O_1  and  C_10 
REMARK    2  A    between atoms: O_2  and  C_12 
REMARK    3  A    between atoms: C_5  and  C_6 
REMARK    4  A    between atoms: C_5  and  C_7 
REMARK    5  A    between atoms: C_7  and  C_13 
ROOT
HETATM    1  O   UNL     1      30.297  74.745  24.158  1.00  0.00    -0.358 OA
HETATM    2  H   UNL     1      30.519  75.221  24.933  1.00  0.00     0.217 HD
ENDROOT
BRANCH   1   3
HETATM    3  C   UNL     1      30.804  75.131  22.953  1.00  0.00     0.099 A 
HETATM    4  C   UNL     1      30.829  76.485  22.622  1.00  0.00     0.046 A 
HETATM    5  C   UNL     1      31.345  76.892  21.392  1.00  0.00    -0.055 A 
HETATM    6  C   UNL     1      31.835  75.945  20.493  1.00  0.00     0.010 A 
HETATM    7  C   UNL     1      31.810  74.591  20.824  1.00  0.00     0.040 A 
HETATM    8  C   UNL     1      31.295  74.183  22.055  1.00  0.00     0.098 A 
BRANCH   5   9
HETATM    9  C   UNL     1      31.372  78.341  21.038  1.00  0.00     0.049 C 
BRANCH   9  10
HETATM   10  C   UNL     1      30.847  79.258  22.150  1.00  0.00     0.117 C 
BRANCH  10  11
HETATM   11  C   UNL     1      31.925  80.179  22.668  1.00  0.00     0.172 C 
HETATM   12  O   UNL     1      32.970  79.512  23.215  1.00  0.00    -0.648 OA
HETATM   13  O   UNL     1      31.877  81.399  22.581  1.00  0.00    -0.648 OA
ENDBRANCH  10  11
ENDBRANCH   9  10
ENDBRANCH   5   9
BRANCH   8  14
HETATM   14  O   UNL     1      31.273  72.858  22.367  1.00  0.00    -0.358 OA
HETATM   15  H   UNL     1      30.485  72.363  22.256  1.00  0.00     0.217 HD
ENDBRANCH   8  14
ENDBRANCH   1   3
TORSDOF 5
ENDMDL
MODEL 2
REMARK VINA RESULT:      -6.5      3.560      4.359
REMARK  5 active torsions:
REMARK  status: ('A' for Active; 'I' for Inactive)
REMARK    1  A    between atoms: O_1  and  C_10 
REMARK    2  A    between atoms: O_2  and  C_12 
REMARK    3  A    between atoms: C_5  and  C_6 
REMARK    4  A    between atoms: C_5  and  C_7 
REMARK    5  A    between atoms: C_7  and  C_13 
ROOT
HETATM    1  O   UNL     1      30.789  78.757  22.973  1.00  0.00    -0.358 OA
HETATM    2  H   UNL     1      31.460  79.340  23.270  1.00  0.00     0.217 HD
ENDROOT
BRANCH   1   3
HETATM    3  C   UNL     1      31.069  77.824  22.022  1.00  0.00     0.099 A 
HETATM    4  C   UNL     1      30.824  78.116  20.681  1.00  0.00     0.046 A 
HETATM    5  C   UNL     1      31.106  77.168  19.697  1.00  0.00    -0.055 A 
HETATM    6  C   UNL     1      31.633  75.927  20.056  1.00  0.00     0.010 A 
HETATM    7  C   UNL     1      31.877  75.634  21.397  1.00  0.00     0.040 A 
HETATM    8  C   UNL     1      31.596  76.583  22.380  1.00  0.00     0.098 A 
BRANCH   5   9
HETATM    9  C   UNL     1      30.845  77.482  18.263  1.00  0.00     0.049 C 
BRANCH   9  10
HETATM   10  C   UNL     1      32.118  77.655  17.427  1.00  0.00     0.117 C 
BRANCH  10  11
HETATM   11  C   UNL     1      31.904  78.608  16.275  1.00  0.00     0.172 C 
HETATM   12  O   UNL     1      30.673  79.175  16.283  1.00  0.00    -0.648 OA
HETATM   13  O   UNL     1      32.757  78.864  15.436  1.00  0.00    -0.648 OA
ENDBRANCH  10  11
ENDBRANCH   9  10
ENDBRANCH   5   9
BRANCH   8  14
HETATM   14  O   UNL     1      31.837  76.285  23.687  1.00  0.00    -0.358 OA
HETATM   15  H   UNL     1      31.350  76.715  24.363  1.00  0.00     0.217 HD
ENDBRANCH   8  14
ENDBRANCH   1   3
TORSDOF 5
ENDMDL
MODEL 3
REMARK VINA RESULT:      -6.4      3.627      4.378
REMARK  5 active torsions:
REMARK  status: ('A' for Active; 'I' for Inactive)
REMARK    1  A    between atoms: O_1  and  C_10 
REMARK    2  A    between atoms: O_2  and  C_12 
REMARK    3  A    between atoms: C_5  and  C_6 
REMARK    4  A    between atoms: C_5  and  C_7 
REMARK    5  A    between atoms: C_7  and  C_13 
ROOT
HETATM    1  O   UNL     1      30.452  78.459  22.965  1.00  0.00    -0.358 OA
HETATM    2  H   UNL     1      30.671  78.400  23.874  1.00  0.00     0.217 HD
ENDROOT
BRANCH   1   3
HETATM    3  C   UNL     1      31.073  77.650  22.062  1.00  0.00     0.099 A 
HETATM    4  C   UNL     1      31.128  78.034  20.722  1.00  0.00     0.046 A 
HETATM    5  C   UNL     1      31.760  77.214  19.787  1.00  0.00    -0.055 A 
HETATM    6  C   UNL     1      32.337  76.011  20.193  1.00  0.00     0.010 A 
HETATM    7  C   UNL     1      32.282  75.627  21.532  1.00  0.00     0.040 A 
HETATM    8  C   UNL     1      31.650  76.447  22.467  1.00  0.00     0.098 A 
BRANCH   5   9
HETATM    9  C   UNL     1      31.819  77.625  18.355  1.00  0.00     0.049 C 
BRANCH   9  10
HETATM   10  C   UNL     1      30.700  77.026  17.494  1.00  0.00     0.117 C 
BRANCH  10  11
HETATM   11  C   UNL     1      30.125  78.044  16.539  1.00  0.00     0.172 C 
HETATM   12  O   UNL     1      29.496  77.478  15.481  1.00  0.00    -0.648 OA
HETATM   13  O   UNL     1      30.194  79.254  16.712  1.00  0.00    -0.648 OA
ENDBRANCH  10  11
ENDBRANCH   9  10
ENDBRANCH   5   9
BRANCH   8  14
HETATM   14  O   UNL     1      31.601  76.061  23.772  1.00  0.00    -0.358 OA
HETATM   15  H   UNL     1      32.389  75.824  24.221  1.00  0.00     0.217 HD
ENDBRANCH   8  14
ENDBRANCH   1   3
TORSDOF 5
ENDMDL
MODEL 4
REMARK VINA RESULT:      -6.3      3.348      3.845
REMARK  5 active torsions:
REMARK  status: ('A' for Active; 'I' for Inactive)
REMARK    1  A    between atoms: O_1  and  C_10 
REMARK    2  A    between atoms: O_2  and  C_12 
REMARK    3  A    between atoms: C_5  and  C_6 
REMARK    4  A    between atoms: C_5  and  C_7 
REMARK    5  A    between atoms: C_7  and  C_13 
ROOT
HETATM    1  O   UNL     1      31.796  76.219  23.814  1.00  0.00    -0.358 OA
HETATM    2  H   UNL     1      32.472  76.594  24.344  1.00  0.00     0.217 HD
ENDROOT
BRANCH   1   3
HETATM    3  C   UNL     1      31.995  76.047  22.478  1.00  0.00     0.099 A 
HETATM    4  C   UNL     1      31.355  76.895  21.574  1.00  0.00     0.046 A 
HETATM    5  C   UNL     1      31.549  76.728  20.203  1.00  0.00    -0.055 A 
HETATM    6  C   UNL     1      32.385  75.713  19.736  1.00  0.00     0.010 A 
HETATM    7  C   UNL     1      33.025  74.866  20.640  1.00  0.00     0.040 A 
HETATM    8  C   UNL     1      32.831  75.033  22.011  1.00  0.00     0.098 A 
BRANCH   5   9
HETATM    9  C   UNL     1      30.865  77.635  19.237  1.00  0.00     0.049 C 
BRANCH   9  10
HETATM   10  C   UNL     1      30.813  77.086  17.806  1.00  0.00     0.117 C 
BRANCH  10  11
HETATM   11  C   UNL     1      31.095  78.163  16.786  1.00  0.00     0.172 C 
HETATM   12  O   UNL     1      30.094  79.071  16.687  1.00  0.00    -0.648 OA
HETATM   13  O   UNL     1      32.129  78.229  16.134  1.00  0.00    -0.648 OA
ENDBRANCH  10  11
ENDBRANCH   9  10
ENDBRANCH   5   9
BRANCH   8  14
HETATM   14  O   UNL     1      33.460  74.198  22.884  1.00  0.00    -0.358 OA
HETATM   15  H   UNL     1      33.582  73.295  22.664  1.00  0.00     0.217 HD
ENDBRANCH   8  14
ENDBRANCH   1   3
TORSDOF 5
ENDMDL
MODEL 5
REMARK VINA RESULT:      -6.2      3.535      4.392
REMARK  5 active torsions:
REMARK  status: ('A' for Active; 'I' for Inactive)
REMARK    1  A    between atoms: O_1  and  C_10 
REMARK    2  A    between atoms: O_2  and  C_12 
REMARK    3  A    between atoms: C_5  and  C_6 
REMARK    4  A    between atoms: C_5  and  C_7 
REMARK    5  A    between atoms: C_7  and  C_13 
ROOT
HETATM    1  O   UNL     1      32.229  74.335  21.654  1.00  0.00    -0.358 OA
HETATM    2  H   UNL     1      32.985  73.999  21.213  1.00  0.00     0.217 HD
ENDROOT
BRANCH   1   3
HETATM    3  C   UNL     1      31.785  75.594  21.381  1.00  0.00     0.099 A 
HETATM    4  C   UNL     1      31.540  75.963  20.059  1.00  0.00     0.046 A 
HETATM    5  C   UNL     1      31.086  77.249  19.766  1.00  0.00    -0.055 A 
HETATM    6  C   UNL     1      30.877  78.165  20.797  1.00  0.00     0.010 A 
HETATM    7  C   UNL     1      31.122  77.796  22.119  1.00  0.00     0.040 A 
HETATM    8  C   UNL     1      31.576  76.510  22.411  1.00  0.00     0.098 A 
BRANCH   5   9
HETATM    9  C   UNL     1      30.824  77.643  18.352  1.00  0.00     0.049 C 
BRANCH   9  10
HETATM   10  C   UNL     1      32.074  77.623  17.464  1.00  0.00     0.117 C 
BRANCH  10  11
HETATM   11  C   UNL     1      31.935  78.556  16.284  1.00  0.00     0.172 C 
HETATM   12  O   UNL     1      30.725  79.165  16.234  1.00  0.00    -0.648 OA
HETATM   13  O   UNL     1      32.827  78.762  15.472  1.00  0.00    -0.648 OA
ENDBRANCH  10  11
ENDBRANCH   9  10
ENDBRANCH   5   9
BRANCH   8  14
HETATM   14  O   UNL     1      31.813  76.161  23.706  1.00  0.00    -0.358 OA
HETATM   15  H   UNL     1      32.459  75.512  23.905  1.00  0.00     0.217 HD
ENDBRANCH   8  14
ENDBRANCH   1   3
TORSDOF 5
ENDMDL
MODEL 6
REMARK VINA RESULT:      -6.0      2.727      3.586
REMARK  5 active torsions:
REMARK  status: ('A' for Active; 'I' for Inactive)
REMARK    1  A    between atoms: O_1  and  C_10 
REMARK    2  A    between atoms: O_2  and  C_12 
REMARK    3  A    between atoms: C_5  and  C_6 
REMARK    4  A    between atoms: C_5  and  C_7 
REMARK    5  A    between atoms: C_7  and  C_13 
ROOT
HETATM    1  O   UNL     1      31.494  78.371  17.225  1.00  0.00    -0.358 OA
HETATM    2  H   UNL     1      31.319  78.042  16.366  1.00  0.00     0.217 HD
ENDROOT
BRANCH   1   3
HETATM    3  C   UNL     1      31.553  77.516  18.283  1.00  0.00     0.099 A 
HETATM    4  C   UNL     1      31.343  78.004  19.572  1.00  0.00     0.046 A 
HETATM    5  C   UNL     1      31.403  77.139  20.664  1.00  0.00    -0.055 A 
HETATM    6  C   UNL     1      31.672  75.784  20.467  1.00  0.00     0.010 A 
HETATM    7  C   UNL     1      31.882  75.296  19.178  1.00  0.00     0.040 A 
HETATM    8  C   UNL     1      31.823  76.161  18.086  1.00  0.00     0.098 A 
BRANCH   5   9
HETATM    9  C   UNL     1      31.177  77.661  22.043  1.00  0.00     0.049 C 
BRANCH   9  10
HETATM   10  C   UNL     1      30.767  79.139  22.084  1.00  0.00     0.117 C 
BRANCH  10  11
HETATM   11  C   UNL     1      31.900  80.019  22.555  1.00  0.00     0.172 C 
HETATM   12  O   UNL     1      32.912  79.317  23.122  1.00  0.00    -0.648 OA
HETATM   13  O   UNL     1      31.919  81.235  22.419  1.00  0.00    -0.648 OA
ENDBRANCH  10  11
ENDBRANCH   9  10
ENDBRANCH   5   9
BRANCH   8  14
HETATM   14  O   UNL     1      32.031  75.674  16.831  1.00  0.00    -0.358 OA
HETATM   15  H   UNL     1      32.840  75.846  16.390  1.00  0.00     0.217 HD
ENDBRANCH   8  14
ENDBRANCH   1   3
TORSDOF 5
ENDMDL
MODEL 7
REMARK VINA RESULT:      -6.0      1.100      5.249
REMARK  5 active torsions:
REMARK  status: ('A' for Active; 'I' for Inactive)
REMARK    1  A    between atoms: O_1  and  C_10 
REMARK    2  A    between atoms: O_2  and  C_12 
REMARK    3  A    between atoms: C_5  and  C_6 
REMARK    4  A    between atoms: C_5  and  C_7 
REMARK    5  A    between atoms: C_7  and  C_13 
ROOT
HETATM    1  O   UNL     1      33.283  79.427  23.439  1.00  0.00    -0.358 OA
HETATM    2  H   UNL     1      32.827  80.116  23.878  1.00  0.00     0.217 HD
ENDROOT
BRANCH   1   3
HETATM    3  C   UNL     1      32.627  78.641  22.539  1.00  0.00     0.099 A 
HETATM    4  C   UNL     1      32.893  77.273  22.502  1.00  0.00     0.046 A 
HETATM    5  C   UNL     1      32.229  76.459  21.584  1.00  0.00    -0.055 A 
HETATM    6  C   UNL     1      31.299  77.014  20.705  1.00  0.00     0.010 A 
HETATM    7  C   UNL     1      31.033  78.382  20.742  1.00  0.00     0.040 A 
HETATM    8  C   UNL     1      31.697  79.196  21.660  1.00  0.00     0.098 A 
BRANCH   5   9
HETATM    9  C   UNL     1      32.513  74.995  21.544  1.00  0.00     0.049 C 
BRANCH   9  10
HETATM   10  C   UNL     1      31.263  74.129  21.345  1.00  0.00     0.117 C 
BRANCH  10  11
HETATM   11  C   UNL     1      30.806  73.504  22.641  1.00  0.00     0.172 C 
HETATM   12  O   UNL     1      29.987  74.313  23.356  1.00  0.00    -0.648 OA
HETATM   13  O   UNL     1      31.117  72.376  23.000  1.00  0.00    -0.648 OA
ENDBRANCH  10  11
ENDBRANCH   9  10
ENDBRANCH   5   9
BRANCH   8  14
HETATM   14  O   UNL     1      31.431  80.532  21.687  1.00  0.00    -0.358 OA
HETATM   15  H   UNL     1      30.610  80.852  21.370  1.00  0.00     0.217 HD
ENDBRANCH   8  14
ENDBRANCH   1   3
TORSDOF 5
ENDMDL
MODEL 8
REMARK VINA RESULT:      -6.0      2.002      5.469
REMARK  5 active torsions:
REMARK  status: ('A' for Active; 'I' for Inactive)
REMARK    1  A    between atoms: O_1  and  C_10 
REMARK    2  A    between atoms: O_2  and  C_12 
REMARK    3  A    between atoms: C_5  and  C_6 
REMARK    4  A    between atoms: C_5  and  C_7 
REMARK    5  A    between atoms: C_7  and  C_13 
ROOT
HETATM    1  O   UNL     1      33.273  79.297  23.378  1.00  0.00    -0.358 OA
HETATM    2  H   UNL     1      32.867  80.064  23.731  1.00  0.00     0.217 HD
ENDROOT
BRANCH   1   3
HETATM    3  C   UNL     1      32.605  78.526  22.475  1.00  0.00     0.099 A 
HETATM    4  C   UNL     1      32.781  77.144  22.490  1.00  0.00     0.046 A 
HETATM    5  C   UNL     1      32.104  76.344  21.569  1.00  0.00    -0.055 A 
HETATM    6  C   UNL     1      31.251  76.929  20.633  1.00  0.00     0.010 A 
HETATM    7  C   UNL     1      31.075  78.312  20.618  1.00  0.00     0.040 A 
HETATM    8  C   UNL     1      31.752  79.111  21.539  1.00  0.00     0.098 A 
BRANCH   5   9
HETATM    9  C   UNL     1      32.292  74.865  21.587  1.00  0.00     0.049 C 
BRANCH   9  10
HETATM   10  C   UNL     1      33.553  74.411  22.332  1.00  0.00     0.117 C 
BRANCH  10  11
HETATM   11  C   UNL     1      34.144  73.164  21.719  1.00  0.00     0.172 C 
HETATM   12  O   UNL     1      34.689  73.384  20.498  1.00  0.00    -0.648 OA
HETATM   13  O   UNL     1      34.156  72.073  22.274  1.00  0.00    -0.648 OA
ENDBRANCH  10  11
ENDBRANCH   9  10
ENDBRANCH   5   9
BRANCH   8  14
HETATM   14  O   UNL     1      31.574  80.461  21.513  1.00  0.00    -0.358 OA
HETATM   15  H   UNL     1      31.549  80.915  20.694  1.00  0.00     0.217 HD
ENDBRANCH   8  14
ENDBRANCH   1   3
TORSDOF 5
ENDMDL
MODEL 9
REMARK VINA RESULT:      -5.9      2.317      5.310
REMARK  5 active torsions:
REMARK  status: ('A' for Active; 'I' for Inactive)
REMARK    1  A    between atoms: O_1  and  C_10 
REMARK    2  A    between atoms: O_2  and  C_12 
REMARK    3  A    between atoms: C_5  and  C_6 
REMARK    4  A    between atoms: C_5  and  C_7 
REMARK    5  A    between atoms: C_7  and  C_13 
ROOT
HETATM    1  O   UNL     1      30.657  79.298  21.013  1.00  0.00    -0.358 OA
HETATM    2  H   UNL     1      29.842  79.391  21.464  1.00  0.00     0.217 HD
ENDROOT
BRANCH   1   3
HETATM    3  C   UNL     1      31.129  78.056  20.710  1.00  0.00     0.099 A 
HETATM    4  C   UNL     1      31.740  77.293  21.704  1.00  0.00     0.046 A 
HETATM    5  C   UNL     1      32.229  76.021  21.406  1.00  0.00    -0.055 A 
HETATM    6  C   UNL     1      32.105  75.513  20.113  1.00  0.00     0.010 A 
HETATM    7  C   UNL     1      31.494  76.275  19.119  1.00  0.00     0.040 A 
HETATM    8  C   UNL     1      31.006  77.547  19.417  1.00  0.00     0.098 A 
BRANCH   5   9
HETATM    9  C   UNL     1      32.882  75.206  22.470  1.00  0.00     0.049 C 
BRANCH   9  10
HETATM   10  C   UNL     1      33.687  74.018  21.930  1.00  0.00     0.117 C 
BRANCH  10  11
HETATM   11  C   UNL     1      33.161  72.703  22.453  1.00  0.00     0.172 C 
HETATM   12  O   UNL     1      34.140  71.788  22.660  1.00  0.00    -0.648 OA
HETATM   13  O   UNL     1      31.979  72.490  22.692  1.00  0.00    -0.648 OA
ENDBRANCH  10  11
ENDBRANCH   9  10
ENDBRANCH   5   9
BRANCH   8  14
HETATM   14  O   UNL     1      30.413  78.284  18.437  1.00  0.00    -0.358 OA
HETATM   15  H   UNL     1      30.165  77.878  17.630  1.00  0.00     0.217 HD
ENDBRANCH   8  14
ENDBRANCH   1   3
TORSDOF 5
ENDMDL
