MODEL 1
REMARK VINA RESULT:      -6.6      0.000      0.000
REMARK  5 active torsions:
REMARK  status: ('A' for Active; 'I' for Inactive)
REMARK    1  A    between atoms: O_1  and  C_10 
REMARK    2  A    between atoms: O_2  and  C_12 
REMARK    3  A    between atoms: C_5  and  C_6 
REMARK    4  A    between atoms: C_5  and  C_7 
REMARK    5  A    between atoms: C_7  and  C_13 
ROOT
HETATM    1  O   UNL     1      30.284  74.815  24.195  1.00  0.00    -0.358 OA
HETATM    2  H   UNL     1      29.566  74.217  24.263  1.00  0.00     0.217 HD
ENDROOT
BRANCH   1   3
HETATM    3  C   UNL     1      30.805  75.117  22.972  1.00  0.00     0.099 A 
HETATM    4  C   UNL     1      30.991  76.452  22.617  1.00  0.00     0.046 A 
HETATM    5  C   UNL     1      31.522  76.773  21.368  1.00  0.00    -0.055 A 
HETATM    6  C   UNL     1      31.868  75.758  20.475  1.00  0.00     0.010 A 
HETATM    7  C   UNL     1      31.682  74.423  20.831  1.00  0.00     0.040 A 
HETATM    8  C   UNL     1      31.151  74.102  22.080  1.00  0.00     0.098 A 
BRANCH   5   9
HETATM    9  C   UNL     1      31.722  78.202  20.987  1.00  0.00     0.049 C 
BRANCH   9  10
HETATM   10  C   UNL     1      30.985  79.191  21.898  1.00  0.00     0.117 C 
BRANCH  10  11
HETATM   11  C   UNL     1      31.944  80.123  22.599  1.00  0.00     0.172 C 
HETATM   12  O   UNL     1      32.973  79.472  23.194  1.00  0.00    -0.648 OA
HETATM   13  O   UNL     1      31.823  81.342  22.610  1.00  0.00    -0.648 OA
ENDBRANCH  10  11
ENDBRANCH   9  10
ENDBRANCH   5   9
BRANCH   8  14
HETATM   14  O   UNL     1      30.972  72.794  22.416  1.00  0.00    -0.358 OA
HETATM   15  H   UNL     1      31.126  72.122  21.782  1.00  0.00     0.217 HD
ENDBRANCH   8  14
ENDBRANCH   1   3
TORSDOF 5
ENDMDL
MODEL 2
REMARK VINA RESULT:      -6.5      3.566      4.376
REMARK  5 active torsions:
REMARK  status: ('A' for Active; 'I' for Inactive)
REMARK    1  A    between atoms: O_1  and  C_10 
REMARK    2  A    between atoms: O_2  and  C_12 
REMARK    3  A    between atoms: C_5  and  C_6 
REMARK    4  A    between atoms: C_5  and  C_7 
REMARK    5  A    between atoms: C_7  and  C_13 
ROOT
HETATM    1  O   UNL     1      31.091  78.874  22.908  1.00  0.00    -0.358 OA
HETATM    2  H   UNL     1      31.782  79.018  23.524  1.00  0.00     0.217 HD
ENDROOT
BRANCH   1   3
HETATM    3  C   UNL     1      31.207  77.894  21.969  1.00  0.00     0.099 A 
HETATM    4  C   UNL     1      30.954  78.194  20.631  1.00  0.00     0.046 A 
HETATM    5  C   UNL     1      31.068  77.199  19.660  1.00  0.00    -0.055 A 
HETATM    6  C   UNL     1      31.438  75.905  20.028  1.00  0.00     0.010 A 
HETATM    7  C   UNL     1      31.691  75.606  21.366  1.00  0.00     0.040 A 
HETATM    8  C   UNL     1      31.577  76.600  22.337  1.00  0.00     0.098 A 
BRANCH   5   9
HETATM    9  C   UNL     1      30.797  77.519  18.229  1.00  0.00     0.049 C 
BRANCH   9  10
HETATM   10  C   UNL     1      32.060  77.582  17.361  1.00  0.00     0.117 C 
BRANCH  10  11
HETATM   11  C   UNL     1      31.921  78.593  16.248  1.00  0.00     0.172 C 
HETATM   12  O   UNL     1      30.702  79.185  16.222  1.00  0.00    -0.648 OA
HETATM   13  O   UNL     1      32.820  78.871  15.465  1.00  0.00    -0.648 OA
ENDBRANCH  10  11
ENDBRANCH   9  10
ENDBRANCH   5   9
BRANCH   8  14
HETATM   14  O   UNL     1      31.825  76.297  23.641  1.00  0.00    -0.358 OA
HETATM   15  H   UNL     1      32.289  75.512  23.859  1.00  0.00     0.217 HD
ENDBRANCH   8  14
ENDBRANCH   1   3
TORSDOF 5
ENDMDL
MODEL 3
REMARK VINA RESULT:      -6.3      3.419      3.883
REMARK  5 active torsions:
REMARK  status: ('A' for Active; 'I' for Inactive)
REMARK    1  A    between atoms: O_1  and  C_10 
REMARK    2  A    between atoms: O_2  and  C_12 
REMARK    3  A    between atoms: C_5  and  C_6 
REMARK    4  A    between atoms: C_5  and  C_7 
REMARK    5  A    between atoms: C_7  and  C_13 
ROOT
HETATM    1  O   UNL     1      31.831  76.258  23.781  1.00  0.00    -0.358 OA
HETATM    2  H   UNL     1      32.545  76.532  24.322  1.00  0.00     0.217 HD
ENDROOT
BRANCH   1   3
HETATM    3  C   UNL     1      32.023  76.062  22.447  1.00  0.00     0.099 A 
HETATM    4  C   UNL     1      31.393  76.904  21.532  1.00  0.00     0.046 A 
HETATM    5  C   UNL     1      31.581  76.713  20.163  1.00  0.00    -0.055 A 
HETATM    6  C   UNL     1      32.400  75.679  19.710  1.00  0.00     0.010 A 
HETATM    7  C   UNL     1      33.030  74.836  20.625  1.00  0.00     0.040 A 
HETATM    8  C   UNL     1      32.843  75.028  21.994  1.00  0.00     0.098 A 
BRANCH   5   9
HETATM    9  C   UNL     1      30.906  77.614  19.185  1.00  0.00     0.049 C 
BRANCH   9  10
HETATM   10  C   UNL     1      30.834  77.040  17.765  1.00  0.00     0.117 C 
BRANCH  10  11
HETATM   11  C   UNL     1      30.942  78.124  16.719  1.00  0.00     0.172 C 
HETATM   12  O   UNL     1      29.980  79.070  16.840  1.00  0.00    -0.648 OA
HETATM   13  O   UNL     1      31.820  78.161  15.866  1.00  0.00    -0.648 OA
ENDBRANCH  10  11
ENDBRANCH   9  10
ENDBRANCH   5   9
BRANCH   8  14
HETATM   14  O   UNL     1      33.462  74.198  22.878  1.00  0.00    -0.358 OA
HETATM   15  H   UNL     1      34.395  74.109  22.863  1.00  0.00     0.217 HD
ENDBRANCH   8  14
ENDBRANCH   1   3
TORSDOF 5
ENDMDL
MODEL 4
REMARK VINA RESULT:      -6.2      3.563      4.411
REMARK  5 active torsions:
REMARK  status: ('A' for Active; 'I' for Inactive)
REMARK    1  A    between atoms: O_1  and  C_10 
REMARK    2  A    between atoms: O_2  and  C_12 
REMARK    3  A    between atoms: C_5  and  C_6 
REMARK    4  A    between atoms: C_5  and  C_7 
REMARK    5  A    between atoms: C_7  and  C_13 
ROOT
HETATM    1  O   UNL     1      32.350  74.414  21.617  1.00  0.00    -0.358 OA
HETATM    2  H   UNL     1      33.175  74.152  21.259  1.00  0.00     0.217 HD
ENDROOT
BRANCH   1   3
HETATM    3  C   UNL     1      31.862  75.660  21.364  1.00  0.00     0.099 A 
HETATM    4  C   UNL     1      31.582  76.032  20.050  1.00  0.00     0.046 A 
HETATM    5  C   UNL     1      31.083  77.306  19.777  1.00  0.00    -0.055 A 
HETATM    6  C   UNL     1      30.863  78.206  20.819  1.00  0.00     0.010 A 
HETATM    7  C   UNL     1      31.143  77.834  22.133  1.00  0.00     0.040 A 
HETATM    8  C   UNL     1      31.642  76.561  22.406  1.00  0.00     0.098 A 
BRANCH   5   9
HETATM    9  C   UNL     1      30.784  77.704  18.371  1.00  0.00     0.049 C 
BRANCH   9  10
HETATM   10  C   UNL     1      31.982  77.573  17.424  1.00  0.00     0.117 C 
BRANCH  10  11
HETATM   11  C   UNL     1      31.892  78.546  16.273  1.00  0.00     0.172 C 
HETATM   12  O   UNL     1      30.695  79.178  16.210  1.00  0.00    -0.648 OA
HETATM   13  O   UNL     1      32.810  78.763  15.492  1.00  0.00    -0.648 OA
ENDBRANCH  10  11
ENDBRANCH   9  10
ENDBRANCH   5   9
BRANCH   8  14
HETATM   14  O   UNL     1      31.914  76.208  23.693  1.00  0.00    -0.358 OA
HETATM   15  H   UNL     1      31.966  76.866  24.358  1.00  0.00     0.217 HD
ENDBRANCH   8  14
ENDBRANCH   1   3
TORSDOF 5
ENDMDL
MODEL 5
REMARK VINA RESULT:      -6.1      1.684      2.069
REMARK  5 active torsions:
REMARK  status: ('A' for Active; 'I' for Inactive)
REMARK    1  A    between atoms: O_1  and  C_10 
REMARK    2  A    between atoms: O_2  and  C_12 
REMARK    3  A    between atoms: C_5  and  C_6 
REMARK    4  A    between atoms: C_5  and  C_7 
REMARK    5  A    between atoms: C_7  and  C_13 
ROOT
HETATM    1  O   UNL     1      33.689  74.191  22.929  1.00  0.00    -0.358 OA
HETATM    2  H   UNL     1      33.271  73.467  23.352  1.00  0.00     0.217 HD
ENDROOT
BRANCH   1   3
HETATM    3  C   UNL     1      32.997  74.947  22.032  1.00  0.00     0.099 A 
HETATM    4  C   UNL     1      32.271  76.050  22.479  1.00  0.00     0.046 A 
HETATM    5  C   UNL     1      31.558  76.831  21.570  1.00  0.00    -0.055 A 
HETATM    6  C   UNL     1      31.572  76.509  20.213  1.00  0.00     0.010 A 
HETATM    7  C   UNL     1      32.298  75.406  19.765  1.00  0.00     0.040 A 
HETATM    8  C   UNL     1      33.011  74.625  20.674  1.00  0.00     0.098 A 
BRANCH   5   9
HETATM    9  C   UNL     1      30.781  78.011  22.049  1.00  0.00     0.049 C 
BRANCH   9  10
HETATM   10  C   UNL     1      31.325  79.353  21.546  1.00  0.00     0.117 C 
BRANCH  10  11
HETATM   11  C   UNL     1      32.132  80.061  22.607  1.00  0.00     0.172 C 
HETATM   12  O   UNL     1      31.773  81.358  22.765  1.00  0.00    -0.648 OA
HETATM   13  O   UNL     1      33.003  79.518  23.274  1.00  0.00    -0.648 OA
ENDBRANCH  10  11
ENDBRANCH   9  10
ENDBRANCH   5   9
BRANCH   8  14
HETATM   14  O   UNL     1      33.716  73.549  20.226  1.00  0.00    -0.358 OA
HETATM   15  H   UNL     1      34.313  73.645  19.510  1.00  0.00     0.217 HD
ENDBRANCH   8  14
ENDBRANCH   1   3
TORSDOF 5
ENDMDL
MODEL 6
REMARK VINA RESULT:      -5.9      2.353      5.249
REMARK  5 active torsions:
REMARK  status: ('A' for Active; 'I' for Inactive)
REMARK    1  A    between atoms: O_1  and  C_10 
REMARK    2  A    between atoms: O_2  and  C_12 
REMARK    3  A    between atoms: C_5  and  C_6 
REMARK    4  A    between atoms: C_5  and  C_7 
REMARK    5  A    between atoms: C_7  and  C_13 
ROOT
HETATM    1  O   UNL     1      30.674  79.307  20.998  1.00  0.00    -0.358 OA
HETATM    2  H   UNL     1      30.005  79.403  21.646  1.00  0.00     0.217 HD
ENDROOT
BRANCH   1   3
HETATM    3  C   UNL     1      31.154  78.069  20.693  1.00  0.00     0.099 A 
HETATM    4  C   UNL     1      31.803  77.323  21.677  1.00  0.00     0.046 A 
HETATM    5  C   UNL     1      32.299  76.055  21.377  1.00  0.00    -0.055 A 
HETATM    6  C   UNL     1      32.147  75.532  20.093  1.00  0.00     0.010 A 
HETATM    7  C   UNL     1      31.498  76.277  19.109  1.00  0.00     0.040 A 
HETATM    8  C   UNL     1      31.001  77.546  19.409  1.00  0.00     0.098 A 
BRANCH   5   9
HETATM    9  C   UNL     1      32.993  75.258  22.430  1.00  0.00     0.049 C 
BRANCH   9  10
HETATM   10  C   UNL     1      33.663  73.985  21.899  1.00  0.00     0.117 C 
BRANCH  10  11
HETATM   11  C   UNL     1      33.064  72.742  22.511  1.00  0.00     0.172 C 
HETATM   12  O   UNL     1      33.967  72.008  23.206  1.00  0.00    -0.648 OA
HETATM   13  O   UNL     1      31.882  72.438  22.415  1.00  0.00    -0.648 OA
ENDBRANCH  10  11
ENDBRANCH   9  10
ENDBRANCH   5   9
BRANCH   8  14
HETATM   14  O   UNL     1      30.371  78.266  18.440  1.00  0.00    -0.358 OA
HETATM   15  H   UNL     1      29.449  78.423  18.497  1.00  0.00     0.217 HD
ENDBRANCH   8  14
ENDBRANCH   1   3
TORSDOF 5
ENDMDL
MODEL 7
REMARK VINA RESULT:      -5.8      4.120      5.197
REMARK  5 active torsions:
REMARK  status: ('A' for Active; 'I' for Inactive)
REMARK    1  A    between atoms: O_1  and  C_10 
REMARK    2  A    between atoms: O_2  and  C_12 
REMARK    3  A    between atoms: C_5  and  C_6 
REMARK    4  A    between atoms: C_5  and  C_7 
REMARK    5  A    between atoms: C_7  and  C_13 
ROOT
HETATM    1  O   UNL     1      29.826  79.149  16.665  1.00  0.00    -0.358 OA
HETATM    2  H   UNL     1      29.406  79.679  17.312  1.00  0.00     0.217 HD
ENDROOT
BRANCH   1   3
HETATM    3  C   UNL     1      30.355  77.941  17.011  1.00  0.00     0.099 A 
HETATM    4  C   UNL     1      30.658  77.683  18.347  1.00  0.00     0.046 A 
HETATM    5  C   UNL     1      31.200  76.452  18.714  1.00  0.00    -0.055 A 
HETATM    6  C   UNL     1      31.439  75.478  17.744  1.00  0.00     0.010 A 
HETATM    7  C   UNL     1      31.136  75.736  16.407  1.00  0.00     0.040 A 
HETATM    8  C   UNL     1      30.593  76.968  16.041  1.00  0.00     0.098 A 
BRANCH   5   9
HETATM    9  C   UNL     1      31.523  76.176  20.143  1.00  0.00     0.049 C 
BRANCH   9  10
HETATM   10  C   UNL     1      31.790  77.439  20.971  1.00  0.00     0.117 C 
BRANCH  10  11
HETATM   11  C   UNL     1      31.586  77.192  22.446  1.00  0.00     0.172 C 
HETATM   12  O   UNL     1      30.441  77.742  22.919  1.00  0.00    -0.648 OA
HETATM   13  O   UNL     1      32.358  76.543  23.141  1.00  0.00    -0.648 OA
ENDBRANCH  10  11
ENDBRANCH   9  10
ENDBRANCH   5   9
BRANCH   8  14
HETATM   14  O   UNL     1      30.303  77.210  14.732  1.00  0.00    -0.358 OA
HETATM   15  H   UNL     1      30.058  76.503  14.168  1.00  0.00     0.217 HD
ENDBRANCH   8  14
ENDBRANCH   1   3
TORSDOF 5
ENDMDL
MODEL 8
REMARK VINA RESULT:      -5.8      1.761      5.355
REMARK  5 active torsions:
REMARK  status: ('A' for Active; 'I' for Inactive)
REMARK    1  A    between atoms: O_1  and  C_10 
REMARK    2  A    between atoms: O_2  and  C_12 
REMARK    3  A    between atoms: C_5  and  C_6 
REMARK    4  A    between atoms: C_5  and  C_7 
REMARK    5  A    between atoms: C_7  and  C_13 
ROOT
HETATM    1  O   UNL     1      30.492  78.404  19.033  1.00  0.00    -0.358 OA
HETATM    2  H   UNL     1      29.573  78.257  18.927  1.00  0.00     0.217 HD
ENDROOT
BRANCH   1   3
HETATM    3  C   UNL     1      31.177  77.758  20.018  1.00  0.00     0.099 A 
HETATM    4  C   UNL     1      31.433  76.393  19.893  1.00  0.00     0.046 A 
HETATM    5  C   UNL     1      32.132  75.720  20.895  1.00  0.00    -0.055 A 
HETATM    6  C   UNL     1      32.575  76.414  22.022  1.00  0.00     0.010 A 
HETATM    7  C   UNL     1      32.319  77.779  22.146  1.00  0.00     0.040 A 
HETATM    8  C   UNL     1      31.620  78.451  21.144  1.00  0.00     0.098 A 
BRANCH   5   9
HETATM    9  C   UNL     1      32.405  74.260  20.762  1.00  0.00     0.049 C 
BRANCH   9  10
HETATM   10  C   UNL     1      31.166  73.379  20.959  1.00  0.00     0.117 C 
BRANCH  10  11
HETATM   11  C   UNL     1      30.944  73.047  22.415  1.00  0.00     0.172 C 
HETATM   12  O   UNL     1      31.775  72.076  22.867  1.00  0.00    -0.648 OA
HETATM   13  O   UNL     1      30.120  73.610  23.124  1.00  0.00    -0.648 OA
ENDBRANCH  10  11
ENDBRANCH   9  10
ENDBRANCH   5   9
BRANCH   8  14
HETATM   14  O   UNL     1      31.374  79.784  21.277  1.00  0.00    -0.358 OA
HETATM   15  H   UNL     1      31.641  80.235  22.054  1.00  0.00     0.217 HD
ENDBRANCH   8  14
ENDBRANCH   1   3
TORSDOF 5
ENDMDL
MODEL 9
REMARK VINA RESULT:      -5.8      2.847      3.707
REMARK  5 active torsions:
REMARK  status: ('A' for Active; 'I' for Inactive)
REMARK    1  A    between atoms: O_1  and  C_10 
REMARK    2  A    between atoms: O_2  and  C_12 
REMARK    3  A    between atoms: C_5  and  C_6 
REMARK    4  A    between atoms: C_5  and  C_7 
REMARK    5  A    between atoms: C_7  and  C_13 
ROOT
HETATM    1  O   UNL     1      32.395  74.252  18.081  1.00  0.00    -0.358 OA
HETATM    2  H   UNL     1      32.784  73.717  18.744  1.00  0.00     0.217 HD
ENDROOT
BRANCH   1   3
HETATM    3  C   UNL     1      31.851  75.457  18.410  1.00  0.00     0.099 A 
HETATM    4  C   UNL     1      31.912  75.899  19.731  1.00  0.00     0.046 A 
HETATM    5  C   UNL     1      31.358  77.131  20.080  1.00  0.00    -0.055 A 
HETATM    6  C   UNL     1      30.744  77.920  19.108  1.00  0.00     0.010 A 
HETATM    7  C   UNL     1      30.682  77.478  17.787  1.00  0.00     0.040 A 
HETATM    8  C   UNL     1      31.236  76.246  17.438  1.00  0.00     0.098 A 
BRANCH   5   9
HETATM    9  C   UNL     1      31.425  77.604  21.493  1.00  0.00     0.049 C 
BRANCH   9  10
HETATM   10  C   UNL     1      30.943  79.047  21.684  1.00  0.00     0.117 C 
BRANCH  10  11
HETATM   11  C   UNL     1      31.957  79.879  22.432  1.00  0.00     0.172 C 
HETATM   12  O   UNL     1      32.892  79.128  23.063  1.00  0.00    -0.648 OA
HETATM   13  O   UNL     1      31.954  81.103  22.447  1.00  0.00    -0.648 OA
ENDBRANCH  10  11
ENDBRANCH   9  10
ENDBRANCH   5   9
BRANCH   8  14
HETATM   14  O   UNL     1      31.169  75.823  16.145  1.00  0.00    -0.358 OA
HETATM   15  H   UNL     1      31.376  74.935  15.931  1.00  0.00     0.217 HD
ENDBRANCH   8  14
ENDBRANCH   1   3
TORSDOF 5
ENDMDL
