MODEL 1
REMARK VINA RESULT:      -7.8      0.000      0.000
REMARK  4 active torsions:
REMARK  status: ('A' for Active; 'I' for Inactive)
REMARK    1  A    between atoms: O_1  and  C_5 
REMARK    2  A    between atoms: O_1  and  C_14 
REMARK    3  A    between atoms: O_2  and  C_18 
REMARK    4  A    between atoms: C_10  and  C_13 
ROOT
HETATM    1  O   UNL     1     -53.581  46.782   8.489  1.00  0.00    -0.343 OA
ENDROOT
BRANCH   1   2
HETATM    2  C   UNL     1     -54.330  47.141   9.642  1.00  0.00     0.129 C 
HETATM    3  C   UNL     1     -55.589  47.882   9.217  1.00  0.00     0.032 C 
HETATM    4  C   UNL     1     -55.118  49.307   8.930  1.00  0.00     0.002 C 
HETATM    5  C   UNL     1     -53.811  49.488   9.703  1.00  0.00     0.002 C 
HETATM    6  C   UNL     1     -53.579  48.182  10.458  1.00  0.00     0.032 C 
ENDBRANCH   1   2
BRANCH   1   7
HETATM    7  C   UNL     1     -53.060  45.515   8.461  1.00  0.00     0.103 A 
HETATM    8  C   UNL     1     -51.819  45.280   9.045  1.00  0.00     0.047 A 
HETATM    9  C   UNL     1     -51.277  43.995   9.022  1.00  0.00    -0.049 A 
HETATM   10  C   UNL     1     -51.978  42.952   8.416  1.00  0.00     0.010 A 
HETATM   11  C   UNL     1     -53.221  43.195   7.832  1.00  0.00     0.040 A 
HETATM   12  C   UNL     1     -53.764  44.480   7.854  1.00  0.00     0.101 A 
BRANCH   9  13
HETATM   13  C   UNL     1     -49.928  43.732   9.657  1.00  0.00     0.045 C 
HETATM   14  C   UNL     1     -48.978  42.840   8.856  1.00  0.00     0.132 C 
HETATM   15  N   UNL     1     -47.680  43.178   9.368  1.00  0.00    -0.360 N 
HETATM   16  C   UNL     1     -47.658  44.416   9.993  1.00  0.00     0.218 C 
HETATM   17  H   UNL     1     -46.891  42.594   9.284  1.00  0.00     0.162 HD
HETATM   18  O   UNL     1     -46.694  44.985  10.479  1.00  0.00    -0.274 OA
HETATM   19  C   UNL     1     -49.058  44.976   9.918  1.00  0.00     0.113 C 
ENDBRANCH   9  13
BRANCH  12  20
HETATM   20  O   UNL     1     -54.978  44.705   7.280  1.00  0.00    -0.353 OA
HETATM   21  C   UNL     1     -55.236  44.059   6.035  1.00  0.00     0.210 C 
ENDBRANCH  12  20
ENDBRANCH   1   7
TORSDOF 4
ENDMDL
MODEL 2
REMARK VINA RESULT:      -7.6      3.335      6.499
REMARK  4 active torsions:
REMARK  status: ('A' for Active; 'I' for Inactive)
REMARK    1  A    between atoms: O_1  and  C_5 
REMARK    2  A    between atoms: O_1  and  C_14 
REMARK    3  A    between atoms: O_2  and  C_18 
REMARK    4  A    between atoms: C_10  and  C_13 
ROOT
HETATM    1  O   UNL     1     -53.774  43.519   8.732  1.00  0.00    -0.343 OA
ENDROOT
BRANCH   1   2
HETATM    2  C   UNL     1     -53.300  43.509   7.392  1.00  0.00     0.129 C 
HETATM    3  C   UNL     1     -53.334  42.086   6.855  1.00  0.00     0.032 C 
HETATM    4  C   UNL     1     -52.080  41.429   7.431  1.00  0.00     0.002 C 
HETATM    5  C   UNL     1     -51.121  42.567   7.778  1.00  0.00     0.002 C 
HETATM    6  C   UNL     1     -51.820  43.856   7.351  1.00  0.00     0.032 C 
ENDBRANCH   1   2
BRANCH   1   7
HETATM    7  C   UNL     1     -53.564  44.666   9.452  1.00  0.00     0.103 A 
HETATM    8  C   UNL     1     -53.983  45.883   8.924  1.00  0.00     0.047 A 
HETATM    9  C   UNL     1     -53.775  47.058   9.646  1.00  0.00    -0.049 A 
HETATM   10  C   UNL     1     -53.147  47.011  10.891  1.00  0.00     0.010 A 
HETATM   11  C   UNL     1     -52.730  45.788  11.414  1.00  0.00     0.040 A 
HETATM   12  C   UNL     1     -52.938  44.612  10.693  1.00  0.00     0.101 A 
BRANCH   9  13
HETATM   13  C   UNL     1     -54.229  48.386   9.078  1.00  0.00     0.045 C 
HETATM   14  C   UNL     1     -55.605  48.871   9.536  1.00  0.00     0.132 C 
HETATM   15  N   UNL     1     -55.559  50.289   9.315  1.00  0.00    -0.360 N 
HETATM   16  C   UNL     1     -54.262  50.776   9.239  1.00  0.00     0.218 C 
HETATM   17  H   UNL     1     -56.361  50.854   9.227  1.00  0.00     0.162 HD
HETATM   18  O   UNL     1     -53.912  51.937   9.106  1.00  0.00    -0.274 OA
HETATM   19  C   UNL     1     -53.335  49.596   9.410  1.00  0.00     0.113 C 
ENDBRANCH   9  13
BRANCH  12  20
HETATM   20  O   UNL     1     -52.524  43.423  11.214  1.00  0.00    -0.353 OA
HETATM   21  C   UNL     1     -51.132  43.286  11.490  1.00  0.00     0.210 C 
ENDBRANCH  12  20
ENDBRANCH   1   7
TORSDOF 4
ENDMDL
MODEL 3
REMARK VINA RESULT:      -7.6      3.519      6.398
REMARK  4 active torsions:
REMARK  status: ('A' for Active; 'I' for Inactive)
REMARK    1  A    between atoms: O_1  and  C_5 
REMARK    2  A    between atoms: O_1  and  C_14 
REMARK    3  A    between atoms: O_2  and  C_18 
REMARK    4  A    between atoms: C_10  and  C_13 
ROOT
HETATM    1  O   UNL     1     -53.812  43.345   8.549  1.00  0.00    -0.343 OA
ENDROOT
BRANCH   1   2
HETATM    2  C   UNL     1     -52.854  43.094   7.528  1.00  0.00     0.129 C 
HETATM    3  C   UNL     1     -52.978  44.157   6.447  1.00  0.00     0.032 C 
HETATM    4  C   UNL     1     -54.172  43.709   5.604  1.00  0.00     0.002 C 
HETATM    5  C   UNL     1     -54.327  42.208   5.848  1.00  0.00     0.002 C 
HETATM    6  C   UNL     1     -53.192  41.810   6.788  1.00  0.00     0.032 C 
ENDBRANCH   1   2
BRANCH   1   7
HETATM    7  C   UNL     1     -53.623  44.468   9.311  1.00  0.00     0.103 A 
HETATM    8  C   UNL     1     -54.024  45.702   8.808  1.00  0.00     0.047 A 
HETATM    9  C   UNL     1     -53.835  46.853   9.574  1.00  0.00    -0.049 A 
HETATM   10  C   UNL     1     -53.246  46.764  10.835  1.00  0.00     0.010 A 
HETATM   11  C   UNL     1     -52.846  45.524  11.332  1.00  0.00     0.040 A 
HETATM   12  C   UNL     1     -53.034  44.372  10.567  1.00  0.00     0.101 A 
BRANCH   9  13
HETATM   13  C   UNL     1     -54.270  48.199   9.035  1.00  0.00     0.045 C 
HETATM   14  C   UNL     1     -55.623  48.711   9.532  1.00  0.00     0.132 C 
HETATM   15  N   UNL     1     -55.548  50.130   9.329  1.00  0.00    -0.360 N 
HETATM   16  C   UNL     1     -54.241  50.586   9.229  1.00  0.00     0.218 C 
HETATM   17  H   UNL     1     -56.337  50.716   9.269  1.00  0.00     0.162 HD
HETATM   18  O   UNL     1     -53.866  51.741   9.103  1.00  0.00    -0.274 OA
HETATM   19  C   UNL     1     -53.340  49.383   9.362  1.00  0.00     0.113 C 
ENDBRANCH   9  13
BRANCH  12  20
HETATM   20  O   UNL     1     -52.639  43.166  11.062  1.00  0.00    -0.353 OA
HETATM   21  C   UNL     1     -51.597  43.177  12.035  1.00  0.00     0.210 C 
ENDBRANCH  12  20
ENDBRANCH   1   7
TORSDOF 4
ENDMDL
MODEL 4
REMARK VINA RESULT:      -7.5      3.050      4.685
REMARK  4 active torsions:
REMARK  status: ('A' for Active; 'I' for Inactive)
REMARK    1  A    between atoms: O_1  and  C_5 
REMARK    2  A    between atoms: O_1  and  C_14 
REMARK    3  A    between atoms: O_2  and  C_18 
REMARK    4  A    between atoms: C_10  and  C_13 
ROOT
HETATM    1  O   UNL     1     -53.238  48.264  10.855  1.00  0.00    -0.343 OA
ENDROOT
BRANCH   1   2
HETATM    2  C   UNL     1     -53.432  48.628   9.495  1.00  0.00     0.129 C 
HETATM    3  C   UNL     1     -53.485  50.144   9.379  1.00  0.00     0.032 C 
HETATM    4  C   UNL     1     -54.905  50.512   9.806  1.00  0.00     0.002 C 
HETATM    5  C   UNL     1     -55.751  49.255   9.607  1.00  0.00     0.002 C 
HETATM    6  C   UNL     1     -54.814  48.200   9.024  1.00  0.00     0.032 C 
ENDBRANCH   1   2
BRANCH   1   7
HETATM    7  C   UNL     1     -52.925  46.954  11.106  1.00  0.00     0.103 A 
HETATM    8  C   UNL     1     -53.238  45.989  10.152  1.00  0.00     0.047 A 
HETATM    9  C   UNL     1     -52.925  44.652  10.396  1.00  0.00    -0.049 A 
HETATM   10  C   UNL     1     -52.304  44.286  11.590  1.00  0.00     0.010 A 
HETATM   11  C   UNL     1     -51.994  45.257  12.540  1.00  0.00     0.040 A 
HETATM   12  C   UNL     1     -52.306  46.596  12.298  1.00  0.00     0.101 A 
BRANCH   9  13
HETATM   13  C   UNL     1     -53.261  43.597   9.363  1.00  0.00     0.045 C 
HETATM   14  C   UNL     1     -53.622  44.118   7.971  1.00  0.00     0.132 C 
HETATM   15  N   UNL     1     -53.370  42.996   7.111  1.00  0.00    -0.360 N 
HETATM   16  C   UNL     1     -52.506  42.070   7.679  1.00  0.00     0.218 C 
HETATM   17  H   UNL     1     -53.767  42.895   6.215  1.00  0.00     0.162 HD
HETATM   18  O   UNL     1     -52.075  41.048   7.170  1.00  0.00    -0.274 OA
HETATM   19  C   UNL     1     -52.139  42.589   9.048  1.00  0.00     0.113 C 
ENDBRANCH   9  13
BRANCH  12  20
HETATM   20  O   UNL     1     -52.000  47.536  13.235  1.00  0.00    -0.353 OA
HETATM   21  C   UNL     1     -50.857  47.289  14.051  1.00  0.00     0.210 C 
ENDBRANCH  12  20
ENDBRANCH   1   7
TORSDOF 4
ENDMDL
MODEL 5
REMARK VINA RESULT:      -7.5      1.296      1.512
REMARK  4 active torsions:
REMARK  status: ('A' for Active; 'I' for Inactive)
REMARK    1  A    between atoms: O_1  and  C_5 
REMARK    2  A    between atoms: O_1  and  C_14 
REMARK    3  A    between atoms: O_2  and  C_18 
REMARK    4  A    between atoms: C_10  and  C_13 
ROOT
HETATM    1  O   UNL     1     -53.299  46.688   8.469  1.00  0.00    -0.343 OA
ENDROOT
BRANCH   1   2
HETATM    2  C   UNL     1     -54.080  46.982   9.621  1.00  0.00     0.129 C 
HETATM    3  C   UNL     1     -55.394  47.617   9.192  1.00  0.00     0.032 C 
HETATM    4  C   UNL     1     -55.041  49.076   8.909  1.00  0.00     0.002 C 
HETATM    5  C   UNL     1     -53.757  49.364   9.687  1.00  0.00     0.002 C 
HETATM    6  C   UNL     1     -53.421  48.079  10.441  1.00  0.00     0.032 C 
ENDBRANCH   1   2
BRANCH   1   7
HETATM    7  C   UNL     1     -52.838  45.403   8.349  1.00  0.00     0.103 A 
HETATM    8  C   UNL     1     -51.634  45.057   8.955  1.00  0.00     0.047 A 
HETATM    9  C   UNL     1     -51.153  43.753   8.839  1.00  0.00    -0.049 A 
HETATM   10  C   UNL     1     -51.875  42.803   8.116  1.00  0.00     0.010 A 
HETATM   11  C   UNL     1     -53.080  43.158   7.510  1.00  0.00     0.040 A 
HETATM   12  C   UNL     1     -53.563  44.462   7.627  1.00  0.00     0.101 A 
BRANCH   9  13
HETATM   13  C   UNL     1     -49.845  43.368   9.497  1.00  0.00     0.045 C 
HETATM   14  C   UNL     1     -49.938  42.927  10.959  1.00  0.00     0.132 C 
HETATM   15  N   UNL     1     -48.748  42.149  11.158  1.00  0.00    -0.360 N 
HETATM   16  C   UNL     1     -48.211  41.681   9.967  1.00  0.00     0.218 C 
HETATM   17  H   UNL     1     -48.357  41.967  12.043  1.00  0.00     0.162 HD
HETATM   18  O   UNL     1     -47.237  40.959   9.826  1.00  0.00    -0.274 OA
HETATM   19  C   UNL     1     -49.095  42.186   8.853  1.00  0.00     0.113 C 
ENDBRANCH   9  13
BRANCH  12  20
HETATM   20  O   UNL     1     -54.741  44.797   7.030  1.00  0.00    -0.353 OA
HETATM   21  C   UNL     1     -55.168  43.984   5.939  1.00  0.00     0.210 C 
ENDBRANCH  12  20
ENDBRANCH   1   7
TORSDOF 4
ENDMDL
MODEL 6
REMARK VINA RESULT:      -7.5      3.946      6.494
REMARK  4 active torsions:
REMARK  status: ('A' for Active; 'I' for Inactive)
REMARK    1  A    between atoms: O_1  and  C_5 
REMARK    2  A    between atoms: O_1  and  C_14 
REMARK    3  A    between atoms: O_2  and  C_18 
REMARK    4  A    between atoms: C_10  and  C_13 
ROOT
HETATM    1  O   UNL     1     -51.696  47.502  13.743  1.00  0.00    -0.343 OA
ENDROOT
BRANCH   1   2
HETATM    2  C   UNL     1     -52.661  46.722  14.436  1.00  0.00     0.129 C 
HETATM    3  C   UNL     1     -53.065  47.439  15.716  1.00  0.00     0.032 C 
HETATM    4  C   UNL     1     -51.935  47.134  16.699  1.00  0.00     0.002 C 
HETATM    5  C   UNL     1     -51.254  45.865  16.187  1.00  0.00     0.002 C 
HETATM    6  C   UNL     1     -52.034  45.434  14.947  1.00  0.00     0.032 C 
ENDBRANCH   1   2
BRANCH   1   7
HETATM    7  C   UNL     1     -51.296  47.042  12.516  1.00  0.00     0.103 A 
HETATM    8  C   UNL     1     -52.237  46.926  11.497  1.00  0.00     0.047 A 
HETATM    9  C   UNL     1     -51.843  46.457  10.243  1.00  0.00    -0.049 A 
HETATM   10  C   UNL     1     -50.512  46.106  10.016  1.00  0.00     0.010 A 
HETATM   11  C   UNL     1     -49.575  46.223  11.042  1.00  0.00     0.040 A 
HETATM   12  C   UNL     1     -49.968  46.693  12.296  1.00  0.00     0.101 A 
BRANCH   9  13
HETATM   13  C   UNL     1     -52.860  46.330   9.130  1.00  0.00     0.045 C 
HETATM   14  C   UNL     1     -52.599  45.219   8.111  1.00  0.00     0.132 C 
HETATM   15  N   UNL     1     -53.890  44.972   7.535  1.00  0.00    -0.360 N 
HETATM   16  C   UNL     1     -54.929  45.414   8.343  1.00  0.00     0.218 C 
HETATM   17  H   UNL     1     -54.025  44.537   6.663  1.00  0.00     0.162 HD
HETATM   18  O   UNL     1     -56.127  45.299   8.141  1.00  0.00    -0.274 OA
HETATM   19  C   UNL     1     -54.304  46.026   9.574  1.00  0.00     0.113 C 
ENDBRANCH   9  13
BRANCH  12  20
HETATM   20  O   UNL     1     -49.044  46.803  13.291  1.00  0.00    -0.353 OA
HETATM   21  C   UNL     1     -47.839  46.056  13.140  1.00  0.00     0.210 C 
ENDBRANCH  12  20
ENDBRANCH   1   7
TORSDOF 4
ENDMDL
MODEL 7
REMARK VINA RESULT:      -7.4      3.276      4.960
REMARK  4 active torsions:
REMARK  status: ('A' for Active; 'I' for Inactive)
REMARK    1  A    between atoms: O_1  and  C_5 
REMARK    2  A    between atoms: O_1  and  C_14 
REMARK    3  A    between atoms: O_2  and  C_18 
REMARK    4  A    between atoms: C_10  and  C_13 
ROOT
HETATM    1  O   UNL     1     -52.201  47.533  12.339  1.00  0.00    -0.343 OA
ENDROOT
BRANCH   1   2
HETATM    2  C   UNL     1     -51.656  46.547  13.206  1.00  0.00     0.129 C 
HETATM    3  C   UNL     1     -52.539  46.416  14.439  1.00  0.00     0.032 C 
HETATM    4  C   UNL     1     -52.137  47.593  15.326  1.00  0.00     0.002 C 
HETATM    5  C   UNL     1     -50.732  48.002  14.883  1.00  0.00     0.002 C 
HETATM    6  C   UNL     1     -50.332  47.023  13.782  1.00  0.00     0.032 C 
ENDBRANCH   1   2
BRANCH   1   7
HETATM    7  C   UNL     1     -52.846  47.080  11.218  1.00  0.00     0.103 A 
HETATM    8  C   UNL     1     -52.748  45.734  10.878  1.00  0.00     0.047 A 
HETATM    9  C   UNL     1     -53.399  45.260   9.739  1.00  0.00    -0.049 A 
HETATM   10  C   UNL     1     -54.141  46.134   8.944  1.00  0.00     0.010 A 
HETATM   11  C   UNL     1     -54.234  47.482   9.290  1.00  0.00     0.040 A 
HETATM   12  C   UNL     1     -53.584  47.957  10.430  1.00  0.00     0.101 A 
BRANCH   9  13
HETATM   13  C   UNL     1     -53.299  43.797   9.364  1.00  0.00     0.045 C 
HETATM   14  C   UNL     1     -53.340  43.488   7.867  1.00  0.00     0.132 C 
HETATM   15  N   UNL     1     -52.717  42.198   7.767  1.00  0.00    -0.360 N 
HETATM   16  C   UNL     1     -51.920  41.903   8.864  1.00  0.00     0.218 C 
HETATM   17  H   UNL     1     -52.841  41.589   7.003  1.00  0.00     0.162 HD
HETATM   18  O   UNL     1     -51.234  40.909   9.037  1.00  0.00    -0.274 OA
HETATM   19  C   UNL     1     -52.008  43.080   9.805  1.00  0.00     0.113 C 
ENDBRANCH   9  13
BRANCH  12  20
HETATM   20  O   UNL     1     -53.681  49.275  10.757  1.00  0.00    -0.353 OA
HETATM   21  C   UNL     1     -54.044  50.176   9.713  1.00  0.00     0.210 C 
ENDBRANCH  12  20
ENDBRANCH   1   7
TORSDOF 4
ENDMDL
MODEL 8
REMARK VINA RESULT:      -7.3      1.070      1.148
REMARK  4 active torsions:
REMARK  status: ('A' for Active; 'I' for Inactive)
REMARK    1  A    between atoms: O_1  and  C_5 
REMARK    2  A    between atoms: O_1  and  C_14 
REMARK    3  A    between atoms: O_2  and  C_18 
REMARK    4  A    between atoms: C_10  and  C_13 
ROOT
HETATM    1  O   UNL     1     -53.260  46.178   8.097  1.00  0.00    -0.343 OA
ENDROOT
BRANCH   1   2
HETATM    2  C   UNL     1     -53.988  46.203   9.318  1.00  0.00     0.129 C 
HETATM    3  C   UNL     1     -55.478  46.265   9.016  1.00  0.00     0.032 C 
HETATM    4  C   UNL     1     -55.742  47.734   8.688  1.00  0.00     0.002 C 
HETATM    5  C   UNL     1     -54.604  48.527   9.333  1.00  0.00     0.002 C 
HETATM    6  C   UNL     1     -53.734  47.505  10.060  1.00  0.00     0.032 C 
ENDBRANCH   1   2
BRANCH   1   7
HETATM    7  C   UNL     1     -52.462  45.085   7.877  1.00  0.00     0.103 A 
HETATM    8  C   UNL     1     -51.425  44.814   8.765  1.00  0.00     0.047 A 
HETATM    9  C   UNL     1     -50.606  43.706   8.552  1.00  0.00    -0.049 A 
HETATM   10  C   UNL     1     -50.825  42.877   7.452  1.00  0.00     0.010 A 
HETATM   11  C   UNL     1     -51.865  43.155   6.566  1.00  0.00     0.040 A 
HETATM   12  C   UNL     1     -52.686  44.263   6.779  1.00  0.00     0.101 A 
BRANCH   9  13
HETATM   13  C   UNL     1     -49.477  43.404   9.514  1.00  0.00     0.045 C 
HETATM   14  C   UNL     1     -48.340  42.544   8.959  1.00  0.00     0.132 C 
HETATM   15  N   UNL     1     -47.231  42.848   9.818  1.00  0.00    -0.360 N 
HETATM   16  C   UNL     1     -47.386  44.056  10.484  1.00  0.00     0.218 C 
HETATM   17  H   UNL     1     -46.445  42.264   9.923  1.00  0.00     0.162 HD
HETATM   18  O   UNL     1     -46.593  44.595  11.239  1.00  0.00    -0.274 OA
HETATM   19  C   UNL     1     -48.717  44.628  10.060  1.00  0.00     0.113 C 
ENDBRANCH   9  13
BRANCH  12  20
HETATM   20  O   UNL     1     -53.699  44.525   5.906  1.00  0.00    -0.353 OA
HETATM   21  C   UNL     1     -54.907  43.789   6.077  1.00  0.00     0.210 C 
ENDBRANCH  12  20
ENDBRANCH   1   7
TORSDOF 4
ENDMDL
MODEL 9
REMARK VINA RESULT:      -7.3      3.207      5.161
REMARK  4 active torsions:
REMARK  status: ('A' for Active; 'I' for Inactive)
REMARK    1  A    between atoms: O_1  and  C_5 
REMARK    2  A    between atoms: O_1  and  C_14 
REMARK    3  A    between atoms: O_2  and  C_18 
REMARK    4  A    between atoms: C_10  and  C_13 
ROOT
HETATM    1  O   UNL     1     -53.859  42.829   7.778  1.00  0.00    -0.343 OA
ENDROOT
BRANCH   1   2
HETATM    2  C   UNL     1     -54.021  43.872   6.825  1.00  0.00     0.129 C 
HETATM    3  C   UNL     1     -55.040  43.445   5.778  1.00  0.00     0.032 C 
HETATM    4  C   UNL     1     -54.258  42.536   4.831  1.00  0.00     0.002 C 
HETATM    5  C   UNL     1     -52.784  42.903   5.005  1.00  0.00     0.002 C 
HETATM    6  C   UNL     1     -52.748  44.049   6.013  1.00  0.00     0.032 C 
ENDBRANCH   1   2
BRANCH   1   7
HETATM    7  C   UNL     1     -52.836  42.970   8.679  1.00  0.00     0.103 A 
HETATM    8  C   UNL     1     -52.758  44.135   9.437  1.00  0.00     0.047 A 
HETATM    9  C   UNL     1     -51.720  44.291  10.356  1.00  0.00    -0.049 A 
HETATM   10  C   UNL     1     -50.768  43.285  10.512  1.00  0.00     0.010 A 
HETATM   11  C   UNL     1     -50.852  42.121   9.749  1.00  0.00     0.040 A 
HETATM   12  C   UNL     1     -51.890  41.963   8.829  1.00  0.00     0.101 A 
BRANCH   9  13
HETATM   13  C   UNL     1     -51.629  45.555  11.185  1.00  0.00     0.045 C 
HETATM   14  C   UNL     1     -52.338  46.782  10.611  1.00  0.00     0.132 C 
HETATM   15  N   UNL     1     -52.556  47.619  11.757  1.00  0.00    -0.360 N 
HETATM   16  C   UNL     1     -52.512  46.911  12.950  1.00  0.00     0.218 C 
HETATM   17  H   UNL     1     -52.719  48.588  11.703  1.00  0.00     0.162 HD
HETATM   18  O   UNL     1     -52.707  47.342  14.075  1.00  0.00    -0.274 OA
HETATM   19  C   UNL     1     -52.229  45.470  12.602  1.00  0.00     0.113 C 
ENDBRANCH   9  13
BRANCH  12  20
HETATM   20  O   UNL     1     -51.962  40.822   8.089  1.00  0.00    -0.353 OA
HETATM   21  C   UNL     1     -50.731  40.273   7.624  1.00  0.00     0.210 C 
ENDBRANCH  12  20
ENDBRANCH   1   7
TORSDOF 4
ENDMDL
