MODEL 1
REMARK VINA RESULT:      -7.8      0.000      0.000
REMARK  4 active torsions:
REMARK  status: ('A' for Active; 'I' for Inactive)
REMARK    1  A    between atoms: O_1  and  C_5 
REMARK    2  A    between atoms: O_1  and  C_14 
REMARK    3  A    between atoms: O_2  and  C_18 
REMARK    4  A    between atoms: C_10  and  C_13 
ROOT
HETATM    1  O   UNL     1     -53.588  46.783   8.482  1.00  0.00    -0.343 OA
ENDROOT
BRANCH   1   2
HETATM    2  C   UNL     1     -54.335  47.145   9.637  1.00  0.00     0.129 C 
HETATM    3  C   UNL     1     -55.594  47.887   9.212  1.00  0.00     0.032 C 
HETATM    4  C   UNL     1     -55.120  49.311   8.924  1.00  0.00     0.002 C 
HETATM    5  C   UNL     1     -53.813  49.491   9.694  1.00  0.00     0.002 C 
HETATM    6  C   UNL     1     -53.581  48.185  10.450  1.00  0.00     0.032 C 
ENDBRANCH   1   2
BRANCH   1   7
HETATM    7  C   UNL     1     -53.062  45.518   8.458  1.00  0.00     0.103 A 
HETATM    8  C   UNL     1     -51.821  45.290   9.043  1.00  0.00     0.047 A 
HETATM    9  C   UNL     1     -51.274  44.007   9.025  1.00  0.00    -0.049 A 
HETATM   10  C   UNL     1     -51.970  42.960   8.421  1.00  0.00     0.010 A 
HETATM   11  C   UNL     1     -53.213  43.196   7.835  1.00  0.00     0.040 A 
HETATM   12  C   UNL     1     -53.762  44.479   7.854  1.00  0.00     0.101 A 
BRANCH   9  13
HETATM   13  C   UNL     1     -49.924  43.751   9.660  1.00  0.00     0.045 C 
HETATM   14  C   UNL     1     -48.970  42.860   8.863  1.00  0.00     0.132 C 
HETATM   15  N   UNL     1     -47.673  43.204   9.375  1.00  0.00    -0.360 N 
HETATM   16  C   UNL     1     -47.657  44.445   9.997  1.00  0.00     0.218 C 
HETATM   17  H   UNL     1     -46.882  42.624   9.293  1.00  0.00     0.162 HD
HETATM   18  O   UNL     1     -46.695  45.019  10.481  1.00  0.00    -0.274 OA
HETATM   19  C   UNL     1     -49.059  44.999   9.919  1.00  0.00     0.113 C 
ENDBRANCH   9  13
BRANCH  12  20
HETATM   20  O   UNL     1     -54.977  44.697   7.278  1.00  0.00    -0.353 OA
HETATM   21  C   UNL     1     -55.226  44.057   6.029  1.00  0.00     0.210 C 
ENDBRANCH  12  20
ENDBRANCH   1   7
TORSDOF 4
ENDMDL
MODEL 2
REMARK VINA RESULT:      -7.6      3.326      6.399
REMARK  4 active torsions:
REMARK  status: ('A' for Active; 'I' for Inactive)
REMARK    1  A    between atoms: O_1  and  C_5 
REMARK    2  A    between atoms: O_1  and  C_14 
REMARK    3  A    between atoms: O_2  and  C_18 
REMARK    4  A    between atoms: C_10  and  C_13 
ROOT
HETATM    1  O   UNL     1     -53.718  43.432   8.658  1.00  0.00    -0.343 OA
ENDROOT
BRANCH   1   2
HETATM    2  C   UNL     1     -52.701  43.097   7.722  1.00  0.00     0.129 C 
HETATM    3  C   UNL     1     -52.688  44.126   6.601  1.00  0.00     0.032 C 
HETATM    4  C   UNL     1     -53.837  43.710   5.685  1.00  0.00     0.002 C 
HETATM    5  C   UNL     1     -54.090  42.228   5.963  1.00  0.00     0.002 C 
HETATM    6  C   UNL     1     -53.051  41.806   6.999  1.00  0.00     0.032 C 
ENDBRANCH   1   2
BRANCH   1   7
HETATM    7  C   UNL     1     -53.527  44.571   9.395  1.00  0.00     0.103 A 
HETATM    8  C   UNL     1     -53.964  45.789   8.884  1.00  0.00     0.047 A 
HETATM    9  C   UNL     1     -53.775  46.956   9.624  1.00  0.00    -0.049 A 
HETATM   10  C   UNL     1     -53.149  46.900  10.870  1.00  0.00     0.010 A 
HETATM   11  C   UNL     1     -52.714  45.676  11.376  1.00  0.00     0.040 A 
HETATM   12  C   UNL     1     -52.903  44.507  10.636  1.00  0.00     0.101 A 
BRANCH   9  13
HETATM   13  C   UNL     1     -54.249  48.285   9.076  1.00  0.00     0.045 C 
HETATM   14  C   UNL     1     -55.601  48.777   9.594  1.00  0.00     0.132 C 
HETATM   15  N   UNL     1     -55.558  50.194   9.369  1.00  0.00    -0.360 N 
HETATM   16  C   UNL     1     -54.264  50.675   9.234  1.00  0.00     0.218 C 
HETATM   17  H   UNL     1     -56.360  50.763   9.317  1.00  0.00     0.162 HD
HETATM   18  O   UNL     1     -53.915  51.835   9.083  1.00  0.00    -0.274 OA
HETATM   19  C   UNL     1     -53.335  49.492   9.365  1.00  0.00     0.113 C 
ENDBRANCH   9  13
BRANCH  12  20
HETATM   20  O   UNL     1     -52.472  43.317  11.140  1.00  0.00    -0.353 OA
HETATM   21  C   UNL     1     -51.065  43.084  11.136  1.00  0.00     0.210 C 
ENDBRANCH  12  20
ENDBRANCH   1   7
TORSDOF 4
ENDMDL
MODEL 3
REMARK VINA RESULT:      -7.5      1.288      1.499
REMARK  4 active torsions:
REMARK  status: ('A' for Active; 'I' for Inactive)
REMARK    1  A    between atoms: O_1  and  C_5 
REMARK    2  A    between atoms: O_1  and  C_14 
REMARK    3  A    between atoms: O_2  and  C_18 
REMARK    4  A    between atoms: C_10  and  C_13 
ROOT
HETATM    1  O   UNL     1     -53.341  46.708   8.468  1.00  0.00    -0.343 OA
ENDROOT
BRANCH   1   2
HETATM    2  C   UNL     1     -54.109  47.017   9.624  1.00  0.00     0.129 C 
HETATM    3  C   UNL     1     -55.427  47.649   9.200  1.00  0.00     0.032 C 
HETATM    4  C   UNL     1     -55.074  49.105   8.898  1.00  0.00     0.002 C 
HETATM    5  C   UNL     1     -53.782  49.399   9.659  1.00  0.00     0.002 C 
HETATM    6  C   UNL     1     -53.440  48.123  10.425  1.00  0.00     0.032 C 
ENDBRANCH   1   2
BRANCH   1   7
HETATM    7  C   UNL     1     -52.878  45.423   8.360  1.00  0.00     0.103 A 
HETATM    8  C   UNL     1     -51.675  45.083   8.970  1.00  0.00     0.047 A 
HETATM    9  C   UNL     1     -51.192  43.778   8.867  1.00  0.00    -0.049 A 
HETATM   10  C   UNL     1     -51.914  42.822   8.152  1.00  0.00     0.010 A 
HETATM   11  C   UNL     1     -53.118  43.170   7.543  1.00  0.00     0.040 A 
HETATM   12  C   UNL     1     -53.603  44.474   7.646  1.00  0.00     0.101 A 
BRANCH   9  13
HETATM   13  C   UNL     1     -49.885  43.401   9.529  1.00  0.00     0.045 C 
HETATM   14  C   UNL     1     -49.987  42.914  10.976  1.00  0.00     0.132 C 
HETATM   15  N   UNL     1     -48.783  42.155  11.167  1.00  0.00    -0.360 N 
HETATM   16  C   UNL     1     -48.221  41.735   9.970  1.00  0.00     0.218 C 
HETATM   17  H   UNL     1     -48.399  41.954  12.051  1.00  0.00     0.162 HD
HETATM   18  O   UNL     1     -47.231  41.038   9.819  1.00  0.00    -0.274 OA
HETATM   19  C   UNL     1     -49.102  42.255   8.860  1.00  0.00     0.113 C 
ENDBRANCH   9  13
BRANCH  12  20
HETATM   20  O   UNL     1     -54.780  44.803   7.045  1.00  0.00    -0.353 OA
HETATM   21  C   UNL     1     -55.170  44.024   5.916  1.00  0.00     0.210 C 
ENDBRANCH  12  20
ENDBRANCH   1   7
TORSDOF 4
ENDMDL
MODEL 4
REMARK VINA RESULT:      -7.5      3.846      6.430
REMARK  4 active torsions:
REMARK  status: ('A' for Active; 'I' for Inactive)
REMARK    1  A    between atoms: O_1  and  C_5 
REMARK    2  A    between atoms: O_1  and  C_14 
REMARK    3  A    between atoms: O_2  and  C_18 
REMARK    4  A    between atoms: C_10  and  C_13 
ROOT
HETATM    1  O   UNL     1     -51.722  47.484  13.435  1.00  0.00    -0.343 OA
ENDROOT
BRANCH   1   2
HETATM    2  C   UNL     1     -52.659  46.749  14.212  1.00  0.00     0.129 C 
HETATM    3  C   UNL     1     -52.973  47.519  15.486  1.00  0.00     0.032 C 
HETATM    4  C   UNL     1     -51.793  47.226  16.412  1.00  0.00     0.002 C 
HETATM    5  C   UNL     1     -51.167  45.926  15.908  1.00  0.00     0.002 C 
HETATM    6  C   UNL     1     -52.026  45.468  14.732  1.00  0.00     0.032 C 
ENDBRANCH   1   2
BRANCH   1   7
HETATM    7  C   UNL     1     -51.415  46.980  12.198  1.00  0.00     0.103 A 
HETATM    8  C   UNL     1     -52.425  46.854  11.249  1.00  0.00     0.047 A 
HETATM    9  C   UNL     1     -52.126  46.341   9.987  1.00  0.00    -0.049 A 
HETATM   10  C   UNL     1     -50.820  45.955   9.681  1.00  0.00     0.010 A 
HETATM   11  C   UNL     1     -49.814  46.083  10.637  1.00  0.00     0.040 A 
HETATM   12  C   UNL     1     -50.111  46.597  11.900  1.00  0.00     0.101 A 
BRANCH   9  13
HETATM   13  C   UNL     1     -53.218  46.202   8.949  1.00  0.00     0.045 C 
HETATM   14  C   UNL     1     -53.181  44.925   8.107  1.00  0.00     0.132 C 
HETATM   15  N   UNL     1     -54.528  44.791   7.629  1.00  0.00    -0.360 N 
HETATM   16  C   UNL     1     -55.441  45.498   8.400  1.00  0.00     0.218 C 
HETATM   17  H   UNL     1     -54.777  44.255   6.842  1.00  0.00     0.162 HD
HETATM   18  O   UNL     1     -56.653  45.534   8.266  1.00  0.00    -0.274 OA
HETATM   19  C   UNL     1     -54.660  46.186   9.493  1.00  0.00     0.113 C 
ENDBRANCH   9  13
BRANCH  12  20
HETATM   20  O   UNL     1     -49.120  46.717  12.827  1.00  0.00    -0.353 OA
HETATM   21  C   UNL     1     -48.396  45.534  13.156  1.00  0.00     0.210 C 
ENDBRANCH  12  20
ENDBRANCH   1   7
TORSDOF 4
ENDMDL
MODEL 5
REMARK VINA RESULT:      -7.5      3.277      3.881
REMARK  4 active torsions:
REMARK  status: ('A' for Active; 'I' for Inactive)
REMARK    1  A    between atoms: O_1  and  C_5 
REMARK    2  A    between atoms: O_1  and  C_14 
REMARK    3  A    between atoms: O_2  and  C_18 
REMARK    4  A    between atoms: C_10  and  C_13 
ROOT
HETATM    1  O   UNL     1     -53.012  45.207   7.292  1.00  0.00    -0.343 OA
ENDROOT
BRANCH   1   2
HETATM    2  C   UNL     1     -53.053  45.187   8.713  1.00  0.00     0.129 C 
HETATM    3  C   UNL     1     -54.486  45.396   9.180  1.00  0.00     0.032 C 
HETATM    4  C   UNL     1     -54.708  46.904   9.073  1.00  0.00     0.002 C 
HETATM    5  C   UNL     1     -53.320  47.544   9.106  1.00  0.00     0.002 C 
HETATM    6  C   UNL     1     -52.327  46.398   9.280  1.00  0.00     0.032 C 
ENDBRANCH   1   2
BRANCH   1   7
HETATM    7  C   UNL     1     -52.197  44.286   6.686  1.00  0.00     0.103 A 
HETATM    8  C   UNL     1     -51.634  43.271   7.453  1.00  0.00     0.047 A 
HETATM    9  C   UNL     1     -50.803  42.328   6.848  1.00  0.00    -0.049 A 
HETATM   10  C   UNL     1     -50.537  42.407   5.481  1.00  0.00     0.010 A 
HETATM   11  C   UNL     1     -51.104  43.427   4.718  1.00  0.00     0.040 A 
HETATM   12  C   UNL     1     -51.937  44.370   5.322  1.00  0.00     0.101 A 
BRANCH   9  13
HETATM   13  C   UNL     1     -50.188  41.220   7.676  1.00  0.00     0.045 C 
HETATM   14  C   UNL     1     -51.175  40.297   8.392  1.00  0.00     0.132 C 
HETATM   15  N   UNL     1     -50.415  39.101   8.628  1.00  0.00    -0.360 N 
HETATM   16  C   UNL     1     -49.317  38.992   7.786  1.00  0.00     0.218 C 
HETATM   17  H   UNL     1     -50.647  38.432   9.312  1.00  0.00     0.162 HD
HETATM   18  O   UNL     1     -48.520  38.069   7.722  1.00  0.00    -0.274 OA
HETATM   19  C   UNL     1     -49.311  40.216   6.903  1.00  0.00     0.113 C 
ENDBRANCH   9  13
BRANCH  12  20
HETATM   20  O   UNL     1     -52.484  45.363   4.567  1.00  0.00    -0.353 OA
HETATM   21  C   UNL     1     -51.684  45.889   3.511  1.00  0.00     0.210 C 
ENDBRANCH  12  20
ENDBRANCH   1   7
TORSDOF 4
ENDMDL
MODEL 6
REMARK VINA RESULT:      -7.5      3.050      4.694
REMARK  4 active torsions:
REMARK  status: ('A' for Active; 'I' for Inactive)
REMARK    1  A    between atoms: O_1  and  C_5 
REMARK    2  A    between atoms: O_1  and  C_14 
REMARK    3  A    between atoms: O_2  and  C_18 
REMARK    4  A    between atoms: C_10  and  C_13 
ROOT
HETATM    1  O   UNL     1     -53.164  48.290  10.816  1.00  0.00    -0.343 OA
ENDROOT
BRANCH   1   2
HETATM    2  C   UNL     1     -53.423  48.632   9.461  1.00  0.00     0.129 C 
HETATM    3  C   UNL     1     -53.496  50.146   9.327  1.00  0.00     0.032 C 
HETATM    4  C   UNL     1     -54.900  50.506   9.813  1.00  0.00     0.002 C 
HETATM    5  C   UNL     1     -55.740  49.238   9.669  1.00  0.00     0.002 C 
HETATM    6  C   UNL     1     -54.819  48.184   9.059  1.00  0.00     0.032 C 
ENDBRANCH   1   2
BRANCH   1   7
HETATM    7  C   UNL     1     -52.882  46.975  11.078  1.00  0.00     0.103 A 
HETATM    8  C   UNL     1     -53.204  46.011  10.126  1.00  0.00     0.047 A 
HETATM    9  C   UNL     1     -52.924  44.669  10.381  1.00  0.00    -0.049 A 
HETATM   10  C   UNL     1     -52.325  44.296  11.584  1.00  0.00     0.010 A 
HETATM   11  C   UNL     1     -52.006  45.267  12.533  1.00  0.00     0.040 A 
HETATM   12  C   UNL     1     -52.285  46.610  12.280  1.00  0.00     0.101 A 
BRANCH   9  13
HETATM   13  C   UNL     1     -53.270  43.615   9.351  1.00  0.00     0.045 C 
HETATM   14  C   UNL     1     -53.637  44.137   7.961  1.00  0.00     0.132 C 
HETATM   15  N   UNL     1     -53.395  43.015   7.099  1.00  0.00    -0.360 N 
HETATM   16  C   UNL     1     -52.531  42.086   7.662  1.00  0.00     0.218 C 
HETATM   17  H   UNL     1     -53.798  42.915   6.206  1.00  0.00     0.162 HD
HETATM   18  O   UNL     1     -52.108  41.062   7.150  1.00  0.00    -0.274 OA
HETATM   19  C   UNL     1     -52.154  42.602   9.029  1.00  0.00     0.113 C 
ENDBRANCH   9  13
BRANCH  12  20
HETATM   20  O   UNL     1     -51.970  47.549  13.215  1.00  0.00    -0.353 OA
HETATM   21  C   UNL     1     -51.585  47.076  14.503  1.00  0.00     0.210 C 
ENDBRANCH  12  20
ENDBRANCH   1   7
TORSDOF 4
ENDMDL
MODEL 7
REMARK VINA RESULT:      -7.3      3.275      4.969
REMARK  4 active torsions:
REMARK  status: ('A' for Active; 'I' for Inactive)
REMARK    1  A    between atoms: O_1  and  C_5 
REMARK    2  A    between atoms: O_1  and  C_14 
REMARK    3  A    between atoms: O_2  and  C_18 
REMARK    4  A    between atoms: C_10  and  C_13 
ROOT
HETATM    1  O   UNL     1     -52.214  47.532  12.337  1.00  0.00    -0.343 OA
ENDROOT
BRANCH   1   2
HETATM    2  C   UNL     1     -51.659  46.546  13.198  1.00  0.00     0.129 C 
HETATM    3  C   UNL     1     -52.533  46.408  14.436  1.00  0.00     0.032 C 
HETATM    4  C   UNL     1     -52.130  47.584  15.324  1.00  0.00     0.002 C 
HETATM    5  C   UNL     1     -50.730  48.000  14.872  1.00  0.00     0.002 C 
HETATM    6  C   UNL     1     -50.333  47.026  13.766  1.00  0.00     0.032 C 
ENDBRANCH   1   2
BRANCH   1   7
HETATM    7  C   UNL     1     -52.866  47.079  11.220  1.00  0.00     0.103 A 
HETATM    8  C   UNL     1     -52.760  45.736  10.872  1.00  0.00     0.047 A 
HETATM    9  C   UNL     1     -53.417  45.263   9.736  1.00  0.00    -0.049 A 
HETATM   10  C   UNL     1     -54.175  46.135   8.954  1.00  0.00     0.010 A 
HETATM   11  C   UNL     1     -54.276  47.479   9.307  1.00  0.00     0.040 A 
HETATM   12  C   UNL     1     -53.619  47.954  10.444  1.00  0.00     0.101 A 
BRANCH   9  13
HETATM   13  C   UNL     1     -53.308  43.803   9.353  1.00  0.00     0.045 C 
HETATM   14  C   UNL     1     -53.343  43.503   7.853  1.00  0.00     0.132 C 
HETATM   15  N   UNL     1     -52.713  42.217   7.747  1.00  0.00    -0.360 N 
HETATM   16  C   UNL     1     -51.918  41.920   8.844  1.00  0.00     0.218 C 
HETATM   17  H   UNL     1     -52.832  41.612   6.979  1.00  0.00     0.162 HD
HETATM   18  O   UNL     1     -51.227  40.928   9.013  1.00  0.00    -0.274 OA
HETATM   19  C   UNL     1     -52.014  43.090   9.792  1.00  0.00     0.113 C 
ENDBRANCH   9  13
BRANCH  12  20
HETATM   20  O   UNL     1     -53.724  49.270  10.779  1.00  0.00    -0.353 OA
HETATM   21  C   UNL     1     -54.025  50.184   9.727  1.00  0.00     0.210 C 
ENDBRANCH  12  20
ENDBRANCH   1   7
TORSDOF 4
ENDMDL
MODEL 8
REMARK VINA RESULT:      -7.3      1.566      1.795
REMARK  4 active torsions:
REMARK  status: ('A' for Active; 'I' for Inactive)
REMARK    1  A    between atoms: O_1  and  C_5 
REMARK    2  A    between atoms: O_1  and  C_14 
REMARK    3  A    between atoms: O_2  and  C_18 
REMARK    4  A    between atoms: C_10  and  C_13 
ROOT
HETATM    1  O   UNL     1     -53.235  46.148   8.074  1.00  0.00    -0.343 OA
ENDROOT
BRANCH   1   2
HETATM    2  C   UNL     1     -53.947  46.187   9.304  1.00  0.00     0.129 C 
HETATM    3  C   UNL     1     -55.441  46.234   9.021  1.00  0.00     0.032 C 
HETATM    4  C   UNL     1     -55.720  47.696   8.674  1.00  0.00     0.002 C 
HETATM    5  C   UNL     1     -54.581  48.507   9.291  1.00  0.00     0.002 C 
HETATM    6  C   UNL     1     -53.693  47.503  10.022  1.00  0.00     0.032 C 
ENDBRANCH   1   2
BRANCH   1   7
HETATM    7  C   UNL     1     -52.449  45.048   7.851  1.00  0.00     0.103 A 
HETATM    8  C   UNL     1     -51.438  44.743   8.757  1.00  0.00     0.047 A 
HETATM    9  C   UNL     1     -50.630  43.627   8.540  1.00  0.00    -0.049 A 
HETATM   10  C   UNL     1     -50.836  42.823   7.419  1.00  0.00     0.010 A 
HETATM   11  C   UNL     1     -51.851  43.135   6.515  1.00  0.00     0.040 A 
HETATM   12  C   UNL     1     -52.660  44.251   6.731  1.00  0.00     0.101 A 
BRANCH   9  13
HETATM   13  C   UNL     1     -49.529  43.288   9.522  1.00  0.00     0.045 C 
HETATM   14  C   UNL     1     -49.949  42.451  10.731  1.00  0.00     0.132 C 
HETATM   15  N   UNL     1     -48.722  41.848  11.171  1.00  0.00    -0.360 N 
HETATM   16  C   UNL     1     -47.754  41.819  10.178  1.00  0.00     0.218 C 
HETATM   17  H   UNL     1     -48.583  41.492  12.079  1.00  0.00     0.162 HD
HETATM   18  O   UNL     1     -46.638  41.330  10.243  1.00  0.00    -0.274 OA
HETATM   19  C   UNL     1     -48.356  42.466   8.954  1.00  0.00     0.113 C 
ENDBRANCH   9  13
BRANCH  12  20
HETATM   20  O   UNL     1     -53.647  44.547   5.840  1.00  0.00    -0.353 OA
HETATM   21  C   UNL     1     -54.885  43.857   5.994  1.00  0.00     0.210 C 
ENDBRANCH  12  20
ENDBRANCH   1   7
TORSDOF 4
ENDMDL
MODEL 9
REMARK VINA RESULT:      -7.3      2.598      2.920
REMARK  4 active torsions:
REMARK  status: ('A' for Active; 'I' for Inactive)
REMARK    1  A    between atoms: O_1  and  C_5 
REMARK    2  A    between atoms: O_1  and  C_14 
REMARK    3  A    between atoms: O_2  and  C_18 
REMARK    4  A    between atoms: C_10  and  C_13 
ROOT
HETATM    1  O   UNL     1     -53.732  46.334   8.473  1.00  0.00    -0.343 OA
ENDROOT
BRANCH   1   2
HETATM    2  C   UNL     1     -54.386  46.834   9.633  1.00  0.00     0.129 C 
HETATM    3  C   UNL     1     -55.626  47.611   9.219  1.00  0.00     0.032 C 
HETATM    4  C   UNL     1     -55.095  48.976   8.782  1.00  0.00     0.002 C 
HETATM    5  C   UNL     1     -53.735  49.142   9.458  1.00  0.00     0.002 C 
HETATM    6  C   UNL     1     -53.528  47.892  10.310  1.00  0.00     0.032 C 
ENDBRANCH   1   2
BRANCH   1   7
HETATM    7  C   UNL     1     -53.317  45.029   8.513  1.00  0.00     0.103 A 
HETATM    8  C   UNL     1     -52.681  44.556   9.657  1.00  0.00     0.047 A 
HETATM    9  C   UNL     1     -52.252  43.230   9.710  1.00  0.00    -0.049 A 
HETATM   10  C   UNL     1     -52.459  42.385   8.619  1.00  0.00     0.010 A 
HETATM   11  C   UNL     1     -53.095  42.866   7.476  1.00  0.00     0.040 A 
HETATM   12  C   UNL     1     -53.525  44.192   7.422  1.00  0.00     0.101 A 
BRANCH   9  13
HETATM   13  C   UNL     1     -51.562  42.707  10.951  1.00  0.00     0.045 C 
HETATM   14  C   UNL     1     -51.225  43.751  12.017  1.00  0.00     0.132 C 
HETATM   15  N   UNL     1     -51.097  42.981  13.222  1.00  0.00    -0.360 N 
HETATM   16  C   UNL     1     -51.738  41.753  13.142  1.00  0.00     0.218 C 
HETATM   17  H   UNL     1     -50.608  43.291  14.019  1.00  0.00     0.162 HD
HETATM   18  O   UNL     1     -51.840  40.911  14.019  1.00  0.00    -0.274 OA
HETATM   19  C   UNL     1     -52.349  41.661  11.765  1.00  0.00     0.113 C 
ENDBRANCH   9  13
BRANCH  12  20
HETATM   20  O   UNL     1     -54.145  44.652   6.300  1.00  0.00    -0.353 OA
HETATM   21  C   UNL     1     -55.460  44.165   6.041  1.00  0.00     0.210 C 
ENDBRANCH  12  20
ENDBRANCH   1   7
TORSDOF 4
ENDMDL
