MODEL 1
REMARK VINA RESULT:      -7.8      0.000      0.000
REMARK  4 active torsions:
REMARK  status: ('A' for Active; 'I' for Inactive)
REMARK    1  A    between atoms: O_1  and  C_5 
REMARK    2  A    between atoms: O_1  and  C_14 
REMARK    3  A    between atoms: O_2  and  C_18 
REMARK    4  A    between atoms: C_10  and  C_13 
ROOT
HETATM    1  O   UNL     1     -53.588  46.787   8.483  1.00  0.00    -0.343 OA
ENDROOT
BRANCH   1   2
HETATM    2  C   UNL     1     -54.335  47.148   9.638  1.00  0.00     0.129 C 
HETATM    3  C   UNL     1     -55.586  47.903   9.215  1.00  0.00     0.032 C 
HETATM    4  C   UNL     1     -55.100  49.324   8.936  1.00  0.00     0.002 C 
HETATM    5  C   UNL     1     -53.793  49.489   9.711  1.00  0.00     0.002 C 
HETATM    6  C   UNL     1     -53.575  48.177  10.460  1.00  0.00     0.032 C 
ENDBRANCH   1   2
BRANCH   1   7
HETATM    7  C   UNL     1     -53.062  45.521   8.460  1.00  0.00     0.103 A 
HETATM    8  C   UNL     1     -51.821  45.293   9.045  1.00  0.00     0.047 A 
HETATM    9  C   UNL     1     -51.274  44.010   9.027  1.00  0.00    -0.049 A 
HETATM   10  C   UNL     1     -51.970  42.963   8.422  1.00  0.00     0.010 A 
HETATM   11  C   UNL     1     -53.213  43.199   7.836  1.00  0.00     0.040 A 
HETATM   12  C   UNL     1     -53.761  44.482   7.855  1.00  0.00     0.101 A 
BRANCH   9  13
HETATM   13  C   UNL     1     -49.925  43.753   9.663  1.00  0.00     0.045 C 
HETATM   14  C   UNL     1     -48.973  42.856   8.870  1.00  0.00     0.132 C 
HETATM   15  N   UNL     1     -47.676  43.199   9.379  1.00  0.00    -0.360 N 
HETATM   16  C   UNL     1     -47.655  44.443   9.994  1.00  0.00     0.218 C 
HETATM   17  H   UNL     1     -46.886  42.616   9.300  1.00  0.00     0.162 HD
HETATM   18  O   UNL     1     -46.691  45.018  10.474  1.00  0.00    -0.274 OA
HETATM   19  C   UNL     1     -49.056  45.001   9.914  1.00  0.00     0.113 C 
ENDBRANCH   9  13
BRANCH  12  20
HETATM   20  O   UNL     1     -54.976  44.701   7.279  1.00  0.00    -0.353 OA
HETATM   21  C   UNL     1     -55.228  44.054   6.034  1.00  0.00     0.210 C 
ENDBRANCH  12  20
ENDBRANCH   1   7
TORSDOF 4
ENDMDL
MODEL 2
REMARK VINA RESULT:      -7.6      3.347      6.498
REMARK  4 active torsions:
REMARK  status: ('A' for Active; 'I' for Inactive)
REMARK    1  A    between atoms: O_1  and  C_5 
REMARK    2  A    between atoms: O_1  and  C_14 
REMARK    3  A    between atoms: O_2  and  C_18 
REMARK    4  A    between atoms: C_10  and  C_13 
ROOT
HETATM    1  O   UNL     1     -53.774  43.526   8.745  1.00  0.00    -0.343 OA
ENDROOT
BRANCH   1   2
HETATM    2  C   UNL     1     -53.336  43.527   7.393  1.00  0.00     0.129 C 
HETATM    3  C   UNL     1     -53.367  42.106   6.851  1.00  0.00     0.032 C 
HETATM    4  C   UNL     1     -52.092  41.461   7.391  1.00  0.00     0.002 C 
HETATM    5  C   UNL     1     -51.137  42.609   7.717  1.00  0.00     0.002 C 
HETATM    6  C   UNL     1     -51.861  43.891   7.314  1.00  0.00     0.032 C 
ENDBRANCH   1   2
BRANCH   1   7
HETATM    7  C   UNL     1     -53.565  44.675   9.462  1.00  0.00     0.103 A 
HETATM    8  C   UNL     1     -53.985  45.891   8.931  1.00  0.00     0.047 A 
HETATM    9  C   UNL     1     -53.777  47.067   9.651  1.00  0.00    -0.049 A 
HETATM   10  C   UNL     1     -53.150  47.023  10.896  1.00  0.00     0.010 A 
HETATM   11  C   UNL     1     -52.731  45.801  11.421  1.00  0.00     0.040 A 
HETATM   12  C   UNL     1     -52.939  44.624  10.703  1.00  0.00     0.101 A 
BRANCH   9  13
HETATM   13  C   UNL     1     -54.232  48.393   9.080  1.00  0.00     0.045 C 
HETATM   14  C   UNL     1     -55.615  48.872   9.525  1.00  0.00     0.132 C 
HETATM   15  N   UNL     1     -55.574  50.290   9.306  1.00  0.00    -0.360 N 
HETATM   16  C   UNL     1     -54.278  50.783   9.243  1.00  0.00     0.218 C 
HETATM   17  H   UNL     1     -56.377  50.852   9.211  1.00  0.00     0.162 HD
HETATM   18  O   UNL     1     -53.932  51.946   9.114  1.00  0.00    -0.274 OA
HETATM   19  C   UNL     1     -53.347  49.608   9.421  1.00  0.00     0.113 C 
ENDBRANCH   9  13
BRANCH  12  20
HETATM   20  O   UNL     1     -52.525  43.436  11.226  1.00  0.00    -0.353 OA
HETATM   21  C   UNL     1     -51.154  43.339  11.605  1.00  0.00     0.210 C 
ENDBRANCH  12  20
ENDBRANCH   1   7
TORSDOF 4
ENDMDL
MODEL 3
REMARK VINA RESULT:      -7.5      3.043      4.696
REMARK  4 active torsions:
REMARK  status: ('A' for Active; 'I' for Inactive)
REMARK    1  A    between atoms: O_1  and  C_5 
REMARK    2  A    between atoms: O_1  and  C_14 
REMARK    3  A    between atoms: O_2  and  C_18 
REMARK    4  A    between atoms: C_10  and  C_13 
ROOT
HETATM    1  O   UNL     1     -53.206  48.280  10.848  1.00  0.00    -0.343 OA
ENDROOT
BRANCH   1   2
HETATM    2  C   UNL     1     -53.419  48.637   9.488  1.00  0.00     0.129 C 
HETATM    3  C   UNL     1     -53.484  50.152   9.368  1.00  0.00     0.032 C 
HETATM    4  C   UNL     1     -54.902  50.512   9.811  1.00  0.00     0.002 C 
HETATM    5  C   UNL     1     -55.741  49.247   9.627  1.00  0.00     0.002 C 
HETATM    6  C   UNL     1     -54.803  48.197   9.036  1.00  0.00     0.032 C 
ENDBRANCH   1   2
BRANCH   1   7
HETATM    7  C   UNL     1     -52.892  46.970  11.100  1.00  0.00     0.103 A 
HETATM    8  C   UNL     1     -53.218  46.002  10.155  1.00  0.00     0.047 A 
HETATM    9  C   UNL     1     -52.904  44.665  10.400  1.00  0.00    -0.049 A 
HETATM   10  C   UNL     1     -52.268  44.303  11.588  1.00  0.00     0.010 A 
HETATM   11  C   UNL     1     -51.945  45.279  12.530  1.00  0.00     0.040 A 
HETATM   12  C   UNL     1     -52.258  46.616  12.286  1.00  0.00     0.101 A 
BRANCH   9  13
HETATM   13  C   UNL     1     -53.254  43.606   9.377  1.00  0.00     0.045 C 
HETATM   14  C   UNL     1     -53.610  44.120   7.981  1.00  0.00     0.132 C 
HETATM   15  N   UNL     1     -53.374  42.988   7.130  1.00  0.00    -0.360 N 
HETATM   16  C   UNL     1     -52.521  42.055   7.705  1.00  0.00     0.218 C 
HETATM   17  H   UNL     1     -53.772  42.884   6.236  1.00  0.00     0.162 HD
HETATM   18  O   UNL     1     -52.104  41.024   7.205  1.00  0.00    -0.274 OA
HETATM   19  C   UNL     1     -52.146  42.580   9.070  1.00  0.00     0.113 C 
ENDBRANCH   9  13
BRANCH  12  20
HETATM   20  O   UNL     1     -51.938  47.561  13.215  1.00  0.00    -0.353 OA
HETATM   21  C   UNL     1     -51.019  47.179  14.235  1.00  0.00     0.210 C 
ENDBRANCH  12  20
ENDBRANCH   1   7
TORSDOF 4
ENDMDL
MODEL 4
REMARK VINA RESULT:      -7.5      1.259      1.477
REMARK  4 active torsions:
REMARK  status: ('A' for Active; 'I' for Inactive)
REMARK    1  A    between atoms: O_1  and  C_5 
REMARK    2  A    between atoms: O_1  and  C_14 
REMARK    3  A    between atoms: O_2  and  C_18 
REMARK    4  A    between atoms: C_10  and  C_13 
ROOT
HETATM    1  O   UNL     1     -53.300  46.697   8.468  1.00  0.00    -0.343 OA
ENDROOT
BRANCH   1   2
HETATM    2  C   UNL     1     -54.096  46.969   9.614  1.00  0.00     0.129 C 
HETATM    3  C   UNL     1     -55.410  47.600   9.177  1.00  0.00     0.032 C 
HETATM    4  C   UNL     1     -55.064  49.066   8.921  1.00  0.00     0.002 C 
HETATM    5  C   UNL     1     -53.792  49.351   9.718  1.00  0.00     0.002 C 
HETATM    6  C   UNL     1     -53.455  48.059  10.458  1.00  0.00     0.032 C 
ENDBRANCH   1   2
BRANCH   1   7
HETATM    7  C   UNL     1     -52.806  45.424   8.348  1.00  0.00     0.103 A 
HETATM    8  C   UNL     1     -51.598  45.106   8.960  1.00  0.00     0.047 A 
HETATM    9  C   UNL     1     -51.084  43.814   8.844  1.00  0.00    -0.049 A 
HETATM   10  C   UNL     1     -51.780  42.849   8.115  1.00  0.00     0.010 A 
HETATM   11  C   UNL     1     -52.990  43.175   7.504  1.00  0.00     0.040 A 
HETATM   12  C   UNL     1     -53.505  44.466   7.620  1.00  0.00     0.101 A 
BRANCH   9  13
HETATM   13  C   UNL     1     -49.771  43.460   9.508  1.00  0.00     0.045 C 
HETATM   14  C   UNL     1     -49.854  43.072  10.985  1.00  0.00     0.132 C 
HETATM   15  N   UNL     1     -48.659  42.307  11.205  1.00  0.00    -0.360 N 
HETATM   16  C   UNL     1     -48.125  41.800  10.029  1.00  0.00     0.218 C 
HETATM   17  H   UNL     1     -48.261  42.159  12.094  1.00  0.00     0.162 HD
HETATM   18  O   UNL     1     -47.148  41.079   9.909  1.00  0.00    -0.274 OA
HETATM   19  C   UNL     1     -49.018  42.260   8.902  1.00  0.00     0.113 C 
ENDBRANCH   9  13
BRANCH  12  20
HETATM   20  O   UNL     1     -54.687  44.774   7.018  1.00  0.00    -0.353 OA
HETATM   21  C   UNL     1     -55.085  43.959   5.918  1.00  0.00     0.210 C 
ENDBRANCH  12  20
ENDBRANCH   1   7
TORSDOF 4
ENDMDL
MODEL 5
REMARK VINA RESULT:      -7.4      4.052      6.552
REMARK  4 active torsions:
REMARK  status: ('A' for Active; 'I' for Inactive)
REMARK    1  A    between atoms: O_1  and  C_5 
REMARK    2  A    between atoms: O_1  and  C_14 
REMARK    3  A    between atoms: O_2  and  C_18 
REMARK    4  A    between atoms: C_10  and  C_13 
ROOT
HETATM    1  O   UNL     1     -51.463  47.569  13.977  1.00  0.00    -0.343 OA
ENDROOT
BRANCH   1   2
HETATM    2  C   UNL     1     -52.593  46.955  14.583  1.00  0.00     0.129 C 
HETATM    3  C   UNL     1     -52.966  47.717  15.846  1.00  0.00     0.032 C 
HETATM    4  C   UNL     1     -51.978  47.219  16.900  1.00  0.00     0.002 C 
HETATM    5  C   UNL     1     -51.481  45.859  16.412  1.00  0.00     0.002 C 
HETATM    6  C   UNL     1     -52.228  45.576  15.110  1.00  0.00     0.032 C 
ENDBRANCH   1   2
BRANCH   1   7
HETATM    7  C   UNL     1     -51.074  47.079  12.758  1.00  0.00     0.103 A 
HETATM    8  C   UNL     1     -52.012  46.991  11.733  1.00  0.00     0.047 A 
HETATM    9  C   UNL     1     -51.629  46.493  10.488  1.00  0.00    -0.049 A 
HETATM   10  C   UNL     1     -50.312  46.084  10.274  1.00  0.00     0.010 A 
HETATM   11  C   UNL     1     -49.378  46.175  11.306  1.00  0.00     0.040 A 
HETATM   12  C   UNL     1     -49.760  46.673  12.552  1.00  0.00     0.101 A 
BRANCH   9  13
HETATM   13  C   UNL     1     -52.642  46.395   9.368  1.00  0.00     0.045 C 
HETATM   14  C   UNL     1     -52.307  45.408   8.249  1.00  0.00     0.132 C 
HETATM   15  N   UNL     1     -53.581  45.121   7.654  1.00  0.00    -0.360 N 
HETATM   16  C   UNL     1     -54.643  45.405   8.501  1.00  0.00     0.218 C 
HETATM   17  H   UNL     1     -53.690  44.761   6.744  1.00  0.00     0.162 HD
HETATM   18  O   UNL     1     -55.831  45.221   8.289  1.00  0.00    -0.274 OA
HETATM   19  C   UNL     1     -54.056  45.943   9.783  1.00  0.00     0.113 C 
ENDBRANCH   9  13
BRANCH  12  20
HETATM   20  O   UNL     1     -48.839  46.756  13.552  1.00  0.00    -0.353 OA
HETATM   21  C   UNL     1     -48.440  45.533  14.166  1.00  0.00     0.210 C 
ENDBRANCH  12  20
ENDBRANCH   1   7
TORSDOF 4
ENDMDL
MODEL 6
REMARK VINA RESULT:      -7.3      3.277      4.968
REMARK  4 active torsions:
REMARK  status: ('A' for Active; 'I' for Inactive)
REMARK    1  A    between atoms: O_1  and  C_5 
REMARK    2  A    between atoms: O_1  and  C_14 
REMARK    3  A    between atoms: O_2  and  C_18 
REMARK    4  A    between atoms: C_10  and  C_13 
ROOT
HETATM    1  O   UNL     1     -52.170  47.541  12.331  1.00  0.00    -0.343 OA
ENDROOT
BRANCH   1   2
HETATM    2  C   UNL     1     -51.640  46.552  13.204  1.00  0.00     0.129 C 
HETATM    3  C   UNL     1     -52.538  46.423  14.426  1.00  0.00     0.032 C 
HETATM    4  C   UNL     1     -52.141  47.597  15.319  1.00  0.00     0.002 C 
HETATM    5  C   UNL     1     -50.729  48.000  14.893  1.00  0.00     0.002 C 
HETATM    6  C   UNL     1     -50.320  47.020  13.796  1.00  0.00     0.032 C 
ENDBRANCH   1   2
BRANCH   1   7
HETATM    7  C   UNL     1     -52.819  47.091  11.211  1.00  0.00     0.103 A 
HETATM    8  C   UNL     1     -52.733  45.744  10.874  1.00  0.00     0.047 A 
HETATM    9  C   UNL     1     -53.388  45.274   9.735  1.00  0.00    -0.049 A 
HETATM   10  C   UNL     1     -54.124  46.153   8.940  1.00  0.00     0.010 A 
HETATM   11  C   UNL     1     -54.205  47.501   9.284  1.00  0.00     0.040 A 
HETATM   12  C   UNL     1     -53.551  47.973  10.423  1.00  0.00     0.101 A 
BRANCH   9  13
HETATM   13  C   UNL     1     -53.300  43.809   9.362  1.00  0.00     0.045 C 
HETATM   14  C   UNL     1     -53.346  43.499   7.866  1.00  0.00     0.132 C 
HETATM   15  N   UNL     1     -52.733  42.204   7.766  1.00  0.00    -0.360 N 
HETATM   16  C   UNL     1     -51.937  41.904   8.863  1.00  0.00     0.218 C 
HETATM   17  H   UNL     1     -52.863  41.595   7.004  1.00  0.00     0.162 HD
HETATM   18  O   UNL     1     -51.258  40.905   9.036  1.00  0.00    -0.274 OA
HETATM   19  C   UNL     1     -52.014  43.083   9.802  1.00  0.00     0.113 C 
ENDBRANCH   9  13
BRANCH  12  20
HETATM   20  O   UNL     1     -53.637  49.293  10.748  1.00  0.00    -0.353 OA
HETATM   21  C   UNL     1     -54.320  50.142   9.830  1.00  0.00     0.210 C 
ENDBRANCH  12  20
ENDBRANCH   1   7
TORSDOF 4
ENDMDL
MODEL 7
REMARK VINA RESULT:      -7.3      3.269      3.894
REMARK  4 active torsions:
REMARK  status: ('A' for Active; 'I' for Inactive)
REMARK    1  A    between atoms: O_1  and  C_5 
REMARK    2  A    between atoms: O_1  and  C_14 
REMARK    3  A    between atoms: O_2  and  C_18 
REMARK    4  A    between atoms: C_10  and  C_13 
ROOT
HETATM    1  O   UNL     1     -52.991  45.245   7.296  1.00  0.00    -0.343 OA
ENDROOT
BRANCH   1   2
HETATM    2  C   UNL     1     -53.639  44.864   8.503  1.00  0.00     0.129 C 
HETATM    3  C   UNL     1     -54.982  45.573   8.601  1.00  0.00     0.032 C 
HETATM    4  C   UNL     1     -54.638  46.980   9.088  1.00  0.00     0.002 C 
HETATM    5  C   UNL     1     -53.273  46.875   9.769  1.00  0.00     0.002 C 
HETATM    6  C   UNL     1     -52.878  45.401   9.705  1.00  0.00     0.032 C 
ENDBRANCH   1   2
BRANCH   1   7
HETATM    7  C   UNL     1     -52.193  44.304   6.700  1.00  0.00     0.103 A 
HETATM    8  C   UNL     1     -51.638  43.295   7.481  1.00  0.00     0.047 A 
HETATM    9  C   UNL     1     -50.823  42.331   6.886  1.00  0.00    -0.049 A 
HETATM   10  C   UNL     1     -50.565  42.384   5.516  1.00  0.00     0.010 A 
HETATM   11  C   UNL     1     -51.124  43.399   4.740  1.00  0.00     0.040 A 
HETATM   12  C   UNL     1     -51.940  44.362   5.333  1.00  0.00     0.101 A 
BRANCH   9  13
HETATM   13  C   UNL     1     -50.217  41.229   7.728  1.00  0.00     0.045 C 
HETATM   14  C   UNL     1     -51.212  40.318   8.449  1.00  0.00     0.132 C 
HETATM   15  N   UNL     1     -50.459  39.122   8.701  1.00  0.00    -0.360 N 
HETATM   16  C   UNL     1     -49.357  38.998   7.866  1.00  0.00     0.218 C 
HETATM   17  H   UNL     1     -50.697  38.461   9.391  1.00  0.00     0.162 HD
HETATM   18  O   UNL     1     -48.565  38.071   7.815  1.00  0.00    -0.274 OA
HETATM   19  C   UNL     1     -49.341  40.213   6.971  1.00  0.00     0.113 C 
ENDBRANCH   9  13
BRANCH  12  20
HETATM   20  O   UNL     1     -52.479  45.350   4.566  1.00  0.00    -0.353 OA
HETATM   21  C   UNL     1     -51.663  45.878   3.523  1.00  0.00     0.210 C 
ENDBRANCH  12  20
ENDBRANCH   1   7
TORSDOF 4
ENDMDL
MODEL 8
REMARK VINA RESULT:      -7.3      2.635      4.640
REMARK  4 active torsions:
REMARK  status: ('A' for Active; 'I' for Inactive)
REMARK    1  A    between atoms: O_1  and  C_5 
REMARK    2  A    between atoms: O_1  and  C_14 
REMARK    3  A    between atoms: O_2  and  C_18 
REMARK    4  A    between atoms: C_10  and  C_13 
ROOT
HETATM    1  O   UNL     1     -53.869  43.802   8.463  1.00  0.00    -0.343 OA
ENDROOT
BRANCH   1   2
HETATM    2  C   UNL     1     -52.828  43.314   7.626  1.00  0.00     0.129 C 
HETATM    3  C   UNL     1     -52.688  44.222   6.413  1.00  0.00     0.032 C 
HETATM    4  C   UNL     1     -53.811  43.784   5.475  1.00  0.00     0.002 C 
HETATM    5  C   UNL     1     -54.175  42.356   5.880  1.00  0.00     0.002 C 
HETATM    6  C   UNL     1     -53.222  41.980   7.012  1.00  0.00     0.032 C 
ENDBRANCH   1   2
BRANCH   1   7
HETATM    7  C   UNL     1     -53.594  44.924   9.199  1.00  0.00     0.103 A 
HETATM    8  C   UNL     1     -52.585  44.875  10.157  1.00  0.00     0.047 A 
HETATM    9  C   UNL     1     -52.297  46.011  10.914  1.00  0.00    -0.049 A 
HETATM   10  C   UNL     1     -53.018  47.188  10.710  1.00  0.00     0.010 A 
HETATM   11  C   UNL     1     -54.027  47.229   9.750  1.00  0.00     0.040 A 
HETATM   12  C   UNL     1     -54.317  46.094   8.991  1.00  0.00     0.101 A 
BRANCH   9  13
HETATM   13  C   UNL     1     -51.200  45.966  11.956  1.00  0.00     0.045 C 
HETATM   14  C   UNL     1     -49.792  46.294  11.458  1.00  0.00     0.132 C 
HETATM   15  N   UNL     1     -49.094  46.696  12.646  1.00  0.00    -0.360 N 
HETATM   16  C   UNL     1     -49.952  47.094  13.662  1.00  0.00     0.218 C 
HETATM   17  H   UNL     1     -48.113  46.691  12.732  1.00  0.00     0.162 HD
HETATM   18  O   UNL     1     -49.650  47.528  14.761  1.00  0.00    -0.274 OA
HETATM   19  C   UNL     1     -51.359  46.944  13.137  1.00  0.00     0.113 C 
ENDBRANCH   9  13
BRANCH  12  20
HETATM   20  O   UNL     1     -55.306  46.146   8.056  1.00  0.00    -0.353 OA
HETATM   21  C   UNL     1     -56.647  46.044   8.527  1.00  0.00     0.210 C 
ENDBRANCH  12  20
ENDBRANCH   1   7
TORSDOF 4
ENDMDL
MODEL 9
REMARK VINA RESULT:      -7.1      2.564      4.116
REMARK  4 active torsions:
REMARK  status: ('A' for Active; 'I' for Inactive)
REMARK    1  A    between atoms: O_1  and  C_5 
REMARK    2  A    between atoms: O_1  and  C_14 
REMARK    3  A    between atoms: O_2  and  C_18 
REMARK    4  A    between atoms: C_10  and  C_13 
ROOT
HETATM    1  O   UNL     1     -53.345  47.986  11.117  1.00  0.00    -0.343 OA
ENDROOT
BRANCH   1   2
HETATM    2  C   UNL     1     -53.523  48.127   9.714  1.00  0.00     0.129 C 
HETATM    3  C   UNL     1     -53.406  49.597   9.335  1.00  0.00     0.032 C 
HETATM    4  C   UNL     1     -54.768  50.193   9.689  1.00  0.00     0.002 C 
HETATM    5  C   UNL     1     -55.754  49.025   9.712  1.00  0.00     0.002 C 
HETATM    6  C   UNL     1     -54.952  47.785   9.323  1.00  0.00     0.032 C 
ENDBRANCH   1   2
BRANCH   1   7
HETATM    7  C   UNL     1     -52.325  47.171  11.531  1.00  0.00     0.103 A 
HETATM    8  C   UNL     1     -51.483  46.604  10.579  1.00  0.00     0.047 A 
HETATM    9  C   UNL     1     -50.441  45.771  10.988  1.00  0.00    -0.049 A 
HETATM   10  C   UNL     1     -50.248  45.508  12.344  1.00  0.00     0.010 A 
HETATM   11  C   UNL     1     -51.096  46.078  13.292  1.00  0.00     0.040 A 
HETATM   12  C   UNL     1     -52.139  46.912  12.885  1.00  0.00     0.101 A 
BRANCH   9  13
HETATM   13  C   UNL     1     -49.519  45.153   9.958  1.00  0.00     0.045 C 
HETATM   14  C   UNL     1     -48.068  44.954  10.397  1.00  0.00     0.132 C 
HETATM   15  N   UNL     1     -47.583  43.928   9.518  1.00  0.00    -0.360 N 
HETATM   16  C   UNL     1     -48.606  43.179   8.954  1.00  0.00     0.218 C 
HETATM   17  H   UNL     1     -46.628  43.771   9.335  1.00  0.00     0.162 HD
HETATM   18  O   UNL     1     -48.500  42.217   8.210  1.00  0.00    -0.274 OA
HETATM   19  C   UNL     1     -49.906  43.741   9.477  1.00  0.00     0.113 C 
ENDBRANCH   9  13
BRANCH  12  20
HETATM   20  O   UNL     1     -52.962  47.463  13.820  1.00  0.00    -0.353 OA
HETATM   21  C   UNL     1     -52.716  47.119  15.182  1.00  0.00     0.210 C 
ENDBRANCH  12  20
ENDBRANCH   1   7
TORSDOF 4
ENDMDL
