MODEL 1
REMARK VINA RESULT:      -4.9      0.000      0.000
REMARK  6 active torsions:
REMARK  status: ('A' for Active; 'I' for Inactive)
REMARK    1  A    between atoms: N_3  and  CA_7 
REMARK    2  A    between atoms: N_4  and  C_8 
REMARK    3  A    between atoms: C_5  and  C_6 
REMARK    4  A    between atoms: C_5  and  CA_7 
REMARK    5  A    between atoms: C_6  and  C_8 
REMARK    6  A    between atoms: CA_7  and  C_9 
ROOT
HETATM    1  O   UNL     1      12.000   6.573   8.078  1.00  0.00    -0.646 OA
HETATM    2  OXT UNL     1      14.034   5.850   8.770  1.00  0.00    -0.646 OA
HETATM    3  C   UNL     1      12.876   6.150   9.029  1.00  0.00     0.204 C 
ENDROOT
BRANCH   3   4
HETATM    4  CA  UNL     1      12.240   6.102  10.407  1.00  0.00     0.283 C 
BRANCH   4   5
HETATM    5  N   UNL     1      11.304   4.978  10.436  1.00  0.00    -0.065 N 
HETATM    6  H   UNL     1      11.337   4.485   9.543  1.00  0.00     0.275 HD
HETATM    7  H   UNL     1      10.360   5.327  10.597  1.00  0.00     0.275 HD
HETATM    8  H   UNL     1      11.564   4.340  11.188  1.00  0.00     0.275 HD
ENDBRANCH   4   5
BRANCH   4   9
HETATM    9  C   UNL     1      13.286   6.030  11.530  1.00  0.00     0.045 C 
BRANCH   9  10
HETATM   10  C   UNL     1      12.783   5.424  12.847  1.00  0.00     0.030 C 
BRANCH  10  11
HETATM   11  C   UNL     1      12.338   6.518  13.818  1.00  0.00     0.230 C 
BRANCH  11  12
HETATM   12  N   UNL     1      11.521   5.948  14.884  1.00  0.00    -0.079 N 
HETATM   13  H   UNL     1      11.253   4.996  14.635  1.00  0.00     0.274 HD
HETATM   14  H   UNL     1      10.682   6.516  15.009  1.00  0.00     0.274 HD
HETATM   15  H   UNL     1      12.056   5.935  15.752  1.00  0.00     0.274 HD
ENDBRANCH  11  12
ENDBRANCH  10  11
ENDBRANCH   9  10
ENDBRANCH   4   9
ENDBRANCH   3   4
TORSDOF 6
ENDMDL
MODEL 2
REMARK VINA RESULT:      -4.8      0.654      1.138
REMARK  6 active torsions:
REMARK  status: ('A' for Active; 'I' for Inactive)
REMARK    1  A    between atoms: N_3  and  CA_7 
REMARK    2  A    between atoms: N_4  and  C_8 
REMARK    3  A    between atoms: C_5  and  C_6 
REMARK    4  A    between atoms: C_5  and  CA_7 
REMARK    5  A    between atoms: C_6  and  C_8 
REMARK    6  A    between atoms: CA_7  and  C_9 
ROOT
HETATM    1  O   UNL     1      14.712   6.091   9.338  1.00  0.00    -0.646 OA
HETATM    2  OXT UNL     1      13.030   5.442   7.962  1.00  0.00    -0.646 OA
HETATM    3  C   UNL     1      13.405   5.834   9.059  1.00  0.00     0.204 C 
ENDROOT
BRANCH   3   4
HETATM    4  CA  UNL     1      12.508   6.094  10.256  1.00  0.00     0.283 C 
BRANCH   4   5
HETATM    5  N   UNL     1      11.425   5.111  10.233  1.00  0.00    -0.065 N 
HETATM    6  H   UNL     1      11.803   4.184  10.433  1.00  0.00     0.275 HD
HETATM    7  H   UNL     1      10.987   5.108   9.312  1.00  0.00     0.275 HD
HETATM    8  H   UNL     1      10.730   5.354  10.939  1.00  0.00     0.275 HD
ENDBRANCH   4   5
BRANCH   4   9
HETATM    9  C   UNL     1      13.285   6.088  11.581  1.00  0.00     0.045 C 
BRANCH   9  10
HETATM   10  C   UNL     1      12.523   5.500  12.777  1.00  0.00     0.030 C 
BRANCH  10  11
HETATM   11  C   UNL     1      12.300   6.560  13.857  1.00  0.00     0.230 C 
BRANCH  11  12
HETATM   12  N   UNL     1      11.578   5.988  14.987  1.00  0.00    -0.079 N 
HETATM   13  H   UNL     1      12.201   5.377  15.515  1.00  0.00     0.274 HD
HETATM   14  H   UNL     1      10.784   5.447  14.644  1.00  0.00     0.274 HD
HETATM   15  H   UNL     1      11.243   6.737  15.592  1.00  0.00     0.274 HD
ENDBRANCH  11  12
ENDBRANCH  10  11
ENDBRANCH   9  10
ENDBRANCH   4   9
ENDBRANCH   3   4
TORSDOF 6
ENDMDL
MODEL 3
REMARK VINA RESULT:      -4.7      2.279      2.873
REMARK  6 active torsions:
REMARK  status: ('A' for Active; 'I' for Inactive)
REMARK    1  A    between atoms: N_3  and  CA_7 
REMARK    2  A    between atoms: N_4  and  C_8 
REMARK    3  A    between atoms: C_5  and  C_6 
REMARK    4  A    between atoms: C_5  and  CA_7 
REMARK    5  A    between atoms: C_6  and  C_8 
REMARK    6  A    between atoms: CA_7  and  C_9 
ROOT
HETATM    1  O   UNL     1      12.551   4.285   7.658  1.00  0.00    -0.646 OA
HETATM    2  OXT UNL     1      12.428   6.397   6.842  1.00  0.00    -0.646 OA
HETATM    3  C   UNL     1      12.473   5.636   7.799  1.00  0.00     0.204 C 
ENDROOT
BRANCH   3   4
HETATM    4  CA  UNL     1      12.451   6.054   9.259  1.00  0.00     0.283 C 
BRANCH   4   5
HETATM    5  N   UNL     1      11.537   5.162   9.973  1.00  0.00    -0.065 N 
HETATM    6  H   UNL     1      10.761   4.909   9.360  1.00  0.00     0.275 HD
HETATM    7  H   UNL     1      11.176   5.636  10.800  1.00  0.00     0.275 HD
HETATM    8  H   UNL     1      12.036   4.318  10.255  1.00  0.00     0.275 HD
ENDBRANCH   4   5
BRANCH   4   9
HETATM    9  C   UNL     1      13.856   6.080   9.880  1.00  0.00     0.045 C 
BRANCH   9  10
HETATM   10  C   UNL     1      13.889   6.004  11.413  1.00  0.00     0.030 C 
BRANCH  10  11
HETATM   11  C   UNL     1      15.328   6.017  11.930  1.00  0.00     0.230 C 
BRANCH  11  12
HETATM   12  N   UNL     1      16.264   5.813  10.830  1.00  0.00    -0.079 N 
HETATM   13  H   UNL     1      16.946   5.101  11.091  1.00  0.00     0.274 HD
HETATM   14  H   UNL     1      16.747   6.688  10.627  1.00  0.00     0.274 HD
HETATM   15  H   UNL     1      15.753   5.507  10.001  1.00  0.00     0.274 HD
ENDBRANCH  11  12
ENDBRANCH  10  11
ENDBRANCH   9  10
ENDBRANCH   4   9
ENDBRANCH   3   4
TORSDOF 6
ENDMDL
MODEL 4
REMARK VINA RESULT:      -4.6      1.823      1.858
REMARK  6 active torsions:
REMARK  status: ('A' for Active; 'I' for Inactive)
REMARK    1  A    between atoms: N_3  and  CA_7 
REMARK    2  A    between atoms: N_4  and  C_8 
REMARK    3  A    between atoms: C_5  and  C_6 
REMARK    4  A    between atoms: C_5  and  CA_7 
REMARK    5  A    between atoms: C_6  and  C_8 
REMARK    6  A    between atoms: CA_7  and  C_9 
ROOT
HETATM    1  O   UNL     1      13.272   6.192   7.359  1.00  0.00    -0.646 OA
HETATM    2  OXT UNL     1      14.588   5.990   9.194  1.00  0.00    -0.646 OA
HETATM    3  C   UNL     1      13.473   5.994   8.690  1.00  0.00     0.204 C 
ENDROOT
BRANCH   3   4
HETATM    4  CA  UNL     1      12.167   5.788   9.436  1.00  0.00     0.283 C 
BRANCH   4   5
HETATM    5  N   UNL     1      11.835   4.364   9.386  1.00  0.00    -0.065 N 
HETATM    6  H   UNL     1      11.711   4.010  10.335  1.00  0.00     0.275 HD
HETATM    7  H   UNL     1      12.592   3.855   8.929  1.00  0.00     0.275 HD
HETATM    8  H   UNL     1      10.971   4.234   8.858  1.00  0.00     0.275 HD
ENDBRANCH   4   5
BRANCH   4   9
HETATM    9  C   UNL     1      12.222   6.332  10.872  1.00  0.00     0.045 C 
BRANCH   9  10
HETATM   10  C   UNL     1      12.553   5.289  11.948  1.00  0.00     0.030 C 
BRANCH  10  11
HETATM   11  C   UNL     1      13.673   5.785  12.864  1.00  0.00     0.230 C 
BRANCH  11  12
HETATM   12  N   UNL     1      14.947   5.779  12.155  1.00  0.00    -0.079 N 
HETATM   13  H   UNL     1      15.441   6.653  12.335  1.00  0.00     0.274 HD
HETATM   14  H   UNL     1      14.778   5.685  11.153  1.00  0.00     0.274 HD
HETATM   15  H   UNL     1      15.514   4.996  12.480  1.00  0.00     0.274 HD
ENDBRANCH  11  12
ENDBRANCH  10  11
ENDBRANCH   9  10
ENDBRANCH   4   9
ENDBRANCH   3   4
TORSDOF 6
ENDMDL
MODEL 5
REMARK VINA RESULT:      -4.6      1.800      2.328
REMARK  6 active torsions:
REMARK  status: ('A' for Active; 'I' for Inactive)
REMARK    1  A    between atoms: N_3  and  CA_7 
REMARK    2  A    between atoms: N_4  and  C_8 
REMARK    3  A    between atoms: C_5  and  C_6 
REMARK    4  A    between atoms: C_5  and  CA_7 
REMARK    5  A    between atoms: C_6  and  C_8 
REMARK    6  A    between atoms: CA_7  and  C_9 
ROOT
HETATM    1  O   UNL     1      12.471   4.421   7.579  1.00  0.00    -0.646 OA
HETATM    2  OXT UNL     1      13.296   6.490   7.156  1.00  0.00    -0.646 OA
HETATM    3  C   UNL     1      13.025   5.605   7.956  1.00  0.00     0.204 C 
ENDROOT
BRANCH   3   4
HETATM    4  CA  UNL     1      13.252   5.673   9.456  1.00  0.00     0.283 C 
BRANCH   4   5
HETATM    5  N   UNL     1      14.551   6.304   9.690  1.00  0.00    -0.065 N 
HETATM    6  H   UNL     1      14.631   7.142   9.113  1.00  0.00     0.275 HD
HETATM    7  H   UNL     1      15.295   5.650   9.447  1.00  0.00     0.275 HD
HETATM    8  H   UNL     1      14.632   6.560  10.675  1.00  0.00     0.275 HD
ENDBRANCH   4   5
BRANCH   4   9
HETATM    9  C   UNL     1      12.106   6.389  10.188  1.00  0.00     0.045 C 
BRANCH   9  10
HETATM   10  C   UNL     1      12.181   6.333  11.720  1.00  0.00     0.030 C 
BRANCH  10  11
HETATM   11  C   UNL     1      12.535   4.925  12.199  1.00  0.00     0.230 C 
BRANCH  11  12
HETATM   12  N   UNL     1      11.448   3.999  11.900  1.00  0.00    -0.079 N 
HETATM   13  H   UNL     1      11.769   3.303  11.228  1.00  0.00     0.274 HD
HETATM   14  H   UNL     1      10.661   4.515  11.504  1.00  0.00     0.274 HD
HETATM   15  H   UNL     1      11.152   3.533  12.757  1.00  0.00     0.274 HD
ENDBRANCH  11  12
ENDBRANCH  10  11
ENDBRANCH   9  10
ENDBRANCH   4   9
ENDBRANCH   3   4
TORSDOF 6
ENDMDL
MODEL 6
REMARK VINA RESULT:      -4.6      2.651      4.386
REMARK  6 active torsions:
REMARK  status: ('A' for Active; 'I' for Inactive)
REMARK    1  A    between atoms: N_3  and  CA_7 
REMARK    2  A    between atoms: N_4  and  C_8 
REMARK    3  A    between atoms: C_5  and  C_6 
REMARK    4  A    between atoms: C_5  and  CA_7 
REMARK    5  A    between atoms: C_6  and  C_8 
REMARK    6  A    between atoms: CA_7  and  C_9 
ROOT
HETATM    1  O   UNL     1      11.742   6.616  12.972  1.00  0.00    -0.646 OA
HETATM    2  OXT UNL     1      13.998   6.394  12.947  1.00  0.00    -0.646 OA
HETATM    3  C   UNL     1      12.908   6.157  12.443  1.00  0.00     0.204 C 
ENDROOT
BRANCH   3   4
HETATM    4  CA  UNL     1      12.678   5.337  11.186  1.00  0.00     0.283 C 
BRANCH   4   5
HETATM    5  N   UNL     1      11.257   4.996  11.120  1.00  0.00    -0.065 N 
HETATM    6  H   UNL     1      10.824   5.165  12.029  1.00  0.00     0.275 HD
HETATM    7  H   UNL     1      11.154   4.012  10.872  1.00  0.00     0.275 HD
HETATM    8  H   UNL     1      10.801   5.574  10.414  1.00  0.00     0.275 HD
ENDBRANCH   4   5
BRANCH   4   9
HETATM    9  C   UNL     1      13.173   6.056   9.922  1.00  0.00     0.045 C 
BRANCH   9  10
HETATM   10  C   UNL     1      12.073   6.439   8.921  1.00  0.00     0.030 C 
BRANCH  10  11
HETATM   11  C   UNL     1      12.449   6.005   7.504  1.00  0.00     0.230 C 
BRANCH  11  12
HETATM   12  N   UNL     1      13.077   4.689   7.527  1.00  0.00    -0.079 N 
HETATM   13  H   UNL     1      14.076   4.792   7.705  1.00  0.00     0.274 HD
HETATM   14  H   UNL     1      12.939   4.231   6.626  1.00  0.00     0.274 HD
HETATM   15  H   UNL     1      12.656   4.124   8.264  1.00  0.00     0.274 HD
ENDBRANCH  11  12
ENDBRANCH  10  11
ENDBRANCH   9  10
ENDBRANCH   4   9
ENDBRANCH   3   4
TORSDOF 6
ENDMDL
MODEL 7
REMARK VINA RESULT:      -4.3      3.205      4.064
REMARK  6 active torsions:
REMARK  status: ('A' for Active; 'I' for Inactive)
REMARK    1  A    between atoms: N_3  and  CA_7 
REMARK    2  A    between atoms: N_4  and  C_8 
REMARK    3  A    between atoms: C_5  and  C_6 
REMARK    4  A    between atoms: C_5  and  CA_7 
REMARK    5  A    between atoms: C_6  and  C_8 
REMARK    6  A    between atoms: CA_7  and  C_9 
ROOT
HETATM    1  O   UNL     1      17.920   5.817   9.542  1.00  0.00    -0.646 OA
HETATM    2  OXT UNL     1      16.754   7.740   9.833  1.00  0.00    -0.646 OA
HETATM    3  C   UNL     1      16.942   6.565  10.120  1.00  0.00     0.204 C 
ENDROOT
BRANCH   3   4
HETATM    4  CA  UNL     1      16.142   5.767  11.134  1.00  0.00     0.283 C 
BRANCH   4   5
HETATM    5  N   UNL     1      16.997   5.527  12.297  1.00  0.00    -0.065 N 
HETATM    6  H   UNL     1      17.683   4.806  12.072  1.00  0.00     0.275 HD
HETATM    7  H   UNL     1      16.423   5.217  13.082  1.00  0.00     0.275 HD
HETATM    8  H   UNL     1      17.479   6.390  12.549  1.00  0.00     0.275 HD
ENDBRANCH   4   5
BRANCH   4   9
HETATM    9  C   UNL     1      14.818   6.453  11.505  1.00  0.00     0.045 C 
BRANCH   9  10
HETATM   10  C   UNL     1      13.589   5.950  10.734  1.00  0.00     0.030 C 
BRANCH  10  11
HETATM   11  C   UNL     1      12.377   5.830  11.658  1.00  0.00     0.230 C 
BRANCH  11  12
HETATM   12  N   UNL     1      11.330   5.040  11.020  1.00  0.00    -0.079 N 
HETATM   13  H   UNL     1      11.317   4.103  11.423  1.00  0.00     0.274 HD
HETATM   14  H   UNL     1      11.515   4.976  10.019  1.00  0.00     0.274 HD
HETATM   15  H   UNL     1      10.426   5.488  11.171  1.00  0.00     0.274 HD
ENDBRANCH  11  12
ENDBRANCH  10  11
ENDBRANCH   9  10
ENDBRANCH   4   9
ENDBRANCH   3   4
TORSDOF 6
ENDMDL
MODEL 8
REMARK VINA RESULT:      -4.3      3.032      3.985
REMARK  6 active torsions:
REMARK  status: ('A' for Active; 'I' for Inactive)
REMARK    1  A    between atoms: N_3  and  CA_7 
REMARK    2  A    between atoms: N_4  and  C_8 
REMARK    3  A    between atoms: C_5  and  C_6 
REMARK    4  A    between atoms: C_5  and  CA_7 
REMARK    5  A    between atoms: C_6  and  C_8 
REMARK    6  A    between atoms: CA_7  and  C_9 
ROOT
HETATM    1  O   UNL     1      13.757   5.883  13.356  1.00  0.00    -0.646 OA
HETATM    2  OXT UNL     1      11.662   6.742  13.221  1.00  0.00    -0.646 OA
HETATM    3  C   UNL     1      12.561   6.068  12.734  1.00  0.00     0.204 C 
ENDROOT
BRANCH   3   4
HETATM    4  CA  UNL     1      12.498   5.348  11.399  1.00  0.00     0.283 C 
BRANCH   4   5
HETATM    5  N   UNL     1      11.145   4.815  11.234  1.00  0.00    -0.065 N 
HETATM    6  H   UNL     1      11.192   3.805  11.098  1.00  0.00     0.275 HD
HETATM    7  H   UNL     1      10.706   5.248  10.421  1.00  0.00     0.275 HD
HETATM    8  H   UNL     1      10.595   5.022  12.068  1.00  0.00     0.275 HD
ENDBRANCH   4   5
BRANCH   4   9
HETATM    9  C   UNL     1      12.926   6.248  10.229  1.00  0.00     0.045 C 
BRANCH   9  10
HETATM   10  C   UNL     1      14.305   5.928   9.636  1.00  0.00     0.030 C 
BRANCH  10  11
HETATM   11  C   UNL     1      15.413   6.633  10.420  1.00  0.00     0.230 C 
BRANCH  11  12
HETATM   12  N   UNL     1      16.067   5.696  11.326  1.00  0.00    -0.079 N 
HETATM   13  H   UNL     1      16.899   5.313  10.878  1.00  0.00     0.274 HD
HETATM   14  H   UNL     1      15.424   4.938  11.554  1.00  0.00     0.274 HD
HETATM   15  H   UNL     1      16.336   6.182  12.182  1.00  0.00     0.274 HD
ENDBRANCH  11  12
ENDBRANCH  10  11
ENDBRANCH   9  10
ENDBRANCH   4   9
ENDBRANCH   3   4
TORSDOF 6
ENDMDL
MODEL 9
REMARK VINA RESULT:      -4.2      3.497      4.511
REMARK  6 active torsions:
REMARK  status: ('A' for Active; 'I' for Inactive)
REMARK    1  A    between atoms: N_3  and  CA_7 
REMARK    2  A    between atoms: N_4  and  C_8 
REMARK    3  A    between atoms: C_5  and  C_6 
REMARK    4  A    between atoms: C_5  and  CA_7 
REMARK    5  A    between atoms: C_6  and  C_8 
REMARK    6  A    between atoms: CA_7  and  C_9 
ROOT
HETATM    1  O   UNL     1      18.014   5.382  11.472  1.00  0.00    -0.646 OA
HETATM    2  OXT UNL     1      17.925   5.748   9.236  1.00  0.00    -0.646 OA
HETATM    3  C   UNL     1      17.457   5.920  10.354  1.00  0.00     0.204 C 
ENDROOT
BRANCH   3   4
HETATM    4  CA  UNL     1      16.216   6.735  10.673  1.00  0.00     0.283 C 
BRANCH   4   5
HETATM    5  N   UNL     1      16.480   8.126  10.308  1.00  0.00    -0.065 N 
HETATM    6  H   UNL     1      15.696   8.710  10.601  1.00  0.00     0.275 HD
HETATM    7  H   UNL     1      16.598   8.196   9.297  1.00  0.00     0.275 HD
HETATM    8  H   UNL     1      17.332   8.443  10.772  1.00  0.00     0.275 HD
ENDBRANCH   4   5
BRANCH   4   9
HETATM    9  C   UNL     1      14.958   6.173   9.994  1.00  0.00     0.045 C 
BRANCH   9  10
HETATM   10  C   UNL     1      13.731   6.041  10.907  1.00  0.00     0.030 C 
BRANCH  10  11
HETATM   11  C   UNL     1      12.438   6.058  10.092  1.00  0.00     0.230 C 
BRANCH  11  12
HETATM   12  N   UNL     1      11.468   5.129  10.661  1.00  0.00    -0.079 N 
HETATM   13  H   UNL     1      10.664   5.054  10.039  1.00  0.00     0.274 HD
HETATM   14  H   UNL     1      11.162   5.473  11.571  1.00  0.00     0.274 HD
HETATM   15  H   UNL     1      11.900   4.212  10.771  1.00  0.00     0.274 HD
ENDBRANCH  11  12
ENDBRANCH  10  11
ENDBRANCH   9  10
ENDBRANCH   4   9
ENDBRANCH   3   4
TORSDOF 6
ENDMDL
