MODEL 1
REMARK VINA RESULT:      -4.9      0.000      0.000
REMARK  6 active torsions:
REMARK  status: ('A' for Active; 'I' for Inactive)
REMARK    1  A    between atoms: N_3  and  CA_7 
REMARK    2  A    between atoms: N_4  and  C_8 
REMARK    3  A    between atoms: C_5  and  C_6 
REMARK    4  A    between atoms: C_5  and  CA_7 
REMARK    5  A    between atoms: C_6  and  C_8 
REMARK    6  A    between atoms: CA_7  and  C_9 
ROOT
HETATM    1  O   UNL     1      23.666  -1.153  34.933  1.00  0.00    -0.646 OA
HETATM    2  OXT UNL     1      22.208  -2.122  36.373  1.00  0.00    -0.646 OA
HETATM    3  C   UNL     1      22.497  -1.780  35.234  1.00  0.00     0.204 C 
ENDROOT
BRANCH   3   4
HETATM    4  CA  UNL     1      21.632  -1.991  34.004  1.00  0.00     0.283 C 
BRANCH   4   5
HETATM    5  N   UNL     1      21.898  -0.897  33.070  1.00  0.00    -0.065 N 
HETATM    6  H   UNL     1      21.041  -0.662  32.568  1.00  0.00     0.275 HD
HETATM    7  H   UNL     1      22.614  -1.185  32.404  1.00  0.00     0.275 HD
HETATM    8  H   UNL     1      22.224  -0.080  33.588  1.00  0.00     0.275 HD
ENDBRANCH   4   5
BRANCH   4   9
HETATM    9  C   UNL     1      21.843  -3.374  33.371  1.00  0.00     0.045 C 
BRANCH   9  10
HETATM   10  C   UNL     1      21.444  -3.479  31.893  1.00  0.00     0.030 C 
BRANCH  10  11
HETATM   11  C   UNL     1      21.887  -4.817  31.300  1.00  0.00     0.230 C 
BRANCH  11  12
HETATM   12  N   UNL     1      22.637  -5.585  32.288  1.00  0.00    -0.079 N 
HETATM   13  H   UNL     1      23.369  -4.999  32.690  1.00  0.00     0.274 HD
HETATM   14  H   UNL     1      23.061  -6.396  31.837  1.00  0.00     0.274 HD
HETATM   15  H   UNL     1      22.007  -5.896  33.027  1.00  0.00     0.274 HD
ENDBRANCH  11  12
ENDBRANCH  10  11
ENDBRANCH   9  10
ENDBRANCH   4   9
ENDBRANCH   3   4
TORSDOF 6
ENDMDL
MODEL 2
REMARK VINA RESULT:      -4.8      2.098      2.419
REMARK  6 active torsions:
REMARK  status: ('A' for Active; 'I' for Inactive)
REMARK    1  A    between atoms: N_3  and  CA_7 
REMARK    2  A    between atoms: N_4  and  C_8 
REMARK    3  A    between atoms: C_5  and  C_6 
REMARK    4  A    between atoms: C_5  and  CA_7 
REMARK    5  A    between atoms: C_6  and  C_8 
REMARK    6  A    between atoms: CA_7  and  C_9 
ROOT
HETATM    1  O   UNL     1      22.517  -3.032  34.529  1.00  0.00    -0.646 OA
HETATM    2  OXT UNL     1      21.402  -1.181  35.215  1.00  0.00    -0.646 OA
HETATM    3  C   UNL     1      21.679  -1.980  34.330  1.00  0.00     0.204 C 
ENDROOT
BRANCH   3   4
HETATM    4  CA  UNL     1      21.153  -1.935  32.906  1.00  0.00     0.283 C 
BRANCH   4   5
HETATM    5  N   UNL     1      21.722  -0.758  32.249  1.00  0.00    -0.065 N 
HETATM    6  H   UNL     1      21.010  -0.317  31.666  1.00  0.00     0.275 HD
HETATM    7  H   UNL     1      22.511  -1.041  31.668  1.00  0.00     0.275 HD
HETATM    8  H   UNL     1      22.041  -0.095  32.956  1.00  0.00     0.275 HD
ENDBRANCH   4   5
BRANCH   4   9
HETATM    9  C   UNL     1      21.435  -3.235  32.138  1.00  0.00     0.045 C 
BRANCH   9  10
HETATM   10  C   UNL     1      21.376  -3.111  30.609  1.00  0.00     0.030 C 
BRANCH  10  11
HETATM   11  C   UNL     1      19.945  -3.294  30.101  1.00  0.00     0.230 C 
BRANCH  11  12
HETATM   12  N   UNL     1      19.380  -2.010  29.704  1.00  0.00    -0.079 N 
HETATM   13  H   UNL     1      19.830  -1.690  28.847  1.00  0.00     0.274 HD
HETATM   14  H   UNL     1      19.538  -1.326  30.445  1.00  0.00     0.274 HD
HETATM   15  H   UNL     1      18.378  -2.113  29.545  1.00  0.00     0.274 HD
ENDBRANCH  11  12
ENDBRANCH  10  11
ENDBRANCH   9  10
ENDBRANCH   4   9
ENDBRANCH   3   4
TORSDOF 6
ENDMDL
MODEL 3
REMARK VINA RESULT:      -4.7      2.073      2.466
REMARK  6 active torsions:
REMARK  status: ('A' for Active; 'I' for Inactive)
REMARK    1  A    between atoms: N_3  and  CA_7 
REMARK    2  A    between atoms: N_4  and  C_8 
REMARK    3  A    between atoms: C_5  and  C_6 
REMARK    4  A    between atoms: C_5  and  CA_7 
REMARK    5  A    between atoms: C_6  and  C_8 
REMARK    6  A    between atoms: CA_7  and  C_9 
ROOT
HETATM    1  O   UNL     1      21.284  -1.170  35.142  1.00  0.00    -0.646 OA
HETATM    2  OXT UNL     1      22.615  -2.940  34.657  1.00  0.00    -0.646 OA
HETATM    3  C   UNL     1      21.777  -2.121  34.304  1.00  0.00     0.204 C 
ENDROOT
BRANCH   3   4
HETATM    4  CA  UNL     1      21.164  -2.028  32.918  1.00  0.00     0.283 C 
BRANCH   4   5
HETATM    5  N   UNL     1      21.676  -0.817  32.275  1.00  0.00    -0.065 N 
HETATM    6  H   UNL     1      21.661  -0.938  31.262  1.00  0.00     0.275 HD
HETATM    7  H   UNL     1      22.633  -0.647  32.584  1.00  0.00     0.275 HD
HETATM    8  H   UNL     1      21.089  -0.023  32.533  1.00  0.00     0.275 HD
ENDBRANCH   4   5
BRANCH   4   9
HETATM    9  C   UNL     1      21.416  -3.293  32.082  1.00  0.00     0.045 C 
BRANCH   9  10
HETATM   10  C   UNL     1      21.386  -3.082  30.562  1.00  0.00     0.030 C 
BRANCH  10  11
HETATM   11  C   UNL     1      19.972  -3.274  30.012  1.00  0.00     0.230 C 
BRANCH  11  12
HETATM   12  N   UNL     1      19.339  -1.980  29.779  1.00  0.00    -0.079 N 
HETATM   13  H   UNL     1      18.741  -1.747  30.571  1.00  0.00     0.274 HD
HETATM   14  H   UNL     1      18.775  -2.026  28.930  1.00  0.00     0.274 HD
HETATM   15  H   UNL     1      20.058  -1.264  29.673  1.00  0.00     0.274 HD
ENDBRANCH  11  12
ENDBRANCH  10  11
ENDBRANCH   9  10
ENDBRANCH   4   9
ENDBRANCH   3   4
TORSDOF 6
ENDMDL
MODEL 4
REMARK VINA RESULT:      -4.5      3.618      4.544
REMARK  6 active torsions:
REMARK  status: ('A' for Active; 'I' for Inactive)
REMARK    1  A    between atoms: N_3  and  CA_7 
REMARK    2  A    between atoms: N_4  and  C_8 
REMARK    3  A    between atoms: C_5  and  C_6 
REMARK    4  A    between atoms: C_5  and  CA_7 
REMARK    5  A    between atoms: C_6  and  C_8 
REMARK    6  A    between atoms: CA_7  and  C_9 
ROOT
HETATM    1  O   UNL     1      19.509  -2.029  30.354  1.00  0.00    -0.646 OA
HETATM    2  OXT UNL     1      20.448  -4.085  30.529  1.00  0.00    -0.646 OA
HETATM    3  C   UNL     1      20.458  -2.893  30.805  1.00  0.00     0.204 C 
ENDROOT
BRANCH   3   4
HETATM    4  CA  UNL     1      21.496  -2.197  31.667  1.00  0.00     0.283 C 
BRANCH   4   5
HETATM    5  N   UNL     1      21.905  -0.970  30.983  1.00  0.00    -0.065 N 
HETATM    6  H   UNL     1      22.310  -1.205  30.076  1.00  0.00     0.275 HD
HETATM    7  H   UNL     1      22.599  -0.481  31.549  1.00  0.00     0.275 HD
HETATM    8  H   UNL     1      21.092  -0.369  30.848  1.00  0.00     0.275 HD
ENDBRANCH   4   5
BRANCH   4   9
HETATM    9  C   UNL     1      20.989  -1.937  33.095  1.00  0.00     0.045 C 
BRANCH   9  10
HETATM   10  C   UNL     1      21.975  -2.310  34.210  1.00  0.00     0.030 C 
BRANCH  10  11
HETATM   11  C   UNL     1      21.798  -1.396  35.424  1.00  0.00     0.230 C 
BRANCH  11  12
HETATM   12  N   UNL     1      22.755  -1.748  36.467  1.00  0.00    -0.079 N 
HETATM   13  H   UNL     1      23.673  -1.376  36.226  1.00  0.00     0.274 HD
HETATM   14  H   UNL     1      22.811  -2.764  36.547  1.00  0.00     0.274 HD
HETATM   15  H   UNL     1      22.450  -1.353  37.356  1.00  0.00     0.274 HD
ENDBRANCH  11  12
ENDBRANCH  10  11
ENDBRANCH   9  10
ENDBRANCH   4   9
ENDBRANCH   3   4
TORSDOF 6
ENDMDL
MODEL 5
REMARK VINA RESULT:      -4.4      1.676      1.829
REMARK  6 active torsions:
REMARK  status: ('A' for Active; 'I' for Inactive)
REMARK    1  A    between atoms: N_3  and  CA_7 
REMARK    2  A    between atoms: N_4  and  C_8 
REMARK    3  A    between atoms: C_5  and  C_6 
REMARK    4  A    between atoms: C_5  and  CA_7 
REMARK    5  A    between atoms: C_6  and  C_8 
REMARK    6  A    between atoms: CA_7  and  C_9 
ROOT
HETATM    1  O   UNL     1      22.259  -4.052  33.738  1.00  0.00    -0.646 OA
HETATM    2  OXT UNL     1      22.664  -2.362  35.194  1.00  0.00    -0.646 OA
HETATM    3  C   UNL     1      22.137  -2.767  34.166  1.00  0.00     0.204 C 
ENDROOT
BRANCH   3   4
HETATM    4  CA  UNL     1      21.287  -1.933  33.224  1.00  0.00     0.283 C 
BRANCH   4   5
HETATM    5  N   UNL     1      22.076  -0.774  32.807  1.00  0.00    -0.065 N 
HETATM    6  H   UNL     1      22.601  -0.414  33.604  1.00  0.00     0.275 HD
HETATM    7  H   UNL     1      21.453  -0.048  32.454  1.00  0.00     0.275 HD
HETATM    8  H   UNL     1      22.725  -1.052  32.070  1.00  0.00     0.275 HD
ENDBRANCH   4   5
BRANCH   4   9
HETATM    9  C   UNL     1      20.760  -2.750  32.035  1.00  0.00     0.045 C 
BRANCH   9  10
HETATM   10  C   UNL     1      21.319  -2.337  30.666  1.00  0.00     0.030 C 
BRANCH  10  11
HETATM   11  C   UNL     1      21.746  -3.563  29.858  1.00  0.00     0.230 C 
BRANCH  11  12
HETATM   12  N   UNL     1      21.904  -4.718  30.734  1.00  0.00    -0.079 N 
HETATM   13  H   UNL     1      22.079  -4.400  31.687  1.00  0.00     0.274 HD
HETATM   14  H   UNL     1      22.691  -5.282  30.414  1.00  0.00     0.274 HD
HETATM   15  H   UNL     1      21.053  -5.279  30.714  1.00  0.00     0.274 HD
ENDBRANCH  11  12
ENDBRANCH  10  11
ENDBRANCH   9  10
ENDBRANCH   4   9
ENDBRANCH   3   4
TORSDOF 6
ENDMDL
MODEL 6
REMARK VINA RESULT:      -4.4      3.091      4.480
REMARK  6 active torsions:
REMARK  status: ('A' for Active; 'I' for Inactive)
REMARK    1  A    between atoms: N_3  and  CA_7 
REMARK    2  A    between atoms: N_4  and  C_8 
REMARK    3  A    between atoms: C_5  and  C_6 
REMARK    4  A    between atoms: C_5  and  CA_7 
REMARK    5  A    between atoms: C_6  and  C_8 
REMARK    6  A    between atoms: CA_7  and  C_9 
ROOT
HETATM    1  O   UNL     1      23.641  -7.595  33.033  1.00  0.00    -0.646 OA
HETATM    2  OXT UNL     1      22.061  -6.849  34.478  1.00  0.00    -0.646 OA
HETATM    3  C   UNL     1      22.685  -6.714  33.434  1.00  0.00     0.204 C 
ENDROOT
BRANCH   3   4
HETATM    4  CA  UNL     1      22.505  -5.580  32.440  1.00  0.00     0.283 C 
BRANCH   4   5
HETATM    5  N   UNL     1      21.643  -6.058  31.358  1.00  0.00    -0.065 N 
HETATM    6  H   UNL     1      22.221  -6.417  30.597  1.00  0.00     0.275 HD
HETATM    7  H   UNL     1      21.070  -5.288  31.015  1.00  0.00     0.275 HD
HETATM    8  H   UNL     1      21.040  -6.803  31.708  1.00  0.00     0.275 HD
ENDBRANCH   4   5
BRANCH   4   9
HETATM    9  C   UNL     1      21.968  -4.302  33.103  1.00  0.00     0.045 C 
BRANCH   9  10
HETATM   10  C   UNL     1      21.444  -3.238  32.129  1.00  0.00     0.030 C 
BRANCH  10  11
HETATM   11  C   UNL     1      21.225  -1.904  32.844  1.00  0.00     0.230 C 
BRANCH  11  12
HETATM   12  N   UNL     1      21.700  -0.801  32.016  1.00  0.00    -0.079 N 
HETATM   13  H   UNL     1      21.227  -0.826  31.112  1.00  0.00     0.274 HD
HETATM   14  H   UNL     1      22.706  -0.892  31.874  1.00  0.00     0.274 HD
HETATM   15  H   UNL     1      21.500   0.084  32.480  1.00  0.00     0.274 HD
ENDBRANCH  11  12
ENDBRANCH  10  11
ENDBRANCH   9  10
ENDBRANCH   4   9
ENDBRANCH   3   4
TORSDOF 6
ENDMDL
MODEL 7
REMARK VINA RESULT:      -4.2      4.243      5.284
REMARK  6 active torsions:
REMARK  status: ('A' for Active; 'I' for Inactive)
REMARK    1  A    between atoms: N_3  and  CA_7 
REMARK    2  A    between atoms: N_4  and  C_8 
REMARK    3  A    between atoms: C_5  and  C_6 
REMARK    4  A    between atoms: C_5  and  CA_7 
REMARK    5  A    between atoms: C_6  and  C_8 
REMARK    6  A    between atoms: CA_7  and  C_9 
ROOT
HETATM    1  O   UNL     1      18.756  -1.970  29.736  1.00  0.00    -0.646 OA
HETATM    2  OXT UNL     1      18.867  -4.221  29.488  1.00  0.00    -0.646 OA
HETATM    3  C   UNL     1      19.425  -3.132  29.505  1.00  0.00     0.204 C 
ENDROOT
BRANCH   3   4
HETATM    4  CA  UNL     1      20.908  -2.898  29.277  1.00  0.00     0.283 C 
BRANCH   4   5
HETATM    5  N   UNL     1      21.056  -2.005  28.128  1.00  0.00    -0.065 N 
HETATM    6  H   UNL     1      21.588  -1.180  28.404  1.00  0.00     0.275 HD
HETATM    7  H   UNL     1      20.133  -1.721  27.798  1.00  0.00     0.275 HD
HETATM    8  H   UNL     1      21.549  -2.493  27.380  1.00  0.00     0.275 HD
ENDBRANCH   4   5
BRANCH   4   9
HETATM    9  C   UNL     1      21.615  -2.366  30.534  1.00  0.00     0.045 C 
BRANCH   9  10
HETATM   10  C   UNL     1      21.295  -3.126  31.829  1.00  0.00     0.030 C 
BRANCH  10  11
HETATM   11  C   UNL     1      21.505  -2.233  33.052  1.00  0.00     0.230 C 
BRANCH  11  12
HETATM   12  N   UNL     1      21.748  -0.856  32.639  1.00  0.00    -0.079 N 
HETATM   13  H   UNL     1      21.037  -0.573  31.964  1.00  0.00     0.274 HD
HETATM   14  H   UNL     1      22.670  -0.787  32.208  1.00  0.00     0.274 HD
HETATM   15  H   UNL     1      21.706  -0.244  33.453  1.00  0.00     0.274 HD
ENDBRANCH  11  12
ENDBRANCH  10  11
ENDBRANCH   9  10
ENDBRANCH   4   9
ENDBRANCH   3   4
TORSDOF 6
ENDMDL
MODEL 8
REMARK VINA RESULT:      -4.1      3.617      4.971
REMARK  6 active torsions:
REMARK  status: ('A' for Active; 'I' for Inactive)
REMARK    1  A    between atoms: N_3  and  CA_7 
REMARK    2  A    between atoms: N_4  and  C_8 
REMARK    3  A    between atoms: C_5  and  C_6 
REMARK    4  A    between atoms: C_5  and  CA_7 
REMARK    5  A    between atoms: C_6  and  C_8 
REMARK    6  A    between atoms: CA_7  and  C_9 
ROOT
HETATM    1  O   UNL     1      21.711  -7.356  30.880  1.00  0.00    -0.646 OA
HETATM    2  OXT UNL     1      23.418  -7.002  32.330  1.00  0.00    -0.646 OA
HETATM    3  C   UNL     1      22.263  -6.789  31.987  1.00  0.00     0.204 C 
ENDROOT
BRANCH   3   4
HETATM    4  CA  UNL     1      21.280  -5.888  32.713  1.00  0.00     0.283 C 
BRANCH   4   5
HETATM    5  N   UNL     1      20.781  -6.610  33.883  1.00  0.00    -0.065 N 
HETATM    6  H   UNL     1      19.907  -7.080  33.645  1.00  0.00     0.275 HD
HETATM    7  H   UNL     1      20.617  -5.952  34.644  1.00  0.00     0.275 HD
HETATM    8  H   UNL     1      21.471  -7.303  34.175  1.00  0.00     0.275 HD
ENDBRANCH   4   5
BRANCH   4   9
HETATM    9  C   UNL     1      21.893  -4.527  33.075  1.00  0.00     0.045 C 
BRANCH   9  10
HETATM   10  C   UNL     1      21.493  -3.368  32.151  1.00  0.00     0.030 C 
BRANCH  10  11
HETATM   11  C   UNL     1      21.409  -2.054  32.927  1.00  0.00     0.230 C 
BRANCH  11  12
HETATM   12  N   UNL     1      21.636  -0.923  32.035  1.00  0.00    -0.079 N 
HETATM   13  H   UNL     1      21.644  -0.059  32.576  1.00  0.00     0.274 HD
HETATM   14  H   UNL     1      20.888  -0.882  31.342  1.00  0.00     0.274 HD
HETATM   15  H   UNL     1      22.532  -1.037  31.563  1.00  0.00     0.274 HD
ENDBRANCH  11  12
ENDBRANCH  10  11
ENDBRANCH   9  10
ENDBRANCH   4   9
ENDBRANCH   3   4
TORSDOF 6
ENDMDL
MODEL 9
REMARK VINA RESULT:      -4.1      3.066      4.339
REMARK  6 active torsions:
REMARK  status: ('A' for Active; 'I' for Inactive)
REMARK    1  A    between atoms: N_3  and  CA_7 
REMARK    2  A    between atoms: N_4  and  C_8 
REMARK    3  A    between atoms: C_5  and  C_6 
REMARK    4  A    between atoms: C_5  and  CA_7 
REMARK    5  A    between atoms: C_6  and  C_8 
REMARK    6  A    between atoms: CA_7  and  C_9 
ROOT
HETATM    1  O   UNL     1      21.805  -2.309  30.389  1.00  0.00    -0.646 OA
HETATM    2  OXT UNL     1      19.587  -2.044  30.778  1.00  0.00    -0.646 OA
HETATM    3  C   UNL     1      20.705  -2.324  31.189  1.00  0.00     0.204 C 
ENDROOT
BRANCH   3   4
HETATM    4  CA  UNL     1      21.046  -2.724  32.614  1.00  0.00     0.283 C 
BRANCH   4   5
HETATM    5  N   UNL     1      21.876  -3.927  32.562  1.00  0.00    -0.065 N 
HETATM    6  H   UNL     1      22.710  -3.741  32.004  1.00  0.00     0.275 HD
HETATM    7  H   UNL     1      21.345  -4.688  32.139  1.00  0.00     0.275 HD
HETATM    8  H   UNL     1      22.151  -4.191  33.509  1.00  0.00     0.275 HD
ENDBRANCH   4   5
BRANCH   4   9
HETATM    9  C   UNL     1      21.709  -1.581  33.398  1.00  0.00     0.045 C 
BRANCH   9  10
HETATM   10  C   UNL     1      21.229  -1.424  34.847  1.00  0.00     0.030 C 
BRANCH  10  11
HETATM   11  C   UNL     1      22.408  -1.185  35.791  1.00  0.00     0.230 C 
BRANCH  11  12
HETATM   12  N   UNL     1      23.597  -1.870  35.300  1.00  0.00    -0.079 N 
HETATM   13  H   UNL     1      23.519  -2.008  34.292  1.00  0.00     0.274 HD
HETATM   14  H   UNL     1      23.682  -2.777  35.761  1.00  0.00     0.274 HD
HETATM   15  H   UNL     1      24.423  -1.307  35.502  1.00  0.00     0.274 HD
ENDBRANCH  11  12
ENDBRANCH  10  11
ENDBRANCH   9  10
ENDBRANCH   4   9
ENDBRANCH   3   4
TORSDOF 6
ENDMDL
