MODEL 1
REMARK VINA RESULT:      -4.8      0.000      0.000
REMARK  6 active torsions:
REMARK  status: ('A' for Active; 'I' for Inactive)
REMARK    1  A    between atoms: N_3  and  CA_7 
REMARK    2  A    between atoms: N_4  and  C_8 
REMARK    3  A    between atoms: C_5  and  C_6 
REMARK    4  A    between atoms: C_5  and  CA_7 
REMARK    5  A    between atoms: C_6  and  C_8 
REMARK    6  A    between atoms: CA_7  and  C_9 
ROOT
HETATM    1  O   UNL     1      23.651  -1.130  34.942  1.00  0.00    -0.646 OA
HETATM    2  OXT UNL     1      22.200  -2.116  36.378  1.00  0.00    -0.646 OA
HETATM    3  C   UNL     1      22.487  -1.769  35.240  1.00  0.00     0.204 C 
ENDROOT
BRANCH   3   4
HETATM    4  CA  UNL     1      21.626  -1.984  34.009  1.00  0.00     0.283 C 
BRANCH   4   5
HETATM    5  N   UNL     1      21.896  -0.895  33.070  1.00  0.00    -0.065 N 
HETATM    6  H   UNL     1      22.756  -0.418  33.342  1.00  0.00     0.275 HD
HETATM    7  H   UNL     1      21.120  -0.234  33.085  1.00  0.00     0.275 HD
HETATM    8  H   UNL     1      22.000  -1.276  32.129  1.00  0.00     0.275 HD
ENDBRANCH   4   5
BRANCH   4   9
HETATM    9  C   UNL     1      21.838  -3.371  33.383  1.00  0.00     0.045 C 
BRANCH   9  10
HETATM   10  C   UNL     1      21.482  -3.472  31.893  1.00  0.00     0.030 C 
BRANCH  10  11
HETATM   11  C   UNL     1      21.616  -4.911  31.395  1.00  0.00     0.230 C 
BRANCH  11  12
HETATM   12  N   UNL     1      22.627  -5.623  32.169  1.00  0.00    -0.079 N 
HETATM   13  H   UNL     1      23.175  -6.217  31.548  1.00  0.00     0.274 HD
HETATM   14  H   UNL     1      22.170  -6.201  32.875  1.00  0.00     0.274 HD
HETATM   15  H   UNL     1      23.241  -4.950  32.626  1.00  0.00     0.274 HD
ENDBRANCH  11  12
ENDBRANCH  10  11
ENDBRANCH   9  10
ENDBRANCH   4   9
ENDBRANCH   3   4
TORSDOF 6
ENDMDL
MODEL 2
REMARK VINA RESULT:      -4.8      2.111      2.400
REMARK  6 active torsions:
REMARK  status: ('A' for Active; 'I' for Inactive)
REMARK    1  A    between atoms: N_3  and  CA_7 
REMARK    2  A    between atoms: N_4  and  C_8 
REMARK    3  A    between atoms: C_5  and  C_6 
REMARK    4  A    between atoms: C_5  and  CA_7 
REMARK    5  A    between atoms: C_6  and  C_8 
REMARK    6  A    between atoms: CA_7  and  C_9 
ROOT
HETATM    1  O   UNL     1      22.500  -3.036  34.512  1.00  0.00    -0.646 OA
HETATM    2  OXT UNL     1      21.422  -1.165  35.205  1.00  0.00    -0.646 OA
HETATM    3  C   UNL     1      21.681  -1.967  34.317  1.00  0.00     0.204 C 
ENDROOT
BRANCH   3   4
HETATM    4  CA  UNL     1      21.152  -1.910  32.895  1.00  0.00     0.283 C 
BRANCH   4   5
HETATM    5  N   UNL     1      21.760  -0.757  32.231  1.00  0.00    -0.065 N 
HETATM    6  H   UNL     1      21.063  -0.020  32.123  1.00  0.00     0.275 HD
HETATM    7  H   UNL     1      22.105  -1.037  31.313  1.00  0.00     0.275 HD
HETATM    8  H   UNL     1      22.538  -0.411  32.794  1.00  0.00     0.275 HD
ENDBRANCH   4   5
BRANCH   4   9
HETATM    9  C   UNL     1      21.384  -3.223  32.132  1.00  0.00     0.045 C 
BRANCH   9  10
HETATM   10  C   UNL     1      21.380  -3.094  30.603  1.00  0.00     0.030 C 
BRANCH  10  11
HETATM   11  C   UNL     1      19.977  -3.317  30.039  1.00  0.00     0.230 C 
BRANCH  11  12
HETATM   12  N   UNL     1      19.311  -2.038  29.818  1.00  0.00    -0.079 N 
HETATM   13  H   UNL     1      20.007  -1.324  29.607  1.00  0.00     0.274 HD
HETATM   14  H   UNL     1      18.796  -1.773  30.658  1.00  0.00     0.274 HD
HETATM   15  H   UNL     1      18.663  -2.123  29.034  1.00  0.00     0.274 HD
ENDBRANCH  11  12
ENDBRANCH  10  11
ENDBRANCH   9  10
ENDBRANCH   4   9
ENDBRANCH   3   4
TORSDOF 6
ENDMDL
MODEL 3
REMARK VINA RESULT:      -4.6      3.488      4.484
REMARK  6 active torsions:
REMARK  status: ('A' for Active; 'I' for Inactive)
REMARK    1  A    between atoms: N_3  and  CA_7 
REMARK    2  A    between atoms: N_4  and  C_8 
REMARK    3  A    between atoms: C_5  and  C_6 
REMARK    4  A    between atoms: C_5  and  CA_7 
REMARK    5  A    between atoms: C_6  and  C_8 
REMARK    6  A    between atoms: CA_7  and  C_9 
ROOT
HETATM    1  O   UNL     1      20.395  -4.351  30.889  1.00  0.00    -0.646 OA
HETATM    2  OXT UNL     1      19.583  -2.348  30.204  1.00  0.00    -0.646 OA
HETATM    3  C   UNL     1      20.418  -2.993  30.825  1.00  0.00     0.204 C 
ENDROOT
BRANCH   3   4
HETATM    4  CA  UNL     1      21.583  -2.408  31.604  1.00  0.00     0.283 C 
BRANCH   4   5
HETATM    5  N   UNL     1      21.545  -0.953  31.453  1.00  0.00    -0.065 N 
HETATM    6  H   UNL     1      20.843  -0.702  30.756  1.00  0.00     0.275 HD
HETATM    7  H   UNL     1      22.459  -0.618  31.151  1.00  0.00     0.275 HD
HETATM    8  H   UNL     1      21.305  -0.525  32.348  1.00  0.00     0.275 HD
ENDBRANCH   4   5
BRANCH   4   9
HETATM    9  C   UNL     1      21.583  -2.850  33.075  1.00  0.00     0.045 C 
BRANCH   9  10
HETATM   10  C   UNL     1      21.516  -1.707  34.097  1.00  0.00     0.030 C 
BRANCH  10  11
HETATM   11  C   UNL     1      22.825  -1.594  34.877  1.00  0.00     0.230 C 
BRANCH  11  12
HETATM   12  N   UNL     1      22.589  -1.820  36.299  1.00  0.00    -0.079 N 
HETATM   13  H   UNL     1      22.627  -0.930  36.796  1.00  0.00     0.274 HD
HETATM   14  H   UNL     1      23.305  -2.445  36.667  1.00  0.00     0.274 HD
HETATM   15  H   UNL     1      21.669  -2.242  36.428  1.00  0.00     0.274 HD
ENDBRANCH  11  12
ENDBRANCH  10  11
ENDBRANCH   9  10
ENDBRANCH   4   9
ENDBRANCH   3   4
TORSDOF 6
ENDMDL
MODEL 4
REMARK VINA RESULT:      -4.4      2.056      2.303
REMARK  6 active torsions:
REMARK  status: ('A' for Active; 'I' for Inactive)
REMARK    1  A    between atoms: N_3  and  CA_7 
REMARK    2  A    between atoms: N_4  and  C_8 
REMARK    3  A    between atoms: C_5  and  C_6 
REMARK    4  A    between atoms: C_5  and  CA_7 
REMARK    5  A    between atoms: C_6  and  C_8 
REMARK    6  A    between atoms: CA_7  and  C_9 
ROOT
HETATM    1  O   UNL     1      22.515  -2.760  34.687  1.00  0.00    -0.646 OA
HETATM    2  OXT UNL     1      21.912  -4.305  33.141  1.00  0.00    -0.646 OA
HETATM    3  C   UNL     1      21.863  -3.156  33.561  1.00  0.00     0.204 C 
ENDROOT
BRANCH   3   4
HETATM    4  CA  UNL     1      21.094  -2.015  32.919  1.00  0.00     0.283 C 
BRANCH   4   5
HETATM    5  N   UNL     1      21.954  -0.832  32.917  1.00  0.00    -0.065 N 
HETATM    6  H   UNL     1      22.102  -0.517  33.877  1.00  0.00     0.275 HD
HETATM    7  H   UNL     1      21.509  -0.088  32.380  1.00  0.00     0.275 HD
HETATM    8  H   UNL     1      22.853  -1.066  32.494  1.00  0.00     0.275 HD
ENDBRANCH   4   5
BRANCH   4   9
HETATM    9  C   UNL     1      20.579  -2.374  31.517  1.00  0.00     0.045 C 
BRANCH   9  10
HETATM   10  C   UNL     1      21.595  -2.178  30.383  1.00  0.00     0.030 C 
BRANCH  10  11
HETATM   11  C   UNL     1      21.601  -3.382  29.441  1.00  0.00     0.230 C 
BRANCH  11  12
HETATM   12  N   UNL     1      21.854  -4.608  30.188  1.00  0.00    -0.079 N 
HETATM   13  H   UNL     1      21.440  -5.399  29.695  1.00  0.00     0.274 HD
HETATM   14  H   UNL     1      21.438  -4.532  31.117  1.00  0.00     0.274 HD
HETATM   15  H   UNL     1      22.860  -4.752  30.277  1.00  0.00     0.274 HD
ENDBRANCH  11  12
ENDBRANCH  10  11
ENDBRANCH   9  10
ENDBRANCH   4   9
ENDBRANCH   3   4
TORSDOF 6
ENDMDL
MODEL 5
REMARK VINA RESULT:      -4.4      2.206      3.793
REMARK  6 active torsions:
REMARK  status: ('A' for Active; 'I' for Inactive)
REMARK    1  A    between atoms: N_3  and  CA_7 
REMARK    2  A    between atoms: N_4  and  C_8 
REMARK    3  A    between atoms: C_5  and  C_6 
REMARK    4  A    between atoms: C_5  and  CA_7 
REMARK    5  A    between atoms: C_6  and  C_8 
REMARK    6  A    between atoms: CA_7  and  C_9 
ROOT
HETATM    1  O   UNL     1      22.355  -3.836  34.077  1.00  0.00    -0.646 OA
HETATM    2  OXT UNL     1      21.721  -6.013  34.124  1.00  0.00    -0.646 OA
HETATM    3  C   UNL     1      22.083  -5.032  33.488  1.00  0.00     0.204 C 
ENDROOT
BRANCH   3   4
HETATM    4  CA  UNL     1      22.285  -4.982  31.984  1.00  0.00     0.283 C 
BRANCH   4   5
HETATM    5  N   UNL     1      22.550  -6.343  31.516  1.00  0.00    -0.065 N 
HETATM    6  H   UNL     1      22.147  -6.467  30.586  1.00  0.00     0.275 HD
HETATM    7  H   UNL     1      22.130  -7.012  32.161  1.00  0.00     0.275 HD
HETATM    8  H   UNL     1      23.557  -6.498  31.474  1.00  0.00     0.275 HD
ENDBRANCH   4   5
BRANCH   4   9
HETATM    9  C   UNL     1      21.100  -4.327  31.257  1.00  0.00     0.045 C 
BRANCH   9  10
HETATM   10  C   UNL     1      21.326  -2.869  30.832  1.00  0.00     0.030 C 
BRANCH  10  11
HETATM   11  C   UNL     1      20.665  -1.904  31.816  1.00  0.00     0.230 C 
BRANCH  11  12
HETATM   12  N   UNL     1      21.672  -1.072  32.464  1.00  0.00    -0.079 N 
HETATM   13  H   UNL     1      22.175  -1.625  33.158  1.00  0.00     0.274 HD
HETATM   14  H   UNL     1      21.217  -0.283  32.924  1.00  0.00     0.274 HD
HETATM   15  H   UNL     1      22.329  -0.726  31.765  1.00  0.00     0.274 HD
ENDBRANCH  11  12
ENDBRANCH  10  11
ENDBRANCH   9  10
ENDBRANCH   4   9
ENDBRANCH   3   4
TORSDOF 6
ENDMDL
MODEL 6
REMARK VINA RESULT:      -4.4      3.296      4.686
REMARK  6 active torsions:
REMARK  status: ('A' for Active; 'I' for Inactive)
REMARK    1  A    between atoms: N_3  and  CA_7 
REMARK    2  A    between atoms: N_4  and  C_8 
REMARK    3  A    between atoms: C_5  and  C_6 
REMARK    4  A    between atoms: C_5  and  CA_7 
REMARK    5  A    between atoms: C_6  and  C_8 
REMARK    6  A    between atoms: CA_7  and  C_9 
ROOT
HETATM    1  O   UNL     1      23.529  -6.874  34.162  1.00  0.00    -0.646 OA
HETATM    2  OXT UNL     1      23.499  -7.282  31.932  1.00  0.00    -0.646 OA
HETATM    3  C   UNL     1      22.998  -6.753  32.915  1.00  0.00     0.204 C 
ENDROOT
BRANCH   3   4
HETATM    4  CA  UNL     1      21.742  -5.901  32.914  1.00  0.00     0.283 C 
BRANCH   4   5
HETATM    5  N   UNL     1      20.755  -6.545  33.781  1.00  0.00    -0.065 N 
HETATM    6  H   UNL     1      20.284  -5.836  34.345  1.00  0.00     0.275 HD
HETATM    7  H   UNL     1      21.225  -7.211  34.394  1.00  0.00     0.275 HD
HETATM    8  H   UNL     1      20.068  -7.035  33.208  1.00  0.00     0.275 HD
ENDBRANCH   4   5
BRANCH   4   9
HETATM    9  C   UNL     1      22.023  -4.445  33.317  1.00  0.00     0.045 C 
BRANCH   9  10
HETATM   10  C   UNL     1      21.567  -3.390  32.299  1.00  0.00     0.030 C 
BRANCH  10  11
HETATM   11  C   UNL     1      21.345  -2.038  32.976  1.00  0.00     0.230 C 
BRANCH  11  12
HETATM   12  N   UNL     1      21.609  -0.952  32.038  1.00  0.00    -0.079 N 
HETATM   13  H   UNL     1      22.141  -0.219  32.507  1.00  0.00     0.274 HD
HETATM   14  H   UNL     1      20.725  -0.569  31.704  1.00  0.00     0.274 HD
HETATM   15  H   UNL     1      22.146  -1.309  31.248  1.00  0.00     0.274 HD
ENDBRANCH  11  12
ENDBRANCH  10  11
ENDBRANCH   9  10
ENDBRANCH   4   9
ENDBRANCH   3   4
TORSDOF 6
ENDMDL
MODEL 7
REMARK VINA RESULT:      -4.3      2.999      4.483
REMARK  6 active torsions:
REMARK  status: ('A' for Active; 'I' for Inactive)
REMARK    1  A    between atoms: N_3  and  CA_7 
REMARK    2  A    between atoms: N_4  and  C_8 
REMARK    3  A    between atoms: C_5  and  C_6 
REMARK    4  A    between atoms: C_5  and  CA_7 
REMARK    5  A    between atoms: C_6  and  C_8 
REMARK    6  A    between atoms: CA_7  and  C_9 
ROOT
HETATM    1  O   UNL     1      20.696  -6.564  33.707  1.00  0.00    -0.646 OA
HETATM    2  OXT UNL     1      22.787  -7.066  34.426  1.00  0.00    -0.646 OA
HETATM    3  C   UNL     1      22.052  -6.477  33.645  1.00  0.00     0.204 C 
ENDROOT
BRANCH   3   4
HETATM    4  CA  UNL     1      22.512  -5.580  32.509  1.00  0.00     0.283 C 
BRANCH   4   5
HETATM    5  N   UNL     1      22.878  -6.431  31.377  1.00  0.00    -0.065 N 
HETATM    6  H   UNL     1      22.175  -7.161  31.259  1.00  0.00     0.275 HD
HETATM    7  H   UNL     1      23.787  -6.859  31.554  1.00  0.00     0.275 HD
HETATM    8  H   UNL     1      22.928  -5.866  30.529  1.00  0.00     0.275 HD
ENDBRANCH   4   5
BRANCH   4   9
HETATM    9  C   UNL     1      21.460  -4.523  32.138  1.00  0.00     0.045 C 
BRANCH   9  10
HETATM   10  C   UNL     1      21.668  -3.146  32.785  1.00  0.00     0.030 C 
BRANCH  10  11
HETATM   11  C   UNL     1      20.887  -2.067  32.036  1.00  0.00     0.230 C 
BRANCH  11  12
HETATM   12  N   UNL     1      21.635  -0.815  32.024  1.00  0.00    -0.079 N 
HETATM   13  H   UNL     1      21.355  -0.259  31.216  1.00  0.00     0.274 HD
HETATM   14  H   UNL     1      22.634  -1.017  31.967  1.00  0.00     0.274 HD
HETATM   15  H   UNL     1      21.441  -0.294  32.879  1.00  0.00     0.274 HD
ENDBRANCH  11  12
ENDBRANCH  10  11
ENDBRANCH   9  10
ENDBRANCH   4   9
ENDBRANCH   3   4
TORSDOF 6
ENDMDL
MODEL 8
REMARK VINA RESULT:      -4.2      4.390      5.424
REMARK  6 active torsions:
REMARK  status: ('A' for Active; 'I' for Inactive)
REMARK    1  A    between atoms: N_3  and  CA_7 
REMARK    2  A    between atoms: N_4  and  C_8 
REMARK    3  A    between atoms: C_5  and  C_6 
REMARK    4  A    between atoms: C_5  and  CA_7 
REMARK    5  A    between atoms: C_6  and  C_8 
REMARK    6  A    between atoms: CA_7  and  C_9 
ROOT
HETATM    1  O   UNL     1      18.746  -1.949  29.672  1.00  0.00    -0.646 OA
HETATM    2  OXT UNL     1      18.765  -4.203  29.430  1.00  0.00    -0.646 OA
HETATM    3  C   UNL     1      19.349  -3.129  29.367  1.00  0.00     0.204 C 
ENDROOT
BRANCH   3   4
HETATM    4  CA  UNL     1      20.797  -2.937  28.953  1.00  0.00     0.283 C 
BRANCH   4   5
HETATM    5  N   UNL     1      20.834  -1.939  27.884  1.00  0.00    -0.065 N 
HETATM    6  H   UNL     1      20.582  -1.025  28.262  1.00  0.00     0.275 HD
HETATM    7  H   UNL     1      20.172  -2.199  27.153  1.00  0.00     0.275 HD
HETATM    8  H   UNL     1      21.775  -1.897  27.491  1.00  0.00     0.275 HD
ENDBRANCH   4   5
BRANCH   4   9
HETATM    9  C   UNL     1      21.700  -2.566  30.140  1.00  0.00     0.045 C 
BRANCH   9  10
HETATM   10  C   UNL     1      21.275  -3.162  31.489  1.00  0.00     0.030 C 
BRANCH  10  11
HETATM   11  C   UNL     1      21.225  -2.083  32.571  1.00  0.00     0.230 C 
BRANCH  11  12
HETATM   12  N   UNL     1      21.621  -0.792  32.019  1.00  0.00    -0.079 N 
HETATM   13  H   UNL     1      22.481  -0.901  31.482  1.00  0.00     0.274 HD
HETATM   14  H   UNL     1      21.777  -0.131  32.779  1.00  0.00     0.274 HD
HETATM   15  H   UNL     1      20.882  -0.442  31.409  1.00  0.00     0.274 HD
ENDBRANCH  11  12
ENDBRANCH  10  11
ENDBRANCH   9  10
ENDBRANCH   4   9
ENDBRANCH   3   4
TORSDOF 6
ENDMDL
MODEL 9
REMARK VINA RESULT:      -4.1      3.730      4.391
REMARK  6 active torsions:
REMARK  status: ('A' for Active; 'I' for Inactive)
REMARK    1  A    between atoms: N_3  and  CA_7 
REMARK    2  A    between atoms: N_4  and  C_8 
REMARK    3  A    between atoms: C_5  and  C_6 
REMARK    4  A    between atoms: C_5  and  CA_7 
REMARK    5  A    between atoms: C_6  and  C_8 
REMARK    6  A    between atoms: CA_7  and  C_9 
ROOT
HETATM    1  O   UNL     1      21.912  -4.410  31.323  1.00  0.00    -0.646 OA
HETATM    2  OXT UNL     1      21.671  -3.311  33.292  1.00  0.00    -0.646 OA
HETATM    3  C   UNL     1      21.523  -3.346  32.078  1.00  0.00     0.204 C 
ENDROOT
BRANCH   3   4
HETATM    4  CA  UNL     1      20.902  -2.248  31.233  1.00  0.00     0.283 C 
BRANCH   4   5
HETATM    5  N   UNL     1      21.590  -0.994  31.542  1.00  0.00    -0.065 N 
HETATM    6  H   UNL     1      22.556  -1.192  31.806  1.00  0.00     0.275 HD
HETATM    7  H   UNL     1      21.115  -0.527  32.314  1.00  0.00     0.275 HD
HETATM    8  H   UNL     1      21.579  -0.389  30.720  1.00  0.00     0.275 HD
ENDBRANCH   4   5
BRANCH   4   9
HETATM    9  C   UNL     1      20.924  -2.581  29.733  1.00  0.00     0.045 C 
BRANCH   9  10
HETATM   10  C   UNL     1      19.579  -2.419  29.013  1.00  0.00     0.030 C 
BRANCH  10  11
HETATM   11  C   UNL     1      19.785  -2.173  27.518  1.00  0.00     0.230 C 
BRANCH  11  12
HETATM   12  N   UNL     1      19.573  -0.765  27.203  1.00  0.00    -0.079 N 
HETATM   13  H   UNL     1      19.832  -0.193  28.007  1.00  0.00     0.274 HD
HETATM   14  H   UNL     1      18.590  -0.610  26.980  1.00  0.00     0.274 HD
HETATM   15  H   UNL     1      20.149  -0.505  26.402  1.00  0.00     0.274 HD
ENDBRANCH  11  12
ENDBRANCH  10  11
ENDBRANCH   9  10
ENDBRANCH   4   9
ENDBRANCH   3   4
TORSDOF 6
ENDMDL
