MODEL 1
REMARK VINA RESULT:      -4.9      0.000      0.000
REMARK  6 active torsions:
REMARK  status: ('A' for Active; 'I' for Inactive)
REMARK    1  A    between atoms: N_3  and  CA_7 
REMARK    2  A    between atoms: N_4  and  C_8 
REMARK    3  A    between atoms: C_5  and  C_6 
REMARK    4  A    between atoms: C_5  and  CA_7 
REMARK    5  A    between atoms: C_6  and  C_8 
REMARK    6  A    between atoms: CA_7  and  C_9 
ROOT
HETATM    1  O   UNL     1      11.936   6.645   8.141  1.00  0.00    -0.646 OA
HETATM    2  OXT UNL     1      13.967   5.830   8.734  1.00  0.00    -0.646 OA
HETATM    3  C   UNL     1      12.830   6.162   9.045  1.00  0.00     0.204 C 
ENDROOT
BRANCH   3   4
HETATM    4  CA  UNL     1      12.243   6.093  10.443  1.00  0.00     0.283 C 
BRANCH   4   5
HETATM    5  N   UNL     1      11.302   4.973  10.486  1.00  0.00    -0.065 N 
HETATM    6  H   UNL     1      10.348   5.327  10.412  1.00  0.00     0.275 HD
HETATM    7  H   UNL     1      11.412   4.471  11.367  1.00  0.00     0.275 HD
HETATM    8  H   UNL     1      11.492   4.341   9.709  1.00  0.00     0.275 HD
ENDBRANCH   4   5
BRANCH   4   9
HETATM    9  C   UNL     1      13.327   5.998  11.528  1.00  0.00     0.045 C 
BRANCH   9  10
HETATM   10  C   UNL     1      12.853   5.423  12.870  1.00  0.00     0.030 C 
BRANCH  10  11
HETATM   11  C   UNL     1      12.275   6.523  13.762  1.00  0.00     0.230 C 
BRANCH  11  12
HETATM   12  N   UNL     1      11.570   5.937  14.896  1.00  0.00    -0.079 N 
HETATM   13  H   UNL     1      11.865   4.969  15.017  1.00  0.00     0.274 HD
HETATM   14  H   UNL     1      10.565   5.966  14.722  1.00  0.00     0.274 HD
HETATM   15  H   UNL     1      11.784   6.467  15.741  1.00  0.00     0.274 HD
ENDBRANCH  11  12
ENDBRANCH  10  11
ENDBRANCH   9  10
ENDBRANCH   4   9
ENDBRANCH   3   4
TORSDOF 6
ENDMDL
MODEL 2
REMARK VINA RESULT:      -4.7      2.136      2.558
REMARK  6 active torsions:
REMARK  status: ('A' for Active; 'I' for Inactive)
REMARK    1  A    between atoms: N_3  and  CA_7 
REMARK    2  A    between atoms: N_4  and  C_8 
REMARK    3  A    between atoms: C_5  and  C_6 
REMARK    4  A    between atoms: C_5  and  CA_7 
REMARK    5  A    between atoms: C_6  and  C_8 
REMARK    6  A    between atoms: CA_7  and  C_9 
ROOT
HETATM    1  O   UNL     1      13.236   6.424   7.137  1.00  0.00    -0.646 OA
HETATM    2  OXT UNL     1      12.564   4.318   7.638  1.00  0.00    -0.646 OA
HETATM    3  C   UNL     1      12.774   5.471   7.990  1.00  0.00     0.204 C 
ENDROOT
BRANCH   3   4
HETATM    4  CA  UNL     1      12.563   6.017   9.391  1.00  0.00     0.283 C 
BRANCH   4   5
HETATM    5  N   UNL     1      11.550   5.194  10.051  1.00  0.00    -0.065 N 
HETATM    6  H   UNL     1      10.644   5.347   9.606  1.00  0.00     0.275 HD
HETATM    7  H   UNL     1      11.493   5.450  11.036  1.00  0.00     0.275 HD
HETATM    8  H   UNL     1      11.806   4.209   9.970  1.00  0.00     0.275 HD
ENDBRANCH   4   5
BRANCH   4   9
HETATM    9  C   UNL     1      13.873   6.097  10.190  1.00  0.00     0.045 C 
BRANCH   9  10
HETATM   10  C   UNL     1      13.709   6.017  11.714  1.00  0.00     0.030 C 
BRANCH  10  11
HETATM   11  C   UNL     1      15.062   5.822  12.400  1.00  0.00     0.230 C 
BRANCH  11  12
HETATM   12  N   UNL     1      16.118   5.680  11.405  1.00  0.00    -0.079 N 
HETATM   13  H   UNL     1      16.119   4.727  11.042  1.00  0.00     0.274 HD
HETATM   14  H   UNL     1      17.021   5.880  11.837  1.00  0.00     0.274 HD
HETATM   15  H   UNL     1      15.955   6.335  10.640  1.00  0.00     0.274 HD
ENDBRANCH  11  12
ENDBRANCH  10  11
ENDBRANCH   9  10
ENDBRANCH   4   9
ENDBRANCH   3   4
TORSDOF 6
ENDMDL
MODEL 3
REMARK VINA RESULT:      -4.6      2.681      4.508
REMARK  6 active torsions:
REMARK  status: ('A' for Active; 'I' for Inactive)
REMARK    1  A    between atoms: N_3  and  CA_7 
REMARK    2  A    between atoms: N_4  and  C_8 
REMARK    3  A    between atoms: C_5  and  C_6 
REMARK    4  A    between atoms: C_5  and  CA_7 
REMARK    5  A    between atoms: C_6  and  C_8 
REMARK    6  A    between atoms: CA_7  and  C_9 
ROOT
HETATM    1  O   UNL     1      14.051   5.608  12.952  1.00  0.00    -0.646 OA
HETATM    2  OXT UNL     1      11.990   6.545  13.083  1.00  0.00    -0.646 OA
HETATM    3  C   UNL     1      12.808   5.874  12.467  1.00  0.00     0.204 C 
ENDROOT
BRANCH   3   4
HETATM    4  CA  UNL     1      12.584   5.246  11.103  1.00  0.00     0.283 C 
BRANCH   4   5
HETATM    5  N   UNL     1      11.164   4.918  10.982  1.00  0.00    -0.065 N 
HETATM    6  H   UNL     1      10.644   5.374  11.732  1.00  0.00     0.275 HD
HETATM    7  H   UNL     1      11.041   3.908  11.048  1.00  0.00     0.275 HD
HETATM    8  H   UNL     1      10.815   5.244  10.080  1.00  0.00     0.275 HD
ENDBRANCH   4   5
BRANCH   4   9
HETATM    9  C   UNL     1      13.084   6.141   9.959  1.00  0.00     0.045 C 
BRANCH   9  10
HETATM   10  C   UNL     1      12.028   6.494   8.902  1.00  0.00     0.030 C 
BRANCH  10  11
HETATM   11  C   UNL     1      12.505   6.104   7.502  1.00  0.00     0.230 C 
BRANCH  11  12
HETATM   12  N   UNL     1      13.118   4.781   7.526  1.00  0.00    -0.079 N 
HETATM   13  H   UNL     1      13.281   4.465   6.570  1.00  0.00     0.274 HD
HETATM   14  H   UNL     1      12.494   4.126   7.998  1.00  0.00     0.274 HD
HETATM   15  H   UNL     1      14.006   4.826   8.025  1.00  0.00     0.274 HD
ENDBRANCH  11  12
ENDBRANCH  10  11
ENDBRANCH   9  10
ENDBRANCH   4   9
ENDBRANCH   3   4
TORSDOF 6
ENDMDL
MODEL 4
REMARK VINA RESULT:      -4.3      2.598      3.455
REMARK  6 active torsions:
REMARK  status: ('A' for Active; 'I' for Inactive)
REMARK    1  A    between atoms: N_3  and  CA_7 
REMARK    2  A    between atoms: N_4  and  C_8 
REMARK    3  A    between atoms: C_5  and  C_6 
REMARK    4  A    between atoms: C_5  and  CA_7 
REMARK    5  A    between atoms: C_6  and  C_8 
REMARK    6  A    between atoms: CA_7  and  C_9 
ROOT
HETATM    1  O   UNL     1      16.601   6.960   9.809  1.00  0.00    -0.646 OA
HETATM    2  OXT UNL     1      14.583   6.024   9.371  1.00  0.00    -0.646 OA
HETATM    3  C   UNL     1      15.495   6.248  10.155  1.00  0.00     0.204 C 
ENDROOT
BRANCH   3   4
HETATM    4  CA  UNL     1      15.549   5.784  11.600  1.00  0.00     0.283 C 
BRANCH   4   5
HETATM    5  N   UNL     1      16.856   6.149  12.146  1.00  0.00    -0.065 N 
HETATM    6  H   UNL     1      17.440   6.532  11.402  1.00  0.00     0.275 HD
HETATM    7  H   UNL     1      17.303   5.321  12.538  1.00  0.00     0.275 HD
HETATM    8  H   UNL     1      16.735   6.850  12.878  1.00  0.00     0.275 HD
ENDBRANCH   4   5
BRANCH   4   9
HETATM    9  C   UNL     1      14.383   6.338  12.435  1.00  0.00     0.045 C 
BRANCH   9  10
HETATM   10  C   UNL     1      13.127   5.457  12.459  1.00  0.00     0.030 C 
BRANCH  10  11
HETATM   11  C   UNL     1      11.997   6.095  11.651  1.00  0.00     0.230 C 
BRANCH  11  12
HETATM   12  N   UNL     1      11.586   5.208  10.568  1.00  0.00    -0.079 N 
HETATM   13  H   UNL     1      12.250   4.438  10.488  1.00  0.00     0.274 HD
HETATM   14  H   UNL     1      11.563   5.729   9.692  1.00  0.00     0.274 HD
HETATM   15  H   UNL     1      10.657   4.835  10.767  1.00  0.00     0.274 HD
ENDBRANCH  11  12
ENDBRANCH  10  11
ENDBRANCH   9  10
ENDBRANCH   4   9
ENDBRANCH   3   4
TORSDOF 6
ENDMDL
MODEL 5
REMARK VINA RESULT:      -4.3      1.897      2.137
REMARK  6 active torsions:
REMARK  status: ('A' for Active; 'I' for Inactive)
REMARK    1  A    between atoms: N_3  and  CA_7 
REMARK    2  A    between atoms: N_4  and  C_8 
REMARK    3  A    between atoms: C_5  and  C_6 
REMARK    4  A    between atoms: C_5  and  CA_7 
REMARK    5  A    between atoms: C_6  and  C_8 
REMARK    6  A    between atoms: CA_7  and  C_9 
ROOT
HETATM    1  O   UNL     1      13.178   6.176   6.616  1.00  0.00    -0.646 OA
HETATM    2  OXT UNL     1      12.695   4.277   7.756  1.00  0.00    -0.646 OA
HETATM    3  C   UNL     1      12.885   5.486   7.751  1.00  0.00     0.204 C 
ENDROOT
BRANCH   3   4
HETATM    4  CA  UNL     1      12.829   6.392   8.969  1.00  0.00     0.283 C 
BRANCH   4   5
HETATM    5  N   UNL     1      11.426   6.707   9.236  1.00  0.00    -0.065 N 
HETATM    6  H   UNL     1      10.968   6.985   8.367  1.00  0.00     0.275 HD
HETATM    7  H   UNL     1      11.371   7.471   9.909  1.00  0.00     0.275 HD
HETATM    8  H   UNL     1      10.959   5.883   9.617  1.00  0.00     0.275 HD
ENDBRANCH   4   5
BRANCH   4   9
HETATM    9  C   UNL     1      13.540   5.780  10.186  1.00  0.00     0.045 C 
BRANCH   9  10
HETATM   10  C   UNL     1      12.929   6.145  11.545  1.00  0.00     0.030 C 
BRANCH  10  11
HETATM   11  C   UNL     1      12.601   4.888  12.352  1.00  0.00     0.230 C 
BRANCH  11  12
HETATM   12  N   UNL     1      11.578   4.102  11.671  1.00  0.00    -0.079 N 
HETATM   13  H   UNL     1      10.762   4.008  12.276  1.00  0.00     0.274 HD
HETATM   14  H   UNL     1      11.949   3.176  11.456  1.00  0.00     0.274 HD
HETATM   15  H   UNL     1      11.308   4.570  10.806  1.00  0.00     0.274 HD
ENDBRANCH  11  12
ENDBRANCH  10  11
ENDBRANCH   9  10
ENDBRANCH   4   9
ENDBRANCH   3   4
TORSDOF 6
ENDMDL
MODEL 6
REMARK VINA RESULT:      -4.2      3.503      4.519
REMARK  6 active torsions:
REMARK  status: ('A' for Active; 'I' for Inactive)
REMARK    1  A    between atoms: N_3  and  CA_7 
REMARK    2  A    between atoms: N_4  and  C_8 
REMARK    3  A    between atoms: C_5  and  C_6 
REMARK    4  A    between atoms: C_5  and  CA_7 
REMARK    5  A    between atoms: C_6  and  C_8 
REMARK    6  A    between atoms: CA_7  and  C_9 
ROOT
HETATM    1  O   UNL     1      18.009   5.359  11.487  1.00  0.00    -0.646 OA
HETATM    2  OXT UNL     1      17.941   5.771   9.259  1.00  0.00    -0.646 OA
HETATM    3  C   UNL     1      17.463   5.922  10.375  1.00  0.00     0.204 C 
ENDROOT
BRANCH   3   4
HETATM    4  CA  UNL     1      16.223   6.734  10.701  1.00  0.00     0.283 C 
BRANCH   4   5
HETATM    5  N   UNL     1      16.472   8.121  10.306  1.00  0.00    -0.065 N 
HETATM    6  H   UNL     1      17.304   8.467  10.785  1.00  0.00     0.275 HD
HETATM    7  H   UNL     1      15.669   8.696  10.560  1.00  0.00     0.275 HD
HETATM    8  H   UNL     1      16.617   8.166   9.297  1.00  0.00     0.275 HD
ENDBRANCH   4   5
BRANCH   4   9
HETATM    9  C   UNL     1      14.957   6.153  10.052  1.00  0.00     0.045 C 
BRANCH   9  10
HETATM   10  C   UNL     1      13.749   6.021  10.991  1.00  0.00     0.030 C 
BRANCH  10  11
HETATM   11  C   UNL     1      12.440   6.214  10.226  1.00  0.00     0.230 C 
BRANCH  11  12
HETATM   12  N   UNL     1      11.500   5.147  10.553  1.00  0.00    -0.079 N 
HETATM   13  H   UNL     1      10.860   5.007   9.772  1.00  0.00     0.274 HD
HETATM   14  H   UNL     1      10.969   5.404  11.385  1.00  0.00     0.274 HD
HETATM   15  H   UNL     1      12.014   4.284  10.730  1.00  0.00     0.274 HD
ENDBRANCH  11  12
ENDBRANCH  10  11
ENDBRANCH   9  10
ENDBRANCH   4   9
ENDBRANCH   3   4
TORSDOF 6
ENDMDL
MODEL 7
REMARK VINA RESULT:      -4.2      2.343      4.358
REMARK  6 active torsions:
REMARK  status: ('A' for Active; 'I' for Inactive)
REMARK    1  A    between atoms: N_3  and  CA_7 
REMARK    2  A    between atoms: N_4  and  C_8 
REMARK    3  A    between atoms: C_5  and  C_6 
REMARK    4  A    between atoms: C_5  and  CA_7 
REMARK    5  A    between atoms: C_6  and  C_8 
REMARK    6  A    between atoms: CA_7  and  C_9 
ROOT
HETATM    1  O   UNL     1      15.655   6.926  11.716  1.00  0.00    -0.646 OA
HETATM    2  OXT UNL     1      15.354   6.226   9.581  1.00  0.00    -0.646 OA
HETATM    3  C   UNL     1      14.940   6.324  10.728  1.00  0.00     0.204 C 
ENDROOT
BRANCH   3   4
HETATM    4  CA  UNL     1      13.602   5.809  11.229  1.00  0.00     0.283 C 
BRANCH   4   5
HETATM    5  N   UNL     1      13.445   6.232  12.621  1.00  0.00    -0.065 N 
HETATM    6  H   UNL     1      14.243   6.807  12.893  1.00  0.00     0.275 HD
HETATM    7  H   UNL     1      13.397   5.410  13.222  1.00  0.00     0.275 HD
HETATM    8  H   UNL     1      12.586   6.774  12.717  1.00  0.00     0.275 HD
ENDBRANCH   4   5
BRANCH   4   9
HETATM    9  C   UNL     1      12.433   6.259  10.339  1.00  0.00     0.045 C 
BRANCH   9  10
HETATM   10  C   UNL     1      12.274   5.473   9.031  1.00  0.00     0.030 C 
BRANCH  10  11
HETATM   11  C   UNL     1      12.109   6.419   7.841  1.00  0.00     0.230 C 
BRANCH  11  12
HETATM   12  N   UNL     1      12.981   6.012   6.745  1.00  0.00    -0.079 N 
HETATM   13  H   UNL     1      13.830   5.592   7.123  1.00  0.00     0.274 HD
HETATM   14  H   UNL     1      13.227   6.829   6.185  1.00  0.00     0.274 HD
HETATM   15  H   UNL     1      12.497   5.332   6.160  1.00  0.00     0.274 HD
ENDBRANCH  11  12
ENDBRANCH  10  11
ENDBRANCH   9  10
ENDBRANCH   4   9
ENDBRANCH   3   4
TORSDOF 6
ENDMDL
MODEL 8
REMARK VINA RESULT:      -4.2      3.419      4.699
REMARK  6 active torsions:
REMARK  status: ('A' for Active; 'I' for Inactive)
REMARK    1  A    between atoms: N_3  and  CA_7 
REMARK    2  A    between atoms: N_4  and  C_8 
REMARK    3  A    between atoms: C_5  and  C_6 
REMARK    4  A    between atoms: C_5  and  CA_7 
REMARK    5  A    between atoms: C_6  and  C_8 
REMARK    6  A    between atoms: CA_7  and  C_9 
ROOT
HETATM    1  O   UNL     1      11.259   7.070  13.922  1.00  0.00    -0.646 OA
HETATM    2  OXT UNL     1      12.232   6.824  15.956  1.00  0.00    -0.646 OA
HETATM    3  C   UNL     1      12.328   6.856  14.736  1.00  0.00     0.204 C 
ENDROOT
BRANCH   3   4
HETATM    4  CA  UNL     1      13.613   6.669  13.948  1.00  0.00     0.283 C 
BRANCH   4   5
HETATM    5  N   UNL     1      14.699   6.439  14.900  1.00  0.00    -0.065 N 
HETATM    6  H   UNL     1      14.630   5.492  15.273  1.00  0.00     0.275 HD
HETATM    7  H   UNL     1      14.631   7.112  15.663  1.00  0.00     0.275 HD
HETATM    8  H   UNL     1      15.596   6.552  14.426  1.00  0.00     0.275 HD
ENDBRANCH   4   5
BRANCH   4   9
HETATM    9  C   UNL     1      13.497   5.551  12.900  1.00  0.00     0.045 C 
BRANCH   9  10
HETATM   10  C   UNL     1      13.545   6.023  11.440  1.00  0.00     0.030 C 
BRANCH  10  11
HETATM   11  C   UNL     1      12.331   5.516  10.662  1.00  0.00     0.230 C 
BRANCH  11  12
HETATM   12  N   UNL     1      11.349   4.939  11.574  1.00  0.00    -0.079 N 
HETATM   13  H   UNL     1      11.333   3.926  11.461  1.00  0.00     0.274 HD
HETATM   14  H   UNL     1      10.426   5.319  11.364  1.00  0.00     0.274 HD
HETATM   15  H   UNL     1      11.601   5.170  12.535  1.00  0.00     0.274 HD
ENDBRANCH  11  12
ENDBRANCH  10  11
ENDBRANCH   9  10
ENDBRANCH   4   9
ENDBRANCH   3   4
TORSDOF 6
ENDMDL
MODEL 9
REMARK VINA RESULT:      -4.1      3.296      4.392
REMARK  6 active torsions:
REMARK  status: ('A' for Active; 'I' for Inactive)
REMARK    1  A    between atoms: N_3  and  CA_7 
REMARK    2  A    between atoms: N_4  and  C_8 
REMARK    3  A    between atoms: C_5  and  C_6 
REMARK    4  A    between atoms: C_5  and  CA_7 
REMARK    5  A    between atoms: C_6  and  C_8 
REMARK    6  A    between atoms: CA_7  and  C_9 
ROOT
HETATM    1  O   UNL     1      17.365   6.673   9.581  1.00  0.00    -0.646 OA
HETATM    2  OXT UNL     1      18.578   5.428  11.036  1.00  0.00    -0.646 OA
HETATM    3  C   UNL     1      17.502   5.894  10.688  1.00  0.00     0.204 C 
ENDROOT
BRANCH   3   4
HETATM    4  CA  UNL     1      16.179   5.691  11.406  1.00  0.00     0.283 C 
BRANCH   4   5
HETATM    5  N   UNL     1      16.342   6.135  12.791  1.00  0.00    -0.065 N 
HETATM    6  H   UNL     1      15.477   5.967  13.306  1.00  0.00     0.275 HD
HETATM    7  H   UNL     1      16.559   7.131  12.805  1.00  0.00     0.275 HD
HETATM    8  H   UNL     1      17.104   5.615  13.227  1.00  0.00     0.275 HD
ENDBRANCH   4   5
BRANCH   4   9
HETATM    9  C   UNL     1      15.014   6.394  10.694  1.00  0.00     0.045 C 
BRANCH   9  10
HETATM   10  C   UNL     1      13.617   6.005  11.197  1.00  0.00     0.030 C 
BRANCH  10  11
HETATM   11  C   UNL     1      12.668   5.742  10.027  1.00  0.00     0.230 C 
BRANCH  11  12
HETATM   12  N   UNL     1      11.432   5.133  10.505  1.00  0.00    -0.079 N 
HETATM   13  H   UNL     1      11.652   4.311  11.066  1.00  0.00     0.274 HD
HETATM   14  H   UNL     1      10.859   4.856   9.707  1.00  0.00     0.274 HD
HETATM   15  H   UNL     1      10.919   5.806  11.074  1.00  0.00     0.274 HD
ENDBRANCH  11  12
ENDBRANCH  10  11
ENDBRANCH   9  10
ENDBRANCH   4   9
ENDBRANCH   3   4
TORSDOF 6
ENDMDL
