MODEL 1
REMARK VINA RESULT:      -4.9      0.000      0.000
REMARK  6 active torsions:
REMARK  status: ('A' for Active; 'I' for Inactive)
REMARK    1  A    between atoms: N_3  and  CA_7 
REMARK    2  A    between atoms: N_4  and  C_8 
REMARK    3  A    between atoms: C_5  and  C_6 
REMARK    4  A    between atoms: C_5  and  CA_7 
REMARK    5  A    between atoms: C_6  and  C_8 
REMARK    6  A    between atoms: CA_7  and  C_9 
ROOT
HETATM    1  O   UNL     1      14.442   5.981   8.878  1.00  0.00    -0.646 OA
HETATM    2  OXT UNL     1      13.191   6.308   7.015  1.00  0.00    -0.646 OA
HETATM    3  C   UNL     1      13.260   6.039   8.207  1.00  0.00     0.204 C 
ENDROOT
BRANCH   3   4
HETATM    4  CA  UNL     1      12.079   5.734   9.112  1.00  0.00     0.283 C 
BRANCH   4   5
HETATM    5  N   UNL     1      11.914   4.281   9.168  1.00  0.00    -0.065 N 
HETATM    6  H   UNL     1      11.364   3.970   8.367  1.00  0.00     0.275 HD
HETATM    7  H   UNL     1      11.433   4.027  10.031  1.00  0.00     0.275 HD
HETATM    8  H   UNL     1      12.831   3.834   9.145  1.00  0.00     0.275 HD
ENDBRANCH   4   5
BRANCH   4   9
HETATM    9  C   UNL     1      12.231   6.366  10.504  1.00  0.00     0.045 C 
BRANCH   9  10
HETATM   10  C   UNL     1      12.254   5.369  11.670  1.00  0.00     0.030 C 
BRANCH  10  11
HETATM   11  C   UNL     1      12.700   6.051  12.964  1.00  0.00     0.230 C 
BRANCH  11  12
HETATM   12  N   UNL     1      11.551   6.618  13.660  1.00  0.00    -0.079 N 
HETATM   13  H   UNL     1      11.825   6.888  14.605  1.00  0.00     0.274 HD
HETATM   14  H   UNL     1      10.807   5.922  13.710  1.00  0.00     0.274 HD
HETATM   15  H   UNL     1      11.217   7.438  13.155  1.00  0.00     0.274 HD
ENDBRANCH  11  12
ENDBRANCH  10  11
ENDBRANCH   9  10
ENDBRANCH   4   9
ENDBRANCH   3   4
TORSDOF 6
ENDMDL
MODEL 2
REMARK VINA RESULT:      -4.9      1.120      1.610
REMARK  6 active torsions:
REMARK  status: ('A' for Active; 'I' for Inactive)
REMARK    1  A    between atoms: N_3  and  CA_7 
REMARK    2  A    between atoms: N_4  and  C_8 
REMARK    3  A    between atoms: C_5  and  C_6 
REMARK    4  A    between atoms: C_5  and  CA_7 
REMARK    5  A    between atoms: C_6  and  C_8 
REMARK    6  A    between atoms: CA_7  and  C_9 
ROOT
HETATM    1  O   UNL     1      12.001   6.597   8.095  1.00  0.00    -0.646 OA
HETATM    2  OXT UNL     1      14.040   5.880   8.780  1.00  0.00    -0.646 OA
HETATM    3  C   UNL     1      12.881   6.175   9.042  1.00  0.00     0.204 C 
ENDROOT
BRANCH   3   4
HETATM    4  CA  UNL     1      12.249   6.122  10.422  1.00  0.00     0.283 C 
BRANCH   4   5
HETATM    5  N   UNL     1      11.310   5.001  10.448  1.00  0.00    -0.065 N 
HETATM    6  H   UNL     1      10.389   5.335  10.737  1.00  0.00     0.275 HD
HETATM    7  H   UNL     1      11.639   4.298  11.109  1.00  0.00     0.275 HD
HETATM    8  H   UNL     1      11.246   4.589   9.517  1.00  0.00     0.275 HD
ENDBRANCH   4   5
BRANCH   4   9
HETATM    9  C   UNL     1      13.298   6.042  11.542  1.00  0.00     0.045 C 
BRANCH   9  10
HETATM   10  C   UNL     1      12.794   5.438  12.860  1.00  0.00     0.030 C 
BRANCH  10  11
HETATM   11  C   UNL     1      12.307   6.531  13.811  1.00  0.00     0.230 C 
BRANCH  11  12
HETATM   12  N   UNL     1      11.511   5.950  14.886  1.00  0.00    -0.079 N 
HETATM   13  H   UNL     1      12.116   5.406  15.501  1.00  0.00     0.274 HD
HETATM   14  H   UNL     1      10.796   5.341  14.489  1.00  0.00     0.274 HD
HETATM   15  H   UNL     1      11.065   6.695  15.421  1.00  0.00     0.274 HD
ENDBRANCH  11  12
ENDBRANCH  10  11
ENDBRANCH   9  10
ENDBRANCH   4   9
ENDBRANCH   3   4
TORSDOF 6
ENDMDL
MODEL 3
REMARK VINA RESULT:      -4.8      1.198      1.456
REMARK  6 active torsions:
REMARK  status: ('A' for Active; 'I' for Inactive)
REMARK    1  A    between atoms: N_3  and  CA_7 
REMARK    2  A    between atoms: N_4  and  C_8 
REMARK    3  A    between atoms: C_5  and  C_6 
REMARK    4  A    between atoms: C_5  and  CA_7 
REMARK    5  A    between atoms: C_6  and  C_8 
REMARK    6  A    between atoms: CA_7  and  C_9 
ROOT
HETATM    1  O   UNL     1      13.962   5.880   9.068  1.00  0.00    -0.646 OA
HETATM    2  OXT UNL     1      11.941   6.494   8.245  1.00  0.00    -0.646 OA
HETATM    3  C   UNL     1      12.644   6.190   9.200  1.00  0.00     0.204 C 
ENDROOT
BRANCH   3   4
HETATM    4  CA  UNL     1      12.183   6.110  10.644  1.00  0.00     0.283 C 
BRANCH   4   5
HETATM    5  N   UNL     1      11.260   4.982  10.764  1.00  0.00    -0.065 N 
HETATM    6  H   UNL     1      11.789   4.109  10.776  1.00  0.00     0.275 HD
HETATM    7  H   UNL     1      10.620   4.981   9.971  1.00  0.00     0.275 HD
HETATM    8  H   UNL     1      10.728   5.069  11.631  1.00  0.00     0.275 HD
ENDBRANCH   4   5
BRANCH   4   9
HETATM    9  C   UNL     1      13.360   6.019  11.628  1.00  0.00     0.045 C 
BRANCH   9  10
HETATM   10  C   UNL     1      12.997   5.501  13.027  1.00  0.00     0.030 C 
BRANCH  10  11
HETATM   11  C   UNL     1      12.265   6.573  13.834  1.00  0.00     0.230 C 
BRANCH  11  12
HETATM   12  N   UNL     1      11.528   5.963  14.935  1.00  0.00    -0.079 N 
HETATM   13  H   UNL     1      10.646   5.587  14.587  1.00  0.00     0.274 HD
HETATM   14  H   UNL     1      11.339   6.667  15.649  1.00  0.00     0.274 HD
HETATM   15  H   UNL     1      12.083   5.209  15.339  1.00  0.00     0.274 HD
ENDBRANCH  11  12
ENDBRANCH  10  11
ENDBRANCH   9  10
ENDBRANCH   4   9
ENDBRANCH   3   4
TORSDOF 6
ENDMDL
MODEL 4
REMARK VINA RESULT:      -4.7      2.268      2.479
REMARK  6 active torsions:
REMARK  status: ('A' for Active; 'I' for Inactive)
REMARK    1  A    between atoms: N_3  and  CA_7 
REMARK    2  A    between atoms: N_4  and  C_8 
REMARK    3  A    between atoms: C_5  and  C_6 
REMARK    4  A    between atoms: C_5  and  CA_7 
REMARK    5  A    between atoms: C_6  and  C_8 
REMARK    6  A    between atoms: CA_7  and  C_9 
ROOT
HETATM    1  O   UNL     1      12.615   4.266   7.701  1.00  0.00    -0.646 OA
HETATM    2  OXT UNL     1      12.429   6.365   6.865  1.00  0.00    -0.646 OA
HETATM    3  C   UNL     1      12.496   5.615   7.829  1.00  0.00     0.204 C 
ENDROOT
BRANCH   3   4
HETATM    4  CA  UNL     1      12.459   6.045   9.285  1.00  0.00     0.283 C 
BRANCH   4   5
HETATM    5  N   UNL     1      11.536   5.161   9.997  1.00  0.00    -0.065 N 
HETATM    6  H   UNL     1      10.934   4.685   9.324  1.00  0.00     0.275 HD
HETATM    7  H   UNL     1      10.964   5.710  10.637  1.00  0.00     0.275 HD
HETATM    8  H   UNL     1      12.069   4.469  10.525  1.00  0.00     0.275 HD
ENDBRANCH   4   5
BRANCH   4   9
HETATM    9  C   UNL     1      13.857   6.077   9.920  1.00  0.00     0.045 C 
BRANCH   9  10
HETATM   10  C   UNL     1      13.872   6.095  11.455  1.00  0.00     0.030 C 
BRANCH  10  11
HETATM   11  C   UNL     1      15.285   5.858  11.991  1.00  0.00     0.230 C 
BRANCH  11  12
HETATM   12  N   UNL     1      16.241   5.805  10.891  1.00  0.00    -0.079 N 
HETATM   13  H   UNL     1      16.716   4.902  10.896  1.00  0.00     0.274 HD
HETATM   14  H   UNL     1      16.929   6.550  11.003  1.00  0.00     0.274 HD
HETATM   15  H   UNL     1      15.749   5.926  10.006  1.00  0.00     0.274 HD
ENDBRANCH  11  12
ENDBRANCH  10  11
ENDBRANCH   9  10
ENDBRANCH   4   9
ENDBRANCH   3   4
TORSDOF 6
ENDMDL
MODEL 5
REMARK VINA RESULT:      -4.6      2.732      4.140
REMARK  6 active torsions:
REMARK  status: ('A' for Active; 'I' for Inactive)
REMARK    1  A    between atoms: N_3  and  CA_7 
REMARK    2  A    between atoms: N_4  and  C_8 
REMARK    3  A    between atoms: C_5  and  C_6 
REMARK    4  A    between atoms: C_5  and  CA_7 
REMARK    5  A    between atoms: C_6  and  C_8 
REMARK    6  A    between atoms: CA_7  and  C_9 
ROOT
HETATM    1  O   UNL     1      14.052   6.502  12.710  1.00  0.00    -0.646 OA
HETATM    2  OXT UNL     1      11.819   6.568  13.097  1.00  0.00    -0.646 OA
HETATM    3  C   UNL     1      12.761   6.201  12.407  1.00  0.00     0.204 C 
ENDROOT
BRANCH   3   4
HETATM    4  CA  UNL     1      12.654   5.376  11.137  1.00  0.00     0.283 C 
BRANCH   4   5
HETATM    5  N   UNL     1      11.261   4.951  10.988  1.00  0.00    -0.065 N 
HETATM    6  H   UNL     1      10.924   4.575  11.874  1.00  0.00     0.275 HD
HETATM    7  H   UNL     1      11.201   4.232  10.267  1.00  0.00     0.275 HD
HETATM    8  H   UNL     1      10.689   5.752  10.718  1.00  0.00     0.275 HD
ENDBRANCH   4   5
BRANCH   4   9
HETATM    9  C   UNL     1      13.177   6.130   9.904  1.00  0.00     0.045 C 
BRANCH   9  10
HETATM   10  C   UNL     1      13.261   5.294   8.620  1.00  0.00     0.030 C 
BRANCH  10  11
HETATM   11  C   UNL     1      12.483   5.959   7.484  1.00  0.00     0.230 C 
BRANCH  11  12
HETATM   12  N   UNL     1      11.483   6.874   8.022  1.00  0.00    -0.079 N 
HETATM   13  H   UNL     1      11.405   6.739   9.030  1.00  0.00     0.274 HD
HETATM   14  H   UNL     1      10.581   6.688   7.583  1.00  0.00     0.274 HD
HETATM   15  H   UNL     1      11.764   7.836   7.829  1.00  0.00     0.274 HD
ENDBRANCH  11  12
ENDBRANCH  10  11
ENDBRANCH   9  10
ENDBRANCH   4   9
ENDBRANCH   3   4
TORSDOF 6
ENDMDL
MODEL 6
REMARK VINA RESULT:      -4.2      3.386      3.987
REMARK  6 active torsions:
REMARK  status: ('A' for Active; 'I' for Inactive)
REMARK    1  A    between atoms: N_3  and  CA_7 
REMARK    2  A    between atoms: N_4  and  C_8 
REMARK    3  A    between atoms: C_5  and  C_6 
REMARK    4  A    between atoms: C_5  and  CA_7 
REMARK    5  A    between atoms: C_6  and  C_8 
REMARK    6  A    between atoms: CA_7  and  C_9 
ROOT
HETATM    1  O   UNL     1      16.800   7.694   9.729  1.00  0.00    -0.646 OA
HETATM    2  OXT UNL     1      18.083   5.844   9.458  1.00  0.00    -0.646 OA
HETATM    3  C   UNL     1      17.144   6.407  10.005  1.00  0.00     0.204 C 
ENDROOT
BRANCH   3   4
HETATM    4  CA  UNL     1      16.233   5.787  11.049  1.00  0.00     0.283 C 
BRANCH   4   5
HETATM    5  N   UNL     1      16.986   5.670  12.298  1.00  0.00    -0.065 N 
HETATM    6  H   UNL     1      17.097   6.595  12.716  1.00  0.00     0.275 HD
HETATM    7  H   UNL     1      17.905   5.272  12.104  1.00  0.00     0.275 HD
HETATM    8  H   UNL     1      16.481   5.063  12.944  1.00  0.00     0.275 HD
ENDBRANCH   4   5
BRANCH   4   9
HETATM    9  C   UNL     1      14.923   6.572  11.220  1.00  0.00     0.045 C 
BRANCH   9  10
HETATM   10  C   UNL     1      13.736   6.039  10.405  1.00  0.00     0.030 C 
BRANCH  10  11
HETATM   11  C   UNL     1      12.525   5.786  11.303  1.00  0.00     0.230 C 
BRANCH  11  12
HETATM   12  N   UNL     1      11.464   5.127  10.550  1.00  0.00    -0.079 N 
HETATM   13  H   UNL     1      11.874   4.572   9.799  1.00  0.00     0.274 HD
HETATM   14  H   UNL     1      10.843   5.832  10.151  1.00  0.00     0.274 HD
HETATM   15  H   UNL     1      10.933   4.518  11.172  1.00  0.00     0.274 HD
ENDBRANCH  11  12
ENDBRANCH  10  11
ENDBRANCH   9  10
ENDBRANCH   4   9
ENDBRANCH   3   4
TORSDOF 6
ENDMDL
MODEL 7
REMARK VINA RESULT:      -4.1      4.021      5.578
REMARK  6 active torsions:
REMARK  status: ('A' for Active; 'I' for Inactive)
REMARK    1  A    between atoms: N_3  and  CA_7 
REMARK    2  A    between atoms: N_4  and  C_8 
REMARK    3  A    between atoms: C_5  and  C_6 
REMARK    4  A    between atoms: C_5  and  CA_7 
REMARK    5  A    between atoms: C_6  and  C_8 
REMARK    6  A    between atoms: CA_7  and  C_9 
ROOT
HETATM    1  O   UNL     1      14.931   4.804  15.644  1.00  0.00    -0.646 OA
HETATM    2  OXT UNL     1      14.050   6.868  15.965  1.00  0.00    -0.646 OA
HETATM    3  C   UNL     1      13.957   5.742  15.495  1.00  0.00     0.204 C 
ENDROOT
BRANCH   3   4
HETATM    4  CA  UNL     1      12.780   5.215  14.693  1.00  0.00     0.283 C 
BRANCH   4   5
HETATM    5  N   UNL     1      11.588   5.967  15.091  1.00  0.00    -0.065 N 
HETATM    6  H   UNL     1      11.093   5.456  15.822  1.00  0.00     0.275 HD
HETATM    7  H   UNL     1      10.976   6.084  14.283  1.00  0.00     0.275 HD
HETATM    8  H   UNL     1      11.867   6.883  15.443  1.00  0.00     0.275 HD
ENDBRANCH   4   5
BRANCH   4   9
HETATM    9  C   UNL     1      13.034   5.267  13.179  1.00  0.00     0.045 C 
BRANCH   9  10
HETATM   10  C   UNL     1      12.139   6.243  12.404  1.00  0.00     0.030 C 
BRANCH  10  11
HETATM   11  C   UNL     1      12.308   6.060  10.895  1.00  0.00     0.230 C 
BRANCH  11  12
HETATM   12  N   UNL     1      11.368   5.063  10.398  1.00  0.00    -0.079 N 
HETATM   13  H   UNL     1      10.864   4.649  11.181  1.00  0.00     0.274 HD
HETATM   14  H   UNL     1      11.878   4.333   9.900  1.00  0.00     0.274 HD
HETATM   15  H   UNL     1      10.704   5.507   9.763  1.00  0.00     0.274 HD
ENDBRANCH  11  12
ENDBRANCH  10  11
ENDBRANCH   9  10
ENDBRANCH   4   9
ENDBRANCH   3   4
TORSDOF 6
ENDMDL
MODEL 8
REMARK VINA RESULT:      -4.1      2.170      2.803
REMARK  6 active torsions:
REMARK  status: ('A' for Active; 'I' for Inactive)
REMARK    1  A    between atoms: N_3  and  CA_7 
REMARK    2  A    between atoms: N_4  and  C_8 
REMARK    3  A    between atoms: C_5  and  C_6 
REMARK    4  A    between atoms: C_5  and  CA_7 
REMARK    5  A    between atoms: C_6  and  C_8 
REMARK    6  A    between atoms: CA_7  and  C_9 
ROOT
HETATM    1  O   UNL     1      12.201   6.454   9.177  1.00  0.00    -0.646 OA
HETATM    2  OXT UNL     1      14.229   6.054  10.108  1.00  0.00    -0.646 OA
HETATM    3  C   UNL     1      13.010   6.096  10.210  1.00  0.00     0.204 C 
ENDROOT
BRANCH   3   4
HETATM    4  CA  UNL     1      12.219   5.769  11.464  1.00  0.00     0.283 C 
BRANCH   4   5
HETATM    5  N   UNL     1      11.169   4.816  11.102  1.00  0.00    -0.065 N 
HETATM    6  H   UNL     1      11.509   4.201  10.362  1.00  0.00     0.275 HD
HETATM    7  H   UNL     1      10.348   5.324  10.773  1.00  0.00     0.275 HD
HETATM    8  H   UNL     1      10.920   4.259  11.920  1.00  0.00     0.275 HD
ENDBRANCH   4   5
BRANCH   4   9
HETATM    9  C   UNL     1      13.115   5.258  12.603  1.00  0.00     0.045 C 
BRANCH   9  10
HETATM   10  C   UNL     1      13.715   6.352  13.496  1.00  0.00     0.030 C 
BRANCH  10  11
HETATM   11  C   UNL     1      15.198   6.089  13.761  1.00  0.00     0.230 C 
BRANCH  11  12
HETATM   12  N   UNL     1      15.839   5.556  12.565  1.00  0.00    -0.079 N 
HETATM   13  H   UNL     1      15.404   5.961  11.736  1.00  0.00     0.274 HD
HETATM   14  H   UNL     1      15.730   4.542  12.544  1.00  0.00     0.274 HD
HETATM   15  H   UNL     1      16.832   5.791  12.577  1.00  0.00     0.274 HD
ENDBRANCH  11  12
ENDBRANCH  10  11
ENDBRANCH   9  10
ENDBRANCH   4   9
ENDBRANCH   3   4
TORSDOF 6
ENDMDL
MODEL 9
REMARK VINA RESULT:      -4.1      1.990      4.028
REMARK  6 active torsions:
REMARK  status: ('A' for Active; 'I' for Inactive)
REMARK    1  A    between atoms: N_3  and  CA_7 
REMARK    2  A    between atoms: N_4  and  C_8 
REMARK    3  A    between atoms: C_5  and  C_6 
REMARK    4  A    between atoms: C_5  and  CA_7 
REMARK    5  A    between atoms: C_6  and  C_8 
REMARK    6  A    between atoms: CA_7  and  C_9 
ROOT
HETATM    1  O   UNL     1      14.714   6.355  10.201  1.00  0.00    -0.646 OA
HETATM    2  OXT UNL     1      14.497   6.394  12.457  1.00  0.00    -0.646 OA
HETATM    3  C   UNL     1      14.030   6.136  11.356  1.00  0.00     0.204 C 
ENDROOT
BRANCH   3   4
HETATM    4  CA  UNL     1      12.654   5.546  11.098  1.00  0.00     0.283 C 
BRANCH   4   5
HETATM    5  N   UNL     1      11.747   6.041  12.134  1.00  0.00    -0.065 N 
HETATM    6  H   UNL     1      12.172   5.904  13.052  1.00  0.00     0.275 HD
HETATM    7  H   UNL     1      10.867   5.529  12.088  1.00  0.00     0.275 HD
HETATM    8  H   UNL     1      11.571   7.035  11.985  1.00  0.00     0.275 HD
ENDBRANCH   4   5
BRANCH   4   9
HETATM    9  C   UNL     1      12.148   5.843   9.678  1.00  0.00     0.045 C 
BRANCH   9  10
HETATM   10  C   UNL     1      12.252   4.670   8.694  1.00  0.00     0.030 C 
BRANCH  10  11
HETATM   11  C   UNL     1      12.543   5.168   7.278  1.00  0.00     0.230 C 
BRANCH  11  12
HETATM   12  N   UNL     1      13.080   6.524   7.319  1.00  0.00    -0.079 N 
HETATM   13  H   UNL     1      12.312   7.194   7.320  1.00  0.00     0.274 HD
HETATM   14  H   UNL     1      13.667   6.681   6.499  1.00  0.00     0.274 HD
HETATM   15  H   UNL     1      13.638   6.644   8.165  1.00  0.00     0.274 HD
ENDBRANCH  11  12
ENDBRANCH  10  11
ENDBRANCH   9  10
ENDBRANCH   4   9
ENDBRANCH   3   4
TORSDOF 6
ENDMDL
