MODEL 1
REMARK VINA RESULT:      -7.4      0.000      0.000
REMARK  9 active torsions:
REMARK  status: ('A' for Active; 'I' for Inactive)
REMARK    1  A    between atoms: C_3  and  C_8 
REMARK    2  A    between atoms: C_5  and  O_7 
REMARK    3  A    between atoms: C_8  and  C_9 
REMARK    4  A    between atoms: C_9  and  C_10 
REMARK    5  A    between atoms: C_9  and  O_20 
REMARK    6  A    between atoms: C_10  and  C_11 
REMARK    7  A    between atoms: C_12  and  O_19 
REMARK    8  A    between atoms: C_14  and  O_18 
REMARK    9  A    between atoms: C_16  and  O_17 
ROOT
HETATM    1  C   UNL     1     -53.389  49.995  12.161  1.00  0.00     0.003 A 
HETATM    2  C   UNL     1     -53.725  48.702  11.809  1.00  0.00     0.007 A 
HETATM    3  C   UNL     1     -54.050  48.402  10.498  1.00  0.00    -0.053 A 
HETATM    4  C   UNL     1     -54.041  49.395   9.539  1.00  0.00     0.043 A 
HETATM    5  C   UNL     1     -53.704  50.694   9.890  1.00  0.00     0.066 A 
HETATM    6  C   UNL     1     -53.378  50.992  11.205  1.00  0.00     0.036 A 
ENDROOT
BRANCH   3   7
HETATM    7  C   UNL     1     -54.416  46.990  10.117  1.00  0.00     0.070 C 
BRANCH   7   8
HETATM    8  C   UNL     1     -54.024  46.737   8.660  1.00  0.00     0.127 C 
BRANCH   8   9
HETATM    9  C   UNL     1     -52.556  46.313   8.593  1.00  0.00     0.076 C 
BRANCH   9  10
HETATM   10  C   UNL     1     -52.135  46.187   7.151  1.00  0.00     0.011 A 
HETATM   11  C   UNL     1     -51.711  47.307   6.452  1.00  0.00     0.077 A 
HETATM   12  C   UNL     1     -51.324  47.191   5.125  1.00  0.00     0.073 A 
HETATM   13  C   UNL     1     -51.361  45.955   4.498  1.00  0.00     0.071 A 
HETATM   14  C   UNL     1     -51.784  44.835   5.198  1.00  0.00     0.073 A 
HETATM   15  C   UNL     1     -52.166  44.950   6.525  1.00  0.00     0.077 A 
BRANCH  11  16
HETATM   16  O   UNL     1     -51.676  48.518   7.067  1.00  0.00    -0.360 OA
HETATM   17  H   UNL     1     -51.979  49.282   6.616  1.00  0.00     0.217 HD
ENDBRANCH  11  16
BRANCH  13  18
HETATM   18  O   UNL     1     -50.982  45.841   3.198  1.00  0.00    -0.361 OA
HETATM   19  H   UNL     1     -50.901  44.994   2.807  1.00  0.00     0.217 HD
ENDBRANCH  13  18
BRANCH  15  20
HETATM   20  O   UNL     1     -52.582  43.852   7.211  1.00  0.00    -0.360 OA
HETATM   21  H   UNL     1     -52.744  43.050   6.755  1.00  0.00     0.217 HD
ENDBRANCH  15  20
ENDBRANCH   9  10
ENDBRANCH   8   9
BRANCH   8  22
HETATM   22  O   UNL     1     -54.845  45.699   8.120  1.00  0.00    -0.395 OA
HETATM   23  H   UNL     1     -55.495  45.423   8.785  1.00  0.00     0.210 HD
ENDBRANCH   8  22
ENDBRANCH   7   8
ENDBRANCH   3   7
BRANCH   5  24
HETATM   24  O   UNL     1     -53.693  51.673   8.947  1.00  0.00    -0.361 OA
HETATM   25  H   UNL     1     -53.844  51.459   8.047  1.00  0.00     0.217 HD
ENDBRANCH   5  24
TORSDOF 9
ENDMDL
MODEL 2
REMARK VINA RESULT:      -7.4      0.032      1.848
REMARK  9 active torsions:
REMARK  status: ('A' for Active; 'I' for Inactive)
REMARK    1  A    between atoms: C_3  and  C_8 
REMARK    2  A    between atoms: C_5  and  O_7 
REMARK    3  A    between atoms: C_8  and  C_9 
REMARK    4  A    between atoms: C_9  and  C_10 
REMARK    5  A    between atoms: C_9  and  O_20 
REMARK    6  A    between atoms: C_10  and  C_11 
REMARK    7  A    between atoms: C_12  and  O_19 
REMARK    8  A    between atoms: C_14  and  O_18 
REMARK    9  A    between atoms: C_16  and  O_17 
ROOT
HETATM    1  C   UNL     1     -53.387  50.015  12.157  1.00  0.00     0.003 A 
HETATM    2  C   UNL     1     -53.728  48.723  11.803  1.00  0.00     0.007 A 
HETATM    3  C   UNL     1     -54.059  48.427  10.493  1.00  0.00    -0.053 A 
HETATM    4  C   UNL     1     -54.049  49.423   9.536  1.00  0.00     0.043 A 
HETATM    5  C   UNL     1     -53.707  50.720   9.890  1.00  0.00     0.066 A 
HETATM    6  C   UNL     1     -53.375  51.014  11.204  1.00  0.00     0.036 A 
ENDROOT
BRANCH   3   7
HETATM    7  C   UNL     1     -54.430  47.018  10.110  1.00  0.00     0.070 C 
BRANCH   7   8
HETATM    8  C   UNL     1     -54.030  46.762   8.656  1.00  0.00     0.127 C 
BRANCH   8   9
HETATM    9  C   UNL     1     -52.557  46.349   8.597  1.00  0.00     0.076 C 
BRANCH   9  10
HETATM   10  C   UNL     1     -52.129  46.221   7.158  1.00  0.00     0.011 A 
HETATM   11  C   UNL     1     -52.161  44.984   6.531  1.00  0.00     0.077 A 
HETATM   12  C   UNL     1     -51.766  44.867   5.207  1.00  0.00     0.073 A 
HETATM   13  C   UNL     1     -51.339  45.987   4.510  1.00  0.00     0.071 A 
HETATM   14  C   UNL     1     -51.308  47.224   5.136  1.00  0.00     0.073 A 
HETATM   15  C   UNL     1     -51.707  47.342   6.458  1.00  0.00     0.077 A 
BRANCH  11  16
HETATM   16  O   UNL     1     -52.579  43.887   7.216  1.00  0.00    -0.360 OA
HETATM   17  H   UNL     1     -52.962  43.983   8.065  1.00  0.00     0.217 HD
ENDBRANCH  11  16
BRANCH  13  18
HETATM   18  O   UNL     1     -50.951  45.872   3.212  1.00  0.00    -0.361 OA
HETATM   19  H   UNL     1     -50.773  45.027   2.850  1.00  0.00     0.217 HD
ENDBRANCH  13  18
BRANCH  15  20
HETATM   20  O   UNL     1     -51.675  48.554   7.072  1.00  0.00    -0.360 OA
HETATM   21  H   UNL     1     -51.967  49.318   6.615  1.00  0.00     0.217 HD
ENDBRANCH  15  20
ENDBRANCH   9  10
ENDBRANCH   8   9
BRANCH   8  22
HETATM   22  O   UNL     1     -54.839  45.715   8.117  1.00  0.00    -0.395 OA
HETATM   23  H   UNL     1     -55.056  45.080   8.818  1.00  0.00     0.210 HD
ENDBRANCH   8  22
ENDBRANCH   7   8
ENDBRANCH   3   7
BRANCH   5  24
HETATM   24  O   UNL     1     -53.697  51.701   8.949  1.00  0.00    -0.361 OA
HETATM   25  H   UNL     1     -53.991  51.519   8.078  1.00  0.00     0.217 HD
ENDBRANCH   5  24
TORSDOF 9
ENDMDL
MODEL 3
REMARK VINA RESULT:      -7.2      1.322      2.184
REMARK  9 active torsions:
REMARK  status: ('A' for Active; 'I' for Inactive)
REMARK    1  A    between atoms: C_3  and  C_8 
REMARK    2  A    between atoms: C_5  and  O_7 
REMARK    3  A    between atoms: C_8  and  C_9 
REMARK    4  A    between atoms: C_9  and  C_10 
REMARK    5  A    between atoms: C_9  and  O_20 
REMARK    6  A    between atoms: C_10  and  C_11 
REMARK    7  A    between atoms: C_12  and  O_19 
REMARK    8  A    between atoms: C_14  and  O_18 
REMARK    9  A    between atoms: C_16  and  O_17 
ROOT
HETATM    1  C   UNL     1     -53.405  49.854  12.005  1.00  0.00     0.003 A 
HETATM    2  C   UNL     1     -53.325  48.690  11.265  1.00  0.00     0.007 A 
HETATM    3  C   UNL     1     -53.394  48.739   9.884  1.00  0.00    -0.053 A 
HETATM    4  C   UNL     1     -53.544  49.953   9.243  1.00  0.00     0.043 A 
HETATM    5  C   UNL     1     -53.626  51.123   9.985  1.00  0.00     0.066 A 
HETATM    6  C   UNL     1     -53.556  51.070  11.369  1.00  0.00     0.036 A 
ENDROOT
BRANCH   3   7
HETATM    7  C   UNL     1     -53.305  47.468   9.080  1.00  0.00     0.070 C 
BRANCH   7   8
HETATM    8  C   UNL     1     -52.860  47.797   7.653  1.00  0.00     0.127 C 
BRANCH   8   9
HETATM    9  C   UNL     1     -51.439  47.275   7.429  1.00  0.00     0.076 C 
BRANCH   9  10
HETATM   10  C   UNL     1     -51.469  46.155   6.421  1.00  0.00     0.011 A 
HETATM   11  C   UNL     1     -51.549  44.838   6.850  1.00  0.00     0.077 A 
HETATM   12  C   UNL     1     -51.577  43.807   5.923  1.00  0.00     0.073 A 
HETATM   13  C   UNL     1     -51.523  44.093   4.567  1.00  0.00     0.071 A 
HETATM   14  C   UNL     1     -51.445  45.410   4.138  1.00  0.00     0.073 A 
HETATM   15  C   UNL     1     -51.422  46.440   5.065  1.00  0.00     0.077 A 
BRANCH  11  16
HETATM   16  O   UNL     1     -51.600  44.559   8.179  1.00  0.00    -0.360 OA
HETATM   17  H   UNL     1     -52.321  44.862   8.694  1.00  0.00     0.217 HD
ENDBRANCH  11  16
BRANCH  13  18
HETATM   18  O   UNL     1     -51.549  43.083   3.658  1.00  0.00    -0.361 OA
HETATM   19  H   UNL     1     -52.248  43.031   3.036  1.00  0.00     0.217 HD
ENDBRANCH  13  18
BRANCH  15  20
HETATM   20  O   UNL     1     -51.344  47.731   4.645  1.00  0.00    -0.360 OA
HETATM   21  H   UNL     1     -52.027  48.335   4.858  1.00  0.00     0.217 HD
ENDBRANCH  15  20
ENDBRANCH   9  10
ENDBRANCH   8   9
BRANCH   8  22
HETATM   22  O   UNL     1     -53.748  47.176   6.722  1.00  0.00    -0.395 OA
HETATM   23  H   UNL     1     -54.657  47.466   6.899  1.00  0.00     0.210 HD
ENDBRANCH   8  22
ENDBRANCH   7   8
ENDBRANCH   3   7
BRANCH   5  24
HETATM   24  O   UNL     1     -53.773  52.319   9.355  1.00  0.00    -0.361 OA
HETATM   25  H   UNL     1     -53.655  52.377   8.427  1.00  0.00     0.217 HD
ENDBRANCH   5  24
TORSDOF 9
ENDMDL
MODEL 4
REMARK VINA RESULT:      -7.2      1.119      2.408
REMARK  9 active torsions:
REMARK  status: ('A' for Active; 'I' for Inactive)
REMARK    1  A    between atoms: C_3  and  C_8 
REMARK    2  A    between atoms: C_5  and  O_7 
REMARK    3  A    between atoms: C_8  and  C_9 
REMARK    4  A    between atoms: C_9  and  C_10 
REMARK    5  A    between atoms: C_9  and  O_20 
REMARK    6  A    between atoms: C_10  and  C_11 
REMARK    7  A    between atoms: C_12  and  O_19 
REMARK    8  A    between atoms: C_14  and  O_18 
REMARK    9  A    between atoms: C_16  and  O_17 
ROOT
HETATM    1  C   UNL     1     -53.876  50.487  10.029  1.00  0.00     0.003 A 
HETATM    2  C   UNL     1     -54.212  49.201   9.648  1.00  0.00     0.007 A 
HETATM    3  C   UNL     1     -54.059  48.152  10.536  1.00  0.00    -0.053 A 
HETATM    4  C   UNL     1     -53.569  48.387  11.805  1.00  0.00     0.043 A 
HETATM    5  C   UNL     1     -53.231  49.676  12.190  1.00  0.00     0.066 A 
HETATM    6  C   UNL     1     -53.386  50.727  11.297  1.00  0.00     0.036 A 
ENDROOT
BRANCH   3   7
HETATM    7  C   UNL     1     -54.426  46.752  10.117  1.00  0.00     0.070 C 
BRANCH   7   8
HETATM    8  C   UNL     1     -54.028  46.534   8.656  1.00  0.00     0.127 C 
BRANCH   8   9
HETATM    9  C   UNL     1     -52.550  46.143   8.583  1.00  0.00     0.076 C 
BRANCH   9  10
HETATM   10  C   UNL     1     -52.117  46.085   7.141  1.00  0.00     0.011 A 
HETATM   11  C   UNL     1     -52.107  44.872   6.468  1.00  0.00     0.077 A 
HETATM   12  C   UNL     1     -51.709  44.818   5.141  1.00  0.00     0.073 A 
HETATM   13  C   UNL     1     -51.319  45.977   4.487  1.00  0.00     0.071 A 
HETATM   14  C   UNL     1     -51.330  47.190   5.159  1.00  0.00     0.073 A 
HETATM   15  C   UNL     1     -51.733  47.244   6.485  1.00  0.00     0.077 A 
BRANCH  11  16
HETATM   16  O   UNL     1     -52.488  43.736   7.110  1.00  0.00    -0.360 OA
HETATM   17  H   UNL     1     -53.181  43.211   6.762  1.00  0.00     0.217 HD
ENDBRANCH  11  16
BRANCH  13  18
HETATM   18  O   UNL     1     -50.927  45.925   3.187  1.00  0.00    -0.361 OA
HETATM   19  H   UNL     1     -50.162  46.389   2.909  1.00  0.00     0.217 HD
ENDBRANCH  13  18
BRANCH  15  20
HETATM   20  O   UNL     1     -51.743  48.433   7.144  1.00  0.00    -0.360 OA
HETATM   21  H   UNL     1     -51.189  49.132   6.857  1.00  0.00     0.217 HD
ENDBRANCH  15  20
ENDBRANCH   9  10
ENDBRANCH   8   9
BRANCH   8  22
HETATM   22  O   UNL     1     -54.825  45.489   8.096  1.00  0.00    -0.395 OA
HETATM   23  H   UNL     1     -55.049  44.847   8.788  1.00  0.00     0.210 HD
ENDBRANCH   8  22
ENDBRANCH   7   8
ENDBRANCH   3   7
BRANCH   5  24
HETATM   24  O   UNL     1     -52.749  49.910  13.440  1.00  0.00    -0.361 OA
HETATM   25  H   UNL     1     -51.930  49.539  13.703  1.00  0.00     0.217 HD
ENDBRANCH   5  24
TORSDOF 9
ENDMDL
MODEL 5
REMARK VINA RESULT:      -7.2      1.185      1.593
REMARK  9 active torsions:
REMARK  status: ('A' for Active; 'I' for Inactive)
REMARK    1  A    between atoms: C_3  and  C_8 
REMARK    2  A    between atoms: C_5  and  O_7 
REMARK    3  A    between atoms: C_8  and  C_9 
REMARK    4  A    between atoms: C_9  and  C_10 
REMARK    5  A    between atoms: C_9  and  O_20 
REMARK    6  A    between atoms: C_10  and  C_11 
REMARK    7  A    between atoms: C_12  and  O_19 
REMARK    8  A    between atoms: C_14  and  O_18 
REMARK    9  A    between atoms: C_16  and  O_17 
ROOT
HETATM    1  C   UNL     1     -53.878  50.351  10.099  1.00  0.00     0.003 A 
HETATM    2  C   UNL     1     -54.065  49.045   9.689  1.00  0.00     0.007 A 
HETATM    3  C   UNL     1     -53.826  48.001  10.564  1.00  0.00    -0.053 A 
HETATM    4  C   UNL     1     -53.400  48.263  11.851  1.00  0.00     0.043 A 
HETATM    5  C   UNL     1     -53.210  49.573  12.265  1.00  0.00     0.066 A 
HETATM    6  C   UNL     1     -53.451  50.618  11.385  1.00  0.00     0.036 A 
ENDROOT
BRANCH   3   7
HETATM    7  C   UNL     1     -54.032  46.578  10.113  1.00  0.00     0.070 C 
BRANCH   7   8
HETATM    8  C   UNL     1     -53.719  46.465   8.620  1.00  0.00     0.127 C 
BRANCH   8   9
HETATM    9  C   UNL     1     -52.243  46.106   8.434  1.00  0.00     0.076 C 
BRANCH   9  10
HETATM   10  C   UNL     1     -51.919  46.060   6.963  1.00  0.00     0.011 A 
HETATM   11  C   UNL     1     -51.605  47.228   6.284  1.00  0.00     0.077 A 
HETATM   12  C   UNL     1     -51.307  47.186   4.931  1.00  0.00     0.073 A 
HETATM   13  C   UNL     1     -51.324  45.975   4.255  1.00  0.00     0.071 A 
HETATM   14  C   UNL     1     -51.637  44.806   4.934  1.00  0.00     0.073 A 
HETATM   15  C   UNL     1     -51.930  44.849   6.288  1.00  0.00     0.077 A 
BRANCH  11  16
HETATM   16  O   UNL     1     -51.590  48.415   6.947  1.00  0.00    -0.360 OA
HETATM   17  H   UNL     1     -50.787  48.888   7.043  1.00  0.00     0.217 HD
ENDBRANCH  11  16
BRANCH  13  18
HETATM   18  O   UNL     1     -51.032  45.933   2.929  1.00  0.00    -0.361 OA
HETATM   19  H   UNL     1     -51.300  46.635   2.368  1.00  0.00     0.217 HD
ENDBRANCH  13  18
BRANCH  15  20
HETATM   20  O   UNL     1     -52.238  43.703   6.952  1.00  0.00    -0.360 OA
HETATM   21  H   UNL     1     -52.735  43.034   6.526  1.00  0.00     0.217 HD
ENDBRANCH  15  20
ENDBRANCH   9  10
ENDBRANCH   8   9
BRANCH   8  22
HETATM   22  O   UNL     1     -54.534  45.446   8.038  1.00  0.00    -0.395 OA
HETATM   23  H   UNL     1     -54.325  44.591   8.447  1.00  0.00     0.210 HD
ENDBRANCH   8  22
ENDBRANCH   7   8
ENDBRANCH   3   7
BRANCH   5  24
HETATM   24  O   UNL     1     -52.791  49.833  13.532  1.00  0.00    -0.361 OA
HETATM   25  H   UNL     1     -52.534  49.128  14.095  1.00  0.00     0.217 HD
ENDBRANCH   5  24
TORSDOF 9
ENDMDL
MODEL 6
REMARK VINA RESULT:      -6.9      1.703      2.199
REMARK  9 active torsions:
REMARK  status: ('A' for Active; 'I' for Inactive)
REMARK    1  A    between atoms: C_3  and  C_8 
REMARK    2  A    between atoms: C_5  and  O_7 
REMARK    3  A    between atoms: C_8  and  C_9 
REMARK    4  A    between atoms: C_9  and  C_10 
REMARK    5  A    between atoms: C_9  and  O_20 
REMARK    6  A    between atoms: C_10  and  C_11 
REMARK    7  A    between atoms: C_12  and  O_19 
REMARK    8  A    between atoms: C_14  and  O_18 
REMARK    9  A    between atoms: C_16  and  O_17 
ROOT
HETATM    1  C   UNL     1     -53.044  48.239  12.228  1.00  0.00     0.003 A 
HETATM    2  C   UNL     1     -53.073  47.801  10.918  1.00  0.00     0.007 A 
HETATM    3  C   UNL     1     -53.270  48.704   9.889  1.00  0.00    -0.053 A 
HETATM    4  C   UNL     1     -53.439  50.045  10.170  1.00  0.00     0.043 A 
HETATM    5  C   UNL     1     -53.411  50.487  11.484  1.00  0.00     0.066 A 
HETATM    6  C   UNL     1     -53.212  49.579  12.514  1.00  0.00     0.036 A 
ENDROOT
BRANCH   3   7
HETATM    7  C   UNL     1     -53.301  48.224   8.461  1.00  0.00     0.070 C 
BRANCH   7   8
HETATM    8  C   UNL     1     -52.518  46.914   8.346  1.00  0.00     0.127 C 
BRANCH   8   9
HETATM    9  C   UNL     1     -53.430  45.822   7.784  1.00  0.00     0.076 C 
BRANCH   9  10
HETATM   10  C   UNL     1     -52.663  44.989   6.789  1.00  0.00     0.011 A 
HETATM   11  C   UNL     1     -52.611  45.371   5.457  1.00  0.00     0.077 A 
HETATM   12  C   UNL     1     -51.905  44.605   4.542  1.00  0.00     0.073 A 
HETATM   13  C   UNL     1     -51.250  43.456   4.960  1.00  0.00     0.071 A 
HETATM   14  C   UNL     1     -51.300  43.075   6.292  1.00  0.00     0.073 A 
HETATM   15  C   UNL     1     -52.002  43.844   7.207  1.00  0.00     0.077 A 
BRANCH  11  16
HETATM   16  O   UNL     1     -53.254  46.496   5.048  1.00  0.00    -0.360 OA
HETATM   17  H   UNL     1     -53.558  46.568   4.165  1.00  0.00     0.217 HD
ENDBRANCH  11  16
BRANCH  13  18
HETATM   18  O   UNL     1     -50.559  42.704   4.063  1.00  0.00    -0.361 OA
HETATM   19  H   UNL     1     -49.640  42.564   4.181  1.00  0.00     0.217 HD
ENDBRANCH  13  18
BRANCH  15  20
HETATM   20  O   UNL     1     -52.052  43.469   8.513  1.00  0.00    -0.360 OA
HETATM   21  H   UNL     1     -52.810  43.029   8.846  1.00  0.00     0.217 HD
ENDBRANCH  15  20
ENDBRANCH   9  10
ENDBRANCH   8   9
BRANCH   8  22
HETATM   22  O   UNL     1     -51.404  47.101   7.470  1.00  0.00    -0.395 OA
HETATM   23  H   UNL     1     -50.927  46.263   7.370  1.00  0.00     0.210 HD
ENDBRANCH   8  22
ENDBRANCH   7   8
ENDBRANCH   3   7
BRANCH   5  24
HETATM   24  O   UNL     1     -53.576  51.807  11.763  1.00  0.00    -0.361 OA
HETATM   25  H   UNL     1     -54.437  52.177  11.787  1.00  0.00     0.217 HD
ENDBRANCH   5  24
TORSDOF 9
ENDMDL
MODEL 7
REMARK VINA RESULT:      -6.9      3.448      5.043
REMARK  9 active torsions:
REMARK  status: ('A' for Active; 'I' for Inactive)
REMARK    1  A    between atoms: C_3  and  C_8 
REMARK    2  A    between atoms: C_5  and  O_7 
REMARK    3  A    between atoms: C_8  and  C_9 
REMARK    4  A    between atoms: C_9  and  C_10 
REMARK    5  A    between atoms: C_9  and  O_20 
REMARK    6  A    between atoms: C_10  and  C_11 
REMARK    7  A    between atoms: C_12  and  O_19 
REMARK    8  A    between atoms: C_14  and  O_18 
REMARK    9  A    between atoms: C_16  and  O_17 
ROOT
HETATM    1  C   UNL     1     -50.839  46.011  14.340  1.00  0.00     0.003 A 
HETATM    2  C   UNL     1     -51.951  46.677  13.861  1.00  0.00     0.007 A 
HETATM    3  C   UNL     1     -52.189  47.988  14.233  1.00  0.00    -0.053 A 
HETATM    4  C   UNL     1     -51.316  48.633  15.086  1.00  0.00     0.043 A 
HETATM    5  C   UNL     1     -50.199  47.967  15.568  1.00  0.00     0.066 A 
HETATM    6  C   UNL     1     -49.962  46.653  15.192  1.00  0.00     0.036 A 
ENDROOT
BRANCH   3   7
HETATM    7  C   UNL     1     -53.403  48.711  13.709  1.00  0.00     0.070 C 
BRANCH   7   8
HETATM    8  C   UNL     1     -53.114  49.240  12.302  1.00  0.00     0.127 C 
BRANCH   8   9
HETATM    9  C   UNL     1     -54.042  48.552  11.298  1.00  0.00     0.076 C 
BRANCH   9  10
HETATM   10  C   UNL     1     -53.340  48.426   9.971  1.00  0.00     0.011 A 
HETATM   11  C   UNL     1     -53.356  49.483   9.074  1.00  0.00     0.077 A 
HETATM   12  C   UNL     1     -52.710  49.367   7.852  1.00  0.00     0.073 A 
HETATM   13  C   UNL     1     -52.048  48.192   7.528  1.00  0.00     0.071 A 
HETATM   14  C   UNL     1     -52.031  47.135   8.426  1.00  0.00     0.073 A 
HETATM   15  C   UNL     1     -52.673  47.254   9.649  1.00  0.00     0.077 A 
BRANCH  11  16
HETATM   16  O   UNL     1     -54.005  50.634   9.392  1.00  0.00    -0.360 OA
HETATM   17  H   UNL     1     -54.203  50.828  10.287  1.00  0.00     0.217 HD
ENDBRANCH  11  16
BRANCH  13  18
HETATM   18  O   UNL     1     -51.415  48.077   6.331  1.00  0.00    -0.361 OA
HETATM   19  H   UNL     1     -50.682  47.500   6.242  1.00  0.00     0.217 HD
ENDBRANCH  13  18
BRANCH  15  20
HETATM   20  O   UNL     1     -52.657  46.217  10.528  1.00  0.00    -0.360 OA
HETATM   21  H   UNL     1     -51.842  45.907  10.872  1.00  0.00     0.217 HD
ENDBRANCH  15  20
ENDBRANCH   9  10
ENDBRANCH   8   9
BRANCH   8  22
HETATM   22  O   UNL     1     -53.338  50.650  12.269  1.00  0.00    -0.395 OA
HETATM   23  H   UNL     1     -52.488  51.114  12.330  1.00  0.00     0.210 HD
ENDBRANCH   8  22
ENDBRANCH   7   8
ENDBRANCH   3   7
BRANCH   5  24
HETATM   24  O   UNL     1     -49.338  48.601  16.407  1.00  0.00    -0.361 OA
HETATM   25  H   UNL     1     -48.420  48.414  16.366  1.00  0.00     0.217 HD
ENDBRANCH   5  24
TORSDOF 9
ENDMDL
MODEL 8
REMARK VINA RESULT:      -6.9      2.019      3.459
REMARK  9 active torsions:
REMARK  status: ('A' for Active; 'I' for Inactive)
REMARK    1  A    between atoms: C_3  and  C_8 
REMARK    2  A    between atoms: C_5  and  O_7 
REMARK    3  A    between atoms: C_8  and  C_9 
REMARK    4  A    between atoms: C_9  and  C_10 
REMARK    5  A    between atoms: C_9  and  O_20 
REMARK    6  A    between atoms: C_10  and  C_11 
REMARK    7  A    between atoms: C_12  and  O_19 
REMARK    8  A    between atoms: C_14  and  O_18 
REMARK    9  A    between atoms: C_16  and  O_17 
ROOT
HETATM    1  C   UNL     1     -52.238  46.843  12.446  1.00  0.00     0.003 A 
HETATM    2  C   UNL     1     -52.749  47.358  11.270  1.00  0.00     0.007 A 
HETATM    3  C   UNL     1     -53.291  48.630  11.247  1.00  0.00    -0.053 A 
HETATM    4  C   UNL     1     -53.324  49.388  12.401  1.00  0.00     0.043 A 
HETATM    5  C   UNL     1     -52.813  48.873  13.583  1.00  0.00     0.066 A 
HETATM    6  C   UNL     1     -52.269  47.597  13.603  1.00  0.00     0.036 A 
ENDROOT
BRANCH   3   7
HETATM    7  C   UNL     1     -53.847  49.189   9.963  1.00  0.00     0.070 C 
BRANCH   7   8
HETATM    8  C   UNL     1     -53.096  48.582   8.775  1.00  0.00     0.127 C 
BRANCH   8   9
HETATM    9  C   UNL     1     -54.054  47.717   7.954  1.00  0.00     0.076 C 
BRANCH   9  10
HETATM   10  C   UNL     1     -53.368  46.430   7.574  1.00  0.00     0.011 A 
HETATM   11  C   UNL     1     -53.637  45.266   8.278  1.00  0.00     0.077 A 
HETATM   12  C   UNL     1     -53.005  44.082   7.927  1.00  0.00     0.073 A 
HETATM   13  C   UNL     1     -52.104  44.063   6.873  1.00  0.00     0.071 A 
HETATM   14  C   UNL     1     -51.836  45.227   6.169  1.00  0.00     0.073 A 
HETATM   15  C   UNL     1     -52.471  46.409   6.516  1.00  0.00     0.077 A 
BRANCH  11  16
HETATM   16  O   UNL     1     -54.519  45.286   9.311  1.00  0.00    -0.360 OA
HETATM   17  H   UNL     1     -54.690  46.087   9.765  1.00  0.00     0.217 HD
ENDBRANCH  11  16
BRANCH  13  18
HETATM   18  O   UNL     1     -51.484  42.903   6.530  1.00  0.00    -0.361 OA
HETATM   19  H   UNL     1     -51.407  42.663   5.628  1.00  0.00     0.217 HD
ENDBRANCH  13  18
BRANCH  15  20
HETATM   20  O   UNL     1     -52.208  47.550   5.826  1.00  0.00    -0.360 OA
HETATM   21  H   UNL     1     -51.698  47.515   5.041  1.00  0.00     0.217 HD
ENDBRANCH  15  20
ENDBRANCH   9  10
ENDBRANCH   8   9
BRANCH   8  22
HETATM   22  O   UNL     1     -52.579  49.631   7.953  1.00  0.00    -0.395 OA
HETATM   23  H   UNL     1     -52.708  50.484   8.398  1.00  0.00     0.210 HD
ENDBRANCH   8  22
ENDBRANCH   7   8
ENDBRANCH   3   7
BRANCH   5  24
HETATM   24  O   UNL     1     -52.844  49.618  14.720  1.00  0.00    -0.361 OA
HETATM   25  H   UNL     1     -52.136  49.568  15.332  1.00  0.00     0.217 HD
ENDBRANCH   5  24
TORSDOF 9
ENDMDL
MODEL 9
REMARK VINA RESULT:      -6.8      2.099      6.195
REMARK  9 active torsions:
REMARK  status: ('A' for Active; 'I' for Inactive)
REMARK    1  A    between atoms: C_3  and  C_8 
REMARK    2  A    between atoms: C_5  and  O_7 
REMARK    3  A    between atoms: C_8  and  C_9 
REMARK    4  A    between atoms: C_9  and  C_10 
REMARK    5  A    between atoms: C_9  and  O_20 
REMARK    6  A    between atoms: C_10  and  C_11 
REMARK    7  A    between atoms: C_12  and  O_19 
REMARK    8  A    between atoms: C_14  and  O_18 
REMARK    9  A    between atoms: C_16  and  O_17 
ROOT
HETATM    1  C   UNL     1     -51.195  47.393   6.165  1.00  0.00     0.003 A 
HETATM    2  C   UNL     1     -51.117  46.874   7.443  1.00  0.00     0.007 A 
HETATM    3  C   UNL     1     -51.864  45.762   7.787  1.00  0.00    -0.053 A 
HETATM    4  C   UNL     1     -52.690  45.168   6.853  1.00  0.00     0.043 A 
HETATM    5  C   UNL     1     -52.770  45.688   5.569  1.00  0.00     0.066 A 
HETATM    6  C   UNL     1     -52.019  46.802   5.227  1.00  0.00     0.036 A 
ENDROOT
BRANCH   3   7
HETATM    7  C   UNL     1     -51.777  45.198   9.182  1.00  0.00     0.070 C 
BRANCH   7   8
HETATM    8  C   UNL     1     -51.886  46.335  10.200  1.00  0.00     0.127 C 
BRANCH   8   9
HETATM    9  C   UNL     1     -53.345  46.781  10.313  1.00  0.00     0.076 C 
BRANCH   9  10
HETATM   10  C   UNL     1     -53.398  48.261  10.592  1.00  0.00     0.011 A 
HETATM   11  C   UNL     1     -53.634  49.154   9.558  1.00  0.00     0.077 A 
HETATM   12  C   UNL     1     -53.683  50.516   9.815  1.00  0.00     0.073 A 
HETATM   13  C   UNL     1     -53.495  50.985  11.106  1.00  0.00     0.071 A 
HETATM   14  C   UNL     1     -53.260  50.091  12.141  1.00  0.00     0.073 A 
HETATM   15  C   UNL     1     -53.216  48.730  11.884  1.00  0.00     0.077 A 
BRANCH  11  16
HETATM   16  O   UNL     1     -53.818  48.694   8.292  1.00  0.00    -0.360 OA
HETATM   17  H   UNL     1     -53.392  47.907   8.014  1.00  0.00     0.217 HD
ENDBRANCH  11  16
BRANCH  13  18
HETATM   18  O   UNL     1     -53.542  52.319  11.358  1.00  0.00    -0.361 OA
HETATM   19  H   UNL     1     -54.344  52.715  11.638  1.00  0.00     0.217 HD
ENDBRANCH  13  18
BRANCH  15  20
HETATM   20  O   UNL     1     -52.984  47.855  12.899  1.00  0.00    -0.360 OA
HETATM   21  H   UNL     1     -53.262  46.964  12.821  1.00  0.00     0.217 HD
ENDBRANCH  15  20
ENDBRANCH   9  10
ENDBRANCH   8   9
BRANCH   8  22
HETATM   22  O   UNL     1     -51.427  45.879  11.474  1.00  0.00    -0.395 OA
HETATM   23  H   UNL     1     -51.778  46.456  12.170  1.00  0.00     0.210 HD
ENDBRANCH   8  22
ENDBRANCH   7   8
ENDBRANCH   3   7
BRANCH   5  24
HETATM   24  O   UNL     1     -53.581  45.104   4.648  1.00  0.00    -0.361 OA
HETATM   25  H   UNL     1     -53.274  44.965   3.773  1.00  0.00     0.217 HD
ENDBRANCH   5  24
TORSDOF 9
ENDMDL
