MODEL 1
REMARK VINA RESULT:      -8.2      0.000      0.000
REMARK  7 active torsions:
REMARK  status: ('A' for Active; 'I' for Inactive)
REMARK    1  A    between atoms: O_1  and  C_2 
REMARK    2  A    between atoms: C_2  and  C_3 
REMARK    3  A    between atoms: C_2  and  C_8 
REMARK    4  A    between atoms: C_3  and  C_4 
REMARK    5  A    between atoms: C_4  and  C_5 
REMARK    6  A    between atoms: C_8  and  C_9 
REMARK    7  A    between atoms: C_11  and  O_15 
ROOT
HETATM    1  O   UNL     1     -52.580  48.258   8.019  1.00  0.00    -0.395 OA
HETATM    2  H   UNL     1     -53.174  48.546   7.308  1.00  0.00     0.210 HD
ENDROOT
BRANCH   1   3
HETATM    3  C   UNL     1     -53.304  48.195   9.247  1.00  0.00     0.122 C 
BRANCH   3   4
HETATM    4  C   UNL     1     -54.802  48.411   8.982  1.00  0.00     0.042 C 
BRANCH   4   5
HETATM    5  C   UNL     1     -55.345  49.708   9.585  1.00  0.00     0.116 C 
BRANCH   5   6
HETATM    6  C   UNL     1     -54.413  50.892   9.551  1.00  0.00     0.172 C 
HETATM    7  O   UNL     1     -53.811  51.343  10.513  1.00  0.00    -0.648 OA
HETATM    8  O   UNL     1     -54.342  51.520   8.360  1.00  0.00    -0.648 OA
ENDBRANCH   5   6
ENDBRANCH   4   5
ENDBRANCH   3   4
BRANCH   3   9
HETATM    9  C   UNL     1     -53.061  46.832   9.925  1.00  0.00     0.070 C 
BRANCH   9  10
HETATM   10  C   UNL     1     -52.909  45.694   8.938  1.00  0.00    -0.053 A 
HETATM   11  C   UNL     1     -54.037  45.135   8.317  1.00  0.00     0.043 A 
HETATM   12  C   UNL     1     -53.883  44.090   7.407  1.00  0.00     0.066 A 
HETATM   13  C   UNL     1     -52.624  43.587   7.103  1.00  0.00     0.036 A 
HETATM   14  C   UNL     1     -51.499  44.136   7.715  1.00  0.00     0.003 A 
HETATM   15  C   UNL     1     -51.641  45.184   8.627  1.00  0.00     0.007 A 
BRANCH  12  16
HETATM   16  O   UNL     1     -54.957  43.525   6.786  1.00  0.00    -0.361 OA
HETATM   17  H   UNL     1     -55.550  44.060   6.297  1.00  0.00     0.217 HD
ENDBRANCH  12  16
ENDBRANCH   9  10
ENDBRANCH   3   9
ENDBRANCH   1   3
TORSDOF 7
ENDMDL
MODEL 2
REMARK VINA RESULT:      -8.1      2.300      3.720
REMARK  7 active torsions:
REMARK  status: ('A' for Active; 'I' for Inactive)
REMARK    1  A    between atoms: O_1  and  C_2 
REMARK    2  A    between atoms: C_2  and  C_3 
REMARK    3  A    between atoms: C_2  and  C_8 
REMARK    4  A    between atoms: C_3  and  C_4 
REMARK    5  A    between atoms: C_4  and  C_5 
REMARK    6  A    between atoms: C_8  and  C_9 
REMARK    7  A    between atoms: C_11  and  O_15 
ROOT
HETATM    1  O   UNL     1     -52.675  48.303   8.033  1.00  0.00    -0.395 OA
HETATM    2  H   UNL     1     -52.288  47.471   7.721  1.00  0.00     0.210 HD
ENDROOT
BRANCH   1   3
HETATM    3  C   UNL     1     -53.534  48.042   9.142  1.00  0.00     0.122 C 
BRANCH   3   4
HETATM    4  C   UNL     1     -54.942  48.588   8.852  1.00  0.00     0.042 C 
BRANCH   4   5
HETATM    5  C   UNL     1     -55.270  49.866   9.627  1.00  0.00     0.116 C 
BRANCH   5   6
HETATM    6  C   UNL     1     -54.176  50.901   9.685  1.00  0.00     0.172 C 
HETATM    7  O   UNL     1     -53.761  51.431  10.704  1.00  0.00    -0.648 OA
HETATM    8  O   UNL     1     -53.713  51.300   8.484  1.00  0.00    -0.648 OA
ENDBRANCH   5   6
ENDBRANCH   4   5
ENDBRANCH   3   4
BRANCH   3   9
HETATM    9  C   UNL     1     -53.584  46.526   9.416  1.00  0.00     0.070 C 
BRANCH   9  10
HETATM   10  C   UNL     1     -52.913  46.134  10.715  1.00  0.00    -0.053 A 
HETATM   11  C   UNL     1     -52.562  47.112  11.659  1.00  0.00     0.043 A 
HETATM   12  C   UNL     1     -51.948  46.737  12.853  1.00  0.00     0.066 A 
HETATM   13  C   UNL     1     -51.672  45.403  13.126  1.00  0.00     0.036 A 
HETATM   14  C   UNL     1     -52.015  44.426  12.195  1.00  0.00     0.003 A 
HETATM   15  C   UNL     1     -52.632  44.789  10.997  1.00  0.00     0.007 A 
BRANCH  12  16
HETATM   16  O   UNL     1     -51.596  47.662  13.791  1.00  0.00    -0.361 OA
HETATM   17  H   UNL     1     -50.767  47.601  14.222  1.00  0.00     0.217 HD
ENDBRANCH  12  16
ENDBRANCH   9  10
ENDBRANCH   3   9
ENDBRANCH   1   3
TORSDOF 7
ENDMDL
MODEL 3
REMARK VINA RESULT:      -7.7      0.972      1.398
REMARK  7 active torsions:
REMARK  status: ('A' for Active; 'I' for Inactive)
REMARK    1  A    between atoms: O_1  and  C_2 
REMARK    2  A    between atoms: C_2  and  C_3 
REMARK    3  A    between atoms: C_2  and  C_8 
REMARK    4  A    between atoms: C_3  and  C_4 
REMARK    5  A    between atoms: C_4  and  C_5 
REMARK    6  A    between atoms: C_8  and  C_9 
REMARK    7  A    between atoms: C_11  and  O_15 
ROOT
HETATM    1  O   UNL     1     -52.896  48.365   8.115  1.00  0.00    -0.395 OA
HETATM    2  H   UNL     1     -53.266  47.883   7.359  1.00  0.00     0.210 HD
ENDROOT
BRANCH   1   3
HETATM    3  C   UNL     1     -53.062  47.589   9.301  1.00  0.00     0.122 C 
BRANCH   3   4
HETATM    4  C   UNL     1     -53.744  48.436  10.387  1.00  0.00     0.042 C 
BRANCH   4   5
HETATM    5  C   UNL     1     -54.696  49.494   9.825  1.00  0.00     0.116 C 
BRANCH   5   6
HETATM    6  C   UNL     1     -54.108  50.865   9.611  1.00  0.00     0.172 C 
HETATM    7  O   UNL     1     -53.776  51.329   8.532  1.00  0.00    -0.648 OA
HETATM    8  O   UNL     1     -53.871  51.559  10.742  1.00  0.00    -0.648 OA
ENDBRANCH   5   6
ENDBRANCH   4   5
ENDBRANCH   3   4
BRANCH   3   9
HETATM    9  C   UNL     1     -53.896  46.331   8.987  1.00  0.00     0.070 C 
BRANCH   9  10
HETATM   10  C   UNL     1     -53.049  45.134   8.611  1.00  0.00    -0.053 A 
HETATM   11  C   UNL     1     -53.619  44.042   7.938  1.00  0.00     0.043 A 
HETATM   12  C   UNL     1     -52.827  42.947   7.595  1.00  0.00     0.066 A 
HETATM   13  C   UNL     1     -51.475  42.916   7.912  1.00  0.00     0.036 A 
HETATM   14  C   UNL     1     -50.901  43.995   8.581  1.00  0.00     0.003 A 
HETATM   15  C   UNL     1     -51.684  45.098   8.928  1.00  0.00     0.007 A 
BRANCH  12  16
HETATM   16  O   UNL     1     -53.348  41.871   6.940  1.00  0.00    -0.361 OA
HETATM   17  H   UNL     1     -54.206  41.920   6.566  1.00  0.00     0.217 HD
ENDBRANCH  12  16
ENDBRANCH   9  10
ENDBRANCH   3   9
ENDBRANCH   1   3
TORSDOF 7
ENDMDL
MODEL 4
REMARK VINA RESULT:      -7.6      1.783      2.008
REMARK  7 active torsions:
REMARK  status: ('A' for Active; 'I' for Inactive)
REMARK    1  A    between atoms: O_1  and  C_2 
REMARK    2  A    between atoms: C_2  and  C_3 
REMARK    3  A    between atoms: C_2  and  C_8 
REMARK    4  A    between atoms: C_3  and  C_4 
REMARK    5  A    between atoms: C_4  and  C_5 
REMARK    6  A    between atoms: C_8  and  C_9 
REMARK    7  A    between atoms: C_11  and  O_15 
ROOT
HETATM    1  O   UNL     1     -53.275  48.287   8.211  1.00  0.00    -0.395 OA
HETATM    2  H   UNL     1     -52.325  48.198   8.038  1.00  0.00     0.210 HD
ENDROOT
BRANCH   1   3
HETATM    3  C   UNL     1     -53.611  47.572   9.400  1.00  0.00     0.122 C 
BRANCH   3   4
HETATM    4  C   UNL     1     -54.173  48.542  10.452  1.00  0.00     0.042 C 
BRANCH   4   5
HETATM    5  C   UNL     1     -54.890  49.749   9.843  1.00  0.00     0.116 C 
BRANCH   5   6
HETATM    6  C   UNL     1     -54.089  51.025   9.771  1.00  0.00     0.172 C 
HETATM    7  O   UNL     1     -53.831  51.749  10.720  1.00  0.00    -0.648 OA
HETATM    8  O   UNL     1     -53.728  51.395   8.526  1.00  0.00    -0.648 OA
ENDBRANCH   5   6
ENDBRANCH   4   5
ENDBRANCH   3   4
BRANCH   3   9
HETATM    9  C   UNL     1     -54.637  46.470   9.072  1.00  0.00     0.070 C 
BRANCH   9  10
HETATM   10  C   UNL     1     -54.013  45.098   8.929  1.00  0.00    -0.053 A 
HETATM   11  C   UNL     1     -53.536  44.411  10.057  1.00  0.00     0.043 A 
HETATM   12  C   UNL     1     -52.966  43.148   9.912  1.00  0.00     0.066 A 
HETATM   13  C   UNL     1     -52.858  42.552   8.661  1.00  0.00     0.036 A 
HETATM   14  C   UNL     1     -53.326  43.227   7.536  1.00  0.00     0.003 A 
HETATM   15  C   UNL     1     -53.902  44.492   7.669  1.00  0.00     0.007 A 
BRANCH  12  16
HETATM   16  O   UNL     1     -52.495  42.454  10.987  1.00  0.00    -0.361 OA
HETATM   17  H   UNL     1     -52.830  41.600  11.177  1.00  0.00     0.217 HD
ENDBRANCH  12  16
ENDBRANCH   9  10
ENDBRANCH   3   9
ENDBRANCH   1   3
TORSDOF 7
ENDMDL
MODEL 5
REMARK VINA RESULT:      -7.5      2.375      3.743
REMARK  7 active torsions:
REMARK  status: ('A' for Active; 'I' for Inactive)
REMARK    1  A    between atoms: O_1  and  C_2 
REMARK    2  A    between atoms: C_2  and  C_3 
REMARK    3  A    between atoms: C_2  and  C_8 
REMARK    4  A    between atoms: C_3  and  C_4 
REMARK    5  A    between atoms: C_4  and  C_5 
REMARK    6  A    between atoms: C_8  and  C_9 
REMARK    7  A    between atoms: C_11  and  O_15 
ROOT
HETATM    1  O   UNL     1     -52.816  48.373   8.090  1.00  0.00    -0.395 OA
HETATM    2  H   UNL     1     -51.876  48.140   8.134  1.00  0.00     0.210 HD
ENDROOT
BRANCH   1   3
HETATM    3  C   UNL     1     -53.418  48.159   9.367  1.00  0.00     0.122 C 
BRANCH   3   4
HETATM    4  C   UNL     1     -54.936  48.385   9.272  1.00  0.00     0.042 C 
BRANCH   4   5
HETATM    5  C   UNL     1     -55.332  49.863   9.281  1.00  0.00     0.116 C 
BRANCH   5   6
HETATM    6  C   UNL     1     -54.225  50.841   9.580  1.00  0.00     0.172 C 
HETATM    7  O   UNL     1     -53.909  51.230  10.693  1.00  0.00    -0.648 OA
HETATM    8  O   UNL     1     -53.625  51.364   8.491  1.00  0.00    -0.648 OA
ENDBRANCH   5   6
ENDBRANCH   4   5
ENDBRANCH   3   4
BRANCH   3   9
HETATM    9  C   UNL     1     -53.109  46.731   9.856  1.00  0.00     0.070 C 
BRANCH   9  10
HETATM   10  C   UNL     1     -51.819  46.638  10.643  1.00  0.00    -0.053 A 
HETATM   11  C   UNL     1     -50.621  46.276  10.007  1.00  0.00     0.043 A 
HETATM   12  C   UNL     1     -49.440  46.196  10.743  1.00  0.00     0.066 A 
HETATM   13  C   UNL     1     -49.427  46.470  12.105  1.00  0.00     0.036 A 
HETATM   14  C   UNL     1     -50.611  46.829  12.745  1.00  0.00     0.003 A 
HETATM   15  C   UNL     1     -51.800  46.913  12.018  1.00  0.00     0.007 A 
BRANCH  12  16
HETATM   16  O   UNL     1     -48.259  45.849  10.155  1.00  0.00    -0.361 OA
HETATM   17  H   UNL     1     -47.500  45.697  10.683  1.00  0.00     0.217 HD
ENDBRANCH  12  16
ENDBRANCH   9  10
ENDBRANCH   3   9
ENDBRANCH   1   3
TORSDOF 7
ENDMDL
MODEL 6
REMARK VINA RESULT:      -7.4      1.547      6.193
REMARK  7 active torsions:
REMARK  status: ('A' for Active; 'I' for Inactive)
REMARK    1  A    between atoms: O_1  and  C_2 
REMARK    2  A    between atoms: C_2  and  C_3 
REMARK    3  A    between atoms: C_2  and  C_8 
REMARK    4  A    between atoms: C_3  and  C_4 
REMARK    5  A    between atoms: C_4  and  C_5 
REMARK    6  A    between atoms: C_8  and  C_9 
REMARK    7  A    between atoms: C_11  and  O_15 
ROOT
HETATM    1  O   UNL     1     -52.457  45.340   7.112  1.00  0.00    -0.395 OA
HETATM    2  H   UNL     1     -52.152  44.639   6.515  1.00  0.00     0.210 HD
ENDROOT
BRANCH   1   3
HETATM    3  C   UNL     1     -53.407  44.803   8.031  1.00  0.00     0.122 C 
BRANCH   3   4
HETATM    4  C   UNL     1     -53.171  43.293   8.202  1.00  0.00     0.042 C 
BRANCH   4   5
HETATM    5  C   UNL     1     -53.341  42.501   6.904  1.00  0.00     0.116 C 
BRANCH   5   6
HETATM    6  C   UNL     1     -54.485  42.923   6.018  1.00  0.00     0.172 C 
HETATM    7  O   UNL     1     -55.648  42.579   6.157  1.00  0.00    -0.648 OA
HETATM    8  O   UNL     1     -54.128  43.668   4.953  1.00  0.00    -0.648 OA
ENDBRANCH   5   6
ENDBRANCH   4   5
ENDBRANCH   3   4
BRANCH   3   9
HETATM    9  C   UNL     1     -53.291  45.530   9.385  1.00  0.00     0.070 C 
BRANCH   9  10
HETATM   10  C   UNL     1     -54.072  46.825   9.434  1.00  0.00    -0.053 A 
HETATM   11  C   UNL     1     -53.480  47.996   9.934  1.00  0.00     0.043 A 
HETATM   12  C   UNL     1     -54.210  49.183   9.971  1.00  0.00     0.066 A 
HETATM   13  C   UNL     1     -55.523  49.228   9.519  1.00  0.00     0.036 A 
HETATM   14  C   UNL     1     -56.120  48.072   9.022  1.00  0.00     0.003 A 
HETATM   15  C   UNL     1     -55.398  46.877   8.979  1.00  0.00     0.007 A 
BRANCH  12  16
HETATM   16  O   UNL     1     -53.664  50.337  10.449  1.00  0.00    -0.361 OA
HETATM   17  H   UNL     1     -52.919  50.304  11.015  1.00  0.00     0.217 HD
ENDBRANCH  12  16
ENDBRANCH   9  10
ENDBRANCH   3   9
ENDBRANCH   1   3
TORSDOF 7
ENDMDL
MODEL 7
REMARK VINA RESULT:      -7.3      1.502      2.472
REMARK  7 active torsions:
REMARK  status: ('A' for Active; 'I' for Inactive)
REMARK    1  A    between atoms: O_1  and  C_2 
REMARK    2  A    between atoms: C_2  and  C_3 
REMARK    3  A    between atoms: C_2  and  C_8 
REMARK    4  A    between atoms: C_3  and  C_4 
REMARK    5  A    between atoms: C_4  and  C_5 
REMARK    6  A    between atoms: C_8  and  C_9 
REMARK    7  A    between atoms: C_11  and  O_15 
ROOT
HETATM    1  O   UNL     1     -56.926  45.342   8.645  1.00  0.00    -0.395 OA
HETATM    2  H   UNL     1     -57.135  45.381   9.592  1.00  0.00     0.210 HD
ENDROOT
BRANCH   1   3
HETATM    3  C   UNL     1     -55.694  46.020   8.402  1.00  0.00     0.122 C 
BRANCH   3   4
HETATM    4  C   UNL     1     -55.760  47.445   8.975  1.00  0.00     0.042 C 
BRANCH   4   5
HETATM    5  C   UNL     1     -54.473  47.877   9.680  1.00  0.00     0.116 C 
BRANCH   5   6
HETATM    6  C   UNL     1     -53.587  48.825   8.914  1.00  0.00     0.172 C 
HETATM    7  O   UNL     1     -53.678  50.043   8.928  1.00  0.00    -0.648 OA
HETATM    8  O   UNL     1     -52.696  48.229   8.096  1.00  0.00    -0.648 OA
ENDBRANCH   5   6
ENDBRANCH   4   5
ENDBRANCH   3   4
BRANCH   3   9
HETATM    9  C   UNL     1     -54.531  45.231   9.037  1.00  0.00     0.070 C 
BRANCH   9  10
HETATM   10  C   UNL     1     -53.646  44.550   8.016  1.00  0.00    -0.053 A 
HETATM   11  C   UNL     1     -54.180  44.096   6.800  1.00  0.00     0.043 A 
HETATM   12  C   UNL     1     -53.354  43.473   5.866  1.00  0.00     0.066 A 
HETATM   13  C   UNL     1     -52.000  43.291   6.121  1.00  0.00     0.036 A 
HETATM   14  C   UNL     1     -51.461  43.737   7.325  1.00  0.00     0.003 A 
HETATM   15  C   UNL     1     -52.279  44.364   8.267  1.00  0.00     0.007 A 
BRANCH  12  16
HETATM   16  O   UNL     1     -53.841  43.022   4.675  1.00  0.00    -0.361 OA
HETATM   17  H   UNL     1     -53.868  43.594   3.933  1.00  0.00     0.217 HD
ENDBRANCH  12  16
ENDBRANCH   9  10
ENDBRANCH   3   9
ENDBRANCH   1   3
TORSDOF 7
ENDMDL
MODEL 8
REMARK VINA RESULT:      -7.3      1.550      5.825
REMARK  7 active torsions:
REMARK  status: ('A' for Active; 'I' for Inactive)
REMARK    1  A    between atoms: O_1  and  C_2 
REMARK    2  A    between atoms: C_2  and  C_3 
REMARK    3  A    between atoms: C_2  and  C_8 
REMARK    4  A    between atoms: C_3  and  C_4 
REMARK    5  A    between atoms: C_4  and  C_5 
REMARK    6  A    between atoms: C_8  and  C_9 
REMARK    7  A    between atoms: C_11  and  O_15 
ROOT
HETATM    1  O   UNL     1     -50.885  44.790   9.144  1.00  0.00    -0.395 OA
HETATM    2  H   UNL     1     -50.930  43.830   9.012  1.00  0.00     0.210 HD
ENDROOT
BRANCH   1   3
HETATM    3  C   UNL     1     -52.008  45.409   8.517  1.00  0.00     0.122 C 
BRANCH   3   4
HETATM    4  C   UNL     1     -52.328  44.691   7.196  1.00  0.00     0.042 C 
BRANCH   4   5
HETATM    5  C   UNL     1     -53.546  43.769   7.285  1.00  0.00     0.116 C 
BRANCH   5   6
HETATM    6  C   UNL     1     -54.497  43.815   6.117  1.00  0.00     0.172 C 
HETATM    7  O   UNL     1     -54.344  44.489   5.110  1.00  0.00    -0.648 OA
HETATM    8  O   UNL     1     -55.631  43.106   6.283  1.00  0.00    -0.648 OA
ENDBRANCH   5   6
ENDBRANCH   4   5
ENDBRANCH   3   4
BRANCH   3   9
HETATM    9  C   UNL     1     -53.221  45.371   9.466  1.00  0.00     0.070 C 
BRANCH   9  10
HETATM   10  C   UNL     1     -54.026  46.652   9.455  1.00  0.00    -0.053 A 
HETATM   11  C   UNL     1     -53.484  47.838   9.975  1.00  0.00     0.043 A 
HETATM   12  C   UNL     1     -54.235  49.013   9.956  1.00  0.00     0.066 A 
HETATM   13  C   UNL     1     -55.521  49.030   9.428  1.00  0.00     0.036 A 
HETATM   14  C   UNL     1     -56.067  47.858   8.911  1.00  0.00     0.003 A 
HETATM   15  C   UNL     1     -55.324  46.675   8.924  1.00  0.00     0.007 A 
BRANCH  12  16
HETATM   16  O   UNL     1     -53.738  50.182  10.451  1.00  0.00    -0.361 OA
HETATM   17  H   UNL     1     -52.923  50.186  10.913  1.00  0.00     0.217 HD
ENDBRANCH  12  16
ENDBRANCH   9  10
ENDBRANCH   3   9
ENDBRANCH   1   3
TORSDOF 7
ENDMDL
MODEL 9
REMARK VINA RESULT:      -7.1      2.028      5.510
REMARK  7 active torsions:
REMARK  status: ('A' for Active; 'I' for Inactive)
REMARK    1  A    between atoms: O_1  and  C_2 
REMARK    2  A    between atoms: C_2  and  C_3 
REMARK    3  A    between atoms: C_2  and  C_8 
REMARK    4  A    between atoms: C_3  and  C_4 
REMARK    5  A    between atoms: C_4  and  C_5 
REMARK    6  A    between atoms: C_8  and  C_9 
REMARK    7  A    between atoms: C_11  and  O_15 
ROOT
HETATM    1  O   UNL     1     -53.917  43.577   9.058  1.00  0.00    -0.395 OA
HETATM    2  H   UNL     1     -53.869  44.488   9.387  1.00  0.00     0.210 HD
ENDROOT
BRANCH   1   3
HETATM    3  C   UNL     1     -52.646  43.193   8.536  1.00  0.00     0.122 C 
BRANCH   3   4
HETATM    4  C   UNL     1     -52.667  43.269   7.001  1.00  0.00     0.042 C 
BRANCH   4   5
HETATM    5  C   UNL     1     -54.014  42.873   6.392  1.00  0.00     0.116 C 
BRANCH   5   6
HETATM    6  C   UNL     1     -54.954  44.008   6.074  1.00  0.00     0.172 C 
HETATM    7  O   UNL     1     -55.926  44.326   6.742  1.00  0.00    -0.648 OA
HETATM    8  O   UNL     1     -54.709  44.633   4.905  1.00  0.00    -0.648 OA
ENDBRANCH   5   6
ENDBRANCH   4   5
ENDBRANCH   3   4
BRANCH   3   9
HETATM    9  C   UNL     1     -51.548  44.110   9.112  1.00  0.00     0.070 C 
BRANCH   9  10
HETATM   10  C   UNL     1     -52.080  45.438   9.606  1.00  0.00    -0.053 A 
HETATM   11  C   UNL     1     -52.435  46.446   8.696  1.00  0.00     0.043 A 
HETATM   12  C   UNL     1     -52.926  47.664   9.164  1.00  0.00     0.066 A 
HETATM   13  C   UNL     1     -53.071  47.899  10.526  1.00  0.00     0.036 A 
HETATM   14  C   UNL     1     -52.722  46.905  11.437  1.00  0.00     0.003 A 
HETATM   15  C   UNL     1     -52.229  45.681  10.979  1.00  0.00     0.007 A 
BRANCH  12  16
HETATM   16  O   UNL     1     -53.280  48.663   8.307  1.00  0.00    -0.361 OA
HETATM   17  H   UNL     1     -52.689  48.935   7.634  1.00  0.00     0.217 HD
ENDBRANCH  12  16
ENDBRANCH   9  10
ENDBRANCH   3   9
ENDBRANCH   1   3
TORSDOF 7
ENDMDL
