MODEL 1
REMARK VINA RESULT:      -8.2      0.000      0.000
REMARK  7 active torsions:
REMARK  status: ('A' for Active; 'I' for Inactive)
REMARK    1  A    between atoms: O_1  and  C_2 
REMARK    2  A    between atoms: C_2  and  C_3 
REMARK    3  A    between atoms: C_2  and  C_8 
REMARK    4  A    between atoms: C_3  and  C_4 
REMARK    5  A    between atoms: C_4  and  C_5 
REMARK    6  A    between atoms: C_8  and  C_9 
REMARK    7  A    between atoms: C_11  and  O_15 
ROOT
HETATM    1  O   UNL     1     -52.672  48.286   8.063  1.00  0.00    -0.395 OA
HETATM    2  H   UNL     1     -53.061  48.991   7.523  1.00  0.00     0.210 HD
ENDROOT
BRANCH   1   3
HETATM    3  C   UNL     1     -53.382  48.186   9.297  1.00  0.00     0.122 C 
BRANCH   3   4
HETATM    4  C   UNL     1     -54.876  48.462   9.063  1.00  0.00     0.042 C 
BRANCH   4   5
HETATM    5  C   UNL     1     -55.304  49.874   9.470  1.00  0.00     0.116 C 
BRANCH   5   6
HETATM    6  C   UNL     1     -54.219  50.920   9.462  1.00  0.00     0.172 C 
HETATM    7  O   UNL     1     -53.636  51.322   8.468  1.00  0.00    -0.648 OA
HETATM    8  O   UNL     1     -53.841  51.350  10.682  1.00  0.00    -0.648 OA
ENDBRANCH   5   6
ENDBRANCH   4   5
ENDBRANCH   3   4
BRANCH   3   9
HETATM    9  C   UNL     1     -53.175  46.784   9.904  1.00  0.00     0.070 C 
BRANCH   9  10
HETATM   10  C   UNL     1     -53.044  45.696   8.859  1.00  0.00    -0.053 A 
HETATM   11  C   UNL     1     -54.186  45.148   8.255  1.00  0.00     0.043 A 
HETATM   12  C   UNL     1     -54.051  44.149   7.292  1.00  0.00     0.066 A 
HETATM   13  C   UNL     1     -52.797  43.681   6.919  1.00  0.00     0.036 A 
HETATM   14  C   UNL     1     -51.658  44.218   7.515  1.00  0.00     0.003 A 
HETATM   15  C   UNL     1     -51.781  45.221   8.479  1.00  0.00     0.007 A 
BRANCH  12  16
HETATM   16  O   UNL     1     -55.140  43.597   6.685  1.00  0.00    -0.361 OA
HETATM   17  H   UNL     1     -55.097  42.723   6.351  1.00  0.00     0.217 HD
ENDBRANCH  12  16
ENDBRANCH   9  10
ENDBRANCH   3   9
ENDBRANCH   1   3
TORSDOF 7
ENDMDL
MODEL 2
REMARK VINA RESULT:      -8.0      2.278      3.890
REMARK  7 active torsions:
REMARK  status: ('A' for Active; 'I' for Inactive)
REMARK    1  A    between atoms: O_1  and  C_2 
REMARK    2  A    between atoms: C_2  and  C_3 
REMARK    3  A    between atoms: C_2  and  C_8 
REMARK    4  A    between atoms: C_3  and  C_4 
REMARK    5  A    between atoms: C_4  and  C_5 
REMARK    6  A    between atoms: C_8  and  C_9 
REMARK    7  A    between atoms: C_11  and  O_15 
ROOT
HETATM    1  O   UNL     1     -52.802  48.353   8.111  1.00  0.00    -0.395 OA
HETATM    2  H   UNL     1     -52.407  47.566   7.704  1.00  0.00     0.210 HD
ENDROOT
BRANCH   1   3
HETATM    3  C   UNL     1     -53.656  47.956   9.183  1.00  0.00     0.122 C 
BRANCH   3   4
HETATM    4  C   UNL     1     -55.106  48.361   8.874  1.00  0.00     0.042 C 
BRANCH   4   5
HETATM    5  C   UNL     1     -55.521  49.680   9.530  1.00  0.00     0.116 C 
BRANCH   5   6
HETATM    6  C   UNL     1     -54.468  50.757   9.569  1.00  0.00     0.172 C 
HETATM    7  O   UNL     1     -53.832  51.085  10.558  1.00  0.00    -0.648 OA
HETATM    8  O   UNL     1     -54.318  51.441   8.417  1.00  0.00    -0.648 OA
ENDBRANCH   5   6
ENDBRANCH   4   5
ENDBRANCH   3   4
BRANCH   3   9
HETATM    9  C   UNL     1     -53.549  46.433   9.397  1.00  0.00     0.070 C 
BRANCH   9  10
HETATM   10  C   UNL     1     -52.930  46.060  10.727  1.00  0.00    -0.053 A 
HETATM   11  C   UNL     1     -52.589  47.055  11.657  1.00  0.00     0.043 A 
HETATM   12  C   UNL     1     -52.022  46.698  12.880  1.00  0.00     0.066 A 
HETATM   13  C   UNL     1     -51.786  45.366  13.196  1.00  0.00     0.036 A 
HETATM   14  C   UNL     1     -52.120  44.372  12.279  1.00  0.00     0.003 A 
HETATM   15  C   UNL     1     -52.690  44.717  11.052  1.00  0.00     0.007 A 
BRANCH  12  16
HETATM   16  O   UNL     1     -51.680  47.639  13.806  1.00  0.00    -0.361 OA
HETATM   17  H   UNL     1     -52.320  48.253  14.108  1.00  0.00     0.217 HD
ENDBRANCH  12  16
ENDBRANCH   9  10
ENDBRANCH   3   9
ENDBRANCH   1   3
TORSDOF 7
ENDMDL
MODEL 3
REMARK VINA RESULT:      -7.8      1.032      1.234
REMARK  7 active torsions:
REMARK  status: ('A' for Active; 'I' for Inactive)
REMARK    1  A    between atoms: O_1  and  C_2 
REMARK    2  A    between atoms: C_2  and  C_3 
REMARK    3  A    between atoms: C_2  and  C_8 
REMARK    4  A    between atoms: C_3  and  C_4 
REMARK    5  A    between atoms: C_4  and  C_5 
REMARK    6  A    between atoms: C_8  and  C_9 
REMARK    7  A    between atoms: C_11  and  O_15 
ROOT
HETATM    1  O   UNL     1     -52.649  48.267   7.979  1.00  0.00    -0.395 OA
HETATM    2  H   UNL     1     -52.693  47.644   7.238  1.00  0.00     0.210 HD
ENDROOT
BRANCH   1   3
HETATM    3  C   UNL     1     -52.906  47.574   9.200  1.00  0.00     0.122 C 
BRANCH   3   4
HETATM    4  C   UNL     1     -53.585  48.519  10.204  1.00  0.00     0.042 C 
BRANCH   4   5
HETATM    5  C   UNL     1     -54.664  49.402   9.574  1.00  0.00     0.116 C 
BRANCH   5   6
HETATM    6  C   UNL     1     -54.328  50.866   9.448  1.00  0.00     0.172 C 
HETATM    7  O   UNL     1     -54.380  51.514   8.415  1.00  0.00    -0.648 OA
HETATM    8  O   UNL     1     -53.856  51.435  10.575  1.00  0.00    -0.648 OA
ENDBRANCH   5   6
ENDBRANCH   4   5
ENDBRANCH   3   4
BRANCH   3   9
HETATM    9  C   UNL     1     -53.794  46.344   8.923  1.00  0.00     0.070 C 
BRANCH   9  10
HETATM   10  C   UNL     1     -53.000  45.107   8.561  1.00  0.00    -0.053 A 
HETATM   11  C   UNL     1     -53.611  44.043   7.879  1.00  0.00     0.043 A 
HETATM   12  C   UNL     1     -52.869  42.910   7.549  1.00  0.00     0.066 A 
HETATM   13  C   UNL     1     -51.525  42.814   7.888  1.00  0.00     0.036 A 
HETATM   14  C   UNL     1     -50.910  43.864   8.567  1.00  0.00     0.003 A 
HETATM   15  C   UNL     1     -51.643  45.004   8.901  1.00  0.00     0.007 A 
BRANCH  12  16
HETATM   16  O   UNL     1     -53.431  41.861   6.885  1.00  0.00    -0.361 OA
HETATM   17  H   UNL     1     -53.513  41.029   7.308  1.00  0.00     0.217 HD
ENDBRANCH  12  16
ENDBRANCH   9  10
ENDBRANCH   3   9
ENDBRANCH   1   3
TORSDOF 7
ENDMDL
MODEL 4
REMARK VINA RESULT:      -7.8      2.509      4.065
REMARK  7 active torsions:
REMARK  status: ('A' for Active; 'I' for Inactive)
REMARK    1  A    between atoms: O_1  and  C_2 
REMARK    2  A    between atoms: C_2  and  C_3 
REMARK    3  A    between atoms: C_2  and  C_8 
REMARK    4  A    between atoms: C_3  and  C_4 
REMARK    5  A    between atoms: C_4  and  C_5 
REMARK    6  A    between atoms: C_8  and  C_9 
REMARK    7  A    between atoms: C_11  and  O_15 
ROOT
HETATM    1  O   UNL     1     -52.565  48.266   7.990  1.00  0.00    -0.395 OA
HETATM    2  H   UNL     1     -53.178  48.263   7.239  1.00  0.00     0.210 HD
ENDROOT
BRANCH   1   3
HETATM    3  C   UNL     1     -53.303  48.127   9.205  1.00  0.00     0.122 C 
BRANCH   3   4
HETATM    4  C   UNL     1     -54.795  48.388   8.942  1.00  0.00     0.042 C 
BRANCH   4   5
HETATM    5  C   UNL     1     -55.316  49.662   9.611  1.00  0.00     0.116 C 
BRANCH   5   6
HETATM    6  C   UNL     1     -54.397  50.856   9.562  1.00  0.00     0.172 C 
HETATM    7  O   UNL     1     -53.786  51.314  10.514  1.00  0.00    -0.648 OA
HETATM    8  O   UNL     1     -54.350  51.483   8.370  1.00  0.00    -0.648 OA
ENDBRANCH   5   6
ENDBRANCH   4   5
ENDBRANCH   3   4
BRANCH   3   9
HETATM    9  C   UNL     1     -53.090  46.715   9.785  1.00  0.00     0.070 C 
BRANCH   9  10
HETATM   10  C   UNL     1     -51.963  46.650  10.793  1.00  0.00    -0.053 A 
HETATM   11  C   UNL     1     -50.674  46.261  10.397  1.00  0.00     0.043 A 
HETATM   12  C   UNL     1     -49.644  46.207  11.335  1.00  0.00     0.066 A 
HETATM   13  C   UNL     1     -49.873  46.533  12.666  1.00  0.00     0.036 A 
HETATM   14  C   UNL     1     -51.149  46.919  13.069  1.00  0.00     0.003 A 
HETATM   15  C   UNL     1     -52.188  46.978  12.138  1.00  0.00     0.007 A 
BRANCH  12  16
HETATM   16  O   UNL     1     -48.381  45.834  10.982  1.00  0.00    -0.361 OA
HETATM   17  H   UNL     1     -47.918  46.313  10.323  1.00  0.00     0.217 HD
ENDBRANCH  12  16
ENDBRANCH   9  10
ENDBRANCH   3   9
ENDBRANCH   1   3
TORSDOF 7
ENDMDL
MODEL 5
REMARK VINA RESULT:      -7.6      1.761      2.008
REMARK  7 active torsions:
REMARK  status: ('A' for Active; 'I' for Inactive)
REMARK    1  A    between atoms: O_1  and  C_2 
REMARK    2  A    between atoms: C_2  and  C_3 
REMARK    3  A    between atoms: C_2  and  C_8 
REMARK    4  A    between atoms: C_3  and  C_4 
REMARK    5  A    between atoms: C_4  and  C_5 
REMARK    6  A    between atoms: C_8  and  C_9 
REMARK    7  A    between atoms: C_11  and  O_15 
ROOT
HETATM    1  O   UNL     1     -53.088  48.227   8.205  1.00  0.00    -0.395 OA
HETATM    2  H   UNL     1     -52.214  48.624   8.343  1.00  0.00     0.210 HD
ENDROOT
BRANCH   1   3
HETATM    3  C   UNL     1     -53.478  47.517   9.380  1.00  0.00     0.122 C 
BRANCH   3   4
HETATM    4  C   UNL     1     -54.039  48.499  10.421  1.00  0.00     0.042 C 
BRANCH   4   5
HETATM    5  C   UNL     1     -54.849  49.641   9.804  1.00  0.00     0.116 C 
BRANCH   5   6
HETATM    6  C   UNL     1     -54.109  50.937   9.595  1.00  0.00     0.172 C 
HETATM    7  O   UNL     1     -53.692  51.345   8.522  1.00  0.00    -0.648 OA
HETATM    8  O   UNL     1     -53.835  51.620  10.725  1.00  0.00    -0.648 OA
ENDBRANCH   5   6
ENDBRANCH   4   5
ENDBRANCH   3   4
BRANCH   3   9
HETATM    9  C   UNL     1     -54.529  46.448   9.018  1.00  0.00     0.070 C 
BRANCH   9  10
HETATM   10  C   UNL     1     -53.933  45.071   8.821  1.00  0.00    -0.053 A 
HETATM   11  C   UNL     1     -53.333  44.394   9.895  1.00  0.00     0.043 A 
HETATM   12  C   UNL     1     -52.790  43.125   9.701  1.00  0.00     0.066 A 
HETATM   13  C   UNL     1     -52.831  42.514   8.454  1.00  0.00     0.036 A 
HETATM   14  C   UNL     1     -53.423  43.178   7.382  1.00  0.00     0.003 A 
HETATM   15  C   UNL     1     -53.972  44.449   7.565  1.00  0.00     0.007 A 
BRANCH  12  16
HETATM   16  O   UNL     1     -52.202  42.441  10.723  1.00  0.00    -0.361 OA
HETATM   17  H   UNL     1     -52.158  41.505  10.696  1.00  0.00     0.217 HD
ENDBRANCH  12  16
ENDBRANCH   9  10
ENDBRANCH   3   9
ENDBRANCH   1   3
TORSDOF 7
ENDMDL
MODEL 6
REMARK VINA RESULT:      -7.5      1.624      5.855
REMARK  7 active torsions:
REMARK  status: ('A' for Active; 'I' for Inactive)
REMARK    1  A    between atoms: O_1  and  C_2 
REMARK    2  A    between atoms: C_2  and  C_3 
REMARK    3  A    between atoms: C_2  and  C_8 
REMARK    4  A    between atoms: C_3  and  C_4 
REMARK    5  A    between atoms: C_4  and  C_5 
REMARK    6  A    between atoms: C_8  and  C_9 
REMARK    7  A    between atoms: C_11  and  O_15 
ROOT
HETATM    1  O   UNL     1     -51.598  44.895   8.332  1.00  0.00    -0.395 OA
HETATM    2  H   UNL     1     -51.323  45.571   7.693  1.00  0.00     0.210 HD
ENDROOT
BRANCH   1   3
HETATM    3  C   UNL     1     -52.993  44.634   8.177  1.00  0.00     0.122 C 
BRANCH   3   4
HETATM    4  C   UNL     1     -53.210  43.154   7.823  1.00  0.00     0.042 C 
BRANCH   4   5
HETATM    5  C   UNL     1     -53.794  42.944   6.424  1.00  0.00     0.116 C 
BRANCH   5   6
HETATM    6  C   UNL     1     -54.888  43.896   6.015  1.00  0.00     0.172 C 
HETATM    7  O   UNL     1     -55.992  43.965   6.531  1.00  0.00    -0.648 OA
HETATM    8  O   UNL     1     -54.604  44.649   4.934  1.00  0.00    -0.648 OA
ENDBRANCH   5   6
ENDBRANCH   4   5
ENDBRANCH   3   4
BRANCH   3   9
HETATM    9  C   UNL     1     -53.738  45.000   9.476  1.00  0.00     0.070 C 
BRANCH   9  10
HETATM   10  C   UNL     1     -54.354  46.382   9.440  1.00  0.00    -0.053 A 
HETATM   11  C   UNL     1     -53.669  47.481   9.982  1.00  0.00     0.043 A 
HETATM   12  C   UNL     1     -54.246  48.749   9.940  1.00  0.00     0.066 A 
HETATM   13  C   UNL     1     -55.497  48.946   9.368  1.00  0.00     0.036 A 
HETATM   14  C   UNL     1     -56.185  47.862   8.828  1.00  0.00     0.003 A 
HETATM   15  C   UNL     1     -55.616  46.586   8.863  1.00  0.00     0.007 A 
BRANCH  12  16
HETATM   16  O   UNL     1     -53.607  49.837  10.456  1.00  0.00    -0.361 OA
HETATM   17  H   UNL     1     -53.511  49.928  11.383  1.00  0.00     0.217 HD
ENDBRANCH  12  16
ENDBRANCH   9  10
ENDBRANCH   3   9
ENDBRANCH   1   3
TORSDOF 7
ENDMDL
MODEL 7
REMARK VINA RESULT:      -7.3      2.113      3.345
REMARK  7 active torsions:
REMARK  status: ('A' for Active; 'I' for Inactive)
REMARK    1  A    between atoms: O_1  and  C_2 
REMARK    2  A    between atoms: C_2  and  C_3 
REMARK    3  A    between atoms: C_2  and  C_8 
REMARK    4  A    between atoms: C_3  and  C_4 
REMARK    5  A    between atoms: C_4  and  C_5 
REMARK    6  A    between atoms: C_8  and  C_9 
REMARK    7  A    between atoms: C_11  and  O_15 
ROOT
HETATM    1  O   UNL     1     -52.559  48.385   7.953  1.00  0.00    -0.395 OA
HETATM    2  H   UNL     1     -52.060  47.599   7.679  1.00  0.00     0.210 HD
ENDROOT
BRANCH   1   3
HETATM    3  C   UNL     1     -53.336  48.076   9.109  1.00  0.00     0.122 C 
BRANCH   3   4
HETATM    4  C   UNL     1     -54.783  48.553   8.909  1.00  0.00     0.042 C 
BRANCH   4   5
HETATM    5  C   UNL     1     -55.129  49.803   9.721  1.00  0.00     0.116 C 
BRANCH   5   6
HETATM    6  C   UNL     1     -54.181  50.965   9.579  1.00  0.00     0.172 C 
HETATM    7  O   UNL     1     -53.678  51.341   8.532  1.00  0.00    -0.648 OA
HETATM    8  O   UNL     1     -53.825  51.548  10.742  1.00  0.00    -0.648 OA
ENDBRANCH   5   6
ENDBRANCH   4   5
ENDBRANCH   3   4
BRANCH   3   9
HETATM    9  C   UNL     1     -53.294  46.558   9.375  1.00  0.00     0.070 C 
BRANCH   9  10
HETATM   10  C   UNL     1     -51.932  46.069   9.819  1.00  0.00    -0.053 A 
HETATM   11  C   UNL     1     -51.293  46.649  10.926  1.00  0.00     0.043 A 
HETATM   12  C   UNL     1     -50.040  46.188  11.326  1.00  0.00     0.066 A 
HETATM   13  C   UNL     1     -49.407  45.157  10.643  1.00  0.00     0.036 A 
HETATM   14  C   UNL     1     -50.033  44.575   9.543  1.00  0.00     0.003 A 
HETATM   15  C   UNL     1     -51.289  45.028   9.133  1.00  0.00     0.007 A 
BRANCH  12  16
HETATM   16  O   UNL     1     -49.393  46.728  12.398  1.00  0.00    -0.361 OA
HETATM   17  H   UNL     1     -49.326  47.659  12.484  1.00  0.00     0.217 HD
ENDBRANCH  12  16
ENDBRANCH   9  10
ENDBRANCH   3   9
ENDBRANCH   1   3
TORSDOF 7
ENDMDL
MODEL 8
REMARK VINA RESULT:      -7.3      2.191      2.977
REMARK  7 active torsions:
REMARK  status: ('A' for Active; 'I' for Inactive)
REMARK    1  A    between atoms: O_1  and  C_2 
REMARK    2  A    between atoms: C_2  and  C_3 
REMARK    3  A    between atoms: C_2  and  C_8 
REMARK    4  A    between atoms: C_3  and  C_4 
REMARK    5  A    between atoms: C_4  and  C_5 
REMARK    6  A    between atoms: C_8  and  C_9 
REMARK    7  A    between atoms: C_11  and  O_15 
ROOT
HETATM    1  O   UNL     1     -52.698  48.289   8.055  1.00  0.00    -0.395 OA
HETATM    2  H   UNL     1     -53.065  49.027   7.542  1.00  0.00     0.210 HD
ENDROOT
BRANCH   1   3
HETATM    3  C   UNL     1     -53.598  47.951   9.109  1.00  0.00     0.122 C 
BRANCH   3   4
HETATM    4  C   UNL     1     -54.903  48.751   8.959  1.00  0.00     0.042 C 
BRANCH   4   5
HETATM    5  C   UNL     1     -55.049  49.874   9.988  1.00  0.00     0.116 C 
BRANCH   5   6
HETATM    6  C   UNL     1     -54.111  51.043   9.827  1.00  0.00     0.172 C 
HETATM    7  O   UNL     1     -53.753  51.788  10.725  1.00  0.00    -0.648 OA
HETATM    8  O   UNL     1     -53.736  51.294   8.556  1.00  0.00    -0.648 OA
ENDBRANCH   5   6
ENDBRANCH   4   5
ENDBRANCH   3   4
BRANCH   3   9
HETATM    9  C   UNL     1     -53.882  46.436   9.086  1.00  0.00     0.070 C 
BRANCH   9  10
HETATM   10  C   UNL     1     -53.203  45.686  10.212  1.00  0.00    -0.053 A 
HETATM   11  C   UNL     1     -53.154  44.283  10.205  1.00  0.00     0.043 A 
HETATM   12  C   UNL     1     -52.524  43.604  11.247  1.00  0.00     0.066 A 
HETATM   13  C   UNL     1     -51.939  44.297  12.300  1.00  0.00     0.036 A 
HETATM   14  C   UNL     1     -51.984  45.689  12.316  1.00  0.00     0.003 A 
HETATM   15  C   UNL     1     -52.612  46.380  11.277  1.00  0.00     0.007 A 
BRANCH  12  16
HETATM   16  O   UNL     1     -52.457  42.243  11.270  1.00  0.00    -0.361 OA
HETATM   17  H   UNL     1     -52.741  41.773  12.029  1.00  0.00     0.217 HD
ENDBRANCH  12  16
ENDBRANCH   9  10
ENDBRANCH   3   9
ENDBRANCH   1   3
TORSDOF 7
ENDMDL
MODEL 9
REMARK VINA RESULT:      -7.2      1.515      2.253
REMARK  7 active torsions:
REMARK  status: ('A' for Active; 'I' for Inactive)
REMARK    1  A    between atoms: O_1  and  C_2 
REMARK    2  A    between atoms: C_2  and  C_3 
REMARK    3  A    between atoms: C_2  and  C_8 
REMARK    4  A    between atoms: C_3  and  C_4 
REMARK    5  A    between atoms: C_4  and  C_5 
REMARK    6  A    between atoms: C_8  and  C_9 
REMARK    7  A    between atoms: C_11  and  O_15 
ROOT
HETATM    1  O   UNL     1     -56.930  45.324   8.752  1.00  0.00    -0.395 OA
HETATM    2  H   UNL     1     -57.589  45.957   9.076  1.00  0.00     0.210 HD
ENDROOT
BRANCH   1   3
HETATM    3  C   UNL     1     -55.760  46.027   8.335  1.00  0.00     0.122 C 
BRANCH   3   4
HETATM    4  C   UNL     1     -55.803  47.470   8.865  1.00  0.00     0.042 C 
BRANCH   4   5
HETATM    5  C   UNL     1     -54.426  48.020   9.242  1.00  0.00     0.116 C 
BRANCH   5   6
HETATM    6  C   UNL     1     -54.328  49.518   9.377  1.00  0.00     0.172 C 
HETATM    7  O   UNL     1     -54.692  50.326   8.538  1.00  0.00    -0.648 OA
HETATM    8  O   UNL     1     -53.702  49.943  10.493  1.00  0.00    -0.648 OA
ENDBRANCH   5   6
ENDBRANCH   4   5
ENDBRANCH   3   4
BRANCH   3   9
HETATM    9  C   UNL     1     -54.503  45.296   8.847  1.00  0.00     0.070 C 
BRANCH   9  10
HETATM   10  C   UNL     1     -53.756  44.563   7.754  1.00  0.00    -0.053 A 
HETATM   11  C   UNL     1     -54.435  44.087   6.621  1.00  0.00     0.043 A 
HETATM   12  C   UNL     1     -53.734  43.416   5.621  1.00  0.00     0.066 A 
HETATM   13  C   UNL     1     -52.365  43.206   5.726  1.00  0.00     0.036 A 
HETATM   14  C   UNL     1     -51.682  43.673   6.846  1.00  0.00     0.003 A 
HETATM   15  C   UNL     1     -52.373  44.349   7.855  1.00  0.00     0.007 A 
BRANCH  12  16
HETATM   16  O   UNL     1     -54.364  42.943   4.507  1.00  0.00    -0.361 OA
HETATM   17  H   UNL     1     -54.385  43.459   3.726  1.00  0.00     0.217 HD
ENDBRANCH  12  16
ENDBRANCH   9  10
ENDBRANCH   3   9
ENDBRANCH   1   3
TORSDOF 7
ENDMDL
