MODEL 1
REMARK VINA RESULT:     -18.4      0.000      0.000
REMARK  7 active torsions:
REMARK  status: ('A' for Active; 'I' for Inactive)
REMARK    1  A    between atoms: O_1  and  C_2 
REMARK    2  A    between atoms: C_2  and  C_3 
REMARK    3  A    between atoms: C_2  and  C_8 
REMARK    4  A    between atoms: C_3  and  C_4 
REMARK    5  A    between atoms: C_4  and  C_5 
REMARK    6  A    between atoms: C_8  and  C_9 
REMARK    7  A    between atoms: C_11  and  O_15 
ROOT
HETATM    1  O   UNL     1     -55.017  47.406   8.223  1.00  0.00    -0.395 OA
HETATM    2  H   UNL     1     -54.853  47.298   7.273  1.00  0.00     0.210 HD
ENDROOT
BRANCH   1   3
HETATM    3  C   UNL     1     -53.822  47.853   8.864  1.00  0.00     0.122 C 
BRANCH   3   4
HETATM    4  C   UNL     1     -52.596  47.388   8.062  1.00  0.00     0.042 C 
BRANCH   4   5
HETATM    5  C   UNL     1     -52.288  48.276   6.853  1.00  0.00     0.116 C 
BRANCH   5   6
HETATM    6  C   UNL     1     -52.768  47.764   5.520  1.00  0.00     0.172 C 
HETATM    7  O   UNL     1     -53.562  46.850   5.360  1.00  0.00    -0.648 OA
HETATM    8  O   UNL     1     -52.179  48.335   4.451  1.00  0.00    -0.648 OA
ENDBRANCH   5   6
ENDBRANCH   4   5
ENDBRANCH   3   4
BRANCH   3   9
HETATM    9  C   UNL     1     -53.841  49.389   8.989  1.00  0.00     0.070 C 
BRANCH   9  10
HETATM   10  C   UNL     1     -53.753  49.870  10.422  1.00  0.00    -0.053 A 
HETATM   11  C   UNL     1     -53.840  51.239  10.720  1.00  0.00     0.043 A 
HETATM   12  C   UNL     1     -53.761  51.668  12.044  1.00  0.00     0.066 A 
HETATM   13  C   UNL     1     -53.594  50.759  13.081  1.00  0.00     0.036 A 
HETATM   14  C   UNL     1     -53.505  49.398  12.795  1.00  0.00     0.003 A 
HETATM   15  C   UNL     1     -53.585  48.956  11.472  1.00  0.00     0.007 A 
BRANCH  12  16
HETATM   16  O   UNL     1     -53.843  52.990  12.368  1.00  0.00    -0.361 OA
HETATM   17  H   UNL     1     -53.199  53.591  12.052  1.00  0.00     0.217 HD
ENDBRANCH  12  16
ENDBRANCH   9  10
ENDBRANCH   3   9
ENDBRANCH   1   3
TORSDOF 7
ENDMDL
MODEL 2
REMARK VINA RESULT:     -18.3      1.566      2.012
REMARK  7 active torsions:
REMARK  status: ('A' for Active; 'I' for Inactive)
REMARK    1  A    between atoms: O_1  and  C_2 
REMARK    2  A    between atoms: C_2  and  C_3 
REMARK    3  A    between atoms: C_2  and  C_8 
REMARK    4  A    between atoms: C_3  and  C_4 
REMARK    5  A    between atoms: C_4  and  C_5 
REMARK    6  A    between atoms: C_8  and  C_9 
REMARK    7  A    between atoms: C_11  and  O_15 
ROOT
HETATM    1  O   UNL     1     -54.957  47.979   8.246  1.00  0.00    -0.395 OA
HETATM    2  H   UNL     1     -54.773  47.680   7.343  1.00  0.00     0.210 HD
ENDROOT
BRANCH   1   3
HETATM    3  C   UNL     1     -53.766  48.517   8.820  1.00  0.00     0.122 C 
BRANCH   3   4
HETATM    4  C   UNL     1     -52.676  48.637   7.743  1.00  0.00     0.042 C 
BRANCH   4   5
HETATM    5  C   UNL     1     -52.468  47.349   6.944  1.00  0.00     0.116 C 
BRANCH   5   6
HETATM    6  C   UNL     1     -52.910  47.388   5.503  1.00  0.00     0.172 C 
HETATM    7  O   UNL     1     -53.746  46.653   5.003  1.00  0.00    -0.648 OA
HETATM    8  O   UNL     1     -52.235  48.262   4.730  1.00  0.00    -0.648 OA
ENDBRANCH   5   6
ENDBRANCH   4   5
ENDBRANCH   3   4
BRANCH   3   9
HETATM    9  C   UNL     1     -54.066  49.893   9.447  1.00  0.00     0.070 C 
BRANCH   9  10
HETATM   10  C   UNL     1     -53.786  49.943  10.934  1.00  0.00    -0.053 A 
HETATM   11  C   UNL     1     -53.433  48.778  11.632  1.00  0.00     0.043 A 
HETATM   12  C   UNL     1     -53.176  48.838  13.001  1.00  0.00     0.066 A 
HETATM   13  C   UNL     1     -53.264  50.040  13.692  1.00  0.00     0.036 A 
HETATM   14  C   UNL     1     -53.615  51.202  13.008  1.00  0.00     0.003 A 
HETATM   15  C   UNL     1     -53.874  51.154  11.637  1.00  0.00     0.007 A 
BRANCH  12  16
HETATM   16  O   UNL     1     -52.829  47.724  13.708  1.00  0.00    -0.361 OA
HETATM   17  H   UNL     1     -52.722  47.774  14.637  1.00  0.00     0.217 HD
ENDBRANCH  12  16
ENDBRANCH   9  10
ENDBRANCH   3   9
ENDBRANCH   1   3
TORSDOF 7
ENDMDL
MODEL 3
REMARK VINA RESULT:     -18.2      1.070      1.281
REMARK  7 active torsions:
REMARK  status: ('A' for Active; 'I' for Inactive)
REMARK    1  A    between atoms: O_1  and  C_2 
REMARK    2  A    between atoms: C_2  and  C_3 
REMARK    3  A    between atoms: C_2  and  C_8 
REMARK    4  A    between atoms: C_3  and  C_4 
REMARK    5  A    between atoms: C_4  and  C_5 
REMARK    6  A    between atoms: C_8  and  C_9 
REMARK    7  A    between atoms: C_11  and  O_15 
ROOT
HETATM    1  O   UNL     1     -54.995  48.619   7.537  1.00  0.00    -0.395 OA
HETATM    2  H   UNL     1     -55.742  48.157   7.949  1.00  0.00     0.210 HD
ENDROOT
BRANCH   1   3
HETATM    3  C   UNL     1     -53.910  48.685   8.461  1.00  0.00     0.122 C 
BRANCH   3   4
HETATM    4  C   UNL     1     -52.583  48.825   7.698  1.00  0.00     0.042 C 
BRANCH   4   5
HETATM    5  C   UNL     1     -52.225  47.589   6.870  1.00  0.00     0.116 C 
BRANCH   5   6
HETATM    6  C   UNL     1     -52.834  47.518   5.493  1.00  0.00     0.172 C 
HETATM    7  O   UNL     1     -53.761  46.794   5.168  1.00  0.00    -0.648 OA
HETATM    8  O   UNL     1     -52.213  48.271   4.562  1.00  0.00    -0.648 OA
ENDBRANCH   5   6
ENDBRANCH   4   5
ENDBRANCH   3   4
BRANCH   3   9
HETATM    9  C   UNL     1     -54.114  49.873   9.421  1.00  0.00     0.070 C 
BRANCH   9  10
HETATM   10  C   UNL     1     -53.724  49.559  10.849  1.00  0.00    -0.053 A 
HETATM   11  C   UNL     1     -53.753  50.560  11.833  1.00  0.00     0.043 A 
HETATM   12  C   UNL     1     -53.393  50.257  13.145  1.00  0.00     0.066 A 
HETATM   13  C   UNL     1     -53.002  48.972  13.499  1.00  0.00     0.036 A 
HETATM   14  C   UNL     1     -52.969  47.972  12.530  1.00  0.00     0.003 A 
HETATM   15  C   UNL     1     -53.329  48.263  11.213  1.00  0.00     0.007 A 
BRANCH  12  16
HETATM   16  O   UNL     1     -53.412  51.206  14.124  1.00  0.00    -0.361 OA
HETATM   17  H   UNL     1     -52.638  51.697  14.315  1.00  0.00     0.217 HD
ENDBRANCH  12  16
ENDBRANCH   9  10
ENDBRANCH   3   9
ENDBRANCH   1   3
TORSDOF 7
ENDMDL
MODEL 4
REMARK VINA RESULT:     -18.0      3.643      7.001
REMARK  7 active torsions:
REMARK  status: ('A' for Active; 'I' for Inactive)
REMARK    1  A    between atoms: O_1  and  C_2 
REMARK    2  A    between atoms: C_2  and  C_3 
REMARK    3  A    between atoms: C_2  and  C_8 
REMARK    4  A    between atoms: C_3  and  C_4 
REMARK    5  A    between atoms: C_4  and  C_5 
REMARK    6  A    between atoms: C_8  and  C_9 
REMARK    7  A    between atoms: C_11  and  O_15 
ROOT
HETATM    1  O   UNL     1     -54.512  49.721  14.987  1.00  0.00    -0.395 OA
HETATM    2  H   UNL     1     -54.692  50.610  15.330  1.00  0.00     0.210 HD
ENDROOT
BRANCH   1   3
HETATM    3  C   UNL     1     -53.261  49.720  14.300  1.00  0.00     0.122 C 
BRANCH   3   4
HETATM    4  C   UNL     1     -52.212  48.959  15.128  1.00  0.00     0.042 C 
BRANCH   4   5
HETATM    5  C   UNL     1     -52.564  47.486  15.348  1.00  0.00     0.116 C 
BRANCH   5   6
HETATM    6  C   UNL     1     -52.989  47.110  16.744  1.00  0.00     0.172 C 
HETATM    7  O   UNL     1     -52.331  46.441  17.525  1.00  0.00    -0.648 OA
HETATM    8  O   UNL     1     -54.238  47.495  17.075  1.00  0.00    -0.648 OA
ENDBRANCH   5   6
ENDBRANCH   4   5
ENDBRANCH   3   4
BRANCH   3   9
HETATM    9  C   UNL     1     -53.431  49.076  12.910  1.00  0.00     0.070 C 
BRANCH   9  10
HETATM   10  C   UNL     1     -53.641  50.090  11.806  1.00  0.00    -0.053 A 
HETATM   11  C   UNL     1     -53.806  49.671  10.477  1.00  0.00     0.043 A 
HETATM   12  C   UNL     1     -54.001  50.615   9.470  1.00  0.00     0.066 A 
HETATM   13  C   UNL     1     -54.035  51.973   9.761  1.00  0.00     0.036 A 
HETATM   14  C   UNL     1     -53.871  52.398  11.077  1.00  0.00     0.003 A 
HETATM   15  C   UNL     1     -53.676  51.462  12.095  1.00  0.00     0.007 A 
BRANCH  12  16
HETATM   16  O   UNL     1     -54.166  50.242   8.169  1.00  0.00    -0.361 OA
HETATM   17  H   UNL     1     -54.554  49.414   7.964  1.00  0.00     0.217 HD
ENDBRANCH  12  16
ENDBRANCH   9  10
ENDBRANCH   3   9
ENDBRANCH   1   3
TORSDOF 7
ENDMDL
MODEL 5
REMARK VINA RESULT:     -17.9      2.167      3.139
REMARK  7 active torsions:
REMARK  status: ('A' for Active; 'I' for Inactive)
REMARK    1  A    between atoms: O_1  and  C_2 
REMARK    2  A    between atoms: C_2  and  C_3 
REMARK    3  A    between atoms: C_2  and  C_8 
REMARK    4  A    between atoms: C_3  and  C_4 
REMARK    5  A    between atoms: C_4  and  C_5 
REMARK    6  A    between atoms: C_8  and  C_9 
REMARK    7  A    between atoms: C_11  and  O_15 
ROOT
HETATM    1  O   UNL     1     -54.376  48.925   7.774  1.00  0.00    -0.395 OA
HETATM    2  H   UNL     1     -53.926  48.205   7.305  1.00  0.00     0.210 HD
ENDROOT
BRANCH   1   3
HETATM    3  C   UNL     1     -54.691  48.503   9.101  1.00  0.00     0.122 C 
BRANCH   3   4
HETATM    4  C   UNL     1     -55.542  47.224   9.054  1.00  0.00     0.042 C 
BRANCH   4   5
HETATM    5  C   UNL     1     -54.714  45.950   8.874  1.00  0.00     0.116 C 
BRANCH   5   6
HETATM    6  C   UNL     1     -55.462  44.650   9.025  1.00  0.00     0.172 C 
HETATM    7  O   UNL     1     -55.160  43.747   9.789  1.00  0.00    -0.648 OA
HETATM    8  O   UNL     1     -56.487  44.486   8.164  1.00  0.00    -0.648 OA
ENDBRANCH   5   6
ENDBRANCH   4   5
ENDBRANCH   3   4
BRANCH   3   9
HETATM    9  C   UNL     1     -53.391  48.264   9.894  1.00  0.00     0.070 C 
BRANCH   9  10
HETATM   10  C   UNL     1     -53.381  48.950  11.243  1.00  0.00    -0.053 A 
HETATM   11  C   UNL     1     -53.690  50.315  11.350  1.00  0.00     0.043 A 
HETATM   12  C   UNL     1     -53.680  50.935  12.599  1.00  0.00     0.066 A 
HETATM   13  C   UNL     1     -53.368  50.220  13.748  1.00  0.00     0.036 A 
HETATM   14  C   UNL     1     -53.059  48.865  13.652  1.00  0.00     0.003 A 
HETATM   15  C   UNL     1     -53.067  48.233  12.407  1.00  0.00     0.007 A 
BRANCH  12  16
HETATM   16  O   UNL     1     -53.976  52.259  12.737  1.00  0.00    -0.361 OA
HETATM   17  H   UNL     1     -54.713  52.623  12.289  1.00  0.00     0.217 HD
ENDBRANCH  12  16
ENDBRANCH   9  10
ENDBRANCH   3   9
ENDBRANCH   1   3
TORSDOF 7
ENDMDL
MODEL 6
REMARK VINA RESULT:     -17.9      1.513      1.981
REMARK  7 active torsions:
REMARK  status: ('A' for Active; 'I' for Inactive)
REMARK    1  A    between atoms: O_1  and  C_2 
REMARK    2  A    between atoms: C_2  and  C_3 
REMARK    3  A    between atoms: C_2  and  C_8 
REMARK    4  A    between atoms: C_3  and  C_4 
REMARK    5  A    between atoms: C_4  and  C_5 
REMARK    6  A    between atoms: C_8  and  C_9 
REMARK    7  A    between atoms: C_11  and  O_15 
ROOT
HETATM    1  O   UNL     1     -52.073  48.297   8.274  1.00  0.00    -0.395 OA
HETATM    2  H   UNL     1     -51.581  48.389   9.105  1.00  0.00     0.210 HD
ENDROOT
BRANCH   1   3
HETATM    3  C   UNL     1     -53.453  48.579   8.504  1.00  0.00     0.122 C 
BRANCH   3   4
HETATM    4  C   UNL     1     -54.322  47.747   7.548  1.00  0.00     0.042 C 
BRANCH   4   5
HETATM    5  C   UNL     1     -53.569  46.585   6.897  1.00  0.00     0.116 C 
BRANCH   5   6
HETATM    6  C   UNL     1     -53.154  46.788   5.463  1.00  0.00     0.172 C 
HETATM    7  O   UNL     1     -53.200  45.937   4.588  1.00  0.00    -0.648 OA
HETATM    8  O   UNL     1     -52.616  47.995   5.197  1.00  0.00    -0.648 OA
ENDBRANCH   5   6
ENDBRANCH   4   5
ENDBRANCH   3   4
BRANCH   3   9
HETATM    9  C   UNL     1     -53.809  48.271   9.972  1.00  0.00     0.070 C 
BRANCH   9  10
HETATM   10  C   UNL     1     -53.783  49.496  10.861  1.00  0.00    -0.053 A 
HETATM   11  C   UNL     1     -53.604  49.367  12.247  1.00  0.00     0.043 A 
HETATM   12  C   UNL     1     -53.578  50.503  13.054  1.00  0.00     0.066 A 
HETATM   13  C   UNL     1     -53.729  51.771  12.506  1.00  0.00     0.036 A 
HETATM   14  C   UNL     1     -53.908  51.910  11.132  1.00  0.00     0.003 A 
HETATM   15  C   UNL     1     -53.934  50.778  10.313  1.00  0.00     0.007 A 
BRANCH  12  16
HETATM   16  O   UNL     1     -53.405  50.413  14.403  1.00  0.00    -0.361 OA
HETATM   17  H   UNL     1     -52.665  50.820  14.809  1.00  0.00     0.217 HD
ENDBRANCH  12  16
ENDBRANCH   9  10
ENDBRANCH   3   9
ENDBRANCH   1   3
TORSDOF 7
ENDMDL
MODEL 7
REMARK VINA RESULT:     -17.5      3.163      6.403
REMARK  7 active torsions:
REMARK  status: ('A' for Active; 'I' for Inactive)
REMARK    1  A    between atoms: O_1  and  C_2 
REMARK    2  A    between atoms: C_2  and  C_3 
REMARK    3  A    between atoms: C_2  and  C_8 
REMARK    4  A    between atoms: C_3  and  C_4 
REMARK    5  A    between atoms: C_4  and  C_5 
REMARK    6  A    between atoms: C_8  and  C_9 
REMARK    7  A    between atoms: C_11  and  O_15 
ROOT
HETATM    1  O   UNL     1     -54.412  49.744  14.892  1.00  0.00    -0.395 OA
HETATM    2  H   UNL     1     -54.558  50.524  15.450  1.00  0.00     0.210 HD
ENDROOT
BRANCH   1   3
HETATM    3  C   UNL     1     -53.311  49.985  14.016  1.00  0.00     0.122 C 
BRANCH   3   4
HETATM    4  C   UNL     1     -52.931  48.686  13.287  1.00  0.00     0.042 C 
BRANCH   4   5
HETATM    5  C   UNL     1     -52.314  47.631  14.207  1.00  0.00     0.116 C 
BRANCH   5   6
HETATM    6  C   UNL     1     -52.256  47.984  15.671  1.00  0.00     0.172 C 
HETATM    7  O   UNL     1     -51.311  48.519  16.229  1.00  0.00    -0.648 OA
HETATM    8  O   UNL     1     -53.320  47.578  16.392  1.00  0.00    -0.648 OA
ENDBRANCH   5   6
ENDBRANCH   4   5
ENDBRANCH   3   4
BRANCH   3   9
HETATM    9  C   UNL     1     -53.681  51.089  13.006  1.00  0.00     0.070 C 
BRANCH   9  10
HETATM   10  C   UNL     1     -53.804  50.580  11.586  1.00  0.00    -0.053 A 
HETATM   11  C   UNL     1     -53.883  51.479  10.511  1.00  0.00     0.043 A 
HETATM   12  C   UNL     1     -53.993  50.997   9.208  1.00  0.00     0.066 A 
HETATM   13  C   UNL     1     -54.028  49.632   8.952  1.00  0.00     0.036 A 
HETATM   14  C   UNL     1     -53.952  48.732  10.012  1.00  0.00     0.003 A 
HETATM   15  C   UNL     1     -53.840  49.203  11.322  1.00  0.00     0.007 A 
BRANCH  12  16
HETATM   16  O   UNL     1     -54.070  51.844   8.142  1.00  0.00    -0.361 OA
HETATM   17  H   UNL     1     -53.506  51.721   7.405  1.00  0.00     0.217 HD
ENDBRANCH  12  16
ENDBRANCH   9  10
ENDBRANCH   3   9
ENDBRANCH   1   3
TORSDOF 7
ENDMDL
MODEL 8
REMARK VINA RESULT:     -17.5      2.668      3.781
REMARK  7 active torsions:
REMARK  status: ('A' for Active; 'I' for Inactive)
REMARK    1  A    between atoms: O_1  and  C_2 
REMARK    2  A    between atoms: C_2  and  C_3 
REMARK    3  A    between atoms: C_2  and  C_8 
REMARK    4  A    between atoms: C_3  and  C_4 
REMARK    5  A    between atoms: C_4  and  C_5 
REMARK    6  A    between atoms: C_8  and  C_9 
REMARK    7  A    between atoms: C_11  and  O_15 
ROOT
HETATM    1  O   UNL     1     -54.296  46.950   7.366  1.00  0.00    -0.395 OA
HETATM    2  H   UNL     1     -53.454  46.505   7.544  1.00  0.00     0.210 HD
ENDROOT
BRANCH   1   3
HETATM    3  C   UNL     1     -54.909  47.318   8.601  1.00  0.00     0.122 C 
BRANCH   3   4
HETATM    4  C   UNL     1     -55.892  46.221   9.043  1.00  0.00     0.042 C 
BRANCH   4   5
HETATM    5  C   UNL     1     -55.536  44.834   8.504  1.00  0.00     0.116 C 
BRANCH   5   6
HETATM    6  C   UNL     1     -56.571  43.759   8.714  1.00  0.00     0.172 C 
HETATM    7  O   UNL     1     -56.852  43.252   9.788  1.00  0.00    -0.648 OA
HETATM    8  O   UNL     1     -57.141  43.295   7.583  1.00  0.00    -0.648 OA
ENDBRANCH   5   6
ENDBRANCH   4   5
ENDBRANCH   3   4
BRANCH   3   9
HETATM    9  C   UNL     1     -53.826  47.543   9.674  1.00  0.00     0.070 C 
BRANCH   9  10
HETATM   10  C   UNL     1     -53.827  48.949  10.235  1.00  0.00    -0.053 A 
HETATM   11  C   UNL     1     -53.972  50.056   9.383  1.00  0.00     0.043 A 
HETATM   12  C   UNL     1     -53.975  51.345   9.913  1.00  0.00     0.066 A 
HETATM   13  C   UNL     1     -53.833  51.556  11.279  1.00  0.00     0.036 A 
HETATM   14  C   UNL     1     -53.687  50.465  12.132  1.00  0.00     0.003 A 
HETATM   15  C   UNL     1     -53.685  49.168  11.613  1.00  0.00     0.007 A 
BRANCH  12  16
HETATM   16  O   UNL     1     -54.115  52.441   9.114  1.00  0.00    -0.361 OA
HETATM   17  H   UNL     1     -54.534  52.362   8.280  1.00  0.00     0.217 HD
ENDBRANCH  12  16
ENDBRANCH   9  10
ENDBRANCH   3   9
ENDBRANCH   1   3
TORSDOF 7
ENDMDL
MODEL 9
REMARK VINA RESULT:     -17.4      2.263      3.617
REMARK  7 active torsions:
REMARK  status: ('A' for Active; 'I' for Inactive)
REMARK    1  A    between atoms: O_1  and  C_2 
REMARK    2  A    between atoms: C_2  and  C_3 
REMARK    3  A    between atoms: C_2  and  C_8 
REMARK    4  A    between atoms: C_3  and  C_4 
REMARK    5  A    between atoms: C_4  and  C_5 
REMARK    6  A    between atoms: C_8  and  C_9 
REMARK    7  A    between atoms: C_11  and  O_15 
ROOT
HETATM    1  O   UNL     1     -54.286  48.153   7.641  1.00  0.00    -0.395 OA
HETATM    2  H   UNL     1     -54.320  49.076   7.344  1.00  0.00     0.210 HD
ENDROOT
BRANCH   1   3
HETATM    3  C   UNL     1     -54.930  48.039   8.910  1.00  0.00     0.122 C 
BRANCH   3   4
HETATM    4  C   UNL     1     -55.759  46.745   8.958  1.00  0.00     0.042 C 
BRANCH   4   5
HETATM    5  C   UNL     1     -54.961  45.497   8.577  1.00  0.00     0.116 C 
BRANCH   5   6
HETATM    6  C   UNL     1     -55.276  44.248   9.359  1.00  0.00     0.172 C 
HETATM    7  O   UNL     1     -54.566  43.760  10.224  1.00  0.00    -0.648 OA
HETATM    8  O   UNL     1     -56.399  43.609   8.973  1.00  0.00    -0.648 OA
ENDBRANCH   5   6
ENDBRANCH   4   5
ENDBRANCH   3   4
BRANCH   3   9
HETATM    9  C   UNL     1     -53.874  48.052  10.033  1.00  0.00     0.070 C 
BRANCH   9  10
HETATM   10  C   UNL     1     -53.826  49.362  10.789  1.00  0.00    -0.053 A 
HETATM   11  C   UNL     1     -53.626  49.376  12.178  1.00  0.00     0.043 A 
HETATM   12  C   UNL     1     -53.581  50.589  12.862  1.00  0.00     0.066 A 
HETATM   13  C   UNL     1     -53.734  51.795  12.189  1.00  0.00     0.036 A 
HETATM   14  C   UNL     1     -53.934  51.792  10.810  1.00  0.00     0.003 A 
HETATM   15  C   UNL     1     -53.980  50.582  10.114  1.00  0.00     0.007 A 
BRANCH  12  16
HETATM   16  O   UNL     1     -53.387  50.638  14.211  1.00  0.00    -0.361 OA
HETATM   17  H   UNL     1     -53.077  51.425  14.612  1.00  0.00     0.217 HD
ENDBRANCH  12  16
ENDBRANCH   9  10
ENDBRANCH   3   9
ENDBRANCH   1   3
TORSDOF 7
ENDMDL
