MODEL 1
REMARK VINA RESULT:      -7.8      0.000      0.000
REMARK  7 active torsions:
REMARK  status: ('A' for Active; 'I' for Inactive)
REMARK    1  A    between atoms: O_1  and  C_2 
REMARK    2  A    between atoms: C_2  and  C_3 
REMARK    3  A    between atoms: C_2  and  C_8 
REMARK    4  A    between atoms: C_3  and  C_4 
REMARK    5  A    between atoms: C_4  and  C_5 
REMARK    6  A    between atoms: C_8  and  C_9 
REMARK    7  A    between atoms: C_11  and  O_15 
ROOT
HETATM    1  O   UNL     1     -52.416  48.417   7.894  1.00  0.00    -0.395 OA
HETATM    2  H   UNL     1     -53.045  48.520   7.164  1.00  0.00     0.210 HD
ENDROOT
BRANCH   1   3
HETATM    3  C   UNL     1     -53.119  48.036   9.077  1.00  0.00     0.122 C 
BRANCH   3   4
HETATM    4  C   UNL     1     -54.583  48.493   8.982  1.00  0.00     0.042 C 
BRANCH   4   5
HETATM    5  C   UNL     1     -54.908  49.683   9.888  1.00  0.00     0.116 C 
BRANCH   5   6
HETATM    6  C   UNL     1     -54.127  50.945   9.624  1.00  0.00     0.172 C 
HETATM    7  O   UNL     1     -53.734  51.315   8.529  1.00  0.00    -0.648 OA
HETATM    8  O   UNL     1     -53.787  51.639  10.729  1.00  0.00    -0.648 OA
ENDBRANCH   5   6
ENDBRANCH   4   5
ENDBRANCH   3   4
BRANCH   3   9
HETATM    9  C   UNL     1     -53.035  46.508   9.264  1.00  0.00     0.070 C 
BRANCH   9  10
HETATM   10  C   UNL     1     -52.667  46.101  10.674  1.00  0.00    -0.053 A 
HETATM   11  C   UNL     1     -52.601  47.059  11.698  1.00  0.00     0.043 A 
HETATM   12  C   UNL     1     -52.263  46.670  12.994  1.00  0.00     0.066 A 
HETATM   13  C   UNL     1     -51.988  45.341  13.291  1.00  0.00     0.036 A 
HETATM   14  C   UNL     1     -52.050  44.383  12.282  1.00  0.00     0.003 A 
HETATM   15  C   UNL     1     -52.388  44.761  10.980  1.00  0.00     0.007 A 
BRANCH  12  16
HETATM   16  O   UNL     1     -52.192  47.575  14.011  1.00  0.00    -0.361 OA
HETATM   17  H   UNL     1     -51.357  47.858  14.328  1.00  0.00     0.217 HD
ENDBRANCH  12  16
ENDBRANCH   9  10
ENDBRANCH   3   9
ENDBRANCH   1   3
TORSDOF 7
ENDMDL
MODEL 2
REMARK VINA RESULT:      -7.8      2.252      3.894
REMARK  7 active torsions:
REMARK  status: ('A' for Active; 'I' for Inactive)
REMARK    1  A    between atoms: O_1  and  C_2 
REMARK    2  A    between atoms: C_2  and  C_3 
REMARK    3  A    between atoms: C_2  and  C_8 
REMARK    4  A    between atoms: C_3  and  C_4 
REMARK    5  A    between atoms: C_4  and  C_5 
REMARK    6  A    between atoms: C_8  and  C_9 
REMARK    7  A    between atoms: C_11  and  O_15 
ROOT
HETATM    1  O   UNL     1     -52.929  48.284   8.145  1.00  0.00    -0.395 OA
HETATM    2  H   UNL     1     -52.026  47.934   8.096  1.00  0.00     0.210 HD
ENDROOT
BRANCH   1   3
HETATM    3  C   UNL     1     -53.421  48.142   9.477  1.00  0.00     0.122 C 
BRANCH   3   4
HETATM    4  C   UNL     1     -54.935  48.410   9.505  1.00  0.00     0.042 C 
BRANCH   4   5
HETATM    5  C   UNL     1     -55.294  49.886   9.324  1.00  0.00     0.116 C 
BRANCH   5   6
HETATM    6  C   UNL     1     -54.186  50.873   9.592  1.00  0.00     0.172 C 
HETATM    7  O   UNL     1     -53.877  51.302  10.692  1.00  0.00    -0.648 OA
HETATM    8  O   UNL     1     -53.579  51.353   8.489  1.00  0.00    -0.648 OA
ENDBRANCH   5   6
ENDBRANCH   4   5
ENDBRANCH   3   4
BRANCH   3   9
HETATM    9  C   UNL     1     -53.109  46.726  10.000  1.00  0.00     0.070 C 
BRANCH   9  10
HETATM   10  C   UNL     1     -53.032  45.689   8.900  1.00  0.00    -0.053 A 
HETATM   11  C   UNL     1     -54.204  45.181   8.317  1.00  0.00     0.043 A 
HETATM   12  C   UNL     1     -54.120  44.228   7.303  1.00  0.00     0.066 A 
HETATM   13  C   UNL     1     -52.887  43.767   6.858  1.00  0.00     0.036 A 
HETATM   14  C   UNL     1     -51.719  44.264   7.431  1.00  0.00     0.003 A 
HETATM   15  C   UNL     1     -51.791  45.220   8.447  1.00  0.00     0.007 A 
BRANCH  12  16
HETATM   16  O   UNL     1     -55.238  43.717   6.715  1.00  0.00    -0.361 OA
HETATM   17  H   UNL     1     -55.164  43.205   5.934  1.00  0.00     0.217 HD
ENDBRANCH  12  16
ENDBRANCH   9  10
ENDBRANCH   3   9
ENDBRANCH   1   3
TORSDOF 7
ENDMDL
MODEL 3
REMARK VINA RESULT:      -7.5      2.284      3.389
REMARK  7 active torsions:
REMARK  status: ('A' for Active; 'I' for Inactive)
REMARK    1  A    between atoms: O_1  and  C_2 
REMARK    2  A    between atoms: C_2  and  C_3 
REMARK    3  A    between atoms: C_2  and  C_8 
REMARK    4  A    between atoms: C_3  and  C_4 
REMARK    5  A    between atoms: C_4  and  C_5 
REMARK    6  A    between atoms: C_8  and  C_9 
REMARK    7  A    between atoms: C_11  and  O_15 
ROOT
HETATM    1  O   UNL     1     -53.084  48.330   8.246  1.00  0.00    -0.395 OA
HETATM    2  H   UNL     1     -52.310  47.855   7.907  1.00  0.00     0.210 HD
ENDROOT
BRANCH   1   3
HETATM    3  C   UNL     1     -53.565  47.677   9.421  1.00  0.00     0.122 C 
BRANCH   3   4
HETATM    4  C   UNL     1     -54.256  48.699  10.339  1.00  0.00     0.042 C 
BRANCH   4   5
HETATM    5  C   UNL     1     -55.087  49.735   9.579  1.00  0.00     0.116 C 
BRANCH   5   6
HETATM    6  C   UNL     1     -54.449  51.088   9.398  1.00  0.00     0.172 C 
HETATM    7  O   UNL     1     -54.419  51.720   8.354  1.00  0.00    -0.648 OA
HETATM    8  O   UNL     1     -53.800  51.555  10.484  1.00  0.00    -0.648 OA
ENDBRANCH   5   6
ENDBRANCH   4   5
ENDBRANCH   3   4
BRANCH   3   9
HETATM    9  C   UNL     1     -54.540  46.550   9.028  1.00  0.00     0.070 C 
BRANCH   9  10
HETATM   10  C   UNL     1     -53.946  45.167   9.189  1.00  0.00    -0.053 A 
HETATM   11  C   UNL     1     -53.579  44.414   8.062  1.00  0.00     0.043 A 
HETATM   12  C   UNL     1     -53.031  43.143   8.223  1.00  0.00     0.066 A 
HETATM   13  C   UNL     1     -52.840  42.603   9.489  1.00  0.00     0.036 A 
HETATM   14  C   UNL     1     -53.202  43.341  10.613  1.00  0.00     0.003 A 
HETATM   15  C   UNL     1     -53.751  44.617  10.464  1.00  0.00     0.007 A 
BRANCH  12  16
HETATM   16  O   UNL     1     -52.663  42.387   7.150  1.00  0.00    -0.361 OA
HETATM   17  H   UNL     1     -52.088  42.742   6.501  1.00  0.00     0.217 HD
ENDBRANCH  12  16
ENDBRANCH   9  10
ENDBRANCH   3   9
ENDBRANCH   1   3
TORSDOF 7
ENDMDL
MODEL 4
REMARK VINA RESULT:      -7.4      1.667      2.088
REMARK  7 active torsions:
REMARK  status: ('A' for Active; 'I' for Inactive)
REMARK    1  A    between atoms: O_1  and  C_2 
REMARK    2  A    between atoms: C_2  and  C_3 
REMARK    3  A    between atoms: C_2  and  C_8 
REMARK    4  A    between atoms: C_3  and  C_4 
REMARK    5  A    between atoms: C_4  and  C_5 
REMARK    6  A    between atoms: C_8  and  C_9 
REMARK    7  A    between atoms: C_11  and  O_15 
ROOT
HETATM    1  O   UNL     1     -52.320  48.396   7.816  1.00  0.00    -0.395 OA
HETATM    2  H   UNL     1     -52.040  47.541   7.455  1.00  0.00     0.210 HD
ENDROOT
BRANCH   1   3
HETATM    3  C   UNL     1     -52.940  48.196   9.086  1.00  0.00     0.122 C 
BRANCH   3   4
HETATM    4  C   UNL     1     -54.445  48.496   8.985  1.00  0.00     0.042 C 
BRANCH   4   5
HETATM    5  C   UNL     1     -54.904  49.621   9.916  1.00  0.00     0.116 C 
BRANCH   5   6
HETATM    6  C   UNL     1     -54.193  50.940   9.756  1.00  0.00     0.172 C 
HETATM    7  O   UNL     1     -53.767  51.626  10.672  1.00  0.00    -0.648 OA
HETATM    8  O   UNL     1     -54.124  51.394   8.489  1.00  0.00    -0.648 OA
ENDBRANCH   5   6
ENDBRANCH   4   5
ENDBRANCH   3   4
BRANCH   3   9
HETATM    9  C   UNL     1     -52.704  46.748   9.558  1.00  0.00     0.070 C 
BRANCH   9  10
HETATM   10  C   UNL     1     -51.839  46.660  10.798  1.00  0.00    -0.053 A 
HETATM   11  C   UNL     1     -50.487  46.295  10.699  1.00  0.00     0.043 A 
HETATM   12  C   UNL     1     -49.701  46.220  11.847  1.00  0.00     0.066 A 
HETATM   13  C   UNL     1     -50.236  46.502  13.098  1.00  0.00     0.036 A 
HETATM   14  C   UNL     1     -51.577  46.864  13.207  1.00  0.00     0.003 A 
HETATM   15  C   UNL     1     -52.374  46.943  12.063  1.00  0.00     0.007 A 
BRANCH  12  16
HETATM   16  O   UNL     1     -48.385  45.870  11.786  1.00  0.00    -0.361 OA
HETATM   17  H   UNL     1     -47.778  46.409  11.318  1.00  0.00     0.217 HD
ENDBRANCH  12  16
ENDBRANCH   9  10
ENDBRANCH   3   9
ENDBRANCH   1   3
TORSDOF 7
ENDMDL
MODEL 5
REMARK VINA RESULT:      -7.4      2.497      3.442
REMARK  7 active torsions:
REMARK  status: ('A' for Active; 'I' for Inactive)
REMARK    1  A    between atoms: O_1  and  C_2 
REMARK    2  A    between atoms: C_2  and  C_3 
REMARK    3  A    between atoms: C_2  and  C_8 
REMARK    4  A    between atoms: C_3  and  C_4 
REMARK    5  A    between atoms: C_4  and  C_5 
REMARK    6  A    between atoms: C_8  and  C_9 
REMARK    7  A    between atoms: C_11  and  O_15 
ROOT
HETATM    1  O   UNL     1     -53.016  48.181   8.129  1.00  0.00    -0.395 OA
HETATM    2  H   UNL     1     -52.364  47.695   7.601  1.00  0.00     0.210 HD
ENDROOT
BRANCH   1   3
HETATM    3  C   UNL     1     -53.327  47.434   9.305  1.00  0.00     0.122 C 
BRANCH   3   4
HETATM    4  C   UNL     1     -53.802  48.385  10.416  1.00  0.00     0.042 C 
BRANCH   4   5
HETATM    5  C   UNL     1     -54.695  49.518   9.906  1.00  0.00     0.116 C 
BRANCH   5   6
HETATM    6  C   UNL     1     -54.044  50.873   9.797  1.00  0.00     0.172 C 
HETATM    7  O   UNL     1     -53.839  51.633  10.731  1.00  0.00    -0.648 OA
HETATM    8  O   UNL     1     -53.766  51.266   8.538  1.00  0.00    -0.648 OA
ENDBRANCH   5   6
ENDBRANCH   4   5
ENDBRANCH   3   4
BRANCH   3   9
HETATM    9  C   UNL     1     -54.409  46.385   8.986  1.00  0.00     0.070 C 
BRANCH   9  10
HETATM   10  C   UNL     1     -53.843  45.005   8.730  1.00  0.00    -0.053 A 
HETATM   11  C   UNL     1     -53.182  44.305   9.752  1.00  0.00     0.043 A 
HETATM   12  C   UNL     1     -52.668  43.034   9.504  1.00  0.00     0.066 A 
HETATM   13  C   UNL     1     -52.797  42.442   8.253  1.00  0.00     0.036 A 
HETATM   14  C   UNL     1     -53.451  43.129   7.232  1.00  0.00     0.003 A 
HETATM   15  C   UNL     1     -53.972  44.403   7.470  1.00  0.00     0.007 A 
BRANCH  12  16
HETATM   16  O   UNL     1     -52.022  42.327  10.475  1.00  0.00    -0.361 OA
HETATM   17  H   UNL     1     -51.743  42.756  11.259  1.00  0.00     0.217 HD
ENDBRANCH  12  16
ENDBRANCH   9  10
ENDBRANCH   3   9
ENDBRANCH   1   3
TORSDOF 7
ENDMDL
MODEL 6
REMARK VINA RESULT:      -7.3      2.875      4.363
REMARK  7 active torsions:
REMARK  status: ('A' for Active; 'I' for Inactive)
REMARK    1  A    between atoms: O_1  and  C_2 
REMARK    2  A    between atoms: C_2  and  C_3 
REMARK    3  A    between atoms: C_2  and  C_8 
REMARK    4  A    between atoms: C_3  and  C_4 
REMARK    5  A    between atoms: C_4  and  C_5 
REMARK    6  A    between atoms: C_8  and  C_9 
REMARK    7  A    between atoms: C_11  and  O_15 
ROOT
HETATM    1  O   UNL     1     -54.778  51.577   8.045  1.00  0.00    -0.395 OA
HETATM    2  H   UNL     1     -55.111  51.161   7.236  1.00  0.00     0.210 HD
ENDROOT
BRANCH   1   3
HETATM    3  C   UNL     1     -54.384  50.565   8.972  1.00  0.00     0.122 C 
BRANCH   3   4
HETATM    4  C   UNL     1     -53.782  51.214  10.229  1.00  0.00     0.042 C 
BRANCH   4   5
HETATM    5  C   UNL     1     -53.742  52.742  10.163  1.00  0.00     0.116 C 
BRANCH   5   6
HETATM    6  C   UNL     1     -53.871  53.462  11.481  1.00  0.00     0.172 C 
HETATM    7  O   UNL     1     -53.838  54.674  11.628  1.00  0.00    -0.648 OA
HETATM    8  O   UNL     1     -53.938  52.657  12.560  1.00  0.00    -0.648 OA
ENDBRANCH   5   6
ENDBRANCH   4   5
ENDBRANCH   3   4
BRANCH   3   9
HETATM    9  C   UNL     1     -55.601  49.692   9.338  1.00  0.00     0.070 C 
BRANCH   9  10
HETATM   10  C   UNL     1     -55.332  48.209   9.201  1.00  0.00    -0.053 A 
HETATM   11  C   UNL     1     -56.341  47.341   8.755  1.00  0.00     0.043 A 
HETATM   12  C   UNL     1     -56.080  45.977   8.630  1.00  0.00     0.066 A 
HETATM   13  C   UNL     1     -54.830  45.458   8.943  1.00  0.00     0.036 A 
HETATM   14  C   UNL     1     -53.823  46.311   9.388  1.00  0.00     0.003 A 
HETATM   15  C   UNL     1     -54.072  47.679   9.516  1.00  0.00     0.007 A 
BRANCH  12  16
HETATM   16  O   UNL     1     -57.037  45.107   8.198  1.00  0.00    -0.361 OA
HETATM   17  H   UNL     1     -56.793  44.256   7.893  1.00  0.00     0.217 HD
ENDBRANCH  12  16
ENDBRANCH   9  10
ENDBRANCH   3   9
ENDBRANCH   1   3
TORSDOF 7
ENDMDL
MODEL 7
REMARK VINA RESULT:      -7.1      1.490      1.529
REMARK  7 active torsions:
REMARK  status: ('A' for Active; 'I' for Inactive)
REMARK    1  A    between atoms: O_1  and  C_2 
REMARK    2  A    between atoms: C_2  and  C_3 
REMARK    3  A    between atoms: C_2  and  C_8 
REMARK    4  A    between atoms: C_3  and  C_4 
REMARK    5  A    between atoms: C_4  and  C_5 
REMARK    6  A    between atoms: C_8  and  C_9 
REMARK    7  A    between atoms: C_11  and  O_15 
ROOT
HETATM    1  O   UNL     1     -53.053  48.380   8.194  1.00  0.00    -0.395 OA
HETATM    2  H   UNL     1     -53.803  48.003   7.709  1.00  0.00     0.210 HD
ENDROOT
BRANCH   1   3
HETATM    3  C   UNL     1     -53.252  48.195   9.595  1.00  0.00     0.122 C 
BRANCH   3   4
HETATM    4  C   UNL     1     -54.707  48.527   9.964  1.00  0.00     0.042 C 
BRANCH   4   5
HETATM    5  C   UNL     1     -55.196  49.851   9.374  1.00  0.00     0.116 C 
BRANCH   5   6
HETATM    6  C   UNL     1     -54.217  50.996   9.420  1.00  0.00     0.172 C 
HETATM    7  O   UNL     1     -53.590  51.427   8.465  1.00  0.00    -0.648 OA
HETATM    8  O   UNL     1     -53.988  51.492  10.653  1.00  0.00    -0.648 OA
ENDBRANCH   5   6
ENDBRANCH   4   5
ENDBRANCH   3   4
BRANCH   3   9
HETATM    9  C   UNL     1     -52.909  46.743   9.982  1.00  0.00     0.070 C 
BRANCH   9  10
HETATM   10  C   UNL     1     -51.723  46.640  10.917  1.00  0.00    -0.053 A 
HETATM   11  C   UNL     1     -51.873  46.896  12.289  1.00  0.00     0.043 A 
HETATM   12  C   UNL     1     -50.773  46.795  13.140  1.00  0.00     0.066 A 
HETATM   13  C   UNL     1     -49.521  46.445  12.649  1.00  0.00     0.036 A 
HETATM   14  C   UNL     1     -49.362  46.190  11.289  1.00  0.00     0.003 A 
HETATM   15  C   UNL     1     -50.457  46.286  10.428  1.00  0.00     0.007 A 
BRANCH  12  16
HETATM   16  O   UNL     1     -50.885  47.036  14.477  1.00  0.00    -0.361 OA
HETATM   17  H   UNL     1     -51.659  46.776  14.936  1.00  0.00     0.217 HD
ENDBRANCH  12  16
ENDBRANCH   9  10
ENDBRANCH   3   9
ENDBRANCH   1   3
TORSDOF 7
ENDMDL
MODEL 8
REMARK VINA RESULT:      -7.1      3.722      6.256
REMARK  7 active torsions:
REMARK  status: ('A' for Active; 'I' for Inactive)
REMARK    1  A    between atoms: O_1  and  C_2 
REMARK    2  A    between atoms: C_2  and  C_3 
REMARK    3  A    between atoms: C_2  and  C_8 
REMARK    4  A    between atoms: C_3  and  C_4 
REMARK    5  A    between atoms: C_4  and  C_5 
REMARK    6  A    between atoms: C_8  and  C_9 
REMARK    7  A    between atoms: C_11  and  O_15 
ROOT
HETATM    1  O   UNL     1     -52.544  45.267   7.128  1.00  0.00    -0.395 OA
HETATM    2  H   UNL     1     -51.924  44.624   6.750  1.00  0.00     0.210 HD
ENDROOT
BRANCH   1   3
HETATM    3  C   UNL     1     -53.538  44.580   7.887  1.00  0.00     0.122 C 
BRANCH   3   4
HETATM    4  C   UNL     1     -53.212  43.078   7.934  1.00  0.00     0.042 C 
BRANCH   4   5
HETATM    5  C   UNL     1     -53.013  42.456   6.551  1.00  0.00     0.116 C 
BRANCH   5   6
HETATM    6  C   UNL     1     -54.260  42.273   5.724  1.00  0.00     0.172 C 
HETATM    7  O   UNL     1     -55.403  42.361   6.144  1.00  0.00    -0.648 OA
HETATM    8  O   UNL     1     -54.041  41.898   4.448  1.00  0.00    -0.648 OA
ENDBRANCH   5   6
ENDBRANCH   4   5
ENDBRANCH   3   4
BRANCH   3   9
HETATM    9  C   UNL     1     -53.606  45.167   9.311  1.00  0.00     0.070 C 
BRANCH   9  10
HETATM   10  C   UNL     1     -54.288  46.518   9.365  1.00  0.00    -0.053 A 
HETATM   11  C   UNL     1     -53.625  47.629   9.909  1.00  0.00     0.043 A 
HETATM   12  C   UNL     1     -54.263  48.868   9.951  1.00  0.00     0.066 A 
HETATM   13  C   UNL     1     -55.554  49.023   9.461  1.00  0.00     0.036 A 
HETATM   14  C   UNL     1     -56.220  47.925   8.920  1.00  0.00     0.003 A 
HETATM   15  C   UNL     1     -55.590  46.680   8.872  1.00  0.00     0.007 A 
BRANCH  12  16
HETATM   16  O   UNL     1     -53.647  49.967  10.471  1.00  0.00    -0.361 OA
HETATM   17  H   UNL     1     -54.069  50.469  11.139  1.00  0.00     0.217 HD
ENDBRANCH  12  16
ENDBRANCH   9  10
ENDBRANCH   3   9
ENDBRANCH   1   3
TORSDOF 7
ENDMDL
MODEL 9
REMARK VINA RESULT:      -7.1      3.395      5.101
REMARK  7 active torsions:
REMARK  status: ('A' for Active; 'I' for Inactive)
REMARK    1  A    between atoms: O_1  and  C_2 
REMARK    2  A    between atoms: C_2  and  C_3 
REMARK    3  A    between atoms: C_2  and  C_8 
REMARK    4  A    between atoms: C_3  and  C_4 
REMARK    5  A    between atoms: C_4  and  C_5 
REMARK    6  A    between atoms: C_8  and  C_9 
REMARK    7  A    between atoms: C_11  and  O_15 
ROOT
HETATM    1  O   UNL     1     -57.060  45.370   8.424  1.00  0.00    -0.395 OA
HETATM    2  H   UNL     1     -57.427  45.321   9.321  1.00  0.00     0.210 HD
ENDROOT
BRANCH   1   3
HETATM    3  C   UNL     1     -55.882  46.176   8.436  1.00  0.00     0.122 C 
BRANCH   3   4
HETATM    4  C   UNL     1     -56.138  47.460   9.241  1.00  0.00     0.042 C 
BRANCH   4   5
HETATM    5  C   UNL     1     -55.352  48.668   8.724  1.00  0.00     0.116 C 
BRANCH   5   6
HETATM    6  C   UNL     1     -53.934  48.793   9.218  1.00  0.00     0.172 C 
HETATM    7  O   UNL     1     -53.606  49.202  10.321  1.00  0.00    -0.648 OA
HETATM    8  O   UNL     1     -52.990  48.501   8.302  1.00  0.00    -0.648 OA
ENDBRANCH   5   6
ENDBRANCH   4   5
ENDBRANCH   3   4
BRANCH   3   9
HETATM    9  C   UNL     1     -54.710  45.378   9.040  1.00  0.00     0.070 C 
BRANCH   9  10
HETATM   10  C   UNL     1     -53.850  44.700   7.994  1.00  0.00    -0.053 A 
HETATM   11  C   UNL     1     -54.421  44.217   6.807  1.00  0.00     0.043 A 
HETATM   12  C   UNL     1     -53.617  43.598   5.851  1.00  0.00     0.066 A 
HETATM   13  C   UNL     1     -52.251  43.448   6.055  1.00  0.00     0.036 A 
HETATM   14  C   UNL     1     -51.676  43.923   7.231  1.00  0.00     0.003 A 
HETATM   15  C   UNL     1     -52.471  44.547   8.195  1.00  0.00     0.007 A 
BRANCH  12  16
HETATM   16  O   UNL     1     -54.140  43.119   4.686  1.00  0.00    -0.361 OA
HETATM   17  H   UNL     1     -54.727  43.649   4.183  1.00  0.00     0.217 HD
ENDBRANCH  12  16
ENDBRANCH   9  10
ENDBRANCH   3   9
ENDBRANCH   1   3
TORSDOF 7
ENDMDL
