MODEL 1
REMARK VINA RESULT:      -7.1      0.000      0.000
REMARK  4 active torsions:
REMARK  status: ('A' for Active; 'I' for Inactive)
REMARK    1  A    between atoms: O_1  and  C_8 
REMARK    2  A    between atoms: O_2  and  C_9 
REMARK    3  A    between atoms: C_5  and  C_11 
REMARK    4  A    between atoms: C_12  and  C_13 
ROOT
ATOM      1  O   UNL A   1      18.979  -1.947  29.246  1.00  0.00    -0.358 OA
ATOM      2  H   UNL A   1      19.338  -1.256  28.726  1.00  0.00     0.217 HD
ENDROOT
BRANCH   1   3
ATOM      3  C   UNL A   1      19.779  -2.642  30.102  1.00  0.00     0.099 A 
ATOM      4  C   UNL A   1      20.341  -1.989  31.199  1.00  0.00     0.050 A 
ATOM      5  C   UNL A   1      21.161  -2.691  32.084  1.00  0.00    -0.033 A 
ATOM      6  C   UNL A   1      21.417  -4.046  31.871  1.00  0.00     0.014 A 
ATOM      7  C   UNL A   1      20.855  -4.698  30.774  1.00  0.00     0.040 A 
ATOM      8  C   UNL A   1      20.036  -3.996  29.890  1.00  0.00     0.098 A 
BRANCH   5   9
ATOM      9  C   UNL A   1      21.747  -2.010  33.227  1.00  0.00     0.018 C 
ATOM     10  C   UNL A   1      22.169  -2.655  34.312  1.00  0.00     0.085 C 
BRANCH  10  11
ATOM     11  C   UNL A   1      22.734  -1.867  35.425  1.00  0.00     0.198 C 
ATOM     12  O   UNL A   1      23.678  -1.031  34.930  1.00  0.00    -0.645 OA
ATOM     13  O   UNL A   1      22.418  -1.941  36.601  1.00  0.00    -0.645 OA
ENDBRANCH  10  11
ENDBRANCH   5   9
BRANCH   8  14
ATOM     14  O   UNL A   1      19.492  -4.644  28.823  1.00  0.00    -0.358 OA
ATOM     15  H   UNL A   1      19.893  -4.576  27.978  1.00  0.00     0.217 HD
ENDBRANCH   8  14
ENDBRANCH   1   3
TORSDOF 4
ENDMDL
MODEL 2
REMARK VINA RESULT:      -6.9      3.390      4.656
REMARK  4 active torsions:
REMARK  status: ('A' for Active; 'I' for Inactive)
REMARK    1  A    between atoms: O_1  and  C_8 
REMARK    2  A    between atoms: O_2  and  C_9 
REMARK    3  A    between atoms: C_5  and  C_11 
REMARK    4  A    between atoms: C_12  and  C_13 
ROOT
ATOM      1  O   UNL A   1      21.932  -1.061  34.250  1.00  0.00    -0.358 OA
ATOM      2  H   UNL A   1      22.069  -0.183  33.953  1.00  0.00     0.217 HD
ENDROOT
BRANCH   1   3
ATOM      3  C   UNL A   1      21.869  -2.082  33.351  1.00  0.00     0.099 A 
ATOM      4  C   UNL A   1      22.055  -3.394  33.787  1.00  0.00     0.050 A 
ATOM      5  C   UNL A   1      21.990  -4.449  32.876  1.00  0.00    -0.033 A 
ATOM      6  C   UNL A   1      21.739  -4.190  31.528  1.00  0.00     0.014 A 
ATOM      7  C   UNL A   1      21.552  -2.878  31.093  1.00  0.00     0.040 A 
ATOM      8  C   UNL A   1      21.617  -1.825  32.004  1.00  0.00     0.098 A 
BRANCH   5   9
ATOM      9  C   UNL A   1      22.186  -5.815  33.330  1.00  0.00     0.018 C 
ATOM     10  C   UNL A   1      21.246  -6.503  33.973  1.00  0.00     0.085 C 
BRANCH  10  11
ATOM     11  C   UNL A   1      21.553  -7.881  34.408  1.00  0.00     0.198 C 
ATOM     12  O   UNL A   1      22.858  -7.943  34.764  1.00  0.00    -0.645 OA
ATOM     13  O   UNL A   1      20.775  -8.819  34.447  1.00  0.00    -0.645 OA
ENDBRANCH  10  11
ENDBRANCH   5   9
BRANCH   8  14
ATOM     14  O   UNL A   1      21.431  -0.548  31.566  1.00  0.00    -0.358 OA
ATOM     15  H   UNL A   1      20.692  -0.054  31.862  1.00  0.00     0.217 HD
ENDBRANCH   8  14
ENDBRANCH   1   3
TORSDOF 4
ENDMDL
MODEL 3
REMARK VINA RESULT:      -6.9      3.259      3.931
REMARK  4 active torsions:
REMARK  status: ('A' for Active; 'I' for Inactive)
REMARK    1  A    between atoms: O_1  and  C_8 
REMARK    2  A    between atoms: O_2  and  C_9 
REMARK    3  A    between atoms: C_5  and  C_11 
REMARK    4  A    between atoms: C_12  and  C_13 
ROOT
ATOM      1  O   UNL A   1      21.253  -0.822  31.962  1.00  0.00    -0.358 OA
ATOM      2  H   UNL A   1      22.071  -0.479  32.264  1.00  0.00     0.217 HD
ENDROOT
BRANCH   1   3
ATOM      3  C   UNL A   1      21.125  -2.154  31.709  1.00  0.00     0.099 A 
ATOM      4  C   UNL A   1      21.810  -3.073  32.503  1.00  0.00     0.050 A 
ATOM      5  C   UNL A   1      21.685  -4.441  32.255  1.00  0.00    -0.033 A 
ATOM      6  C   UNL A   1      20.872  -4.888  31.213  1.00  0.00     0.014 A 
ATOM      7  C   UNL A   1      20.185  -3.969  30.420  1.00  0.00     0.040 A 
ATOM      8  C   UNL A   1      20.312  -2.602  30.668  1.00  0.00     0.098 A 
BRANCH   5   9
ATOM      9  C   UNL A   1      22.402  -5.398  33.081  1.00  0.00     0.018 C 
ATOM     10  C   UNL A   1      22.829  -6.571  32.620  1.00  0.00     0.085 C 
BRANCH  10  11
ATOM     11  C   UNL A   1      23.533  -7.479  33.548  1.00  0.00     0.198 C 
ATOM     12  O   UNL A   1      24.357  -8.279  32.830  1.00  0.00    -0.645 OA
ATOM     13  O   UNL A   1      23.406  -7.519  34.760  1.00  0.00    -0.645 OA
ENDBRANCH  10  11
ENDBRANCH   5   9
BRANCH   8  14
ATOM     14  O   UNL A   1      19.635  -1.714  29.888  1.00  0.00    -0.358 OA
ATOM     15  H   UNL A   1      18.958  -1.184  30.260  1.00  0.00     0.217 HD
ENDBRANCH   8  14
ENDBRANCH   1   3
TORSDOF 4
ENDMDL
MODEL 4
REMARK VINA RESULT:      -6.7      1.758      5.847
REMARK  4 active torsions:
REMARK  status: ('A' for Active; 'I' for Inactive)
REMARK    1  A    between atoms: O_1  and  C_8 
REMARK    2  A    between atoms: O_2  and  C_9 
REMARK    3  A    between atoms: C_5  and  C_11 
REMARK    4  A    between atoms: C_12  and  C_13 
ROOT
ATOM      1  O   UNL A   1      22.454  -5.182  33.955  1.00  0.00    -0.358 OA
ATOM      2  H   UNL A   1      23.254  -5.212  34.442  1.00  0.00     0.217 HD
ENDROOT
BRANCH   1   3
ATOM      3  C   UNL A   1      22.076  -4.028  33.338  1.00  0.00     0.099 A 
ATOM      4  C   UNL A   1      21.687  -4.060  31.999  1.00  0.00     0.050 A 
ATOM      5  C   UNL A   1      21.297  -2.885  31.357  1.00  0.00    -0.033 A 
ATOM      6  C   UNL A   1      21.293  -1.677  32.056  1.00  0.00     0.014 A 
ATOM      7  C   UNL A   1      21.681  -1.645  33.395  1.00  0.00     0.040 A 
ATOM      8  C   UNL A   1      22.072  -2.821  34.036  1.00  0.00     0.098 A 
BRANCH   5   9
ATOM      9  C   UNL A   1      20.893  -2.919  29.961  1.00  0.00     0.018 C 
ATOM     10  C   UNL A   1      19.638  -2.719  29.568  1.00  0.00     0.085 C 
BRANCH  10  11
ATOM     11  C   UNL A   1      19.330  -2.792  28.125  1.00  0.00     0.198 C 
ATOM     12  O   UNL A   1      20.361  -2.250  27.434  1.00  0.00    -0.645 OA
ATOM     13  O   UNL A   1      18.323  -3.258  27.621  1.00  0.00    -0.645 OA
ENDBRANCH  10  11
ENDBRANCH   5   9
BRANCH   8  14
ATOM     14  O   UNL A   1      22.448  -2.776  35.345  1.00  0.00    -0.358 OA
ATOM     15  H   UNL A   1      22.057  -2.151  35.923  1.00  0.00     0.217 HD
ENDBRANCH   8  14
ENDBRANCH   1   3
TORSDOF 4
ENDMDL
MODEL 5
REMARK VINA RESULT:      -6.6      2.862      3.828
REMARK  4 active torsions:
REMARK  status: ('A' for Active; 'I' for Inactive)
REMARK    1  A    between atoms: O_1  and  C_8 
REMARK    2  A    between atoms: O_2  and  C_9 
REMARK    3  A    between atoms: C_5  and  C_11 
REMARK    4  A    between atoms: C_12  and  C_13 
ROOT
ATOM      1  O   UNL A   1      19.244  -4.457  29.035  1.00  0.00    -0.358 OA
ATOM      2  H   UNL A   1      18.830  -5.295  29.112  1.00  0.00     0.217 HD
ENDROOT
BRANCH   1   3
ATOM      3  C   UNL A   1      19.946  -3.945  30.083  1.00  0.00     0.099 A 
ATOM      4  C   UNL A   1      20.767  -4.784  30.837  1.00  0.00     0.050 A 
ATOM      5  C   UNL A   1      21.492  -4.269  31.912  1.00  0.00    -0.033 A 
ATOM      6  C   UNL A   1      21.396  -2.915  32.232  1.00  0.00     0.014 A 
ATOM      7  C   UNL A   1      20.576  -2.076  31.478  1.00  0.00     0.040 A 
ATOM      8  C   UNL A   1      19.851  -2.591  30.404  1.00  0.00     0.098 A 
BRANCH   5   9
ATOM      9  C   UNL A   1      22.346  -5.145  32.698  1.00  0.00     0.018 C 
ATOM     10  C   UNL A   1      22.525  -6.430  32.405  1.00  0.00     0.085 C 
BRANCH  10  11
ATOM     11  C   UNL A   1      23.401  -7.237  33.279  1.00  0.00     0.198 C 
ATOM     12  O   UNL A   1      24.101  -8.104  32.509  1.00  0.00    -0.645 OA
ATOM     13  O   UNL A   1      23.492  -7.153  34.492  1.00  0.00    -0.645 OA
ENDBRANCH  10  11
ENDBRANCH   5   9
BRANCH   8  14
ATOM     14  O   UNL A   1      19.054  -1.761  29.675  1.00  0.00    -0.358 OA
ATOM     15  H   UNL A   1      18.175  -1.592  29.952  1.00  0.00     0.217 HD
ENDBRANCH   8  14
ENDBRANCH   1   3
TORSDOF 4
ENDMDL
MODEL 6
REMARK VINA RESULT:      -6.6      1.510      5.775
REMARK  4 active torsions:
REMARK  status: ('A' for Active; 'I' for Inactive)
REMARK    1  A    between atoms: O_1  and  C_8 
REMARK    2  A    between atoms: O_2  and  C_9 
REMARK    3  A    between atoms: C_5  and  C_11 
REMARK    4  A    between atoms: C_12  and  C_13 
ROOT
ATOM      1  O   UNL A   1      21.710  -0.821  33.137  1.00  0.00    -0.358 OA
ATOM      2  H   UNL A   1      22.233  -0.245  32.616  1.00  0.00     0.217 HD
ENDROOT
BRANCH   1   3
ATOM      3  C   UNL A   1      21.607  -2.137  32.804  1.00  0.00     0.099 A 
ATOM      4  C   UNL A   1      20.964  -2.498  31.620  1.00  0.00     0.050 A 
ATOM      5  C   UNL A   1      20.854  -3.843  31.267  1.00  0.00    -0.033 A 
ATOM      6  C   UNL A   1      21.390  -4.827  32.097  1.00  0.00     0.014 A 
ATOM      7  C   UNL A   1      22.034  -4.467  33.281  1.00  0.00     0.040 A 
ATOM      8  C   UNL A   1      22.143  -3.122  33.633  1.00  0.00     0.098 A 
BRANCH   5   9
ATOM      9  C   UNL A   1      20.182  -4.219  30.033  1.00  0.00     0.018 C 
ATOM     10  C   UNL A   1      19.311  -3.425  29.417  1.00  0.00     0.085 C 
BRANCH  10  11
ATOM     11  C   UNL A   1      18.670  -3.909  28.177  1.00  0.00     0.198 C 
ATOM     12  O   UNL A   1      18.597  -5.260  28.226  1.00  0.00    -0.645 OA
ATOM     13  O   UNL A   1      18.267  -3.222  27.253  1.00  0.00    -0.645 OA
ENDBRANCH  10  11
ENDBRANCH   5   9
BRANCH   8  14
ATOM     14  O   UNL A   1      22.775  -2.782  34.791  1.00  0.00    -0.358 OA
ATOM     15  H   UNL A   1      23.438  -2.120  34.786  1.00  0.00     0.217 HD
ENDBRANCH   8  14
ENDBRANCH   1   3
TORSDOF 4
ENDMDL
MODEL 7
REMARK VINA RESULT:      -6.5      1.918      5.744
REMARK  4 active torsions:
REMARK  status: ('A' for Active; 'I' for Inactive)
REMARK    1  A    between atoms: O_1  and  C_8 
REMARK    2  A    between atoms: O_2  and  C_9 
REMARK    3  A    between atoms: C_5  and  C_11 
REMARK    4  A    between atoms: C_12  and  C_13 
ROOT
ATOM      1  O   UNL A   1      21.338  -1.238  33.946  1.00  0.00    -0.358 OA
ATOM      2  H   UNL A   1      20.565  -0.892  34.346  1.00  0.00     0.217 HD
ENDROOT
BRANCH   1   3
ATOM      3  C   UNL A   1      21.236  -2.201  32.988  1.00  0.00     0.099 A 
ATOM      4  C   UNL A   1      20.559  -1.921  31.802  1.00  0.00     0.050 A 
ATOM      5  C   UNL A   1      20.450  -2.900  30.813  1.00  0.00    -0.033 A 
ATOM      6  C   UNL A   1      21.020  -4.157  31.011  1.00  0.00     0.014 A 
ATOM      7  C   UNL A   1      21.698  -4.437  32.198  1.00  0.00     0.040 A 
ATOM      8  C   UNL A   1      21.806  -3.459  33.186  1.00  0.00     0.098 A 
BRANCH   5   9
ATOM      9  C   UNL A   1      19.742  -2.608  29.577  1.00  0.00     0.018 C 
ATOM     10  C   UNL A   1      20.332  -2.633  28.385  1.00  0.00     0.085 C 
BRANCH  10  11
ATOM     11  C   UNL A   1      19.527  -2.304  27.191  1.00  0.00     0.198 C 
ATOM     12  O   UNL A   1      20.319  -1.669  26.295  1.00  0.00    -0.645 OA
ATOM     13  O   UNL A   1      18.345  -2.554  27.022  1.00  0.00    -0.645 OA
ENDBRANCH  10  11
ENDBRANCH   5   9
BRANCH   8  14
ATOM     14  O   UNL A   1      22.471  -3.743  34.340  1.00  0.00    -0.358 OA
ATOM     15  H   UNL A   1      22.861  -3.052  34.838  1.00  0.00     0.217 HD
ENDBRANCH   8  14
ENDBRANCH   1   3
TORSDOF 4
ENDMDL
MODEL 8
REMARK VINA RESULT:      -6.5      0.834      1.921
REMARK  4 active torsions:
REMARK  status: ('A' for Active; 'I' for Inactive)
REMARK    1  A    between atoms: O_1  and  C_8 
REMARK    2  A    between atoms: O_2  and  C_9 
REMARK    3  A    between atoms: C_5  and  C_11 
REMARK    4  A    between atoms: C_12  and  C_13 
ROOT
ATOM      1  O   UNL A   1      21.368  -6.074  30.556  1.00  0.00    -0.358 OA
ATOM      2  H   UNL A   1      20.781  -6.672  30.138  1.00  0.00     0.217 HD
ENDROOT
BRANCH   1   3
ATOM      3  C   UNL A   1      20.988  -4.784  30.770  1.00  0.00     0.099 A 
ATOM      4  C   UNL A   1      21.468  -4.103  31.889  1.00  0.00     0.050 A 
ATOM      5  C   UNL A   1      21.087  -2.780  32.117  1.00  0.00    -0.033 A 
ATOM      6  C   UNL A   1      20.227  -2.139  31.226  1.00  0.00     0.014 A 
ATOM      7  C   UNL A   1      19.748  -2.819  30.106  1.00  0.00     0.040 A 
ATOM      8  C   UNL A   1      20.129  -4.142  29.879  1.00  0.00     0.098 A 
BRANCH   5   9
ATOM      9  C   UNL A   1      21.586  -2.071  33.285  1.00  0.00     0.018 C 
ATOM     10  C   UNL A   1      22.302  -2.664  34.236  1.00  0.00     0.085 C 
BRANCH  10  11
ATOM     11  C   UNL A   1      22.747  -1.857  35.390  1.00  0.00     0.198 C 
ATOM     12  O   UNL A   1      23.675  -0.966  34.966  1.00  0.00    -0.645 OA
ATOM     13  O   UNL A   1      22.356  -1.959  36.541  1.00  0.00    -0.645 OA
ENDBRANCH  10  11
ENDBRANCH   5   9
BRANCH   8  14
ATOM     14  O   UNL A   1      19.655  -4.795  28.782  1.00  0.00    -0.358 OA
ATOM     15  H   UNL A   1      19.296  -5.656  28.868  1.00  0.00     0.217 HD
ENDBRANCH   8  14
ENDBRANCH   1   3
TORSDOF 4
ENDMDL
MODEL 9
REMARK VINA RESULT:      -6.3      3.373      4.315
REMARK  4 active torsions:
REMARK  status: ('A' for Active; 'I' for Inactive)
REMARK    1  A    between atoms: O_1  and  C_8 
REMARK    2  A    between atoms: O_2  and  C_9 
REMARK    3  A    between atoms: C_5  and  C_11 
REMARK    4  A    between atoms: C_12  and  C_13 
ROOT
ATOM      1  O   UNL A   1      21.019  -2.271  29.660  1.00  0.00    -0.358 OA
ATOM      2  H   UNL A   1      20.140  -2.307  29.336  1.00  0.00     0.217 HD
ENDROOT
BRANCH   1   3
ATOM      3  C   UNL A   1      21.285  -2.623  30.948  1.00  0.00     0.099 A 
ATOM      4  C   UNL A   1      21.215  -3.964  31.323  1.00  0.00     0.050 A 
ATOM      5  C   UNL A   1      21.488  -4.337  32.639  1.00  0.00    -0.033 A 
ATOM      6  C   UNL A   1      21.833  -3.367  33.580  1.00  0.00     0.014 A 
ATOM      7  C   UNL A   1      21.904  -2.025  33.206  1.00  0.00     0.040 A 
ATOM      8  C   UNL A   1      21.630  -1.654  31.890  1.00  0.00     0.098 A 
BRANCH   5   9
ATOM      9  C   UNL A   1      21.413  -5.735  33.029  1.00  0.00     0.018 C 
ATOM     10  C   UNL A   1      22.325  -6.318  33.803  1.00  0.00     0.085 C 
BRANCH  10  11
ATOM     11  C   UNL A   1      22.165  -7.750  34.127  1.00  0.00     0.198 C 
ATOM     12  O   UNL A   1      23.377  -8.260  34.450  1.00  0.00    -0.645 OA
ATOM     13  O   UNL A   1      21.124  -8.385  34.112  1.00  0.00    -0.645 OA
ENDBRANCH  10  11
ENDBRANCH   5   9
BRANCH   8  14
ATOM     14  O   UNL A   1      21.704  -0.340  31.536  1.00  0.00    -0.358 OA
ATOM     15  H   UNL A   1      22.475   0.155  31.731  1.00  0.00     0.217 HD
ENDBRANCH   8  14
ENDBRANCH   1   3
TORSDOF 4
ENDMDL
