MODEL 1
REMARK VINA RESULT:      -7.1      0.000      0.000
REMARK  4 active torsions:
REMARK  status: ('A' for Active; 'I' for Inactive)
REMARK    1  A    between atoms: O_1  and  C_8 
REMARK    2  A    between atoms: O_2  and  C_9 
REMARK    3  A    between atoms: C_5  and  C_11 
REMARK    4  A    between atoms: C_12  and  C_13 
ROOT
ATOM      1  O   UNL A   1      19.041  -2.025  29.255  1.00  0.00    -0.358 OA
ATOM      2  H   UNL A   1      19.038  -2.296  28.358  1.00  0.00     0.217 HD
ENDROOT
BRANCH   1   3
ATOM      3  C   UNL A   1      19.820  -2.680  30.161  1.00  0.00     0.099 A 
ATOM      4  C   UNL A   1      20.333  -1.984  31.256  1.00  0.00     0.050 A 
ATOM      5  C   UNL A   1      21.130  -2.645  32.191  1.00  0.00    -0.033 A 
ATOM      6  C   UNL A   1      21.412  -4.001  32.032  1.00  0.00     0.014 A 
ATOM      7  C   UNL A   1      20.898  -4.697  30.938  1.00  0.00     0.040 A 
ATOM      8  C   UNL A   1      20.102  -4.036  30.003  1.00  0.00     0.098 A 
BRANCH   5   9
ATOM      9  C   UNL A   1      21.667  -1.919  33.331  1.00  0.00     0.018 C 
ATOM     10  C   UNL A   1      22.244  -2.524  34.365  1.00  0.00     0.085 C 
BRANCH  10  11
ATOM     11  C   UNL A   1      22.741  -1.695  35.481  1.00  0.00     0.198 C 
ATOM     12  O   UNL A   1      23.850  -1.036  35.071  1.00  0.00    -0.645 OA
ATOM     13  O   UNL A   1      22.249  -1.605  36.594  1.00  0.00    -0.645 OA
ENDBRANCH  10  11
ENDBRANCH   5   9
BRANCH   8  14
ATOM     14  O   UNL A   1      19.604  -4.727  28.940  1.00  0.00    -0.358 OA
ATOM     15  H   UNL A   1      18.725  -5.050  28.961  1.00  0.00     0.217 HD
ENDBRANCH   8  14
ENDBRANCH   1   3
TORSDOF 4
ENDMDL
MODEL 2
REMARK VINA RESULT:      -6.9      3.397      4.709
REMARK  4 active torsions:
REMARK  status: ('A' for Active; 'I' for Inactive)
REMARK    1  A    between atoms: O_1  and  C_8 
REMARK    2  A    between atoms: O_2  and  C_9 
REMARK    3  A    between atoms: C_5  and  C_11 
REMARK    4  A    between atoms: C_12  and  C_13 
ROOT
ATOM      1  O   UNL A   1      22.049  -1.121  34.265  1.00  0.00    -0.358 OA
ATOM      2  H   UNL A   1      21.551  -1.161  35.057  1.00  0.00     0.217 HD
ENDROOT
BRANCH   1   3
ATOM      3  C   UNL A   1      21.920  -2.102  33.329  1.00  0.00     0.099 A 
ATOM      4  C   UNL A   1      22.075  -3.436  33.706  1.00  0.00     0.050 A 
ATOM      5  C   UNL A   1      21.942  -4.450  32.756  1.00  0.00    -0.033 A 
ATOM      6  C   UNL A   1      21.653  -4.128  31.430  1.00  0.00     0.014 A 
ATOM      7  C   UNL A   1      21.497  -2.794  31.054  1.00  0.00     0.040 A 
ATOM      8  C   UNL A   1      21.630  -1.782  32.003  1.00  0.00     0.098 A 
BRANCH   5   9
ATOM      9  C   UNL A   1      22.106  -5.840  33.149  1.00  0.00     0.018 C 
ATOM     10  C   UNL A   1      21.355  -6.419  34.082  1.00  0.00     0.085 C 
BRANCH  10  11
ATOM     11  C   UNL A   1      21.614  -7.833  34.419  1.00  0.00     0.198 C 
ATOM     12  O   UNL A   1      22.911  -7.961  34.787  1.00  0.00    -0.645 OA
ATOM     13  O   UNL A   1      20.809  -8.748  34.380  1.00  0.00    -0.645 OA
ENDBRANCH  10  11
ENDBRANCH   5   9
BRANCH   8  14
ATOM     14  O   UNL A   1      21.474  -0.483  31.623  1.00  0.00    -0.358 OA
ATOM     15  H   UNL A   1      22.222   0.076  31.547  1.00  0.00     0.217 HD
ENDBRANCH   8  14
ENDBRANCH   1   3
TORSDOF 4
ENDMDL
MODEL 3
REMARK VINA RESULT:      -6.9      3.272      4.023
REMARK  4 active torsions:
REMARK  status: ('A' for Active; 'I' for Inactive)
REMARK    1  A    between atoms: O_1  and  C_8 
REMARK    2  A    between atoms: O_2  and  C_9 
REMARK    3  A    between atoms: C_5  and  C_11 
REMARK    4  A    between atoms: C_12  and  C_13 
ROOT
ATOM      1  O   UNL A   1      21.277  -0.855  31.955  1.00  0.00    -0.358 OA
ATOM      2  H   UNL A   1      22.057  -0.410  31.688  1.00  0.00     0.217 HD
ENDROOT
BRANCH   1   3
ATOM      3  C   UNL A   1      21.133  -2.186  31.708  1.00  0.00     0.099 A 
ATOM      4  C   UNL A   1      21.800  -3.110  32.512  1.00  0.00     0.050 A 
ATOM      5  C   UNL A   1      21.659  -4.477  32.269  1.00  0.00    -0.033 A 
ATOM      6  C   UNL A   1      20.849  -4.919  31.223  1.00  0.00     0.014 A 
ATOM      7  C   UNL A   1      20.181  -3.994  30.419  1.00  0.00     0.040 A 
ATOM      8  C   UNL A   1      20.324  -2.629  30.662  1.00  0.00     0.098 A 
BRANCH   5   9
ATOM      9  C   UNL A   1      22.355  -5.440  33.107  1.00  0.00     0.018 C 
ATOM     10  C   UNL A   1      22.879  -6.566  32.629  1.00  0.00     0.085 C 
BRANCH  10  11
ATOM     11  C   UNL A   1      23.552  -7.485  33.568  1.00  0.00     0.198 C 
ATOM     12  O   UNL A   1      24.322  -8.344  32.858  1.00  0.00    -0.645 OA
ATOM     13  O   UNL A   1      23.445  -7.488  34.783  1.00  0.00    -0.645 OA
ENDBRANCH  10  11
ENDBRANCH   5   9
BRANCH   8  14
ATOM     14  O   UNL A   1      19.666  -1.736  29.871  1.00  0.00    -0.358 OA
ATOM     15  H   UNL A   1      19.700  -0.821  30.069  1.00  0.00     0.217 HD
ENDBRANCH   8  14
ENDBRANCH   1   3
TORSDOF 4
ENDMDL
MODEL 4
REMARK VINA RESULT:      -6.6      1.838      5.849
REMARK  4 active torsions:
REMARK  status: ('A' for Active; 'I' for Inactive)
REMARK    1  A    between atoms: O_1  and  C_8 
REMARK    2  A    between atoms: O_2  and  C_9 
REMARK    3  A    between atoms: C_5  and  C_11 
REMARK    4  A    between atoms: C_12  and  C_13 
ROOT
ATOM      1  O   UNL A   1      22.447  -5.207  33.884  1.00  0.00    -0.358 OA
ATOM      2  H   UNL A   1      22.623  -5.964  33.361  1.00  0.00     0.217 HD
ENDROOT
BRANCH   1   3
ATOM      3  C   UNL A   1      22.069  -4.042  33.288  1.00  0.00     0.099 A 
ATOM      4  C   UNL A   1      21.676  -4.050  31.950  1.00  0.00     0.050 A 
ATOM      5  C   UNL A   1      21.285  -2.862  31.330  1.00  0.00    -0.033 A 
ATOM      6  C   UNL A   1      21.286  -1.668  32.050  1.00  0.00     0.014 A 
ATOM      7  C   UNL A   1      21.678  -1.660  33.389  1.00  0.00     0.040 A 
ATOM      8  C   UNL A   1      22.069  -2.847  34.007  1.00  0.00     0.098 A 
BRANCH   5   9
ATOM      9  C   UNL A   1      20.878  -2.871  29.934  1.00  0.00     0.018 C 
ATOM     10  C   UNL A   1      19.604  -2.818  29.555  1.00  0.00     0.085 C 
BRANCH  10  11
ATOM     11  C   UNL A   1      19.296  -2.850  28.111  1.00  0.00     0.198 C 
ATOM     12  O   UNL A   1      20.346  -2.329  27.432  1.00  0.00    -0.645 OA
ATOM     13  O   UNL A   1      18.274  -3.270  27.596  1.00  0.00    -0.645 OA
ENDBRANCH  10  11
ENDBRANCH   5   9
BRANCH   8  14
ATOM     14  O   UNL A   1      22.448  -2.826  35.316  1.00  0.00    -0.358 OA
ATOM     15  H   UNL A   1      23.298  -2.510  35.552  1.00  0.00     0.217 HD
ENDBRANCH   8  14
ENDBRANCH   1   3
TORSDOF 4
ENDMDL
MODEL 5
REMARK VINA RESULT:      -6.6      2.890      3.924
REMARK  4 active torsions:
REMARK  status: ('A' for Active; 'I' for Inactive)
REMARK    1  A    between atoms: O_1  and  C_8 
REMARK    2  A    between atoms: O_2  and  C_9 
REMARK    3  A    between atoms: C_5  and  C_11 
REMARK    4  A    between atoms: C_12  and  C_13 
ROOT
ATOM      1  O   UNL A   1      19.275  -4.490  29.007  1.00  0.00    -0.358 OA
ATOM      2  H   UNL A   1      18.419  -4.169  28.801  1.00  0.00     0.217 HD
ENDROOT
BRANCH   1   3
ATOM      3  C   UNL A   1      19.957  -3.978  30.068  1.00  0.00     0.099 A 
ATOM      4  C   UNL A   1      20.766  -4.817  30.834  1.00  0.00     0.050 A 
ATOM      5  C   UNL A   1      21.472  -4.304  31.923  1.00  0.00    -0.033 A 
ATOM      6  C   UNL A   1      21.370  -2.950  32.243  1.00  0.00     0.014 A 
ATOM      7  C   UNL A   1      20.562  -2.111  31.476  1.00  0.00     0.040 A 
ATOM      8  C   UNL A   1      19.856  -2.625  30.389  1.00  0.00     0.098 A 
BRANCH   5   9
ATOM      9  C   UNL A   1      22.313  -5.179  32.722  1.00  0.00     0.018 C 
ATOM     10  C   UNL A   1      22.636  -6.413  32.343  1.00  0.00     0.085 C 
BRANCH  10  11
ATOM     11  C   UNL A   1      23.483  -7.227  33.237  1.00  0.00     0.198 C 
ATOM     12  O   UNL A   1      24.122  -8.164  32.496  1.00  0.00    -0.645 OA
ATOM     13  O   UNL A   1      23.601  -7.095  34.444  1.00  0.00    -0.645 OA
ENDBRANCH  10  11
ENDBRANCH   5   9
BRANCH   8  14
ATOM     14  O   UNL A   1      19.071  -1.795  29.647  1.00  0.00    -0.358 OA
ATOM     15  H   UNL A   1      19.424  -0.995  29.308  1.00  0.00     0.217 HD
ENDBRANCH   8  14
ENDBRANCH   1   3
TORSDOF 4
ENDMDL
MODEL 6
REMARK VINA RESULT:      -6.6      1.552      5.772
REMARK  4 active torsions:
REMARK  status: ('A' for Active; 'I' for Inactive)
REMARK    1  A    between atoms: O_1  and  C_8 
REMARK    2  A    between atoms: O_2  and  C_9 
REMARK    3  A    between atoms: C_5  and  C_11 
REMARK    4  A    between atoms: C_12  and  C_13 
ROOT
ATOM      1  O   UNL A   1      21.656  -0.846  33.166  1.00  0.00    -0.358 OA
ATOM      2  H   UNL A   1      21.473  -0.199  32.513  1.00  0.00     0.217 HD
ENDROOT
BRANCH   1   3
ATOM      3  C   UNL A   1      21.596  -2.169  32.849  1.00  0.00     0.099 A 
ATOM      4  C   UNL A   1      20.980  -2.564  31.661  1.00  0.00     0.050 A 
ATOM      5  C   UNL A   1      20.915  -3.916  31.325  1.00  0.00    -0.033 A 
ATOM      6  C   UNL A   1      21.467  -4.873  32.176  1.00  0.00     0.014 A 
ATOM      7  C   UNL A   1      22.084  -4.478  33.363  1.00  0.00     0.040 A 
ATOM      8  C   UNL A   1      22.148  -3.126  33.699  1.00  0.00     0.098 A 
BRANCH   5   9
ATOM      9  C   UNL A   1      20.271  -4.328  30.088  1.00  0.00     0.018 C 
ATOM     10  C   UNL A   1      19.371  -3.576  29.459  1.00  0.00     0.085 C 
BRANCH  10  11
ATOM     11  C   UNL A   1      18.763  -4.095  28.217  1.00  0.00     0.198 C 
ATOM     12  O   UNL A   1      18.408  -3.046  27.437  1.00  0.00    -0.645 OA
ATOM     13  O   UNL A   1      18.600  -5.267  27.924  1.00  0.00    -0.645 OA
ENDBRANCH  10  11
ENDBRANCH   5   9
BRANCH   8  14
ATOM     14  O   UNL A   1      22.755  -2.752  34.860  1.00  0.00    -0.358 OA
ATOM     15  H   UNL A   1      23.523  -2.216  34.836  1.00  0.00     0.217 HD
ENDBRANCH   8  14
ENDBRANCH   1   3
TORSDOF 4
ENDMDL
MODEL 7
REMARK VINA RESULT:      -6.4      0.826      2.028
REMARK  4 active torsions:
REMARK  status: ('A' for Active; 'I' for Inactive)
REMARK    1  A    between atoms: O_1  and  C_8 
REMARK    2  A    between atoms: O_2  and  C_9 
REMARK    3  A    between atoms: C_5  and  C_11 
REMARK    4  A    between atoms: C_12  and  C_13 
ROOT
ATOM      1  O   UNL A   1      20.638  -5.626  29.482  1.00  0.00    -0.358 OA
ATOM      2  H   UNL A   1      20.021  -6.314  29.639  1.00  0.00     0.217 HD
ENDROOT
BRANCH   1   3
ATOM      3  C   UNL A   1      20.533  -4.450  30.161  1.00  0.00     0.099 A 
ATOM      4  C   UNL A   1      21.299  -4.249  31.309  1.00  0.00     0.050 A 
ATOM      5  C   UNL A   1      21.202  -3.047  32.011  1.00  0.00    -0.033 A 
ATOM      6  C   UNL A   1      20.339  -2.047  31.564  1.00  0.00     0.014 A 
ATOM      7  C   UNL A   1      19.573  -2.248  30.416  1.00  0.00     0.040 A 
ATOM      8  C   UNL A   1      19.670  -3.450  29.715  1.00  0.00     0.098 A 
BRANCH   5   9
ATOM      9  C   UNL A   1      22.000  -2.839  33.209  1.00  0.00     0.018 C 
ATOM     10  C   UNL A   1      21.779  -1.838  34.057  1.00  0.00     0.085 C 
BRANCH  10  11
ATOM     11  C   UNL A   1      22.659  -1.705  35.235  1.00  0.00     0.198 C 
ATOM     12  O   UNL A   1      22.014  -2.204  36.317  1.00  0.00    -0.645 OA
ATOM     13  O   UNL A   1      23.781  -1.228  35.253  1.00  0.00    -0.645 OA
ENDBRANCH  10  11
ENDBRANCH   5   9
BRANCH   8  14
ATOM     14  O   UNL A   1      18.918  -3.634  28.594  1.00  0.00    -0.358 OA
ATOM     15  H   UNL A   1      18.980  -4.437  28.115  1.00  0.00     0.217 HD
ENDBRANCH   8  14
ENDBRANCH   1   3
TORSDOF 4
ENDMDL
MODEL 8
REMARK VINA RESULT:      -6.2      2.412      5.487
REMARK  4 active torsions:
REMARK  status: ('A' for Active; 'I' for Inactive)
REMARK    1  A    between atoms: O_1  and  C_8 
REMARK    2  A    between atoms: O_2  and  C_9 
REMARK    3  A    between atoms: C_5  and  C_11 
REMARK    4  A    between atoms: C_12  and  C_13 
ROOT
ATOM      1  O   UNL A   1      21.383  -0.766  31.438  1.00  0.00    -0.358 OA
ATOM      2  H   UNL A   1      22.067  -0.126  31.443  1.00  0.00     0.217 HD
ENDROOT
BRANCH   1   3
ATOM      3  C   UNL A   1      21.575  -1.971  32.041  1.00  0.00     0.099 A 
ATOM      4  C   UNL A   1      21.432  -3.142  31.297  1.00  0.00     0.050 A 
ATOM      5  C   UNL A   1      21.628  -4.384  31.904  1.00  0.00    -0.033 A 
ATOM      6  C   UNL A   1      21.968  -4.452  33.255  1.00  0.00     0.014 A 
ATOM      7  C   UNL A   1      22.111  -3.281  33.999  1.00  0.00     0.040 A 
ATOM      8  C   UNL A   1      21.915  -2.041  33.392  1.00  0.00     0.098 A 
BRANCH   5   9
ATOM      9  C   UNL A   1      21.478  -5.604  31.128  1.00  0.00     0.018 C 
ATOM     10  C   UNL A   1      22.498  -6.200  30.516  1.00  0.00     0.085 C 
BRANCH  10  11
ATOM     11  C   UNL A   1      22.235  -7.427  29.738  1.00  0.00     0.198 C 
ATOM     12  O   UNL A   1      23.419  -8.004  29.424  1.00  0.00    -0.645 OA
ATOM     13  O   UNL A   1      21.142  -7.865  29.422  1.00  0.00    -0.645 OA
ENDBRANCH  10  11
ENDBRANCH   5   9
BRANCH   8  14
ATOM     14  O   UNL A   1      22.059  -0.905  34.129  1.00  0.00    -0.358 OA
ATOM     15  H   UNL A   1      22.247  -0.961  35.045  1.00  0.00     0.217 HD
ENDBRANCH   8  14
ENDBRANCH   1   3
TORSDOF 4
ENDMDL
MODEL 9
REMARK VINA RESULT:      -6.2      3.921      5.454
REMARK  4 active torsions:
REMARK  status: ('A' for Active; 'I' for Inactive)
REMARK    1  A    between atoms: O_1  and  C_8 
REMARK    2  A    between atoms: O_2  and  C_9 
REMARK    3  A    between atoms: C_5  and  C_11 
REMARK    4  A    between atoms: C_12  and  C_13 
ROOT
ATOM      1  O   UNL A   1      23.609  -7.455  34.977  1.00  0.00    -0.358 OA
ATOM      2  H   UNL A   1      24.115  -6.867  35.502  1.00  0.00     0.217 HD
ENDROOT
BRANCH   1   3
ATOM      3  C   UNL A   1      23.430  -7.202  33.651  1.00  0.00     0.099 A 
ATOM      4  C   UNL A   1      22.676  -6.097  33.258  1.00  0.00     0.050 A 
ATOM      5  C   UNL A   1      22.488  -5.826  31.902  1.00  0.00    -0.033 A 
ATOM      6  C   UNL A   1      23.056  -6.661  30.940  1.00  0.00     0.014 A 
ATOM      7  C   UNL A   1      23.812  -7.766  31.333  1.00  0.00     0.040 A 
ATOM      8  C   UNL A   1      23.998  -8.036  32.688  1.00  0.00     0.098 A 
BRANCH   5   9
ATOM      9  C   UNL A   1      21.700  -4.675  31.493  1.00  0.00     0.018 C 
ATOM     10  C   UNL A   1      21.665  -3.542  32.188  1.00  0.00     0.085 C 
BRANCH  10  11
ATOM     11  C   UNL A   1      20.818  -2.437  31.695  1.00  0.00     0.198 C 
ATOM     12  O   UNL A   1      21.185  -1.295  32.323  1.00  0.00    -0.645 OA
ATOM     13  O   UNL A   1      19.931  -2.519  30.861  1.00  0.00    -0.645 OA
ENDBRANCH  10  11
ENDBRANCH   5   9
BRANCH   8  14
ATOM     14  O   UNL A   1      24.739  -9.117  33.059  1.00  0.00    -0.358 OA
ATOM     15  H   UNL A   1      24.950  -9.253  33.962  1.00  0.00     0.217 HD
ENDBRANCH   8  14
ENDBRANCH   1   3
TORSDOF 4
ENDMDL
