MODEL 1
REMARK VINA RESULT:     -17.7      0.000      0.000
REMARK  3 active torsions:
REMARK  status: ('A' for Active; 'I' for Inactive)
REMARK    1  A    between atoms: C_3  and  C_4 
REMARK    2  A    between atoms: C_3  and  C_5 
REMARK    3  A    between atoms: C_5  and  C_10 
ROOT
HETATM    1  O   UNL     1     -55.342  47.562   8.515  1.00  0.00    -0.648 OA
HETATM    2  O   UNL     1     -54.057  47.491   6.643  1.00  0.00    -0.648 OA
HETATM    3  C   UNL     1     -54.248  47.890   7.785  1.00  0.00     0.172 C 
ENDROOT
BRANCH   3   4
HETATM    4  C   UNL     1     -53.312  48.822   8.516  1.00  0.00     0.117 C 
BRANCH   4   5
HETATM    5  C   UNL     1     -54.070  49.969   9.194  1.00  0.00     0.049 C 
BRANCH   5   6
HETATM    6  C   UNL     1     -53.830  50.061  10.663  1.00  0.00    -0.058 A 
HETATM    7  C   UNL     1     -53.531  48.910  11.393  1.00  0.00     0.007 A 
HETATM    8  C   UNL     1     -53.306  48.994  12.768  1.00  0.00     0.001 A 
HETATM    9  C   UNL     1     -53.382  50.230  13.411  1.00  0.00     0.000 A 
HETATM   10  C   UNL     1     -53.681  51.380  12.682  1.00  0.00     0.001 A 
HETATM   11  C   UNL     1     -53.905  51.295  11.308  1.00  0.00     0.007 A 
ENDBRANCH   5   6
ENDBRANCH   4   5
ENDBRANCH   3   4
TORSDOF 3
ENDMDL
MODEL 2
REMARK VINA RESULT:     -17.5      3.834      5.401
REMARK  3 active torsions:
REMARK  status: ('A' for Active; 'I' for Inactive)
REMARK    1  A    between atoms: C_3  and  C_4 
REMARK    2  A    between atoms: C_3  and  C_5 
REMARK    3  A    between atoms: C_5  and  C_10 
ROOT
HETATM    1  O   UNL     1     -54.036  48.870  16.008  1.00  0.00    -0.648 OA
HETATM    2  O   UNL     1     -51.775  48.658  15.963  1.00  0.00    -0.648 OA
HETATM    3  C   UNL     1     -52.842  48.776  15.373  1.00  0.00     0.172 C 
ENDROOT
BRANCH   3   4
HETATM    4  C   UNL     1     -52.971  48.801  13.869  1.00  0.00     0.117 C 
BRANCH   4   5
HETATM    5  C   UNL     1     -53.468  50.161  13.366  1.00  0.00     0.049 C 
BRANCH   5   6
HETATM    6  C   UNL     1     -53.687  50.213  11.892  1.00  0.00    -0.058 A 
HETATM    7  C   UNL     1     -53.797  51.444  11.246  1.00  0.00     0.007 A 
HETATM    8  C   UNL     1     -54.001  51.493   9.866  1.00  0.00     0.001 A 
HETATM    9  C   UNL     1     -54.095  50.310   9.134  1.00  0.00     0.000 A 
HETATM   10  C   UNL     1     -53.985  49.079   9.779  1.00  0.00     0.001 A 
HETATM   11  C   UNL     1     -53.780  49.030  11.158  1.00  0.00     0.007 A 
ENDBRANCH   5   6
ENDBRANCH   4   5
ENDBRANCH   3   4
TORSDOF 3
ENDMDL
MODEL 3
REMARK VINA RESULT:     -17.5      0.166      1.465
REMARK  3 active torsions:
REMARK  status: ('A' for Active; 'I' for Inactive)
REMARK    1  A    between atoms: C_3  and  C_4 
REMARK    2  A    between atoms: C_3  and  C_5 
REMARK    3  A    between atoms: C_5  and  C_10 
ROOT
HETATM    1  O   UNL     1     -55.217  47.649   8.496  1.00  0.00    -0.648 OA
HETATM    2  O   UNL     1     -53.910  47.586   6.638  1.00  0.00    -0.648 OA
HETATM    3  C   UNL     1     -54.144  48.026   7.757  1.00  0.00     0.172 C 
ENDROOT
BRANCH   3   4
HETATM    4  C   UNL     1     -53.292  49.066   8.446  1.00  0.00     0.117 C 
BRANCH   4   5
HETATM    5  C   UNL     1     -54.145  50.056   9.247  1.00  0.00     0.049 C 
BRANCH   5   6
HETATM    6  C   UNL     1     -53.860  50.047  10.710  1.00  0.00    -0.058 A 
HETATM    7  C   UNL     1     -53.891  51.239  11.435  1.00  0.00     0.007 A 
HETATM    8  C   UNL     1     -53.625  51.231  12.804  1.00  0.00     0.001 A 
HETATM    9  C   UNL     1     -53.327  50.031  13.449  1.00  0.00     0.000 A 
HETATM   10  C   UNL     1     -53.295  48.839  12.726  1.00  0.00     0.001 A 
HETATM   11  C   UNL     1     -53.563  48.847  11.357  1.00  0.00     0.007 A 
ENDBRANCH   5   6
ENDBRANCH   4   5
ENDBRANCH   3   4
TORSDOF 3
ENDMDL
MODEL 4
REMARK VINA RESULT:     -17.5      3.817      5.204
REMARK  3 active torsions:
REMARK  status: ('A' for Active; 'I' for Inactive)
REMARK    1  A    between atoms: C_3  and  C_4 
REMARK    2  A    between atoms: C_3  and  C_5 
REMARK    3  A    between atoms: C_5  and  C_10 
ROOT
HETATM    1  O   UNL     1     -54.073  48.945  15.976  1.00  0.00    -0.648 OA
HETATM    2  O   UNL     1     -51.813  48.714  15.975  1.00  0.00    -0.648 OA
HETATM    3  C   UNL     1     -52.869  48.823  15.364  1.00  0.00     0.172 C 
ENDROOT
BRANCH   3   4
HETATM    4  C   UNL     1     -52.974  48.804  13.858  1.00  0.00     0.117 C 
BRANCH   4   5
HETATM    5  C   UNL     1     -53.469  50.147  13.307  1.00  0.00     0.049 C 
BRANCH   5   6
HETATM    6  C   UNL     1     -53.676  50.150  11.831  1.00  0.00    -0.058 A 
HETATM    7  C   UNL     1     -53.684  48.946  11.125  1.00  0.00     0.007 A 
HETATM    8  C   UNL     1     -53.878  48.948   9.744  1.00  0.00     0.001 A 
HETATM    9  C   UNL     1     -54.064  50.155   9.068  1.00  0.00     0.000 A 
HETATM   10  C   UNL     1     -54.056  51.358   9.773  1.00  0.00     0.001 A 
HETATM   11  C   UNL     1     -53.863  51.355  11.154  1.00  0.00     0.007 A 
ENDBRANCH   5   6
ENDBRANCH   4   5
ENDBRANCH   3   4
TORSDOF 3
ENDMDL
MODEL 5
REMARK VINA RESULT:     -17.5      1.194      1.558
REMARK  3 active torsions:
REMARK  status: ('A' for Active; 'I' for Inactive)
REMARK    1  A    between atoms: C_3  and  C_4 
REMARK    2  A    between atoms: C_3  and  C_5 
REMARK    3  A    between atoms: C_5  and  C_10 
ROOT
HETATM    1  O   UNL     1     -52.999  49.178   8.270  1.00  0.00    -0.648 OA
HETATM    2  O   UNL     1     -54.794  47.917   7.677  1.00  0.00    -0.648 OA
HETATM    3  C   UNL     1     -54.280  48.754   8.409  1.00  0.00     0.172 C 
ENDROOT
BRANCH   3   4
HETATM    4  C   UNL     1     -54.989  49.398   9.576  1.00  0.00     0.117 C 
BRANCH   4   5
HETATM    5  C   UNL     1     -54.081  50.388  10.315  1.00  0.00     0.049 C 
BRANCH   5   6
HETATM    6  C   UNL     1     -53.670  49.928  11.672  1.00  0.00    -0.058 A 
HETATM    7  C   UNL     1     -53.269  48.606  11.869  1.00  0.00     0.007 A 
HETATM    8  C   UNL     1     -52.884  48.175  13.139  1.00  0.00     0.001 A 
HETATM    9  C   UNL     1     -52.902  49.066  14.212  1.00  0.00     0.000 A 
HETATM   10  C   UNL     1     -53.303  50.387  14.016  1.00  0.00     0.001 A 
HETATM   11  C   UNL     1     -53.687  50.818  12.746  1.00  0.00     0.007 A 
ENDBRANCH   5   6
ENDBRANCH   4   5
ENDBRANCH   3   4
TORSDOF 3
ENDMDL
MODEL 6
REMARK VINA RESULT:     -17.4      1.015      1.061
REMARK  3 active torsions:
REMARK  status: ('A' for Active; 'I' for Inactive)
REMARK    1  A    between atoms: C_3  and  C_4 
REMARK    2  A    between atoms: C_3  and  C_5 
REMARK    3  A    between atoms: C_5  and  C_10 
ROOT
HETATM    1  O   UNL     1     -55.988  46.306   8.831  1.00  0.00    -0.648 OA
HETATM    2  O   UNL     1     -54.298  47.205   7.609  1.00  0.00    -0.648 OA
HETATM    3  C   UNL     1     -55.103  47.287   8.529  1.00  0.00     0.172 C 
ENDROOT
BRANCH   3   4
HETATM    4  C   UNL     1     -55.236  48.496   9.422  1.00  0.00     0.117 C 
BRANCH   4   5
HETATM    5  C   UNL     1     -53.877  49.149   9.699  1.00  0.00     0.049 C 
BRANCH   5   6
HETATM    6  C   UNL     1     -53.679  49.542  11.124  1.00  0.00    -0.058 A 
HETATM    7  C   UNL     1     -53.306  48.583  12.066  1.00  0.00     0.007 A 
HETATM    8  C   UNL     1     -53.120  48.949  13.399  1.00  0.00     0.001 A 
HETATM    9  C   UNL     1     -53.307  50.275  13.790  1.00  0.00     0.000 A 
HETATM   10  C   UNL     1     -53.681  51.234  12.849  1.00  0.00     0.001 A 
HETATM   11  C   UNL     1     -53.866  50.867  11.516  1.00  0.00     0.007 A 
ENDBRANCH   5   6
ENDBRANCH   4   5
ENDBRANCH   3   4
TORSDOF 3
ENDMDL
MODEL 7
REMARK VINA RESULT:     -17.4      1.023      1.796
REMARK  3 active torsions:
REMARK  status: ('A' for Active; 'I' for Inactive)
REMARK    1  A    between atoms: C_3  and  C_4 
REMARK    2  A    between atoms: C_3  and  C_5 
REMARK    3  A    between atoms: C_5  and  C_10 
ROOT
HETATM    1  O   UNL     1     -56.022  46.323   8.868  1.00  0.00    -0.648 OA
HETATM    2  O   UNL     1     -54.371  47.229   7.598  1.00  0.00    -0.648 OA
HETATM    3  C   UNL     1     -55.146  47.306   8.543  1.00  0.00     0.172 C 
ENDROOT
BRANCH   3   4
HETATM    4  C   UNL     1     -55.252  48.511   9.446  1.00  0.00     0.117 C 
BRANCH   4   5
HETATM    5  C   UNL     1     -53.879  49.136   9.721  1.00  0.00     0.049 C 
BRANCH   5   6
HETATM    6  C   UNL     1     -53.680  49.545  11.140  1.00  0.00    -0.058 A 
HETATM    7  C   UNL     1     -53.867  50.876  11.516  1.00  0.00     0.007 A 
HETATM    8  C   UNL     1     -53.681  51.260  12.844  1.00  0.00     0.001 A 
HETATM    9  C   UNL     1     -53.307  50.312  13.797  1.00  0.00     0.000 A 
HETATM   10  C   UNL     1     -53.119  48.982  13.423  1.00  0.00     0.001 A 
HETATM   11  C   UNL     1     -53.306  48.598  12.095  1.00  0.00     0.007 A 
ENDBRANCH   5   6
ENDBRANCH   4   5
ENDBRANCH   3   4
TORSDOF 3
ENDMDL
MODEL 8
REMARK VINA RESULT:     -17.4      0.260      1.003
REMARK  3 active torsions:
REMARK  status: ('A' for Active; 'I' for Inactive)
REMARK    1  A    between atoms: C_3  and  C_4 
REMARK    2  A    between atoms: C_3  and  C_5 
REMARK    3  A    between atoms: C_5  and  C_10 
ROOT
HETATM    1  O   UNL     1     -54.026  47.454   6.842  1.00  0.00    -0.648 OA
HETATM    2  O   UNL     1     -55.382  47.504   8.665  1.00  0.00    -0.648 OA
HETATM    3  C   UNL     1     -54.419  47.940   8.046  1.00  0.00     0.172 C 
ENDROOT
BRANCH   3   4
HETATM    4  C   UNL     1     -53.528  49.048   8.553  1.00  0.00     0.117 C 
BRANCH   4   5
HETATM    5  C   UNL     1     -54.307  50.059   9.401  1.00  0.00     0.049 C 
BRANCH   5   6
HETATM    6  C   UNL     1     -53.940  50.040  10.846  1.00  0.00    -0.058 A 
HETATM    7  C   UNL     1     -53.605  48.835  11.464  1.00  0.00     0.007 A 
HETATM    8  C   UNL     1     -53.261  48.815  12.816  1.00  0.00     0.001 A 
HETATM    9  C   UNL     1     -53.252  50.002  13.549  1.00  0.00     0.000 A 
HETATM   10  C   UNL     1     -53.588  51.207  12.932  1.00  0.00     0.001 A 
HETATM   11  C   UNL     1     -53.931  51.225  11.580  1.00  0.00     0.007 A 
ENDBRANCH   5   6
ENDBRANCH   4   5
ENDBRANCH   3   4
TORSDOF 3
ENDMDL
MODEL 9
REMARK VINA RESULT:     -17.3      1.172      2.052
REMARK  3 active torsions:
REMARK  status: ('A' for Active; 'I' for Inactive)
REMARK    1  A    between atoms: C_3  and  C_4 
REMARK    2  A    between atoms: C_3  and  C_5 
REMARK    3  A    between atoms: C_5  and  C_10 
ROOT
HETATM    1  O   UNL     1     -54.800  47.743   7.831  1.00  0.00    -0.648 OA
HETATM    2  O   UNL     1     -53.022  49.126   8.133  1.00  0.00    -0.648 OA
HETATM    3  C   UNL     1     -54.130  48.731   8.476  1.00  0.00     0.172 C 
ENDROOT
BRANCH   3   4
HETATM    4  C   UNL     1     -54.906  49.309   9.634  1.00  0.00     0.117 C 
BRANCH   4   5
HETATM    5  C   UNL     1     -54.082  50.345  10.408  1.00  0.00     0.049 C 
BRANCH   5   6
HETATM    6  C   UNL     1     -53.663  49.887  11.763  1.00  0.00    -0.058 A 
HETATM    7  C   UNL     1     -53.676  50.780  12.836  1.00  0.00     0.007 A 
HETATM    8  C   UNL     1     -53.285  50.353  14.105  1.00  0.00     0.001 A 
HETATM    9  C   UNL     1     -52.879  49.032  14.301  1.00  0.00     0.000 A 
HETATM   10  C   UNL     1     -52.865  48.139  13.229  1.00  0.00     0.001 A 
HETATM   11  C   UNL     1     -53.258  48.567  11.961  1.00  0.00     0.007 A 
ENDBRANCH   5   6
ENDBRANCH   4   5
ENDBRANCH   3   4
TORSDOF 3
ENDMDL
