MODEL 1
REMARK VINA RESULT:      -3.0      0.000      0.000
REMARK  0 active torsions:
REMARK  status: ('A' for Active; 'I' for Inactive)
ROOT
ATOM      1  O   UNL A   1      32.870  79.333  23.057  1.00  0.00    -0.648 OA
ATOM      2  O   UNL A   1      31.923  81.287  22.337  1.00  0.00    -0.648 OA
ATOM      3  C   UNL A   1      30.647  79.318  22.285  1.00  0.00     0.129 C 
ATOM      4  C   UNL A   1      31.942  80.051  22.590  1.00  0.00     0.168 C 
ENDROOT
TORSDOF 0
ENDMDL
MODEL 2
REMARK VINA RESULT:      -3.0      1.850      2.274
REMARK  0 active torsions:
REMARK  status: ('A' for Active; 'I' for Inactive)
ROOT
ATOM      1  O   UNL A   1      31.581  79.119  20.767  1.00  0.00    -0.648 OA
ATOM      2  O   UNL A   1      30.641  78.573  22.780  1.00  0.00    -0.648 OA
ATOM      3  C   UNL A   1      31.912  80.539  22.613  1.00  0.00     0.129 C 
ATOM      4  C   UNL A   1      31.320  79.287  21.990  1.00  0.00     0.168 C 
ENDROOT
TORSDOF 0
ENDMDL
MODEL 3
REMARK VINA RESULT:      -2.9      1.854      2.096
REMARK  0 active torsions:
REMARK  status: ('A' for Active; 'I' for Inactive)
ROOT
ATOM      1  O   UNL A   1      30.679  78.540  22.782  1.00  0.00    -0.648 OA
ATOM      2  O   UNL A   1      31.554  79.098  20.743  1.00  0.00    -0.648 OA
ATOM      3  C   UNL A   1      31.960  80.502  22.579  1.00  0.00     0.129 C 
ATOM      4  C   UNL A   1      31.335  79.256  21.976  1.00  0.00     0.168 C 
ENDROOT
TORSDOF 0
ENDMDL
MODEL 4
REMARK VINA RESULT:      -2.9     18.289     18.638
REMARK  0 active torsions:
REMARK  status: ('A' for Active; 'I' for Inactive)
ROOT
ATOM      1  O   UNL A   1      39.848  68.518  12.249  1.00  0.00    -0.648 OA
ATOM      2  O   UNL A   1      41.191  67.335  10.824  1.00  0.00    -0.648 OA
ATOM      3  C   UNL A   1      38.953  67.715  10.226  1.00  0.00     0.129 C 
ATOM      4  C   UNL A   1      40.111  67.872  11.197  1.00  0.00     0.168 C 
ENDROOT
TORSDOF 0
ENDMDL
MODEL 5
REMARK VINA RESULT:      -2.7      2.631      3.347
REMARK  0 active torsions:
REMARK  status: ('A' for Active; 'I' for Inactive)
ROOT
ATOM      1  O   UNL A   1      32.883  78.366  22.751  1.00  0.00    -0.648 OA
ATOM      2  O   UNL A   1      32.230  76.244  23.306  1.00  0.00    -0.648 OA
ATOM      3  C   UNL A   1      32.038  76.947  21.075  1.00  0.00     0.129 C 
ATOM      4  C   UNL A   1      32.422  77.214  22.520  1.00  0.00     0.168 C 
ENDROOT
TORSDOF 0
ENDMDL
MODEL 6
REMARK VINA RESULT:      -2.7      3.093      3.210
REMARK  0 active torsions:
REMARK  status: ('A' for Active; 'I' for Inactive)
ROOT
ATOM      1  O   UNL A   1      32.228  76.464  23.210  1.00  0.00    -0.648 OA
ATOM      2  O   UNL A   1      30.402  77.802  22.886  1.00  0.00    -0.648 OA
ATOM      3  C   UNL A   1      31.439  76.823  21.022  1.00  0.00     0.129 C 
ATOM      4  C   UNL A   1      31.349  77.051  22.521  1.00  0.00     0.168 C 
ENDROOT
TORSDOF 0
ENDMDL
MODEL 7
REMARK VINA RESULT:      -2.7      3.082      3.571
REMARK  0 active torsions:
REMARK  status: ('A' for Active; 'I' for Inactive)
ROOT
ATOM      1  O   UNL A   1      30.394  77.844  22.894  1.00  0.00    -0.648 OA
ATOM      2  O   UNL A   1      32.128  76.394  23.252  1.00  0.00    -0.648 OA
ATOM      3  C   UNL A   1      31.443  76.828  21.049  1.00  0.00     0.129 C 
ATOM      4  C   UNL A   1      31.307  77.045  22.546  1.00  0.00     0.168 C 
ENDROOT
TORSDOF 0
ENDMDL
MODEL 8
REMARK VINA RESULT:      -2.5      3.596      3.804
REMARK  0 active torsions:
REMARK  status: ('A' for Active; 'I' for Inactive)
ROOT
ATOM      1  O   UNL A   1      30.480  78.206  18.757  1.00  0.00    -0.648 OA
ATOM      2  O   UNL A   1      31.472  78.960  20.675  1.00  0.00    -0.648 OA
ATOM      3  C   UNL A   1      31.443  76.654  20.240  1.00  0.00     0.129 C 
ATOM      4  C   UNL A   1      31.096  78.081  19.851  1.00  0.00     0.168 C 
ENDROOT
TORSDOF 0
ENDMDL
MODEL 9
REMARK VINA RESULT:      -2.5     12.342     12.691
REMARK  0 active torsions:
REMARK  status: ('A' for Active; 'I' for Inactive)
ROOT
ATOM      1  O   UNL A   1      38.312  72.238  16.038  1.00  0.00    -0.648 OA
ATOM      2  O   UNL A   1      38.211  71.025  14.100  1.00  0.00    -0.648 OA
ATOM      3  C   UNL A   1      36.801  72.885  14.354  1.00  0.00     0.129 C 
ATOM      4  C   UNL A   1      37.882  71.958  14.885  1.00  0.00     0.168 C 
ENDROOT
TORSDOF 0
ENDMDL
