MODEL 1
REMARK VINA RESULT:      -3.0      0.000      0.000
REMARK  0 active torsions:
REMARK  status: ('A' for Active; 'I' for Inactive)
ROOT
ATOM      1  O   UNL A   1      31.859  81.306  22.459  1.00  0.00    -0.648 OA
ATOM      2  O   UNL A   1      32.973  79.446  23.189  1.00  0.00    -0.648 OA
ATOM      3  C   UNL A   1      30.912  79.183  22.096  1.00  0.00     0.129 C 
ATOM      4  C   UNL A   1      32.024  80.067  22.634  1.00  0.00     0.168 C 
ENDROOT
TORSDOF 0
ENDMDL
MODEL 2
REMARK VINA RESULT:      -3.0      1.904      2.162
REMARK  0 active torsions:
REMARK  status: ('A' for Active; 'I' for Inactive)
ROOT
ATOM      1  O   UNL A   1      31.579  79.117  20.771  1.00  0.00    -0.648 OA
ATOM      2  O   UNL A   1      30.644  78.566  22.784  1.00  0.00    -0.648 OA
ATOM      3  C   UNL A   1      31.902  80.540  22.616  1.00  0.00     0.129 C 
ATOM      4  C   UNL A   1      31.318  79.284  21.994  1.00  0.00     0.168 C 
ENDROOT
TORSDOF 0
ENDMDL
MODEL 3
REMARK VINA RESULT:      -2.9      1.899      2.335
REMARK  0 active torsions:
REMARK  status: ('A' for Active; 'I' for Inactive)
ROOT
ATOM      1  O   UNL A   1      30.695  78.520  22.771  1.00  0.00    -0.648 OA
ATOM      2  O   UNL A   1      31.584  79.118  20.749  1.00  0.00    -0.648 OA
ATOM      3  C   UNL A   1      31.912  80.526  22.598  1.00  0.00     0.129 C 
ATOM      4  C   UNL A   1      31.340  79.262  21.980  1.00  0.00     0.168 C 
ENDROOT
TORSDOF 0
ENDMDL
MODEL 4
REMARK VINA RESULT:      -2.9     18.180     18.581
REMARK  0 active torsions:
REMARK  status: ('A' for Active; 'I' for Inactive)
ROOT
ATOM      1  O   UNL A   1      39.853  68.514  12.252  1.00  0.00    -0.648 OA
ATOM      2  O   UNL A   1      41.191  67.332  10.821  1.00  0.00    -0.648 OA
ATOM      3  C   UNL A   1      38.952  67.716  10.230  1.00  0.00     0.129 C 
ATOM      4  C   UNL A   1      40.113  67.870  11.197  1.00  0.00     0.168 C 
ENDROOT
TORSDOF 0
ENDMDL
MODEL 5
REMARK VINA RESULT:      -2.7      2.511      3.271
REMARK  0 active torsions:
REMARK  status: ('A' for Active; 'I' for Inactive)
ROOT
ATOM      1  O   UNL A   1      32.243  76.269  23.272  1.00  0.00    -0.648 OA
ATOM      2  O   UNL A   1      32.823  78.411  22.717  1.00  0.00    -0.648 OA
ATOM      3  C   UNL A   1      32.008  76.982  21.043  1.00  0.00     0.129 C 
ATOM      4  C   UNL A   1      32.396  77.245  22.487  1.00  0.00     0.168 C 
ENDROOT
TORSDOF 0
ENDMDL
MODEL 6
REMARK VINA RESULT:      -2.7      2.522      2.958
REMARK  0 active torsions:
REMARK  status: ('A' for Active; 'I' for Inactive)
ROOT
ATOM      1  O   UNL A   1      32.684  78.457  22.616  1.00  0.00    -0.648 OA
ATOM      2  O   UNL A   1      32.292  76.299  23.264  1.00  0.00    -0.648 OA
ATOM      3  C   UNL A   1      32.011  76.878  21.007  1.00  0.00     0.129 C 
ATOM      4  C   UNL A   1      32.364  77.250  22.437  1.00  0.00     0.168 C 
ENDROOT
TORSDOF 0
ENDMDL
MODEL 7
REMARK VINA RESULT:      -2.7      3.058      3.507
REMARK  0 active torsions:
REMARK  status: ('A' for Active; 'I' for Inactive)
ROOT
ATOM      1  O   UNL A   1      32.250  76.513  23.186  1.00  0.00    -0.648 OA
ATOM      2  O   UNL A   1      30.422  77.848  22.856  1.00  0.00    -0.648 OA
ATOM      3  C   UNL A   1      31.434  76.825  21.002  1.00  0.00     0.129 C 
ATOM      4  C   UNL A   1      31.363  77.087  22.496  1.00  0.00     0.168 C 
ENDROOT
TORSDOF 0
ENDMDL
MODEL 8
REMARK VINA RESULT:      -2.6      2.152      2.299
REMARK  0 active torsions:
REMARK  status: ('A' for Active; 'I' for Inactive)
ROOT
ATOM      1  O   UNL A   1      30.285  78.343  22.843  1.00  0.00    -0.648 OA
ATOM      2  O   UNL A   1      32.536  78.094  22.518  1.00  0.00    -0.648 OA
ATOM      3  C   UNL A   1      31.120  78.191  20.649  1.00  0.00     0.129 C 
ATOM      4  C   UNL A   1      31.333  78.212  22.152  1.00  0.00     0.168 C 
ENDROOT
TORSDOF 0
ENDMDL
MODEL 9
REMARK VINA RESULT:      -2.6      2.000      2.062
REMARK  0 active torsions:
REMARK  status: ('A' for Active; 'I' for Inactive)
ROOT
ATOM      1  O   UNL A   1      31.530  79.054  20.664  1.00  0.00    -0.648 OA
ATOM      2  O   UNL A   1      31.824  79.656  22.852  1.00  0.00    -0.648 OA
ATOM      3  C   UNL A   1      32.373  77.472  22.189  1.00  0.00     0.129 C 
ATOM      4  C   UNL A   1      31.857  78.865  21.868  1.00  0.00     0.168 C 
ENDROOT
TORSDOF 0
ENDMDL
