MODEL 1
REMARK VINA RESULT:      -3.0      0.000      0.000
REMARK  0 active torsions:
REMARK  status: ('A' for Active; 'I' for Inactive)
ROOT
ATOM      1  O   UNL A   1      31.859  81.305  22.463  1.00  0.00    -0.648 OA
ATOM      2  O   UNL A   1      32.975  79.445  23.190  1.00  0.00    -0.648 OA
ATOM      3  C   UNL A   1      30.918  79.181  22.090  1.00  0.00     0.129 C 
ATOM      4  C   UNL A   1      32.026  80.066  22.634  1.00  0.00     0.168 C 
ENDROOT
TORSDOF 0
ENDMDL
MODEL 2
REMARK VINA RESULT:      -3.0      1.911      2.320
REMARK  0 active torsions:
REMARK  status: ('A' for Active; 'I' for Inactive)
ROOT
ATOM      1  O   UNL A   1      30.600  78.593  22.784  1.00  0.00    -0.648 OA
ATOM      2  O   UNL A   1      31.577  79.121  20.784  1.00  0.00    -0.648 OA
ATOM      3  C   UNL A   1      31.904  80.545  22.620  1.00  0.00     0.129 C 
ATOM      4  C   UNL A   1      31.300  79.296  22.003  1.00  0.00     0.168 C 
ENDROOT
TORSDOF 0
ENDMDL
MODEL 3
REMARK VINA RESULT:      -3.0      1.907      2.166
REMARK  0 active torsions:
REMARK  status: ('A' for Active; 'I' for Inactive)
ROOT
ATOM      1  O   UNL A   1      31.571  79.119  20.758  1.00  0.00    -0.648 OA
ATOM      2  O   UNL A   1      30.646  78.570  22.777  1.00  0.00    -0.648 OA
ATOM      3  C   UNL A   1      31.920  80.534  22.605  1.00  0.00     0.129 C 
ATOM      4  C   UNL A   1      31.320  79.284  21.984  1.00  0.00     0.168 C 
ENDROOT
TORSDOF 0
ENDMDL
MODEL 4
REMARK VINA RESULT:      -2.7      2.516      2.958
REMARK  0 active torsions:
REMARK  status: ('A' for Active; 'I' for Inactive)
ROOT
ATOM      1  O   UNL A   1      32.740  78.447  22.645  1.00  0.00    -0.648 OA
ATOM      2  O   UNL A   1      32.308  76.288  23.268  1.00  0.00    -0.648 OA
ATOM      3  C   UNL A   1      32.013  76.905  21.023  1.00  0.00     0.129 C 
ATOM      4  C   UNL A   1      32.392  77.249  22.453  1.00  0.00     0.168 C 
ENDROOT
TORSDOF 0
ENDMDL
MODEL 5
REMARK VINA RESULT:      -2.7      3.123      3.200
REMARK  0 active torsions:
REMARK  status: ('A' for Active; 'I' for Inactive)
ROOT
ATOM      1  O   UNL A   1      30.363  77.791  22.922  1.00  0.00    -0.648 OA
ATOM      2  O   UNL A   1      32.183  76.446  23.253  1.00  0.00    -0.648 OA
ATOM      3  C   UNL A   1      31.430  76.823  21.062  1.00  0.00     0.129 C 
ATOM      4  C   UNL A   1      31.312  77.043  22.560  1.00  0.00     0.168 C 
ENDROOT
TORSDOF 0
ENDMDL
MODEL 6
REMARK VINA RESULT:      -2.7      2.997      3.412
REMARK  0 active torsions:
REMARK  status: ('A' for Active; 'I' for Inactive)
ROOT
ATOM      1  O   UNL A   1      32.548  76.775  23.007  1.00  0.00    -0.648 OA
ATOM      2  O   UNL A   1      30.460  77.702  22.894  1.00  0.00    -0.648 OA
ATOM      3  C   UNL A   1      31.443  76.871  20.932  1.00  0.00     0.129 C 
ATOM      4  C   UNL A   1      31.490  77.142  22.426  1.00  0.00     0.168 C 
ENDROOT
TORSDOF 0
ENDMDL
MODEL 7
REMARK VINA RESULT:      -2.6      1.960      2.011
REMARK  0 active torsions:
REMARK  status: ('A' for Active; 'I' for Inactive)
ROOT
ATOM      1  O   UNL A   1      31.505  79.086  20.726  1.00  0.00    -0.648 OA
ATOM      2  O   UNL A   1      31.965  79.708  22.879  1.00  0.00    -0.648 OA
ATOM      3  C   UNL A   1      32.398  77.499  22.216  1.00  0.00     0.129 C 
ATOM      4  C   UNL A   1      31.907  78.903  21.908  1.00  0.00     0.168 C 
ENDROOT
TORSDOF 0
ENDMDL
MODEL 8
REMARK VINA RESULT:      -2.5      3.289      3.504
REMARK  0 active torsions:
REMARK  status: ('A' for Active; 'I' for Inactive)
ROOT
ATOM      1  O   UNL A   1      30.492  78.206  19.055  1.00  0.00    -0.648 OA
ATOM      2  O   UNL A   1      31.591  79.139  20.831  1.00  0.00    -0.648 OA
ATOM      3  C   UNL A   1      31.439  76.801  20.687  1.00  0.00     0.129 C 
ATOM      4  C   UNL A   1      31.144  78.185  20.135  1.00  0.00     0.168 C 
ENDROOT
TORSDOF 0
ENDMDL
MODEL 9
REMARK VINA RESULT:      -2.5     12.247     12.675
REMARK  0 active torsions:
REMARK  status: ('A' for Active; 'I' for Inactive)
ROOT
ATOM      1  O   UNL A   1      38.261  71.038  14.083  1.00  0.00    -0.648 OA
ATOM      2  O   UNL A   1      38.227  72.110  16.103  1.00  0.00    -0.648 OA
ATOM      3  C   UNL A   1      36.820  72.873  14.386  1.00  0.00     0.129 C 
ATOM      4  C   UNL A   1      37.874  71.911  14.908  1.00  0.00     0.168 C 
ENDROOT
TORSDOF 0
ENDMDL
