MODEL 1
REMARK VINA RESULT:      -6.2      0.000      0.000
REMARK  6 active torsions:
REMARK  status: ('A' for Active; 'I' for Inactive)
REMARK    1  A    between atoms: O_1  and  C_5 
REMARK    2  A    between atoms: O_2  and  C_7 
REMARK    3  A    between atoms: O_2  and  C_13 
REMARK    4  A    between atoms: C_4  and  C_5 
REMARK    5  A    between atoms: C_4  and  C_6 
REMARK    6  A    between atoms: C_5  and  C_7 
ROOT
HETATM    1  O   UNL     1      10.380   7.200  12.764  1.00  0.00    -0.385 OA
HETATM    2  H   UNL     1      10.250   7.946  13.371  1.00  0.00     0.210 HD
ENDROOT
BRANCH   1   3
HETATM    3  C   UNL     1      11.320   7.563  11.761  1.00  0.00     0.221 C 
BRANCH   3   4
HETATM    4  C   UNL     1      11.518   6.375  10.818  1.00  0.00     0.080 C 
BRANCH   4   5
HETATM    5  C   UNL     1      12.568   6.651   9.769  1.00  0.00    -0.055 A 
HETATM    6  C   UNL     1      12.179   6.827   8.450  1.00  0.00     0.007 A 
HETATM    7  C   UNL     1      13.148   7.083   7.480  1.00  0.00     0.001 A 
HETATM    8  C   UNL     1      14.493   7.159   7.842  1.00  0.00     0.000 A 
HETATM    9  C   UNL     1      14.869   6.981   9.173  1.00  0.00     0.001 A 
HETATM   10  C   UNL     1      13.899   6.725  10.143  1.00  0.00     0.007 A 
ENDBRANCH   4   5
ENDBRANCH   3   4
BRANCH   3  11
HETATM   11  C   UNL     1      10.757   8.757  11.014  1.00  0.00     0.288 C 
HETATM   12  O   UNL     1       9.744   8.732  10.327  1.00  0.00    -0.262 OA
BRANCH  11  13
HETATM   13  O   UNL     1      11.536   9.853  11.249  1.00  0.00    -0.320 OA
BRANCH  13  14
HETATM   14  C   UNL     1      11.290  10.531  12.485  1.00  0.00     0.174 C 
HETATM   15  C   UNL     1      11.565  12.009  12.300  1.00  0.00     0.034 C 
ENDBRANCH  13  14
ENDBRANCH  11  13
ENDBRANCH   3  11
ENDBRANCH   1   3
TORSDOF 6
ENDMDL
MODEL 2
REMARK VINA RESULT:      -6.2      0.164      1.300
REMARK  6 active torsions:
REMARK  status: ('A' for Active; 'I' for Inactive)
REMARK    1  A    between atoms: O_1  and  C_5 
REMARK    2  A    between atoms: O_2  and  C_7 
REMARK    3  A    between atoms: O_2  and  C_13 
REMARK    4  A    between atoms: C_4  and  C_5 
REMARK    5  A    between atoms: C_4  and  C_6 
REMARK    6  A    between atoms: C_5  and  C_7 
ROOT
HETATM    1  O   UNL     1      10.359   7.111  12.646  1.00  0.00    -0.385 OA
HETATM    2  H   UNL     1       9.588   6.695  12.230  1.00  0.00     0.210 HD
ENDROOT
BRANCH   1   3
HETATM    3  C   UNL     1      11.277   7.520  11.640  1.00  0.00     0.221 C 
BRANCH   3   4
HETATM    4  C   UNL     1      11.517   6.348  10.686  1.00  0.00     0.080 C 
BRANCH   4   5
HETATM    5  C   UNL     1      12.636   6.630   9.712  1.00  0.00    -0.055 A 
HETATM    6  C   UNL     1      13.940   6.693  10.177  1.00  0.00     0.007 A 
HETATM    7  C   UNL     1      14.974   6.954   9.277  1.00  0.00     0.001 A 
HETATM    8  C   UNL     1      14.690   7.147   7.925  1.00  0.00     0.000 A 
HETATM    9  C   UNL     1      13.373   7.080   7.472  1.00  0.00     0.001 A 
HETATM   10  C   UNL     1      12.338   6.820   8.372  1.00  0.00     0.007 A 
ENDBRANCH   4   5
ENDBRANCH   3   4
BRANCH   3  11
HETATM   11  C   UNL     1      10.661   8.696  10.906  1.00  0.00     0.288 C 
HETATM   12  O   UNL     1       9.656   8.632  10.211  1.00  0.00    -0.262 OA
BRANCH  11  13
HETATM   13  O   UNL     1      11.384   9.825  11.163  1.00  0.00    -0.320 OA
BRANCH  13  14
HETATM   14  C   UNL     1      11.071  10.492  12.391  1.00  0.00     0.174 C 
HETATM   15  C   UNL     1      11.491  11.943  12.285  1.00  0.00     0.034 C 
ENDBRANCH  13  14
ENDBRANCH  11  13
ENDBRANCH   3  11
ENDBRANCH   1   3
TORSDOF 6
ENDMDL
MODEL 3
REMARK VINA RESULT:      -6.1      1.348      2.024
REMARK  6 active torsions:
REMARK  status: ('A' for Active; 'I' for Inactive)
REMARK    1  A    between atoms: O_1  and  C_5 
REMARK    2  A    between atoms: O_2  and  C_7 
REMARK    3  A    between atoms: O_2  and  C_13 
REMARK    4  A    between atoms: C_4  and  C_5 
REMARK    5  A    between atoms: C_4  and  C_6 
REMARK    6  A    between atoms: C_5  and  C_7 
ROOT
HETATM    1  O   UNL     1      10.532   6.767  12.421  1.00  0.00    -0.385 OA
HETATM    2  H   UNL     1      10.725   6.662  13.366  1.00  0.00     0.210 HD
ENDROOT
BRANCH   1   3
HETATM    3  C   UNL     1      11.153   7.951  11.938  1.00  0.00     0.221 C 
BRANCH   3   4
HETATM    4  C   UNL     1      10.628   8.245  10.531  1.00  0.00     0.080 C 
BRANCH   4   5
HETATM    5  C   UNL     1      11.623   7.864   9.463  1.00  0.00    -0.055 A 
HETATM    6  C   UNL     1      12.936   8.298   9.572  1.00  0.00     0.007 A 
HETATM    7  C   UNL     1      13.856   7.947   8.585  1.00  0.00     0.001 A 
HETATM    8  C   UNL     1      13.452   7.167   7.501  1.00  0.00     0.000 A 
HETATM    9  C   UNL     1      12.129   6.738   7.404  1.00  0.00     0.001 A 
HETATM   10  C   UNL     1      11.208   7.089   8.392  1.00  0.00     0.007 A 
ENDBRANCH   4   5
ENDBRANCH   3   4
BRANCH   3  11
HETATM   11  C   UNL     1      10.802   9.076  12.892  1.00  0.00     0.288 C 
HETATM   12  O   UNL     1      10.580   8.932  14.086  1.00  0.00    -0.262 OA
BRANCH  11  13
HETATM   13  O   UNL     1      10.799  10.264  12.217  1.00  0.00    -0.320 OA
BRANCH  13  14
HETATM   14  C   UNL     1      11.898  11.136  12.499  1.00  0.00     0.174 C 
HETATM   15  C   UNL     1      11.481  12.563  12.210  1.00  0.00     0.034 C 
ENDBRANCH  13  14
ENDBRANCH  11  13
ENDBRANCH   3  11
ENDBRANCH   1   3
TORSDOF 6
ENDMDL
MODEL 4
REMARK VINA RESULT:      -5.9      2.388      4.674
REMARK  6 active torsions:
REMARK  status: ('A' for Active; 'I' for Inactive)
REMARK    1  A    between atoms: O_1  and  C_5 
REMARK    2  A    between atoms: O_2  and  C_7 
REMARK    3  A    between atoms: O_2  and  C_13 
REMARK    4  A    between atoms: C_4  and  C_5 
REMARK    5  A    between atoms: C_4  and  C_6 
REMARK    6  A    between atoms: C_5  and  C_7 
ROOT
HETATM    1  O   UNL     1       9.769   6.224   7.817  1.00  0.00    -0.385 OA
HETATM    2  H   UNL     1       9.257   6.032   8.618  1.00  0.00     0.210 HD
ENDROOT
BRANCH   1   3
HETATM    3  C   UNL     1      10.876   7.052   8.149  1.00  0.00     0.221 C 
BRANCH   3   4
HETATM    4  C   UNL     1      11.413   6.629   9.519  1.00  0.00     0.080 C 
BRANCH   4   5
HETATM    5  C   UNL     1      11.611   7.809  10.439  1.00  0.00    -0.055 A 
HETATM    6  C   UNL     1      10.607   8.759  10.550  1.00  0.00     0.007 A 
HETATM    7  C   UNL     1      10.789   9.849  11.401  1.00  0.00     0.001 A 
HETATM    8  C   UNL     1      11.973   9.976  12.129  1.00  0.00     0.000 A 
HETATM    9  C   UNL     1      12.973   9.012  12.007  1.00  0.00     0.001 A 
HETATM   10  C   UNL     1      12.791   7.921  11.156  1.00  0.00     0.007 A 
ENDBRANCH   4   5
ENDBRANCH   3   4
BRANCH   3  11
HETATM   11  C   UNL     1      11.930   6.865   7.075  1.00  0.00     0.288 C 
HETATM   12  O   UNL     1      11.819   6.114   6.115  1.00  0.00    -0.262 OA
BRANCH  11  13
HETATM   13  O   UNL     1      12.997   7.677   7.334  1.00  0.00    -0.320 OA
BRANCH  13  14
HETATM   14  C   UNL     1      14.284   7.065   7.201  1.00  0.00     0.174 C 
HETATM   15  C   UNL     1      14.959   7.037   8.556  1.00  0.00     0.034 C 
ENDBRANCH  13  14
ENDBRANCH  11  13
ENDBRANCH   3  11
ENDBRANCH   1   3
TORSDOF 6
ENDMDL
MODEL 5
REMARK VINA RESULT:      -5.8      2.408      4.064
REMARK  6 active torsions:
REMARK  status: ('A' for Active; 'I' for Inactive)
REMARK    1  A    between atoms: O_1  and  C_5 
REMARK    2  A    between atoms: O_2  and  C_7 
REMARK    3  A    between atoms: O_2  and  C_13 
REMARK    4  A    between atoms: C_4  and  C_5 
REMARK    5  A    between atoms: C_4  and  C_6 
REMARK    6  A    between atoms: C_5  and  C_7 
ROOT
HETATM    1  O   UNL     1      11.878   8.833  10.240  1.00  0.00    -0.385 OA
HETATM    2  H   UNL     1      11.610   9.689   9.873  1.00  0.00     0.210 HD
ENDROOT
BRANCH   1   3
HETATM    3  C   UNL     1      11.924   7.865   9.199  1.00  0.00     0.221 C 
BRANCH   3   4
HETATM    4  C   UNL     1      12.850   6.724   9.627  1.00  0.00     0.080 C 
BRANCH   4   5
HETATM    5  C   UNL     1      14.228   6.856   9.024  1.00  0.00    -0.055 A 
HETATM    6  C   UNL     1      15.341   6.723   9.840  1.00  0.00     0.007 A 
HETATM    7  C   UNL     1      16.614   6.844   9.283  1.00  0.00     0.001 A 
HETATM    8  C   UNL     1      16.757   7.098   7.919  1.00  0.00     0.000 A 
HETATM    9  C   UNL     1      15.628   7.229   7.111  1.00  0.00     0.001 A 
HETATM   10  C   UNL     1      14.355   7.107   7.667  1.00  0.00     0.007 A 
ENDBRANCH   4   5
ENDBRANCH   3   4
BRANCH   3  11
HETATM   11  C   UNL     1      10.511   7.359   8.979  1.00  0.00     0.288 C 
HETATM   12  O   UNL     1       9.521   7.790   9.555  1.00  0.00    -0.262 OA
BRANCH  11  13
HETATM   13  O   UNL     1      10.519   6.378   8.030  1.00  0.00    -0.320 OA
BRANCH  13  14
HETATM   14  C   UNL     1      10.576   6.832   6.673  1.00  0.00     0.174 C 
HETATM   15  C   UNL     1      10.904   5.658   5.775  1.00  0.00     0.034 C 
ENDBRANCH  13  14
ENDBRANCH  11  13
ENDBRANCH   3  11
ENDBRANCH   1   3
TORSDOF 6
ENDMDL
MODEL 6
REMARK VINA RESULT:      -5.8      1.386      2.207
REMARK  6 active torsions:
REMARK  status: ('A' for Active; 'I' for Inactive)
REMARK    1  A    between atoms: O_1  and  C_5 
REMARK    2  A    between atoms: O_2  and  C_7 
REMARK    3  A    between atoms: O_2  and  C_13 
REMARK    4  A    between atoms: C_4  and  C_5 
REMARK    5  A    between atoms: C_4  and  C_6 
REMARK    6  A    between atoms: C_5  and  C_7 
ROOT
HETATM    1  O   UNL     1      13.669   8.747  12.994  1.00  0.00    -0.385 OA
HETATM    2  H   UNL     1      14.486   8.299  12.722  1.00  0.00     0.210 HD
ENDROOT
BRANCH   1   3
HETATM    3  C   UNL     1      12.729   8.706  11.929  1.00  0.00     0.221 C 
BRANCH   3   4
HETATM    4  C   UNL     1      12.538   7.251  11.495  1.00  0.00     0.080 C 
BRANCH   4   5
HETATM    5  C   UNL     1      12.384   7.120   9.999  1.00  0.00    -0.055 A 
HETATM    6  C   UNL     1      13.516   7.125   9.198  1.00  0.00     0.007 A 
HETATM    7  C   UNL     1      13.375   7.004   7.815  1.00  0.00     0.001 A 
HETATM    8  C   UNL     1      12.104   6.880   7.253  1.00  0.00     0.000 A 
HETATM    9  C   UNL     1      10.975   6.877   8.071  1.00  0.00     0.001 A 
HETATM   10  C   UNL     1      11.117   6.998   9.454  1.00  0.00     0.007 A 
ENDBRANCH   4   5
ENDBRANCH   3   4
BRANCH   3  11
HETATM   11  C   UNL     1      11.428   9.292  12.440  1.00  0.00     0.288 C 
HETATM   12  O   UNL     1      10.684   8.740  13.240  1.00  0.00    -0.262 OA
BRANCH  11  13
HETATM   13  O   UNL     1      11.235  10.528  11.893  1.00  0.00    -0.320 OA
BRANCH  13  14
HETATM   14  C   UNL     1      11.954  11.598  12.517  1.00  0.00     0.174 C 
HETATM   15  C   UNL     1      11.317  12.914  12.124  1.00  0.00     0.034 C 
ENDBRANCH  13  14
ENDBRANCH  11  13
ENDBRANCH   3  11
ENDBRANCH   1   3
TORSDOF 6
ENDMDL
MODEL 7
REMARK VINA RESULT:      -5.8      1.400      2.332
REMARK  6 active torsions:
REMARK  status: ('A' for Active; 'I' for Inactive)
REMARK    1  A    between atoms: O_1  and  C_5 
REMARK    2  A    between atoms: O_2  and  C_7 
REMARK    3  A    between atoms: O_2  and  C_13 
REMARK    4  A    between atoms: C_4  and  C_5 
REMARK    5  A    between atoms: C_4  and  C_6 
REMARK    6  A    between atoms: C_5  and  C_7 
ROOT
HETATM    1  O   UNL     1       9.869   8.634  10.383  1.00  0.00    -0.385 OA
HETATM    2  H   UNL     1       9.032   8.162  10.515  1.00  0.00     0.210 HD
ENDROOT
BRANCH   1   3
HETATM    3  C   UNL     1      10.783   8.273  11.410  1.00  0.00     0.221 C 
BRANCH   3   4
HETATM    4  C   UNL     1      11.515   6.996  10.991  1.00  0.00     0.080 C 
BRANCH   4   5
HETATM    5  C   UNL     1      11.521   6.810   9.493  1.00  0.00    -0.055 A 
HETATM    6  C   UNL     1      12.628   7.216   8.764  1.00  0.00     0.007 A 
HETATM    7  C   UNL     1      12.634   7.045   7.379  1.00  0.00     0.001 A 
HETATM    8  C   UNL     1      11.534   6.470   6.743  1.00  0.00     0.000 A 
HETATM    9  C   UNL     1      10.428   6.066   7.490  1.00  0.00     0.001 A 
HETATM   10  C   UNL     1      10.421   6.237   8.875  1.00  0.00     0.007 A 
ENDBRANCH   4   5
ENDBRANCH   3   4
BRANCH   3  11
HETATM   11  C   UNL     1      11.758   9.421  11.583  1.00  0.00     0.288 C 
HETATM   12  O   UNL     1      12.958   9.355  11.352  1.00  0.00    -0.262 OA
BRANCH  11  13
HETATM   13  O   UNL     1      11.087  10.533  12.005  1.00  0.00    -0.320 OA
BRANCH  13  14
HETATM   14  C   UNL     1      11.901  11.574  12.555  1.00  0.00     0.174 C 
HETATM   15  C   UNL     1      11.341  12.914  12.128  1.00  0.00     0.034 C 
ENDBRANCH  13  14
ENDBRANCH  11  13
ENDBRANCH   3  11
ENDBRANCH   1   3
TORSDOF 6
ENDMDL
MODEL 8
REMARK VINA RESULT:      -5.8      1.174      1.585
REMARK  6 active torsions:
REMARK  status: ('A' for Active; 'I' for Inactive)
REMARK    1  A    between atoms: O_1  and  C_5 
REMARK    2  A    between atoms: O_2  and  C_7 
REMARK    3  A    between atoms: O_2  and  C_13 
REMARK    4  A    between atoms: C_4  and  C_5 
REMARK    5  A    between atoms: C_4  and  C_6 
REMARK    6  A    between atoms: C_5  and  C_7 
ROOT
HETATM    1  O   UNL     1      10.103   5.712  10.341  1.00  0.00    -0.385 OA
HETATM    2  H   UNL     1       9.378   6.049  10.890  1.00  0.00     0.210 HD
ENDROOT
BRANCH   1   3
HETATM    3  C   UNL     1      11.122   6.698  10.246  1.00  0.00     0.221 C 
BRANCH   3   4
HETATM    4  C   UNL     1      11.672   6.701   8.817  1.00  0.00     0.080 C 
BRANCH   4   5
HETATM    5  C   UNL     1      13.175   6.836   8.787  1.00  0.00    -0.055 A 
HETATM    6  C   UNL     1      13.808   7.114   7.585  1.00  0.00     0.007 A 
HETATM    7  C   UNL     1      15.197   7.239   7.557  1.00  0.00     0.001 A 
HETATM    8  C   UNL     1      15.934   7.083   8.731  1.00  0.00     0.000 A 
HETATM    9  C   UNL     1      15.284   6.804   9.932  1.00  0.00     0.001 A 
HETATM   10  C   UNL     1      13.895   6.680   9.961  1.00  0.00     0.007 A 
ENDBRANCH   4   5
ENDBRANCH   3   4
BRANCH   3  11
HETATM   11  C   UNL     1      10.501   8.038  10.588  1.00  0.00     0.288 C 
HETATM   12  O   UNL     1       9.621   8.583   9.934  1.00  0.00    -0.262 OA
BRANCH  11  13
HETATM   13  O   UNL     1      11.054   8.518  11.740  1.00  0.00    -0.320 OA
BRANCH  13  14
HETATM   14  C   UNL     1      12.045   9.537  11.570  1.00  0.00     0.174 C 
HETATM   15  C   UNL     1      11.533  10.828  12.175  1.00  0.00     0.034 C 
ENDBRANCH  13  14
ENDBRANCH  11  13
ENDBRANCH   3  11
ENDBRANCH   1   3
TORSDOF 6
ENDMDL
MODEL 9
REMARK VINA RESULT:      -5.6      2.136      3.825
REMARK  6 active torsions:
REMARK  status: ('A' for Active; 'I' for Inactive)
REMARK    1  A    between atoms: O_1  and  C_5 
REMARK    2  A    between atoms: O_2  and  C_7 
REMARK    3  A    between atoms: O_2  and  C_13 
REMARK    4  A    between atoms: C_4  and  C_5 
REMARK    5  A    between atoms: C_4  and  C_6 
REMARK    6  A    between atoms: C_5  and  C_7 
ROOT
HETATM    1  O   UNL     1       9.390   8.084   9.945  1.00  0.00    -0.385 OA
HETATM    2  H   UNL     1       8.725   8.095   9.240  1.00  0.00     0.210 HD
ENDROOT
BRANCH   1   3
HETATM    3  C   UNL     1      10.595   7.514   9.451  1.00  0.00     0.221 C 
BRANCH   3   4
HETATM    4  C   UNL     1      11.758   7.981  10.330  1.00  0.00     0.080 C 
BRANCH   4   5
HETATM    5  C   UNL     1      13.098   7.614   9.741  1.00  0.00    -0.055 A 
HETATM    6  C   UNL     1      13.356   7.903   8.409  1.00  0.00     0.007 A 
HETATM    7  C   UNL     1      14.594   7.564   7.864  1.00  0.00     0.001 A 
HETATM    8  C   UNL     1      15.558   6.940   8.656  1.00  0.00     0.000 A 
HETATM    9  C   UNL     1      15.284   6.655   9.994  1.00  0.00     0.001 A 
HETATM   10  C   UNL     1      14.045   6.994  10.539  1.00  0.00     0.007 A 
ENDBRANCH   4   5
ENDBRANCH   3   4
BRANCH   3  11
HETATM   11  C   UNL     1      10.449   6.006   9.506  1.00  0.00     0.288 C 
HETATM   12  O   UNL     1      10.433   5.346  10.537  1.00  0.00    -0.262 OA
BRANCH  11  13
HETATM   13  O   UNL     1      10.312   5.513   8.240  1.00  0.00    -0.320 OA
BRANCH  13  14
HETATM   14  C   UNL     1      10.449   6.472   7.186  1.00  0.00     0.174 C 
HETATM   15  C   UNL     1      10.833   5.750   5.911  1.00  0.00     0.034 C 
ENDBRANCH  13  14
ENDBRANCH  11  13
ENDBRANCH   3  11
ENDBRANCH   1   3
TORSDOF 6
ENDMDL
