MODEL 1
REMARK VINA RESULT:      -6.3      0.000      0.000
REMARK  6 active torsions:
REMARK  status: ('A' for Active; 'I' for Inactive)
REMARK    1  A    between atoms: O_1  and  C_5 
REMARK    2  A    between atoms: O_2  and  C_7 
REMARK    3  A    between atoms: O_2  and  C_13 
REMARK    4  A    between atoms: C_4  and  C_5 
REMARK    5  A    between atoms: C_4  and  C_6 
REMARK    6  A    between atoms: C_5  and  C_7 
ROOT
HETATM    1  O   UNL     1      10.326   7.180  12.691  1.00  0.00    -0.385 OA
HETATM    2  H   UNL     1       9.817   7.955  12.975  1.00  0.00     0.210 HD
ENDROOT
BRANCH   1   3
HETATM    3  C   UNL     1      11.239   7.560  11.670  1.00  0.00     0.221 C 
BRANCH   3   4
HETATM    4  C   UNL     1      11.504   6.350  10.771  1.00  0.00     0.080 C 
BRANCH   4   5
HETATM    5  C   UNL     1      12.563   6.635   9.734  1.00  0.00    -0.055 A 
HETATM    6  C   UNL     1      13.890   6.729  10.126  1.00  0.00     0.007 A 
HETATM    7  C   UNL     1      14.869   6.992   9.168  1.00  0.00     0.001 A 
HETATM    8  C   UNL     1      14.509   7.159   7.831  1.00  0.00     0.000 A 
HETATM    9  C   UNL     1      13.171   7.062   7.451  1.00  0.00     0.001 A 
HETATM   10  C   UNL     1      12.191   6.799   8.409  1.00  0.00     0.007 A 
ENDBRANCH   4   5
ENDBRANCH   3   4
BRANCH   3  11
HETATM   11  C   UNL     1      10.605   8.689  10.882  1.00  0.00     0.288 C 
HETATM   12  O   UNL     1       9.588   8.583  10.210  1.00  0.00    -0.262 OA
BRANCH  11  13
HETATM   13  O   UNL     1      11.326   9.835  11.062  1.00  0.00    -0.320 OA
BRANCH  13  14
HETATM   14  C   UNL     1      11.202  10.446  12.350  1.00  0.00     0.174 C 
HETATM   15  C   UNL     1      11.399  11.941  12.206  1.00  0.00     0.034 C 
ENDBRANCH  13  14
ENDBRANCH  11  13
ENDBRANCH   3  11
ENDBRANCH   1   3
TORSDOF 6
ENDMDL
MODEL 2
REMARK VINA RESULT:      -6.3      0.472      1.371
REMARK  6 active torsions:
REMARK  status: ('A' for Active; 'I' for Inactive)
REMARK    1  A    between atoms: O_1  and  C_5 
REMARK    2  A    between atoms: O_2  and  C_7 
REMARK    3  A    between atoms: O_2  and  C_13 
REMARK    4  A    between atoms: C_4  and  C_5 
REMARK    5  A    between atoms: C_4  and  C_6 
REMARK    6  A    between atoms: C_5  and  C_7 
ROOT
HETATM    1  O   UNL     1      10.372   7.253  12.740  1.00  0.00    -0.385 OA
HETATM    2  H   UNL     1       9.739   7.955  12.959  1.00  0.00     0.210 HD
ENDROOT
BRANCH   1   3
HETATM    3  C   UNL     1      11.171   7.663  11.638  1.00  0.00     0.221 C 
BRANCH   3   4
HETATM    4  C   UNL     1      11.507   6.434  10.789  1.00  0.00     0.080 C 
BRANCH   4   5
HETATM    5  C   UNL     1      12.687   6.677   9.881  1.00  0.00    -0.055 A 
HETATM    6  C   UNL     1      12.473   6.860   8.523  1.00  0.00     0.007 A 
HETATM    7  C   UNL     1      13.564   7.085   7.683  1.00  0.00     0.001 A 
HETATM    8  C   UNL     1      14.854   7.124   8.212  1.00  0.00     0.000 A 
HETATM    9  C   UNL     1      15.054   6.939   9.579  1.00  0.00     0.001 A 
HETATM   10  C   UNL     1      13.963   6.714  10.419  1.00  0.00     0.007 A 
ENDBRANCH   4   5
ENDBRANCH   3   4
BRANCH   3  11
HETATM   11  C   UNL     1      10.368   8.669  10.836  1.00  0.00     0.288 C 
HETATM   12  O   UNL     1       9.607   8.381   9.921  1.00  0.00    -0.262 OA
BRANCH  11  13
HETATM   13  O   UNL     1      10.608   9.927  11.309  1.00  0.00    -0.320 OA
BRANCH  13  14
HETATM   14  C   UNL     1      11.915  10.144  11.852  1.00  0.00     0.174 C 
HETATM   15  C   UNL     1      11.971  11.527  12.465  1.00  0.00     0.034 C 
ENDBRANCH  13  14
ENDBRANCH  11  13
ENDBRANCH   3  11
ENDBRANCH   1   3
TORSDOF 6
ENDMDL
MODEL 3
REMARK VINA RESULT:      -5.9      1.059      1.861
REMARK  6 active torsions:
REMARK  status: ('A' for Active; 'I' for Inactive)
REMARK    1  A    between atoms: O_1  and  C_5 
REMARK    2  A    between atoms: O_2  and  C_7 
REMARK    3  A    between atoms: O_2  and  C_13 
REMARK    4  A    between atoms: C_4  and  C_5 
REMARK    5  A    between atoms: C_4  and  C_6 
REMARK    6  A    between atoms: C_5  and  C_7 
ROOT
HETATM    1  O   UNL     1      10.550   6.644  12.551  1.00  0.00    -0.385 OA
HETATM    2  H   UNL     1      10.178   6.105  11.836  1.00  0.00     0.210 HD
ENDROOT
BRANCH   1   3
HETATM    3  C   UNL     1      11.327   7.697  11.995  1.00  0.00     0.221 C 
BRANCH   3   4
HETATM    4  C   UNL     1      11.005   7.812  10.504  1.00  0.00     0.080 C 
BRANCH   4   5
HETATM    5  C   UNL     1      12.202   7.501   9.639  1.00  0.00    -0.055 A 
HETATM    6  C   UNL     1      12.037   7.389   8.267  1.00  0.00     0.007 A 
HETATM    7  C   UNL     1      13.143   7.101   7.467  1.00  0.00     0.001 A 
HETATM    8  C   UNL     1      14.398   6.928   8.049  1.00  0.00     0.000 A 
HETATM    9  C   UNL     1      14.549   7.043   9.431  1.00  0.00     0.001 A 
HETATM   10  C   UNL     1      13.443   7.331  10.231  1.00  0.00     0.007 A 
ENDBRANCH   4   5
ENDBRANCH   3   4
BRANCH   3  11
HETATM   11  C   UNL     1      10.962   8.974  12.726  1.00  0.00     0.288 C 
HETATM   12  O   UNL     1      10.573   9.025  13.886  1.00  0.00    -0.262 OA
BRANCH  11  13
HETATM   13  O   UNL     1      11.159  10.046  11.903  1.00  0.00    -0.320 OA
BRANCH  13  14
HETATM   14  C   UNL     1      12.000  11.079  12.426  1.00  0.00     0.174 C 
HETATM   15  C   UNL     1      11.323  12.418  12.218  1.00  0.00     0.034 C 
ENDBRANCH  13  14
ENDBRANCH  11  13
ENDBRANCH   3  11
ENDBRANCH   1   3
TORSDOF 6
ENDMDL
MODEL 4
REMARK VINA RESULT:      -5.9      1.433      2.246
REMARK  6 active torsions:
REMARK  status: ('A' for Active; 'I' for Inactive)
REMARK    1  A    between atoms: O_1  and  C_5 
REMARK    2  A    between atoms: O_2  and  C_7 
REMARK    3  A    between atoms: O_2  and  C_13 
REMARK    4  A    between atoms: C_4  and  C_5 
REMARK    5  A    between atoms: C_4  and  C_6 
REMARK    6  A    between atoms: C_5  and  C_7 
ROOT
HETATM    1  O   UNL     1      13.570   8.642  12.973  1.00  0.00    -0.385 OA
HETATM    2  H   UNL     1      13.774   7.723  13.206  1.00  0.00     0.210 HD
ENDROOT
BRANCH   1   3
HETATM    3  C   UNL     1      12.598   8.663  11.936  1.00  0.00     0.221 C 
BRANCH   3   4
HETATM    4  C   UNL     1      12.296   7.223  11.515  1.00  0.00     0.080 C 
BRANCH   4   5
HETATM    5  C   UNL     1      12.252   7.068  10.014  1.00  0.00    -0.055 A 
HETATM    6  C   UNL     1      11.039   6.815   9.393  1.00  0.00     0.007 A 
HETATM    7  C   UNL     1      10.997   6.672   8.006  1.00  0.00     0.001 A 
HETATM    8  C   UNL     1      12.170   6.782   7.259  1.00  0.00     0.000 A 
HETATM    9  C   UNL     1      13.383   7.036   7.897  1.00  0.00     0.001 A 
HETATM   10  C   UNL     1      13.425   7.180   9.285  1.00  0.00     0.007 A 
ENDBRANCH   4   5
ENDBRANCH   3   4
BRANCH   3  11
HETATM   11  C   UNL     1      11.355   9.336  12.484  1.00  0.00     0.288 C 
HETATM   12  O   UNL     1      10.614   8.849  13.328  1.00  0.00    -0.262 OA
BRANCH  11  13
HETATM   13  O   UNL     1      11.212  10.568  11.912  1.00  0.00    -0.320 OA
BRANCH  13  14
HETATM   14  C   UNL     1      11.969  11.622  12.518  1.00  0.00     0.174 C 
HETATM   15  C   UNL     1      11.349  12.952  12.143  1.00  0.00     0.034 C 
ENDBRANCH  13  14
ENDBRANCH  11  13
ENDBRANCH   3  11
ENDBRANCH   1   3
TORSDOF 6
ENDMDL
MODEL 5
REMARK VINA RESULT:      -5.9      1.379      2.138
REMARK  6 active torsions:
REMARK  status: ('A' for Active; 'I' for Inactive)
REMARK    1  A    between atoms: O_1  and  C_5 
REMARK    2  A    between atoms: O_2  and  C_7 
REMARK    3  A    between atoms: O_2  and  C_13 
REMARK    4  A    between atoms: C_4  and  C_5 
REMARK    5  A    between atoms: C_4  and  C_6 
REMARK    6  A    between atoms: C_5  and  C_7 
ROOT
HETATM    1  O   UNL     1       9.859   8.588  10.423  1.00  0.00    -0.385 OA
HETATM    2  H   UNL     1      10.062   9.472  10.079  1.00  0.00     0.210 HD
ENDROOT
BRANCH   1   3
HETATM    3  C   UNL     1      10.813   8.236  11.416  1.00  0.00     0.221 C 
BRANCH   3   4
HETATM    4  C   UNL     1      11.518   6.947  10.985  1.00  0.00     0.080 C 
BRANCH   4   5
HETATM    5  C   UNL     1      11.519   6.774   9.486  1.00  0.00    -0.055 A 
HETATM    6  C   UNL     1      12.627   7.176   8.757  1.00  0.00     0.007 A 
HETATM    7  C   UNL     1      12.629   7.017   7.371  1.00  0.00     0.001 A 
HETATM    8  C   UNL     1      11.521   6.458   6.733  1.00  0.00     0.000 A 
HETATM    9  C   UNL     1      10.413   6.058   7.479  1.00  0.00     0.001 A 
HETATM   10  C   UNL     1      10.412   6.218   8.865  1.00  0.00     0.007 A 
ENDBRANCH   4   5
ENDBRANCH   3   4
BRANCH   3  11
HETATM   11  C   UNL     1      11.802   9.379  11.531  1.00  0.00     0.288 C 
HETATM   12  O   UNL     1      13.017   9.259  11.443  1.00  0.00    -0.262 OA
BRANCH  11  13
HETATM   13  O   UNL     1      11.127  10.551  11.718  1.00  0.00    -0.320 OA
BRANCH  13  14
HETATM   14  C   UNL     1      11.776  11.508  12.563  1.00  0.00     0.174 C 
HETATM   15  C   UNL     1      11.367  12.901  12.133  1.00  0.00     0.034 C 
ENDBRANCH  13  14
ENDBRANCH  11  13
ENDBRANCH   3  11
ENDBRANCH   1   3
TORSDOF 6
ENDMDL
MODEL 6
REMARK VINA RESULT:      -5.8      2.601      3.950
REMARK  6 active torsions:
REMARK  status: ('A' for Active; 'I' for Inactive)
REMARK    1  A    between atoms: O_1  and  C_5 
REMARK    2  A    between atoms: O_2  and  C_7 
REMARK    3  A    between atoms: O_2  and  C_13 
REMARK    4  A    between atoms: C_4  and  C_5 
REMARK    5  A    between atoms: C_4  and  C_6 
REMARK    6  A    between atoms: C_5  and  C_7 
ROOT
HETATM    1  O   UNL     1      11.696   8.645   9.627  1.00  0.00    -0.385 OA
HETATM    2  H   UNL     1      11.151   8.449  10.404  1.00  0.00     0.210 HD
ENDROOT
BRANCH   1   3
HETATM    3  C   UNL     1      12.013   7.435   8.953  1.00  0.00     0.221 C 
BRANCH   3   4
HETATM    4  C   UNL     1      13.105   6.705   9.739  1.00  0.00     0.080 C 
BRANCH   4   5
HETATM    5  C   UNL     1      14.462   6.853   9.095  1.00  0.00    -0.055 A 
HETATM    6  C   UNL     1      15.602   6.673   9.864  1.00  0.00     0.007 A 
HETATM    7  C   UNL     1      16.856   6.811   9.270  1.00  0.00     0.001 A 
HETATM    8  C   UNL     1      16.955   7.126   7.915  1.00  0.00     0.000 A 
HETATM    9  C   UNL     1      15.800   7.303   7.153  1.00  0.00     0.001 A 
HETATM   10  C   UNL     1      14.545   7.166   7.748  1.00  0.00     0.007 A 
ENDBRANCH   4   5
ENDBRANCH   3   4
BRANCH   3  11
HETATM   11  C   UNL     1      10.749   6.600   8.886  1.00  0.00     0.288 C 
HETATM   12  O   UNL     1      10.416   5.772   9.723  1.00  0.00    -0.262 OA
BRANCH  11  13
HETATM   13  O   UNL     1      10.037   6.936   7.769  1.00  0.00    -0.320 OA
BRANCH  13  14
HETATM   14  C   UNL     1      10.797   7.029   6.559  1.00  0.00     0.174 C 
HETATM   15  C   UNL     1      10.820   5.672   5.887  1.00  0.00     0.034 C 
ENDBRANCH  13  14
ENDBRANCH  11  13
ENDBRANCH   3  11
ENDBRANCH   1   3
TORSDOF 6
ENDMDL
MODEL 7
REMARK VINA RESULT:      -5.7      2.443      5.192
REMARK  6 active torsions:
REMARK  status: ('A' for Active; 'I' for Inactive)
REMARK    1  A    between atoms: O_1  and  C_5 
REMARK    2  A    between atoms: O_2  and  C_7 
REMARK    3  A    between atoms: O_2  and  C_13 
REMARK    4  A    between atoms: C_4  and  C_5 
REMARK    5  A    between atoms: C_4  and  C_6 
REMARK    6  A    between atoms: C_5  and  C_7 
ROOT
HETATM    1  O   UNL     1       9.520   6.280   9.102  1.00  0.00    -0.385 OA
HETATM    2  H   UNL     1       9.895   5.391   9.206  1.00  0.00     0.210 HD
ENDROOT
BRANCH   1   3
HETATM    3  C   UNL     1      10.572   7.221   8.932  1.00  0.00     0.221 C 
BRANCH   3   4
HETATM    4  C   UNL     1      11.573   7.053  10.078  1.00  0.00     0.080 C 
BRANCH   4   5
HETATM    5  C   UNL     1      11.715   8.314  10.896  1.00  0.00    -0.055 A 
HETATM    6  C   UNL     1      12.860   8.504  11.655  1.00  0.00     0.007 A 
HETATM    7  C   UNL     1      12.993   9.669  12.411  1.00  0.00     0.001 A 
HETATM    8  C   UNL     1      11.979  10.627  12.398  1.00  0.00     0.000 A 
HETATM    9  C   UNL     1      10.834  10.422  11.630  1.00  0.00     0.001 A 
HETATM   10  C   UNL     1      10.701   9.257  10.874  1.00  0.00     0.007 A 
ENDBRANCH   4   5
ENDBRANCH   3   4
BRANCH   3  11
HETATM   11  C   UNL     1      11.230   6.940   7.595  1.00  0.00     0.288 C 
HETATM   12  O   UNL     1      12.115   7.624   7.098  1.00  0.00    -0.262 OA
BRANCH  11  13
HETATM   13  O   UNL     1      10.703   5.801   7.056  1.00  0.00    -0.320 OA
BRANCH  13  14
HETATM   14  C   UNL     1      10.554   5.805   5.632  1.00  0.00     0.174 C 
HETATM   15  C   UNL     1      11.508   4.792   5.034  1.00  0.00     0.034 C 
ENDBRANCH  13  14
ENDBRANCH  11  13
ENDBRANCH   3  11
ENDBRANCH   1   3
TORSDOF 6
ENDMDL
MODEL 8
REMARK VINA RESULT:      -5.5      2.228      3.237
REMARK  6 active torsions:
REMARK  status: ('A' for Active; 'I' for Inactive)
REMARK    1  A    between atoms: O_1  and  C_5 
REMARK    2  A    between atoms: O_2  and  C_7 
REMARK    3  A    between atoms: O_2  and  C_13 
REMARK    4  A    between atoms: C_4  and  C_5 
REMARK    5  A    between atoms: C_4  and  C_6 
REMARK    6  A    between atoms: C_5  and  C_7 
ROOT
HETATM    1  O   UNL     1      15.598   7.880  11.028  1.00  0.00    -0.385 OA
HETATM    2  H   UNL     1      15.857   7.012  10.681  1.00  0.00     0.210 HD
ENDROOT
BRANCH   1   3
HETATM    3  C   UNL     1      14.183   7.937  11.152  1.00  0.00     0.221 C 
BRANCH   3   4
HETATM    4  C   UNL     1      13.603   6.562  10.809  1.00  0.00     0.080 C 
BRANCH   4   5
HETATM    5  C   UNL     1      12.669   6.620   9.624  1.00  0.00    -0.055 A 
HETATM    6  C   UNL     1      13.173   6.967   8.380  1.00  0.00     0.007 A 
HETATM    7  C   UNL     1      12.311   7.021   7.284  1.00  0.00     0.001 A 
HETATM    8  C   UNL     1      10.957   6.727   7.448  1.00  0.00     0.000 A 
HETATM    9  C   UNL     1      10.465   6.380   8.705  1.00  0.00     0.001 A 
HETATM   10  C   UNL     1      11.327   6.326   9.801  1.00  0.00     0.007 A 
ENDBRANCH   4   5
ENDBRANCH   3   4
BRANCH   3  11
HETATM   11  C   UNL     1      13.861   8.316  12.584  1.00  0.00     0.288 C 
HETATM   12  O   UNL     1      14.666   8.301  13.506  1.00  0.00    -0.262 OA
BRANCH  11  13
HETATM   13  O   UNL     1      12.552   8.697  12.674  1.00  0.00    -0.320 OA
BRANCH  13  14
HETATM   14  C   UNL     1      12.220   9.923  12.014  1.00  0.00     0.174 C 
HETATM   15  C   UNL     1      10.919   9.740  11.260  1.00  0.00     0.034 C 
ENDBRANCH  13  14
ENDBRANCH  11  13
ENDBRANCH   3  11
ENDBRANCH   1   3
TORSDOF 6
ENDMDL
MODEL 9
REMARK VINA RESULT:      -5.5      3.054      5.267
REMARK  6 active torsions:
REMARK  status: ('A' for Active; 'I' for Inactive)
REMARK    1  A    between atoms: O_1  and  C_5 
REMARK    2  A    between atoms: O_2  and  C_7 
REMARK    3  A    between atoms: O_2  and  C_13 
REMARK    4  A    between atoms: C_4  and  C_5 
REMARK    5  A    between atoms: C_4  and  C_6 
REMARK    6  A    between atoms: C_5  and  C_7 
ROOT
HETATM    1  O   UNL     1      13.382   6.991   6.719  1.00  0.00    -0.385 OA
HETATM    2  H   UNL     1      12.516   6.572   6.842  1.00  0.00     0.210 HD
ENDROOT
BRANCH   1   3
HETATM    3  C   UNL     1      13.840   7.506   7.963  1.00  0.00     0.221 C 
BRANCH   3   4
HETATM    4  C   UNL     1      13.041   6.850   9.092  1.00  0.00     0.080 C 
BRANCH   4   5
HETATM    5  C   UNL     1      12.353   7.869   9.967  1.00  0.00    -0.055 A 
HETATM    6  C   UNL     1      10.968   7.934   9.973  1.00  0.00     0.007 A 
HETATM    7  C   UNL     1      10.332   8.876  10.782  1.00  0.00     0.001 A 
HETATM    8  C   UNL     1      11.089   9.740  11.573  1.00  0.00     0.000 A 
HETATM    9  C   UNL     1      12.481   9.663  11.556  1.00  0.00     0.001 A 
HETATM   10  C   UNL     1      13.117   8.721  10.748  1.00  0.00     0.007 A 
ENDBRANCH   4   5
ENDBRANCH   3   4
BRANCH   3  11
HETATM   11  C   UNL     1      15.315   7.176   8.083  1.00  0.00     0.288 C 
HETATM   12  O   UNL     1      16.145   7.373   7.206  1.00  0.00    -0.262 OA
BRANCH  11  13
HETATM   13  O   UNL     1      15.568   6.656   9.320  1.00  0.00    -0.320 OA
BRANCH  13  14
HETATM   14  C   UNL     1      16.861   6.949   9.860  1.00  0.00     0.174 C 
HETATM   15  C   UNL     1      16.727   8.056  10.885  1.00  0.00     0.034 C 
ENDBRANCH  13  14
ENDBRANCH  11  13
ENDBRANCH   3  11
ENDBRANCH   1   3
TORSDOF 6
ENDMDL
