MODEL 1
REMARK VINA RESULT:      -6.2      0.000      0.000
REMARK  6 active torsions:
REMARK  status: ('A' for Active; 'I' for Inactive)
REMARK    1  A    between atoms: O_1  and  C_5 
REMARK    2  A    between atoms: O_2  and  C_7 
REMARK    3  A    between atoms: O_2  and  C_13 
REMARK    4  A    between atoms: C_4  and  C_5 
REMARK    5  A    between atoms: C_4  and  C_6 
REMARK    6  A    between atoms: C_5  and  C_7 
ROOT
HETATM    1  O   UNL     1      11.550   5.749  14.940  1.00  0.00    -0.385 OA
HETATM    2  H   UNL     1      11.888   5.567  15.831  1.00  0.00     0.210 HD
ENDROOT
BRANCH   1   3
HETATM    3  C   UNL     1      12.633   6.076  14.080  1.00  0.00     0.221 C 
BRANCH   3   4
HETATM    4  C   UNL     1      13.117   4.799  13.390  1.00  0.00     0.080 C 
BRANCH   4   5
HETATM    5  C   UNL     1      14.258   5.066  12.437  1.00  0.00    -0.055 A 
HETATM    6  C   UNL     1      14.059   4.896  11.076  1.00  0.00     0.007 A 
HETATM    7  C   UNL     1      15.112   5.142  10.195  1.00  0.00     0.001 A 
HETATM    8  C   UNL     1      16.350   5.554  10.688  1.00  0.00     0.000 A 
HETATM    9  C   UNL     1      16.535   5.721  12.060  1.00  0.00     0.001 A 
HETATM   10  C   UNL     1      15.482   5.475  12.941  1.00  0.00     0.007 A 
ENDBRANCH   4   5
ENDBRANCH   3   4
BRANCH   3  11
HETATM   11  C   UNL     1      12.126   7.080  13.062  1.00  0.00     0.288 C 
HETATM   12  O   UNL     1      11.274   6.842  12.216  1.00  0.00    -0.262 OA
BRANCH  11  13
HETATM   13  O   UNL     1      12.744   8.281  13.256  1.00  0.00    -0.320 OA
BRANCH  13  14
HETATM   14  C   UNL     1      12.076   9.183  14.146  1.00  0.00     0.174 C 
HETATM   15  C   UNL     1      11.987  10.545  13.491  1.00  0.00     0.034 C 
ENDBRANCH  13  14
ENDBRANCH  11  13
ENDBRANCH   3  11
ENDBRANCH   1   3
TORSDOF 6
ENDMDL
MODEL 2
REMARK VINA RESULT:      -6.2      0.377      1.344
REMARK  6 active torsions:
REMARK  status: ('A' for Active; 'I' for Inactive)
REMARK    1  A    between atoms: O_1  and  C_5 
REMARK    2  A    between atoms: O_2  and  C_7 
REMARK    3  A    between atoms: O_2  and  C_13 
REMARK    4  A    between atoms: C_4  and  C_5 
REMARK    5  A    between atoms: C_4  and  C_6 
REMARK    6  A    between atoms: C_5  and  C_7 
ROOT
HETATM    1  O   UNL     1      11.588   5.654  14.773  1.00  0.00    -0.385 OA
HETATM    2  H   UNL     1      11.179   4.824  14.483  1.00  0.00     0.210 HD
ENDROOT
BRANCH   1   3
HETATM    3  C   UNL     1      12.596   6.035  13.845  1.00  0.00     0.221 C 
BRANCH   3   4
HETATM    4  C   UNL     1      13.265   4.771  13.299  1.00  0.00     0.080 C 
BRANCH   4   5
HETATM    5  C   UNL     1      14.441   5.092  12.408  1.00  0.00    -0.055 A 
HETATM    6  C   UNL     1      15.631   5.512  12.982  1.00  0.00     0.007 A 
HETATM    7  C   UNL     1      16.719   5.809  12.160  1.00  0.00     0.001 A 
HETATM    8  C   UNL     1      16.601   5.681  10.776  1.00  0.00     0.000 A 
HETATM    9  C   UNL     1      15.398   5.256  10.213  1.00  0.00     0.001 A 
HETATM   10  C   UNL     1      14.311   4.960  11.036  1.00  0.00     0.007 A 
ENDBRANCH   4   5
ENDBRANCH   3   4
BRANCH   3  11
HETATM   11  C   UNL     1      11.926   6.815  12.731  1.00  0.00     0.288 C 
HETATM   12  O   UNL     1      11.145   6.336  11.919  1.00  0.00    -0.262 OA
BRANCH  11  13
HETATM   13  O   UNL     1      12.308   8.124  12.795  1.00  0.00    -0.320 OA
BRANCH  13  14
HETATM   14  C   UNL     1      11.956   8.812  14.000  1.00  0.00     0.174 C 
HETATM   15  C   UNL     1      12.320  10.274  13.857  1.00  0.00     0.034 C 
ENDBRANCH  13  14
ENDBRANCH  11  13
ENDBRANCH   3  11
ENDBRANCH   1   3
TORSDOF 6
ENDMDL
MODEL 3
REMARK VINA RESULT:      -6.0      1.256      1.946
REMARK  6 active torsions:
REMARK  status: ('A' for Active; 'I' for Inactive)
REMARK    1  A    between atoms: O_1  and  C_5 
REMARK    2  A    between atoms: O_2  and  C_7 
REMARK    3  A    between atoms: O_2  and  C_13 
REMARK    4  A    between atoms: C_4  and  C_5 
REMARK    5  A    between atoms: C_4  and  C_6 
REMARK    6  A    between atoms: C_5  and  C_7 
ROOT
HETATM    1  O   UNL     1      11.924   5.254  14.657  1.00  0.00    -0.385 OA
HETATM    2  H   UNL     1      11.220   5.509  15.273  1.00  0.00     0.210 HD
ENDROOT
BRANCH   1   3
HETATM    3  C   UNL     1      12.430   6.414  14.009  1.00  0.00     0.221 C 
BRANCH   3   4
HETATM    4  C   UNL     1      12.119   6.318  12.514  1.00  0.00     0.080 C 
BRANCH   4   5
HETATM    5  C   UNL     1      13.343   5.970  11.701  1.00  0.00    -0.055 A 
HETATM    6  C   UNL     1      14.532   6.640  11.945  1.00  0.00     0.007 A 
HETATM    7  C   UNL     1      15.663   6.320  11.194  1.00  0.00     0.001 A 
HETATM    8  C   UNL     1      15.590   5.334  10.210  1.00  0.00     0.000 A 
HETATM    9  C   UNL     1      14.387   4.668   9.976  1.00  0.00     0.001 A 
HETATM   10  C   UNL     1      13.256   4.989  10.727  1.00  0.00     0.007 A 
ENDBRANCH   4   5
ENDBRANCH   3   4
BRANCH   3  11
HETATM   11  C   UNL     1      11.748   7.620  14.626  1.00  0.00     0.288 C 
HETATM   12  O   UNL     1      11.316   7.665  15.770  1.00  0.00    -0.262 OA
BRANCH  11  13
HETATM   13  O   UNL     1      11.717   8.641  13.720  1.00  0.00    -0.320 OA
BRANCH  13  14
HETATM   14  C   UNL     1      12.467   9.807  14.079  1.00  0.00     0.174 C 
HETATM   15  C   UNL     1      11.827  11.020  13.438  1.00  0.00     0.034 C 
ENDBRANCH  13  14
ENDBRANCH  11  13
ENDBRANCH   3  11
ENDBRANCH   1   3
TORSDOF 6
ENDMDL
MODEL 4
REMARK VINA RESULT:      -5.8      1.272      2.203
REMARK  6 active torsions:
REMARK  status: ('A' for Active; 'I' for Inactive)
REMARK    1  A    between atoms: O_1  and  C_5 
REMARK    2  A    between atoms: O_2  and  C_7 
REMARK    3  A    between atoms: O_2  and  C_13 
REMARK    4  A    between atoms: C_4  and  C_5 
REMARK    5  A    between atoms: C_4  and  C_6 
REMARK    6  A    between atoms: C_5  and  C_7 
ROOT
HETATM    1  O   UNL     1      11.318   6.669  12.493  1.00  0.00    -0.385 OA
HETATM    2  H   UNL     1      10.417   6.972  12.690  1.00  0.00     0.210 HD
ENDROOT
BRANCH   1   3
HETATM    3  C   UNL     1      12.062   6.579  13.702  1.00  0.00     0.221 C 
BRANCH   3   4
HETATM    4  C   UNL     1      12.986   5.362  13.622  1.00  0.00     0.080 C 
BRANCH   4   5
HETATM    5  C   UNL     1      13.362   5.027  12.198  1.00  0.00    -0.055 A 
HETATM    6  C   UNL     1      14.534   5.542  11.667  1.00  0.00     0.007 A 
HETATM    7  C   UNL     1      14.882   5.234  10.352  1.00  0.00     0.001 A 
HETATM    8  C   UNL     1      14.053   4.415   9.586  1.00  0.00     0.000 A 
HETATM    9  C   UNL     1      12.877   3.904  10.133  1.00  0.00     0.001 A 
HETATM   10  C   UNL     1      12.529   4.213  11.449  1.00  0.00     0.007 A 
ENDBRANCH   4   5
ENDBRANCH   3   4
BRANCH   3  11
HETATM   11  C   UNL     1      12.865   7.857  13.845  1.00  0.00     0.288 C 
HETATM   12  O   UNL     1      14.036   7.907  14.194  1.00  0.00    -0.262 OA
BRANCH  11  13
HETATM   13  O   UNL     1      12.089   8.927  13.500  1.00  0.00    -0.320 OA
BRANCH  13  14
HETATM   14  C   UNL     1      12.555  10.201  13.957  1.00  0.00     0.174 C 
HETATM   15  C   UNL     1      11.725  11.290  13.311  1.00  0.00     0.034 C 
ENDBRANCH  13  14
ENDBRANCH  11  13
ENDBRANCH   3  11
ENDBRANCH   1   3
TORSDOF 6
ENDMDL
MODEL 5
REMARK VINA RESULT:      -5.7      1.246      1.903
REMARK  6 active torsions:
REMARK  status: ('A' for Active; 'I' for Inactive)
REMARK    1  A    between atoms: O_1  and  C_5 
REMARK    2  A    between atoms: O_2  and  C_7 
REMARK    3  A    between atoms: O_2  and  C_13 
REMARK    4  A    between atoms: C_4  and  C_5 
REMARK    5  A    between atoms: C_4  and  C_6 
REMARK    6  A    between atoms: C_5  and  C_7 
ROOT
HETATM    1  O   UNL     1      13.770   7.264  15.823  1.00  0.00    -0.385 OA
HETATM    2  H   UNL     1      14.127   8.150  15.992  1.00  0.00     0.210 HD
ENDROOT
BRANCH   1   3
HETATM    3  C   UNL     1      13.539   7.103  14.430  1.00  0.00     0.221 C 
BRANCH   3   4
HETATM    4  C   UNL     1      13.543   5.608  14.099  1.00  0.00     0.080 C 
BRANCH   4   5
HETATM    5  C   UNL     1      13.920   5.347  12.661  1.00  0.00    -0.055 A 
HETATM    6  C   UNL     1      15.224   5.573  12.250  1.00  0.00     0.007 A 
HETATM    7  C   UNL     1      15.574   5.332  10.921  1.00  0.00     0.001 A 
HETATM    8  C   UNL     1      14.614   4.867  10.021  1.00  0.00     0.000 A 
HETATM    9  C   UNL     1      13.306   4.644  10.450  1.00  0.00     0.001 A 
HETATM   10  C   UNL     1      12.957   4.885  11.779  1.00  0.00     0.007 A 
ENDBRANCH   4   5
ENDBRANCH   3   4
BRANCH   3  11
HETATM   11  C   UNL     1      12.191   7.721  14.112  1.00  0.00     0.288 C 
HETATM   12  O   UNL     1      11.117   7.292  14.513  1.00  0.00    -0.262 OA
BRANCH  11  13
HETATM   13  O   UNL     1      12.369   8.834  13.341  1.00  0.00    -0.320 OA
BRANCH  13  14
HETATM   14  C   UNL     1      12.592  10.053  14.058  1.00  0.00     0.174 C 
HETATM   15  C   UNL     1      11.855  11.177  13.360  1.00  0.00     0.034 C 
ENDBRANCH  13  14
ENDBRANCH  11  13
ENDBRANCH   3  11
ENDBRANCH   1   3
TORSDOF 6
ENDMDL
MODEL 6
REMARK VINA RESULT:      -5.7      1.379      1.698
REMARK  6 active torsions:
REMARK  status: ('A' for Active; 'I' for Inactive)
REMARK    1  A    between atoms: O_1  and  C_5 
REMARK    2  A    between atoms: O_2  and  C_7 
REMARK    3  A    between atoms: O_2  and  C_13 
REMARK    4  A    between atoms: C_4  and  C_5 
REMARK    5  A    between atoms: C_4  and  C_6 
REMARK    6  A    between atoms: C_5  and  C_7 
ROOT
HETATM    1  O   UNL     1      14.389   7.430  15.690  1.00  0.00    -0.385 OA
HETATM    2  H   UNL     1      15.176   6.916  15.929  1.00  0.00     0.210 HD
ENDROOT
BRANCH   1   3
HETATM    3  C   UNL     1      14.095   7.235  14.314  1.00  0.00     0.221 C 
BRANCH   3   4
HETATM    4  C   UNL     1      13.959   5.734  14.047  1.00  0.00     0.080 C 
BRANCH   4   5
HETATM    5  C   UNL     1      14.161   5.395  12.590  1.00  0.00    -0.055 A 
HETATM    6  C   UNL     1      13.140   4.771  11.890  1.00  0.00     0.007 A 
HETATM    7  C   UNL     1      13.327   4.457  10.544  1.00  0.00     0.001 A 
HETATM    8  C   UNL     1      14.532   4.773   9.916  1.00  0.00     0.000 A 
HETATM    9  C   UNL     1      15.550   5.401  10.632  1.00  0.00     0.001 A 
HETATM   10  C   UNL     1      15.363   5.714  11.979  1.00  0.00     0.007 A 
ENDBRANCH   4   5
ENDBRANCH   3   4
BRANCH   3  11
HETATM   11  C   UNL     1      12.795   7.956  14.013  1.00  0.00     0.288 C 
HETATM   12  O   UNL     1      11.705   7.409  13.909  1.00  0.00    -0.262 OA
BRANCH  11  13
HETATM   13  O   UNL     1      13.029   9.297  13.906  1.00  0.00    -0.320 OA
BRANCH  13  14
HETATM   14  C   UNL     1      11.882  10.102  13.613  1.00  0.00     0.174 C 
HETATM   15  C   UNL     1      12.310  11.551  13.518  1.00  0.00     0.034 C 
ENDBRANCH  13  14
ENDBRANCH  11  13
ENDBRANCH   3  11
ENDBRANCH   1   3
TORSDOF 6
ENDMDL
MODEL 7
REMARK VINA RESULT:      -5.7      2.474      4.255
REMARK  6 active torsions:
REMARK  status: ('A' for Active; 'I' for Inactive)
REMARK    1  A    between atoms: O_1  and  C_5 
REMARK    2  A    between atoms: O_2  and  C_7 
REMARK    3  A    between atoms: O_2  and  C_13 
REMARK    4  A    between atoms: C_4  and  C_5 
REMARK    5  A    between atoms: C_4  and  C_6 
REMARK    6  A    between atoms: C_5  and  C_7 
ROOT
HETATM    1  O   UNL     1      11.354   5.624  11.761  1.00  0.00    -0.385 OA
HETATM    2  H   UNL     1      10.847   5.235  12.491  1.00  0.00     0.210 HD
ENDROOT
BRANCH   1   3
HETATM    3  C   UNL     1      12.586   4.929  11.616  1.00  0.00     0.221 C 
BRANCH   3   4
HETATM    4  C   UNL     1      13.512   5.321  12.769  1.00  0.00     0.080 C 
BRANCH   4   5
HETATM    5  C   UNL     1      14.941   5.492  12.317  1.00  0.00    -0.055 A 
HETATM    6  C   UNL     1      15.932   5.707  13.263  1.00  0.00     0.007 A 
HETATM    7  C   UNL     1      17.253   5.865  12.845  1.00  0.00     0.001 A 
HETATM    8  C   UNL     1      17.566   5.807  11.487  1.00  0.00     0.000 A 
HETATM    9  C   UNL     1      16.560   5.590  10.547  1.00  0.00     0.001 A 
HETATM   10  C   UNL     1      15.238   5.431  10.965  1.00  0.00     0.007 A 
ENDBRANCH   4   5
ENDBRANCH   3   4
BRANCH   3  11
HETATM   11  C   UNL     1      12.283   3.443  11.648  1.00  0.00     0.288 C 
HETATM   12  O   UNL     1      11.944   2.825  12.648  1.00  0.00    -0.262 OA
BRANCH  11  13
HETATM   13  O   UNL     1      12.421   2.920  10.395  1.00  0.00    -0.320 OA
BRANCH  13  14
HETATM   14  C   UNL     1      12.839   3.844   9.383  1.00  0.00     0.174 C 
HETATM   15  C   UNL     1      13.735   3.123   8.398  1.00  0.00     0.034 C 
ENDBRANCH  13  14
ENDBRANCH  11  13
ENDBRANCH   3  11
ENDBRANCH   1   3
TORSDOF 6
ENDMDL
MODEL 8
REMARK VINA RESULT:      -5.6      1.256      1.543
REMARK  6 active torsions:
REMARK  status: ('A' for Active; 'I' for Inactive)
REMARK    1  A    between atoms: O_1  and  C_5 
REMARK    2  A    between atoms: O_2  and  C_7 
REMARK    3  A    between atoms: O_2  and  C_13 
REMARK    4  A    between atoms: C_4  and  C_5 
REMARK    5  A    between atoms: C_4  and  C_6 
REMARK    6  A    between atoms: C_5  and  C_7 
ROOT
HETATM    1  O   UNL     1      11.873   5.462  13.391  1.00  0.00    -0.385 OA
HETATM    2  H   UNL     1      11.894   5.113  12.486  1.00  0.00     0.210 HD
ENDROOT
BRANCH   1   3
HETATM    3  C   UNL     1      12.716   6.603  13.477  1.00  0.00     0.221 C 
BRANCH   3   4
HETATM    4  C   UNL     1      13.272   6.912  12.085  1.00  0.00     0.080 C 
BRANCH   4   5
HETATM    5  C   UNL     1      14.714   6.487  11.943  1.00  0.00    -0.055 A 
HETATM    6  C   UNL     1      15.215   6.197  10.683  1.00  0.00     0.007 A 
HETATM    7  C   UNL     1      16.547   5.804  10.551  1.00  0.00     0.001 A 
HETATM    8  C   UNL     1      17.360   5.708  11.681  1.00  0.00     0.000 A 
HETATM    9  C   UNL     1      16.842   6.004  12.941  1.00  0.00     0.001 A 
HETATM   10  C   UNL     1      15.510   6.396  13.073  1.00  0.00     0.007 A 
ENDBRANCH   4   5
ENDBRANCH   3   4
BRANCH   3  11
HETATM   11  C   UNL     1      11.878   7.758  13.991  1.00  0.00     0.288 C 
HETATM   12  O   UNL     1      11.111   7.691  14.943  1.00  0.00    -0.262 OA
BRANCH  11  13
HETATM   13  O   UNL     1      12.133   8.875  13.249  1.00  0.00    -0.320 OA
BRANCH  13  14
HETATM   14  C   UNL     1      12.507  10.039  13.994  1.00  0.00     0.174 C 
HETATM   15  C   UNL     1      11.836  11.251  13.382  1.00  0.00     0.034 C 
ENDBRANCH  13  14
ENDBRANCH  11  13
ENDBRANCH   3  11
ENDBRANCH   1   3
TORSDOF 6
ENDMDL
MODEL 9
REMARK VINA RESULT:      -5.5      1.608      2.429
REMARK  6 active torsions:
REMARK  status: ('A' for Active; 'I' for Inactive)
REMARK    1  A    between atoms: O_1  and  C_5 
REMARK    2  A    between atoms: O_2  and  C_7 
REMARK    3  A    between atoms: O_2  and  C_13 
REMARK    4  A    between atoms: C_4  and  C_5 
REMARK    5  A    between atoms: C_4  and  C_6 
REMARK    6  A    between atoms: C_5  and  C_7 
ROOT
HETATM    1  O   UNL     1      14.426   4.183  15.682  1.00  0.00    -0.385 OA
HETATM    2  H   UNL     1      13.814   3.437  15.784  1.00  0.00     0.210 HD
ENDROOT
BRANCH   1   3
HETATM    3  C   UNL     1      13.854   5.150  14.811  1.00  0.00     0.221 C 
BRANCH   3   4
HETATM    4  C   UNL     1      12.935   4.435  13.817  1.00  0.00     0.080 C 
BRANCH   4   5
HETATM    5  C   UNL     1      13.416   4.579  12.394  1.00  0.00    -0.055 A 
HETATM    6  C   UNL     1      12.611   4.135  11.357  1.00  0.00     0.007 A 
HETATM    7  C   UNL     1      13.055   4.267  10.041  1.00  0.00     0.001 A 
HETATM    8  C   UNL     1      14.299   4.842   9.780  1.00  0.00     0.000 A 
HETATM    9  C   UNL     1      15.098   5.285  10.834  1.00  0.00     0.001 A 
HETATM   10  C   UNL     1      14.654   5.152  12.150  1.00  0.00     0.007 A 
ENDBRANCH   4   5
ENDBRANCH   3   4
BRANCH   3  11
HETATM   11  C   UNL     1      13.071   6.130  15.661  1.00  0.00     0.288 C 
HETATM   12  O   UNL     1      13.355   6.434  16.812  1.00  0.00    -0.262 OA
BRANCH  11  13
HETATM   13  O   UNL     1      12.028   6.633  14.937  1.00  0.00    -0.320 OA
BRANCH  13  14
HETATM   14  C   UNL     1      12.200   7.970  14.454  1.00  0.00     0.174 C 
HETATM   15  C   UNL     1      11.957   7.988  12.959  1.00  0.00     0.034 C 
ENDBRANCH  13  14
ENDBRANCH  11  13
ENDBRANCH   3  11
ENDBRANCH   1   3
TORSDOF 6
ENDMDL
