MODEL 1
REMARK VINA RESULT:      -6.2      0.000      0.000
REMARK  6 active torsions:
REMARK  status: ('A' for Active; 'I' for Inactive)
REMARK    1  A    between atoms: O_1  and  C_5 
REMARK    2  A    between atoms: O_2  and  C_7 
REMARK    3  A    between atoms: O_2  and  C_13 
REMARK    4  A    between atoms: C_4  and  C_5 
REMARK    5  A    between atoms: C_4  and  C_6 
REMARK    6  A    between atoms: C_5  and  C_7 
ROOT
HETATM    1  O   UNL     1      11.596   5.658  14.780  1.00  0.00    -0.385 OA
HETATM    2  H   UNL     1      11.724   4.732  15.038  1.00  0.00     0.210 HD
ENDROOT
BRANCH   1   3
HETATM    3  C   UNL     1      12.622   6.044  13.875  1.00  0.00     0.221 C 
BRANCH   3   4
HETATM    4  C   UNL     1      13.269   4.783  13.297  1.00  0.00     0.080 C 
BRANCH   4   5
HETATM    5  C   UNL     1      14.459   5.104  12.425  1.00  0.00    -0.055 A 
HETATM    6  C   UNL     1      15.645   5.509  13.017  1.00  0.00     0.007 A 
HETATM    7  C   UNL     1      16.745   5.806  12.212  1.00  0.00     0.001 A 
HETATM    8  C   UNL     1      16.643   5.694  10.825  1.00  0.00     0.000 A 
HETATM    9  C   UNL     1      15.443   5.285  10.244  1.00  0.00     0.001 A 
HETATM   10  C   UNL     1      14.344   4.988  11.049  1.00  0.00     0.007 A 
ENDBRANCH   4   5
ENDBRANCH   3   4
BRANCH   3  11
HETATM   11  C   UNL     1      11.982   6.872  12.778  1.00  0.00     0.288 C 
HETATM   12  O   UNL     1      11.169   6.445  11.969  1.00  0.00    -0.262 OA
BRANCH  11  13
HETATM   13  O   UNL     1      12.432   8.159  12.854  1.00  0.00    -0.320 OA
BRANCH  13  14
HETATM   14  C   UNL     1      11.826   8.966  13.869  1.00  0.00     0.174 C 
HETATM   15  C   UNL     1      12.209  10.413  13.641  1.00  0.00     0.034 C 
ENDBRANCH  13  14
ENDBRANCH  11  13
ENDBRANCH   3  11
ENDBRANCH   1   3
TORSDOF 6
ENDMDL
MODEL 2
REMARK VINA RESULT:      -6.2      0.230      1.311
REMARK  6 active torsions:
REMARK  status: ('A' for Active; 'I' for Inactive)
REMARK    1  A    between atoms: O_1  and  C_5 
REMARK    2  A    between atoms: O_2  and  C_7 
REMARK    3  A    between atoms: O_2  and  C_13 
REMARK    4  A    between atoms: C_4  and  C_5 
REMARK    5  A    between atoms: C_4  and  C_6 
REMARK    6  A    between atoms: C_5  and  C_7 
ROOT
HETATM    1  O   UNL     1      11.544   5.719  14.876  1.00  0.00    -0.385 OA
HETATM    2  H   UNL     1      11.665   6.154  15.735  1.00  0.00     0.210 HD
ENDROOT
BRANCH   1   3
HETATM    3  C   UNL     1      12.619   6.069  14.013  1.00  0.00     0.221 C 
BRANCH   3   4
HETATM    4  C   UNL     1      13.170   4.793  13.372  1.00  0.00     0.080 C 
BRANCH   4   5
HETATM    5  C   UNL     1      14.314   5.081  12.430  1.00  0.00    -0.055 A 
HETATM    6  C   UNL     1      14.126   4.923  11.066  1.00  0.00     0.007 A 
HETATM    7  C   UNL     1      15.184   5.188  10.195  1.00  0.00     0.001 A 
HETATM    8  C   UNL     1      16.414   5.608  10.700  1.00  0.00     0.000 A 
HETATM    9  C   UNL     1      16.588   5.762  12.075  1.00  0.00     0.001 A 
HETATM   10  C   UNL     1      15.531   5.497  12.946  1.00  0.00     0.007 A 
ENDBRANCH   4   5
ENDBRANCH   3   4
BRANCH   3  11
HETATM   11  C   UNL     1      12.074   7.011  12.958  1.00  0.00     0.288 C 
HETATM   12  O   UNL     1      11.247   6.702  12.109  1.00  0.00    -0.262 OA
BRANCH  11  13
HETATM   13  O   UNL     1      12.626   8.249  13.120  1.00  0.00    -0.320 OA
BRANCH  13  14
HETATM   14  C   UNL     1      11.963   9.102  14.060  1.00  0.00     0.174 C 
HETATM   15  C   UNL     1      12.349  10.539  13.778  1.00  0.00     0.034 C 
ENDBRANCH  13  14
ENDBRANCH  11  13
ENDBRANCH   3  11
ENDBRANCH   1   3
TORSDOF 6
ENDMDL
MODEL 3
REMARK VINA RESULT:      -5.9      1.377      1.689
REMARK  6 active torsions:
REMARK  status: ('A' for Active; 'I' for Inactive)
REMARK    1  A    between atoms: O_1  and  C_5 
REMARK    2  A    between atoms: O_2  and  C_7 
REMARK    3  A    between atoms: O_2  and  C_13 
REMARK    4  A    between atoms: C_4  and  C_5 
REMARK    5  A    between atoms: C_4  and  C_6 
REMARK    6  A    between atoms: C_5  and  C_7 
ROOT
HETATM    1  O   UNL     1      11.667   5.501  14.688  1.00  0.00    -0.385 OA
HETATM    2  H   UNL     1      11.462   4.724  14.144  1.00  0.00     0.210 HD
ENDROOT
BRANCH   1   3
HETATM    3  C   UNL     1      12.333   6.473  13.894  1.00  0.00     0.221 C 
BRANCH   3   4
HETATM    4  C   UNL     1      12.002   6.219  12.422  1.00  0.00     0.080 C 
BRANCH   4   5
HETATM    5  C   UNL     1      13.221   5.822  11.626  1.00  0.00    -0.055 A 
HETATM    6  C   UNL     1      14.452   6.371  11.952  1.00  0.00     0.007 A 
HETATM    7  C   UNL     1      15.580   6.005  11.216  1.00  0.00     0.001 A 
HETATM    8  C   UNL     1      15.461   5.095  10.166  1.00  0.00     0.000 A 
HETATM    9  C   UNL     1      14.217   4.551   9.850  1.00  0.00     0.001 A 
HETATM   10  C   UNL     1      13.089   4.917  10.585  1.00  0.00     0.007 A 
ENDBRANCH   4   5
ENDBRANCH   3   4
BRANCH   3  11
HETATM   11  C   UNL     1      11.840   7.840  14.330  1.00  0.00     0.288 C 
HETATM   12  O   UNL     1      11.169   8.050  15.331  1.00  0.00    -0.262 OA
BRANCH  11  13
HETATM   13  O   UNL     1      12.281   8.787  13.451  1.00  0.00    -0.320 OA
BRANCH  13  14
HETATM   14  C   UNL     1      12.616  10.054  14.027  1.00  0.00     0.174 C 
HETATM   15  C   UNL     1      11.732  11.122  13.416  1.00  0.00     0.034 C 
ENDBRANCH  13  14
ENDBRANCH  11  13
ENDBRANCH   3  11
ENDBRANCH   1   3
TORSDOF 6
ENDMDL
MODEL 4
REMARK VINA RESULT:      -5.9      1.176      2.041
REMARK  6 active torsions:
REMARK  status: ('A' for Active; 'I' for Inactive)
REMARK    1  A    between atoms: O_1  and  C_5 
REMARK    2  A    between atoms: O_2  and  C_7 
REMARK    3  A    between atoms: O_2  and  C_13 
REMARK    4  A    between atoms: C_4  and  C_5 
REMARK    5  A    between atoms: C_4  and  C_6 
REMARK    6  A    between atoms: C_5  and  C_7 
ROOT
HETATM    1  O   UNL     1      11.842   3.583  12.066  1.00  0.00    -0.385 OA
HETATM    2  H   UNL     1      12.314   2.796  11.752  1.00  0.00     0.210 HD
ENDROOT
BRANCH   1   3
HETATM    3  C   UNL     1      12.770   4.640  12.275  1.00  0.00     0.221 C 
BRANCH   3   4
HETATM    4  C   UNL     1      13.662   4.764  11.037  1.00  0.00     0.080 C 
BRANCH   4   5
HETATM    5  C   UNL     1      15.066   5.191  11.390  1.00  0.00    -0.055 A 
HETATM    6  C   UNL     1      15.978   5.430  10.374  1.00  0.00     0.007 A 
HETATM    7  C   UNL     1      17.276   5.825  10.699  1.00  0.00     0.001 A 
HETATM    8  C   UNL     1      17.644   5.975  12.036  1.00  0.00     0.000 A 
HETATM    9  C   UNL     1      16.716   5.731  13.047  1.00  0.00     0.001 A 
HETATM   10  C   UNL     1      15.418   5.337  12.722  1.00  0.00     0.007 A 
ENDBRANCH   4   5
ENDBRANCH   3   4
BRANCH   3  11
HETATM   11  C   UNL     1      11.976   5.912  12.497  1.00  0.00     0.288 C 
HETATM   12  O   UNL     1      11.172   6.379  11.701  1.00  0.00    -0.262 OA
BRANCH  11  13
HETATM   13  O   UNL     1      12.279   6.433  13.723  1.00  0.00    -0.320 OA
BRANCH  13  14
HETATM   14  C   UNL     1      11.680   7.699  14.020  1.00  0.00     0.174 C 
HETATM   15  C   UNL     1      12.693   8.795  13.762  1.00  0.00     0.034 C 
ENDBRANCH  13  14
ENDBRANCH  11  13
ENDBRANCH   3  11
ENDBRANCH   1   3
TORSDOF 6
ENDMDL
MODEL 5
REMARK VINA RESULT:      -5.8      1.407      2.177
REMARK  6 active torsions:
REMARK  status: ('A' for Active; 'I' for Inactive)
REMARK    1  A    between atoms: O_1  and  C_5 
REMARK    2  A    between atoms: O_2  and  C_7 
REMARK    3  A    between atoms: O_2  and  C_13 
REMARK    4  A    between atoms: C_4  and  C_5 
REMARK    5  A    between atoms: C_4  and  C_6 
REMARK    6  A    between atoms: C_5  and  C_7 
ROOT
HETATM    1  O   UNL     1      11.299   6.540  12.247  1.00  0.00    -0.385 OA
HETATM    2  H   UNL     1      10.805   7.371  12.162  1.00  0.00     0.210 HD
ENDROOT
BRANCH   1   3
HETATM    3  C   UNL     1      12.112   6.589  13.411  1.00  0.00     0.221 C 
BRANCH   3   4
HETATM    4  C   UNL     1      13.102   5.422  13.371  1.00  0.00     0.080 C 
BRANCH   4   5
HETATM    5  C   UNL     1      13.414   4.992  11.958  1.00  0.00    -0.055 A 
HETATM    6  C   UNL     1      14.561   5.467  11.342  1.00  0.00     0.007 A 
HETATM    7  C   UNL     1      14.851   5.070  10.036  1.00  0.00     0.001 A 
HETATM    8  C   UNL     1      13.989   4.203   9.364  1.00  0.00     0.000 A 
HETATM    9  C   UNL     1      12.839   3.733   9.997  1.00  0.00     0.001 A 
HETATM   10  C   UNL     1      12.550   4.130  11.303  1.00  0.00     0.007 A 
ENDBRANCH   4   5
ENDBRANCH   3   4
BRANCH   3  11
HETATM   11  C   UNL     1      12.845   7.917  13.406  1.00  0.00     0.288 C 
HETATM   12  O   UNL     1      14.057   8.043  13.522  1.00  0.00    -0.262 OA
BRANCH  11  13
HETATM   13  O   UNL     1      11.950   8.933  13.228  1.00  0.00    -0.320 OA
BRANCH  13  14
HETATM   14  C   UNL     1      12.140  10.077  14.067  1.00  0.00     0.174 C 
HETATM   15  C   UNL     1      11.826  11.327  13.273  1.00  0.00     0.034 C 
ENDBRANCH  13  14
ENDBRANCH  11  13
ENDBRANCH   3  11
ENDBRANCH   1   3
TORSDOF 6
ENDMDL
MODEL 6
REMARK VINA RESULT:      -5.8      1.389      2.139
REMARK  6 active torsions:
REMARK  status: ('A' for Active; 'I' for Inactive)
REMARK    1  A    between atoms: O_1  and  C_5 
REMARK    2  A    between atoms: O_2  and  C_7 
REMARK    3  A    between atoms: O_2  and  C_13 
REMARK    4  A    between atoms: C_4  and  C_5 
REMARK    5  A    between atoms: C_4  and  C_6 
REMARK    6  A    between atoms: C_5  and  C_7 
ROOT
HETATM    1  O   UNL     1      14.376   7.697  15.560  1.00  0.00    -0.385 OA
HETATM    2  H   UNL     1      14.226   6.948  16.158  1.00  0.00     0.210 HD
ENDROOT
BRANCH   1   3
HETATM    3  C   UNL     1      13.808   7.409  14.289  1.00  0.00     0.221 C 
BRANCH   3   4
HETATM    4  C   UNL     1      13.899   5.901  14.039  1.00  0.00     0.080 C 
BRANCH   4   5
HETATM    5  C   UNL     1      14.341   5.585  12.631  1.00  0.00    -0.055 A 
HETATM    6  C   UNL     1      13.410   5.117  11.716  1.00  0.00     0.007 A 
HETATM    7  C   UNL     1      13.818   4.825  10.415  1.00  0.00     0.001 A 
HETATM    8  C   UNL     1      15.152   5.004  10.045  1.00  0.00     0.000 A 
HETATM    9  C   UNL     1      16.076   5.475  10.976  1.00  0.00     0.001 A 
HETATM   10  C   UNL     1      15.668   5.768  12.278  1.00  0.00     0.007 A 
ENDBRANCH   4   5
ENDBRANCH   3   4
BRANCH   3  11
HETATM   11  C   UNL     1      12.362   7.865  14.316  1.00  0.00     0.288 C 
HETATM   12  O   UNL     1      11.490   7.370  15.018  1.00  0.00    -0.262 OA
BRANCH  11  13
HETATM   13  O   UNL     1      12.198   8.919  13.464  1.00  0.00    -0.320 OA
BRANCH  13  14
HETATM   14  C   UNL     1      12.527  10.204  14.001  1.00  0.00     0.174 C 
HETATM   15  C   UNL     1      11.771  11.267  13.232  1.00  0.00     0.034 C 
ENDBRANCH  13  14
ENDBRANCH  11  13
ENDBRANCH   3  11
ENDBRANCH   1   3
TORSDOF 6
ENDMDL
MODEL 7
REMARK VINA RESULT:      -5.8      1.490      2.098
REMARK  6 active torsions:
REMARK  status: ('A' for Active; 'I' for Inactive)
REMARK    1  A    between atoms: O_1  and  C_5 
REMARK    2  A    between atoms: O_2  and  C_7 
REMARK    3  A    between atoms: O_2  and  C_13 
REMARK    4  A    between atoms: C_4  and  C_5 
REMARK    5  A    between atoms: C_4  and  C_6 
REMARK    6  A    between atoms: C_5  and  C_7 
ROOT
HETATM    1  O   UNL     1      12.952   3.706  15.655  1.00  0.00    -0.385 OA
HETATM    2  H   UNL     1      13.560   3.600  16.403  1.00  0.00     0.210 HD
ENDROOT
BRANCH   1   3
HETATM    3  C   UNL     1      13.440   4.719  14.786  1.00  0.00     0.221 C 
BRANCH   3   4
HETATM    4  C   UNL     1      12.861   4.490  13.388  1.00  0.00     0.080 C 
BRANCH   4   5
HETATM    5  C   UNL     1      13.856   4.815  12.300  1.00  0.00    -0.055 A 
HETATM    6  C   UNL     1      15.118   5.272  12.650  1.00  0.00     0.007 A 
HETATM    7  C   UNL     1      16.038   5.573  11.645  1.00  0.00     0.001 A 
HETATM    8  C   UNL     1      15.684   5.413  10.305  1.00  0.00     0.000 A 
HETATM    9  C   UNL     1      14.412   4.952   9.969  1.00  0.00     0.001 A 
HETATM   10  C   UNL     1      13.492   4.651  10.974  1.00  0.00     0.007 A 
ENDBRANCH   4   5
ENDBRANCH   3   4
BRANCH   3  11
HETATM   11  C   UNL     1      12.995   6.057  15.341  1.00  0.00     0.288 C 
HETATM   12  O   UNL     1      13.626   6.716  16.158  1.00  0.00    -0.262 OA
BRANCH  11  13
HETATM   13  O   UNL     1      11.807   6.417  14.772  1.00  0.00    -0.320 OA
BRANCH  13  14
HETATM   14  C   UNL     1      11.650   7.815  14.505  1.00  0.00     0.174 C 
HETATM   15  C   UNL     1      12.055   8.090  13.072  1.00  0.00     0.034 C 
ENDBRANCH  13  14
ENDBRANCH  11  13
ENDBRANCH   3  11
ENDBRANCH   1   3
TORSDOF 6
ENDMDL
MODEL 8
REMARK VINA RESULT:      -5.7      1.288      1.630
REMARK  6 active torsions:
REMARK  status: ('A' for Active; 'I' for Inactive)
REMARK    1  A    between atoms: O_1  and  C_5 
REMARK    2  A    between atoms: O_2  and  C_7 
REMARK    3  A    between atoms: O_2  and  C_13 
REMARK    4  A    between atoms: C_4  and  C_5 
REMARK    5  A    between atoms: C_4  and  C_6 
REMARK    6  A    between atoms: C_5  and  C_7 
ROOT
HETATM    1  O   UNL     1      13.815   7.232  15.906  1.00  0.00    -0.385 OA
HETATM    2  H   UNL     1      14.299   6.463  16.243  1.00  0.00     0.210 HD
ENDROOT
BRANCH   1   3
HETATM    3  C   UNL     1      13.642   7.104  14.501  1.00  0.00     0.221 C 
BRANCH   3   4
HETATM    4  C   UNL     1      13.718   5.622  14.128  1.00  0.00     0.080 C 
BRANCH   4   5
HETATM    5  C   UNL     1      14.175   5.418  12.703  1.00  0.00    -0.055 A 
HETATM    6  C   UNL     1      15.507   5.629  12.381  1.00  0.00     0.007 A 
HETATM    7  C   UNL     1      15.929   5.440  11.065  1.00  0.00     0.001 A 
HETATM    8  C   UNL     1      15.014   5.044  10.089  1.00  0.00     0.000 A 
HETATM    9  C   UNL     1      13.678   4.835  10.429  1.00  0.00     0.001 A 
HETATM   10  C   UNL     1      13.256   5.024  11.745  1.00  0.00     0.007 A 
ENDBRANCH   4   5
ENDBRANCH   3   4
BRANCH   3  11
HETATM   11  C   UNL     1      12.284   7.680  14.149  1.00  0.00     0.288 C 
HETATM   12  O   UNL     1      11.215   7.223  14.531  1.00  0.00    -0.262 OA
BRANCH  11  13
HETATM   13  O   UNL     1      12.445   8.790  13.370  1.00  0.00    -0.320 OA
BRANCH  13  14
HETATM   14  C   UNL     1      12.586  10.026  14.078  1.00  0.00     0.174 C 
HETATM   15  C   UNL     1      11.853  11.113  13.322  1.00  0.00     0.034 C 
ENDBRANCH  13  14
ENDBRANCH  11  13
ENDBRANCH   3  11
ENDBRANCH   1   3
TORSDOF 6
ENDMDL
MODEL 9
REMARK VINA RESULT:      -5.7      2.192      3.671
REMARK  6 active torsions:
REMARK  status: ('A' for Active; 'I' for Inactive)
REMARK    1  A    between atoms: O_1  and  C_5 
REMARK    2  A    between atoms: O_2  and  C_7 
REMARK    3  A    between atoms: O_2  and  C_13 
REMARK    4  A    between atoms: C_4  and  C_5 
REMARK    5  A    between atoms: C_4  and  C_6 
REMARK    6  A    between atoms: C_5  and  C_7 
ROOT
HETATM    1  O   UNL     1      13.086   6.960  12.855  1.00  0.00    -0.385 OA
HETATM    2  H   UNL     1      12.404   6.499  13.368  1.00  0.00     0.210 HD
ENDROOT
BRANCH   1   3
HETATM    3  C   UNL     1      13.629   6.074  11.885  1.00  0.00     0.221 C 
BRANCH   3   4
HETATM    4  C   UNL     1      14.684   5.193  12.558  1.00  0.00     0.080 C 
BRANCH   4   5
HETATM    5  C   UNL     1      16.076   5.486  12.052  1.00  0.00    -0.055 A 
HETATM    6  C   UNL     1      17.103   5.678  12.963  1.00  0.00     0.007 A 
HETATM    7  C   UNL     1      18.389   5.949  12.496  1.00  0.00     0.001 A 
HETATM    8  C   UNL     1      18.630   6.025  11.124  1.00  0.00     0.000 A 
HETATM    9  C   UNL     1      17.587   5.829  10.220  1.00  0.00     0.001 A 
HETATM   10  C   UNL     1      16.301   5.558  10.687  1.00  0.00     0.007 A 
ENDBRANCH   4   5
ENDBRANCH   3   4
BRANCH   3  11
HETATM   11  C   UNL     1      12.491   5.233  11.341  1.00  0.00     0.288 C 
HETATM   12  O   UNL     1      11.305   5.510  11.455  1.00  0.00    -0.262 OA
BRANCH  11  13
HETATM   13  O   UNL     1      12.997   4.144  10.690  1.00  0.00    -0.320 OA
BRANCH  13  14
HETATM   14  C   UNL     1      12.812   4.133   9.270  1.00  0.00     0.174 C 
HETATM   15  C   UNL     1      13.843   3.215   8.647  1.00  0.00     0.034 C 
ENDBRANCH  13  14
ENDBRANCH  11  13
ENDBRANCH   3  11
ENDBRANCH   1   3
TORSDOF 6
ENDMDL
