MODEL 1
REMARK VINA RESULT:      -6.2      0.000      0.000
REMARK  6 active torsions:
REMARK  status: ('A' for Active; 'I' for Inactive)
REMARK    1  A    between atoms: O_1  and  C_5 
REMARK    2  A    between atoms: O_2  and  C_7 
REMARK    3  A    between atoms: O_2  and  C_13 
REMARK    4  A    between atoms: C_4  and  C_5 
REMARK    5  A    between atoms: C_4  and  C_6 
REMARK    6  A    between atoms: C_5  and  C_7 
ROOT
HETATM    1  O   UNL     1      10.378   7.199  12.672  1.00  0.00    -0.385 OA
HETATM    2  H   UNL     1      10.461   6.239  12.776  1.00  0.00     0.210 HD
ENDROOT
BRANCH   1   3
HETATM    3  C   UNL     1      11.168   7.627  11.570  1.00  0.00     0.221 C 
BRANCH   3   4
HETATM    4  C   UNL     1      11.493   6.412  10.697  1.00  0.00     0.080 C 
BRANCH   4   5
HETATM    5  C   UNL     1      12.662   6.671   9.777  1.00  0.00    -0.055 A 
HETATM    6  C   UNL     1      13.942   6.731  10.307  1.00  0.00     0.007 A 
HETATM    7  C   UNL     1      15.022   6.970   9.458  1.00  0.00     0.001 A 
HETATM    8  C   UNL     1      14.808   7.147   8.091  1.00  0.00     0.000 A 
HETATM    9  C   UNL     1      13.515   7.085   7.573  1.00  0.00     0.001 A 
HETATM   10  C   UNL     1      12.435   6.845   8.422  1.00  0.00     0.007 A 
ENDBRANCH   4   5
ENDBRANCH   3   4
BRANCH   3  11
HETATM   11  C   UNL     1      10.361   8.649  10.794  1.00  0.00     0.288 C 
HETATM   12  O   UNL     1       9.596   8.380   9.877  1.00  0.00    -0.262 OA
BRANCH  11  13
HETATM   13  O   UNL     1      10.602   9.897  11.293  1.00  0.00    -0.320 OA
BRANCH  13  14
HETATM   14  C   UNL     1      11.904  10.097  11.854  1.00  0.00     0.174 C 
HETATM   15  C   UNL     1      11.976  11.488  12.448  1.00  0.00     0.034 C 
ENDBRANCH  13  14
ENDBRANCH  11  13
ENDBRANCH   3  11
ENDBRANCH   1   3
TORSDOF 6
ENDMDL
MODEL 2
REMARK VINA RESULT:      -6.2      0.630      1.436
REMARK  6 active torsions:
REMARK  status: ('A' for Active; 'I' for Inactive)
REMARK    1  A    between atoms: O_1  and  C_5 
REMARK    2  A    between atoms: O_2  and  C_7 
REMARK    3  A    between atoms: O_2  and  C_13 
REMARK    4  A    between atoms: C_4  and  C_5 
REMARK    5  A    between atoms: C_4  and  C_6 
REMARK    6  A    between atoms: C_5  and  C_7 
ROOT
HETATM    1  O   UNL     1      10.399   7.036  13.019  1.00  0.00    -0.385 OA
HETATM    2  H   UNL     1      10.519   6.076  13.083  1.00  0.00     0.210 HD
ENDROOT
BRANCH   1   3
HETATM    3  C   UNL     1      11.152   7.537  11.923  1.00  0.00     0.221 C 
BRANCH   3   4
HETATM    4  C   UNL     1      11.106   6.513  10.785  1.00  0.00     0.080 C 
BRANCH   4   5
HETATM    5  C   UNL     1      12.235   6.707   9.802  1.00  0.00    -0.055 A 
HETATM    6  C   UNL     1      11.940   6.893   8.459  1.00  0.00     0.007 A 
HETATM    7  C   UNL     1      12.983   7.072   7.550  1.00  0.00     0.001 A 
HETATM    8  C   UNL     1      14.305   7.063   7.994  1.00  0.00     0.000 A 
HETATM    9  C   UNL     1      14.585   6.875   9.347  1.00  0.00     0.001 A 
HETATM   10  C   UNL     1      13.543   6.696  10.257  1.00  0.00     0.007 A 
ENDBRANCH   4   5
ENDBRANCH   3   4
BRANCH   3  11
HETATM   11  C   UNL     1      10.525   8.848  11.494  1.00  0.00     0.288 C 
HETATM   12  O   UNL     1       9.889   9.010  10.460  1.00  0.00    -0.262 OA
BRANCH  11  13
HETATM   13  O   UNL     1      10.758   9.800  12.445  1.00  0.00    -0.320 OA
BRANCH  13  14
HETATM   14  C   UNL     1      11.913  10.618  12.230  1.00  0.00     0.174 C 
HETATM   15  C   UNL     1      11.504  12.074  12.293  1.00  0.00     0.034 C 
ENDBRANCH  13  14
ENDBRANCH  11  13
ENDBRANCH   3  11
ENDBRANCH   1   3
TORSDOF 6
ENDMDL
MODEL 3
REMARK VINA RESULT:      -5.8      2.386      4.597
REMARK  6 active torsions:
REMARK  status: ('A' for Active; 'I' for Inactive)
REMARK    1  A    between atoms: O_1  and  C_5 
REMARK    2  A    between atoms: O_2  and  C_7 
REMARK    3  A    between atoms: O_2  and  C_13 
REMARK    4  A    between atoms: C_4  and  C_5 
REMARK    5  A    between atoms: C_4  and  C_6 
REMARK    6  A    between atoms: C_5  and  C_7 
ROOT
HETATM    1  O   UNL     1       9.725   6.092   7.736  1.00  0.00    -0.385 OA
HETATM    2  H   UNL     1      10.016   5.471   7.050  1.00  0.00     0.210 HD
ENDROOT
BRANCH   1   3
HETATM    3  C   UNL     1      10.794   6.971   8.063  1.00  0.00     0.221 C 
BRANCH   3   4
HETATM    4  C   UNL     1      11.360   6.570   9.428  1.00  0.00     0.080 C 
BRANCH   4   5
HETATM    5  C   UNL     1      11.577   7.765  10.325  1.00  0.00    -0.055 A 
HETATM    6  C   UNL     1      10.546   8.673  10.507  1.00  0.00     0.007 A 
HETATM    7  C   UNL     1      10.747   9.778  11.336  1.00  0.00     0.001 A 
HETATM    8  C   UNL     1      11.976   9.958  11.970  1.00  0.00     0.000 A 
HETATM    9  C   UNL     1      13.004   9.036  11.777  1.00  0.00     0.001 A 
HETATM   10  C   UNL     1      12.803   7.931  10.949  1.00  0.00     0.007 A 
ENDBRANCH   4   5
ENDBRANCH   3   4
BRANCH   3  11
HETATM   11  C   UNL     1      11.848   6.837   6.982  1.00  0.00     0.288 C 
HETATM   12  O   UNL     1      11.756   6.100   6.009  1.00  0.00    -0.262 OA
BRANCH  11  13
HETATM   13  O   UNL     1      12.890   7.677   7.251  1.00  0.00    -0.320 OA
BRANCH  13  14
HETATM   14  C   UNL     1      14.178   7.058   7.330  1.00  0.00     0.174 C 
HETATM   15  C   UNL     1      15.108   7.955   8.121  1.00  0.00     0.034 C 
ENDBRANCH  13  14
ENDBRANCH  11  13
ENDBRANCH   3  11
ENDBRANCH   1   3
TORSDOF 6
ENDMDL
MODEL 4
REMARK VINA RESULT:      -5.8      1.497      2.106
REMARK  6 active torsions:
REMARK  status: ('A' for Active; 'I' for Inactive)
REMARK    1  A    between atoms: O_1  and  C_5 
REMARK    2  A    between atoms: O_2  and  C_7 
REMARK    3  A    between atoms: O_2  and  C_13 
REMARK    4  A    between atoms: C_4  and  C_5 
REMARK    5  A    between atoms: C_4  and  C_6 
REMARK    6  A    between atoms: C_5  and  C_7 
ROOT
HETATM    1  O   UNL     1      13.529   8.572  13.109  1.00  0.00    -0.385 OA
HETATM    2  H   UNL     1      13.093   8.158  13.871  1.00  0.00     0.210 HD
ENDROOT
BRANCH   1   3
HETATM    3  C   UNL     1      12.623   8.622  12.015  1.00  0.00     0.221 C 
BRANCH   3   4
HETATM    4  C   UNL     1      12.327   7.193  11.554  1.00  0.00     0.080 C 
BRANCH   4   5
HETATM    5  C   UNL     1      12.336   7.068  10.050  1.00  0.00    -0.055 A 
HETATM    6  C   UNL     1      13.539   7.175   9.368  1.00  0.00     0.007 A 
HETATM    7  C   UNL     1      13.548   7.060   7.978  1.00  0.00     0.001 A 
HETATM    8  C   UNL     1      12.356   6.839   7.289  1.00  0.00     0.000 A 
HETATM    9  C   UNL     1      11.155   6.733   7.988  1.00  0.00     0.001 A 
HETATM   10  C   UNL     1      11.145   6.848   9.378  1.00  0.00     0.007 A 
ENDBRANCH   4   5
ENDBRANCH   3   4
BRANCH   3  11
HETATM   11  C   UNL     1      11.358   9.307  12.495  1.00  0.00     0.288 C 
HETATM   12  O   UNL     1      10.578   8.834  13.311  1.00  0.00    -0.262 OA
BRANCH  11  13
HETATM   13  O   UNL     1      11.245  10.530  11.898  1.00  0.00    -0.320 OA
BRANCH  13  14
HETATM   14  C   UNL     1      11.994  11.586  12.509  1.00  0.00     0.174 C 
HETATM   15  C   UNL     1      11.358  12.912  12.150  1.00  0.00     0.034 C 
ENDBRANCH  13  14
ENDBRANCH  11  13
ENDBRANCH   3  11
ENDBRANCH   1   3
TORSDOF 6
ENDMDL
MODEL 5
REMARK VINA RESULT:      -5.8      1.083      1.719
REMARK  6 active torsions:
REMARK  status: ('A' for Active; 'I' for Inactive)
REMARK    1  A    between atoms: O_1  and  C_5 
REMARK    2  A    between atoms: O_2  and  C_7 
REMARK    3  A    between atoms: O_2  and  C_13 
REMARK    4  A    between atoms: C_4  and  C_5 
REMARK    5  A    between atoms: C_4  and  C_6 
REMARK    6  A    between atoms: C_5  and  C_7 
ROOT
HETATM    1  O   UNL     1       9.797   5.653   9.595  1.00  0.00    -0.385 OA
HETATM    2  H   UNL     1       9.814   5.358   8.671  1.00  0.00     0.210 HD
ENDROOT
BRANCH   1   3
HETATM    3  C   UNL     1      10.896   6.523   9.834  1.00  0.00     0.221 C 
BRANCH   3   4
HETATM    4  C   UNL     1      11.591   6.815   8.503  1.00  0.00     0.080 C 
BRANCH   4   5
HETATM    5  C   UNL     1      13.092   6.886   8.650  1.00  0.00    -0.055 A 
HETATM    6  C   UNL     1      13.660   6.708   9.902  1.00  0.00     0.007 A 
HETATM    7  C   UNL     1      15.047   6.773  10.039  1.00  0.00     0.001 A 
HETATM    8  C   UNL     1      15.847   7.017   8.922  1.00  0.00     0.000 A 
HETATM    9  C   UNL     1      15.261   7.195   7.669  1.00  0.00     0.001 A 
HETATM   10  C   UNL     1      13.874   7.129   7.532  1.00  0.00     0.007 A 
ENDBRANCH   4   5
ENDBRANCH   3   4
BRANCH   3  11
HETATM   11  C   UNL     1      10.350   7.797  10.448  1.00  0.00     0.288 C 
HETATM   12  O   UNL     1       9.584   8.568   9.885  1.00  0.00    -0.262 OA
BRANCH  11  13
HETATM   13  O   UNL     1      10.823   7.930  11.723  1.00  0.00    -0.320 OA
BRANCH  13  14
HETATM   14  C   UNL     1      10.931   9.275  12.203  1.00  0.00     0.174 C 
HETATM   15  C   UNL     1      12.250   9.857  11.742  1.00  0.00     0.034 C 
ENDBRANCH  13  14
ENDBRANCH  11  13
ENDBRANCH   3  11
ENDBRANCH   1   3
TORSDOF 6
ENDMDL
MODEL 6
REMARK VINA RESULT:      -5.8      1.442      2.498
REMARK  6 active torsions:
REMARK  status: ('A' for Active; 'I' for Inactive)
REMARK    1  A    between atoms: O_1  and  C_5 
REMARK    2  A    between atoms: O_2  and  C_7 
REMARK    3  A    between atoms: O_2  and  C_13 
REMARK    4  A    between atoms: C_4  and  C_5 
REMARK    5  A    between atoms: C_4  and  C_6 
REMARK    6  A    between atoms: C_5  and  C_7 
ROOT
HETATM    1  O   UNL     1       9.813   8.560  10.416  1.00  0.00    -0.385 OA
HETATM    2  H   UNL     1      10.134   8.305   9.537  1.00  0.00     0.210 HD
ENDROOT
BRANCH   1   3
HETATM    3  C   UNL     1      10.806   8.259  11.388  1.00  0.00     0.221 C 
BRANCH   3   4
HETATM    4  C   UNL     1      11.534   6.980  10.969  1.00  0.00     0.080 C 
BRANCH   4   5
HETATM    5  C   UNL     1      11.537   6.793   9.471  1.00  0.00    -0.055 A 
HETATM    6  C   UNL     1      10.434   6.219   8.857  1.00  0.00     0.007 A 
HETATM    7  C   UNL     1      10.436   6.046   7.472  1.00  0.00     0.001 A 
HETATM    8  C   UNL     1      11.540   6.449   6.721  1.00  0.00     0.000 A 
HETATM    9  C   UNL     1      12.642   7.025   7.353  1.00  0.00     0.001 A 
HETATM   10  C   UNL     1      12.640   7.198   8.737  1.00  0.00     0.007 A 
ENDBRANCH   4   5
ENDBRANCH   3   4
BRANCH   3  11
HETATM   11  C   UNL     1      11.766   9.432  11.444  1.00  0.00     0.288 C 
HETATM   12  O   UNL     1      12.979   9.345  11.302  1.00  0.00    -0.262 OA
BRANCH  11  13
HETATM   13  O   UNL     1      11.067  10.587  11.649  1.00  0.00    -0.320 OA
BRANCH  13  14
HETATM   14  C   UNL     1      11.617  11.475  12.628  1.00  0.00     0.174 C 
HETATM   15  C   UNL     1      11.466  12.900  12.139  1.00  0.00     0.034 C 
ENDBRANCH  13  14
ENDBRANCH  11  13
ENDBRANCH   3  11
ENDBRANCH   1   3
TORSDOF 6
ENDMDL
MODEL 7
REMARK VINA RESULT:      -5.8      2.414      3.743
REMARK  6 active torsions:
REMARK  status: ('A' for Active; 'I' for Inactive)
REMARK    1  A    between atoms: O_1  and  C_5 
REMARK    2  A    between atoms: O_2  and  C_7 
REMARK    3  A    between atoms: O_2  and  C_13 
REMARK    4  A    between atoms: C_4  and  C_5 
REMARK    5  A    between atoms: C_4  and  C_6 
REMARK    6  A    between atoms: C_5  and  C_7 
ROOT
HETATM    1  O   UNL     1      11.525   8.574   9.871  1.00  0.00    -0.385 OA
HETATM    2  H   UNL     1      11.868   9.376   9.446  1.00  0.00     0.210 HD
ENDROOT
BRANCH   1   3
HETATM    3  C   UNL     1      11.906   7.435   9.110  1.00  0.00     0.221 C 
BRANCH   3   4
HETATM    4  C   UNL     1      13.027   6.701   9.849  1.00  0.00     0.080 C 
BRANCH   4   5
HETATM    5  C   UNL     1      14.359   6.856   9.157  1.00  0.00    -0.055 A 
HETATM    6  C   UNL     1      15.527   6.711   9.891  1.00  0.00     0.007 A 
HETATM    7  C   UNL     1      16.758   6.855   9.252  1.00  0.00     0.001 A 
HETATM    8  C   UNL     1      16.806   7.142   7.887  1.00  0.00     0.000 A 
HETATM    9  C   UNL     1      15.624   7.285   7.162  1.00  0.00     0.001 A 
HETATM   10  C   UNL     1      14.392   7.142   7.801  1.00  0.00     0.007 A 
ENDBRANCH   4   5
ENDBRANCH   3   4
BRANCH   3  11
HETATM   11  C   UNL     1      10.684   6.548   8.966  1.00  0.00     0.288 C 
HETATM   12  O   UNL     1      10.339   5.702   9.780  1.00  0.00    -0.262 OA
BRANCH  11  13
HETATM   13  O   UNL     1      10.026   6.860   7.811  1.00  0.00    -0.320 OA
BRANCH  13  14
HETATM   14  C   UNL     1      10.850   6.993   6.647  1.00  0.00     0.174 C 
HETATM   15  C   UNL     1      10.837   5.686   5.883  1.00  0.00     0.034 C 
ENDBRANCH  13  14
ENDBRANCH  11  13
ENDBRANCH   3  11
ENDBRANCH   1   3
TORSDOF 6
ENDMDL
MODEL 8
REMARK VINA RESULT:      -5.7      1.528      2.574
REMARK  6 active torsions:
REMARK  status: ('A' for Active; 'I' for Inactive)
REMARK    1  A    between atoms: O_1  and  C_5 
REMARK    2  A    between atoms: O_2  and  C_7 
REMARK    3  A    between atoms: O_2  and  C_13 
REMARK    4  A    between atoms: C_4  and  C_5 
REMARK    5  A    between atoms: C_4  and  C_6 
REMARK    6  A    between atoms: C_5  and  C_7 
ROOT
HETATM    1  O   UNL     1      11.667   4.789  12.922  1.00  0.00    -0.385 OA
HETATM    2  H   UNL     1      10.801   4.929  13.335  1.00  0.00     0.210 HD
ENDROOT
BRANCH   1   3
HETATM    3  C   UNL     1      12.038   5.951  12.193  1.00  0.00     0.221 C 
BRANCH   3   4
HETATM    4  C   UNL     1      11.180   6.033  10.927  1.00  0.00     0.080 C 
BRANCH   4   5
HETATM    5  C   UNL     1      11.987   6.450   9.721  1.00  0.00    -0.055 A 
HETATM    6  C   UNL     1      11.341   6.658   8.512  1.00  0.00     0.007 A 
HETATM    7  C   UNL     1      12.086   7.042   7.397  1.00  0.00     0.001 A 
HETATM    8  C   UNL     1      13.466   7.214   7.506  1.00  0.00     0.000 A 
HETATM    9  C   UNL     1      14.101   7.001   8.729  1.00  0.00     0.001 A 
HETATM   10  C   UNL     1      13.357   6.617   9.844  1.00  0.00     0.007 A 
ENDBRANCH   4   5
ENDBRANCH   3   4
BRANCH   3  11
HETATM   11  C   UNL     1      11.798   7.152  13.086  1.00  0.00     0.288 C 
HETATM   12  O   UNL     1      12.545   7.509  13.987  1.00  0.00    -0.262 OA
BRANCH  11  13
HETATM   13  O   UNL     1      10.643   7.778  12.712  1.00  0.00    -0.320 OA
BRANCH  13  14
HETATM   14  C   UNL     1      10.683   9.209  12.730  1.00  0.00     0.174 C 
HETATM   15  C   UNL     1      10.988   9.710  11.334  1.00  0.00     0.034 C 
ENDBRANCH  13  14
ENDBRANCH  11  13
ENDBRANCH   3  11
ENDBRANCH   1   3
TORSDOF 6
ENDMDL
MODEL 9
REMARK VINA RESULT:      -5.6      2.594      5.120
REMARK  6 active torsions:
REMARK  status: ('A' for Active; 'I' for Inactive)
REMARK    1  A    between atoms: O_1  and  C_5 
REMARK    2  A    between atoms: O_2  and  C_7 
REMARK    3  A    between atoms: O_2  and  C_13 
REMARK    4  A    between atoms: C_4  and  C_5 
REMARK    5  A    between atoms: C_4  and  C_6 
REMARK    6  A    between atoms: C_5  and  C_7 
ROOT
HETATM    1  O   UNL     1       9.729   5.188   9.263  1.00  0.00    -0.385 OA
HETATM    2  H   UNL     1       9.061   5.135   8.562  1.00  0.00     0.210 HD
ENDROOT
BRANCH   1   3
HETATM    3  C   UNL     1      10.387   6.446   9.196  1.00  0.00     0.221 C 
BRANCH   3   4
HETATM    4  C   UNL     1      11.508   6.471  10.238  1.00  0.00     0.080 C 
BRANCH   4   5
HETATM    5  C   UNL     1      11.640   7.823  10.896  1.00  0.00    -0.055 A 
HETATM    6  C   UNL     1      10.596   8.730  10.800  1.00  0.00     0.007 A 
HETATM    7  C   UNL     1      10.717   9.980  11.408  1.00  0.00     0.001 A 
HETATM    8  C   UNL     1      11.882  10.306  12.103  1.00  0.00     0.000 A 
HETATM    9  C   UNL     1      12.924   9.384  12.192  1.00  0.00     0.001 A 
HETATM   10  C   UNL     1      12.802   8.134  11.584  1.00  0.00     0.007 A 
ENDBRANCH   4   5
ENDBRANCH   3   4
BRANCH   3  11
HETATM   11  C   UNL     1      10.949   6.598   7.796  1.00  0.00     0.288 C 
HETATM   12  O   UNL     1      11.903   7.307   7.503  1.00  0.00    -0.262 OA
BRANCH  11  13
HETATM   13  O   UNL     1      10.246   5.808   6.932  1.00  0.00    -0.320 OA
BRANCH  13  14
HETATM   14  C   UNL     1      10.602   5.935   5.551  1.00  0.00     0.174 C 
HETATM   15  C   UNL     1      11.453   4.748   5.151  1.00  0.00     0.034 C 
ENDBRANCH  13  14
ENDBRANCH  11  13
ENDBRANCH   3  11
ENDBRANCH   1   3
TORSDOF 6
ENDMDL
