MODEL 1
REMARK VINA RESULT:      -6.2      0.000      0.000
REMARK  6 active torsions:
REMARK  status: ('A' for Active; 'I' for Inactive)
REMARK    1  A    between atoms: O_1  and  C_5 
REMARK    2  A    between atoms: O_2  and  C_7 
REMARK    3  A    between atoms: O_2  and  C_13 
REMARK    4  A    between atoms: C_4  and  C_5 
REMARK    5  A    between atoms: C_4  and  C_6 
REMARK    6  A    between atoms: C_5  and  C_7 
ROOT
HETATM    1  O   UNL     1      11.542   5.830  14.924  1.00  0.00    -0.385 OA
HETATM    2  H   UNL     1      10.708   6.169  14.563  1.00  0.00     0.210 HD
ENDROOT
BRANCH   1   3
HETATM    3  C   UNL     1      12.598   6.100  14.011  1.00  0.00     0.221 C 
BRANCH   3   4
HETATM    4  C   UNL     1      13.015   4.790  13.338  1.00  0.00     0.080 C 
BRANCH   4   5
HETATM    5  C   UNL     1      14.077   5.005  12.287  1.00  0.00    -0.055 A 
HETATM    6  C   UNL     1      13.761   4.806  10.952  1.00  0.00     0.007 A 
HETATM    7  C   UNL     1      14.742   5.004   9.980  1.00  0.00     0.001 A 
HETATM    8  C   UNL     1      16.026   5.399  10.356  1.00  0.00     0.000 A 
HETATM    9  C   UNL     1      16.329   5.595  11.703  1.00  0.00     0.001 A 
HETATM   10  C   UNL     1      15.348   5.397  12.675  1.00  0.00     0.007 A 
ENDBRANCH   4   5
ENDBRANCH   3   4
BRANCH   3  11
HETATM   11  C   UNL     1      12.079   7.090  12.986  1.00  0.00     0.288 C 
HETATM   12  O   UNL     1      11.160   6.869  12.209  1.00  0.00    -0.262 OA
BRANCH  11  13
HETATM   13  O   UNL     1      12.774   8.261  13.088  1.00  0.00    -0.320 OA
BRANCH  13  14
HETATM   14  C   UNL     1      12.321   9.162  14.104  1.00  0.00     0.174 C 
HETATM   15  C   UNL     1      11.912  10.469  13.457  1.00  0.00     0.034 C 
ENDBRANCH  13  14
ENDBRANCH  11  13
ENDBRANCH   3  11
ENDBRANCH   1   3
TORSDOF 6
ENDMDL
MODEL 2
REMARK VINA RESULT:      -6.2      0.416      1.356
REMARK  6 active torsions:
REMARK  status: ('A' for Active; 'I' for Inactive)
REMARK    1  A    between atoms: O_1  and  C_5 
REMARK    2  A    between atoms: O_2  and  C_7 
REMARK    3  A    between atoms: O_2  and  C_13 
REMARK    4  A    between atoms: C_4  and  C_5 
REMARK    5  A    between atoms: C_4  and  C_6 
REMARK    6  A    between atoms: C_5  and  C_7 
ROOT
HETATM    1  O   UNL     1      11.705   5.618  14.841  1.00  0.00    -0.385 OA
HETATM    2  H   UNL     1      12.081   5.101  15.570  1.00  0.00     0.210 HD
ENDROOT
BRANCH   1   3
HETATM    3  C   UNL     1      12.746   6.019  13.959  1.00  0.00     0.221 C 
BRANCH   3   4
HETATM    4  C   UNL     1      13.231   4.793  13.181  1.00  0.00     0.080 C 
BRANCH   4   5
HETATM    5  C   UNL     1      14.447   5.100  12.341  1.00  0.00    -0.055 A 
HETATM    6  C   UNL     1      15.627   5.475  12.965  1.00  0.00     0.007 A 
HETATM    7  C   UNL     1      16.751   5.758  12.189  1.00  0.00     0.001 A 
HETATM    8  C   UNL     1      16.680   5.663  10.799  1.00  0.00     0.000 A 
HETATM    9  C   UNL     1      15.486   5.285  10.185  1.00  0.00     0.001 A 
HETATM   10  C   UNL     1      14.362   5.001  10.962  1.00  0.00     0.007 A 
ENDBRANCH   4   5
ENDBRANCH   3   4
BRANCH   3  11
HETATM   11  C   UNL     1      12.176   7.063  13.018  1.00  0.00     0.288 C 
HETATM   12  O   UNL     1      11.266   6.862  12.225  1.00  0.00    -0.262 OA
BRANCH  11  13
HETATM   13  O   UNL     1      12.815   8.253  13.215  1.00  0.00    -0.320 OA
BRANCH  13  14
HETATM   14  C   UNL     1      12.198   9.137  14.157  1.00  0.00     0.174 C 
HETATM   15  C   UNL     1      11.957  10.476  13.492  1.00  0.00     0.034 C 
ENDBRANCH  13  14
ENDBRANCH  11  13
ENDBRANCH   3  11
ENDBRANCH   1   3
TORSDOF 6
ENDMDL
MODEL 3
REMARK VINA RESULT:      -5.8      1.200      1.747
REMARK  6 active torsions:
REMARK  status: ('A' for Active; 'I' for Inactive)
REMARK    1  A    between atoms: O_1  and  C_5 
REMARK    2  A    between atoms: O_2  and  C_7 
REMARK    3  A    between atoms: O_2  and  C_13 
REMARK    4  A    between atoms: C_4  and  C_5 
REMARK    5  A    between atoms: C_4  and  C_6 
REMARK    6  A    between atoms: C_5  and  C_7 
ROOT
HETATM    1  O   UNL     1      12.196   4.106  13.009  1.00  0.00    -0.385 OA
HETATM    2  H   UNL     1      12.729   3.332  13.251  1.00  0.00     0.210 HD
ENDROOT
BRANCH   1   3
HETATM    3  C   UNL     1      13.056   5.196  12.703  1.00  0.00     0.221 C 
BRANCH   3   4
HETATM    4  C   UNL     1      13.874   4.844  11.459  1.00  0.00     0.080 C 
BRANCH   4   5
HETATM    5  C   UNL     1      15.316   5.269  11.589  1.00  0.00    -0.055 A 
HETATM    6  C   UNL     1      16.087   5.416  10.446  1.00  0.00     0.007 A 
HETATM    7  C   UNL     1      17.420   5.809  10.565  1.00  0.00     0.001 A 
HETATM    8  C   UNL     1      17.965   6.050  11.827  1.00  0.00     0.000 A 
HETATM    9  C   UNL     1      17.178   5.898  12.968  1.00  0.00     0.001 A 
HETATM   10  C   UNL     1      15.845   5.505  12.848  1.00  0.00     0.007 A 
ENDBRANCH   4   5
ENDBRANCH   3   4
BRANCH   3  11
HETATM   11  C   UNL     1      12.185   6.411  12.450  1.00  0.00     0.288 C 
HETATM   12  O   UNL     1      11.125   6.393  11.840  1.00  0.00    -0.262 OA
BRANCH  11  13
HETATM   13  O   UNL     1      12.754   7.510  13.028  1.00  0.00    -0.320 OA
BRANCH  13  14
HETATM   14  C   UNL     1      11.913   8.240  13.928  1.00  0.00     0.174 C 
HETATM   15  C   UNL     1      11.982   9.712  13.582  1.00  0.00     0.034 C 
ENDBRANCH  13  14
ENDBRANCH  11  13
ENDBRANCH   3  11
ENDBRANCH   1   3
TORSDOF 6
ENDMDL
MODEL 4
REMARK VINA RESULT:      -5.8      1.288      1.807
REMARK  6 active torsions:
REMARK  status: ('A' for Active; 'I' for Inactive)
REMARK    1  A    between atoms: O_1  and  C_5 
REMARK    2  A    between atoms: O_2  and  C_7 
REMARK    3  A    between atoms: O_2  and  C_13 
REMARK    4  A    between atoms: C_4  and  C_5 
REMARK    5  A    between atoms: C_4  and  C_6 
REMARK    6  A    between atoms: C_5  and  C_7 
ROOT
HETATM    1  O   UNL     1      14.407   7.847  15.021  1.00  0.00    -0.385 OA
HETATM    2  H   UNL     1      14.871   7.072  15.375  1.00  0.00     0.210 HD
ENDROOT
BRANCH   1   3
HETATM    3  C   UNL     1      13.572   7.446  13.942  1.00  0.00     0.221 C 
BRANCH   3   4
HETATM    4  C   UNL     1      13.609   5.920  13.830  1.00  0.00     0.080 C 
BRANCH   4   5
HETATM    5  C   UNL     1      13.798   5.460  12.405  1.00  0.00    -0.055 A 
HETATM    6  C   UNL     1      12.742   4.852  11.743  1.00  0.00     0.007 A 
HETATM    7  C   UNL     1      12.916   4.426  10.426  1.00  0.00     0.001 A 
HETATM    8  C   UNL     1      14.143   4.614   9.789  1.00  0.00     0.000 A 
HETATM    9  C   UNL     1      15.195   5.227  10.468  1.00  0.00     0.001 A 
HETATM   10  C   UNL     1      15.021   5.653  11.785  1.00  0.00     0.007 A 
ENDBRANCH   4   5
ENDBRANCH   3   4
BRANCH   3  11
HETATM   11  C   UNL     1      12.167   7.931  14.242  1.00  0.00     0.288 C 
HETATM   12  O   UNL     1      11.418   7.425  15.067  1.00  0.00    -0.262 OA
BRANCH  11  13
HETATM   13  O   UNL     1      11.886   9.024  13.473  1.00  0.00    -0.320 OA
BRANCH  13  14
HETATM   14  C   UNL     1      12.366  10.275  13.979  1.00  0.00     0.174 C 
HETATM   15  C   UNL     1      11.731  11.401  13.191  1.00  0.00     0.034 C 
ENDBRANCH  13  14
ENDBRANCH  11  13
ENDBRANCH   3  11
ENDBRANCH   1   3
TORSDOF 6
ENDMDL
MODEL 5
REMARK VINA RESULT:      -5.8      2.521      4.051
REMARK  6 active torsions:
REMARK  status: ('A' for Active; 'I' for Inactive)
REMARK    1  A    between atoms: O_1  and  C_5 
REMARK    2  A    between atoms: O_2  and  C_7 
REMARK    3  A    between atoms: O_2  and  C_13 
REMARK    4  A    between atoms: C_4  and  C_5 
REMARK    5  A    between atoms: C_4  and  C_6 
REMARK    6  A    between atoms: C_5  and  C_7 
ROOT
HETATM    1  O   UNL     1      12.672   6.548  12.121  1.00  0.00    -0.385 OA
HETATM    2  H   UNL     1      12.167   6.936  11.390  1.00  0.00     0.210 HD
ENDROOT
BRANCH   1   3
HETATM    3  C   UNL     1      13.484   5.490  11.628  1.00  0.00     0.221 C 
BRANCH   3   4
HETATM    4  C   UNL     1      14.560   5.169  12.668  1.00  0.00     0.080 C 
BRANCH   4   5
HETATM    5  C   UNL     1      15.948   5.479  12.163  1.00  0.00    -0.055 A 
HETATM    6  C   UNL     1      16.181   5.513  10.797  1.00  0.00     0.007 A 
HETATM    7  C   UNL     1      17.464   5.799  10.329  1.00  0.00     0.001 A 
HETATM    8  C   UNL     1      18.496   6.047  11.234  1.00  0.00     0.000 A 
HETATM    9  C   UNL     1      18.247   6.009  12.605  1.00  0.00     0.001 A 
HETATM   10  C   UNL     1      16.964   5.723  13.073  1.00  0.00     0.007 A 
ENDBRANCH   4   5
ENDBRANCH   3   4
BRANCH   3  11
HETATM   11  C   UNL     1      12.586   4.291  11.393  1.00  0.00     0.288 C 
HETATM   12  O   UNL     1      12.236   3.504  12.262  1.00  0.00    -0.262 OA
BRANCH  11  13
HETATM   13  O   UNL     1      12.215   4.248  10.080  1.00  0.00    -0.320 OA
BRANCH  13  14
HETATM   14  C   UNL     1      13.264   4.479   9.134  1.00  0.00     0.174 C 
HETATM   15  C   UNL     1      13.622   3.169   8.464  1.00  0.00     0.034 C 
ENDBRANCH  13  14
ENDBRANCH  11  13
ENDBRANCH   3  11
ENDBRANCH   1   3
TORSDOF 6
ENDMDL
MODEL 6
REMARK VINA RESULT:      -5.7      2.241      4.412
REMARK  6 active torsions:
REMARK  status: ('A' for Active; 'I' for Inactive)
REMARK    1  A    between atoms: O_1  and  C_5 
REMARK    2  A    between atoms: O_2  and  C_7 
REMARK    3  A    between atoms: O_2  and  C_13 
REMARK    4  A    between atoms: C_4  and  C_5 
REMARK    5  A    between atoms: C_4  and  C_6 
REMARK    6  A    between atoms: C_5  and  C_7 
ROOT
HETATM    1  O   UNL     1      12.135   3.466  11.088  1.00  0.00    -0.385 OA
HETATM    2  H   UNL     1      12.220   3.156  10.172  1.00  0.00     0.210 HD
ENDROOT
BRANCH   1   3
HETATM    3  C   UNL     1      12.731   4.751  11.209  1.00  0.00     0.221 C 
BRANCH   3   4
HETATM    4  C   UNL     1      13.183   4.950  12.658  1.00  0.00     0.080 C 
BRANCH   4   5
HETATM    5  C   UNL     1      13.014   6.379  13.114  1.00  0.00    -0.055 A 
HETATM    6  C   UNL     1      11.926   7.111  12.664  1.00  0.00     0.007 A 
HETATM    7  C   UNL     1      11.769   8.432  13.085  1.00  0.00     0.001 A 
HETATM    8  C   UNL     1      12.703   9.002  13.950  1.00  0.00     0.000 A 
HETATM    9  C   UNL     1      13.792   8.254  14.395  1.00  0.00     0.001 A 
HETATM   10  C   UNL     1      13.948   6.933  13.974  1.00  0.00     0.007 A 
ENDBRANCH   4   5
ENDBRANCH   3   4
BRANCH   3  11
HETATM   11  C   UNL     1      13.915   4.801  10.264  1.00  0.00     0.288 C 
HETATM   12  O   UNL     1      13.831   4.811   9.043  1.00  0.00    -0.262 OA
BRANCH  11  13
HETATM   13  O   UNL     1      15.074   4.860  10.984  1.00  0.00    -0.320 OA
BRANCH  13  14
HETATM   14  C   UNL     1      16.107   5.680  10.426  1.00  0.00     0.174 C 
HETATM   15  C   UNL     1      15.889   7.112  10.866  1.00  0.00     0.034 C 
ENDBRANCH  13  14
ENDBRANCH  11  13
ENDBRANCH   3  11
ENDBRANCH   1   3
TORSDOF 6
ENDMDL
MODEL 7
REMARK VINA RESULT:      -5.6      2.433      5.414
REMARK  6 active torsions:
REMARK  status: ('A' for Active; 'I' for Inactive)
REMARK    1  A    between atoms: O_1  and  C_5 
REMARK    2  A    between atoms: O_2  and  C_7 
REMARK    3  A    between atoms: O_2  and  C_13 
REMARK    4  A    between atoms: C_4  and  C_5 
REMARK    5  A    between atoms: C_4  and  C_6 
REMARK    6  A    between atoms: C_5  and  C_7 
ROOT
HETATM    1  O   UNL     1      11.702   3.921  11.547  1.00  0.00    -0.385 OA
HETATM    2  H   UNL     1      12.004   3.139  11.060  1.00  0.00     0.210 HD
ENDROOT
BRANCH   1   3
HETATM    3  C   UNL     1      12.530   5.030  11.224  1.00  0.00     0.221 C 
BRANCH   3   4
HETATM    4  C   UNL     1      13.437   5.333  12.419  1.00  0.00     0.080 C 
BRANCH   4   5
HETATM    5  C   UNL     1      13.161   6.695  13.009  1.00  0.00    -0.055 A 
HETATM    6  C   UNL     1      14.078   7.251  13.888  1.00  0.00     0.007 A 
HETATM    7  C   UNL     1      13.824   8.509  14.435  1.00  0.00     0.001 A 
HETATM    8  C   UNL     1      12.657   9.194  14.094  1.00  0.00     0.000 A 
HETATM    9  C   UNL     1      11.745   8.622  13.209  1.00  0.00     0.001 A 
HETATM   10  C   UNL     1      11.999   7.364  12.662  1.00  0.00     0.007 A 
ENDBRANCH   4   5
ENDBRANCH   3   4
BRANCH   3  11
HETATM   11  C   UNL     1      13.350   4.652  10.006  1.00  0.00     0.288 C 
HETATM   12  O   UNL     1      14.319   5.279   9.599  1.00  0.00    -0.262 OA
BRANCH  11  13
HETATM   13  O   UNL     1      12.857   3.502   9.460  1.00  0.00    -0.320 OA
BRANCH  13  14
HETATM   14  C   UNL     1      13.310   3.204   8.135  1.00  0.00     0.174 C 
HETATM   15  C   UNL     1      14.445   2.204   8.217  1.00  0.00     0.034 C 
ENDBRANCH  13  14
ENDBRANCH  11  13
ENDBRANCH   3  11
ENDBRANCH   1   3
TORSDOF 6
ENDMDL
MODEL 8
REMARK VINA RESULT:      -5.5      2.493      4.444
REMARK  6 active torsions:
REMARK  status: ('A' for Active; 'I' for Inactive)
REMARK    1  A    between atoms: O_1  and  C_5 
REMARK    2  A    between atoms: O_2  and  C_7 
REMARK    3  A    between atoms: O_2  and  C_13 
REMARK    4  A    between atoms: C_4  and  C_5 
REMARK    5  A    between atoms: C_4  and  C_6 
REMARK    6  A    between atoms: C_5  and  C_7 
ROOT
HETATM    1  O   UNL     1      15.002   4.189   8.916  1.00  0.00    -0.385 OA
HETATM    2  H   UNL     1      14.401   3.581   8.458  1.00  0.00     0.210 HD
ENDROOT
BRANCH   1   3
HETATM    3  C   UNL     1      14.376   4.673  10.097  1.00  0.00     0.221 C 
BRANCH   3   4
HETATM    4  C   UNL     1      14.872   6.094  10.371  1.00  0.00     0.080 C 
BRANCH   4   5
HETATM    5  C   UNL     1      15.158   6.323  11.836  1.00  0.00    -0.055 A 
HETATM    6  C   UNL     1      16.130   5.562  12.465  1.00  0.00     0.007 A 
HETATM    7  C   UNL     1      16.394   5.773  13.818  1.00  0.00     0.001 A 
HETATM    8  C   UNL     1      15.682   6.743  14.524  1.00  0.00     0.000 A 
HETATM    9  C   UNL     1      14.707   7.501  13.878  1.00  0.00     0.001 A 
HETATM   10  C   UNL     1      14.443   7.290  12.524  1.00  0.00     0.007 A 
ENDBRANCH   4   5
ENDBRANCH   3   4
BRANCH   3  11
HETATM   11  C   UNL     1      12.878   4.660   9.863  1.00  0.00     0.288 C 
HETATM   12  O   UNL     1      12.346   4.527   8.769  1.00  0.00    -0.262 OA
BRANCH  11  13
HETATM   13  O   UNL     1      12.227   4.794  11.056  1.00  0.00    -0.320 OA
BRANCH  13  14
HETATM   14  C   UNL     1      12.309   3.666  11.934  1.00  0.00     0.174 C 
HETATM   15  C   UNL     1      12.682   4.148  13.320  1.00  0.00     0.034 C 
ENDBRANCH  13  14
ENDBRANCH  11  13
ENDBRANCH   3  11
ENDBRANCH   1   3
TORSDOF 6
ENDMDL
MODEL 9
REMARK VINA RESULT:      -5.5      2.920      5.354
REMARK  6 active torsions:
REMARK  status: ('A' for Active; 'I' for Inactive)
REMARK    1  A    between atoms: O_1  and  C_5 
REMARK    2  A    between atoms: O_2  and  C_7 
REMARK    3  A    between atoms: O_2  and  C_13 
REMARK    4  A    between atoms: C_4  and  C_5 
REMARK    5  A    between atoms: C_4  and  C_6 
REMARK    6  A    between atoms: C_5  and  C_7 
ROOT
HETATM    1  O   UNL     1      16.288   5.217   9.603  1.00  0.00    -0.385 OA
HETATM    2  H   UNL     1      16.436   4.272   9.444  1.00  0.00     0.210 HD
ENDROOT
BRANCH   1   3
HETATM    3  C   UNL     1      15.376   5.378  10.682  1.00  0.00     0.221 C 
BRANCH   3   4
HETATM    4  C   UNL     1      15.267   6.868  11.017  1.00  0.00     0.080 C 
BRANCH   4   5
HETATM    5  C   UNL     1      15.113   7.107  12.499  1.00  0.00    -0.055 A 
HETATM    6  C   UNL     1      13.927   7.637  12.981  1.00  0.00     0.007 A 
HETATM    7  C   UNL     1      13.784   7.858  14.351  1.00  0.00     0.001 A 
HETATM    8  C   UNL     1      14.830   7.547  15.220  1.00  0.00     0.000 A 
HETATM    9  C   UNL     1      16.018   7.014  14.721  1.00  0.00     0.001 A 
HETATM   10  C   UNL     1      16.160   6.793  13.350  1.00  0.00     0.007 A 
ENDBRANCH   4   5
ENDBRANCH   3   4
BRANCH   3  11
HETATM   11  C   UNL     1      14.035   4.826  10.239  1.00  0.00     0.288 C 
HETATM   12  O   UNL     1      13.083   4.633  10.982  1.00  0.00    -0.262 OA
BRANCH  11  13
HETATM   13  O   UNL     1      14.054   4.607   8.891  1.00  0.00    -0.320 OA
BRANCH  13  14
HETATM   14  C   UNL     1      13.409   3.406   8.452  1.00  0.00     0.174 C 
HETATM   15  C   UNL     1      14.466   2.379   8.104  1.00  0.00     0.034 C 
ENDBRANCH  13  14
ENDBRANCH  11  13
ENDBRANCH   3  11
ENDBRANCH   1   3
TORSDOF 6
ENDMDL
