MODEL 1
REMARK VINA RESULT:      -6.3      0.000      0.000
REMARK  4 active torsions:
REMARK  status: ('A' for Active; 'I' for Inactive)
REMARK    1  A    between atoms: O_1  and  C_11 
REMARK    2  A    between atoms: C_4  and  C_5 
REMARK    3  A    between atoms: C_4  and  C_6 
REMARK    4  A    between atoms: C_6  and  C_12 
ROOT
ATOM      1  O   UNL A   1      31.839  76.168  23.704  1.00  0.00    -0.361 OA
ATOM      2  H   UNL A   1      32.630  75.716  23.922  1.00  0.00     0.217 HD
ENDROOT
BRANCH   1   3
ATOM      3  C   UNL A   1      31.591  76.522  22.414  1.00  0.00     0.065 A 
ATOM      4  C   UNL A   1      31.792  75.600  21.387  1.00  0.00     0.037 A 
ATOM      5  C   UNL A   1      31.540  75.961  20.064  1.00  0.00     0.010 A 
ATOM      6  C   UNL A   1      31.086  77.247  19.766  1.00  0.00    -0.058 A 
ATOM      7  C   UNL A   1      30.885  78.169  20.793  1.00  0.00     0.010 A 
ATOM      8  C   UNL A   1      31.137  77.808  22.116  1.00  0.00     0.037 A 
BRANCH   6   9
ATOM      9  C   UNL A   1      30.815  77.634  18.353  1.00  0.00     0.049 C 
BRANCH   9  10
ATOM     10  C   UNL A   1      32.062  77.626  17.461  1.00  0.00     0.117 C 
BRANCH  10  11
ATOM     11  C   UNL A   1      31.917  78.570  16.292  1.00  0.00     0.172 C 
ATOM     12  O   UNL A   1      30.689  79.141  16.224  1.00  0.00    -0.648 OA
ATOM     13  O   UNL A   1      32.818  78.819  15.501  1.00  0.00    -0.648 OA
ENDBRANCH  10  11
ENDBRANCH   9  10
ENDBRANCH   6   9
ENDBRANCH   1   3
TORSDOF 4
ENDMDL
MODEL 2
REMARK VINA RESULT:      -6.3      0.120      1.398
REMARK  4 active torsions:
REMARK  status: ('A' for Active; 'I' for Inactive)
REMARK    1  A    between atoms: O_1  and  C_11 
REMARK    2  A    between atoms: C_4  and  C_5 
REMARK    3  A    between atoms: C_4  and  C_6 
REMARK    4  A    between atoms: C_6  and  C_12 
ROOT
ATOM      1  O   UNL A   1      31.860  76.244  23.698  1.00  0.00    -0.361 OA
ATOM      2  H   UNL A   1      31.323  75.622  24.149  1.00  0.00     0.217 HD
ENDROOT
BRANCH   1   3
ATOM      3  C   UNL A   1      31.612  76.534  22.392  1.00  0.00     0.065 A 
ATOM      4  C   UNL A   1      31.201  77.816  22.028  1.00  0.00     0.037 A 
ATOM      5  C   UNL A   1      30.946  78.115  20.690  1.00  0.00     0.010 A 
ATOM      6  C   UNL A   1      31.102  77.130  19.714  1.00  0.00    -0.058 A 
ATOM      7  C   UNL A   1      31.513  75.848  20.078  1.00  0.00     0.010 A 
ATOM      8  C   UNL A   1      31.768  75.549  21.416  1.00  0.00     0.037 A 
BRANCH   6   9
ATOM      9  C   UNL A   1      30.830  77.449  18.283  1.00  0.00     0.049 C 
BRANCH   9  10
ATOM     10  C   UNL A   1      32.096  77.678  17.450  1.00  0.00     0.117 C 
BRANCH  10  11
ATOM     11  C   UNL A   1      31.843  78.623  16.300  1.00  0.00     0.172 C 
ATOM     12  O   UNL A   1      30.604  79.173  16.332  1.00  0.00    -0.648 OA
ATOM     13  O   UNL A   1      32.674  78.889  15.442  1.00  0.00    -0.648 OA
ENDBRANCH  10  11
ENDBRANCH   9  10
ENDBRANCH   6   9
ENDBRANCH   1   3
TORSDOF 4
ENDMDL
MODEL 3
REMARK VINA RESULT:      -6.1      2.442      4.862
REMARK  4 active torsions:
REMARK  status: ('A' for Active; 'I' for Inactive)
REMARK    1  A    between atoms: O_1  and  C_11 
REMARK    2  A    between atoms: C_4  and  C_5 
REMARK    3  A    between atoms: C_4  and  C_6 
REMARK    4  A    between atoms: C_6  and  C_12 
ROOT
ATOM      1  O   UNL A   1      30.854  75.352  16.741  1.00  0.00    -0.361 OA
ATOM      2  H   UNL A   1      30.002  75.009  16.556  1.00  0.00     0.217 HD
ENDROOT
BRANCH   1   3
ATOM      3  C   UNL A   1      31.107  75.929  17.948  1.00  0.00     0.065 A 
ATOM      4  C   UNL A   1      31.614  75.161  18.996  1.00  0.00     0.037 A 
ATOM      5  C   UNL A   1      31.872  75.750  20.233  1.00  0.00     0.010 A 
ATOM      6  C   UNL A   1      31.622  77.110  20.423  1.00  0.00    -0.058 A 
ATOM      7  C   UNL A   1      31.115  77.878  19.376  1.00  0.00     0.010 A 
ATOM      8  C   UNL A   1      30.857  77.288  18.139  1.00  0.00     0.037 A 
BRANCH   6   9
ATOM      9  C   UNL A   1      31.898  77.741  21.745  1.00  0.00     0.049 C 
BRANCH   9  10
ATOM     10  C   UNL A   1      31.105  79.029  21.993  1.00  0.00     0.117 C 
BRANCH  10  11
ATOM     11  C   UNL A   1      31.978  80.121  22.563  1.00  0.00     0.172 C 
ATOM     12  O   UNL A   1      32.971  79.643  23.353  1.00  0.00    -0.648 OA
ATOM     13  O   UNL A   1      31.827  81.311  22.319  1.00  0.00    -0.648 OA
ENDBRANCH  10  11
ENDBRANCH   9  10
ENDBRANCH   6   9
ENDBRANCH   1   3
TORSDOF 4
ENDMDL
MODEL 4
REMARK VINA RESULT:      -6.0      3.391      4.347
REMARK  4 active torsions:
REMARK  status: ('A' for Active; 'I' for Inactive)
REMARK    1  A    between atoms: O_1  and  C_11 
REMARK    2  A    between atoms: C_4  and  C_5 
REMARK    3  A    between atoms: C_4  and  C_6 
REMARK    4  A    between atoms: C_6  and  C_12 
ROOT
ATOM      1  O   UNL A   1      33.403  73.311  21.015  1.00  0.00    -0.361 OA
ATOM      2  H   UNL A   1      33.838  73.017  21.791  1.00  0.00     0.217 HD
ENDROOT
BRANCH   1   3
ATOM      3  C   UNL A   1      32.852  74.555  20.974  1.00  0.00     0.065 A 
ATOM      4  C   UNL A   1      32.489  75.117  19.751  1.00  0.00     0.037 A 
ATOM      5  C   UNL A   1      31.925  76.392  19.707  1.00  0.00     0.010 A 
ATOM      6  C   UNL A   1      31.725  77.107  20.890  1.00  0.00    -0.058 A 
ATOM      7  C   UNL A   1      32.089  76.544  22.113  1.00  0.00     0.010 A 
ATOM      8  C   UNL A   1      32.652  75.270  22.156  1.00  0.00     0.037 A 
BRANCH   6   9
ATOM      9  C   UNL A   1      31.122  78.469  20.844  1.00  0.00     0.049 C 
BRANCH   9  10
ATOM     10  C   UNL A   1      30.904  79.094  22.227  1.00  0.00     0.117 C 
BRANCH  10  11
ATOM     11  C   UNL A   1      31.959  80.126  22.545  1.00  0.00     0.172 C 
ATOM     12  O   UNL A   1      32.948  79.643  23.337  1.00  0.00    -0.648 OA
ATOM     13  O   UNL A   1      31.942  81.272  22.115  1.00  0.00    -0.648 OA
ENDBRANCH  10  11
ENDBRANCH   9  10
ENDBRANCH   6   9
ENDBRANCH   1   3
TORSDOF 4
ENDMDL
MODEL 5
REMARK VINA RESULT:      -5.9      2.394      5.026
REMARK  4 active torsions:
REMARK  status: ('A' for Active; 'I' for Inactive)
REMARK    1  A    between atoms: O_1  and  C_11 
REMARK    2  A    between atoms: C_4  and  C_5 
REMARK    3  A    between atoms: C_4  and  C_6 
REMARK    4  A    between atoms: C_6  and  C_12 
ROOT
ATOM      1  O   UNL A   1      31.231  75.573  16.332  1.00  0.00    -0.361 OA
ATOM      2  H   UNL A   1      31.976  75.521  15.767  1.00  0.00     0.217 HD
ENDROOT
BRANCH   1   3
ATOM      3  C   UNL A   1      31.370  76.055  17.598  1.00  0.00     0.065 A 
ATOM      4  C   UNL A   1      30.823  77.292  17.938  1.00  0.00     0.037 A 
ATOM      5  C   UNL A   1      30.966  77.786  19.234  1.00  0.00     0.010 A 
ATOM      6  C   UNL A   1      31.658  77.044  20.191  1.00  0.00    -0.058 A 
ATOM      7  C   UNL A   1      32.205  75.807  19.851  1.00  0.00     0.010 A 
ATOM      8  C   UNL A   1      32.062  75.312  18.555  1.00  0.00     0.037 A 
BRANCH   6   9
ATOM      9  C   UNL A   1      31.811  77.572  21.577  1.00  0.00     0.049 C 
BRANCH   9  10
ATOM     10  C   UNL A   1      31.192  78.959  21.781  1.00  0.00     0.117 C 
BRANCH  10  11
ATOM     11  C   UNL A   1      32.133  79.888  22.509  1.00  0.00     0.172 C 
ATOM     12  O   UNL A   1      31.919  81.194  22.213  1.00  0.00    -0.648 OA
ATOM     13  O   UNL A   1      32.984  79.510  23.304  1.00  0.00    -0.648 OA
ENDBRANCH  10  11
ENDBRANCH   9  10
ENDBRANCH   6   9
ENDBRANCH   1   3
TORSDOF 4
ENDMDL
MODEL 6
REMARK VINA RESULT:      -5.9      3.543      4.463
REMARK  4 active torsions:
REMARK  status: ('A' for Active; 'I' for Inactive)
REMARK    1  A    between atoms: O_1  and  C_11 
REMARK    2  A    between atoms: C_4  and  C_5 
REMARK    3  A    between atoms: C_4  and  C_6 
REMARK    4  A    between atoms: C_6  and  C_12 
ROOT
ATOM      1  O   UNL A   1      32.056  72.874  20.897  1.00  0.00    -0.361 OA
ATOM      2  H   UNL A   1      31.272  72.362  20.929  1.00  0.00     0.217 HD
ENDROOT
BRANCH   1   3
ATOM      3  C   UNL A   1      31.979  74.232  20.851  1.00  0.00     0.065 A 
ATOM      4  C   UNL A   1      32.347  74.990  21.962  1.00  0.00     0.037 A 
ATOM      5  C   UNL A   1      32.267  76.381  21.916  1.00  0.00     0.010 A 
ATOM      6  C   UNL A   1      31.818  77.017  20.757  1.00  0.00    -0.058 A 
ATOM      7  C   UNL A   1      31.451  76.259  19.646  1.00  0.00     0.010 A 
ATOM      8  C   UNL A   1      31.530  74.867  19.692  1.00  0.00     0.037 A 
BRANCH   6   9
ATOM      9  C   UNL A   1      31.734  78.504  20.707  1.00  0.00     0.049 C 
BRANCH   9  10
ATOM     10  C   UNL A   1      31.064  79.126  21.938  1.00  0.00     0.117 C 
BRANCH  10  11
ATOM     11  C   UNL A   1      31.973  80.116  22.626  1.00  0.00     0.172 C 
ATOM     12  O   UNL A   1      33.014  79.523  23.261  1.00  0.00    -0.648 OA
ATOM     13  O   UNL A   1      31.807  81.328  22.596  1.00  0.00    -0.648 OA
ENDBRANCH  10  11
ENDBRANCH   9  10
ENDBRANCH   6   9
ENDBRANCH   1   3
TORSDOF 4
ENDMDL
MODEL 7
REMARK VINA RESULT:      -5.8      1.421      1.631
REMARK  4 active torsions:
REMARK  status: ('A' for Active; 'I' for Inactive)
REMARK    1  A    between atoms: O_1  and  C_11 
REMARK    2  A    between atoms: C_4  and  C_5 
REMARK    3  A    between atoms: C_4  and  C_6 
REMARK    4  A    between atoms: C_6  and  C_12 
ROOT
ATOM      1  O   UNL A   1      33.286  74.693  22.931  1.00  0.00    -0.361 OA
ATOM      2  H   UNL A   1      33.105  74.849  23.837  1.00  0.00     0.217 HD
ENDROOT
BRANCH   1   3
ATOM      3  C   UNL A   1      32.683  75.454  21.977  1.00  0.00     0.065 A 
ATOM      4  C   UNL A   1      32.321  74.885  20.757  1.00  0.00     0.037 A 
ATOM      5  C   UNL A   1      31.705  75.664  19.778  1.00  0.00     0.010 A 
ATOM      6  C   UNL A   1      31.450  77.015  20.020  1.00  0.00    -0.058 A 
ATOM      7  C   UNL A   1      31.813  77.584  21.240  1.00  0.00     0.010 A 
ATOM      8  C   UNL A   1      32.429  76.805  22.219  1.00  0.00     0.037 A 
BRANCH   6   9
ATOM      9  C   UNL A   1      30.791  77.848  18.975  1.00  0.00     0.049 C 
BRANCH   9  10
ATOM     10  C   UNL A   1      30.710  77.168  17.603  1.00  0.00     0.117 C 
BRANCH  10  11
ATOM     11  C   UNL A   1      30.134  78.091  16.556  1.00  0.00     0.172 C 
ATOM     12  O   UNL A   1      29.436  77.432  15.598  1.00  0.00    -0.648 OA
ATOM     13  O   UNL A   1      30.259  79.309  16.579  1.00  0.00    -0.648 OA
ENDBRANCH  10  11
ENDBRANCH   9  10
ENDBRANCH   6   9
ENDBRANCH   1   3
TORSDOF 4
ENDMDL
MODEL 8
REMARK VINA RESULT:      -5.7      3.003      5.677
REMARK  4 active torsions:
REMARK  status: ('A' for Active; 'I' for Inactive)
REMARK    1  A    between atoms: O_1  and  C_11 
REMARK    2  A    between atoms: C_4  and  C_5 
REMARK    3  A    between atoms: C_4  and  C_6 
REMARK    4  A    between atoms: C_6  and  C_12 
ROOT
ATOM      1  O   UNL A   1      31.440  79.690  21.250  1.00  0.00    -0.361 OA
ATOM      2  H   UNL A   1      31.400  80.207  20.469  1.00  0.00     0.217 HD
ENDROOT
BRANCH   1   3
ATOM      3  C   UNL A   1      31.733  78.364  21.174  1.00  0.00     0.065 A 
ATOM      4  C   UNL A   1      31.390  77.638  20.034  1.00  0.00     0.037 A 
ATOM      5  C   UNL A   1      31.689  76.278  19.955  1.00  0.00     0.010 A 
ATOM      6  C   UNL A   1      32.333  75.643  21.018  1.00  0.00    -0.058 A 
ATOM      7  C   UNL A   1      32.676  76.369  22.158  1.00  0.00     0.010 A 
ATOM      8  C   UNL A   1      32.377  77.728  22.237  1.00  0.00     0.037 A 
BRANCH   6   9
ATOM      9  C   UNL A   1      32.654  74.189  20.933  1.00  0.00     0.049 C 
BRANCH   9  10
ATOM     10  C   UNL A   1      33.707  73.730  21.948  1.00  0.00     0.117 C 
BRANCH  10  11
ATOM     11  C   UNL A   1      33.247  72.514  22.717  1.00  0.00     0.172 C 
ATOM     12  O   UNL A   1      31.917  72.282  22.590  1.00  0.00    -0.648 OA
ATOM     13  O   UNL A   1      33.996  71.796  23.366  1.00  0.00    -0.648 OA
ENDBRANCH  10  11
ENDBRANCH   9  10
ENDBRANCH   6   9
ENDBRANCH   1   3
TORSDOF 4
ENDMDL
MODEL 9
REMARK VINA RESULT:      -5.7      2.382      5.662
REMARK  4 active torsions:
REMARK  status: ('A' for Active; 'I' for Inactive)
REMARK    1  A    between atoms: O_1  and  C_11 
REMARK    2  A    between atoms: C_4  and  C_5 
REMARK    3  A    between atoms: C_4  and  C_6 
REMARK    4  A    between atoms: C_6  and  C_12 
ROOT
ATOM      1  O   UNL A   1      30.344  78.521  18.739  1.00  0.00    -0.361 OA
ATOM      2  H   UNL A   1      30.662  78.588  17.860  1.00  0.00     0.217 HD
ENDROOT
BRANCH   1   3
ATOM      3  C   UNL A   1      30.992  77.730  19.637  1.00  0.00     0.065 A 
ATOM      4  C   UNL A   1      31.441  76.466  19.258  1.00  0.00     0.037 A 
ATOM      5  C   UNL A   1      32.104  75.655  20.178  1.00  0.00     0.010 A 
ATOM      6  C   UNL A   1      32.319  76.109  21.480  1.00  0.00    -0.058 A 
ATOM      7  C   UNL A   1      31.871  77.374  21.859  1.00  0.00     0.010 A 
ATOM      8  C   UNL A   1      31.207  78.184  20.939  1.00  0.00     0.037 A 
BRANCH   6   9
ATOM      9  C   UNL A   1      33.029  75.243  22.464  1.00  0.00     0.049 C 
BRANCH   9  10
ATOM     10  C   UNL A   1      33.670  73.997  21.841  1.00  0.00     0.117 C 
BRANCH  10  11
ATOM     11  C   UNL A   1      33.216  72.733  22.531  1.00  0.00     0.172 C 
ATOM     12  O   UNL A   1      31.876  72.538  22.446  1.00  0.00    -0.648 OA
ATOM     13  O   UNL A   1      33.975  71.949  23.086  1.00  0.00    -0.648 OA
ENDBRANCH  10  11
ENDBRANCH   9  10
ENDBRANCH   6   9
ENDBRANCH   1   3
TORSDOF 4
ENDMDL
