MODEL 1
REMARK VINA RESULT:      -6.3      0.000      0.000
REMARK  4 active torsions:
REMARK  status: ('A' for Active; 'I' for Inactive)
REMARK    1  A    between atoms: O_1  and  C_11 
REMARK    2  A    between atoms: C_4  and  C_5 
REMARK    3  A    between atoms: C_4  and  C_6 
REMARK    4  A    between atoms: C_6  and  C_12 
ROOT
ATOM      1  O   UNL A   1      31.832  76.249  23.702  1.00  0.00    -0.361 OA
ATOM      2  H   UNL A   1      32.700  76.324  24.046  1.00  0.00     0.217 HD
ENDROOT
BRANCH   1   3
ATOM      3  C   UNL A   1      31.588  76.556  22.399  1.00  0.00     0.065 A 
ATOM      4  C   UNL A   1      31.718  75.576  21.415  1.00  0.00     0.037 A 
ATOM      5  C   UNL A   1      31.470  75.890  20.079  1.00  0.00     0.010 A 
ATOM      6  C   UNL A   1      31.091  77.186  19.726  1.00  0.00    -0.058 A 
ATOM      7  C   UNL A   1      30.961  78.165  20.710  1.00  0.00     0.010 A 
ATOM      8  C   UNL A   1      31.210  77.852  22.045  1.00  0.00     0.037 A 
BRANCH   6   9
ATOM      9  C   UNL A   1      30.825  77.522  18.298  1.00  0.00     0.049 C 
BRANCH   9  10
ATOM     10  C   UNL A   1      32.094  77.655  17.448  1.00  0.00     0.117 C 
BRANCH  10  11
ATOM     11  C   UNL A   1      31.889  78.596  16.285  1.00  0.00     0.172 C 
ATOM     12  O   UNL A   1      30.662  79.173  16.283  1.00  0.00    -0.648 OA
ATOM     13  O   UNL A   1      32.746  78.837  15.445  1.00  0.00    -0.648 OA
ENDBRANCH  10  11
ENDBRANCH   9  10
ENDBRANCH   6   9
ENDBRANCH   1   3
TORSDOF 4
ENDMDL
MODEL 2
REMARK VINA RESULT:      -6.3      0.102      1.397
REMARK  4 active torsions:
REMARK  status: ('A' for Active; 'I' for Inactive)
REMARK    1  A    between atoms: O_1  and  C_11 
REMARK    2  A    between atoms: C_4  and  C_5 
REMARK    3  A    between atoms: C_4  and  C_6 
REMARK    4  A    between atoms: C_6  and  C_12 
ROOT
ATOM      1  O   UNL A   1      31.834  76.150  23.701  1.00  0.00    -0.361 OA
ATOM      2  H   UNL A   1      32.004  75.261  23.945  1.00  0.00     0.217 HD
ENDROOT
BRANCH   1   3
ATOM      3  C   UNL A   1      31.599  76.463  22.398  1.00  0.00     0.065 A 
ATOM      4  C   UNL A   1      31.292  77.776  22.040  1.00  0.00     0.037 A 
ATOM      5  C   UNL A   1      31.050  78.098  20.705  1.00  0.00     0.010 A 
ATOM      6  C   UNL A   1      31.114  77.106  19.726  1.00  0.00    -0.058 A 
ATOM      7  C   UNL A   1      31.421  75.793  20.084  1.00  0.00     0.010 A 
ATOM      8  C   UNL A   1      31.663  75.471  21.418  1.00  0.00     0.037 A 
BRANCH   6   9
ATOM      9  C   UNL A   1      30.855  77.449  18.299  1.00  0.00     0.049 C 
BRANCH   9  10
ATOM     10  C   UNL A   1      32.126  77.754  17.497  1.00  0.00     0.117 C 
BRANCH  10  11
ATOM     11  C   UNL A   1      31.830  78.606  16.286  1.00  0.00     0.172 C 
ATOM     12  O   UNL A   1      30.564  79.093  16.280  1.00  0.00    -0.648 OA
ATOM     13  O   UNL A   1      32.650  78.857  15.413  1.00  0.00    -0.648 OA
ENDBRANCH  10  11
ENDBRANCH   9  10
ENDBRANCH   6   9
ENDBRANCH   1   3
TORSDOF 4
ENDMDL
MODEL 3
REMARK VINA RESULT:      -6.1      2.317      4.868
REMARK  4 active torsions:
REMARK  status: ('A' for Active; 'I' for Inactive)
REMARK    1  A    between atoms: O_1  and  C_11 
REMARK    2  A    between atoms: C_4  and  C_5 
REMARK    3  A    between atoms: C_4  and  C_6 
REMARK    4  A    between atoms: C_6  and  C_12 
ROOT
ATOM      1  O   UNL A   1      31.662  75.530  16.491  1.00  0.00    -0.361 OA
ATOM      2  H   UNL A   1      31.466  76.075  15.755  1.00  0.00     0.217 HD
ENDROOT
BRANCH   1   3
ATOM      3  C   UNL A   1      31.603  76.043  17.751  1.00  0.00     0.065 A 
ATOM      4  C   UNL A   1      32.267  75.402  18.796  1.00  0.00     0.037 A 
ATOM      5  C   UNL A   1      32.206  75.925  20.087  1.00  0.00     0.010 A 
ATOM      6  C   UNL A   1      31.480  77.092  20.334  1.00  0.00    -0.058 A 
ATOM      7  C   UNL A   1      30.817  77.732  19.288  1.00  0.00     0.010 A 
ATOM      8  C   UNL A   1      30.877  77.209  17.997  1.00  0.00     0.037 A 
BRANCH   6   9
ATOM      9  C   UNL A   1      31.416  77.652  21.714  1.00  0.00     0.049 C 
BRANCH   9  10
ATOM     10  C   UNL A   1      30.954  79.113  21.765  1.00  0.00     0.117 C 
BRANCH  10  11
ATOM     11  C   UNL A   1      31.948  79.986  22.494  1.00  0.00     0.172 C 
ATOM     12  O   UNL A   1      32.923  79.273  23.110  1.00  0.00    -0.648 OA
ATOM     13  O   UNL A   1      31.899  81.209  22.508  1.00  0.00    -0.648 OA
ENDBRANCH  10  11
ENDBRANCH   9  10
ENDBRANCH   6   9
ENDBRANCH   1   3
TORSDOF 4
ENDMDL
MODEL 4
REMARK VINA RESULT:      -6.0      3.727      4.329
REMARK  4 active torsions:
REMARK  status: ('A' for Active; 'I' for Inactive)
REMARK    1  A    between atoms: O_1  and  C_11 
REMARK    2  A    between atoms: C_4  and  C_5 
REMARK    3  A    between atoms: C_4  and  C_6 
REMARK    4  A    between atoms: C_6  and  C_12 
ROOT
ATOM      1  O   UNL A   1      31.110  72.816  22.542  1.00  0.00    -0.361 OA
ATOM      2  H   UNL A   1      30.624  72.217  22.010  1.00  0.00     0.217 HD
ENDROOT
BRANCH   1   3
ATOM      3  C   UNL A   1      31.231  74.118  22.164  1.00  0.00     0.065 A 
ATOM      4  C   UNL A   1      31.777  74.435  20.921  1.00  0.00     0.037 A 
ATOM      5  C   UNL A   1      31.902  75.768  20.532  1.00  0.00     0.010 A 
ATOM      6  C   UNL A   1      31.481  76.787  21.388  1.00  0.00    -0.058 A 
ATOM      7  C   UNL A   1      30.935  76.469  22.632  1.00  0.00     0.010 A 
ATOM      8  C   UNL A   1      30.810  75.136  23.020  1.00  0.00     0.037 A 
BRANCH   6   9
ATOM      9  C   UNL A   1      31.614  78.212  20.974  1.00  0.00     0.049 C 
BRANCH   9  10
ATOM     10  C   UNL A   1      30.925  79.199  21.923  1.00  0.00     0.117 C 
BRANCH  10  11
ATOM     11  C   UNL A   1      31.920  80.118  22.590  1.00  0.00     0.172 C 
ATOM     12  O   UNL A   1      32.973  79.454  23.129  1.00  0.00    -0.648 OA
ATOM     13  O   UNL A   1      31.807  81.337  22.621  1.00  0.00    -0.648 OA
ENDBRANCH  10  11
ENDBRANCH   9  10
ENDBRANCH   6   9
ENDBRANCH   1   3
TORSDOF 4
ENDMDL
MODEL 5
REMARK VINA RESULT:      -6.0      2.386      4.851
REMARK  4 active torsions:
REMARK  status: ('A' for Active; 'I' for Inactive)
REMARK    1  A    between atoms: O_1  and  C_11 
REMARK    2  A    between atoms: C_4  and  C_5 
REMARK    3  A    between atoms: C_4  and  C_6 
REMARK    4  A    between atoms: C_6  and  C_12 
ROOT
ATOM      1  O   UNL A   1      32.030  75.239  17.037  1.00  0.00    -0.361 OA
ATOM      2  H   UNL A   1      31.867  75.718  16.248  1.00  0.00     0.217 HD
ENDROOT
BRANCH   1   3
ATOM      3  C   UNL A   1      31.789  75.817  18.244  1.00  0.00     0.065 A 
ATOM      4  C   UNL A   1      31.136  77.048  18.311  1.00  0.00     0.037 A 
ATOM      5  C   UNL A   1      30.890  77.642  19.548  1.00  0.00     0.010 A 
ATOM      6  C   UNL A   1      31.297  77.005  20.721  1.00  0.00    -0.058 A 
ATOM      7  C   UNL A   1      31.949  75.774  20.655  1.00  0.00     0.010 A 
ATOM      8  C   UNL A   1      32.195  75.180  19.418  1.00  0.00     0.037 A 
BRANCH   6   9
ATOM      9  C   UNL A   1      31.033  77.639  22.044  1.00  0.00     0.049 C 
BRANCH   9  10
ATOM     10  C   UNL A   1      30.842  79.159  21.974  1.00  0.00     0.117 C 
BRANCH  10  11
ATOM     11  C   UNL A   1      32.041  79.897  22.519  1.00  0.00     0.172 C 
ATOM     12  O   UNL A   1      32.005  81.228  22.257  1.00  0.00    -0.648 OA
ATOM     13  O   UNL A   1      32.939  79.362  23.154  1.00  0.00    -0.648 OA
ENDBRANCH  10  11
ENDBRANCH   9  10
ENDBRANCH   6   9
ENDBRANCH   1   3
TORSDOF 4
ENDMDL
MODEL 6
REMARK VINA RESULT:      -5.8      3.145      5.681
REMARK  4 active torsions:
REMARK  status: ('A' for Active; 'I' for Inactive)
REMARK    1  A    between atoms: O_1  and  C_11 
REMARK    2  A    between atoms: C_4  and  C_5 
REMARK    3  A    between atoms: C_4  and  C_6 
REMARK    4  A    between atoms: C_6  and  C_12 
ROOT
ATOM      1  O   UNL A   1      31.518  80.053  21.421  1.00  0.00    -0.361 OA
ATOM      2  H   UNL A   1      32.051  80.636  20.917  1.00  0.00     0.217 HD
ENDROOT
BRANCH   1   3
ATOM      3  C   UNL A   1      31.714  78.709  21.339  1.00  0.00     0.065 A 
ATOM      4  C   UNL A   1      31.194  77.992  20.262  1.00  0.00     0.037 A 
ATOM      5  C   UNL A   1      31.394  76.615  20.177  1.00  0.00     0.010 A 
ATOM      6  C   UNL A   1      32.115  75.953  21.172  1.00  0.00    -0.058 A 
ATOM      7  C   UNL A   1      32.635  76.669  22.249  1.00  0.00     0.010 A 
ATOM      8  C   UNL A   1      32.436  78.047  22.333  1.00  0.00     0.037 A 
BRANCH   6   9
ATOM      9  C   UNL A   1      32.330  74.480  21.081  1.00  0.00     0.049 C 
BRANCH   9  10
ATOM     10  C   UNL A   1      33.387  73.950  22.056  1.00  0.00     0.117 C 
BRANCH  10  11
ATOM     11  C   UNL A   1      33.040  72.568  22.558  1.00  0.00     0.172 C 
ATOM     12  O   UNL A   1      34.131  71.849  22.920  1.00  0.00    -0.648 OA
ATOM     13  O   UNL A   1      31.895  72.147  22.655  1.00  0.00    -0.648 OA
ENDBRANCH  10  11
ENDBRANCH   9  10
ENDBRANCH   6   9
ENDBRANCH   1   3
TORSDOF 4
ENDMDL
MODEL 7
REMARK VINA RESULT:      -5.8      1.280      1.583
REMARK  4 active torsions:
REMARK  status: ('A' for Active; 'I' for Inactive)
REMARK    1  A    between atoms: O_1  and  C_11 
REMARK    2  A    between atoms: C_4  and  C_5 
REMARK    3  A    between atoms: C_4  and  C_6 
REMARK    4  A    between atoms: C_6  and  C_12 
ROOT
ATOM      1  O   UNL A   1      33.507  74.133  22.957  1.00  0.00    -0.361 OA
ATOM      2  H   UNL A   1      33.371  74.189  23.883  1.00  0.00     0.217 HD
ENDROOT
BRANCH   1   3
ATOM      3  C   UNL A   1      32.889  75.014  22.125  1.00  0.00     0.065 A 
ATOM      4  C   UNL A   1      32.545  74.628  20.830  1.00  0.00     0.037 A 
ATOM      5  C   UNL A   1      31.914  75.531  19.976  1.00  0.00     0.010 A 
ATOM      6  C   UNL A   1      31.625  76.824  20.417  1.00  0.00    -0.058 A 
ATOM      7  C   UNL A   1      31.970  77.210  21.712  1.00  0.00     0.010 A 
ATOM      8  C   UNL A   1      32.601  76.307  22.566  1.00  0.00     0.037 A 
BRANCH   6   9
ATOM      9  C   UNL A   1      30.949  77.789  19.504  1.00  0.00     0.049 C 
BRANCH   9  10
ATOM     10  C   UNL A   1      30.816  77.287  18.062  1.00  0.00     0.117 C 
BRANCH  10  11
ATOM     11  C   UNL A   1      31.137  78.371  17.062  1.00  0.00     0.172 C 
ATOM     12  O   UNL A   1      30.028  78.961  16.550  1.00  0.00    -0.648 OA
ATOM     13  O   UNL A   1      32.275  78.705  16.761  1.00  0.00    -0.648 OA
ENDBRANCH  10  11
ENDBRANCH   9  10
ENDBRANCH   6   9
ENDBRANCH   1   3
TORSDOF 4
ENDMDL
MODEL 8
REMARK VINA RESULT:      -5.7      1.292      2.012
REMARK  4 active torsions:
REMARK  status: ('A' for Active; 'I' for Inactive)
REMARK    1  A    between atoms: O_1  and  C_11 
REMARK    2  A    between atoms: C_4  and  C_5 
REMARK    3  A    between atoms: C_4  and  C_6 
REMARK    4  A    between atoms: C_6  and  C_12 
ROOT
ATOM      1  O   UNL A   1      33.380  74.412  22.945  1.00  0.00    -0.361 OA
ATOM      2  H   UNL A   1      32.918  73.675  23.294  1.00  0.00     0.217 HD
ENDROOT
BRANCH   1   3
ATOM      3  C   UNL A   1      32.775  75.226  22.038  1.00  0.00     0.065 A 
ATOM      4  C   UNL A   1      32.516  76.558  22.360  1.00  0.00     0.037 A 
ATOM      5  C   UNL A   1      31.894  77.393  21.432  1.00  0.00     0.010 A 
ATOM      6  C   UNL A   1      31.531  76.896  20.180  1.00  0.00    -0.058 A 
ATOM      7  C   UNL A   1      31.791  75.564  19.858  1.00  0.00     0.010 A 
ATOM      8  C   UNL A   1      32.412  74.729  20.786  1.00  0.00     0.037 A 
BRANCH   6   9
ATOM      9  C   UNL A   1      30.868  77.788  19.187  1.00  0.00     0.049 C 
BRANCH   9  10
ATOM     10  C   UNL A   1      30.864  77.228  17.759  1.00  0.00     0.117 C 
BRANCH  10  11
ATOM     11  C   UNL A   1      31.670  78.092  16.820  1.00  0.00     0.172 C 
ATOM     12  O   UNL A   1      32.630  78.810  17.455  1.00  0.00    -0.648 OA
ATOM     13  O   UNL A   1      31.499  78.126  15.608  1.00  0.00    -0.648 OA
ENDBRANCH  10  11
ENDBRANCH   9  10
ENDBRANCH   6   9
ENDBRANCH   1   3
TORSDOF 4
ENDMDL
MODEL 9
REMARK VINA RESULT:      -5.6      2.397      5.875
REMARK  4 active torsions:
REMARK  status: ('A' for Active; 'I' for Inactive)
REMARK    1  A    between atoms: O_1  and  C_11 
REMARK    2  A    between atoms: C_4  and  C_5 
REMARK    3  A    between atoms: C_4  and  C_6 
REMARK    4  A    between atoms: C_6  and  C_12 
ROOT
ATOM      1  O   UNL A   1      30.312  78.387  18.579  1.00  0.00    -0.361 OA
ATOM      2  H   UNL A   1      29.388  78.527  18.645  1.00  0.00     0.217 HD
ENDROOT
BRANCH   1   3
ATOM      3  C   UNL A   1      30.955  77.640  19.517  1.00  0.00     0.065 A 
ATOM      4  C   UNL A   1      31.141  78.143  20.804  1.00  0.00     0.037 A 
ATOM      5  C   UNL A   1      31.801  77.379  21.765  1.00  0.00     0.010 A 
ATOM      6  C   UNL A   1      32.276  76.108  21.439  1.00  0.00    -0.058 A 
ATOM      7  C   UNL A   1      32.091  75.604  20.152  1.00  0.00     0.010 A 
ATOM      8  C   UNL A   1      31.431  76.369  19.191  1.00  0.00     0.037 A 
BRANCH   6   9
ATOM      9  C   UNL A   1      32.981  75.289  22.467  1.00  0.00     0.049 C 
BRANCH   9  10
ATOM     10  C   UNL A   1      33.693  74.059  21.894  1.00  0.00     0.117 C 
BRANCH  10  11
ATOM     11  C   UNL A   1      33.132  72.776  22.459  1.00  0.00     0.172 C 
ATOM     12  O   UNL A   1      34.091  71.860  22.742  1.00  0.00    -0.648 OA
ATOM     13  O   UNL A   1      31.940  72.587  22.667  1.00  0.00    -0.648 OA
ENDBRANCH  10  11
ENDBRANCH   9  10
ENDBRANCH   6   9
ENDBRANCH   1   3
TORSDOF 4
ENDMDL
