MODEL 1
REMARK VINA RESULT:      -6.3      0.000      0.000
REMARK  4 active torsions:
REMARK  status: ('A' for Active; 'I' for Inactive)
REMARK    1  A    between atoms: O_1  and  C_11 
REMARK    2  A    between atoms: C_4  and  C_5 
REMARK    3  A    between atoms: C_4  and  C_6 
REMARK    4  A    between atoms: C_6  and  C_12 
ROOT
ATOM      1  O   UNL A   1      31.837  76.259  23.704  1.00  0.00    -0.361 OA
ATOM      2  H   UNL A   1      31.290  76.622  24.372  1.00  0.00     0.217 HD
ENDROOT
BRANCH   1   3
ATOM      3  C   UNL A   1      31.596  76.549  22.396  1.00  0.00     0.065 A 
ATOM      4  C   UNL A   1      31.728  75.556  21.426  1.00  0.00     0.037 A 
ATOM      5  C   UNL A   1      31.483  75.853  20.085  1.00  0.00     0.010 A 
ATOM      6  C   UNL A   1      31.105  77.144  19.715  1.00  0.00    -0.058 A 
ATOM      7  C   UNL A   1      30.973  78.137  20.685  1.00  0.00     0.010 A 
ATOM      8  C   UNL A   1      31.218  77.840  22.026  1.00  0.00     0.037 A 
BRANCH   6   9
ATOM      9  C   UNL A   1      30.842  77.462  18.282  1.00  0.00     0.049 C 
BRANCH   9  10
ATOM     10  C   UNL A   1      32.114  77.652  17.448  1.00  0.00     0.117 C 
BRANCH  10  11
ATOM     11  C   UNL A   1      31.887  78.598  16.294  1.00  0.00     0.172 C 
ATOM     12  O   UNL A   1      30.655  79.165  16.311  1.00  0.00    -0.648 OA
ATOM     13  O   UNL A   1      32.731  78.851  15.444  1.00  0.00    -0.648 OA
ENDBRANCH  10  11
ENDBRANCH   9  10
ENDBRANCH   6   9
ENDBRANCH   1   3
TORSDOF 4
ENDMDL
MODEL 2
REMARK VINA RESULT:      -6.3      0.125      1.400
REMARK  4 active torsions:
REMARK  status: ('A' for Active; 'I' for Inactive)
REMARK    1  A    between atoms: O_1  and  C_11 
REMARK    2  A    between atoms: C_4  and  C_5 
REMARK    3  A    between atoms: C_4  and  C_6 
REMARK    4  A    between atoms: C_6  and  C_12 
ROOT
ATOM      1  O   UNL A   1      31.839  76.261  23.719  1.00  0.00    -0.361 OA
ATOM      2  H   UNL A   1      32.515  76.719  24.179  1.00  0.00     0.217 HD
ENDROOT
BRANCH   1   3
ATOM      3  C   UNL A   1      31.614  76.523  22.403  1.00  0.00     0.065 A 
ATOM      4  C   UNL A   1      31.202  77.795  22.006  1.00  0.00     0.037 A 
ATOM      5  C   UNL A   1      30.970  78.064  20.657  1.00  0.00     0.010 A 
ATOM      6  C   UNL A   1      31.148  77.060  19.705  1.00  0.00    -0.058 A 
ATOM      7  C   UNL A   1      31.560  75.788  20.102  1.00  0.00     0.010 A 
ATOM      8  C   UNL A   1      31.792  75.519  21.451  1.00  0.00     0.037 A 
BRANCH   6   9
ATOM      9  C   UNL A   1      30.901  77.348  18.263  1.00  0.00     0.049 C 
BRANCH   9  10
ATOM     10  C   UNL A   1      32.141  77.844  17.510  1.00  0.00     0.117 C 
BRANCH  10  11
ATOM     11  C   UNL A   1      31.766  78.630  16.277  1.00  0.00     0.172 C 
ATOM     12  O   UNL A   1      30.506  79.128  16.331  1.00  0.00    -0.648 OA
ATOM     13  O   UNL A   1      32.525  78.824  15.336  1.00  0.00    -0.648 OA
ENDBRANCH  10  11
ENDBRANCH   9  10
ENDBRANCH   6   9
ENDBRANCH   1   3
TORSDOF 4
ENDMDL
MODEL 3
REMARK VINA RESULT:      -6.2      2.337      5.051
REMARK  4 active torsions:
REMARK  status: ('A' for Active; 'I' for Inactive)
REMARK    1  A    between atoms: O_1  and  C_11 
REMARK    2  A    between atoms: C_4  and  C_5 
REMARK    3  A    between atoms: C_4  and  C_6 
REMARK    4  A    between atoms: C_6  and  C_12 
ROOT
ATOM      1  O   UNL A   1      31.524  75.746  16.675  1.00  0.00    -0.361 OA
ATOM      2  H   UNL A   1      32.295  75.821  16.148  1.00  0.00     0.217 HD
ENDROOT
BRANCH   1   3
ATOM      3  C   UNL A   1      31.522  76.226  17.949  1.00  0.00     0.065 A 
ATOM      4  C   UNL A   1      30.842  77.406  18.248  1.00  0.00     0.037 A 
ATOM      5  C   UNL A   1      30.841  77.900  19.552  1.00  0.00     0.010 A 
ATOM      6  C   UNL A   1      31.521  77.213  20.559  1.00  0.00    -0.058 A 
ATOM      7  C   UNL A   1      32.201  76.033  20.259  1.00  0.00     0.010 A 
ATOM      8  C   UNL A   1      32.202  75.539  18.955  1.00  0.00     0.037 A 
BRANCH   6   9
ATOM      9  C   UNL A   1      31.519  77.740  21.953  1.00  0.00     0.049 C 
BRANCH   9  10
ATOM     10  C   UNL A   1      30.948  79.157  22.077  1.00  0.00     0.117 C 
BRANCH  10  11
ATOM     11  C   UNL A   1      31.951  80.111  22.680  1.00  0.00     0.172 C 
ATOM     12  O   UNL A   1      32.998  79.477  23.264  1.00  0.00    -0.648 OA
ATOM     13  O   UNL A   1      31.850  81.330  22.626  1.00  0.00    -0.648 OA
ENDBRANCH  10  11
ENDBRANCH   9  10
ENDBRANCH   6   9
ENDBRANCH   1   3
TORSDOF 4
ENDMDL
MODEL 4
REMARK VINA RESULT:      -5.9      3.639      4.392
REMARK  4 active torsions:
REMARK  status: ('A' for Active; 'I' for Inactive)
REMARK    1  A    between atoms: O_1  and  C_11 
REMARK    2  A    between atoms: C_4  and  C_5 
REMARK    3  A    between atoms: C_4  and  C_6 
REMARK    4  A    between atoms: C_6  and  C_12 
ROOT
ATOM      1  O   UNL A   1      32.285  73.175  22.239  1.00  0.00    -0.361 OA
ATOM      2  H   UNL A   1      32.046  72.820  23.072  1.00  0.00     0.217 HD
ENDROOT
BRANCH   1   3
ATOM      3  C   UNL A   1      31.975  74.465  21.935  1.00  0.00     0.065 A 
ATOM      4  C   UNL A   1      31.229  75.232  22.830  1.00  0.00     0.037 A 
ATOM      5  C   UNL A   1      30.909  76.554  22.520  1.00  0.00     0.010 A 
ATOM      6  C   UNL A   1      31.336  77.109  21.313  1.00  0.00    -0.058 A 
ATOM      7  C   UNL A   1      32.082  76.342  20.418  1.00  0.00     0.010 A 
ATOM      8  C   UNL A   1      32.401  75.021  20.728  1.00  0.00     0.037 A 
BRANCH   6   9
ATOM      9  C   UNL A   1      30.996  78.522  20.981  1.00  0.00     0.049 C 
BRANCH   9  10
ATOM     10  C   UNL A   1      30.667  79.382  22.206  1.00  0.00     0.117 C 
BRANCH  10  11
ATOM     11  C   UNL A   1      31.848  80.224  22.629  1.00  0.00     0.172 C 
ATOM     12  O   UNL A   1      32.846  79.492  23.182  1.00  0.00    -0.648 OA
ATOM     13  O   UNL A   1      31.913  81.436  22.467  1.00  0.00    -0.648 OA
ENDBRANCH  10  11
ENDBRANCH   9  10
ENDBRANCH   6   9
ENDBRANCH   1   3
TORSDOF 4
ENDMDL
MODEL 5
REMARK VINA RESULT:      -5.9      3.532      4.312
REMARK  4 active torsions:
REMARK  status: ('A' for Active; 'I' for Inactive)
REMARK    1  A    between atoms: O_1  and  C_11 
REMARK    2  A    between atoms: C_4  and  C_5 
REMARK    3  A    between atoms: C_4  and  C_6 
REMARK    4  A    between atoms: C_6  and  C_12 
ROOT
ATOM      1  O   UNL A   1      33.182  73.127  21.683  1.00  0.00    -0.361 OA
ATOM      2  H   UNL A   1      32.921  72.674  22.460  1.00  0.00     0.217 HD
ENDROOT
BRANCH   1   3
ATOM      3  C   UNL A   1      32.769  74.406  21.471  1.00  0.00     0.065 A 
ATOM      4  C   UNL A   1      32.185  74.759  20.255  1.00  0.00     0.037 A 
ATOM      5  C   UNL A   1      31.763  76.070  20.036  1.00  0.00     0.010 A 
ATOM      6  C   UNL A   1      31.926  77.031  21.035  1.00  0.00    -0.058 A 
ATOM      7  C   UNL A   1      32.510  76.678  22.252  1.00  0.00     0.010 A 
ATOM      8  C   UNL A   1      32.932  75.367  22.470  1.00  0.00     0.037 A 
BRANCH   6   9
ATOM      9  C   UNL A   1      31.474  78.432  20.803  1.00  0.00     0.049 C 
BRANCH   9  10
ATOM     10  C   UNL A   1      30.982  79.141  22.070  1.00  0.00     0.117 C 
BRANCH  10  11
ATOM     11  C   UNL A   1      32.023  80.086  22.620  1.00  0.00     0.172 C 
ATOM     12  O   UNL A   1      31.850  81.364  22.199  1.00  0.00    -0.648 OA
ATOM     13  O   UNL A   1      32.915  79.746  23.387  1.00  0.00    -0.648 OA
ENDBRANCH  10  11
ENDBRANCH   9  10
ENDBRANCH   6   9
ENDBRANCH   1   3
TORSDOF 4
ENDMDL
MODEL 6
REMARK VINA RESULT:      -5.8      2.879      4.583
REMARK  4 active torsions:
REMARK  status: ('A' for Active; 'I' for Inactive)
REMARK    1  A    between atoms: O_1  and  C_11 
REMARK    2  A    between atoms: C_4  and  C_5 
REMARK    3  A    between atoms: C_4  and  C_6 
REMARK    4  A    between atoms: C_6  and  C_12 
ROOT
ATOM      1  O   UNL A   1      32.536  74.046  18.610  1.00  0.00    -0.361 OA
ATOM      2  H   UNL A   1      32.094  73.238  18.785  1.00  0.00     0.217 HD
ENDROOT
BRANCH   1   3
ATOM      3  C   UNL A   1      32.075  75.205  19.154  1.00  0.00     0.065 A 
ATOM      4  C   UNL A   1      31.476  76.167  18.341  1.00  0.00     0.037 A 
ATOM      5  C   UNL A   1      31.004  77.355  18.898  1.00  0.00     0.010 A 
ATOM      6  C   UNL A   1      31.131  77.582  20.269  1.00  0.00    -0.058 A 
ATOM      7  C   UNL A   1      31.729  76.620  21.081  1.00  0.00     0.010 A 
ATOM      8  C   UNL A   1      32.202  75.432  20.525  1.00  0.00     0.037 A 
BRANCH   6   9
ATOM      9  C   UNL A   1      30.626  78.852  20.864  1.00  0.00     0.049 C 
BRANCH   9  10
ATOM     10  C   UNL A   1      30.859  78.961  22.376  1.00  0.00     0.117 C 
BRANCH  10  11
ATOM     11  C   UNL A   1      32.024  79.867  22.696  1.00  0.00     0.172 C 
ATOM     12  O   UNL A   1      31.790  81.163  22.370  1.00  0.00    -0.648 OA
ATOM     13  O   UNL A   1      33.062  79.483  23.219  1.00  0.00    -0.648 OA
ENDBRANCH  10  11
ENDBRANCH   9  10
ENDBRANCH   6   9
ENDBRANCH   1   3
TORSDOF 4
ENDMDL
MODEL 7
REMARK VINA RESULT:      -5.8      1.314      1.482
REMARK  4 active torsions:
REMARK  status: ('A' for Active; 'I' for Inactive)
REMARK    1  A    between atoms: O_1  and  C_11 
REMARK    2  A    between atoms: C_4  and  C_5 
REMARK    3  A    between atoms: C_4  and  C_6 
REMARK    4  A    between atoms: C_6  and  C_12 
ROOT
ATOM      1  O   UNL A   1      33.054  75.058  23.160  1.00  0.00    -0.361 OA
ATOM      2  H   UNL A   1      33.907  75.285  23.476  1.00  0.00     0.217 HD
ENDROOT
BRANCH   1   3
ATOM      3  C   UNL A   1      32.502  75.758  22.132  1.00  0.00     0.065 A 
ATOM      4  C   UNL A   1      32.057  75.089  20.992  1.00  0.00     0.037 A 
ATOM      5  C   UNL A   1      31.492  75.805  19.937  1.00  0.00     0.010 A 
ATOM      6  C   UNL A   1      31.372  77.193  20.022  1.00  0.00    -0.058 A 
ATOM      7  C   UNL A   1      31.817  77.862  21.162  1.00  0.00     0.010 A 
ATOM      8  C   UNL A   1      32.382  77.146  22.216  1.00  0.00     0.037 A 
BRANCH   6   9
ATOM      9  C   UNL A   1      30.768  77.959  18.895  1.00  0.00     0.049 C 
BRANCH   9  10
ATOM     10  C   UNL A   1      30.698  77.173  17.581  1.00  0.00     0.117 C 
BRANCH  10  11
ATOM     11  C   UNL A   1      30.325  78.062  16.419  1.00  0.00     0.172 C 
ATOM     12  O   UNL A   1      30.136  77.372  15.266  1.00  0.00    -0.648 OA
ATOM     13  O   UNL A   1      30.180  79.274  16.507  1.00  0.00    -0.648 OA
ENDBRANCH  10  11
ENDBRANCH   9  10
ENDBRANCH   6   9
ENDBRANCH   1   3
TORSDOF 4
ENDMDL
MODEL 8
REMARK VINA RESULT:      -5.7      2.947      5.725
REMARK  4 active torsions:
REMARK  status: ('A' for Active; 'I' for Inactive)
REMARK    1  A    between atoms: O_1  and  C_11 
REMARK    2  A    between atoms: C_4  and  C_5 
REMARK    3  A    between atoms: C_4  and  C_6 
REMARK    4  A    between atoms: C_6  and  C_12 
ROOT
ATOM      1  O   UNL A   1      30.625  79.303  21.082  1.00  0.00    -0.361 OA
ATOM      2  H   UNL A   1      29.783  79.389  21.484  1.00  0.00     0.217 HD
ENDROOT
BRANCH   1   3
ATOM      3  C   UNL A   1      31.240  78.089  21.045  1.00  0.00     0.065 A 
ATOM      4  C   UNL A   1      31.931  77.623  22.163  1.00  0.00     0.037 A 
ATOM      5  C   UNL A   1      32.562  76.380  22.126  1.00  0.00     0.010 A 
ATOM      6  C   UNL A   1      32.502  75.602  20.968  1.00  0.00    -0.058 A 
ATOM      7  C   UNL A   1      31.811  76.069  19.851  1.00  0.00     0.010 A 
ATOM      8  C   UNL A   1      31.180  77.311  19.888  1.00  0.00     0.037 A 
BRANCH   6   9
ATOM      9  C   UNL A   1      33.176  74.273  20.928  1.00  0.00     0.049 C 
BRANCH   9  10
ATOM     10  C   UNL A   1      33.817  73.865  22.260  1.00  0.00     0.117 C 
BRANCH  10  11
ATOM     11  C   UNL A   1      33.340  72.506  22.714  1.00  0.00     0.172 C 
ATOM     12  O   UNL A   1      32.028  72.291  22.448  1.00  0.00    -0.648 OA
ATOM     13  O   UNL A   1      34.064  71.671  23.242  1.00  0.00    -0.648 OA
ENDBRANCH  10  11
ENDBRANCH   9  10
ENDBRANCH   6   9
ENDBRANCH   1   3
TORSDOF 4
ENDMDL
MODEL 9
REMARK VINA RESULT:      -5.7      2.301      5.700
REMARK  4 active torsions:
REMARK  status: ('A' for Active; 'I' for Inactive)
REMARK    1  A    between atoms: O_1  and  C_11 
REMARK    2  A    between atoms: C_4  and  C_5 
REMARK    3  A    between atoms: C_4  and  C_6 
REMARK    4  A    between atoms: C_6  and  C_12 
ROOT
ATOM      1  O   UNL A   1      30.316  78.310  18.293  1.00  0.00    -0.361 OA
ATOM      2  H   UNL A   1      30.437  79.237  18.240  1.00  0.00     0.217 HD
ENDROOT
BRANCH   1   3
ATOM      3  C   UNL A   1      30.917  77.601  19.286  1.00  0.00     0.065 A 
ATOM      4  C   UNL A   1      31.286  76.273  19.071  1.00  0.00     0.037 A 
ATOM      5  C   UNL A   1      31.901  75.545  20.089  1.00  0.00     0.010 A 
ATOM      6  C   UNL A   1      32.148  76.146  21.325  1.00  0.00    -0.058 A 
ATOM      7  C   UNL A   1      31.778  77.473  21.540  1.00  0.00     0.010 A 
ATOM      8  C   UNL A   1      31.163  78.201  20.522  1.00  0.00     0.037 A 
BRANCH   6   9
ATOM      9  C   UNL A   1      32.806  75.369  22.413  1.00  0.00     0.049 C 
BRANCH   9  10
ATOM     10  C   UNL A   1      33.594  74.152  21.914  1.00  0.00     0.117 C 
BRANCH  10  11
ATOM     11  C   UNL A   1      33.036  72.862  22.466  1.00  0.00     0.172 C 
ATOM     12  O   UNL A   1      33.952  72.150  23.169  1.00  0.00    -0.648 OA
ATOM     13  O   UNL A   1      31.875  72.504  22.320  1.00  0.00    -0.648 OA
ENDBRANCH  10  11
ENDBRANCH   9  10
ENDBRANCH   6   9
ENDBRANCH   1   3
TORSDOF 4
ENDMDL
