MODEL 1
REMARK VINA RESULT:      -6.7      0.000      0.000
REMARK  3 active torsions:
REMARK  status: ('A' for Active; 'I' for Inactive)
REMARK    1  A    between atoms: C_3  and  C_4 
REMARK    2  A    between atoms: C_3  and  C_5 
REMARK    3  A    between atoms: C_5  and  C_10 
ROOT
HETATM    1  O   UNL     1      23.653  -1.234  34.900  1.00  0.00    -0.648 OA
HETATM    2  O   UNL     1      22.399  -0.935  36.771  1.00  0.00    -0.648 OA
HETATM    3  C   UNL     1      22.488  -1.260  35.593  1.00  0.00     0.172 C 
ENDROOT
BRANCH   3   4
HETATM    4  C   UNL     1      21.313  -1.701  34.753  1.00  0.00     0.117 C 
BRANCH   4   5
HETATM    5  C   UNL     1      21.652  -1.696  33.258  1.00  0.00     0.049 C 
BRANCH   5   6
HETATM    6  C   UNL     1      21.676  -3.055  32.644  1.00  0.00    -0.058 A 
HETATM    7  C   UNL     1      22.069  -4.157  33.404  1.00  0.00     0.007 A 
HETATM    8  C   UNL     1      22.091  -5.428  32.831  1.00  0.00     0.001 A 
HETATM    9  C   UNL     1      21.720  -5.598  31.497  1.00  0.00     0.000 A 
HETATM   10  C   UNL     1      21.327  -4.496  30.736  1.00  0.00     0.001 A 
HETATM   11  C   UNL     1      21.304  -3.225  31.311  1.00  0.00     0.007 A 
ENDBRANCH   5   6
ENDBRANCH   4   5
ENDBRANCH   3   4
TORSDOF 3
ENDMDL
MODEL 2
REMARK VINA RESULT:      -6.6      1.004      1.525
REMARK  3 active torsions:
REMARK  status: ('A' for Active; 'I' for Inactive)
REMARK    1  A    between atoms: C_3  and  C_4 
REMARK    2  A    between atoms: C_3  and  C_5 
REMARK    3  A    between atoms: C_5  and  C_10 
ROOT
HETATM    1  O   UNL     1      22.210  -2.304  36.497  1.00  0.00    -0.648 OA
HETATM    2  O   UNL     1      23.587  -1.239  35.038  1.00  0.00    -0.648 OA
HETATM    3  C   UNL     1      22.484  -1.692  35.318  1.00  0.00     0.172 C 
ENDROOT
BRANCH   3   4
HETATM    4  C   UNL     1      21.300  -1.659  34.383  1.00  0.00     0.117 C 
BRANCH   4   5
HETATM    5  C   UNL     1      21.737  -1.511  32.921  1.00  0.00     0.049 C 
BRANCH   5   6
HETATM    6  C   UNL     1      21.251  -2.607  32.035  1.00  0.00    -0.058 A 
HETATM    7  C   UNL     1      21.685  -3.916  32.244  1.00  0.00     0.007 A 
HETATM    8  C   UNL     1      21.231  -4.943  31.416  1.00  0.00     0.001 A 
HETATM    9  C   UNL     1      20.343  -4.660  30.378  1.00  0.00     0.000 A 
HETATM   10  C   UNL     1      19.909  -3.351  30.169  1.00  0.00     0.001 A 
HETATM   11  C   UNL     1      20.362  -2.325  30.998  1.00  0.00     0.007 A 
ENDBRANCH   5   6
ENDBRANCH   4   5
ENDBRANCH   3   4
TORSDOF 3
ENDMDL
MODEL 3
REMARK VINA RESULT:      -6.4      3.233      4.638
REMARK  3 active torsions:
REMARK  status: ('A' for Active; 'I' for Inactive)
REMARK    1  A    between atoms: C_3  and  C_4 
REMARK    2  A    between atoms: C_3  and  C_5 
REMARK    3  A    between atoms: C_5  and  C_10 
ROOT
HETATM    1  O   UNL     1      23.483  -7.483  34.631  1.00  0.00    -0.648 OA
HETATM    2  O   UNL     1      21.585  -8.717  34.826  1.00  0.00    -0.648 OA
HETATM    3  C   UNL     1      22.160  -7.708  34.436  1.00  0.00     0.172 C 
ENDROOT
BRANCH   3   4
HETATM    4  C   UNL     1      21.470  -6.573  33.719  1.00  0.00     0.117 C 
BRANCH   4   5
HETATM    5  C   UNL     1      22.478  -5.574  33.138  1.00  0.00     0.049 C 
BRANCH   5   6
HETATM    6  C   UNL     1      21.860  -4.298  32.675  1.00  0.00    -0.058 A 
HETATM    7  C   UNL     1      21.262  -4.229  31.417  1.00  0.00     0.007 A 
HETATM    8  C   UNL     1      20.683  -3.037  30.983  1.00  0.00     0.001 A 
HETATM    9  C   UNL     1      20.702  -1.912  31.808  1.00  0.00     0.000 A 
HETATM   10  C   UNL     1      21.300  -1.980  33.067  1.00  0.00     0.001 A 
HETATM   11  C   UNL     1      21.877  -3.174  33.500  1.00  0.00     0.007 A 
ENDBRANCH   5   6
ENDBRANCH   4   5
ENDBRANCH   3   4
TORSDOF 3
ENDMDL
MODEL 4
REMARK VINA RESULT:      -6.4      2.988      4.691
REMARK  3 active torsions:
REMARK  status: ('A' for Active; 'I' for Inactive)
REMARK    1  A    between atoms: C_3  and  C_4 
REMARK    2  A    between atoms: C_3  and  C_5 
REMARK    3  A    between atoms: C_5  and  C_10 
ROOT
HETATM    1  O   UNL     1      23.827  -7.728  32.380  1.00  0.00    -0.648 OA
HETATM    2  O   UNL     1      23.686  -7.417  34.626  1.00  0.00    -0.648 OA
HETATM    3  C   UNL     1      23.210  -7.288  33.505  1.00  0.00     0.172 C 
ENDROOT
BRANCH   3   4
HETATM    4  C   UNL     1      21.897  -6.599  33.225  1.00  0.00     0.117 C 
BRANCH   4   5
HETATM    5  C   UNL     1      21.985  -5.691  31.993  1.00  0.00     0.049 C 
BRANCH   5   6
HETATM    6  C   UNL     1      21.739  -4.251  32.289  1.00  0.00    -0.058 A 
HETATM    7  C   UNL     1      21.187  -3.422  31.312  1.00  0.00     0.007 A 
HETATM    8  C   UNL     1      20.955  -2.074  31.589  1.00  0.00     0.001 A 
HETATM    9  C   UNL     1      21.277  -1.556  32.844  1.00  0.00     0.000 A 
HETATM   10  C   UNL     1      21.829  -2.383  33.821  1.00  0.00     0.001 A 
HETATM   11  C   UNL     1      22.059  -3.731  33.544  1.00  0.00     0.007 A 
ENDBRANCH   5   6
ENDBRANCH   4   5
ENDBRANCH   3   4
TORSDOF 3
ENDMDL
MODEL 5
REMARK VINA RESULT:      -6.3      2.993      4.496
REMARK  3 active torsions:
REMARK  status: ('A' for Active; 'I' for Inactive)
REMARK    1  A    between atoms: C_3  and  C_4 
REMARK    2  A    between atoms: C_3  and  C_5 
REMARK    3  A    between atoms: C_5  and  C_10 
ROOT
HETATM    1  O   UNL     1      23.817  -7.896  32.308  1.00  0.00    -0.648 OA
HETATM    2  O   UNL     1      23.763  -7.211  34.474  1.00  0.00    -0.648 OA
HETATM    3  C   UNL     1      23.238  -7.282  33.369  1.00  0.00     0.172 C 
ENDROOT
BRANCH   3   4
HETATM    4  C   UNL     1      21.900  -6.668  33.035  1.00  0.00     0.117 C 
BRANCH   4   5
HETATM    5  C   UNL     1      22.005  -5.677  31.870  1.00  0.00     0.049 C 
BRANCH   5   6
HETATM    6  C   UNL     1      21.746  -4.262  32.261  1.00  0.00    -0.058 A 
HETATM    7  C   UNL     1      22.119  -3.808  33.526  1.00  0.00     0.007 A 
HETATM    8  C   UNL     1      21.877  -2.484  33.893  1.00  0.00     0.001 A 
HETATM    9  C   UNL     1      21.261  -1.614  32.993  1.00  0.00     0.000 A 
HETATM   10  C   UNL     1      20.887  -2.067  31.728  1.00  0.00     0.001 A 
HETATM   11  C   UNL     1      21.130  -3.391  31.362  1.00  0.00     0.007 A 
ENDBRANCH   5   6
ENDBRANCH   4   5
ENDBRANCH   3   4
TORSDOF 3
ENDMDL
MODEL 6
REMARK VINA RESULT:      -6.0      3.903      5.324
REMARK  3 active torsions:
REMARK  status: ('A' for Active; 'I' for Inactive)
REMARK    1  A    between atoms: C_3  and  C_4 
REMARK    2  A    between atoms: C_3  and  C_5 
REMARK    3  A    between atoms: C_5  and  C_10 
ROOT
HETATM    1  O   UNL     1      21.004  -2.484  27.796  1.00  0.00    -0.648 OA
HETATM    2  O   UNL     1      18.820  -2.070  27.324  1.00  0.00    -0.648 OA
HETATM    3  C   UNL     1      19.687  -2.420  28.116  1.00  0.00     0.172 C 
ENDROOT
BRANCH   3   4
HETATM    4  C   UNL     1      19.404  -2.854  29.534  1.00  0.00     0.117 C 
BRANCH   4   5
HETATM    5  C   UNL     1      20.503  -3.775  30.074  1.00  0.00     0.049 C 
BRANCH   5   6
HETATM    6  C   UNL     1      21.014  -3.377  31.417  1.00  0.00    -0.058 A 
HETATM    7  C   UNL     1      21.623  -4.324  32.241  1.00  0.00     0.007 A 
HETATM    8  C   UNL     1      22.101  -3.952  33.498  1.00  0.00     0.001 A 
HETATM    9  C   UNL     1      21.970  -2.633  33.930  1.00  0.00     0.000 A 
HETATM   10  C   UNL     1      21.362  -1.685  33.107  1.00  0.00     0.001 A 
HETATM   11  C   UNL     1      20.885  -2.057  31.851  1.00  0.00     0.007 A 
ENDBRANCH   5   6
ENDBRANCH   4   5
ENDBRANCH   3   4
TORSDOF 3
ENDMDL
MODEL 7
REMARK VINA RESULT:      -6.0      3.183      4.772
REMARK  3 active torsions:
REMARK  status: ('A' for Active; 'I' for Inactive)
REMARK    1  A    between atoms: C_3  and  C_4 
REMARK    2  A    between atoms: C_3  and  C_5 
REMARK    3  A    between atoms: C_5  and  C_10 
ROOT
HETATM    1  O   UNL     1      23.485  -7.737  33.977  1.00  0.00    -0.648 OA
HETATM    2  O   UNL     1      23.944  -7.798  31.752  1.00  0.00    -0.648 OA
HETATM    3  C   UNL     1      23.213  -7.464  32.677  1.00  0.00     0.172 C 
ENDROOT
BRANCH   3   4
HETATM    4  C   UNL     1      21.903  -6.737  32.490  1.00  0.00     0.117 C 
BRANCH   4   5
HETATM    5  C   UNL     1      22.025  -5.605  31.463  1.00  0.00     0.049 C 
BRANCH   5   6
HETATM    6  C   UNL     1      21.741  -4.253  32.024  1.00  0.00    -0.058 A 
HETATM    7  C   UNL     1      22.082  -3.960  33.344  1.00  0.00     0.007 A 
HETATM    8  C   UNL     1      21.818  -2.695  33.870  1.00  0.00     0.001 A 
HETATM    9  C   UNL     1      21.211  -1.723  33.074  1.00  0.00     0.000 A 
HETATM   10  C   UNL     1      20.870  -2.015  31.754  1.00  0.00     0.001 A 
HETATM   11  C   UNL     1      21.136  -3.280  31.229  1.00  0.00     0.007 A 
ENDBRANCH   5   6
ENDBRANCH   4   5
ENDBRANCH   3   4
TORSDOF 3
ENDMDL
MODEL 8
REMARK VINA RESULT:      -6.0      3.909      5.457
REMARK  3 active torsions:
REMARK  status: ('A' for Active; 'I' for Inactive)
REMARK    1  A    between atoms: C_3  and  C_4 
REMARK    2  A    between atoms: C_3  and  C_5 
REMARK    3  A    between atoms: C_5  and  C_10 
ROOT
HETATM    1  O   UNL     1      18.795  -1.649  27.385  1.00  0.00    -0.648 OA
HETATM    2  O   UNL     1      20.988  -2.139  27.716  1.00  0.00    -0.648 OA
HETATM    3  C   UNL     1      19.823  -2.177  28.093  1.00  0.00     0.172 C 
ENDROOT
BRANCH   3   4
HETATM    4  C   UNL     1      19.384  -2.785  29.403  1.00  0.00     0.117 C 
BRANCH   4   5
HETATM    5  C   UNL     1      20.415  -3.787  29.936  1.00  0.00     0.049 C 
BRANCH   5   6
HETATM    6  C   UNL     1      20.948  -3.439  31.284  1.00  0.00    -0.058 A 
HETATM    7  C   UNL     1      20.831  -2.135  31.766  1.00  0.00     0.007 A 
HETATM    8  C   UNL     1      21.329  -1.809  33.028  1.00  0.00     0.001 A 
HETATM    9  C   UNL     1      21.945  -2.788  33.808  1.00  0.00     0.000 A 
HETATM   10  C   UNL     1      22.063  -4.092  33.327  1.00  0.00     0.001 A 
HETATM   11  C   UNL     1      21.564  -4.417  32.066  1.00  0.00     0.007 A 
ENDBRANCH   5   6
ENDBRANCH   4   5
ENDBRANCH   3   4
TORSDOF 3
ENDMDL
MODEL 9
REMARK VINA RESULT:      -5.9      3.453      5.002
REMARK  3 active torsions:
REMARK  status: ('A' for Active; 'I' for Inactive)
REMARK    1  A    between atoms: C_3  and  C_4 
REMARK    2  A    between atoms: C_3  and  C_5 
REMARK    3  A    between atoms: C_5  and  C_10 
ROOT
HETATM    1  O   UNL     1      23.825  -7.772  30.343  1.00  0.00    -0.648 OA
HETATM    2  O   UNL     1      23.954  -7.948  32.604  1.00  0.00    -0.648 OA
HETATM    3  C   UNL     1      23.413  -7.492  31.604  1.00  0.00     0.172 C 
ENDROOT
BRANCH   3   4
HETATM    4  C   UNL     1      22.243  -6.539  31.642  1.00  0.00     0.117 C 
BRANCH   4   5
HETATM    5  C   UNL     1      22.209  -5.736  32.947  1.00  0.00     0.049 C 
BRANCH   5   6
HETATM    6  C   UNL     1      21.881  -4.294  32.756  1.00  0.00    -0.058 A 
HETATM    7  C   UNL     1      22.083  -3.389  33.799  1.00  0.00     0.007 A 
HETATM    8  C   UNL     1      21.776  -2.040  33.621  1.00  0.00     0.001 A 
HETATM    9  C   UNL     1      21.267  -1.596  32.400  1.00  0.00     0.000 A 
HETATM   10  C   UNL     1      21.065  -2.500  31.358  1.00  0.00     0.001 A 
HETATM   11  C   UNL     1      21.373  -3.849  31.536  1.00  0.00     0.007 A 
ENDBRANCH   5   6
ENDBRANCH   4   5
ENDBRANCH   3   4
TORSDOF 3
ENDMDL
