MODEL 1
REMARK VINA RESULT:      -6.8      0.000      0.000
REMARK  3 active torsions:
REMARK  status: ('A' for Active; 'I' for Inactive)
REMARK    1  A    between atoms: C_3  and  C_4 
REMARK    2  A    between atoms: C_3  and  C_5 
REMARK    3  A    between atoms: C_5  and  C_10 
ROOT
HETATM    1  O   UNL     1      23.608  -1.148  34.765  1.00  0.00    -0.648 OA
HETATM    2  O   UNL     1      22.403  -1.179  36.691  1.00  0.00    -0.648 OA
HETATM    3  C   UNL     1      22.462  -1.299  35.474  1.00  0.00     0.172 C 
ENDROOT
BRANCH   3   4
HETATM    4  C   UNL     1      21.266  -1.599  34.602  1.00  0.00     0.117 C 
BRANCH   4   5
HETATM    5  C   UNL     1      21.659  -1.726  33.125  1.00  0.00     0.049 C 
BRANCH   5   6
HETATM    6  C   UNL     1      21.603  -3.123  32.608  1.00  0.00    -0.058 A 
HETATM    7  C   UNL     1      21.078  -3.376  31.340  1.00  0.00     0.007 A 
HETATM    8  C   UNL     1      21.025  -4.682  30.854  1.00  0.00     0.001 A 
HETATM    9  C   UNL     1      21.497  -5.736  31.637  1.00  0.00     0.000 A 
HETATM   10  C   UNL     1      22.022  -5.484  32.904  1.00  0.00     0.001 A 
HETATM   11  C   UNL     1      22.076  -4.177  33.389  1.00  0.00     0.007 A 
ENDBRANCH   5   6
ENDBRANCH   4   5
ENDBRANCH   3   4
TORSDOF 3
ENDMDL
MODEL 2
REMARK VINA RESULT:      -6.8      0.180      1.464
REMARK  3 active torsions:
REMARK  status: ('A' for Active; 'I' for Inactive)
REMARK    1  A    between atoms: C_3  and  C_4 
REMARK    2  A    between atoms: C_3  and  C_5 
REMARK    3  A    between atoms: C_5  and  C_10 
ROOT
HETATM    1  O   UNL     1      23.627  -1.190  34.850  1.00  0.00    -0.648 OA
HETATM    2  O   UNL     1      22.400  -1.032  36.755  1.00  0.00    -0.648 OA
HETATM    3  C   UNL     1      22.473  -1.272  35.556  1.00  0.00     0.172 C 
ENDROOT
BRANCH   3   4
HETATM    4  C   UNL     1      21.288  -1.658  34.703  1.00  0.00     0.117 C 
BRANCH   4   5
HETATM    5  C   UNL     1      21.647  -1.684  33.213  1.00  0.00     0.049 C 
BRANCH   5   6
HETATM    6  C   UNL     1      21.672  -3.054  32.626  1.00  0.00    -0.058 A 
HETATM    7  C   UNL     1      22.063  -4.141  33.408  1.00  0.00     0.007 A 
HETATM    8  C   UNL     1      22.087  -5.423  32.860  1.00  0.00     0.001 A 
HETATM    9  C   UNL     1      21.719  -5.618  31.528  1.00  0.00     0.000 A 
HETATM   10  C   UNL     1      21.327  -4.532  30.746  1.00  0.00     0.001 A 
HETATM   11  C   UNL     1      21.303  -3.250  31.295  1.00  0.00     0.007 A 
ENDBRANCH   5   6
ENDBRANCH   4   5
ENDBRANCH   3   4
TORSDOF 3
ENDMDL
MODEL 3
REMARK VINA RESULT:      -6.5      0.855      1.540
REMARK  3 active torsions:
REMARK  status: ('A' for Active; 'I' for Inactive)
REMARK    1  A    between atoms: C_3  and  C_4 
REMARK    2  A    between atoms: C_3  and  C_5 
REMARK    3  A    between atoms: C_5  and  C_10 
ROOT
HETATM    1  O   UNL     1      22.319  -1.187  36.637  1.00  0.00    -0.648 OA
HETATM    2  O   UNL     1      23.809  -1.208  34.922  1.00  0.00    -0.648 OA
HETATM    3  C   UNL     1      22.664  -1.347  35.336  1.00  0.00     0.172 C 
ENDROOT
BRANCH   3   4
HETATM    4  C   UNL     1      21.498  -1.745  34.463  1.00  0.00     0.117 C 
BRANCH   4   5
HETATM    5  C   UNL     1      21.798  -1.513  32.978  1.00  0.00     0.049 C 
BRANCH   5   6
HETATM    6  C   UNL     1      21.261  -2.579  32.084  1.00  0.00    -0.058 A 
HETATM    7  C   UNL     1      20.364  -2.249  31.067  1.00  0.00     0.007 A 
HETATM    8  C   UNL     1      19.861  -3.245  30.229  1.00  0.00     0.001 A 
HETATM    9  C   UNL     1      20.254  -4.571  30.410  1.00  0.00     0.000 A 
HETATM   10  C   UNL     1      21.150  -4.902  31.427  1.00  0.00     0.001 A 
HETATM   11  C   UNL     1      21.653  -3.905  32.263  1.00  0.00     0.007 A 
ENDBRANCH   5   6
ENDBRANCH   4   5
ENDBRANCH   3   4
TORSDOF 3
ENDMDL
MODEL 4
REMARK VINA RESULT:      -6.4      3.016      4.673
REMARK  3 active torsions:
REMARK  status: ('A' for Active; 'I' for Inactive)
REMARK    1  A    between atoms: C_3  and  C_4 
REMARK    2  A    between atoms: C_3  and  C_5 
REMARK    3  A    between atoms: C_5  and  C_10 
ROOT
HETATM    1  O   UNL     1      23.776  -7.740  32.371  1.00  0.00    -0.648 OA
HETATM    2  O   UNL     1      23.688  -7.435  34.621  1.00  0.00    -0.648 OA
HETATM    3  C   UNL     1      23.190  -7.296  33.510  1.00  0.00     0.172 C 
ENDROOT
BRANCH   3   4
HETATM    4  C   UNL     1      21.880  -6.588  33.261  1.00  0.00     0.117 C 
BRANCH   4   5
HETATM    5  C   UNL     1      21.949  -5.689  32.021  1.00  0.00     0.049 C 
BRANCH   5   6
HETATM    6  C   UNL     1      21.718  -4.245  32.314  1.00  0.00    -0.058 A 
HETATM    7  C   UNL     1      22.052  -3.725  33.564  1.00  0.00     0.007 A 
HETATM    8  C   UNL     1      21.837  -2.374  33.839  1.00  0.00     0.001 A 
HETATM    9  C   UNL     1      21.287  -1.544  32.862  1.00  0.00     0.000 A 
HETATM   10  C   UNL     1      20.953  -2.063  31.611  1.00  0.00     0.001 A 
HETATM   11  C   UNL     1      21.169  -3.414  31.337  1.00  0.00     0.007 A 
ENDBRANCH   5   6
ENDBRANCH   4   5
ENDBRANCH   3   4
TORSDOF 3
ENDMDL
MODEL 5
REMARK VINA RESULT:      -6.4      3.030      4.570
REMARK  3 active torsions:
REMARK  status: ('A' for Active; 'I' for Inactive)
REMARK    1  A    between atoms: C_3  and  C_4 
REMARK    2  A    between atoms: C_3  and  C_5 
REMARK    3  A    between atoms: C_5  and  C_10 
ROOT
HETATM    1  O   UNL     1      23.677  -7.351  34.566  1.00  0.00    -0.648 OA
HETATM    2  O   UNL     1      23.935  -7.854  32.365  1.00  0.00    -0.648 OA
HETATM    3  C   UNL     1      23.286  -7.339  33.268  1.00  0.00     0.172 C 
ENDROOT
BRANCH   3   4
HETATM    4  C   UNL     1      21.956  -6.655  33.061  1.00  0.00     0.117 C 
BRANCH   4   5
HETATM    5  C   UNL     1      21.988  -5.707  31.857  1.00  0.00     0.049 C 
BRANCH   5   6
HETATM    6  C   UNL     1      21.751  -4.278  32.212  1.00  0.00    -0.058 A 
HETATM    7  C   UNL     1      21.223  -3.402  31.263  1.00  0.00     0.007 A 
HETATM    8  C   UNL     1      21.000  -2.065  31.594  1.00  0.00     0.001 A 
HETATM    9  C   UNL     1      21.306  -1.605  32.875  1.00  0.00     0.000 A 
HETATM   10  C   UNL     1      21.834  -2.480  33.824  1.00  0.00     0.001 A 
HETATM   11  C   UNL     1      22.055  -3.816  33.492  1.00  0.00     0.007 A 
ENDBRANCH   5   6
ENDBRANCH   4   5
ENDBRANCH   3   4
TORSDOF 3
ENDMDL
MODEL 6
REMARK VINA RESULT:      -6.4      3.164      4.662
REMARK  3 active torsions:
REMARK  status: ('A' for Active; 'I' for Inactive)
REMARK    1  A    between atoms: C_3  and  C_4 
REMARK    2  A    between atoms: C_3  and  C_5 
REMARK    3  A    between atoms: C_5  and  C_10 
ROOT
HETATM    1  O   UNL     1      23.504  -7.295  34.514  1.00  0.00    -0.648 OA
HETATM    2  O   UNL     1      21.708  -8.639  34.878  1.00  0.00    -0.648 OA
HETATM    3  C   UNL     1      22.205  -7.650  34.353  1.00  0.00     0.172 C 
ENDROOT
BRANCH   3   4
HETATM    4  C   UNL     1      21.434  -6.683  33.487  1.00  0.00     0.117 C 
BRANCH   4   5
HETATM    5  C   UNL     1      22.369  -5.811  32.641  1.00  0.00     0.049 C 
BRANCH   5   6
HETATM    6  C   UNL     1      21.938  -4.387  32.544  1.00  0.00    -0.058 A 
HETATM    7  C   UNL     1      22.041  -3.550  33.655  1.00  0.00     0.007 A 
HETATM    8  C   UNL     1      21.638  -2.218  33.566  1.00  0.00     0.001 A 
HETATM    9  C   UNL     1      21.132  -1.722  32.364  1.00  0.00     0.000 A 
HETATM   10  C   UNL     1      21.028  -2.559  31.252  1.00  0.00     0.001 A 
HETATM   11  C   UNL     1      21.432  -3.891  31.343  1.00  0.00     0.007 A 
ENDBRANCH   5   6
ENDBRANCH   4   5
ENDBRANCH   3   4
TORSDOF 3
ENDMDL
MODEL 7
REMARK VINA RESULT:      -6.3      3.272      4.653
REMARK  3 active torsions:
REMARK  status: ('A' for Active; 'I' for Inactive)
REMARK    1  A    between atoms: C_3  and  C_4 
REMARK    2  A    between atoms: C_3  and  C_5 
REMARK    3  A    between atoms: C_5  and  C_10 
ROOT
HETATM    1  O   UNL     1      21.323  -8.672  34.581  1.00  0.00    -0.648 OA
HETATM    2  O   UNL     1      23.326  -7.608  34.707  1.00  0.00    -0.648 OA
HETATM    3  C   UNL     1      22.137  -7.602  34.411  1.00  0.00     0.172 C 
ENDROOT
BRANCH   3   4
HETATM    4  C   UNL     1      21.433  -6.420  33.790  1.00  0.00     0.117 C 
BRANCH   4   5
HETATM    5  C   UNL     1      22.416  -5.492  33.066  1.00  0.00     0.049 C 
BRANCH   5   6
HETATM    6  C   UNL     1      21.789  -4.242  32.548  1.00  0.00    -0.058 A 
HETATM    7  C   UNL     1      21.736  -3.103  33.352  1.00  0.00     0.007 A 
HETATM    8  C   UNL     1      21.151  -1.933  32.868  1.00  0.00     0.001 A 
HETATM    9  C   UNL     1      20.618  -1.902  31.578  1.00  0.00     0.000 A 
HETATM   10  C   UNL     1      20.671  -3.041  30.774  1.00  0.00     0.001 A 
HETATM   11  C   UNL     1      21.257  -4.210  31.259  1.00  0.00     0.007 A 
ENDBRANCH   5   6
ENDBRANCH   4   5
ENDBRANCH   3   4
TORSDOF 3
ENDMDL
MODEL 8
REMARK VINA RESULT:      -6.3      3.165      4.508
REMARK  3 active torsions:
REMARK  status: ('A' for Active; 'I' for Inactive)
REMARK    1  A    between atoms: C_3  and  C_4 
REMARK    2  A    between atoms: C_3  and  C_5 
REMARK    3  A    between atoms: C_5  and  C_10 
ROOT
HETATM    1  O   UNL     1      22.999  -7.328  34.547  1.00  0.00    -0.648 OA
HETATM    2  O   UNL     1      21.041  -8.481  34.538  1.00  0.00    -0.648 OA
HETATM    3  C   UNL     1      21.755  -7.597  34.079  1.00  0.00     0.172 C 
ENDROOT
BRANCH   3   4
HETATM    4  C   UNL     1      21.335  -6.675  32.960  1.00  0.00     0.117 C 
BRANCH   4   5
HETATM    5  C   UNL     1      22.435  -5.665  32.615  1.00  0.00     0.049 C 
BRANCH   5   6
HETATM    6  C   UNL     1      21.969  -4.249  32.610  1.00  0.00    -0.058 A 
HETATM    7  C   UNL     1      21.370  -3.716  31.468  1.00  0.00     0.007 A 
HETATM    8  C   UNL     1      20.933  -2.391  31.462  1.00  0.00     0.001 A 
HETATM    9  C   UNL     1      21.096  -1.599  32.599  1.00  0.00     0.000 A 
HETATM   10  C   UNL     1      21.695  -2.131  33.741  1.00  0.00     0.001 A 
HETATM   11  C   UNL     1      22.131  -3.456  33.746  1.00  0.00     0.007 A 
ENDBRANCH   5   6
ENDBRANCH   4   5
ENDBRANCH   3   4
TORSDOF 3
ENDMDL
MODEL 9
REMARK VINA RESULT:      -6.2      3.178      4.645
REMARK  3 active torsions:
REMARK  status: ('A' for Active; 'I' for Inactive)
REMARK    1  A    between atoms: C_3  and  C_4 
REMARK    2  A    between atoms: C_3  and  C_5 
REMARK    3  A    between atoms: C_5  and  C_10 
ROOT
HETATM    1  O   UNL     1      24.240  -8.334  32.478  1.00  0.00    -0.648 OA
HETATM    2  O   UNL     1      23.605  -7.475  34.484  1.00  0.00    -0.648 OA
HETATM    3  C   UNL     1      23.576  -7.447  33.259  1.00  0.00     0.172 C 
ENDROOT
BRANCH   3   4
HETATM    4  C   UNL     1      22.827  -6.406  32.462  1.00  0.00     0.117 C 
BRANCH   4   5
HETATM    5  C   UNL     1      22.347  -5.251  33.347  1.00  0.00     0.049 C 
BRANCH   5   6
HETATM    6  C   UNL     1      21.685  -4.150  32.591  1.00  0.00    -0.058 A 
HETATM    7  C   UNL     1      21.628  -2.866  33.134  1.00  0.00     0.007 A 
HETATM    8  C   UNL     1      21.009  -1.835  32.427  1.00  0.00     0.001 A 
HETATM    9  C   UNL     1      20.447  -2.089  31.176  1.00  0.00     0.000 A 
HETATM   10  C   UNL     1      20.503  -3.372  30.632  1.00  0.00     0.001 A 
HETATM   11  C   UNL     1      21.123  -4.402  31.339  1.00  0.00     0.007 A 
ENDBRANCH   5   6
ENDBRANCH   4   5
ENDBRANCH   3   4
TORSDOF 3
ENDMDL
