MODEL 1
REMARK VINA RESULT:      -7.2      0.000      0.000
REMARK  8 active torsions:
REMARK  status: ('A' for Active; 'I' for Inactive)
REMARK    1  A    between atoms: O_1  and  C_2 
REMARK    2  A    between atoms: C_2  and  C_3 
REMARK    3  A    between atoms: C_2  and  C_8 
REMARK    4  A    between atoms: C_3  and  C_4 
REMARK    5  A    between atoms: C_4  and  C_5 
REMARK    6  A    between atoms: C_8  and  C_9 
REMARK    7  A    between atoms: C_11  and  O_16 
REMARK    8  A    between atoms: C_12  and  O_15 
ROOT
HETATM    1  O   UNL     1      21.705  -0.831  31.539  1.00  0.00    -0.395 OA
HETATM    2  H   UNL     1      21.149  -0.286  30.960  1.00  0.00     0.210 HD
ENDROOT
BRANCH   1   3
HETATM    3  C   UNL     1      21.115  -2.122  31.688  1.00  0.00     0.122 C 
BRANCH   3   4
HETATM    4  C   UNL     1      21.471  -2.701  33.066  1.00  0.00     0.042 C 
BRANCH   4   5
HETATM    5  C   UNL     1      21.377  -1.675  34.198  1.00  0.00     0.116 C 
BRANCH   5   6
HETATM    6  C   UNL     1      22.530  -1.659  35.169  1.00  0.00     0.172 C 
HETATM    7  O   UNL     1      23.637  -1.199  34.940  1.00  0.00    -0.648 OA
HETATM    8  O   UNL     1      22.234  -2.119  36.400  1.00  0.00    -0.648 OA
ENDBRANCH   5   6
ENDBRANCH   4   5
ENDBRANCH   3   4
BRANCH   3   9
HETATM    9  C   UNL     1      21.606  -3.053  30.565  1.00  0.00     0.070 C 
BRANCH   9  10
HETATM   10  C   UNL     1      20.730  -2.996  29.333  1.00  0.00    -0.053 A 
HETATM   11  C   UNL     1      21.098  -2.204  28.235  1.00  0.00     0.046 A 
HETATM   12  C   UNL     1      20.273  -2.149  27.120  1.00  0.00     0.099 A 
HETATM   13  C   UNL     1      19.100  -2.895  27.067  1.00  0.00     0.098 A 
HETATM   14  C   UNL     1      18.710  -3.669  28.149  1.00  0.00     0.040 A 
HETATM   15  C   UNL     1      19.524  -3.717  29.285  1.00  0.00     0.010 A 
BRANCH  12  16
HETATM   16  O   UNL     1      20.611  -1.326  26.084  1.00  0.00    -0.358 OA
HETATM   17  H   UNL     1      20.349  -0.426  26.097  1.00  0.00     0.217 HD
ENDBRANCH  12  16
BRANCH  13  18
HETATM   18  O   UNL     1      18.332  -2.900  25.938  1.00  0.00    -0.358 OA
HETATM   19  H   UNL     1      18.397  -3.609  25.330  1.00  0.00     0.217 HD
ENDBRANCH  13  18
ENDBRANCH   9  10
ENDBRANCH   3   9
ENDBRANCH   1   3
TORSDOF 8
ENDMDL
MODEL 2
REMARK VINA RESULT:      -7.0      1.432      2.316
REMARK  8 active torsions:
REMARK  status: ('A' for Active; 'I' for Inactive)
REMARK    1  A    between atoms: O_1  and  C_2 
REMARK    2  A    between atoms: C_2  and  C_3 
REMARK    3  A    between atoms: C_2  and  C_8 
REMARK    4  A    between atoms: C_3  and  C_4 
REMARK    5  A    between atoms: C_4  and  C_5 
REMARK    6  A    between atoms: C_8  and  C_9 
REMARK    7  A    between atoms: C_11  and  O_16 
REMARK    8  A    between atoms: C_12  and  O_15 
ROOT
HETATM    1  O   UNL     1      21.606  -4.311  31.370  1.00  0.00    -0.395 OA
HETATM    2  H   UNL     1      22.356  -4.632  30.846  1.00  0.00     0.210 HD
ENDROOT
BRANCH   1   3
HETATM    3  C   UNL     1      21.049  -3.155  30.746  1.00  0.00     0.122 C 
BRANCH   3   4
HETATM    4  C   UNL     1      20.524  -2.187  31.818  1.00  0.00     0.042 C 
BRANCH   4   5
HETATM    5  C   UNL     1      21.636  -1.517  32.628  1.00  0.00     0.116 C 
BRANCH   5   6
HETATM    6  C   UNL     1      21.839  -2.043  34.026  1.00  0.00     0.172 C 
HETATM    7  O   UNL     1      21.640  -1.414  35.052  1.00  0.00    -0.648 OA
HETATM    8  O   UNL     1      22.181  -3.344  34.093  1.00  0.00    -0.648 OA
ENDBRANCH   5   6
ENDBRANCH   4   5
ENDBRANCH   3   4
BRANCH   3   9
HETATM    9  C   UNL     1      19.918  -3.572  29.790  1.00  0.00     0.070 C 
BRANCH   9  10
HETATM   10  C   UNL     1      19.997  -2.875  28.450  1.00  0.00    -0.053 A 
HETATM   11  C   UNL     1      18.933  -2.960  27.539  1.00  0.00     0.046 A 
HETATM   12  C   UNL     1      19.030  -2.330  26.307  1.00  0.00     0.099 A 
HETATM   13  C   UNL     1      20.159  -1.589  25.975  1.00  0.00     0.098 A 
HETATM   14  C   UNL     1      21.230  -1.509  26.853  1.00  0.00     0.040 A 
HETATM   15  C   UNL     1      21.150  -2.155  28.090  1.00  0.00     0.010 A 
BRANCH  12  16
HETATM   16  O   UNL     1      18.013  -2.473  25.406  1.00  0.00    -0.358 OA
HETATM   17  H   UNL     1      18.196  -2.779  24.540  1.00  0.00     0.217 HD
ENDBRANCH  12  16
BRANCH  13  18
HETATM   18  O   UNL     1      20.219  -0.907  24.795  1.00  0.00    -0.358 OA
HETATM   19  H   UNL     1      21.049  -0.729  24.398  1.00  0.00     0.217 HD
ENDBRANCH  13  18
ENDBRANCH   9  10
ENDBRANCH   3   9
ENDBRANCH   1   3
TORSDOF 8
ENDMDL
MODEL 3
REMARK VINA RESULT:      -6.9      1.523      6.779
REMARK  8 active torsions:
REMARK  status: ('A' for Active; 'I' for Inactive)
REMARK    1  A    between atoms: O_1  and  C_2 
REMARK    2  A    between atoms: C_2  and  C_3 
REMARK    3  A    between atoms: C_2  and  C_8 
REMARK    4  A    between atoms: C_3  and  C_4 
REMARK    5  A    between atoms: C_4  and  C_5 
REMARK    6  A    between atoms: C_8  and  C_9 
REMARK    7  A    between atoms: C_11  and  O_16 
REMARK    8  A    between atoms: C_12  and  O_15 
ROOT
HETATM    1  O   UNL     1      18.446  -3.608  29.061  1.00  0.00    -0.395 OA
HETATM    2  H   UNL     1      17.944  -3.259  29.814  1.00  0.00     0.210 HD
ENDROOT
BRANCH   1   3
HETATM    3  C   UNL     1      19.843  -3.455  29.310  1.00  0.00     0.122 C 
BRANCH   3   4
HETATM    4  C   UNL     1      20.614  -3.489  27.980  1.00  0.00     0.042 C 
BRANCH   4   5
HETATM    5  C   UNL     1      20.830  -2.103  27.368  1.00  0.00     0.116 C 
BRANCH   5   6
HETATM    6  C   UNL     1      19.878  -1.716  26.266  1.00  0.00     0.172 C 
HETATM    7  O   UNL     1      20.201  -1.416  25.128  1.00  0.00    -0.648 OA
HETATM    8  O   UNL     1      18.574  -1.813  26.590  1.00  0.00    -0.648 OA
ENDBRANCH   5   6
ENDBRANCH   4   5
ENDBRANCH   3   4
BRANCH   3   9
HETATM    9  C   UNL     1      20.331  -4.572  30.249  1.00  0.00     0.070 C 
BRANCH   9  10
HETATM   10  C   UNL     1      20.985  -4.037  31.504  1.00  0.00    -0.053 A 
HETATM   11  C   UNL     1      21.003  -2.659  31.764  1.00  0.00     0.046 A 
HETATM   12  C   UNL     1      21.623  -2.184  32.911  1.00  0.00     0.099 A 
HETATM   13  C   UNL     1      22.201  -3.062  33.822  1.00  0.00     0.098 A 
HETATM   14  C   UNL     1      22.210  -4.427  33.573  1.00  0.00     0.040 A 
HETATM   15  C   UNL     1      21.604  -4.915  32.412  1.00  0.00     0.010 A 
BRANCH  12  16
HETATM   16  O   UNL     1      21.689  -0.836  33.121  1.00  0.00    -0.358 OA
HETATM   17  H   UNL     1      22.321  -0.485  33.717  1.00  0.00     0.217 HD
ENDBRANCH  12  16
BRANCH  13  18
HETATM   18  O   UNL     1      22.741  -2.598  34.987  1.00  0.00    -0.358 OA
HETATM   19  H   UNL     1      23.056  -1.718  35.038  1.00  0.00     0.217 HD
ENDBRANCH  13  18
ENDBRANCH   9  10
ENDBRANCH   3   9
ENDBRANCH   1   3
TORSDOF 8
ENDMDL
MODEL 4
REMARK VINA RESULT:      -6.9      2.031      2.355
REMARK  8 active torsions:
REMARK  status: ('A' for Active; 'I' for Inactive)
REMARK    1  A    between atoms: O_1  and  C_2 
REMARK    2  A    between atoms: C_2  and  C_3 
REMARK    3  A    between atoms: C_2  and  C_8 
REMARK    4  A    between atoms: C_3  and  C_4 
REMARK    5  A    between atoms: C_4  and  C_5 
REMARK    6  A    between atoms: C_8  and  C_9 
REMARK    7  A    between atoms: C_11  and  O_16 
REMARK    8  A    between atoms: C_12  and  O_15 
ROOT
HETATM    1  O   UNL     1      21.649  -0.829  31.477  1.00  0.00    -0.395 OA
HETATM    2  H   UNL     1      21.182  -0.455  32.240  1.00  0.00     0.210 HD
ENDROOT
BRANCH   1   3
HETATM    3  C   UNL     1      21.110  -2.115  31.172  1.00  0.00     0.122 C 
BRANCH   3   4
HETATM    4  C   UNL     1      21.371  -3.077  32.343  1.00  0.00     0.042 C 
BRANCH   4   5
HETATM    5  C   UNL     1      21.776  -4.483  31.893  1.00  0.00     0.116 C 
BRANCH   5   6
HETATM    6  C   UNL     1      21.958  -5.497  32.993  1.00  0.00     0.172 C 
HETATM    7  O   UNL     1      22.932  -5.575  33.725  1.00  0.00    -0.648 OA
HETATM    8  O   UNL     1      20.895  -6.297  33.201  1.00  0.00    -0.648 OA
ENDBRANCH   5   6
ENDBRANCH   4   5
ENDBRANCH   3   4
BRANCH   3   9
HETATM    9  C   UNL     1      21.742  -2.652  29.876  1.00  0.00     0.070 C 
BRANCH   9  10
HETATM   10  C   UNL     1      20.781  -2.641  28.708  1.00  0.00    -0.053 A 
HETATM   11  C   UNL     1      21.036  -1.840  27.585  1.00  0.00     0.046 A 
HETATM   12  C   UNL     1      20.134  -1.829  26.530  1.00  0.00     0.099 A 
HETATM   13  C   UNL     1      18.994  -2.625  26.561  1.00  0.00     0.098 A 
HETATM   14  C   UNL     1      18.715  -3.409  27.671  1.00  0.00     0.040 A 
HETATM   15  C   UNL     1      19.607  -3.415  28.747  1.00  0.00     0.010 A 
BRANCH  12  16
HETATM   16  O   UNL     1      20.362  -0.997  25.471  1.00  0.00    -0.358 OA
HETATM   17  H   UNL     1      21.032  -0.344  25.524  1.00  0.00     0.217 HD
ENDBRANCH  12  16
BRANCH  13  18
HETATM   18  O   UNL     1      18.150  -2.671  25.489  1.00  0.00    -0.358 OA
HETATM   19  H   UNL     1      17.701  -1.896  25.214  1.00  0.00     0.217 HD
ENDBRANCH  13  18
ENDBRANCH   9  10
ENDBRANCH   3   9
ENDBRANCH   1   3
TORSDOF 8
ENDMDL
MODEL 5
REMARK VINA RESULT:      -6.8      3.252      5.665
REMARK  8 active torsions:
REMARK  status: ('A' for Active; 'I' for Inactive)
REMARK    1  A    between atoms: O_1  and  C_2 
REMARK    2  A    between atoms: C_2  and  C_3 
REMARK    3  A    between atoms: C_2  and  C_8 
REMARK    4  A    between atoms: C_3  and  C_4 
REMARK    5  A    between atoms: C_4  and  C_5 
REMARK    6  A    between atoms: C_8  and  C_9 
REMARK    7  A    between atoms: C_11  and  O_16 
REMARK    8  A    between atoms: C_12  and  O_15 
ROOT
HETATM    1  O   UNL     1      20.308  -2.046  30.991  1.00  0.00    -0.395 OA
HETATM    2  H   UNL     1      20.929  -1.990  30.248  1.00  0.00     0.210 HD
ENDROOT
BRANCH   1   3
HETATM    3  C   UNL     1      20.913  -2.770  32.062  1.00  0.00     0.122 C 
BRANCH   3   4
HETATM    4  C   UNL     1      21.844  -1.839  32.857  1.00  0.00     0.042 C 
BRANCH   4   5
HETATM    5  C   UNL     1      21.491  -1.754  34.344  1.00  0.00     0.116 C 
BRANCH   5   6
HETATM    6  C   UNL     1      22.649  -1.526  35.281  1.00  0.00     0.172 C 
HETATM    7  O   UNL     1      23.772  -1.186  34.945  1.00  0.00    -0.648 OA
HETATM    8  O   UNL     1      22.342  -1.631  36.589  1.00  0.00    -0.648 OA
ENDBRANCH   5   6
ENDBRANCH   4   5
ENDBRANCH   3   4
BRANCH   3   9
HETATM    9  C   UNL     1      21.695  -3.972  31.505  1.00  0.00     0.070 C 
BRANCH   9  10
HETATM   10  C   UNL     1      21.725  -5.144  32.460  1.00  0.00    -0.053 A 
HETATM   11  C   UNL     1      22.944  -5.604  32.983  1.00  0.00     0.046 A 
HETATM   12  C   UNL     1      22.955  -6.692  33.844  1.00  0.00     0.099 A 
HETATM   13  C   UNL     1      21.769  -7.314  34.219  1.00  0.00     0.098 A 
HETATM   14  C   UNL     1      20.557  -6.887  33.698  1.00  0.00     0.040 A 
HETATM   15  C   UNL     1      20.535  -5.803  32.816  1.00  0.00     0.010 A 
BRANCH  12  16
HETATM   16  O   UNL     1      24.153  -7.168  34.296  1.00  0.00    -0.358 OA
HETATM   17  H   UNL     1      24.734  -7.607  33.707  1.00  0.00     0.217 HD
ENDBRANCH  12  16
BRANCH  13  18
HETATM   18  O   UNL     1      21.777  -8.334  35.126  1.00  0.00    -0.358 OA
HETATM   19  H   UNL     1      22.523  -8.896  35.192  1.00  0.00     0.217 HD
ENDBRANCH  13  18
ENDBRANCH   9  10
ENDBRANCH   3   9
ENDBRANCH   1   3
TORSDOF 8
ENDMDL
MODEL 6
REMARK VINA RESULT:      -6.8      3.605      5.839
REMARK  8 active torsions:
REMARK  status: ('A' for Active; 'I' for Inactive)
REMARK    1  A    between atoms: O_1  and  C_2 
REMARK    2  A    between atoms: C_2  and  C_3 
REMARK    3  A    between atoms: C_2  and  C_8 
REMARK    4  A    between atoms: C_3  and  C_4 
REMARK    5  A    between atoms: C_4  and  C_5 
REMARK    6  A    between atoms: C_8  and  C_9 
REMARK    7  A    between atoms: C_11  and  O_16 
REMARK    8  A    between atoms: C_12  and  O_15 
ROOT
HETATM    1  O   UNL     1      22.219  -5.923  29.067  1.00  0.00    -0.395 OA
HETATM    2  H   UNL     1      21.976  -6.806  28.747  1.00  0.00     0.210 HD
ENDROOT
BRANCH   1   3
HETATM    3  C   UNL     1      22.367  -5.955  30.486  1.00  0.00     0.122 C 
BRANCH   3   4
HETATM    4  C   UNL     1      22.588  -7.403  30.952  1.00  0.00     0.042 C 
BRANCH   4   5
HETATM    5  C   UNL     1      23.569  -7.522  32.121  1.00  0.00     0.116 C 
BRANCH   5   6
HETATM    6  C   UNL     1      22.950  -7.625  33.491  1.00  0.00     0.172 C 
HETATM    7  O   UNL     1      23.543  -7.473  34.546  1.00  0.00    -0.648 OA
HETATM    8  O   UNL     1      21.616  -7.811  33.491  1.00  0.00    -0.648 OA
ENDBRANCH   5   6
ENDBRANCH   4   5
ENDBRANCH   3   4
BRANCH   3   9
HETATM    9  C   UNL     1      21.119  -5.354  31.156  1.00  0.00     0.070 C 
BRANCH   9  10
HETATM   10  C   UNL     1      21.440  -4.158  32.025  1.00  0.00    -0.053 A 
HETATM   11  C   UNL     1      21.324  -2.856  31.515  1.00  0.00     0.046 A 
HETATM   12  C   UNL     1      21.639  -1.772  32.320  1.00  0.00     0.099 A 
HETATM   13  C   UNL     1      22.042  -1.959  33.638  1.00  0.00     0.098 A 
HETATM   14  C   UNL     1      22.182  -3.238  34.155  1.00  0.00     0.040 A 
HETATM   15  C   UNL     1      21.884  -4.339  33.347  1.00  0.00     0.010 A 
BRANCH  12  16
HETATM   16  O   UNL     1      21.582  -0.513  31.792  1.00  0.00    -0.358 OA
HETATM   17  H   UNL     1      21.938   0.211  32.268  1.00  0.00     0.217 HD
ENDBRANCH  12  16
BRANCH  13  18
HETATM   18  O   UNL     1      22.277  -0.888  34.451  1.00  0.00    -0.358 OA
HETATM   19  H   UNL     1      22.208  -0.981  35.381  1.00  0.00     0.217 HD
ENDBRANCH  13  18
ENDBRANCH   9  10
ENDBRANCH   3   9
ENDBRANCH   1   3
TORSDOF 8
ENDMDL
MODEL 7
REMARK VINA RESULT:      -6.6      1.337      1.524
REMARK  8 active torsions:
REMARK  status: ('A' for Active; 'I' for Inactive)
REMARK    1  A    between atoms: O_1  and  C_2 
REMARK    2  A    between atoms: C_2  and  C_3 
REMARK    3  A    between atoms: C_2  and  C_8 
REMARK    4  A    between atoms: C_3  and  C_4 
REMARK    5  A    between atoms: C_4  and  C_5 
REMARK    6  A    between atoms: C_8  and  C_9 
REMARK    7  A    between atoms: C_11  and  O_16 
REMARK    8  A    between atoms: C_12  and  O_15 
ROOT
HETATM    1  O   UNL     1      22.099  -4.303  31.949  1.00  0.00    -0.395 OA
HETATM    2  H   UNL     1      21.825  -4.273  32.879  1.00  0.00     0.210 HD
ENDROOT
BRANCH   1   3
HETATM    3  C   UNL     1      21.292  -3.408  31.185  1.00  0.00     0.122 C 
BRANCH   3   4
HETATM    4  C   UNL     1      20.670  -2.350  32.112  1.00  0.00     0.042 C 
BRANCH   4   5
HETATM    5  C   UNL     1      21.704  -1.589  32.944  1.00  0.00     0.116 C 
BRANCH   5   6
HETATM    6  C   UNL     1      21.899  -2.078  34.357  1.00  0.00     0.172 C 
HETATM    7  O   UNL     1      22.510  -3.084  34.677  1.00  0.00    -0.648 OA
HETATM    8  O   UNL     1      21.418  -1.254  35.308  1.00  0.00    -0.648 OA
ENDBRANCH   5   6
ENDBRANCH   4   5
ENDBRANCH   3   4
BRANCH   3   9
HETATM    9  C   UNL     1      20.196  -4.195  30.446  1.00  0.00     0.070 C 
BRANCH   9  10
HETATM   10  C   UNL     1      19.870  -3.611  29.089  1.00  0.00    -0.053 A 
HETATM   11  C   UNL     1      20.593  -2.514  28.595  1.00  0.00     0.046 A 
HETATM   12  C   UNL     1      20.269  -1.980  27.356  1.00  0.00     0.099 A 
HETATM   13  C   UNL     1      19.255  -2.538  26.584  1.00  0.00     0.098 A 
HETATM   14  C   UNL     1      18.516  -3.609  27.064  1.00  0.00     0.040 A 
HETATM   15  C   UNL     1      18.822  -4.145  28.318  1.00  0.00     0.010 A 
BRANCH  12  16
HETATM   16  O   UNL     1      20.938  -0.875  26.914  1.00  0.00    -0.358 OA
HETATM   17  H   UNL     1      20.782  -0.547  26.050  1.00  0.00     0.217 HD
ENDBRANCH  12  16
BRANCH  13  18
HETATM   18  O   UNL     1      18.991  -2.059  25.334  1.00  0.00    -0.358 OA
HETATM   19  H   UNL     1      19.470  -2.384  24.597  1.00  0.00     0.217 HD
ENDBRANCH  13  18
ENDBRANCH   9  10
ENDBRANCH   3   9
ENDBRANCH   1   3
TORSDOF 8
ENDMDL
MODEL 8
REMARK VINA RESULT:      -6.5      1.683      6.732
REMARK  8 active torsions:
REMARK  status: ('A' for Active; 'I' for Inactive)
REMARK    1  A    between atoms: O_1  and  C_2 
REMARK    2  A    between atoms: C_2  and  C_3 
REMARK    3  A    between atoms: C_2  and  C_8 
REMARK    4  A    between atoms: C_3  and  C_4 
REMARK    5  A    between atoms: C_4  and  C_5 
REMARK    6  A    between atoms: C_8  and  C_9 
REMARK    7  A    between atoms: C_11  and  O_16 
REMARK    8  A    between atoms: C_12  and  O_15 
ROOT
HETATM    1  O   UNL     1      18.691  -4.211  29.562  1.00  0.00    -0.395 OA
HETATM    2  H   UNL     1      18.497  -3.616  30.303  1.00  0.00     0.210 HD
ENDROOT
BRANCH   1   3
HETATM    3  C   UNL     1      19.976  -3.898  29.025  1.00  0.00     0.122 C 
BRANCH   3   4
HETATM    4  C   UNL     1      20.000  -4.212  27.520  1.00  0.00     0.042 C 
BRANCH   4   5
HETATM    5  C   UNL     1      18.930  -3.459  26.726  1.00  0.00     0.116 C 
BRANCH   5   6
HETATM    6  C   UNL     1      19.142  -1.974  26.582  1.00  0.00     0.172 C 
HETATM    7  O   UNL     1      18.747  -1.127  27.367  1.00  0.00    -0.648 OA
HETATM    8  O   UNL     1      19.910  -1.615  25.536  1.00  0.00    -0.648 OA
ENDBRANCH   5   6
ENDBRANCH   4   5
ENDBRANCH   3   4
BRANCH   3   9
HETATM    9  C   UNL     1      21.061  -4.700  29.764  1.00  0.00     0.070 C 
BRANCH   9  10
HETATM   10  C   UNL     1      21.392  -4.123  31.123  1.00  0.00    -0.053 A 
HETATM   11  C   UNL     1      21.313  -2.740  31.346  1.00  0.00     0.046 A 
HETATM   12  C   UNL     1      21.637  -2.226  32.593  1.00  0.00     0.099 A 
HETATM   13  C   UNL     1      22.012  -3.069  33.634  1.00  0.00     0.098 A 
HETATM   14  C   UNL     1      22.115  -4.437  33.428  1.00  0.00     0.040 A 
HETATM   15  C   UNL     1      21.807  -4.964  32.170  1.00  0.00     0.010 A 
BRANCH  12  16
HETATM   16  O   UNL     1      21.617  -0.873  32.779  1.00  0.00    -0.358 OA
HETATM   17  H   UNL     1      21.015  -0.493  33.389  1.00  0.00     0.217 HD
ENDBRANCH  12  16
BRANCH  13  18
HETATM   18  O   UNL     1      22.255  -2.568  34.880  1.00  0.00    -0.358 OA
HETATM   19  H   UNL     1      21.631  -1.998  35.286  1.00  0.00     0.217 HD
ENDBRANCH  13  18
ENDBRANCH   9  10
ENDBRANCH   3   9
ENDBRANCH   1   3
TORSDOF 8
ENDMDL
MODEL 9
REMARK VINA RESULT:      -6.5      2.205      2.946
REMARK  8 active torsions:
REMARK  status: ('A' for Active; 'I' for Inactive)
REMARK    1  A    between atoms: O_1  and  C_2 
REMARK    2  A    between atoms: C_2  and  C_3 
REMARK    3  A    between atoms: C_2  and  C_8 
REMARK    4  A    between atoms: C_3  and  C_4 
REMARK    5  A    between atoms: C_4  and  C_5 
REMARK    6  A    between atoms: C_8  and  C_9 
REMARK    7  A    between atoms: C_11  and  O_16 
REMARK    8  A    between atoms: C_12  and  O_15 
ROOT
HETATM    1  O   UNL     1      21.132  -1.200  31.468  1.00  0.00    -0.395 OA
HETATM    2  H   UNL     1      21.275  -1.118  32.424  1.00  0.00     0.210 HD
ENDROOT
BRANCH   1   3
HETATM    3  C   UNL     1      20.899  -2.569  31.138  1.00  0.00     0.122 C 
BRANCH   3   4
HETATM    4  C   UNL     1      21.413  -3.471  32.272  1.00  0.00     0.042 C 
BRANCH   4   5
HETATM    5  C   UNL     1      22.100  -4.743  31.771  1.00  0.00     0.116 C 
BRANCH   5   6
HETATM    6  C   UNL     1      22.532  -5.719  32.836  1.00  0.00     0.172 C 
HETATM    7  O   UNL     1      23.206  -6.718  32.644  1.00  0.00    -0.648 OA
HETATM    8  O   UNL     1      22.198  -5.365  34.091  1.00  0.00    -0.648 OA
ENDBRANCH   5   6
ENDBRANCH   4   5
ENDBRANCH   3   4
BRANCH   3   9
HETATM    9  C   UNL     1      21.599  -2.913  29.811  1.00  0.00     0.070 C 
BRANCH   9  10
HETATM   10  C   UNL     1      20.688  -2.763  28.613  1.00  0.00    -0.053 A 
HETATM   11  C   UNL     1      19.469  -3.455  28.556  1.00  0.00     0.046 A 
HETATM   12  C   UNL     1      18.653  -3.321  27.442  1.00  0.00     0.099 A 
HETATM   13  C   UNL     1      19.018  -2.484  26.392  1.00  0.00     0.098 A 
HETATM   14  C   UNL     1      20.228  -1.808  26.420  1.00  0.00     0.040 A 
HETATM   15  C   UNL     1      21.066  -1.949  27.530  1.00  0.00     0.010 A 
BRANCH  12  16
HETATM   16  O   UNL     1      17.500  -4.048  27.371  1.00  0.00    -0.358 OA
HETATM   17  H   UNL     1      17.387  -4.801  27.917  1.00  0.00     0.217 HD
ENDBRANCH  12  16
BRANCH  13  18
HETATM   18  O   UNL     1      18.178  -2.294  25.332  1.00  0.00    -0.358 OA
HETATM   19  H   UNL     1      17.406  -2.817  25.247  1.00  0.00     0.217 HD
ENDBRANCH  13  18
ENDBRANCH   9  10
ENDBRANCH   3   9
ENDBRANCH   1   3
TORSDOF 8
ENDMDL
