MODEL 1
REMARK VINA RESULT:     -18.3      0.000      0.000
REMARK  6 active torsions:
REMARK  status: ('A' for Active; 'I' for Inactive)
REMARK    1  A    between atoms: O_1  and  C_5 
REMARK    2  A    between atoms: O_2  and  C_7 
REMARK    3  A    between atoms: O_2  and  C_13 
REMARK    4  A    between atoms: C_4  and  C_5 
REMARK    5  A    between atoms: C_4  and  C_6 
REMARK    6  A    between atoms: C_5  and  C_7 
ROOT
HETATM    1  O   UNL     1     -52.644  49.404   7.579  1.00  0.00    -0.385 OA
HETATM    2  H   UNL     1     -51.709  49.194   7.729  1.00  0.00     0.210 HD
ENDROOT
BRANCH   1   3
HETATM    3  C   UNL     1     -53.423  48.895   8.654  1.00  0.00     0.221 C 
BRANCH   3   4
HETATM    4  C   UNL     1     -54.105  50.066   9.366  1.00  0.00     0.080 C 
BRANCH   4   5
HETATM    5  C   UNL     1     -53.830  50.066  10.850  1.00  0.00    -0.055 A 
HETATM    6  C   UNL     1     -53.527  48.870  11.484  1.00  0.00     0.007 A 
HETATM    7  C   UNL     1     -53.273  48.869  12.855  1.00  0.00     0.001 A 
HETATM    8  C   UNL     1     -53.325  50.063  13.575  1.00  0.00     0.000 A 
HETATM    9  C   UNL     1     -53.630  51.258  12.923  1.00  0.00     0.001 A 
HETATM   10  C   UNL     1     -53.885  51.259  11.552  1.00  0.00     0.007 A 
ENDBRANCH   4   5
ENDBRANCH   3   4
BRANCH   3  11
HETATM   11  C   UNL     1     -54.451  47.947   8.069  1.00  0.00     0.288 C 
HETATM   12  O   UNL     1     -55.431  47.527   8.670  1.00  0.00    -0.262 OA
BRANCH  11  13
HETATM   13  O   UNL     1     -54.127  47.662   6.773  1.00  0.00    -0.320 OA
BRANCH  13  14
HETATM   14  C   UNL     1     -53.640  46.336   6.537  1.00  0.00     0.174 C 
HETATM   15  C   UNL     1     -52.955  46.297   5.186  1.00  0.00     0.034 C 
ENDBRANCH  13  14
ENDBRANCH  11  13
ENDBRANCH   3  11
ENDBRANCH   1   3
TORSDOF 6
ENDMDL
MODEL 2
REMARK VINA RESULT:     -18.3      0.203      1.307
REMARK  6 active torsions:
REMARK  status: ('A' for Active; 'I' for Inactive)
REMARK    1  A    between atoms: O_1  and  C_5 
REMARK    2  A    between atoms: O_2  and  C_7 
REMARK    3  A    between atoms: O_2  and  C_13 
REMARK    4  A    between atoms: C_4  and  C_5 
REMARK    5  A    between atoms: C_4  and  C_6 
REMARK    6  A    between atoms: C_5  and  C_7 
ROOT
HETATM    1  O   UNL     1     -52.635  49.323   7.403  1.00  0.00    -0.385 OA
HETATM    2  H   UNL     1     -52.965  50.193   7.129  1.00  0.00     0.210 HD
ENDROOT
BRANCH   1   3
HETATM    3  C   UNL     1     -53.409  48.844   8.494  1.00  0.00     0.221 C 
BRANCH   3   4
HETATM    4  C   UNL     1     -54.107  50.031   9.162  1.00  0.00     0.080 C 
BRANCH   4   5
HETATM    5  C   UNL     1     -53.854  50.074  10.650  1.00  0.00    -0.055 A 
HETATM    6  C   UNL     1     -53.923  51.289  11.315  1.00  0.00     0.007 A 
HETATM    7  C   UNL     1     -53.689  51.329  12.690  1.00  0.00     0.001 A 
HETATM    8  C   UNL     1     -53.389  50.155  13.381  1.00  0.00     0.000 A 
HETATM    9  C   UNL     1     -53.323  48.941  12.698  1.00  0.00     0.001 A 
HETATM   10  C   UNL     1     -53.557  48.900  11.323  1.00  0.00     0.007 A 
ENDBRANCH   4   5
ENDBRANCH   3   4
BRANCH   3  11
HETATM   11  C   UNL     1     -54.425  47.863   7.943  1.00  0.00     0.288 C 
HETATM   12  O   UNL     1     -55.418  47.477   8.546  1.00  0.00    -0.262 OA
BRANCH  11  13
HETATM   13  O   UNL     1     -54.073  47.504   6.673  1.00  0.00    -0.320 OA
BRANCH  13  14
HETATM   14  C   UNL     1     -53.418  46.237   6.549  1.00  0.00     0.174 C 
HETATM   15  C   UNL     1     -52.933  46.072   5.124  1.00  0.00     0.034 C 
ENDBRANCH  13  14
ENDBRANCH  11  13
ENDBRANCH   3  11
ENDBRANCH   1   3
TORSDOF 6
ENDMDL
MODEL 3
REMARK VINA RESULT:     -18.2      1.048      2.164
REMARK  6 active torsions:
REMARK  status: ('A' for Active; 'I' for Inactive)
REMARK    1  A    between atoms: O_1  and  C_5 
REMARK    2  A    between atoms: O_2  and  C_7 
REMARK    3  A    between atoms: O_2  and  C_13 
REMARK    4  A    between atoms: C_4  and  C_5 
REMARK    5  A    between atoms: C_4  and  C_6 
REMARK    6  A    between atoms: C_5  and  C_7 
ROOT
HETATM    1  O   UNL     1     -52.556  49.413   7.481  1.00  0.00    -0.385 OA
HETATM    2  H   UNL     1     -52.686  50.374   7.515  1.00  0.00     0.210 HD
ENDROOT
BRANCH   1   3
HETATM    3  C   UNL     1     -53.367  48.790   8.469  1.00  0.00     0.221 C 
BRANCH   3   4
HETATM    4  C   UNL     1     -54.225  49.860   9.149  1.00  0.00     0.080 C 
BRANCH   4   5
HETATM    5  C   UNL     1     -53.921  49.980  10.622  1.00  0.00    -0.055 A 
HETATM    6  C   UNL     1     -53.960  51.229  11.224  1.00  0.00     0.007 A 
HETATM    7  C   UNL     1     -53.679  51.340  12.586  1.00  0.00     0.001 A 
HETATM    8  C   UNL     1     -53.362  50.202  13.327  1.00  0.00     0.000 A 
HETATM    9  C   UNL     1     -53.326  48.953  12.708  1.00  0.00     0.001 A 
HETATM   10  C   UNL     1     -53.608  48.841  11.346  1.00  0.00     0.007 A 
ENDBRANCH   4   5
ENDBRANCH   3   4
BRANCH   3  11
HETATM   11  C   UNL     1     -54.238  47.764   7.771  1.00  0.00     0.288 C 
HETATM   12  O   UNL     1     -54.084  47.393   6.615  1.00  0.00    -0.262 OA
BRANCH  11  13
HETATM   13  O   UNL     1     -55.191  47.308   8.636  1.00  0.00    -0.320 OA
BRANCH  13  14
HETATM   14  C   UNL     1     -55.220  45.890   8.831  1.00  0.00     0.174 C 
HETATM   15  C   UNL     1     -54.082  45.497   9.750  1.00  0.00     0.034 C 
ENDBRANCH  13  14
ENDBRANCH  11  13
ENDBRANCH   3  11
ENDBRANCH   1   3
TORSDOF 6
ENDMDL
MODEL 4
REMARK VINA RESULT:     -18.1      1.087      1.710
REMARK  6 active torsions:
REMARK  status: ('A' for Active; 'I' for Inactive)
REMARK    1  A    between atoms: O_1  and  C_5 
REMARK    2  A    between atoms: O_2  and  C_7 
REMARK    3  A    between atoms: O_2  and  C_13 
REMARK    4  A    between atoms: C_4  and  C_5 
REMARK    5  A    between atoms: C_4  and  C_6 
REMARK    6  A    between atoms: C_5  and  C_7 
ROOT
HETATM    1  O   UNL     1     -52.511  49.374   7.541  1.00  0.00    -0.385 OA
HETATM    2  H   UNL     1     -51.737  48.812   7.377  1.00  0.00     0.210 HD
ENDROOT
BRANCH   1   3
HETATM    3  C   UNL     1     -53.362  48.744   8.489  1.00  0.00     0.221 C 
BRANCH   3   4
HETATM    4  C   UNL     1     -54.230  49.812   9.159  1.00  0.00     0.080 C 
BRANCH   4   5
HETATM    5  C   UNL     1     -53.922  49.953  10.630  1.00  0.00    -0.055 A 
HETATM    6  C   UNL     1     -53.603  48.823  11.368  1.00  0.00     0.007 A 
HETATM    7  C   UNL     1     -53.319  48.953  12.727  1.00  0.00     0.001 A 
HETATM    8  C   UNL     1     -53.358  50.210  13.331  1.00  0.00     0.000 A 
HETATM    9  C   UNL     1     -53.680  51.337  12.576  1.00  0.00     0.001 A 
HETATM   10  C   UNL     1     -53.964  51.207  11.216  1.00  0.00     0.007 A 
ENDBRANCH   4   5
ENDBRANCH   3   4
BRANCH   3  11
HETATM   11  C   UNL     1     -54.220  47.741   7.743  1.00  0.00     0.288 C 
HETATM   12  O   UNL     1     -54.065  47.430   6.569  1.00  0.00    -0.262 OA
BRANCH  11  13
HETATM   13  O   UNL     1     -55.163  47.228   8.587  1.00  0.00    -0.320 OA
BRANCH  13  14
HETATM   14  C   UNL     1     -54.816  45.994   9.224  1.00  0.00     0.174 C 
HETATM   15  C   UNL     1     -55.597  44.869   8.576  1.00  0.00     0.034 C 
ENDBRANCH  13  14
ENDBRANCH  11  13
ENDBRANCH   3  11
ENDBRANCH   1   3
TORSDOF 6
ENDMDL
MODEL 5
REMARK VINA RESULT:     -17.3      4.854      7.252
REMARK  6 active torsions:
REMARK  status: ('A' for Active; 'I' for Inactive)
REMARK    1  A    between atoms: O_1  and  C_5 
REMARK    2  A    between atoms: O_2  and  C_7 
REMARK    3  A    between atoms: O_2  and  C_13 
REMARK    4  A    between atoms: C_4  and  C_5 
REMARK    5  A    between atoms: C_4  and  C_6 
REMARK    6  A    between atoms: C_5  and  C_7 
ROOT
HETATM    1  O   UNL     1     -51.612  49.061  16.025  1.00  0.00    -0.385 OA
HETATM    2  H   UNL     1     -51.741  49.781  16.662  1.00  0.00     0.210 HD
ENDROOT
BRANCH   1   3
HETATM    3  C   UNL     1     -52.877  48.589  15.581  1.00  0.00     0.221 C 
BRANCH   3   4
HETATM    4  C   UNL     1     -52.729  48.048  14.157  1.00  0.00     0.080 C 
BRANCH   4   5
HETATM    5  C   UNL     1     -53.159  49.055  13.118  1.00  0.00    -0.055 A 
HETATM    6  C   UNL     1     -53.401  50.365  13.503  1.00  0.00     0.007 A 
HETATM    7  C   UNL     1     -53.799  51.297  12.544  1.00  0.00     0.001 A 
HETATM    8  C   UNL     1     -53.949  50.907  11.214  1.00  0.00     0.000 A 
HETATM    9  C   UNL     1     -53.702  49.586  10.841  1.00  0.00     0.001 A 
HETATM   10  C   UNL     1     -53.304  48.654  11.800  1.00  0.00     0.007 A 
ENDBRANCH   4   5
ENDBRANCH   3   4
BRANCH   3  11
HETATM   11  C   UNL     1     -53.321  47.494  16.531  1.00  0.00     0.288 C 
HETATM   12  O   UNL     1     -54.354  47.518  17.186  1.00  0.00    -0.262 OA
BRANCH  11  13
HETATM   13  O   UNL     1     -52.407  46.479  16.517  1.00  0.00    -0.320 OA
BRANCH  13  14
HETATM   14  C   UNL     1     -51.932  46.059  17.801  1.00  0.00     0.174 C 
HETATM   15  C   UNL     1     -50.533  46.600  18.009  1.00  0.00     0.034 C 
ENDBRANCH  13  14
ENDBRANCH  11  13
ENDBRANCH   3  11
ENDBRANCH   1   3
TORSDOF 6
ENDMDL
MODEL 6
REMARK VINA RESULT:     -17.2      1.682      1.969
REMARK  6 active torsions:
REMARK  status: ('A' for Active; 'I' for Inactive)
REMARK    1  A    between atoms: O_1  and  C_5 
REMARK    2  A    between atoms: O_2  and  C_7 
REMARK    3  A    between atoms: O_2  and  C_13 
REMARK    4  A    between atoms: C_4  and  C_5 
REMARK    5  A    between atoms: C_4  and  C_6 
REMARK    6  A    between atoms: C_5  and  C_7 
ROOT
HETATM    1  O   UNL     1     -52.104  48.648   7.758  1.00  0.00    -0.385 OA
HETATM    2  H   UNL     1     -52.077  49.617   7.716  1.00  0.00     0.210 HD
ENDROOT
BRANCH   1   3
HETATM    3  C   UNL     1     -52.934  48.244   8.839  1.00  0.00     0.221 C 
BRANCH   3   4
HETATM    4  C   UNL     1     -53.836  49.417   9.233  1.00  0.00     0.080 C 
BRANCH   4   5
HETATM    5  C   UNL     1     -53.708  49.765  10.696  1.00  0.00    -0.055 A 
HETATM    6  C   UNL     1     -53.422  48.762  11.610  1.00  0.00     0.007 A 
HETATM    7  C   UNL     1     -53.303  49.084  12.962  1.00  0.00     0.001 A 
HETATM    8  C   UNL     1     -53.473  50.403  13.382  1.00  0.00     0.000 A 
HETATM    9  C   UNL     1     -53.760  51.401  12.452  1.00  0.00     0.001 A 
HETATM   10  C   UNL     1     -53.878  51.079  11.099  1.00  0.00     0.007 A 
ENDBRANCH   4   5
ENDBRANCH   3   4
BRANCH   3  11
HETATM   11  C   UNL     1     -53.759  47.063   8.370  1.00  0.00     0.288 C 
HETATM   12  O   UNL     1     -54.764  47.148   7.676  1.00  0.00    -0.262 OA
BRANCH  11  13
HETATM   13  O   UNL     1     -53.194  45.903   8.818  1.00  0.00    -0.320 OA
BRANCH  13  14
HETATM   14  C   UNL     1     -53.765  45.360  10.013  1.00  0.00     0.174 C 
HETATM   15  C   UNL     1     -54.722  44.247   9.640  1.00  0.00     0.034 C 
ENDBRANCH  13  14
ENDBRANCH  11  13
ENDBRANCH   3  11
ENDBRANCH   1   3
TORSDOF 6
ENDMDL
MODEL 7
REMARK VINA RESULT:     -17.1      0.697      2.020
REMARK  6 active torsions:
REMARK  status: ('A' for Active; 'I' for Inactive)
REMARK    1  A    between atoms: O_1  and  C_5 
REMARK    2  A    between atoms: O_2  and  C_7 
REMARK    3  A    between atoms: O_2  and  C_13 
REMARK    4  A    between atoms: C_4  and  C_5 
REMARK    5  A    between atoms: C_4  and  C_6 
REMARK    6  A    between atoms: C_5  and  C_7 
ROOT
HETATM    1  O   UNL     1     -55.442  47.507   8.605  1.00  0.00    -0.385 OA
HETATM    2  H   UNL     1     -56.143  48.014   8.166  1.00  0.00     0.210 HD
ENDROOT
BRANCH   1   3
HETATM    3  C   UNL     1     -54.310  48.343   8.810  1.00  0.00     0.221 C 
BRANCH   3   4
HETATM    4  C   UNL     1     -53.632  47.942  10.122  1.00  0.00     0.080 C 
BRANCH   4   5
HETATM    5  C   UNL     1     -53.616  49.074  11.121  1.00  0.00    -0.055 A 
HETATM    6  C   UNL     1     -53.867  50.366  10.686  1.00  0.00     0.007 A 
HETATM    7  C   UNL     1     -53.852  51.413  11.609  1.00  0.00     0.001 A 
HETATM    8  C   UNL     1     -53.586  51.152  12.954  1.00  0.00     0.000 A 
HETATM    9  C   UNL     1     -53.335  49.847  13.376  1.00  0.00     0.001 A 
HETATM   10  C   UNL     1     -53.351  48.801  12.453  1.00  0.00     0.007 A 
ENDBRANCH   4   5
ENDBRANCH   3   4
BRANCH   3  11
HETATM   11  C   UNL     1     -53.372  48.144   7.635  1.00  0.00     0.288 C 
HETATM   12  O   UNL     1     -52.294  48.709   7.503  1.00  0.00    -0.262 OA
BRANCH  11  13
HETATM   13  O   UNL     1     -53.903  47.226   6.775  1.00  0.00    -0.320 OA
BRANCH  13  14
HETATM   14  C   UNL     1     -53.090  46.076   6.521  1.00  0.00     0.174 C 
HETATM   15  C   UNL     1     -52.766  46.018   5.043  1.00  0.00     0.034 C 
ENDBRANCH  13  14
ENDBRANCH  11  13
ENDBRANCH   3  11
ENDBRANCH   1   3
TORSDOF 6
ENDMDL
MODEL 8
REMARK VINA RESULT:     -16.8      4.014      6.520
REMARK  6 active torsions:
REMARK  status: ('A' for Active; 'I' for Inactive)
REMARK    1  A    between atoms: O_1  and  C_5 
REMARK    2  A    between atoms: O_2  and  C_7 
REMARK    3  A    between atoms: O_2  and  C_13 
REMARK    4  A    between atoms: C_4  and  C_5 
REMARK    5  A    between atoms: C_4  and  C_6 
REMARK    6  A    between atoms: C_5  and  C_7 
ROOT
HETATM    1  O   UNL     1     -53.053  50.784  14.396  1.00  0.00    -0.385 OA
HETATM    2  H   UNL     1     -52.497  50.807  15.191  1.00  0.00     0.210 HD
ENDROOT
BRANCH   1   3
HETATM    3  C   UNL     1     -53.661  49.505  14.279  1.00  0.00     0.221 C 
BRANCH   3   4
HETATM    4  C   UNL     1     -53.124  48.817  13.022  1.00  0.00     0.080 C 
BRANCH   4   5
HETATM    5  C   UNL     1     -53.500  49.561  11.763  1.00  0.00    -0.055 A 
HETATM    6  C   UNL     1     -53.698  48.851  10.589  1.00  0.00     0.007 A 
HETATM    7  C   UNL     1     -54.045  49.538   9.426  1.00  0.00     0.001 A 
HETATM    8  C   UNL     1     -54.190  50.925   9.452  1.00  0.00     0.000 A 
HETATM    9  C   UNL     1     -53.988  51.625  10.641  1.00  0.00     0.001 A 
HETATM   10  C   UNL     1     -53.641  50.938  11.804  1.00  0.00     0.007 A 
ENDBRANCH   4   5
ENDBRANCH   3   4
BRANCH   3  11
HETATM   11  C   UNL     1     -53.306  48.711  15.521  1.00  0.00     0.288 C 
HETATM   12  O   UNL     1     -54.109  48.358  16.374  1.00  0.00    -0.262 OA
BRANCH  11  13
HETATM   13  O   UNL     1     -51.968  48.435  15.522  1.00  0.00    -0.320 OA
BRANCH  13  14
HETATM   14  C   UNL     1     -51.498  47.663  16.632  1.00  0.00     0.174 C 
HETATM   15  C   UNL     1     -50.088  48.097  16.972  1.00  0.00     0.034 C 
ENDBRANCH  13  14
ENDBRANCH  11  13
ENDBRANCH   3  11
ENDBRANCH   1   3
TORSDOF 6
ENDMDL
MODEL 9
REMARK VINA RESULT:     -16.7      4.282      6.107
REMARK  6 active torsions:
REMARK  status: ('A' for Active; 'I' for Inactive)
REMARK    1  A    between atoms: O_1  and  C_5 
REMARK    2  A    between atoms: O_2  and  C_7 
REMARK    3  A    between atoms: O_2  and  C_13 
REMARK    4  A    between atoms: C_4  and  C_5 
REMARK    5  A    between atoms: C_4  and  C_6 
REMARK    6  A    between atoms: C_5  and  C_7 
ROOT
HETATM    1  O   UNL     1     -54.072  48.734  16.022  1.00  0.00    -0.385 OA
HETATM    2  H   UNL     1     -53.876  48.033  16.663  1.00  0.00     0.210 HD
ENDROOT
BRANCH   1   3
HETATM    3  C   UNL     1     -53.188  48.623  14.914  1.00  0.00     0.221 C 
BRANCH   3   4
HETATM    4  C   UNL     1     -53.026  50.004  14.273  1.00  0.00     0.080 C 
BRANCH   4   5
HETATM    5  C   UNL     1     -53.379  49.993  12.806  1.00  0.00    -0.055 A 
HETATM    6  C   UNL     1     -53.695  51.186  12.175  1.00  0.00     0.007 A 
HETATM    7  C   UNL     1     -54.021  51.176  10.818  1.00  0.00     0.001 A 
HETATM    8  C   UNL     1     -54.026  49.974  10.111  1.00  0.00     0.000 A 
HETATM    9  C   UNL     1     -53.706  48.782  10.760  1.00  0.00     0.001 A 
HETATM   10  C   UNL     1     -53.380  48.791  12.116  1.00  0.00     0.007 A 
ENDBRANCH   4   5
ENDBRANCH   3   4
BRANCH   3  11
HETATM   11  C   UNL     1     -51.859  48.112  15.435  1.00  0.00     0.288 C 
HETATM   12  O   UNL     1     -51.272  48.566  16.408  1.00  0.00    -0.262 OA
BRANCH  11  13
HETATM   13  O   UNL     1     -51.441  47.061  14.670  1.00  0.00    -0.320 OA
BRANCH  13  14
HETATM   14  C   UNL     1     -52.441  46.080  14.371  1.00  0.00     0.174 C 
HETATM   15  C   UNL     1     -52.198  45.539  12.977  1.00  0.00     0.034 C 
ENDBRANCH  13  14
ENDBRANCH  11  13
ENDBRANCH   3  11
ENDBRANCH   1   3
TORSDOF 6
ENDMDL
