MODEL 1
REMARK VINA RESULT:     -18.3      0.000      0.000
REMARK  6 active torsions:
REMARK  status: ('A' for Active; 'I' for Inactive)
REMARK    1  A    between atoms: O_1  and  C_5 
REMARK    2  A    between atoms: O_2  and  C_7 
REMARK    3  A    between atoms: O_2  and  C_13 
REMARK    4  A    between atoms: C_4  and  C_5 
REMARK    5  A    between atoms: C_4  and  C_6 
REMARK    6  A    between atoms: C_5  and  C_7 
ROOT
HETATM    1  O   UNL     1     -52.616  49.416   7.499  1.00  0.00    -0.385 OA
HETATM    2  H   UNL     1     -52.226  50.264   7.763  1.00  0.00     0.210 HD
ENDROOT
BRANCH   1   3
HETATM    3  C   UNL     1     -53.382  48.892   8.576  1.00  0.00     0.221 C 
BRANCH   3   4
HETATM    4  C   UNL     1     -54.063  50.053   9.306  1.00  0.00     0.080 C 
BRANCH   4   5
HETATM    5  C   UNL     1     -53.799  50.022  10.792  1.00  0.00    -0.055 A 
HETATM    6  C   UNL     1     -53.474  48.819  11.399  1.00  0.00     0.007 A 
HETATM    7  C   UNL     1     -53.230  48.790  12.772  1.00  0.00     0.001 A 
HETATM    8  C   UNL     1     -53.314  49.964  13.520  1.00  0.00     0.000 A 
HETATM    9  C   UNL     1     -53.642  51.167  12.895  1.00  0.00     0.001 A 
HETATM   10  C   UNL     1     -53.886  51.196  11.522  1.00  0.00     0.007 A 
ENDBRANCH   4   5
ENDBRANCH   3   4
BRANCH   3  11
HETATM   11  C   UNL     1     -54.411  47.944   7.992  1.00  0.00     0.288 C 
HETATM   12  O   UNL     1     -55.423  47.573   8.571  1.00  0.00    -0.262 OA
BRANCH  11  13
HETATM   13  O   UNL     1     -54.045  47.597   6.723  1.00  0.00    -0.320 OA
BRANCH  13  14
HETATM   14  C   UNL     1     -53.489  46.286   6.578  1.00  0.00     0.174 C 
HETATM   15  C   UNL     1     -52.933  46.139   5.177  1.00  0.00     0.034 C 
ENDBRANCH  13  14
ENDBRANCH  11  13
ENDBRANCH   3  11
ENDBRANCH   1   3
TORSDOF 6
ENDMDL
MODEL 2
REMARK VINA RESULT:     -18.3      0.116      1.296
REMARK  6 active torsions:
REMARK  status: ('A' for Active; 'I' for Inactive)
REMARK    1  A    between atoms: O_1  and  C_5 
REMARK    2  A    between atoms: O_2  and  C_7 
REMARK    3  A    between atoms: O_2  and  C_13 
REMARK    4  A    between atoms: C_4  and  C_5 
REMARK    5  A    between atoms: C_4  and  C_6 
REMARK    6  A    between atoms: C_5  and  C_7 
ROOT
HETATM    1  O   UNL     1     -52.695  49.473   7.597  1.00  0.00    -0.385 OA
HETATM    2  H   UNL     1     -53.107  49.224   6.756  1.00  0.00     0.210 HD
ENDROOT
BRANCH   1   3
HETATM    3  C   UNL     1     -53.444  48.924   8.673  1.00  0.00     0.221 C 
BRANCH   3   4
HETATM    4  C   UNL     1     -54.147  50.063   9.416  1.00  0.00     0.080 C 
BRANCH   4   5
HETATM    5  C   UNL     1     -53.843  50.048  10.895  1.00  0.00    -0.055 A 
HETATM    6  C   UNL     1     -53.880  51.237  11.607  1.00  0.00     0.007 A 
HETATM    7  C   UNL     1     -53.599  51.223  12.974  1.00  0.00     0.001 A 
HETATM    8  C   UNL     1     -53.286  50.022  13.609  1.00  0.00     0.000 A 
HETATM    9  C   UNL     1     -53.253  48.834  12.880  1.00  0.00     0.001 A 
HETATM   10  C   UNL     1     -53.534  48.847  11.513  1.00  0.00     0.007 A 
ENDBRANCH   4   5
ENDBRANCH   3   4
BRANCH   3  11
HETATM   11  C   UNL     1     -54.455  47.959   8.085  1.00  0.00     0.288 C 
HETATM   12  O   UNL     1     -55.452  47.554   8.669  1.00  0.00    -0.262 OA
BRANCH  11  13
HETATM   13  O   UNL     1     -54.094  47.640   6.807  1.00  0.00    -0.320 OA
BRANCH  13  14
HETATM   14  C   UNL     1     -53.474  46.360   6.642  1.00  0.00     0.174 C 
HETATM   15  C   UNL     1     -53.041  46.206   5.200  1.00  0.00     0.034 C 
ENDBRANCH  13  14
ENDBRANCH  11  13
ENDBRANCH   3  11
ENDBRANCH   1   3
TORSDOF 6
ENDMDL
MODEL 3
REMARK VINA RESULT:     -18.2      1.089      1.738
REMARK  6 active torsions:
REMARK  status: ('A' for Active; 'I' for Inactive)
REMARK    1  A    between atoms: O_1  and  C_5 
REMARK    2  A    between atoms: O_2  and  C_7 
REMARK    3  A    between atoms: O_2  and  C_13 
REMARK    4  A    between atoms: C_4  and  C_5 
REMARK    5  A    between atoms: C_4  and  C_6 
REMARK    6  A    between atoms: C_5  and  C_7 
ROOT
HETATM    1  O   UNL     1     -52.634  49.538   7.541  1.00  0.00    -0.385 OA
HETATM    2  H   UNL     1     -52.356  48.906   6.860  1.00  0.00     0.210 HD
ENDROOT
BRANCH   1   3
HETATM    3  C   UNL     1     -53.384  48.859   8.539  1.00  0.00     0.221 C 
BRANCH   3   4
HETATM    4  C   UNL     1     -54.246  49.880   9.287  1.00  0.00     0.080 C 
BRANCH   4   5
HETATM    5  C   UNL     1     -53.911  49.936  10.758  1.00  0.00    -0.055 A 
HETATM    6  C   UNL     1     -53.556  48.770  11.418  1.00  0.00     0.007 A 
HETATM    7  C   UNL     1     -53.247  48.821  12.778  1.00  0.00     0.001 A 
HETATM    8  C   UNL     1     -53.296  50.038  13.458  1.00  0.00     0.000 A 
HETATM    9  C   UNL     1     -53.653  51.203  12.780  1.00  0.00     0.001 A 
HETATM   10  C   UNL     1     -53.963  51.151  11.421  1.00  0.00     0.007 A 
ENDBRANCH   4   5
ENDBRANCH   3   4
BRANCH   3  11
HETATM   11  C   UNL     1     -54.252  47.829   7.843  1.00  0.00     0.288 C 
HETATM   12  O   UNL     1     -54.098  47.458   6.687  1.00  0.00    -0.262 OA
BRANCH  11  13
HETATM   13  O   UNL     1     -55.202  47.369   8.709  1.00  0.00    -0.320 OA
BRANCH  13  14
HETATM   14  C   UNL     1     -55.275  45.946   8.847  1.00  0.00     0.174 C 
HETATM   15  C   UNL     1     -54.160  45.483   9.762  1.00  0.00     0.034 C 
ENDBRANCH  13  14
ENDBRANCH  11  13
ENDBRANCH   3  11
ENDBRANCH   1   3
TORSDOF 6
ENDMDL
MODEL 4
REMARK VINA RESULT:     -18.1      1.126      2.152
REMARK  6 active torsions:
REMARK  status: ('A' for Active; 'I' for Inactive)
REMARK    1  A    between atoms: O_1  and  C_5 
REMARK    2  A    between atoms: O_2  and  C_7 
REMARK    3  A    between atoms: O_2  and  C_13 
REMARK    4  A    between atoms: C_4  and  C_5 
REMARK    5  A    between atoms: C_4  and  C_6 
REMARK    6  A    between atoms: C_5  and  C_7 
ROOT
HETATM    1  O   UNL     1     -52.553  49.434   7.585  1.00  0.00    -0.385 OA
HETATM    2  H   UNL     1     -52.831  50.361   7.520  1.00  0.00     0.210 HD
ENDROOT
BRANCH   1   3
HETATM    3  C   UNL     1     -53.410  48.745   8.486  1.00  0.00     0.221 C 
BRANCH   3   4
HETATM    4  C   UNL     1     -54.294  49.768   9.204  1.00  0.00     0.080 C 
BRANCH   4   5
HETATM    5  C   UNL     1     -53.946  49.890  10.668  1.00  0.00    -0.055 A 
HETATM    6  C   UNL     1     -53.957  51.141  11.266  1.00  0.00     0.007 A 
HETATM    7  C   UNL     1     -53.636  51.254  12.619  1.00  0.00     0.001 A 
HETATM    8  C   UNL     1     -53.307  50.116  13.355  1.00  0.00     0.000 A 
HETATM    9  C   UNL     1     -53.300  48.865  12.740  1.00  0.00     0.001 A 
HETATM   10  C   UNL     1     -53.621  48.751  11.387  1.00  0.00     0.007 A 
ENDBRANCH   4   5
ENDBRANCH   3   4
BRANCH   3  11
HETATM   11  C   UNL     1     -54.253  47.781   7.674  1.00  0.00     0.288 C 
HETATM   12  O   UNL     1     -54.108  47.569   6.478  1.00  0.00    -0.262 OA
BRANCH  11  13
HETATM   13  O   UNL     1     -55.168  47.176   8.488  1.00  0.00    -0.320 OA
BRANCH  13  14
HETATM   14  C   UNL     1     -54.710  45.999   9.164  1.00  0.00     0.174 C 
HETATM   15  C   UNL     1     -55.618  44.841   8.806  1.00  0.00     0.034 C 
ENDBRANCH  13  14
ENDBRANCH  11  13
ENDBRANCH   3  11
ENDBRANCH   1   3
TORSDOF 6
ENDMDL
MODEL 5
REMARK VINA RESULT:     -17.4      1.810      2.816
REMARK  6 active torsions:
REMARK  status: ('A' for Active; 'I' for Inactive)
REMARK    1  A    between atoms: O_1  and  C_5 
REMARK    2  A    between atoms: O_2  and  C_7 
REMARK    3  A    between atoms: O_2  and  C_13 
REMARK    4  A    between atoms: C_4  and  C_5 
REMARK    5  A    between atoms: C_4  and  C_6 
REMARK    6  A    between atoms: C_5  and  C_7 
ROOT
HETATM    1  O   UNL     1     -55.944  48.150   9.771  1.00  0.00    -0.385 OA
HETATM    2  H   UNL     1     -56.444  48.886   9.386  1.00  0.00     0.210 HD
ENDROOT
BRANCH   1   3
HETATM    3  C   UNL     1     -54.702  48.014   9.093  1.00  0.00     0.221 C 
BRANCH   3   4
HETATM    4  C   UNL     1     -53.587  47.864  10.132  1.00  0.00     0.080 C 
BRANCH   4   5
HETATM    5  C   UNL     1     -53.587  48.996  11.131  1.00  0.00    -0.055 A 
HETATM    6  C   UNL     1     -53.839  50.287  10.694  1.00  0.00     0.007 A 
HETATM    7  C   UNL     1     -53.838  51.333  11.616  1.00  0.00     0.001 A 
HETATM    8  C   UNL     1     -53.586  51.074  12.964  1.00  0.00     0.000 A 
HETATM    9  C   UNL     1     -53.334  49.770  13.388  1.00  0.00     0.001 A 
HETATM   10  C   UNL     1     -53.335  48.724  12.466  1.00  0.00     0.007 A 
ENDBRANCH   4   5
ENDBRANCH   3   4
BRANCH   3  11
HETATM   11  C   UNL     1     -54.789  46.781   8.215  1.00  0.00     0.288 C 
HETATM   12  O   UNL     1     -54.065  46.559   7.254  1.00  0.00    -0.262 OA
BRANCH  11  13
HETATM   13  O   UNL     1     -55.775  45.958   8.678  1.00  0.00    -0.320 OA
BRANCH  13  14
HETATM   14  C   UNL     1     -55.406  44.584   8.841  1.00  0.00     0.174 C 
HETATM   15  C   UNL     1     -56.663  43.748   8.964  1.00  0.00     0.034 C 
ENDBRANCH  13  14
ENDBRANCH  11  13
ENDBRANCH   3  11
ENDBRANCH   1   3
TORSDOF 6
ENDMDL
MODEL 6
REMARK VINA RESULT:     -17.4      4.886      7.113
REMARK  6 active torsions:
REMARK  status: ('A' for Active; 'I' for Inactive)
REMARK    1  A    between atoms: O_1  and  C_5 
REMARK    2  A    between atoms: O_2  and  C_7 
REMARK    3  A    between atoms: O_2  and  C_13 
REMARK    4  A    between atoms: C_4  and  C_5 
REMARK    5  A    between atoms: C_4  and  C_6 
REMARK    6  A    between atoms: C_5  and  C_7 
ROOT
HETATM    1  O   UNL     1     -51.621  49.037  16.019  1.00  0.00    -0.385 OA
HETATM    2  H   UNL     1     -50.977  48.974  15.296  1.00  0.00     0.210 HD
ENDROOT
BRANCH   1   3
HETATM    3  C   UNL     1     -52.892  48.596  15.560  1.00  0.00     0.221 C 
BRANCH   3   4
HETATM    4  C   UNL     1     -52.742  48.056  14.136  1.00  0.00     0.080 C 
BRANCH   4   5
HETATM    5  C   UNL     1     -53.164  49.069  13.099  1.00  0.00    -0.055 A 
HETATM    6  C   UNL     1     -53.304  48.670  11.778  1.00  0.00     0.007 A 
HETATM    7  C   UNL     1     -53.694  49.605  10.819  1.00  0.00     0.001 A 
HETATM    8  C   UNL     1     -53.937  50.927  11.193  1.00  0.00     0.000 A 
HETATM    9  C   UNL     1     -53.791  51.313  12.525  1.00  0.00     0.001 A 
HETATM   10  C   UNL     1     -53.402  50.378  13.484  1.00  0.00     0.007 A 
ENDBRANCH   4   5
ENDBRANCH   3   4
BRANCH   3  11
HETATM   11  C   UNL     1     -53.369  47.507  16.502  1.00  0.00     0.288 C 
HETATM   12  O   UNL     1     -54.393  47.564  17.170  1.00  0.00    -0.262 OA
BRANCH  11  13
HETATM   13  O   UNL     1     -52.498  46.456  16.465  1.00  0.00    -0.320 OA
BRANCH  13  14
HETATM   14  C   UNL     1     -51.957  46.058  17.730  1.00  0.00     0.174 C 
HETATM   15  C   UNL     1     -51.439  44.639  17.619  1.00  0.00     0.034 C 
ENDBRANCH  13  14
ENDBRANCH  11  13
ENDBRANCH   3  11
ENDBRANCH   1   3
TORSDOF 6
ENDMDL
MODEL 7
REMARK VINA RESULT:     -17.2      1.086      1.550
REMARK  6 active torsions:
REMARK  status: ('A' for Active; 'I' for Inactive)
REMARK    1  A    between atoms: O_1  and  C_5 
REMARK    2  A    between atoms: O_2  and  C_7 
REMARK    3  A    between atoms: O_2  and  C_13 
REMARK    4  A    between atoms: C_4  and  C_5 
REMARK    5  A    between atoms: C_4  and  C_6 
REMARK    6  A    between atoms: C_5  and  C_7 
ROOT
HETATM    1  O   UNL     1     -54.430  50.049   8.151  1.00  0.00    -0.385 OA
HETATM    2  H   UNL     1     -54.877  50.618   8.797  1.00  0.00     0.210 HD
ENDROOT
BRANCH   1   3
HETATM    3  C   UNL     1     -53.353  49.369   8.784  1.00  0.00     0.221 C 
BRANCH   3   4
HETATM    4  C   UNL     1     -53.907  48.548   9.951  1.00  0.00     0.080 C 
BRANCH   4   5
HETATM    5  C   UNL     1     -53.701  49.237  11.278  1.00  0.00    -0.055 A 
HETATM    6  C   UNL     1     -53.287  48.493  12.372  1.00  0.00     0.007 A 
HETATM    7  C   UNL     1     -53.097  49.130  13.599  1.00  0.00     0.001 A 
HETATM    8  C   UNL     1     -53.323  50.501  13.714  1.00  0.00     0.000 A 
HETATM    9  C   UNL     1     -53.739  51.237  12.605  1.00  0.00     0.001 A 
HETATM   10  C   UNL     1     -53.929  50.600  11.378  1.00  0.00     0.007 A 
ENDBRANCH   4   5
ENDBRANCH   3   4
BRANCH   3  11
HETATM   11  C   UNL     1     -52.707  48.469   7.749  1.00  0.00     0.288 C 
HETATM   12  O   UNL     1     -51.499  48.317   7.617  1.00  0.00    -0.262 OA
BRANCH  11  13
HETATM   13  O   UNL     1     -53.675  47.843   7.018  1.00  0.00    -0.320 OA
BRANCH  13  14
HETATM   14  C   UNL     1     -53.322  47.531   5.665  1.00  0.00     0.174 C 
HETATM   15  C   UNL     1     -53.018  46.051   5.565  1.00  0.00     0.034 C 
ENDBRANCH  13  14
ENDBRANCH  11  13
ENDBRANCH   3  11
ENDBRANCH   1   3
TORSDOF 6
ENDMDL
MODEL 8
REMARK VINA RESULT:     -17.2      4.870      7.204
REMARK  6 active torsions:
REMARK  status: ('A' for Active; 'I' for Inactive)
REMARK    1  A    between atoms: O_1  and  C_5 
REMARK    2  A    between atoms: O_2  and  C_7 
REMARK    3  A    between atoms: O_2  and  C_13 
REMARK    4  A    between atoms: C_4  and  C_5 
REMARK    5  A    between atoms: C_4  and  C_6 
REMARK    6  A    between atoms: C_5  and  C_7 
ROOT
HETATM    1  O   UNL     1     -51.610  49.040  16.053  1.00  0.00    -0.385 OA
HETATM    2  H   UNL     1     -51.768  49.714  16.732  1.00  0.00     0.210 HD
ENDROOT
BRANCH   1   3
HETATM    3  C   UNL     1     -52.855  48.563  15.560  1.00  0.00     0.221 C 
BRANCH   3   4
HETATM    4  C   UNL     1     -52.646  48.005  14.151  1.00  0.00     0.080 C 
BRANCH   4   5
HETATM    5  C   UNL     1     -53.104  48.970  13.084  1.00  0.00    -0.055 A 
HETATM    6  C   UNL     1     -53.403  50.277  13.435  1.00  0.00     0.007 A 
HETATM    7  C   UNL     1     -53.827  51.169  12.450  1.00  0.00     0.001 A 
HETATM    8  C   UNL     1     -53.947  50.742  11.127  1.00  0.00     0.000 A 
HETATM    9  C   UNL     1     -53.643  49.424  10.790  1.00  0.00     0.001 A 
HETATM   10  C   UNL     1     -53.219  48.531  11.775  1.00  0.00     0.007 A 
ENDBRANCH   4   5
ENDBRANCH   3   4
BRANCH   3  11
HETATM   11  C   UNL     1     -53.340  47.479  16.503  1.00  0.00     0.288 C 
HETATM   12  O   UNL     1     -54.355  47.552  17.183  1.00  0.00    -0.262 OA
BRANCH  11  13
HETATM   13  O   UNL     1     -52.488  46.413  16.452  1.00  0.00    -0.320 OA
BRANCH  13  14
HETATM   14  C   UNL     1     -51.939  46.001  17.709  1.00  0.00     0.174 C 
HETATM   15  C   UNL     1     -51.387  44.598  17.569  1.00  0.00     0.034 C 
ENDBRANCH  13  14
ENDBRANCH  11  13
ENDBRANCH   3  11
ENDBRANCH   1   3
TORSDOF 6
ENDMDL
MODEL 9
REMARK VINA RESULT:     -17.1      4.814      7.472
REMARK  6 active torsions:
REMARK  status: ('A' for Active; 'I' for Inactive)
REMARK    1  A    between atoms: O_1  and  C_5 
REMARK    2  A    between atoms: O_2  and  C_7 
REMARK    3  A    between atoms: O_2  and  C_13 
REMARK    4  A    between atoms: C_4  and  C_5 
REMARK    5  A    between atoms: C_4  and  C_6 
REMARK    6  A    between atoms: C_5  and  C_7 
ROOT
HETATM    1  O   UNL     1     -54.305  48.583  16.393  1.00  0.00    -0.385 OA
HETATM    2  H   UNL     1     -54.432  47.763  16.896  1.00  0.00     0.210 HD
ENDROOT
BRANCH   1   3
HETATM    3  C   UNL     1     -53.286  48.388  15.420  1.00  0.00     0.221 C 
BRANCH   3   4
HETATM    4  C   UNL     1     -52.885  49.749  14.847  1.00  0.00     0.080 C 
BRANCH   4   5
HETATM    5  C   UNL     1     -53.240  49.875  13.385  1.00  0.00    -0.055 A 
HETATM    6  C   UNL     1     -53.592  51.116  12.877  1.00  0.00     0.007 A 
HETATM    7  C   UNL     1     -53.920  51.234  11.526  1.00  0.00     0.001 A 
HETATM    8  C   UNL     1     -53.892  50.109  10.702  1.00  0.00     0.000 A 
HETATM    9  C   UNL     1     -53.537  48.867  11.227  1.00  0.00     0.001 A 
HETATM   10  C   UNL     1     -53.209  48.750  12.578  1.00  0.00     0.007 A 
ENDBRANCH   4   5
ENDBRANCH   3   4
BRANCH   3  11
HETATM   11  C   UNL     1     -52.110  47.726  16.112  1.00  0.00     0.288 C 
HETATM   12  O   UNL     1     -50.940  47.868  15.782  1.00  0.00    -0.262 OA
BRANCH  11  13
HETATM   13  O   UNL     1     -52.558  46.979  17.163  1.00  0.00    -0.320 OA
BRANCH  13  14
HETATM   14  C   UNL     1     -51.618  46.040  17.697  1.00  0.00     0.174 C 
HETATM   15  C   UNL     1     -52.191  45.436  18.962  1.00  0.00     0.034 C 
ENDBRANCH  13  14
ENDBRANCH  11  13
ENDBRANCH   3  11
ENDBRANCH   1   3
TORSDOF 6
ENDMDL
