MODEL 1
REMARK VINA RESULT:     -18.3      0.000      0.000
REMARK  6 active torsions:
REMARK  status: ('A' for Active; 'I' for Inactive)
REMARK    1  A    between atoms: O_1  and  C_5 
REMARK    2  A    between atoms: O_2  and  C_7 
REMARK    3  A    between atoms: O_2  and  C_13 
REMARK    4  A    between atoms: C_4  and  C_5 
REMARK    5  A    between atoms: C_4  and  C_6 
REMARK    6  A    between atoms: C_5  and  C_7 
ROOT
HETATM    1  O   UNL     1     -52.633  49.365   7.436  1.00  0.00    -0.385 OA
HETATM    2  H   UNL     1     -53.050  49.093   6.604  1.00  0.00     0.210 HD
ENDROOT
BRANCH   1   3
HETATM    3  C   UNL     1     -53.398  48.879   8.531  1.00  0.00     0.221 C 
BRANCH   3   4
HETATM    4  C   UNL     1     -54.089  50.063   9.213  1.00  0.00     0.080 C 
BRANCH   4   5
HETATM    5  C   UNL     1     -53.838  50.086  10.701  1.00  0.00    -0.055 A 
HETATM    6  C   UNL     1     -53.538  48.901  11.357  1.00  0.00     0.007 A 
HETATM    7  C   UNL     1     -53.306  48.922  12.732  1.00  0.00     0.001 A 
HETATM    8  C   UNL     1     -53.378  50.126  13.433  1.00  0.00     0.000 A 
HETATM    9  C   UNL     1     -53.680  51.309  12.760  1.00  0.00     0.001 A 
HETATM   10  C   UNL     1     -53.912  51.288  11.384  1.00  0.00     0.007 A 
ENDBRANCH   4   5
ENDBRANCH   3   4
BRANCH   3  11
HETATM   11  C   UNL     1     -54.420  47.902   7.982  1.00  0.00     0.288 C 
HETATM   12  O   UNL     1     -55.412  47.519   8.588  1.00  0.00    -0.262 OA
BRANCH  11  13
HETATM   13  O   UNL     1     -54.073  47.544   6.710  1.00  0.00    -0.320 OA
BRANCH  13  14
HETATM   14  C   UNL     1     -53.281  46.357   6.598  1.00  0.00     0.174 C 
HETATM   15  C   UNL     1     -52.928  46.137   5.142  1.00  0.00     0.034 C 
ENDBRANCH  13  14
ENDBRANCH  11  13
ENDBRANCH   3  11
ENDBRANCH   1   3
TORSDOF 6
ENDMDL
MODEL 2
REMARK VINA RESULT:     -18.2      1.119      2.183
REMARK  6 active torsions:
REMARK  status: ('A' for Active; 'I' for Inactive)
REMARK    1  A    between atoms: O_1  and  C_5 
REMARK    2  A    between atoms: O_2  and  C_7 
REMARK    3  A    between atoms: O_2  and  C_13 
REMARK    4  A    between atoms: C_4  and  C_5 
REMARK    5  A    between atoms: C_4  and  C_6 
REMARK    6  A    between atoms: C_5  and  C_7 
ROOT
HETATM    1  O   UNL     1     -52.557  49.390   7.433  1.00  0.00    -0.385 OA
HETATM    2  H   UNL     1     -52.338  50.281   7.749  1.00  0.00     0.210 HD
ENDROOT
BRANCH   1   3
HETATM    3  C   UNL     1     -53.380  48.737   8.391  1.00  0.00     0.221 C 
BRANCH   3   4
HETATM    4  C   UNL     1     -54.267  49.782   9.072  1.00  0.00     0.080 C 
BRANCH   4   5
HETATM    5  C   UNL     1     -53.950  49.925  10.542  1.00  0.00    -0.055 A 
HETATM    6  C   UNL     1     -53.993  51.181  11.126  1.00  0.00     0.007 A 
HETATM    7  C   UNL     1     -53.700  51.314  12.484  1.00  0.00     0.001 A 
HETATM    8  C   UNL     1     -53.369  50.188  13.238  1.00  0.00     0.000 A 
HETATM    9  C   UNL     1     -53.331  48.931  12.636  1.00  0.00     0.001 A 
HETATM   10  C   UNL     1     -53.623  48.798  11.279  1.00  0.00     0.007 A 
ENDBRANCH   4   5
ENDBRANCH   3   4
BRANCH   3  11
HETATM   11  C   UNL     1     -54.221  47.713   7.655  1.00  0.00     0.288 C 
HETATM   12  O   UNL     1     -54.053  47.385   6.488  1.00  0.00    -0.262 OA
BRANCH  11  13
HETATM   13  O   UNL     1     -55.166  47.205   8.499  1.00  0.00    -0.320 OA
BRANCH  13  14
HETATM   14  C   UNL     1     -54.792  46.012   9.198  1.00  0.00     0.174 C 
HETATM   15  C   UNL     1     -55.734  44.894   8.801  1.00  0.00     0.034 C 
ENDBRANCH  13  14
ENDBRANCH  11  13
ENDBRANCH   3  11
ENDBRANCH   1   3
TORSDOF 6
ENDMDL
MODEL 3
REMARK VINA RESULT:     -18.2      1.107      1.761
REMARK  6 active torsions:
REMARK  status: ('A' for Active; 'I' for Inactive)
REMARK    1  A    between atoms: O_1  and  C_5 
REMARK    2  A    between atoms: O_2  and  C_7 
REMARK    3  A    between atoms: O_2  and  C_13 
REMARK    4  A    between atoms: C_4  and  C_5 
REMARK    5  A    between atoms: C_4  and  C_6 
REMARK    6  A    between atoms: C_5  and  C_7 
ROOT
HETATM    1  O   UNL     1     -52.555  49.469   7.603  1.00  0.00    -0.385 OA
HETATM    2  H   UNL     1     -52.479  50.409   7.829  1.00  0.00     0.210 HD
ENDROOT
BRANCH   1   3
HETATM    3  C   UNL     1     -53.367  48.814   8.568  1.00  0.00     0.221 C 
BRANCH   3   4
HETATM    4  C   UNL     1     -54.189  49.866   9.316  1.00  0.00     0.080 C 
BRANCH   4   5
HETATM    5  C   UNL     1     -53.864  49.898  10.790  1.00  0.00    -0.055 A 
HETATM    6  C   UNL     1     -53.540  48.717  11.439  1.00  0.00     0.007 A 
HETATM    7  C   UNL     1     -53.239  48.746  12.801  1.00  0.00     0.001 A 
HETATM    8  C   UNL     1     -53.268  49.956  13.495  1.00  0.00     0.000 A 
HETATM    9  C   UNL     1     -53.596  51.136  12.828  1.00  0.00     0.001 A 
HETATM   10  C   UNL     1     -53.896  51.106  11.466  1.00  0.00     0.007 A 
ENDBRANCH   4   5
ENDBRANCH   3   4
BRANCH   3  11
HETATM   11  C   UNL     1     -54.271  47.847   7.829  1.00  0.00     0.288 C 
HETATM   12  O   UNL     1     -54.143  47.535   6.653  1.00  0.00    -0.262 OA
BRANCH  11  13
HETATM   13  O   UNL     1     -55.223  47.367   8.683  1.00  0.00    -0.320 OA
BRANCH  13  14
HETATM   14  C   UNL     1     -55.226  45.947   8.869  1.00  0.00     0.174 C 
HETATM   15  C   UNL     1     -54.088  45.569   9.794  1.00  0.00     0.034 C 
ENDBRANCH  13  14
ENDBRANCH  11  13
ENDBRANCH   3  11
ENDBRANCH   1   3
TORSDOF 6
ENDMDL
MODEL 4
REMARK VINA RESULT:     -17.5      1.931      2.315
REMARK  6 active torsions:
REMARK  status: ('A' for Active; 'I' for Inactive)
REMARK    1  A    between atoms: O_1  and  C_5 
REMARK    2  A    between atoms: O_2  and  C_7 
REMARK    3  A    between atoms: O_2  and  C_13 
REMARK    4  A    between atoms: C_4  and  C_5 
REMARK    5  A    between atoms: C_4  and  C_6 
REMARK    6  A    between atoms: C_5  and  C_7 
ROOT
HETATM    1  O   UNL     1     -52.631  46.958   9.650  1.00  0.00    -0.385 OA
HETATM    2  H   UNL     1     -52.016  47.560  10.098  1.00  0.00     0.210 HD
ENDROOT
BRANCH   1   3
HETATM    3  C   UNL     1     -53.948  47.489   9.721  1.00  0.00     0.221 C 
BRANCH   3   4
HETATM    4  C   UNL     1     -53.863  49.017   9.749  1.00  0.00     0.080 C 
BRANCH   4   5
HETATM    5  C   UNL     1     -53.691  49.550  11.150  1.00  0.00    -0.055 A 
HETATM    6  C   UNL     1     -53.363  48.674  12.174  1.00  0.00     0.007 A 
HETATM    7  C   UNL     1     -53.204  49.166  13.470  1.00  0.00     0.001 A 
HETATM    8  C   UNL     1     -53.374  50.527  13.724  1.00  0.00     0.000 A 
HETATM    9  C   UNL     1     -53.703  51.396  12.684  1.00  0.00     0.001 A 
HETATM   10  C   UNL     1     -53.862  50.904  11.389  1.00  0.00     0.007 A 
ENDBRANCH   4   5
ENDBRANCH   3   4
BRANCH   3  11
HETATM   11  C   UNL     1     -54.703  47.013   8.495  1.00  0.00     0.288 C 
HETATM   12  O   UNL     1     -54.448  47.350   7.347  1.00  0.00    -0.262 OA
BRANCH  11  13
HETATM   13  O   UNL     1     -55.683  46.139   8.871  1.00  0.00    -0.320 OA
BRANCH  13  14
HETATM   14  C   UNL     1     -55.465  44.773   8.504  1.00  0.00     0.174 C 
HETATM   15  C   UNL     1     -56.653  43.947   8.952  1.00  0.00     0.034 C 
ENDBRANCH  13  14
ENDBRANCH  11  13
ENDBRANCH   3  11
ENDBRANCH   1   3
TORSDOF 6
ENDMDL
MODEL 5
REMARK VINA RESULT:     -17.5      4.920      7.317
REMARK  6 active torsions:
REMARK  status: ('A' for Active; 'I' for Inactive)
REMARK    1  A    between atoms: O_1  and  C_5 
REMARK    2  A    between atoms: O_2  and  C_7 
REMARK    3  A    between atoms: O_2  and  C_13 
REMARK    4  A    between atoms: C_4  and  C_5 
REMARK    5  A    between atoms: C_4  and  C_6 
REMARK    6  A    between atoms: C_5  and  C_7 
ROOT
HETATM    1  O   UNL     1     -51.486  48.991  15.980  1.00  0.00    -0.385 OA
HETATM    2  H   UNL     1     -51.008  48.275  16.426  1.00  0.00     0.210 HD
ENDROOT
BRANCH   1   3
HETATM    3  C   UNL     1     -52.776  48.533  15.596  1.00  0.00     0.221 C 
BRANCH   3   4
HETATM    4  C   UNL     1     -52.703  48.002  14.163  1.00  0.00     0.080 C 
BRANCH   4   5
HETATM    5  C   UNL     1     -53.142  49.034  13.152  1.00  0.00    -0.055 A 
HETATM    6  C   UNL     1     -53.367  50.337  13.567  1.00  0.00     0.007 A 
HETATM    7  C   UNL     1     -53.773  51.291  12.634  1.00  0.00     0.001 A 
HETATM    8  C   UNL     1     -53.949  50.929  11.298  1.00  0.00     0.000 A 
HETATM    9  C   UNL     1     -53.718  49.614  10.896  1.00  0.00     0.001 A 
HETATM   10  C   UNL     1     -53.312  48.660  11.829  1.00  0.00     0.007 A 
ENDBRANCH   4   5
ENDBRANCH   3   4
BRANCH   3  11
HETATM   11  C   UNL     1     -53.180  47.434  16.559  1.00  0.00     0.288 C 
HETATM   12  O   UNL     1     -54.243  47.395  17.164  1.00  0.00    -0.262 OA
BRANCH  11  13
HETATM   13  O   UNL     1     -52.191  46.494  16.621  1.00  0.00    -0.320 OA
BRANCH  13  14
HETATM   14  C   UNL     1     -51.763  46.136  17.940  1.00  0.00     0.174 C 
HETATM   15  C   UNL     1     -51.676  44.627  18.036  1.00  0.00     0.034 C 
ENDBRANCH  13  14
ENDBRANCH  11  13
ENDBRANCH   3  11
ENDBRANCH   1   3
TORSDOF 6
ENDMDL
MODEL 6
REMARK VINA RESULT:     -17.0      0.816      2.161
REMARK  6 active torsions:
REMARK  status: ('A' for Active; 'I' for Inactive)
REMARK    1  A    between atoms: O_1  and  C_5 
REMARK    2  A    between atoms: O_2  and  C_7 
REMARK    3  A    between atoms: O_2  and  C_13 
REMARK    4  A    between atoms: C_4  and  C_5 
REMARK    5  A    between atoms: C_4  and  C_6 
REMARK    6  A    between atoms: C_5  and  C_7 
ROOT
HETATM    1  O   UNL     1     -55.117  46.597   9.214  1.00  0.00    -0.385 OA
HETATM    2  H   UNL     1     -54.853  46.038   9.961  1.00  0.00     0.210 HD
ENDROOT
BRANCH   1   3
HETATM    3  C   UNL     1     -54.398  47.822   9.261  1.00  0.00     0.221 C 
BRANCH   3   4
HETATM    4  C   UNL     1     -53.342  47.731  10.365  1.00  0.00     0.080 C 
BRANCH   4   5
HETATM    5  C   UNL     1     -53.442  48.878  11.342  1.00  0.00    -0.055 A 
HETATM    6  C   UNL     1     -53.772  50.140  10.874  1.00  0.00     0.007 A 
HETATM    7  C   UNL     1     -53.864  51.201  11.776  1.00  0.00     0.001 A 
HETATM    8  C   UNL     1     -53.625  50.984  13.133  1.00  0.00     0.000 A 
HETATM    9  C   UNL     1     -53.294  49.708  13.589  1.00  0.00     0.001 A 
HETATM   10  C   UNL     1     -53.202  48.648  12.687  1.00  0.00     0.007 A 
ENDBRANCH   4   5
ENDBRANCH   3   4
BRANCH   3  11
HETATM   11  C   UNL     1     -53.746  48.026   7.907  1.00  0.00     0.288 C 
HETATM   12  O   UNL     1     -52.931  48.903   7.653  1.00  0.00    -0.262 OA
BRANCH  11  13
HETATM   13  O   UNL     1     -54.189  47.071   7.038  1.00  0.00    -0.320 OA
BRANCH  13  14
HETATM   14  C   UNL     1     -53.169  46.390   6.298  1.00  0.00     0.174 C 
HETATM   15  C   UNL     1     -52.647  45.235   7.129  1.00  0.00     0.034 C 
ENDBRANCH  13  14
ENDBRANCH  11  13
ENDBRANCH   3  11
ENDBRANCH   1   3
TORSDOF 6
ENDMDL
MODEL 7
REMARK VINA RESULT:     -17.0      0.830      1.929
REMARK  6 active torsions:
REMARK  status: ('A' for Active; 'I' for Inactive)
REMARK    1  A    between atoms: O_1  and  C_5 
REMARK    2  A    between atoms: O_2  and  C_7 
REMARK    3  A    between atoms: O_2  and  C_13 
REMARK    4  A    between atoms: C_4  and  C_5 
REMARK    5  A    between atoms: C_4  and  C_6 
REMARK    6  A    between atoms: C_5  and  C_7 
ROOT
HETATM    1  O   UNL     1     -55.151  46.586   9.108  1.00  0.00    -0.385 OA
HETATM    2  H   UNL     1     -54.926  46.006   9.852  1.00  0.00     0.210 HD
ENDROOT
BRANCH   1   3
HETATM    3  C   UNL     1     -54.392  47.785   9.197  1.00  0.00     0.221 C 
BRANCH   3   4
HETATM    4  C   UNL     1     -53.389  47.650  10.345  1.00  0.00     0.080 C 
BRANCH   4   5
HETATM    5  C   UNL     1     -53.461  48.815  11.302  1.00  0.00    -0.055 A 
HETATM    6  C   UNL     1     -53.214  48.602  12.649  1.00  0.00     0.007 A 
HETATM    7  C   UNL     1     -53.280  49.679  13.534  1.00  0.00     0.001 A 
HETATM    8  C   UNL     1     -53.592  50.953  13.060  1.00  0.00     0.000 A 
HETATM    9  C   UNL     1     -53.838  51.151  11.702  1.00  0.00     0.001 A 
HETATM   10  C   UNL     1     -53.771  50.075  10.817  1.00  0.00     0.007 A 
ENDBRANCH   4   5
ENDBRANCH   3   4
BRANCH   3  11
HETATM   11  C   UNL     1     -53.676  47.976   7.874  1.00  0.00     0.288 C 
HETATM   12  O   UNL     1     -52.809  48.815   7.668  1.00  0.00    -0.262 OA
BRANCH  11  13
HETATM   13  O   UNL     1     -54.130  47.058   6.971  1.00  0.00    -0.320 OA
BRANCH  13  14
HETATM   14  C   UNL     1     -53.119  46.267   6.336  1.00  0.00     0.174 C 
HETATM   15  C   UNL     1     -52.608  45.237   7.321  1.00  0.00     0.034 C 
ENDBRANCH  13  14
ENDBRANCH  11  13
ENDBRANCH   3  11
ENDBRANCH   1   3
TORSDOF 6
ENDMDL
MODEL 8
REMARK VINA RESULT:     -16.8      4.520      6.155
REMARK  6 active torsions:
REMARK  status: ('A' for Active; 'I' for Inactive)
REMARK    1  A    between atoms: O_1  and  C_5 
REMARK    2  A    between atoms: O_2  and  C_7 
REMARK    3  A    between atoms: O_2  and  C_13 
REMARK    4  A    between atoms: C_4  and  C_5 
REMARK    5  A    between atoms: C_4  and  C_6 
REMARK    6  A    between atoms: C_5  and  C_7 
ROOT
HETATM    1  O   UNL     1     -53.806  48.165  16.337  1.00  0.00    -0.385 OA
HETATM    2  H   UNL     1     -53.536  47.401  16.870  1.00  0.00     0.210 HD
ENDROOT
BRANCH   1   3
HETATM    3  C   UNL     1     -52.956  48.274  15.203  1.00  0.00     0.221 C 
BRANCH   3   4
HETATM    4  C   UNL     1     -52.906  49.740  14.764  1.00  0.00     0.080 C 
BRANCH   4   5
HETATM    5  C   UNL     1     -53.278  49.909  13.311  1.00  0.00    -0.055 A 
HETATM    6  C   UNL     1     -53.281  48.801  12.477  1.00  0.00     0.007 A 
HETATM    7  C   UNL     1     -53.624  48.958  11.134  1.00  0.00     0.001 A 
HETATM    8  C   UNL     1     -53.958  50.219  10.642  1.00  0.00     0.000 A 
HETATM    9  C   UNL     1     -53.950  51.325  11.492  1.00  0.00     0.001 A 
HETATM   10  C   UNL     1     -53.608  51.168  12.836  1.00  0.00     0.007 A 
ENDBRANCH   4   5
ENDBRANCH   3   4
BRANCH   3  11
HETATM   11  C   UNL     1     -51.579  47.787  15.610  1.00  0.00     0.288 C 
HETATM   12  O   UNL     1     -50.936  48.228  16.553  1.00  0.00    -0.262 OA
BRANCH  11  13
HETATM   13  O   UNL     1     -51.189  46.773  14.783  1.00  0.00    -0.320 OA
BRANCH  13  14
HETATM   14  C   UNL     1     -52.229  45.880  14.369  1.00  0.00     0.174 C 
HETATM   15  C   UNL     1     -52.008  45.505  12.919  1.00  0.00     0.034 C 
ENDBRANCH  13  14
ENDBRANCH  11  13
ENDBRANCH   3  11
ENDBRANCH   1   3
TORSDOF 6
ENDMDL
MODEL 9
REMARK VINA RESULT:     -16.7      4.570      7.099
REMARK  6 active torsions:
REMARK  status: ('A' for Active; 'I' for Inactive)
REMARK    1  A    between atoms: O_1  and  C_5 
REMARK    2  A    between atoms: O_2  and  C_7 
REMARK    3  A    between atoms: O_2  and  C_13 
REMARK    4  A    between atoms: C_4  and  C_5 
REMARK    5  A    between atoms: C_4  and  C_6 
REMARK    6  A    between atoms: C_5  and  C_7 
ROOT
HETATM    1  O   UNL     1     -53.934  48.269  16.375  1.00  0.00    -0.385 OA
HETATM    2  H   UNL     1     -53.924  49.158  16.761  1.00  0.00     0.210 HD
ENDROOT
BRANCH   1   3
HETATM    3  C   UNL     1     -53.161  48.262  15.181  1.00  0.00     0.221 C 
BRANCH   3   4
HETATM    4  C   UNL     1     -52.947  49.707  14.725  1.00  0.00     0.080 C 
BRANCH   4   5
HETATM    5  C   UNL     1     -53.284  49.897  13.266  1.00  0.00    -0.055 A 
HETATM    6  C   UNL     1     -53.279  48.799  12.420  1.00  0.00     0.007 A 
HETATM    7  C   UNL     1     -53.591  48.973  11.071  1.00  0.00     0.001 A 
HETATM    8  C   UNL     1     -53.902  50.244  10.587  1.00  0.00     0.000 A 
HETATM    9  C   UNL     1     -53.902  51.339  11.450  1.00  0.00     0.001 A 
HETATM   10  C   UNL     1     -53.591  51.165  12.798  1.00  0.00     0.007 A 
ENDBRANCH   4   5
ENDBRANCH   3   4
BRANCH   3  11
HETATM   11  C   UNL     1     -51.836  47.594  15.494  1.00  0.00     0.288 C 
HETATM   12  O   UNL     1     -51.428  46.573  14.956  1.00  0.00    -0.262 OA
BRANCH  11  13
HETATM   13  O   UNL     1     -51.170  48.318  16.441  1.00  0.00    -0.320 OA
BRANCH  13  14
HETATM   14  C   UNL     1     -50.498  47.551  17.445  1.00  0.00     0.174 C 
HETATM   15  C   UNL     1     -49.057  48.009  17.532  1.00  0.00     0.034 C 
ENDBRANCH  13  14
ENDBRANCH  11  13
ENDBRANCH   3  11
ENDBRANCH   1   3
TORSDOF 6
ENDMDL
