MODEL 1
REMARK VINA RESULT:      -6.3      0.000      0.000
REMARK  3 active torsions:
REMARK  status: ('A' for Active; 'I' for Inactive)
REMARK    1  A    between atoms: C_3  and  C_4 
REMARK    2  A    between atoms: C_3  and  C_5 
REMARK    3  A    between atoms: C_5  and  C_10 
ROOT
HETATM    1  O   UNL     1      32.986  79.497  23.244  1.00  0.00    -0.648 OA
HETATM    2  O   UNL     1      31.932  81.268  22.288  1.00  0.00    -0.648 OA
HETATM    3  C   UNL     1      31.967  80.074  22.561  1.00  0.00     0.172 C 
ENDROOT
BRANCH   3   4
HETATM    4  C   UNL     1      30.902  79.087  22.147  1.00  0.00     0.117 C 
BRANCH   4   5
HETATM    5  C   UNL     1      31.471  77.673  21.991  1.00  0.00     0.049 C 
BRANCH   5   6
HETATM    6  C   UNL     1      31.370  77.135  20.604  1.00  0.00    -0.058 A 
HETATM    7  C   UNL     1      30.934  77.960  19.566  1.00  0.00     0.007 A 
HETATM    8  C   UNL     1      30.839  77.458  18.268  1.00  0.00     0.001 A 
HETATM    9  C   UNL     1      31.180  76.130  18.008  1.00  0.00     0.000 A 
HETATM   10  C   UNL     1      31.615  75.305  19.045  1.00  0.00     0.001 A 
HETATM   11  C   UNL     1      31.711  75.808  20.342  1.00  0.00     0.007 A 
ENDBRANCH   5   6
ENDBRANCH   4   5
ENDBRANCH   3   4
TORSDOF 3
ENDMDL
MODEL 2
REMARK VINA RESULT:      -6.3      0.227      1.473
REMARK  3 active torsions:
REMARK  status: ('A' for Active; 'I' for Inactive)
REMARK    1  A    between atoms: C_3  and  C_4 
REMARK    2  A    between atoms: C_3  and  C_5 
REMARK    3  A    between atoms: C_5  and  C_10 
ROOT
HETATM    1  O   UNL     1      32.984  79.356  23.204  1.00  0.00    -0.648 OA
HETATM    2  O   UNL     1      31.931  81.245  22.508  1.00  0.00    -0.648 OA
HETATM    3  C   UNL     1      32.001  80.023  22.550  1.00  0.00     0.172 C 
ENDROOT
BRANCH   3   4
HETATM    4  C   UNL     1      31.026  79.102  21.857  1.00  0.00     0.117 C 
BRANCH   4   5
HETATM    5  C   UNL     1      31.574  77.674  21.751  1.00  0.00     0.049 C 
BRANCH   5   6
HETATM    6  C   UNL     1      31.430  77.075  20.393  1.00  0.00    -0.058 A 
HETATM    7  C   UNL     1      31.805  75.749  20.172  1.00  0.00     0.007 A 
HETATM    8  C   UNL     1      31.670  75.188  18.902  1.00  0.00     0.001 A 
HETATM    9  C   UNL     1      31.161  75.953  17.853  1.00  0.00     0.000 A 
HETATM   10  C   UNL     1      30.786  77.278  18.073  1.00  0.00     0.001 A 
HETATM   11  C   UNL     1      30.920  77.838  19.343  1.00  0.00     0.007 A 
ENDBRANCH   5   6
ENDBRANCH   4   5
ENDBRANCH   3   4
TORSDOF 3
ENDMDL
MODEL 3
REMARK VINA RESULT:      -6.1      1.115      1.901
REMARK  3 active torsions:
REMARK  status: ('A' for Active; 'I' for Inactive)
REMARK    1  A    between atoms: C_3  and  C_4 
REMARK    2  A    between atoms: C_3  and  C_5 
REMARK    3  A    between atoms: C_5  and  C_10 
ROOT
HETATM    1  O   UNL     1      32.957  79.614  23.257  1.00  0.00    -0.648 OA
HETATM    2  O   UNL     1      31.880  81.312  22.199  1.00  0.00    -0.648 OA
HETATM    3  C   UNL     1      31.915  80.145  22.570  1.00  0.00     0.172 C 
ENDROOT
BRANCH   3   4
HETATM    4  C   UNL     1      30.824  79.140  22.287  1.00  0.00     0.117 C 
BRANCH   4   5
HETATM    5  C   UNL     1      30.947  78.554  20.875  1.00  0.00     0.049 C 
BRANCH   5   6
HETATM    6  C   UNL     1      31.645  77.238  20.831  1.00  0.00    -0.058 A 
HETATM    7  C   UNL     1      31.994  76.675  19.603  1.00  0.00     0.007 A 
HETATM    8  C   UNL     1      32.647  75.443  19.560  1.00  0.00     0.001 A 
HETATM    9  C   UNL     1      32.951  74.774  20.746  1.00  0.00     0.000 A 
HETATM   10  C   UNL     1      32.602  75.336  21.974  1.00  0.00     0.001 A 
HETATM   11  C   UNL     1      31.949  76.568  22.016  1.00  0.00     0.007 A 
ENDBRANCH   5   6
ENDBRANCH   4   5
ENDBRANCH   3   4
TORSDOF 3
ENDMDL
MODEL 4
REMARK VINA RESULT:      -6.0      1.099      2.029
REMARK  3 active torsions:
REMARK  status: ('A' for Active; 'I' for Inactive)
REMARK    1  A    between atoms: C_3  and  C_4 
REMARK    2  A    between atoms: C_3  and  C_5 
REMARK    3  A    between atoms: C_5  and  C_10 
ROOT
HETATM    1  O   UNL     1      32.910  79.502  23.177  1.00  0.00    -0.648 OA
HETATM    2  O   UNL     1      31.849  81.279  22.241  1.00  0.00    -0.648 OA
HETATM    3  C   UNL     1      31.863  80.094  22.552  1.00  0.00     0.172 C 
ENDROOT
BRANCH   3   4
HETATM    4  C   UNL     1      30.736  79.135  22.253  1.00  0.00     0.117 C 
BRANCH   4   5
HETATM    5  C   UNL     1      30.842  78.561  20.835  1.00  0.00     0.049 C 
BRANCH   5   6
HETATM    6  C   UNL     1      31.498  77.223  20.777  1.00  0.00    -0.058 A 
HETATM    7  C   UNL     1      31.628  76.459  21.937  1.00  0.00     0.007 A 
HETATM    8  C   UNL     1      32.241  75.207  21.883  1.00  0.00     0.001 A 
HETATM    9  C   UNL     1      32.724  74.720  20.668  1.00  0.00     0.000 A 
HETATM   10  C   UNL     1      32.595  75.483  19.508  1.00  0.00     0.001 A 
HETATM   11  C   UNL     1      31.980  76.734  19.563  1.00  0.00     0.007 A 
ENDBRANCH   5   6
ENDBRANCH   4   5
ENDBRANCH   3   4
TORSDOF 3
ENDMDL
MODEL 5
REMARK VINA RESULT:      -5.7      1.767      2.421
REMARK  3 active torsions:
REMARK  status: ('A' for Active; 'I' for Inactive)
REMARK    1  A    between atoms: C_3  and  C_4 
REMARK    2  A    between atoms: C_3  and  C_5 
REMARK    3  A    between atoms: C_5  and  C_10 
ROOT
HETATM    1  O   UNL     1      33.078  77.906  22.955  1.00  0.00    -0.648 OA
HETATM    2  O   UNL     1      33.124  75.640  22.787  1.00  0.00    -0.648 OA
HETATM    3  C   UNL     1      32.574  76.711  22.558  1.00  0.00     0.172 C 
ENDROOT
BRANCH   3   4
HETATM    4  C   UNL     1      31.256  76.840  21.834  1.00  0.00     0.117 C 
BRANCH   4   5
HETATM    5  C   UNL     1      31.364  77.770  20.620  1.00  0.00     0.049 C 
BRANCH   5   6
HETATM    6  C   UNL     1      31.194  77.073  19.313  1.00  0.00    -0.058 A 
HETATM    7  C   UNL     1      30.704  77.771  18.209  1.00  0.00     0.007 A 
HETATM    8  C   UNL     1      30.545  77.120  16.986  1.00  0.00     0.001 A 
HETATM    9  C   UNL     1      30.877  75.771  16.866  1.00  0.00     0.000 A 
HETATM   10  C   UNL     1      31.367  75.072  17.970  1.00  0.00     0.001 A 
HETATM   11  C   UNL     1      31.526  75.724  19.192  1.00  0.00     0.007 A 
ENDBRANCH   5   6
ENDBRANCH   4   5
ENDBRANCH   3   4
TORSDOF 3
ENDMDL
MODEL 6
REMARK VINA RESULT:      -5.7      3.198      4.836
REMARK  3 active torsions:
REMARK  status: ('A' for Active; 'I' for Inactive)
REMARK    1  A    between atoms: C_3  and  C_4 
REMARK    2  A    between atoms: C_3  and  C_5 
REMARK    3  A    between atoms: C_5  and  C_10 
ROOT
HETATM    1  O   UNL     1      30.184  79.022  16.485  1.00  0.00    -0.648 OA
HETATM    2  O   UNL     1      32.035  78.658  15.219  1.00  0.00    -0.648 OA
HETATM    3  C   UNL     1      31.404  78.477  16.253  1.00  0.00     0.172 C 
ENDROOT
BRANCH   3   4
HETATM    4  C   UNL     1      31.911  77.654  17.413  1.00  0.00     0.117 C 
BRANCH   4   5
HETATM    5  C   UNL     1      30.849  77.504  18.508  1.00  0.00     0.049 C 
BRANCH   5   6
HETATM    6  C   UNL     1      31.416  77.255  19.864  1.00  0.00    -0.058 A 
HETATM    7  C   UNL     1      31.681  75.950  20.281  1.00  0.00     0.007 A 
HETATM    8  C   UNL     1      32.212  75.716  21.549  1.00  0.00     0.001 A 
HETATM    9  C   UNL     1      32.478  76.788  22.401  1.00  0.00     0.000 A 
HETATM   10  C   UNL     1      32.214  78.093  21.985  1.00  0.00     0.001 A 
HETATM   11  C   UNL     1      31.683  78.326  20.717  1.00  0.00     0.007 A 
ENDBRANCH   5   6
ENDBRANCH   4   5
ENDBRANCH   3   4
TORSDOF 3
ENDMDL
MODEL 7
REMARK VINA RESULT:      -5.6      3.150      4.573
REMARK  3 active torsions:
REMARK  status: ('A' for Active; 'I' for Inactive)
REMARK    1  A    between atoms: C_3  and  C_4 
REMARK    2  A    between atoms: C_3  and  C_5 
REMARK    3  A    between atoms: C_5  and  C_10 
ROOT
HETATM    1  O   UNL     1      32.428  78.713  15.450  1.00  0.00    -0.648 OA
HETATM    2  O   UNL     1      30.399  79.138  16.379  1.00  0.00    -0.648 OA
HETATM    3  C   UNL     1      31.459  78.524  16.380  1.00  0.00     0.172 C 
ENDROOT
BRANCH   3   4
HETATM    4  C   UNL     1      31.812  77.459  17.390  1.00  0.00     0.117 C 
BRANCH   4   5
HETATM    5  C   UNL     1      30.811  77.425  18.550  1.00  0.00     0.049 C 
BRANCH   5   6
HETATM    6  C   UNL     1      31.444  77.204  19.882  1.00  0.00    -0.058 A 
HETATM    7  C   UNL     1      31.597  78.271  20.768  1.00  0.00     0.007 A 
HETATM    8  C   UNL     1      32.188  78.064  22.014  1.00  0.00     0.001 A 
HETATM    9  C   UNL     1      32.627  76.790  22.375  1.00  0.00     0.000 A 
HETATM   10  C   UNL     1      32.474  75.723  21.490  1.00  0.00     0.001 A 
HETATM   11  C   UNL     1      31.882  75.930  20.244  1.00  0.00     0.007 A 
ENDBRANCH   5   6
ENDBRANCH   4   5
ENDBRANCH   3   4
TORSDOF 3
ENDMDL
MODEL 8
REMARK VINA RESULT:      -5.6      1.372      2.452
REMARK  3 active torsions:
REMARK  status: ('A' for Active; 'I' for Inactive)
REMARK    1  A    between atoms: C_3  and  C_4 
REMARK    2  A    between atoms: C_3  and  C_5 
REMARK    3  A    between atoms: C_5  and  C_10 
ROOT
HETATM    1  O   UNL     1      32.460  76.601  23.138  1.00  0.00    -0.648 OA
HETATM    2  O   UNL     1      32.953  78.813  22.986  1.00  0.00    -0.648 OA
HETATM    3  C   UNL     1      32.403  77.815  22.537  1.00  0.00     0.172 C 
ENDROOT
BRANCH   3   4
HETATM    4  C   UNL     1      31.619  77.797  21.247  1.00  0.00     0.117 C 
BRANCH   4   5
HETATM    5  C   UNL     1      31.640  76.412  20.591  1.00  0.00     0.049 C 
BRANCH   5   6
HETATM    6  C   UNL     1      31.285  76.428  19.143  1.00  0.00    -0.058 A 
HETATM    7  C   UNL     1      31.403  75.264  18.383  1.00  0.00     0.007 A 
HETATM    8  C   UNL     1      31.071  75.278  17.028  1.00  0.00     0.001 A 
HETATM    9  C   UNL     1      30.620  76.457  16.434  1.00  0.00     0.000 A 
HETATM   10  C   UNL     1      30.501  77.621  17.193  1.00  0.00     0.001 A 
HETATM   11  C   UNL     1      30.833  77.606  18.548  1.00  0.00     0.007 A 
ENDBRANCH   5   6
ENDBRANCH   4   5
ENDBRANCH   3   4
TORSDOF 3
ENDMDL
MODEL 9
REMARK VINA RESULT:      -5.6      3.237      4.592
REMARK  3 active torsions:
REMARK  status: ('A' for Active; 'I' for Inactive)
REMARK    1  A    between atoms: C_3  and  C_4 
REMARK    2  A    between atoms: C_3  and  C_5 
REMARK    3  A    between atoms: C_5  and  C_10 
ROOT
HETATM    1  O   UNL     1      29.770  77.017  15.972  1.00  0.00    -0.648 OA
HETATM    2  O   UNL     1      29.952  79.161  16.702  1.00  0.00    -0.648 OA
HETATM    3  C   UNL     1      30.262  77.979  16.792  1.00  0.00     0.172 C 
ENDROOT
BRANCH   3   4
HETATM    4  C   UNL     1      31.202  77.435  17.840  1.00  0.00     0.117 C 
BRANCH   4   5
HETATM    5  C   UNL     1      30.761  77.828  19.255  1.00  0.00     0.049 C 
BRANCH   5   6
HETATM    6  C   UNL     1      31.497  77.109  20.334  1.00  0.00    -0.058 A 
HETATM    7  C   UNL     1      31.966  77.811  21.445  1.00  0.00     0.007 A 
HETATM    8  C   UNL     1      32.654  77.140  22.456  1.00  0.00     0.001 A 
HETATM    9  C   UNL     1      32.874  75.766  22.355  1.00  0.00     0.000 A 
HETATM   10  C   UNL     1      32.406  75.064  21.244  1.00  0.00     0.001 A 
HETATM   11  C   UNL     1      31.717  75.736  20.234  1.00  0.00     0.007 A 
ENDBRANCH   5   6
ENDBRANCH   4   5
ENDBRANCH   3   4
TORSDOF 3
ENDMDL
