MODEL 1
REMARK VINA RESULT:      -6.2      0.000      0.000
REMARK  3 active torsions:
REMARK  status: ('A' for Active; 'I' for Inactive)
REMARK    1  A    between atoms: C_3  and  C_4 
REMARK    2  A    between atoms: C_3  and  C_5 
REMARK    3  A    between atoms: C_5  and  C_10 
ROOT
HETATM    1  O   UNL     1     -52.353  49.987  15.473  1.00  0.00    -0.648 OA
HETATM    2  O   UNL     1     -50.844  48.348  15.919  1.00  0.00    -0.648 OA
HETATM    3  C   UNL     1     -51.725  48.815  15.207  1.00  0.00     0.172 C 
ENDROOT
BRANCH   3   4
HETATM    4  C   UNL     1     -52.248  48.136  13.964  1.00  0.00     0.117 C 
BRANCH   4   5
HETATM    5  C   UNL     1     -53.464  48.869  13.388  1.00  0.00     0.049 C 
BRANCH   5   6
HETATM    6  C   UNL     1     -53.420  49.032  11.907  1.00  0.00    -0.058 A 
HETATM    7  C   UNL     1     -53.719  50.268  11.332  1.00  0.00     0.007 A 
HETATM    8  C   UNL     1     -53.678  50.421   9.946  1.00  0.00     0.001 A 
HETATM    9  C   UNL     1     -53.338  49.338   9.135  1.00  0.00     0.000 A 
HETATM   10  C   UNL     1     -53.039  48.103   9.709  1.00  0.00     0.001 A 
HETATM   11  C   UNL     1     -53.079  47.950  11.094  1.00  0.00     0.007 A 
ENDBRANCH   5   6
ENDBRANCH   4   5
ENDBRANCH   3   4
TORSDOF 3
ENDMDL
MODEL 2
REMARK VINA RESULT:      -6.1      0.230      1.755
REMARK  3 active torsions:
REMARK  status: ('A' for Active; 'I' for Inactive)
REMARK    1  A    between atoms: C_3  and  C_4 
REMARK    2  A    between atoms: C_3  and  C_5 
REMARK    3  A    between atoms: C_5  and  C_10 
ROOT
HETATM    1  O   UNL     1     -50.810  48.231  15.687  1.00  0.00    -0.648 OA
HETATM    2  O   UNL     1     -52.364  49.887  15.594  1.00  0.00    -0.648 OA
HETATM    3  C   UNL     1     -51.863  48.873  15.123  1.00  0.00     0.172 C 
ENDROOT
BRANCH   3   4
HETATM    4  C   UNL     1     -52.330  48.224  13.842  1.00  0.00     0.117 C 
BRANCH   4   5
HETATM    5  C   UNL     1     -53.569  48.923  13.272  1.00  0.00     0.049 C 
BRANCH   5   6
HETATM    6  C   UNL     1     -53.507  49.149  11.800  1.00  0.00    -0.058 A 
HETATM    7  C   UNL     1     -53.320  48.070  10.935  1.00  0.00     0.007 A 
HETATM    8  C   UNL     1     -53.261  48.281   9.558  1.00  0.00     0.001 A 
HETATM    9  C   UNL     1     -53.391  49.572   9.044  1.00  0.00     0.000 A 
HETATM   10  C   UNL     1     -53.578  50.651   9.908  1.00  0.00     0.001 A 
HETATM   11  C   UNL     1     -53.637  50.439  11.285  1.00  0.00     0.007 A 
ENDBRANCH   5   6
ENDBRANCH   4   5
ENDBRANCH   3   4
TORSDOF 3
ENDMDL
MODEL 3
REMARK VINA RESULT:      -6.1      2.755      4.636
REMARK  3 active torsions:
REMARK  status: ('A' for Active; 'I' for Inactive)
REMARK    1  A    between atoms: C_3  and  C_4 
REMARK    2  A    between atoms: C_3  and  C_5 
REMARK    3  A    between atoms: C_5  and  C_10 
ROOT
HETATM    1  O   UNL     1     -54.502  53.025   9.508  1.00  0.00    -0.648 OA
HETATM    2  O   UNL     1     -53.416  52.533  11.442  1.00  0.00    -0.648 OA
HETATM    3  C   UNL     1     -53.753  52.224  10.306  1.00  0.00     0.172 C 
ENDROOT
BRANCH   3   4
HETATM    4  C   UNL     1     -53.407  50.906   9.657  1.00  0.00     0.117 C 
BRANCH   4   5
HETATM    5  C   UNL     1     -54.284  49.766  10.188  1.00  0.00     0.049 C 
BRANCH   5   6
HETATM    6  C   UNL     1     -53.589  48.881  11.167  1.00  0.00    -0.058 A 
HETATM    7  C   UNL     1     -53.026  47.678  10.741  1.00  0.00     0.007 A 
HETATM    8  C   UNL     1     -52.375  46.849  11.655  1.00  0.00     0.001 A 
HETATM    9  C   UNL     1     -52.287  47.224  12.996  1.00  0.00     0.000 A 
HETATM   10  C   UNL     1     -52.850  48.427  13.422  1.00  0.00     0.001 A 
HETATM   11  C   UNL     1     -53.500  49.256  12.507  1.00  0.00     0.007 A 
ENDBRANCH   5   6
ENDBRANCH   4   5
ENDBRANCH   3   4
TORSDOF 3
ENDMDL
MODEL 4
REMARK VINA RESULT:      -6.0      2.717      4.523
REMARK  3 active torsions:
REMARK  status: ('A' for Active; 'I' for Inactive)
REMARK    1  A    between atoms: C_3  and  C_4 
REMARK    2  A    between atoms: C_3  and  C_5 
REMARK    3  A    between atoms: C_5  and  C_10 
ROOT
HETATM    1  O   UNL     1     -53.417  52.293  11.452  1.00  0.00    -0.648 OA
HETATM    2  O   UNL     1     -54.326  52.853   9.446  1.00  0.00    -0.648 OA
HETATM    3  C   UNL     1     -53.791  52.027  10.176  1.00  0.00     0.172 C 
ENDROOT
BRANCH   3   4
HETATM    4  C   UNL     1     -53.450  50.622   9.743  1.00  0.00     0.117 C 
BRANCH   4   5
HETATM    5  C   UNL     1     -54.320  49.582  10.459  1.00  0.00     0.049 C 
BRANCH   5   6
HETATM    6  C   UNL     1     -53.559  48.702  11.391  1.00  0.00    -0.058 A 
HETATM    7  C   UNL     1     -53.440  49.049  12.737  1.00  0.00     0.007 A 
HETATM    8  C   UNL     1     -52.728  48.227  13.611  1.00  0.00     0.001 A 
HETATM    9  C   UNL     1     -52.135  47.056  13.137  1.00  0.00     0.000 A 
HETATM   10  C   UNL     1     -52.254  46.708  11.792  1.00  0.00     0.001 A 
HETATM   11  C   UNL     1     -52.966  47.531  10.919  1.00  0.00     0.007 A 
ENDBRANCH   5   6
ENDBRANCH   4   5
ENDBRANCH   3   4
TORSDOF 3
ENDMDL
MODEL 5
REMARK VINA RESULT:      -5.7      3.331      4.942
REMARK  3 active torsions:
REMARK  status: ('A' for Active; 'I' for Inactive)
REMARK    1  A    between atoms: C_3  and  C_4 
REMARK    2  A    between atoms: C_3  and  C_5 
REMARK    3  A    between atoms: C_5  and  C_10 
ROOT
HETATM    1  O   UNL     1     -52.835  48.625   8.209  1.00  0.00    -0.648 OA
HETATM    2  O   UNL     1     -53.327  50.823   8.510  1.00  0.00    -0.648 OA
HETATM    3  C   UNL     1     -53.435  49.653   8.859  1.00  0.00     0.172 C 
ENDROOT
BRANCH   3   4
HETATM    4  C   UNL     1     -54.271  49.200  10.031  1.00  0.00     0.117 C 
BRANCH   4   5
HETATM    5  C   UNL     1     -53.723  49.737  11.359  1.00  0.00     0.049 C 
BRANCH   5   6
HETATM    6  C   UNL     1     -53.053  48.700  12.194  1.00  0.00    -0.058 A 
HETATM    7  C   UNL     1     -52.750  48.969  13.529  1.00  0.00     0.007 A 
HETATM    8  C   UNL     1     -52.123  47.999  14.313  1.00  0.00     0.001 A 
HETATM    9  C   UNL     1     -51.800  46.760  13.760  1.00  0.00     0.000 A 
HETATM   10  C   UNL     1     -52.102  46.490  12.425  1.00  0.00     0.001 A 
HETATM   11  C   UNL     1     -52.729  47.460  11.643  1.00  0.00     0.007 A 
ENDBRANCH   5   6
ENDBRANCH   4   5
ENDBRANCH   3   4
TORSDOF 3
ENDMDL
MODEL 6
REMARK VINA RESULT:      -5.6      4.059      5.354
REMARK  3 active torsions:
REMARK  status: ('A' for Active; 'I' for Inactive)
REMARK    1  A    between atoms: C_3  and  C_4 
REMARK    2  A    between atoms: C_3  and  C_5 
REMARK    3  A    between atoms: C_5  and  C_10 
ROOT
HETATM    1  O   UNL     1     -54.661  44.573   7.803  1.00  0.00    -0.648 OA
HETATM    2  O   UNL     1     -55.786  46.156   8.981  1.00  0.00    -0.648 OA
HETATM    3  C   UNL     1     -54.766  45.509   8.779  1.00  0.00     0.172 C 
ENDROOT
BRANCH   3   4
HETATM    4  C   UNL     1     -53.509  45.642   9.604  1.00  0.00     0.117 C 
BRANCH   4   5
HETATM    5  C   UNL     1     -52.690  46.872   9.194  1.00  0.00     0.049 C 
BRANCH   5   6
HETATM    6  C   UNL     1     -53.009  48.095   9.984  1.00  0.00    -0.058 A 
HETATM    7  C   UNL     1     -52.928  48.067  11.377  1.00  0.00     0.007 A 
HETATM    8  C   UNL     1     -53.225  49.212  12.117  1.00  0.00     0.001 A 
HETATM    9  C   UNL     1     -53.604  50.385  11.464  1.00  0.00     0.000 A 
HETATM   10  C   UNL     1     -53.686  50.413  10.072  1.00  0.00     0.001 A 
HETATM   11  C   UNL     1     -53.387  49.269   9.332  1.00  0.00     0.007 A 
ENDBRANCH   5   6
ENDBRANCH   4   5
ENDBRANCH   3   4
TORSDOF 3
ENDMDL
MODEL 7
REMARK VINA RESULT:      -5.6      4.290      5.848
REMARK  3 active torsions:
REMARK  status: ('A' for Active; 'I' for Inactive)
REMARK    1  A    between atoms: C_3  and  C_4 
REMARK    2  A    between atoms: C_3  and  C_5 
REMARK    3  A    between atoms: C_5  and  C_10 
ROOT
HETATM    1  O   UNL     1     -54.065  45.794   7.832  1.00  0.00    -0.648 OA
HETATM    2  O   UNL     1     -53.230  46.485   5.835  1.00  0.00    -0.648 OA
HETATM    3  C   UNL     1     -53.273  46.575   7.056  1.00  0.00     0.172 C 
ENDROOT
BRANCH   3   4
HETATM    4  C   UNL     1     -52.479  47.582   7.853  1.00  0.00     0.117 C 
BRANCH   4   5
HETATM    5  C   UNL     1     -53.373  48.697   8.407  1.00  0.00     0.049 C 
BRANCH   5   6
HETATM    6  C   UNL     1     -53.302  48.843   9.889  1.00  0.00    -0.058 A 
HETATM    7  C   UNL     1     -52.970  47.745  10.683  1.00  0.00     0.007 A 
HETATM    8  C   UNL     1     -52.903  47.881  12.070  1.00  0.00     0.001 A 
HETATM    9  C   UNL     1     -53.168  49.116  12.662  1.00  0.00     0.000 A 
HETATM   10  C   UNL     1     -53.499  50.214  11.869  1.00  0.00     0.001 A 
HETATM   11  C   UNL     1     -53.566  50.078  10.483  1.00  0.00     0.007 A 
ENDBRANCH   5   6
ENDBRANCH   4   5
ENDBRANCH   3   4
TORSDOF 3
ENDMDL
MODEL 8
REMARK VINA RESULT:      -5.6      0.871      1.984
REMARK  3 active torsions:
REMARK  status: ('A' for Active; 'I' for Inactive)
REMARK    1  A    between atoms: C_3  and  C_4 
REMARK    2  A    between atoms: C_3  and  C_5 
REMARK    3  A    between atoms: C_5  and  C_10 
ROOT
HETATM    1  O   UNL     1     -50.069  46.729  14.757  1.00  0.00    -0.648 OA
HETATM    2  O   UNL     1     -51.134  48.514  15.675  1.00  0.00    -0.648 OA
HETATM    3  C   UNL     1     -51.106  47.595  14.864  1.00  0.00     0.172 C 
ENDROOT
BRANCH   3   4
HETATM    4  C   UNL     1     -52.202  47.328  13.862  1.00  0.00     0.117 C 
BRANCH   4   5
HETATM    5  C   UNL     1     -53.021  48.590  13.566  1.00  0.00     0.049 C 
BRANCH   5   6
HETATM    6  C   UNL     1     -53.218  48.851  12.112  1.00  0.00    -0.058 A 
HETATM    7  C   UNL     1     -53.085  47.810  11.192  1.00  0.00     0.007 A 
HETATM    8  C   UNL     1     -53.269  48.052   9.831  1.00  0.00     0.001 A 
HETATM    9  C   UNL     1     -53.588  49.337   9.389  1.00  0.00     0.000 A 
HETATM   10  C   UNL     1     -53.721  50.378  10.308  1.00  0.00     0.001 A 
HETATM   11  C   UNL     1     -53.537  50.134  11.669  1.00  0.00     0.007 A 
ENDBRANCH   5   6
ENDBRANCH   4   5
ENDBRANCH   3   4
TORSDOF 3
ENDMDL
MODEL 9
REMARK VINA RESULT:      -5.6      3.756      5.235
REMARK  3 active torsions:
REMARK  status: ('A' for Active; 'I' for Inactive)
REMARK    1  A    between atoms: C_3  and  C_4 
REMARK    2  A    between atoms: C_3  and  C_5 
REMARK    3  A    between atoms: C_5  and  C_10 
ROOT
HETATM    1  O   UNL     1     -54.211  46.940   8.131  1.00  0.00    -0.648 OA
HETATM    2  O   UNL     1     -56.063  46.038   9.089  1.00  0.00    -0.648 OA
HETATM    3  C   UNL     1     -55.198  46.905   9.060  1.00  0.00     0.172 C 
ENDROOT
BRANCH   3   4
HETATM    4  C   UNL     1     -55.099  48.026  10.066  1.00  0.00     0.117 C 
BRANCH   4   5
HETATM    5  C   UNL     1     -53.653  48.504  10.240  1.00  0.00     0.049 C 
BRANCH   5   6
HETATM    6  C   UNL     1     -53.079  48.202  11.583  1.00  0.00    -0.058 A 
HETATM    7  C   UNL     1     -53.200  49.130  12.618  1.00  0.00     0.007 A 
HETATM    8  C   UNL     1     -52.663  48.848  13.874  1.00  0.00     0.001 A 
HETATM    9  C   UNL     1     -52.005  47.637  14.095  1.00  0.00     0.000 A 
HETATM   10  C   UNL     1     -51.884  46.710  13.061  1.00  0.00     0.001 A 
HETATM   11  C   UNL     1     -52.422  46.992  11.805  1.00  0.00     0.007 A 
ENDBRANCH   5   6
ENDBRANCH   4   5
ENDBRANCH   3   4
TORSDOF 3
ENDMDL
