MODEL 1
REMARK VINA RESULT:      -6.6      0.000      0.000
REMARK  6 active torsions:
REMARK  status: ('A' for Active; 'I' for Inactive)
REMARK    1  A    between atoms: O_1  and  C_8 
REMARK    2  A    between atoms: O_2  and  C_11 
REMARK    3  A    between atoms: O_3  and  C_13 
REMARK    4  A    between atoms: C_6  and  C_7 
REMARK    5  A    between atoms: C_6  and  C_8 
REMARK    6  A    between atoms: C_8  and  C_14 
ROOT
HETATM    1  O   UNL     1     -52.402  46.745  13.860  1.00  0.00    -0.385 OA
HETATM    2  H   UNL     1     -52.484  46.571  14.810  1.00  0.00     0.210 HD
ENDROOT
BRANCH   1   3
HETATM    3  C   UNL     1     -52.205  48.138  13.648  1.00  0.00     0.223 C 
BRANCH   3   4
HETATM    4  C   UNL     1     -53.529  48.750  13.164  1.00  0.00     0.081 C 
BRANCH   4   5
HETATM    5  C   UNL     1     -53.475  49.182  11.738  1.00  0.00    -0.052 A 
HETATM    6  C   UNL     1     -53.692  50.519  11.405  1.00  0.00     0.046 A 
HETATM    7  C   UNL     1     -53.641  50.923  10.070  1.00  0.00     0.099 A 
HETATM    8  C   UNL     1     -53.375  49.989   9.070  1.00  0.00     0.098 A 
HETATM    9  C   UNL     1     -53.160  48.651   9.402  1.00  0.00     0.040 A 
HETATM   10  C   UNL     1     -53.210  48.248  10.736  1.00  0.00     0.010 A 
BRANCH   7  11
HETATM   11  O   UNL     1     -53.853  52.231   9.759  1.00  0.00    -0.358 OA
HETATM   12  H   UNL     1     -53.167  52.738   9.374  1.00  0.00     0.217 HD
ENDBRANCH   7  11
BRANCH   8  13
HETATM   13  O   UNL     1     -53.323  50.372   7.763  1.00  0.00    -0.358 OA
HETATM   14  H   UNL     1     -54.028  50.864   7.390  1.00  0.00     0.217 HD
ENDBRANCH   8  13
ENDBRANCH   4   5
ENDBRANCH   3   4
BRANCH   3  15
HETATM   15  C   UNL     1     -51.766  48.742  14.967  1.00  0.00     0.203 C 
HETATM   16  O   UNL     1     -52.479  49.853  15.283  1.00  0.00    -0.646 OA
HETATM   17  O   UNL     1     -50.864  48.306  15.670  1.00  0.00    -0.646 OA
ENDBRANCH   3  15
ENDBRANCH   1   3
TORSDOF 6
ENDMDL
MODEL 2
REMARK VINA RESULT:      -6.4      0.725      1.804
REMARK  6 active torsions:
REMARK  status: ('A' for Active; 'I' for Inactive)
REMARK    1  A    between atoms: O_1  and  C_8 
REMARK    2  A    between atoms: O_2  and  C_11 
REMARK    3  A    between atoms: O_3  and  C_13 
REMARK    4  A    between atoms: C_6  and  C_7 
REMARK    5  A    between atoms: C_6  and  C_8 
REMARK    6  A    between atoms: C_8  and  C_14 
ROOT
HETATM    1  O   UNL     1     -52.465  46.757  13.889  1.00  0.00    -0.385 OA
HETATM    2  H   UNL     1     -53.357  46.630  14.247  1.00  0.00     0.210 HD
ENDROOT
BRANCH   1   3
HETATM    3  C   UNL     1     -52.234  48.144  13.673  1.00  0.00     0.223 C 
BRANCH   3   4
HETATM    4  C   UNL     1     -53.546  48.788  13.195  1.00  0.00     0.081 C 
BRANCH   4   5
HETATM    5  C   UNL     1     -53.484  49.230  11.773  1.00  0.00    -0.052 A 
HETATM    6  C   UNL     1     -53.302  48.290  10.758  1.00  0.00     0.046 A 
HETATM    7  C   UNL     1     -53.244  48.704   9.426  1.00  0.00     0.099 A 
HETATM    8  C   UNL     1     -53.368  50.056   9.111  1.00  0.00     0.098 A 
HETATM    9  C   UNL     1     -53.550  50.996  10.126  1.00  0.00     0.040 A 
HETATM   10  C   UNL     1     -53.608  50.583  11.456  1.00  0.00     0.010 A 
BRANCH   7  11
HETATM   11  O   UNL     1     -53.066  47.777   8.445  1.00  0.00    -0.358 OA
HETATM   12  H   UNL     1     -53.020  48.046   7.549  1.00  0.00     0.217 HD
ENDBRANCH   7  11
BRANCH   8  13
HETATM   13  O   UNL     1     -53.314  50.472   7.814  1.00  0.00    -0.358 OA
HETATM   14  H   UNL     1     -53.708  49.954   7.139  1.00  0.00     0.217 HD
ENDBRANCH   8  13
ENDBRANCH   4   5
ENDBRANCH   3   4
BRANCH   3  15
HETATM   15  C   UNL     1     -51.773  48.740  14.987  1.00  0.00     0.203 C 
HETATM   16  O   UNL     1     -52.522  49.811  15.355  1.00  0.00    -0.646 OA
HETATM   17  O   UNL     1     -50.826  48.331  15.647  1.00  0.00    -0.646 OA
ENDBRANCH   3  15
ENDBRANCH   1   3
TORSDOF 6
ENDMDL
MODEL 3
REMARK VINA RESULT:      -6.1      2.983      5.157
REMARK  6 active torsions:
REMARK  status: ('A' for Active; 'I' for Inactive)
REMARK    1  A    between atoms: O_1  and  C_8 
REMARK    2  A    between atoms: O_2  and  C_11 
REMARK    3  A    between atoms: O_3  and  C_13 
REMARK    4  A    between atoms: C_6  and  C_7 
REMARK    5  A    between atoms: C_6  and  C_8 
REMARK    6  A    between atoms: C_8  and  C_14 
ROOT
HETATM    1  O   UNL     1     -53.663  47.011   6.610  1.00  0.00    -0.385 OA
HETATM    2  H   UNL     1     -53.325  46.180   6.242  1.00  0.00     0.210 HD
ENDROOT
BRANCH   1   3
HETATM    3  C   UNL     1     -52.730  47.528   7.551  1.00  0.00     0.223 C 
BRANCH   3   4
HETATM    4  C   UNL     1     -53.324  47.380   8.961  1.00  0.00     0.081 C 
BRANCH   4   5
HETATM    5  C   UNL     1     -53.370  48.671   9.704  1.00  0.00    -0.052 A 
HETATM    6  C   UNL     1     -53.524  49.870   9.009  1.00  0.00     0.046 A 
HETATM    7  C   UNL     1     -53.567  51.079   9.705  1.00  0.00     0.099 A 
HETATM    8  C   UNL     1     -53.454  51.087  11.095  1.00  0.00     0.098 A 
HETATM    9  C   UNL     1     -53.299  49.888  11.790  1.00  0.00     0.040 A 
HETATM   10  C   UNL     1     -53.257  48.680  11.094  1.00  0.00     0.010 A 
BRANCH   7  11
HETATM   11  O   UNL     1     -53.719  52.243   9.016  1.00  0.00    -0.358 OA
HETATM   12  H   UNL     1     -53.433  53.052   9.393  1.00  0.00     0.217 HD
ENDBRANCH   7  11
BRANCH   8  13
HETATM   13  O   UNL     1     -53.495  52.261  11.785  1.00  0.00    -0.358 OA
HETATM   14  H   UNL     1     -54.182  52.878  11.621  1.00  0.00     0.217 HD
ENDBRANCH   8  13
ENDBRANCH   4   5
ENDBRANCH   3   4
BRANCH   3  15
HETATM   15  C   UNL     1     -51.448  46.733   7.405  1.00  0.00     0.203 C 
HETATM   16  O   UNL     1     -51.456  45.946   6.299  1.00  0.00    -0.646 OA
HETATM   17  O   UNL     1     -50.511  46.768   8.191  1.00  0.00    -0.646 OA
ENDBRANCH   3  15
ENDBRANCH   1   3
TORSDOF 6
ENDMDL
MODEL 4
REMARK VINA RESULT:      -6.0      2.919      5.116
REMARK  6 active torsions:
REMARK  status: ('A' for Active; 'I' for Inactive)
REMARK    1  A    between atoms: O_1  and  C_8 
REMARK    2  A    between atoms: O_2  and  C_11 
REMARK    3  A    between atoms: O_3  and  C_13 
REMARK    4  A    between atoms: C_6  and  C_7 
REMARK    5  A    between atoms: C_6  and  C_8 
REMARK    6  A    between atoms: C_8  and  C_14 
ROOT
HETATM    1  O   UNL     1     -55.606  46.450   8.938  1.00  0.00    -0.385 OA
HETATM    2  H   UNL     1     -56.105  46.033   8.218  1.00  0.00     0.210 HD
ENDROOT
BRANCH   1   3
HETATM    3  C   UNL     1     -54.236  46.552   8.569  1.00  0.00     0.223 C 
BRANCH   3   4
HETATM    4  C   UNL     1     -53.403  46.780   9.841  1.00  0.00     0.081 C 
BRANCH   4   5
HETATM    5  C   UNL     1     -53.425  48.199  10.295  1.00  0.00    -0.052 A 
HETATM    6  C   UNL     1     -53.509  49.230   9.359  1.00  0.00     0.046 A 
HETATM    7  C   UNL     1     -53.529  50.559   9.784  1.00  0.00     0.099 A 
HETATM    8  C   UNL     1     -53.464  50.856  11.145  1.00  0.00     0.098 A 
HETATM    9  C   UNL     1     -53.379  49.825  12.081  1.00  0.00     0.040 A 
HETATM   10  C   UNL     1     -53.360  48.497  11.656  1.00  0.00     0.010 A 
BRANCH   7  11
HETATM   11  O   UNL     1     -53.612  51.556   8.861  1.00  0.00    -0.358 OA
HETATM   12  H   UNL     1     -54.341  52.144   8.871  1.00  0.00     0.217 HD
ENDBRANCH   7  11
BRANCH   8  13
HETATM   13  O   UNL     1     -53.484  52.150  11.573  1.00  0.00    -0.358 OA
HETATM   14  H   UNL     1     -53.759  52.831  10.991  1.00  0.00     0.217 HD
ENDBRANCH   8  13
ENDBRANCH   4   5
ENDBRANCH   3   4
BRANCH   3  15
HETATM   15  C   UNL     1     -53.851  45.258   7.881  1.00  0.00     0.203 C 
HETATM   16  O   UNL     1     -53.649  45.426   6.549  1.00  0.00    -0.646 OA
HETATM   17  O   UNL     1     -53.746  44.174   8.439  1.00  0.00    -0.646 OA
ENDBRANCH   3  15
ENDBRANCH   1   3
TORSDOF 6
ENDMDL
MODEL 5
REMARK VINA RESULT:      -5.9      2.374      5.746
REMARK  6 active torsions:
REMARK  status: ('A' for Active; 'I' for Inactive)
REMARK    1  A    between atoms: O_1  and  C_8 
REMARK    2  A    between atoms: O_2  and  C_11 
REMARK    3  A    between atoms: O_3  and  C_13 
REMARK    4  A    between atoms: C_6  and  C_7 
REMARK    5  A    between atoms: C_6  and  C_8 
REMARK    6  A    between atoms: C_8  and  C_14 
ROOT
HETATM    1  O   UNL     1     -51.725  48.778   7.068  1.00  0.00    -0.385 OA
HETATM    2  H   UNL     1     -51.784  49.507   7.704  1.00  0.00     0.210 HD
ENDROOT
BRANCH   1   3
HETATM    3  C   UNL     1     -52.370  47.629   7.604  1.00  0.00     0.223 C 
BRANCH   3   4
HETATM    4  C   UNL     1     -53.673  48.074   8.288  1.00  0.00     0.081 C 
BRANCH   4   5
HETATM    5  C   UNL     1     -53.463  48.505   9.699  1.00  0.00    -0.052 A 
HETATM    6  C   UNL     1     -53.596  49.850  10.045  1.00  0.00     0.046 A 
HETATM    7  C   UNL     1     -53.399  50.253  11.367  1.00  0.00     0.099 A 
HETATM    8  C   UNL     1     -53.069  49.311  12.341  1.00  0.00     0.098 A 
HETATM    9  C   UNL     1     -52.935  47.967  11.995  1.00  0.00     0.040 A 
HETATM   10  C   UNL     1     -53.132  47.564  10.674  1.00  0.00     0.010 A 
BRANCH   7  11
HETATM   11  O   UNL     1     -53.533  51.568  11.692  1.00  0.00    -0.358 OA
HETATM   12  H   UNL     1     -53.603  51.824  12.590  1.00  0.00     0.217 HD
ENDBRANCH   7  11
BRANCH   8  13
HETATM   13  O   UNL     1     -52.875  49.693  13.634  1.00  0.00    -0.358 OA
HETATM   14  H   UNL     1     -52.394  49.141  14.219  1.00  0.00     0.217 HD
ENDBRANCH   8  13
ENDBRANCH   4   5
ENDBRANCH   3   4
BRANCH   3  15
HETATM   15  C   UNL     1     -52.646  46.681   6.454  1.00  0.00     0.203 C 
HETATM   16  O   UNL     1     -51.746  46.823   5.447  1.00  0.00    -0.646 OA
HETATM   17  O   UNL     1     -53.575  45.887   6.410  1.00  0.00    -0.646 OA
ENDBRANCH   3  15
ENDBRANCH   1   3
TORSDOF 6
ENDMDL
MODEL 6
REMARK VINA RESULT:      -5.9      1.748      5.590
REMARK  6 active torsions:
REMARK  status: ('A' for Active; 'I' for Inactive)
REMARK    1  A    between atoms: O_1  and  C_8 
REMARK    2  A    between atoms: O_2  and  C_11 
REMARK    3  A    between atoms: O_3  and  C_13 
REMARK    4  A    between atoms: C_6  and  C_7 
REMARK    5  A    between atoms: C_6  and  C_8 
REMARK    6  A    between atoms: C_8  and  C_14 
ROOT
HETATM    1  O   UNL     1     -53.525  49.822   8.080  1.00  0.00    -0.385 OA
HETATM    2  H   UNL     1     -53.538  49.585   7.140  1.00  0.00     0.210 HD
ENDROOT
BRANCH   1   3
HETATM    3  C   UNL     1     -53.432  48.640   8.866  1.00  0.00     0.223 C 
BRANCH   3   4
HETATM    4  C   UNL     1     -54.230  48.851  10.163  1.00  0.00     0.081 C 
BRANCH   4   5
HETATM    5  C   UNL     1     -53.478  48.423  11.376  1.00  0.00    -0.052 A 
HETATM    6  C   UNL     1     -53.480  49.225  12.517  1.00  0.00     0.046 A 
HETATM    7  C   UNL     1     -52.775  48.825  13.653  1.00  0.00     0.099 A 
HETATM    8  C   UNL     1     -52.070  47.622  13.647  1.00  0.00     0.098 A 
HETATM    9  C   UNL     1     -52.067  46.820  12.506  1.00  0.00     0.040 A 
HETATM   10  C   UNL     1     -52.771  47.220  11.371  1.00  0.00     0.010 A 
BRANCH   7  11
HETATM   11  O   UNL     1     -52.786  49.616  14.761  1.00  0.00    -0.358 OA
HETATM   12  H   UNL     1     -51.985  49.980  15.084  1.00  0.00     0.217 HD
ENDBRANCH   7  11
BRANCH   8  13
HETATM   13  O   UNL     1     -51.379  47.220  14.751  1.00  0.00    -0.358 OA
HETATM   14  H   UNL     1     -50.825  46.465  14.708  1.00  0.00     0.217 HD
ENDBRANCH   8  13
ENDBRANCH   4   5
ENDBRANCH   3   4
BRANCH   3  15
HETATM   15  C   UNL     1     -54.002  47.500   8.045  1.00  0.00     0.203 C 
HETATM   16  O   UNL     1     -55.108  46.961   8.618  1.00  0.00    -0.646 OA
HETATM   17  O   UNL     1     -53.526  47.088   6.996  1.00  0.00    -0.646 OA
ENDBRANCH   3  15
ENDBRANCH   1   3
TORSDOF 6
ENDMDL
MODEL 7
REMARK VINA RESULT:      -5.8      2.663      5.416
REMARK  6 active torsions:
REMARK  status: ('A' for Active; 'I' for Inactive)
REMARK    1  A    between atoms: O_1  and  C_8 
REMARK    2  A    between atoms: O_2  and  C_11 
REMARK    3  A    between atoms: O_3  and  C_13 
REMARK    4  A    between atoms: C_6  and  C_7 
REMARK    5  A    between atoms: C_6  and  C_8 
REMARK    6  A    between atoms: C_8  and  C_14 
ROOT
HETATM    1  O   UNL     1     -54.907  45.810   8.332  1.00  0.00    -0.385 OA
HETATM    2  H   UNL     1     -55.718  46.298   8.544  1.00  0.00     0.210 HD
ENDROOT
BRANCH   1   3
HETATM    3  C   UNL     1     -53.840  46.729   8.131  1.00  0.00     0.223 C 
BRANCH   3   4
HETATM    4  C   UNL     1     -53.058  46.867   9.448  1.00  0.00     0.081 C 
BRANCH   4   5
HETATM    5  C   UNL     1     -53.198  48.218  10.061  1.00  0.00    -0.052 A 
HETATM    6  C   UNL     1     -53.017  48.383  11.434  1.00  0.00     0.046 A 
HETATM    7  C   UNL     1     -53.148  49.648  12.008  1.00  0.00     0.099 A 
HETATM    8  C   UNL     1     -53.461  50.747  11.209  1.00  0.00     0.098 A 
HETATM    9  C   UNL     1     -53.643  50.582   9.835  1.00  0.00     0.040 A 
HETATM   10  C   UNL     1     -53.511  49.317   9.262  1.00  0.00     0.010 A 
BRANCH   7  11
HETATM   11  O   UNL     1     -52.969  49.796  13.350  1.00  0.00    -0.358 OA
HETATM   12  H   UNL     1     -52.576  49.108  13.848  1.00  0.00     0.217 HD
ENDBRANCH   7  11
BRANCH   8  13
HETATM   13  O   UNL     1     -53.591  51.987  11.758  1.00  0.00    -0.358 OA
HETATM   14  H   UNL     1     -53.919  52.697  11.241  1.00  0.00     0.217 HD
ENDBRANCH   8  13
ENDBRANCH   4   5
ENDBRANCH   3   4
BRANCH   3  15
HETATM   15  C   UNL     1     -52.965  46.178   7.023  1.00  0.00     0.203 C 
HETATM   16  O   UNL     1     -51.646  46.411   7.248  1.00  0.00    -0.646 OA
HETATM   17  O   UNL     1     -53.379  45.603   6.026  1.00  0.00    -0.646 OA
ENDBRANCH   3  15
ENDBRANCH   1   3
TORSDOF 6
ENDMDL
MODEL 8
REMARK VINA RESULT:      -5.8      3.243      5.039
REMARK  6 active torsions:
REMARK  status: ('A' for Active; 'I' for Inactive)
REMARK    1  A    between atoms: O_1  and  C_8 
REMARK    2  A    between atoms: O_2  and  C_11 
REMARK    3  A    between atoms: O_3  and  C_13 
REMARK    4  A    between atoms: C_6  and  C_7 
REMARK    5  A    between atoms: C_6  and  C_8 
REMARK    6  A    between atoms: C_8  and  C_14 
ROOT
HETATM    1  O   UNL     1     -53.145  50.750   8.365  1.00  0.00    -0.385 OA
HETATM    2  H   UNL     1     -52.226  50.954   8.600  1.00  0.00     0.210 HD
ENDROOT
BRANCH   1   3
HETATM    3  C   UNL     1     -53.915  50.599   9.551  1.00  0.00     0.223 C 
BRANCH   3   4
HETATM    4  C   UNL     1     -53.349  49.416  10.354  1.00  0.00     0.081 C 
BRANCH   4   5
HETATM    5  C   UNL     1     -53.744  48.095   9.789  1.00  0.00    -0.052 A 
HETATM    6  C   UNL     1     -55.089  47.726   9.753  1.00  0.00     0.046 A 
HETATM    7  C   UNL     1     -55.459  46.489   9.224  1.00  0.00     0.099 A 
HETATM    8  C   UNL     1     -54.484  45.622   8.732  1.00  0.00     0.098 A 
HETATM    9  C   UNL     1     -53.139  45.990   8.768  1.00  0.00     0.040 A 
HETATM   10  C   UNL     1     -52.770  47.227   9.296  1.00  0.00     0.010 A 
BRANCH   7  11
HETATM   11  O   UNL     1     -56.775  46.140   9.194  1.00  0.00    -0.358 OA
HETATM   12  H   UNL     1     -57.368  46.600   8.634  1.00  0.00     0.217 HD
ENDBRANCH   7  11
BRANCH   8  13
HETATM   13  O   UNL     1     -54.834  44.412   8.212  1.00  0.00    -0.358 OA
HETATM   14  H   UNL     1     -54.174  43.770   8.033  1.00  0.00     0.217 HD
ENDBRANCH   8  13
ENDBRANCH   4   5
ENDBRANCH   3   4
BRANCH   3  15
HETATM   15  C   UNL     1     -53.815  51.894  10.329  1.00  0.00     0.203 C 
HETATM   16  O   UNL     1     -54.262  52.958   9.614  1.00  0.00    -0.646 OA
HETATM   17  O   UNL     1     -53.370  51.995  11.465  1.00  0.00    -0.646 OA
ENDBRANCH   3  15
ENDBRANCH   1   3
TORSDOF 6
ENDMDL
MODEL 9
REMARK VINA RESULT:      -5.7      2.254      5.911
REMARK  6 active torsions:
REMARK  status: ('A' for Active; 'I' for Inactive)
REMARK    1  A    between atoms: O_1  and  C_8 
REMARK    2  A    between atoms: O_2  and  C_11 
REMARK    3  A    between atoms: O_3  and  C_13 
REMARK    4  A    between atoms: C_6  and  C_7 
REMARK    5  A    between atoms: C_6  and  C_8 
REMARK    6  A    between atoms: C_8  and  C_14 
ROOT
HETATM    1  O   UNL     1     -51.771  48.335   6.904  1.00  0.00    -0.385 OA
HETATM    2  H   UNL     1     -51.035  47.759   6.645  1.00  0.00     0.210 HD
ENDROOT
BRANCH   1   3
HETATM    3  C   UNL     1     -52.610  47.648   7.823  1.00  0.00     0.223 C 
BRANCH   3   4
HETATM    4  C   UNL     1     -53.601  48.657   8.428  1.00  0.00     0.081 C 
BRANCH   4   5
HETATM    5  C   UNL     1     -53.415  48.836   9.896  1.00  0.00    -0.052 A 
HETATM    6  C   UNL     1     -53.029  47.754  10.688  1.00  0.00     0.046 A 
HETATM    7  C   UNL     1     -52.856  47.922  12.062  1.00  0.00     0.099 A 
HETATM    8  C   UNL     1     -53.068  49.172  12.644  1.00  0.00     0.098 A 
HETATM    9  C   UNL     1     -53.454  50.253  11.852  1.00  0.00     0.040 A 
HETATM   10  C   UNL     1     -53.627  50.086  10.479  1.00  0.00     0.010 A 
BRANCH   7  11
HETATM   11  O   UNL     1     -52.478  46.859  12.824  1.00  0.00    -0.358 OA
HETATM   12  H   UNL     1     -51.788  46.952  13.450  1.00  0.00     0.217 HD
ENDBRANCH   7  11
BRANCH   8  13
HETATM   13  O   UNL     1     -52.900  49.348  13.984  1.00  0.00    -0.358 OA
HETATM   14  H   UNL     1     -52.037  49.430  14.342  1.00  0.00     0.217 HD
ENDBRANCH   8  13
ENDBRANCH   4   5
ENDBRANCH   3   4
BRANCH   3  15
HETATM   15  C   UNL     1     -53.331  46.558   7.057  1.00  0.00     0.203 C 
HETATM   16  O   UNL     1     -54.132  45.812   7.860  1.00  0.00    -0.646 OA
HETATM   17  O   UNL     1     -53.205  46.345   5.859  1.00  0.00    -0.646 OA
ENDBRANCH   3  15
ENDBRANCH   1   3
TORSDOF 6
ENDMDL
