MODEL 1
REMARK VINA RESULT:      -6.7      0.000      0.000
REMARK  7 active torsions:
REMARK  status: ('A' for Active; 'I' for Inactive)
REMARK    1  A    between atoms: O_1  and  C_2 
REMARK    2  A    between atoms: C_2  and  C_3 
REMARK    3  A    between atoms: C_2  and  C_8 
REMARK    4  A    between atoms: C_3  and  C_4 
REMARK    5  A    between atoms: C_4  and  C_5 
REMARK    6  A    between atoms: C_8  and  C_9 
REMARK    7  A    between atoms: C_11  and  O_15 
ROOT
HETATM    1  O   UNL     1      11.871   2.759  11.931  1.00  0.00    -0.395 OA
HETATM    2  H   UNL     1      11.443   2.646  12.793  1.00  0.00     0.210 HD
ENDROOT
BRANCH   1   3
HETATM    3  C   UNL     1      12.229   4.131  11.753  1.00  0.00     0.122 C 
BRANCH   3   4
HETATM    4  C   UNL     1      13.004   4.262  10.437  1.00  0.00     0.042 C 
BRANCH   4   5
HETATM    5  C   UNL     1      12.962   2.974   9.619  1.00  0.00     0.116 C 
BRANCH   5   6
HETATM    6  C   UNL     1      13.622   3.179   8.289  1.00  0.00     0.172 C 
HETATM    7  O   UNL     1      14.349   2.387   7.714  1.00  0.00    -0.648 OA
HETATM    8  O   UNL     1      13.310   4.362   7.727  1.00  0.00    -0.648 OA
ENDBRANCH   5   6
ENDBRANCH   4   5
ENDBRANCH   3   4
BRANCH   3   9
HETATM    9  C   UNL     1      13.073   4.639  12.935  1.00  0.00     0.070 C 
BRANCH   9  10
HETATM   10  C   UNL     1      12.592   5.964  13.477  1.00  0.00    -0.053 A 
HETATM   11  C   UNL     1      12.167   6.080  14.807  1.00  0.00     0.043 A 
HETATM   12  C   UNL     1      11.719   7.304  15.293  1.00  0.00     0.066 A 
HETATM   13  C   UNL     1      11.683   8.428  14.475  1.00  0.00     0.036 A 
HETATM   14  C   UNL     1      12.101   8.322  13.150  1.00  0.00     0.003 A 
HETATM   15  C   UNL     1      12.553   7.098  12.651  1.00  0.00     0.007 A 
BRANCH  12  16
HETATM   16  O   UNL     1      11.319   7.360  16.596  1.00  0.00    -0.361 OA
HETATM   17  H   UNL     1      10.767   6.689  16.946  1.00  0.00     0.217 HD
ENDBRANCH  12  16
ENDBRANCH   9  10
ENDBRANCH   3   9
ENDBRANCH   1   3
TORSDOF 7
ENDMDL
MODEL 2
REMARK VINA RESULT:      -6.6      3.045      5.930
REMARK  7 active torsions:
REMARK  status: ('A' for Active; 'I' for Inactive)
REMARK    1  A    between atoms: O_1  and  C_2 
REMARK    2  A    between atoms: C_2  and  C_3 
REMARK    3  A    between atoms: C_2  and  C_8 
REMARK    4  A    between atoms: C_3  and  C_4 
REMARK    5  A    between atoms: C_4  and  C_5 
REMARK    6  A    between atoms: C_8  and  C_9 
REMARK    7  A    between atoms: C_11  and  O_15 
ROOT
HETATM    1  O   UNL     1      11.337   4.190  11.800  1.00  0.00    -0.395 OA
HETATM    2  H   UNL     1      10.764   4.238  12.582  1.00  0.00     0.210 HD
ENDROOT
BRANCH   1   3
HETATM    3  C   UNL     1      12.447   5.074  11.969  1.00  0.00     0.122 C 
BRANCH   3   4
HETATM    4  C   UNL     1      11.918   6.512  12.018  1.00  0.00     0.042 C 
BRANCH   4   5
HETATM    5  C   UNL     1      11.785   7.023  13.450  1.00  0.00     0.116 C 
BRANCH   5   6
HETATM    6  C   UNL     1      12.364   8.400  13.567  1.00  0.00     0.172 C 
HETATM    7  O   UNL     1      11.792   9.448  13.320  1.00  0.00    -0.648 OA
HETATM    8  O   UNL     1      13.631   8.398  14.023  1.00  0.00    -0.648 OA
ENDBRANCH   5   6
ENDBRANCH   4   5
ENDBRANCH   3   4
BRANCH   3   9
HETATM    9  C   UNL     1      13.465   4.906  10.827  1.00  0.00     0.070 C 
BRANCH   9  10
HETATM   10  C   UNL     1      14.877   5.251  11.240  1.00  0.00    -0.053 A 
HETATM   11  C   UNL     1      15.873   5.453  10.275  1.00  0.00     0.043 A 
HETATM   12  C   UNL     1      17.171   5.764  10.666  1.00  0.00     0.066 A 
HETATM   13  C   UNL     1      17.504   5.878  12.012  1.00  0.00     0.036 A 
HETATM   14  C   UNL     1      16.520   5.677  12.979  1.00  0.00     0.003 A 
HETATM   15  C   UNL     1      15.213   5.365  12.597  1.00  0.00     0.007 A 
BRANCH  12  16
HETATM   16  O   UNL     1      18.100   5.952   9.686  1.00  0.00    -0.361 OA
HETATM   17  H   UNL     1      18.970   6.217   9.909  1.00  0.00     0.217 HD
ENDBRANCH  12  16
ENDBRANCH   9  10
ENDBRANCH   3   9
ENDBRANCH   1   3
TORSDOF 7
ENDMDL
MODEL 3
REMARK VINA RESULT:      -6.5      2.985      6.653
REMARK  7 active torsions:
REMARK  status: ('A' for Active; 'I' for Inactive)
REMARK    1  A    between atoms: O_1  and  C_2 
REMARK    2  A    between atoms: C_2  and  C_3 
REMARK    3  A    between atoms: C_2  and  C_8 
REMARK    4  A    between atoms: C_3  and  C_4 
REMARK    5  A    between atoms: C_4  and  C_5 
REMARK    6  A    between atoms: C_8  and  C_9 
REMARK    7  A    between atoms: C_11  and  O_15 
ROOT
HETATM    1  O   UNL     1      10.894   7.287  14.574  1.00  0.00    -0.395 OA
HETATM    2  H   UNL     1      10.065   7.408  14.085  1.00  0.00     0.210 HD
ENDROOT
BRANCH   1   3
HETATM    3  C   UNL     1      11.998   7.618  13.729  1.00  0.00     0.122 C 
BRANCH   3   4
HETATM    4  C   UNL     1      11.825   9.064  13.253  1.00  0.00     0.042 C 
BRANCH   4   5
HETATM    5  C   UNL     1      12.639  10.044  14.093  1.00  0.00     0.116 C 
BRANCH   5   6
HETATM    6  C   UNL     1      12.406  11.449  13.627  1.00  0.00     0.172 C 
HETATM    7  O   UNL     1      13.076  12.426  13.915  1.00  0.00    -0.648 OA
HETATM    8  O   UNL     1      11.357  11.556  12.790  1.00  0.00    -0.648 OA
ENDBRANCH   5   6
ENDBRANCH   4   5
ENDBRANCH   3   4
BRANCH   3   9
HETATM    9  C   UNL     1      12.085   6.655  12.532  1.00  0.00     0.070 C 
BRANCH   9  10
HETATM   10  C   UNL     1      13.503   6.416  12.069  1.00  0.00    -0.053 A 
HETATM   11  C   UNL     1      13.761   5.643  10.929  1.00  0.00     0.043 A 
HETATM   12  C   UNL     1      15.071   5.423  10.516  1.00  0.00     0.066 A 
HETATM   13  C   UNL     1      16.142   5.961  11.221  1.00  0.00     0.036 A 
HETATM   14  C   UNL     1      15.895   6.729  12.358  1.00  0.00     0.003 A 
HETATM   15  C   UNL     1      14.584   6.956  12.781  1.00  0.00     0.007 A 
BRANCH  12  16
HETATM   16  O   UNL     1      15.263   4.665   9.398  1.00  0.00    -0.361 OA
HETATM   17  H   UNL     1      15.786   3.889   9.443  1.00  0.00     0.217 HD
ENDBRANCH  12  16
ENDBRANCH   9  10
ENDBRANCH   3   9
ENDBRANCH   1   3
TORSDOF 7
ENDMDL
MODEL 4
REMARK VINA RESULT:      -6.5      1.604      2.040
REMARK  7 active torsions:
REMARK  status: ('A' for Active; 'I' for Inactive)
REMARK    1  A    between atoms: O_1  and  C_2 
REMARK    2  A    between atoms: C_2  and  C_3 
REMARK    3  A    between atoms: C_2  and  C_8 
REMARK    4  A    between atoms: C_3  and  C_4 
REMARK    5  A    between atoms: C_4  and  C_5 
REMARK    6  A    between atoms: C_8  and  C_9 
REMARK    7  A    between atoms: C_11  and  O_15 
ROOT
HETATM    1  O   UNL     1      14.988   6.235   9.807  1.00  0.00    -0.395 OA
HETATM    2  H   UNL     1      15.098   7.019  10.368  1.00  0.00     0.210 HD
ENDROOT
BRANCH   1   3
HETATM    3  C   UNL     1      14.754   5.090  10.630  1.00  0.00     0.122 C 
BRANCH   3   4
HETATM    4  C   UNL     1      13.253   4.779  10.609  1.00  0.00     0.042 C 
BRANCH   4   5
HETATM    5  C   UNL     1      12.941   3.521   9.804  1.00  0.00     0.116 C 
BRANCH   5   6
HETATM    6  C   UNL     1      13.354   3.702   8.374  1.00  0.00     0.172 C 
HETATM    7  O   UNL     1      14.004   2.916   7.706  1.00  0.00    -0.648 OA
HETATM    8  O   UNL     1      12.898   4.850   7.838  1.00  0.00    -0.648 OA
ENDBRANCH   5   6
ENDBRANCH   4   5
ENDBRANCH   3   4
BRANCH   3   9
HETATM    9  C   UNL     1      15.240   5.335  12.069  1.00  0.00     0.070 C 
BRANCH   9  10
HETATM   10  C   UNL     1      14.266   6.149  12.890  1.00  0.00    -0.053 A 
HETATM   11  C   UNL     1      13.302   5.517  13.686  1.00  0.00     0.043 A 
HETATM   12  C   UNL     1      12.406   6.276  14.432  1.00  0.00     0.066 A 
HETATM   13  C   UNL     1      12.448   7.666  14.402  1.00  0.00     0.036 A 
HETATM   14  C   UNL     1      13.402   8.303  13.610  1.00  0.00     0.003 A 
HETATM   15  C   UNL     1      14.307   7.551  12.857  1.00  0.00     0.007 A 
BRANCH  12  16
HETATM   16  O   UNL     1      11.491   5.609  15.192  1.00  0.00    -0.361 OA
HETATM   17  H   UNL     1      10.583   5.837  15.140  1.00  0.00     0.217 HD
ENDBRANCH  12  16
ENDBRANCH   9  10
ENDBRANCH   3   9
ENDBRANCH   1   3
TORSDOF 7
ENDMDL
MODEL 5
REMARK VINA RESULT:      -6.3      2.769      6.710
REMARK  7 active torsions:
REMARK  status: ('A' for Active; 'I' for Inactive)
REMARK    1  A    between atoms: O_1  and  C_2 
REMARK    2  A    between atoms: C_2  and  C_3 
REMARK    3  A    between atoms: C_2  and  C_8 
REMARK    4  A    between atoms: C_3  and  C_4 
REMARK    5  A    between atoms: C_4  and  C_5 
REMARK    6  A    between atoms: C_8  and  C_9 
REMARK    7  A    between atoms: C_11  and  O_15 
ROOT
HETATM    1  O   UNL     1      13.258   7.774  15.303  1.00  0.00    -0.395 OA
HETATM    2  H   UNL     1      13.726   8.577  15.579  1.00  0.00     0.210 HD
ENDROOT
BRANCH   1   3
HETATM    3  C   UNL     1      13.039   7.813  13.891  1.00  0.00     0.122 C 
BRANCH   3   4
HETATM    4  C   UNL     1      12.205   9.057  13.565  1.00  0.00     0.042 C 
BRANCH   4   5
HETATM    5  C   UNL     1      12.752  10.306  14.250  1.00  0.00     0.116 C 
BRANCH   5   6
HETATM    6  C   UNL     1      12.287  11.538  13.535  1.00  0.00     0.172 C 
HETATM    7  O   UNL     1      11.349  11.613  12.760  1.00  0.00    -0.648 OA
HETATM    8  O   UNL     1      13.005  12.632  13.855  1.00  0.00    -0.648 OA
ENDBRANCH   5   6
ENDBRANCH   4   5
ENDBRANCH   3   4
BRANCH   3   9
HETATM    9  C   UNL     1      12.327   6.537  13.407  1.00  0.00     0.070 C 
BRANCH   9  10
HETATM   10  C   UNL     1      13.019   5.885  12.233  1.00  0.00    -0.053 A 
HETATM   11  C   UNL     1      12.339   4.961  11.428  1.00  0.00     0.043 A 
HETATM   12  C   UNL     1      12.988   4.362  10.353  1.00  0.00     0.066 A 
HETATM   13  C   UNL     1      14.313   4.664  10.059  1.00  0.00     0.036 A 
HETATM   14  C   UNL     1      14.998   5.580  10.856  1.00  0.00     0.003 A 
HETATM   15  C   UNL     1      14.356   6.188  11.938  1.00  0.00     0.007 A 
BRANCH  12  16
HETATM   16  O   UNL     1      12.278   3.472   9.601  1.00  0.00    -0.361 OA
HETATM   17  H   UNL     1      11.684   3.781   8.946  1.00  0.00     0.217 HD
ENDBRANCH  12  16
ENDBRANCH   9  10
ENDBRANCH   3   9
ENDBRANCH   1   3
TORSDOF 7
ENDMDL
MODEL 6
REMARK VINA RESULT:      -6.3      3.412      4.802
REMARK  7 active torsions:
REMARK  status: ('A' for Active; 'I' for Inactive)
REMARK    1  A    between atoms: O_1  and  C_2 
REMARK    2  A    between atoms: C_2  and  C_3 
REMARK    3  A    between atoms: C_2  and  C_8 
REMARK    4  A    between atoms: C_3  and  C_4 
REMARK    5  A    between atoms: C_4  and  C_5 
REMARK    6  A    between atoms: C_8  and  C_9 
REMARK    7  A    between atoms: C_11  and  O_15 
ROOT
HETATM    1  O   UNL     1      12.350   6.430  12.160  1.00  0.00    -0.395 OA
HETATM    2  H   UNL     1      12.220   6.168  13.085  1.00  0.00     0.210 HD
ENDROOT
BRANCH   1   3
HETATM    3  C   UNL     1      13.427   5.676  11.599  1.00  0.00     0.122 C 
BRANCH   3   4
HETATM    4  C   UNL     1      12.835   4.516  10.791  1.00  0.00     0.042 C 
BRANCH   4   5
HETATM    5  C   UNL     1      13.158   4.634   9.304  1.00  0.00     0.116 C 
BRANCH   5   6
HETATM    6  C   UNL     1      13.467   3.284   8.730  1.00  0.00     0.172 C 
HETATM    7  O   UNL     1      14.149   3.058   7.745  1.00  0.00    -0.648 OA
HETATM    8  O   UNL     1      12.930   2.276   9.443  1.00  0.00    -0.648 OA
ENDBRANCH   5   6
ENDBRANCH   4   5
ENDBRANCH   3   4
BRANCH   3   9
HETATM    9  C   UNL     1      14.365   5.151  12.700  1.00  0.00     0.070 C 
BRANCH   9  10
HETATM   10  C   UNL     1      15.818   5.475  12.440  1.00  0.00    -0.053 A 
HETATM   11  C   UNL     1      16.301   5.585  11.129  1.00  0.00     0.043 A 
HETATM   12  C   UNL     1      17.642   5.877  10.901  1.00  0.00     0.066 A 
HETATM   13  C   UNL     1      18.523   6.062  11.961  1.00  0.00     0.036 A 
HETATM   14  C   UNL     1      18.052   5.952  13.268  1.00  0.00     0.003 A 
HETATM   15  C   UNL     1      16.708   5.660  13.509  1.00  0.00     0.007 A 
BRANCH  12  16
HETATM   16  O   UNL     1      18.057   5.975   9.606  1.00  0.00    -0.361 OA
HETATM   17  H   UNL     1      18.368   5.215   9.155  1.00  0.00     0.217 HD
ENDBRANCH  12  16
ENDBRANCH   9  10
ENDBRANCH   3   9
ENDBRANCH   1   3
TORSDOF 7
ENDMDL
MODEL 7
REMARK VINA RESULT:      -6.2      4.102      5.392
REMARK  7 active torsions:
REMARK  status: ('A' for Active; 'I' for Inactive)
REMARK    1  A    between atoms: O_1  and  C_2 
REMARK    2  A    between atoms: C_2  and  C_3 
REMARK    3  A    between atoms: C_2  and  C_8 
REMARK    4  A    between atoms: C_3  and  C_4 
REMARK    5  A    between atoms: C_4  and  C_5 
REMARK    6  A    between atoms: C_8  and  C_9 
REMARK    7  A    between atoms: C_11  and  O_15 
ROOT
HETATM    1  O   UNL     1      14.951   6.629   9.665  1.00  0.00    -0.395 OA
HETATM    2  H   UNL     1      15.829   7.019   9.537  1.00  0.00     0.210 HD
ENDROOT
BRANCH   1   3
HETATM    3  C   UNL     1      15.035   5.565  10.616  1.00  0.00     0.122 C 
BRANCH   3   4
HETATM    4  C   UNL     1      13.728   4.766  10.565  1.00  0.00     0.042 C 
BRANCH   4   5
HETATM    5  C   UNL     1      13.219   4.595   9.137  1.00  0.00     0.116 C 
BRANCH   5   6
HETATM    6  C   UNL     1      13.511   3.210   8.642  1.00  0.00     0.172 C 
HETATM    7  O   UNL     1      14.188   2.918   7.672  1.00  0.00    -0.648 OA
HETATM    8  O   UNL     1      12.964   2.252   9.415  1.00  0.00    -0.648 OA
ENDBRANCH   5   6
ENDBRANCH   4   5
ENDBRANCH   3   4
BRANCH   3   9
HETATM    9  C   UNL     1      15.287   6.109  12.033  1.00  0.00     0.070 C 
BRANCH   9  10
HETATM   10  C   UNL     1      16.705   5.887  12.506  1.00  0.00    -0.053 A 
HETATM   11  C   UNL     1      17.762   5.821  11.589  1.00  0.00     0.043 A 
HETATM   12  C   UNL     1      19.062   5.609  12.035  1.00  0.00     0.066 A 
HETATM   13  C   UNL     1      19.337   5.457  13.391  1.00  0.00     0.036 A 
HETATM   14  C   UNL     1      18.291   5.519  14.310  1.00  0.00     0.003 A 
HETATM   15  C   UNL     1      16.981   5.732  13.873  1.00  0.00     0.007 A 
BRANCH  12  16
HETATM   16  O   UNL     1      20.052   5.556  11.099  1.00  0.00    -0.361 OA
HETATM   17  H   UNL     1      19.927   5.065  10.311  1.00  0.00     0.217 HD
ENDBRANCH  12  16
ENDBRANCH   9  10
ENDBRANCH   3   9
ENDBRANCH   1   3
TORSDOF 7
ENDMDL
MODEL 8
REMARK VINA RESULT:      -6.1      2.307      2.656
REMARK  7 active torsions:
REMARK  status: ('A' for Active; 'I' for Inactive)
REMARK    1  A    between atoms: O_1  and  C_2 
REMARK    2  A    between atoms: C_2  and  C_3 
REMARK    3  A    between atoms: C_2  and  C_8 
REMARK    4  A    between atoms: C_3  and  C_4 
REMARK    5  A    between atoms: C_4  and  C_5 
REMARK    6  A    between atoms: C_8  and  C_9 
REMARK    7  A    between atoms: C_11  and  O_15 
ROOT
HETATM    1  O   UNL     1      12.186   3.706  10.721  1.00  0.00    -0.395 OA
HETATM    2  H   UNL     1      11.404   3.883  10.176  1.00  0.00     0.210 HD
ENDROOT
BRANCH   1   3
HETATM    3  C   UNL     1      12.800   4.943  11.090  1.00  0.00     0.122 C 
BRANCH   3   4
HETATM    4  C   UNL     1      14.062   5.128  10.241  1.00  0.00     0.042 C 
BRANCH   4   5
HETATM    5  C   UNL     1      15.332   5.069  11.085  1.00  0.00     0.116 C 
BRANCH   5   6
HETATM    6  C   UNL     1      16.209   6.248  10.790  1.00  0.00     0.172 C 
HETATM    7  O   UNL     1      15.861   7.416  10.758  1.00  0.00    -0.648 OA
HETATM    8  O   UNL     1      17.495   5.905  10.583  1.00  0.00    -0.648 OA
ENDBRANCH   5   6
ENDBRANCH   4   5
ENDBRANCH   3   4
BRANCH   3   9
HETATM    9  C   UNL     1      13.143   4.963  12.590  1.00  0.00     0.070 C 
BRANCH   9  10
HETATM   10  C   UNL     1      12.640   6.202  13.293  1.00  0.00    -0.053 A 
HETATM   11  C   UNL     1      12.245   6.149  14.636  1.00  0.00     0.043 A 
HETATM   12  C   UNL     1      11.777   7.294  15.272  1.00  0.00     0.066 A 
HETATM   13  C   UNL     1      11.690   8.505  14.592  1.00  0.00     0.036 A 
HETATM   14  C   UNL     1      12.078   8.566  13.255  1.00  0.00     0.003 A 
HETATM   15  C   UNL     1      12.550   7.422  12.607  1.00  0.00     0.007 A 
BRANCH  12  16
HETATM   16  O   UNL     1      11.409   7.186  16.581  1.00  0.00    -0.361 OA
HETATM   17  H   UNL     1      11.376   7.949  17.123  1.00  0.00     0.217 HD
ENDBRANCH  12  16
ENDBRANCH   9  10
ENDBRANCH   3   9
ENDBRANCH   1   3
TORSDOF 7
ENDMDL
MODEL 9
REMARK VINA RESULT:      -6.1      2.071      5.715
REMARK  7 active torsions:
REMARK  status: ('A' for Active; 'I' for Inactive)
REMARK    1  A    between atoms: O_1  and  C_2 
REMARK    2  A    between atoms: C_2  and  C_3 
REMARK    3  A    between atoms: C_2  and  C_8 
REMARK    4  A    between atoms: C_3  and  C_4 
REMARK    5  A    between atoms: C_4  and  C_5 
REMARK    6  A    between atoms: C_8  and  C_9 
REMARK    7  A    between atoms: C_11  and  O_15 
ROOT
HETATM    1  O   UNL     1      13.411   4.965  16.471  1.00  0.00    -0.395 OA
HETATM    2  H   UNL     1      12.539   5.028  16.891  1.00  0.00     0.210 HD
ENDROOT
BRANCH   1   3
HETATM    3  C   UNL     1      13.339   5.484  15.141  1.00  0.00     0.122 C 
BRANCH   3   4
HETATM    4  C   UNL     1      12.405   6.699  15.147  1.00  0.00     0.042 C 
BRANCH   4   5
HETATM    5  C   UNL     1      13.043   7.913  14.479  1.00  0.00     0.116 C 
BRANCH   5   6
HETATM    6  C   UNL     1      12.118   8.487  13.448  1.00  0.00     0.172 C 
HETATM    7  O   UNL     1      11.791   9.656  13.343  1.00  0.00    -0.648 OA
HETATM    8  O   UNL     1      11.673   7.565  12.573  1.00  0.00    -0.648 OA
ENDBRANCH   5   6
ENDBRANCH   4   5
ENDBRANCH   3   4
BRANCH   3   9
HETATM    9  C   UNL     1      12.834   4.413  14.159  1.00  0.00     0.070 C 
BRANCH   9  10
HETATM   10  C   UNL     1      13.370   4.598  12.758  1.00  0.00    -0.053 A 
HETATM   11  C   UNL     1      12.602   4.231  11.645  1.00  0.00     0.043 A 
HETATM   12  C   UNL     1      13.108   4.400  10.361  1.00  0.00     0.066 A 
HETATM   13  C   UNL     1      14.378   4.930  10.157  1.00  0.00     0.036 A 
HETATM   14  C   UNL     1      15.150   5.295  11.258  1.00  0.00     0.003 A 
HETATM   15  C   UNL     1      14.651   5.130  12.553  1.00  0.00     0.007 A 
BRANCH  12  16
HETATM   16  O   UNL     1      12.316   4.028   9.314  1.00  0.00    -0.361 OA
HETATM   17  H   UNL     1      12.573   3.316   8.763  1.00  0.00     0.217 HD
ENDBRANCH  12  16
ENDBRANCH   9  10
ENDBRANCH   3   9
ENDBRANCH   1   3
TORSDOF 7
ENDMDL
