MODEL 1
REMARK VINA RESULT:      -6.5      0.000      0.000
REMARK  7 active torsions:
REMARK  status: ('A' for Active; 'I' for Inactive)
REMARK    1  A    between atoms: O_1  and  C_2 
REMARK    2  A    between atoms: C_2  and  C_3 
REMARK    3  A    between atoms: C_2  and  C_8 
REMARK    4  A    between atoms: C_3  and  C_4 
REMARK    5  A    between atoms: C_4  and  C_5 
REMARK    6  A    between atoms: C_8  and  C_9 
REMARK    7  A    between atoms: C_11  and  O_15 
ROOT
HETATM    1  O   UNL     1      11.394   2.835  12.629  1.00  0.00    -0.395 OA
HETATM    2  H   UNL     1      11.062   3.141  13.488  1.00  0.00     0.210 HD
ENDROOT
BRANCH   1   3
HETATM    3  C   UNL     1      12.069   3.909  11.971  1.00  0.00     0.122 C 
BRANCH   3   4
HETATM    4  C   UNL     1      12.768   3.349  10.727  1.00  0.00     0.042 C 
BRANCH   4   5
HETATM    5  C   UNL     1      13.542   4.427   9.973  1.00  0.00     0.116 C 
BRANCH   5   6
HETATM    6  C   UNL     1      13.306   4.302   8.498  1.00  0.00     0.172 C 
HETATM    7  O   UNL     1      12.632   5.048   7.809  1.00  0.00    -0.648 OA
HETATM    8  O   UNL     1      13.960   3.261   7.949  1.00  0.00    -0.648 OA
ENDBRANCH   5   6
ENDBRANCH   4   5
ENDBRANCH   3   4
BRANCH   3   9
HETATM    9  C   UNL     1      13.085   4.581  12.911  1.00  0.00     0.070 C 
BRANCH   9  10
HETATM   10  C   UNL     1      12.605   5.912  13.442  1.00  0.00    -0.053 A 
HETATM   11  C   UNL     1      12.186   6.040  14.773  1.00  0.00     0.043 A 
HETATM   12  C   UNL     1      11.740   7.268  15.250  1.00  0.00     0.066 A 
HETATM   13  C   UNL     1      11.700   8.385  14.421  1.00  0.00     0.036 A 
HETATM   14  C   UNL     1      12.112   8.266  13.095  1.00  0.00     0.003 A 
HETATM   15  C   UNL     1      12.563   7.038  12.606  1.00  0.00     0.007 A 
BRANCH  12  16
HETATM   16  O   UNL     1      11.346   7.336  16.554  1.00  0.00    -0.361 OA
HETATM   17  H   UNL     1      10.953   6.591  16.964  1.00  0.00     0.217 HD
ENDBRANCH  12  16
ENDBRANCH   9  10
ENDBRANCH   3   9
ENDBRANCH   1   3
TORSDOF 7
ENDMDL
MODEL 2
REMARK VINA RESULT:      -6.4      2.951      5.576
REMARK  7 active torsions:
REMARK  status: ('A' for Active; 'I' for Inactive)
REMARK    1  A    between atoms: O_1  and  C_2 
REMARK    2  A    between atoms: C_2  and  C_3 
REMARK    3  A    between atoms: C_2  and  C_8 
REMARK    4  A    between atoms: C_3  and  C_4 
REMARK    5  A    between atoms: C_4  and  C_5 
REMARK    6  A    between atoms: C_8  and  C_9 
REMARK    7  A    between atoms: C_11  and  O_15 
ROOT
HETATM    1  O   UNL     1      11.419   4.075  11.920  1.00  0.00    -0.395 OA
HETATM    2  H   UNL     1      11.783   3.208  12.158  1.00  0.00     0.210 HD
ENDROOT
BRANCH   1   3
HETATM    3  C   UNL     1      12.445   5.065  12.012  1.00  0.00     0.122 C 
BRANCH   3   4
HETATM    4  C   UNL     1      11.786   6.448  11.996  1.00  0.00     0.042 C 
BRANCH   4   5
HETATM    5  C   UNL     1      11.678   7.046  13.395  1.00  0.00     0.116 C 
BRANCH   5   6
HETATM    6  C   UNL     1      12.347   8.387  13.442  1.00  0.00     0.172 C 
HETATM    7  O   UNL     1      11.805   9.469  13.295  1.00  0.00    -0.648 OA
HETATM    8  O   UNL     1      13.664   8.306  13.708  1.00  0.00    -0.648 OA
ENDBRANCH   5   6
ENDBRANCH   4   5
ENDBRANCH   3   4
BRANCH   3   9
HETATM    9  C   UNL     1      13.450   4.926  10.854  1.00  0.00     0.070 C 
BRANCH   9  10
HETATM   10  C   UNL     1      14.867   5.260  11.260  1.00  0.00    -0.053 A 
HETATM   11  C   UNL     1      15.861   5.448  10.291  1.00  0.00     0.043 A 
HETATM   12  C   UNL     1      17.164   5.749  10.677  1.00  0.00     0.066 A 
HETATM   13  C   UNL     1      17.503   5.867  12.021  1.00  0.00     0.036 A 
HETATM   14  C   UNL     1      16.520   5.679  12.991  1.00  0.00     0.003 A 
HETATM   15  C   UNL     1      15.209   5.377  12.616  1.00  0.00     0.007 A 
BRANCH  12  16
HETATM   16  O   UNL     1      18.091   5.924   9.692  1.00  0.00    -0.361 OA
HETATM   17  H   UNL     1      18.964   6.181   9.911  1.00  0.00     0.217 HD
ENDBRANCH  12  16
ENDBRANCH   9  10
ENDBRANCH   3   9
ENDBRANCH   1   3
TORSDOF 7
ENDMDL
MODEL 3
REMARK VINA RESULT:      -6.4      3.037      6.302
REMARK  7 active torsions:
REMARK  status: ('A' for Active; 'I' for Inactive)
REMARK    1  A    between atoms: O_1  and  C_2 
REMARK    2  A    between atoms: C_2  and  C_3 
REMARK    3  A    between atoms: C_2  and  C_8 
REMARK    4  A    between atoms: C_3  and  C_4 
REMARK    5  A    between atoms: C_4  and  C_5 
REMARK    6  A    between atoms: C_8  and  C_9 
REMARK    7  A    between atoms: C_11  and  O_15 
ROOT
HETATM    1  O   UNL     1      11.093   6.960  14.378  1.00  0.00    -0.395 OA
HETATM    2  H   UNL     1      11.438   6.551  15.187  1.00  0.00     0.210 HD
ENDROOT
BRANCH   1   3
HETATM    3  C   UNL     1      12.177   7.496  13.616  1.00  0.00     0.122 C 
BRANCH   3   4
HETATM    4  C   UNL     1      11.845   8.950  13.262  1.00  0.00     0.042 C 
BRANCH   4   5
HETATM    5  C   UNL     1      12.672   9.940  14.079  1.00  0.00     0.116 C 
BRANCH   5   6
HETATM    6  C   UNL     1      12.404  11.342  13.624  1.00  0.00     0.172 C 
HETATM    7  O   UNL     1      13.046  12.334  13.925  1.00  0.00    -0.648 OA
HETATM    8  O   UNL     1      11.357  11.429  12.782  1.00  0.00    -0.648 OA
ENDBRANCH   5   6
ENDBRANCH   4   5
ENDBRANCH   3   4
BRANCH   3   9
HETATM    9  C   UNL     1      12.420   6.667  12.343  1.00  0.00     0.070 C 
BRANCH   9  10
HETATM   10  C   UNL     1      13.873   6.305  12.144  1.00  0.00    -0.053 A 
HETATM   11  C   UNL     1      14.327   5.830  10.906  1.00  0.00     0.043 A 
HETATM   12  C   UNL     1      15.666   5.494  10.735  1.00  0.00     0.066 A 
HETATM   13  C   UNL     1      16.574   5.620  11.782  1.00  0.00     0.036 A 
HETATM   14  C   UNL     1      16.131   6.090  13.017  1.00  0.00     0.003 A 
HETATM   15  C   UNL     1      14.788   6.431  13.199  1.00  0.00     0.007 A 
BRANCH  12  16
HETATM   16  O   UNL     1      16.054   5.039   9.509  1.00  0.00    -0.361 OA
HETATM   17  H   UNL     1      15.414   4.892   8.841  1.00  0.00     0.217 HD
ENDBRANCH  12  16
ENDBRANCH   9  10
ENDBRANCH   3   9
ENDBRANCH   1   3
TORSDOF 7
ENDMDL
MODEL 4
REMARK VINA RESULT:      -6.3      1.575      2.192
REMARK  7 active torsions:
REMARK  status: ('A' for Active; 'I' for Inactive)
REMARK    1  A    between atoms: O_1  and  C_2 
REMARK    2  A    between atoms: C_2  and  C_3 
REMARK    3  A    between atoms: C_2  and  C_8 
REMARK    4  A    between atoms: C_3  and  C_4 
REMARK    5  A    between atoms: C_4  and  C_5 
REMARK    6  A    between atoms: C_8  and  C_9 
REMARK    7  A    between atoms: C_11  and  O_15 
ROOT
HETATM    1  O   UNL     1      15.028   6.268   9.849  1.00  0.00    -0.395 OA
HETATM    2  H   UNL     1      14.457   7.002  10.125  1.00  0.00     0.210 HD
ENDROOT
BRANCH   1   3
HETATM    3  C   UNL     1      14.797   5.141  10.696  1.00  0.00     0.122 C 
BRANCH   3   4
HETATM    4  C   UNL     1      13.300   4.817  10.672  1.00  0.00     0.042 C 
BRANCH   4   5
HETATM    5  C   UNL     1      12.994   3.592   9.814  1.00  0.00     0.116 C 
BRANCH   5   6
HETATM    6  C   UNL     1      13.223   3.900   8.365  1.00  0.00     0.172 C 
HETATM    7  O   UNL     1      12.885   4.916   7.781  1.00  0.00    -0.648 OA
HETATM    8  O   UNL     1      13.899   2.928   7.724  1.00  0.00    -0.648 OA
ENDBRANCH   5   6
ENDBRANCH   4   5
ENDBRANCH   3   4
BRANCH   3   9
HETATM    9  C   UNL     1      15.270   5.424  12.133  1.00  0.00     0.070 C 
BRANCH   9  10
HETATM   10  C   UNL     1      14.266   6.214  12.940  1.00  0.00    -0.053 A 
HETATM   11  C   UNL     1      13.299   5.558  13.714  1.00  0.00     0.043 A 
HETATM   12  C   UNL     1      12.375   6.295  14.447  1.00  0.00     0.066 A 
HETATM   13  C   UNL     1      12.390   7.685  14.426  1.00  0.00     0.036 A 
HETATM   14  C   UNL     1      13.347   8.346  13.657  1.00  0.00     0.003 A 
HETATM   15  C   UNL     1      14.280   7.616  12.916  1.00  0.00     0.007 A 
BRANCH  12  16
HETATM   16  O   UNL     1      11.458   5.605  15.185  1.00  0.00    -0.361 OA
HETATM   17  H   UNL     1      11.396   5.749  16.109  1.00  0.00     0.217 HD
ENDBRANCH  12  16
ENDBRANCH   9  10
ENDBRANCH   3   9
ENDBRANCH   1   3
TORSDOF 7
ENDMDL
MODEL 5
REMARK VINA RESULT:      -6.2      2.337      2.629
REMARK  7 active torsions:
REMARK  status: ('A' for Active; 'I' for Inactive)
REMARK    1  A    between atoms: O_1  and  C_2 
REMARK    2  A    between atoms: C_2  and  C_3 
REMARK    3  A    between atoms: C_2  and  C_8 
REMARK    4  A    between atoms: C_3  and  C_4 
REMARK    5  A    between atoms: C_4  and  C_5 
REMARK    6  A    between atoms: C_8  and  C_9 
REMARK    7  A    between atoms: C_11  and  O_15 
ROOT
HETATM    1  O   UNL     1      12.249   3.896  10.320  1.00  0.00    -0.395 OA
HETATM    2  H   UNL     1      12.782   3.455   9.641  1.00  0.00     0.210 HD
ENDROOT
BRANCH   1   3
HETATM    3  C   UNL     1      13.016   4.939  10.925  1.00  0.00     0.122 C 
BRANCH   3   4
HETATM    4  C   UNL     1      14.437   4.887  10.354  1.00  0.00     0.042 C 
BRANCH   4   5
HETATM    5  C   UNL     1      15.486   5.261  11.397  1.00  0.00     0.116 C 
BRANCH   5   6
HETATM    6  C   UNL     1      16.521   6.163  10.796  1.00  0.00     0.172 C 
HETATM    7  O   UNL     1      17.588   5.818  10.317  1.00  0.00    -0.648 OA
HETATM    8  O   UNL     1      16.151   7.457  10.793  1.00  0.00    -0.648 OA
ENDBRANCH   5   6
ENDBRANCH   4   5
ENDBRANCH   3   4
BRANCH   3   9
HETATM    9  C   UNL     1      13.037   4.792  12.456  1.00  0.00     0.070 C 
BRANCH   9  10
HETATM   10  C   UNL     1      12.571   6.037  13.175  1.00  0.00    -0.053 A 
HETATM   11  C   UNL     1      12.241   5.993  14.536  1.00  0.00     0.043 A 
HETATM   12  C   UNL     1      11.807   7.144  15.186  1.00  0.00     0.066 A 
HETATM   13  C   UNL     1      11.692   8.350  14.504  1.00  0.00     0.036 A 
HETATM   14  C   UNL     1      12.015   8.402  13.149  1.00  0.00     0.003 A 
HETATM   15  C   UNL     1      12.453   7.253  12.486  1.00  0.00     0.007 A 
BRANCH  12  16
HETATM   16  O   UNL     1      11.502   7.045  16.512  1.00  0.00    -0.361 OA
HETATM   17  H   UNL     1      11.106   6.264  16.845  1.00  0.00     0.217 HD
ENDBRANCH  12  16
ENDBRANCH   9  10
ENDBRANCH   3   9
ENDBRANCH   1   3
TORSDOF 7
ENDMDL
MODEL 6
REMARK VINA RESULT:      -6.2      1.918      5.753
REMARK  7 active torsions:
REMARK  status: ('A' for Active; 'I' for Inactive)
REMARK    1  A    between atoms: O_1  and  C_2 
REMARK    2  A    between atoms: C_2  and  C_3 
REMARK    3  A    between atoms: C_2  and  C_8 
REMARK    4  A    between atoms: C_3  and  C_4 
REMARK    5  A    between atoms: C_4  and  C_5 
REMARK    6  A    between atoms: C_8  and  C_9 
REMARK    7  A    between atoms: C_11  and  O_15 
ROOT
HETATM    1  O   UNL     1      11.515   5.745  15.075  1.00  0.00    -0.395 OA
HETATM    2  H   UNL     1      11.757   4.966  15.599  1.00  0.00     0.210 HD
ENDROOT
BRANCH   1   3
HETATM    3  C   UNL     1      12.500   5.962  14.062  1.00  0.00     0.122 C 
BRANCH   3   4
HETATM    4  C   UNL     1      11.945   6.979  13.058  1.00  0.00     0.042 C 
BRANCH   4   5
HETATM    5  C   UNL     1      12.815   8.229  12.972  1.00  0.00     0.116 C 
BRANCH   5   6
HETATM    6  C   UNL     1      12.307   9.283  13.910  1.00  0.00     0.172 C 
HETATM    7  O   UNL     1      12.700  10.434  13.983  1.00  0.00    -0.648 OA
HETATM    8  O   UNL     1      11.301   8.847  14.691  1.00  0.00    -0.648 OA
ENDBRANCH   5   6
ENDBRANCH   4   5
ENDBRANCH   3   4
BRANCH   3   9
HETATM    9  C   UNL     1      12.867   4.644  13.358  1.00  0.00     0.070 C 
BRANCH   9  10
HETATM   10  C   UNL     1      13.822   4.838  12.204  1.00  0.00    -0.053 A 
HETATM   11  C   UNL     1      13.418   4.570  10.889  1.00  0.00     0.043 A 
HETATM   12  C   UNL     1      14.308   4.746   9.835  1.00  0.00     0.066 A 
HETATM   13  C   UNL     1      15.608   5.186  10.062  1.00  0.00     0.036 A 
HETATM   14  C   UNL     1      16.020   5.453  11.367  1.00  0.00     0.003 A 
HETATM   15  C   UNL     1      15.134   5.280  12.433  1.00  0.00     0.007 A 
BRANCH  12  16
HETATM   16  O   UNL     1      13.860   4.473   8.576  1.00  0.00    -0.361 OA
HETATM   17  H   UNL     1      14.241   3.771   8.085  1.00  0.00     0.217 HD
ENDBRANCH  12  16
ENDBRANCH   9  10
ENDBRANCH   3   9
ENDBRANCH   1   3
TORSDOF 7
ENDMDL
MODEL 7
REMARK VINA RESULT:      -6.1      2.796      4.304
REMARK  7 active torsions:
REMARK  status: ('A' for Active; 'I' for Inactive)
REMARK    1  A    between atoms: O_1  and  C_2 
REMARK    2  A    between atoms: C_2  and  C_3 
REMARK    3  A    between atoms: C_2  and  C_8 
REMARK    4  A    between atoms: C_3  and  C_4 
REMARK    5  A    between atoms: C_4  and  C_5 
REMARK    6  A    between atoms: C_8  and  C_9 
REMARK    7  A    between atoms: C_11  and  O_15 
ROOT
HETATM    1  O   UNL     1      11.355   5.737  11.842  1.00  0.00    -0.395 OA
HETATM    2  H   UNL     1      10.715   5.201  11.347  1.00  0.00     0.210 HD
ENDROOT
BRANCH   1   3
HETATM    3  C   UNL     1      12.681   5.321  11.511  1.00  0.00     0.122 C 
BRANCH   3   4
HETATM    4  C   UNL     1      12.591   4.051  10.659  1.00  0.00     0.042 C 
BRANCH   4   5
HETATM    5  C   UNL     1      12.954   4.315   9.200  1.00  0.00     0.116 C 
BRANCH   5   6
HETATM    6  C   UNL     1      13.577   3.096   8.589  1.00  0.00     0.172 C 
HETATM    7  O   UNL     1      14.358   3.077   7.654  1.00  0.00    -0.648 OA
HETATM    8  O   UNL     1      13.213   1.956   9.207  1.00  0.00    -0.648 OA
ENDBRANCH   5   6
ENDBRANCH   4   5
ENDBRANCH   3   4
BRANCH   3   9
HETATM    9  C   UNL     1      13.512   5.067  12.782  1.00  0.00     0.070 C 
BRANCH   9  10
HETATM   10  C   UNL     1      14.981   5.368  12.595  1.00  0.00    -0.053 A 
HETATM   11  C   UNL     1      15.539   5.433  11.312  1.00  0.00     0.043 A 
HETATM   12  C   UNL     1      16.894   5.704  11.152  1.00  0.00     0.066 A 
HETATM   13  C   UNL     1      17.716   5.912  12.254  1.00  0.00     0.036 A 
HETATM   14  C   UNL     1      17.170   5.847  13.535  1.00  0.00     0.003 A 
HETATM   15  C   UNL     1      15.811   5.576  13.707  1.00  0.00     0.007 A 
BRANCH  12  16
HETATM   16  O   UNL     1      17.383   5.758   9.880  1.00  0.00    -0.361 OA
HETATM   17  H   UNL     1      18.182   6.215   9.704  1.00  0.00     0.217 HD
ENDBRANCH  12  16
ENDBRANCH   9  10
ENDBRANCH   3   9
ENDBRANCH   1   3
TORSDOF 7
ENDMDL
MODEL 8
REMARK VINA RESULT:      -6.1      3.856      5.253
REMARK  7 active torsions:
REMARK  status: ('A' for Active; 'I' for Inactive)
REMARK    1  A    between atoms: O_1  and  C_2 
REMARK    2  A    between atoms: C_2  and  C_3 
REMARK    3  A    between atoms: C_2  and  C_8 
REMARK    4  A    between atoms: C_3  and  C_4 
REMARK    5  A    between atoms: C_4  and  C_5 
REMARK    6  A    between atoms: C_8  and  C_9 
REMARK    7  A    between atoms: C_11  and  O_15 
ROOT
HETATM    1  O   UNL     1      14.958   6.168   9.577  1.00  0.00    -0.395 OA
HETATM    2  H   UNL     1      14.356   6.927   9.618  1.00  0.00     0.210 HD
ENDROOT
BRANCH   1   3
HETATM    3  C   UNL     1      14.767   5.346  10.730  1.00  0.00     0.122 C 
BRANCH   3   4
HETATM    4  C   UNL     1      13.310   4.873  10.752  1.00  0.00     0.042 C 
BRANCH   4   5
HETATM    5  C   UNL     1      13.107   3.607   9.923  1.00  0.00     0.116 C 
BRANCH   5   6
HETATM    6  C   UNL     1      13.226   3.917   8.462  1.00  0.00     0.172 C 
HETATM    7  O   UNL     1      12.760   4.887   7.889  1.00  0.00    -0.648 OA
HETATM    8  O   UNL     1      13.957   3.006   7.791  1.00  0.00    -0.648 OA
ENDBRANCH   5   6
ENDBRANCH   4   5
ENDBRANCH   3   4
BRANCH   3   9
HETATM    9  C   UNL     1      15.110   6.115  12.018  1.00  0.00     0.070 C 
BRANCH   9  10
HETATM   10  C   UNL     1      16.534   5.894  12.475  1.00  0.00    -0.053 A 
HETATM   11  C   UNL     1      17.582   5.850  11.547  1.00  0.00     0.043 A 
HETATM   12  C   UNL     1      18.888   5.640  11.978  1.00  0.00     0.066 A 
HETATM   13  C   UNL     1      19.177   5.469  13.328  1.00  0.00     0.036 A 
HETATM   14  C   UNL     1      18.139   5.509  14.258  1.00  0.00     0.003 A 
HETATM   15  C   UNL     1      16.824   5.720  13.836  1.00  0.00     0.007 A 
BRANCH  12  16
HETATM   16  O   UNL     1      19.870   5.608  11.032  1.00  0.00    -0.361 OA
HETATM   17  H   UNL     1      19.687   5.269  10.178  1.00  0.00     0.217 HD
ENDBRANCH  12  16
ENDBRANCH   9  10
ENDBRANCH   3   9
ENDBRANCH   1   3
TORSDOF 7
ENDMDL
MODEL 9
REMARK VINA RESULT:      -5.9      1.616      2.294
REMARK  7 active torsions:
REMARK  status: ('A' for Active; 'I' for Inactive)
REMARK    1  A    between atoms: O_1  and  C_2 
REMARK    2  A    between atoms: C_2  and  C_3 
REMARK    3  A    between atoms: C_2  and  C_8 
REMARK    4  A    between atoms: C_3  and  C_4 
REMARK    5  A    between atoms: C_4  and  C_5 
REMARK    6  A    between atoms: C_8  and  C_9 
REMARK    7  A    between atoms: C_11  and  O_15 
ROOT
HETATM    1  O   UNL     1      11.196   4.831  11.591  1.00  0.00    -0.395 OA
HETATM    2  H   UNL     1      10.621   5.026  12.347  1.00  0.00     0.210 HD
ENDROOT
BRANCH   1   3
HETATM    3  C   UNL     1      12.553   5.118  11.939  1.00  0.00     0.122 C 
BRANCH   3   4
HETATM    4  C   UNL     1      13.423   4.914  10.694  1.00  0.00     0.042 C 
BRANCH   4   5
HETATM    5  C   UNL     1      13.051   3.642   9.939  1.00  0.00     0.116 C 
BRANCH   5   6
HETATM    6  C   UNL     1      13.322   3.808   8.474  1.00  0.00     0.172 C 
HETATM    7  O   UNL     1      13.909   3.018   7.754  1.00  0.00    -0.648 OA
HETATM    8  O   UNL     1      12.810   4.947   7.972  1.00  0.00    -0.648 OA
ENDBRANCH   5   6
ENDBRANCH   4   5
ENDBRANCH   3   4
BRANCH   3   9
HETATM    9  C   UNL     1      13.029   4.216  13.091  1.00  0.00     0.070 C 
BRANCH   9  10
HETATM   10  C   UNL     1      13.466   4.996  14.309  1.00  0.00    -0.053 A 
HETATM   11  C   UNL     1      12.532   5.712  15.071  1.00  0.00     0.043 A 
HETATM   12  C   UNL     1      12.947   6.432  16.186  1.00  0.00     0.066 A 
HETATM   13  C   UNL     1      14.286   6.459  16.563  1.00  0.00     0.036 A 
HETATM   14  C   UNL     1      15.221   5.752  15.810  1.00  0.00     0.003 A 
HETATM   15  C   UNL     1      14.816   5.025  14.688  1.00  0.00     0.007 A 
BRANCH  12  16
HETATM   16  O   UNL     1      11.996   7.109  16.892  1.00  0.00    -0.361 OA
HETATM   17  H   UNL     1      11.830   6.886  17.787  1.00  0.00     0.217 HD
ENDBRANCH  12  16
ENDBRANCH   9  10
ENDBRANCH   3   9
ENDBRANCH   1   3
TORSDOF 7
ENDMDL
