MODEL 1
REMARK VINA RESULT:      -6.5      0.000      0.000
REMARK  7 active torsions:
REMARK  status: ('A' for Active; 'I' for Inactive)
REMARK    1  A    between atoms: O_1  and  C_2 
REMARK    2  A    between atoms: C_2  and  C_3 
REMARK    3  A    between atoms: C_2  and  C_8 
REMARK    4  A    between atoms: C_3  and  C_4 
REMARK    5  A    between atoms: C_4  and  C_5 
REMARK    6  A    between atoms: C_8  and  C_9 
REMARK    7  A    between atoms: C_11  and  O_15 
ROOT
HETATM    1  O   UNL     1      11.459   2.829  12.770  1.00  0.00    -0.395 OA
HETATM    2  H   UNL     1      10.748   2.432  12.243  1.00  0.00     0.210 HD
ENDROOT
BRANCH   1   3
HETATM    3  C   UNL     1      12.060   3.896  12.033  1.00  0.00     0.122 C 
BRANCH   3   4
HETATM    4  C   UNL     1      12.692   3.312  10.765  1.00  0.00     0.042 C 
BRANCH   4   5
HETATM    5  C   UNL     1      13.586   4.323  10.055  1.00  0.00     0.116 C 
BRANCH   5   6
HETATM    6  C   UNL     1      13.392   4.239   8.571  1.00  0.00     0.172 C 
HETATM    7  O   UNL     1      12.701   4.978   7.890  1.00  0.00    -0.648 OA
HETATM    8  O   UNL     1      14.104   3.246   8.005  1.00  0.00    -0.648 OA
ENDBRANCH   5   6
ENDBRANCH   4   5
ENDBRANCH   3   4
BRANCH   3   9
HETATM    9  C   UNL     1      13.115   4.627  12.882  1.00  0.00     0.070 C 
BRANCH   9  10
HETATM   10  C   UNL     1      12.621   5.946  13.429  1.00  0.00    -0.053 A 
HETATM   11  C   UNL     1      12.192   6.051  14.759  1.00  0.00     0.043 A 
HETATM   12  C   UNL     1      11.733   7.269  15.250  1.00  0.00     0.066 A 
HETATM   13  C   UNL     1      11.689   8.397  14.437  1.00  0.00     0.036 A 
HETATM   14  C   UNL     1      12.112   8.301  13.113  1.00  0.00     0.003 A 
HETATM   15  C   UNL     1      12.575   7.083  12.609  1.00  0.00     0.007 A 
BRANCH  12  16
HETATM   16  O   UNL     1      11.330   7.315  16.552  1.00  0.00    -0.361 OA
HETATM   17  H   UNL     1      10.693   7.946  16.824  1.00  0.00     0.217 HD
ENDBRANCH  12  16
ENDBRANCH   9  10
ENDBRANCH   3   9
ENDBRANCH   1   3
TORSDOF 7
ENDMDL
MODEL 2
REMARK VINA RESULT:      -6.4      2.885      5.589
REMARK  7 active torsions:
REMARK  status: ('A' for Active; 'I' for Inactive)
REMARK    1  A    between atoms: O_1  and  C_2 
REMARK    2  A    between atoms: C_2  and  C_3 
REMARK    3  A    between atoms: C_2  and  C_8 
REMARK    4  A    between atoms: C_3  and  C_4 
REMARK    5  A    between atoms: C_4  and  C_5 
REMARK    6  A    between atoms: C_8  and  C_9 
REMARK    7  A    between atoms: C_11  and  O_15 
ROOT
HETATM    1  O   UNL     1      11.371   4.027  11.812  1.00  0.00    -0.395 OA
HETATM    2  H   UNL     1      11.030   4.086  10.906  1.00  0.00     0.210 HD
ENDROOT
BRANCH   1   3
HETATM    3  C   UNL     1      12.428   4.974  11.984  1.00  0.00     0.122 C 
BRANCH   3   4
HETATM    4  C   UNL     1      11.811   6.372  12.099  1.00  0.00     0.042 C 
BRANCH   4   5
HETATM    5  C   UNL     1      11.856   6.900  13.530  1.00  0.00     0.116 C 
BRANCH   5   6
HETATM    6  C   UNL     1      12.403   8.296  13.553  1.00  0.00     0.172 C 
HETATM    7  O   UNL     1      11.812   9.308  13.217  1.00  0.00    -0.648 OA
HETATM    8  O   UNL     1      13.660   8.358  14.032  1.00  0.00    -0.648 OA
ENDBRANCH   5   6
ENDBRANCH   4   5
ENDBRANCH   3   4
BRANCH   3   9
HETATM    9  C   UNL     1      13.422   4.911  10.810  1.00  0.00     0.070 C 
BRANCH   9  10
HETATM   10  C   UNL     1      14.839   5.241  11.219  1.00  0.00    -0.053 A 
HETATM   11  C   UNL     1      15.832   5.438  10.251  1.00  0.00     0.043 A 
HETATM   12  C   UNL     1      17.135   5.735  10.639  1.00  0.00     0.066 A 
HETATM   13  C   UNL     1      17.475   5.838  11.983  1.00  0.00     0.036 A 
HETATM   14  C   UNL     1      16.493   5.641  12.953  1.00  0.00     0.003 A 
HETATM   15  C   UNL     1      15.182   5.343  12.575  1.00  0.00     0.007 A 
BRANCH  12  16
HETATM   16  O   UNL     1      18.062   5.920   9.655  1.00  0.00    -0.361 OA
HETATM   17  H   UNL     1      18.970   5.779   9.835  1.00  0.00     0.217 HD
ENDBRANCH  12  16
ENDBRANCH   9  10
ENDBRANCH   3   9
ENDBRANCH   1   3
TORSDOF 7
ENDMDL
MODEL 3
REMARK VINA RESULT:      -6.4      1.559      2.357
REMARK  7 active torsions:
REMARK  status: ('A' for Active; 'I' for Inactive)
REMARK    1  A    between atoms: O_1  and  C_2 
REMARK    2  A    between atoms: C_2  and  C_3 
REMARK    3  A    between atoms: C_2  and  C_8 
REMARK    4  A    between atoms: C_3  and  C_4 
REMARK    5  A    between atoms: C_4  and  C_5 
REMARK    6  A    between atoms: C_8  and  C_9 
REMARK    7  A    between atoms: C_11  and  O_15 
ROOT
HETATM    1  O   UNL     1      15.020   6.209   9.786  1.00  0.00    -0.395 OA
HETATM    2  H   UNL     1      14.690   7.008  10.225  1.00  0.00     0.210 HD
ENDROOT
BRANCH   1   3
HETATM    3  C   UNL     1      14.759   5.071  10.611  1.00  0.00     0.122 C 
BRANCH   3   4
HETATM    4  C   UNL     1      13.251   4.797  10.594  1.00  0.00     0.042 C 
BRANCH   4   5
HETATM    5  C   UNL     1      12.908   3.540   9.800  1.00  0.00     0.116 C 
BRANCH   5   6
HETATM    6  C   UNL     1      13.336   3.693   8.372  1.00  0.00     0.172 C 
HETATM    7  O   UNL     1      13.997   2.898   7.727  1.00  0.00    -0.648 OA
HETATM    8  O   UNL     1      12.880   4.828   7.808  1.00  0.00    -0.648 OA
ENDBRANCH   5   6
ENDBRANCH   4   5
ENDBRANCH   3   4
BRANCH   3   9
HETATM    9  C   UNL     1      15.254   5.308  12.049  1.00  0.00     0.070 C 
BRANCH   9  10
HETATM   10  C   UNL     1      14.290   6.123  12.878  1.00  0.00    -0.053 A 
HETATM   11  C   UNL     1      13.311   5.494  13.659  1.00  0.00     0.043 A 
HETATM   12  C   UNL     1      12.424   6.255  14.413  1.00  0.00     0.066 A 
HETATM   13  C   UNL     1      12.489   7.645  14.406  1.00  0.00     0.036 A 
HETATM   14  C   UNL     1      13.458   8.279  13.631  1.00  0.00     0.003 A 
HETATM   15  C   UNL     1      14.354   7.524  12.870  1.00  0.00     0.007 A 
BRANCH  12  16
HETATM   16  O   UNL     1      11.493   5.590  15.156  1.00  0.00    -0.361 OA
HETATM   17  H   UNL     1      11.236   5.924  15.993  1.00  0.00     0.217 HD
ENDBRANCH  12  16
ENDBRANCH   9  10
ENDBRANCH   3   9
ENDBRANCH   1   3
TORSDOF 7
ENDMDL
MODEL 4
REMARK VINA RESULT:      -6.1      2.374      2.533
REMARK  7 active torsions:
REMARK  status: ('A' for Active; 'I' for Inactive)
REMARK    1  A    between atoms: O_1  and  C_2 
REMARK    2  A    between atoms: C_2  and  C_3 
REMARK    3  A    between atoms: C_2  and  C_8 
REMARK    4  A    between atoms: C_3  and  C_4 
REMARK    5  A    between atoms: C_4  and  C_5 
REMARK    6  A    between atoms: C_8  and  C_9 
REMARK    7  A    between atoms: C_11  and  O_15 
ROOT
HETATM    1  O   UNL     1      12.072   3.904  10.493  1.00  0.00    -0.395 OA
HETATM    2  H   UNL     1      12.284   3.060  10.921  1.00  0.00     0.210 HD
ENDROOT
BRANCH   1   3
HETATM    3  C   UNL     1      12.887   4.938  11.048  1.00  0.00     0.122 C 
BRANCH   3   4
HETATM    4  C   UNL     1      14.291   4.823  10.445  1.00  0.00     0.042 C 
BRANCH   4   5
HETATM    5  C   UNL     1      14.907   6.191  10.166  1.00  0.00     0.116 C 
BRANCH   5   6
HETATM    6  C   UNL     1      16.000   6.482  11.149  1.00  0.00     0.172 C 
HETATM    7  O   UNL     1      15.886   7.101  12.192  1.00  0.00    -0.648 OA
HETATM    8  O   UNL     1      17.183   5.948  10.789  1.00  0.00    -0.648 OA
ENDBRANCH   5   6
ENDBRANCH   4   5
ENDBRANCH   3   4
BRANCH   3   9
HETATM    9  C   UNL     1      12.942   4.833  12.583  1.00  0.00     0.070 C 
BRANCH   9  10
HETATM   10  C   UNL     1      12.499   6.100  13.277  1.00  0.00    -0.053 A 
HETATM   11  C   UNL     1      12.188   6.093  14.643  1.00  0.00     0.043 A 
HETATM   12  C   UNL     1      11.775   7.264  15.270  1.00  0.00     0.066 A 
HETATM   13  C   UNL     1      11.661   8.455  14.560  1.00  0.00     0.036 A 
HETATM   14  C   UNL     1      11.966   8.469  13.200  1.00  0.00     0.003 A 
HETATM   15  C   UNL     1      12.382   7.299  12.560  1.00  0.00     0.007 A 
BRANCH  12  16
HETATM   16  O   UNL     1      11.488   7.201  16.602  1.00  0.00    -0.361 OA
HETATM   17  H   UNL     1      10.820   6.621  16.911  1.00  0.00     0.217 HD
ENDBRANCH  12  16
ENDBRANCH   9  10
ENDBRANCH   3   9
ENDBRANCH   1   3
TORSDOF 7
ENDMDL
MODEL 5
REMARK VINA RESULT:      -6.1      3.261      4.805
REMARK  7 active torsions:
REMARK  status: ('A' for Active; 'I' for Inactive)
REMARK    1  A    between atoms: O_1  and  C_2 
REMARK    2  A    between atoms: C_2  and  C_3 
REMARK    3  A    between atoms: C_2  and  C_8 
REMARK    4  A    between atoms: C_3  and  C_4 
REMARK    5  A    between atoms: C_4  and  C_5 
REMARK    6  A    between atoms: C_8  and  C_9 
REMARK    7  A    between atoms: C_11  and  O_15 
ROOT
HETATM    1  O   UNL     1      12.549   6.615  12.344  1.00  0.00    -0.395 OA
HETATM    2  H   UNL     1      11.623   6.346  12.245  1.00  0.00     0.210 HD
ENDROOT
BRANCH   1   3
HETATM    3  C   UNL     1      13.372   5.805  11.501  1.00  0.00     0.122 C 
BRANCH   3   4
HETATM    4  C   UNL     1      12.462   4.919  10.644  1.00  0.00     0.042 C 
BRANCH   4   5
HETATM    5  C   UNL     1      13.202   3.703  10.094  1.00  0.00     0.116 C 
BRANCH   5   6
HETATM    6  C   UNL     1      13.384   3.829   8.612  1.00  0.00     0.172 C 
HETATM    7  O   UNL     1      13.978   3.049   7.888  1.00  0.00    -0.648 OA
HETATM    8  O   UNL     1      12.779   4.918   8.101  1.00  0.00    -0.648 OA
ENDBRANCH   5   6
ENDBRANCH   4   5
ENDBRANCH   3   4
BRANCH   3   9
HETATM    9  C   UNL     1      14.341   4.948  12.334  1.00  0.00     0.070 C 
BRANCH   9  10
HETATM   10  C   UNL     1      15.777   5.405  12.224  1.00  0.00    -0.053 A 
HETATM   11  C   UNL     1      16.383   5.559  10.970  1.00  0.00     0.043 A 
HETATM   12  C   UNL     1      17.707   5.974  10.881  1.00  0.00     0.066 A 
HETATM   13  C   UNL     1      18.452   6.241  12.025  1.00  0.00     0.036 A 
HETATM   14  C   UNL     1      17.858   6.088  13.277  1.00  0.00     0.003 A 
HETATM   15  C   UNL     1      16.529   5.672  13.378  1.00  0.00     0.007 A 
BRANCH  12  16
HETATM   16  O   UNL     1      18.245   6.109   9.635  1.00  0.00    -0.361 OA
HETATM   17  H   UNL     1      17.935   6.781   9.060  1.00  0.00     0.217 HD
ENDBRANCH  12  16
ENDBRANCH   9  10
ENDBRANCH   3   9
ENDBRANCH   1   3
TORSDOF 7
ENDMDL
MODEL 6
REMARK VINA RESULT:      -6.1      3.987      5.460
REMARK  7 active torsions:
REMARK  status: ('A' for Active; 'I' for Inactive)
REMARK    1  A    between atoms: O_1  and  C_2 
REMARK    2  A    between atoms: C_2  and  C_3 
REMARK    3  A    between atoms: C_2  and  C_8 
REMARK    4  A    between atoms: C_3  and  C_4 
REMARK    5  A    between atoms: C_4  and  C_5 
REMARK    6  A    between atoms: C_8  and  C_9 
REMARK    7  A    between atoms: C_11  and  O_15 
ROOT
HETATM    1  O   UNL     1      14.929   6.461   9.576  1.00  0.00    -0.395 OA
HETATM    2  H   UNL     1      14.182   6.246   8.997  1.00  0.00     0.210 HD
ENDROOT
BRANCH   1   3
HETATM    3  C   UNL     1      15.034   5.475  10.605  1.00  0.00     0.122 C 
BRANCH   3   4
HETATM    4  C   UNL     1      13.727   4.676  10.643  1.00  0.00     0.042 C 
BRANCH   4   5
HETATM    5  C   UNL     1      13.121   4.506   9.253  1.00  0.00     0.116 C 
BRANCH   5   6
HETATM    6  C   UNL     1      13.517   3.183   8.670  1.00  0.00     0.172 C 
HETATM    7  O   UNL     1      14.258   3.007   7.718  1.00  0.00    -0.648 OA
HETATM    8  O   UNL     1      12.989   2.138   9.335  1.00  0.00    -0.648 OA
ENDBRANCH   5   6
ENDBRANCH   4   5
ENDBRANCH   3   4
BRANCH   3   9
HETATM    9  C   UNL     1      15.313   6.129  11.970  1.00  0.00     0.070 C 
BRANCH   9  10
HETATM   10  C   UNL     1      16.724   5.895  12.457  1.00  0.00    -0.053 A 
HETATM   11  C   UNL     1      17.796   5.868  11.555  1.00  0.00     0.043 A 
HETATM   12  C   UNL     1      19.090   5.646  12.014  1.00  0.00     0.066 A 
HETATM   13  C   UNL     1      19.344   5.446  13.367  1.00  0.00     0.036 A 
HETATM   14  C   UNL     1      18.284   5.469  14.272  1.00  0.00     0.003 A 
HETATM   15  C   UNL     1      16.980   5.692  13.821  1.00  0.00     0.007 A 
BRANCH  12  16
HETATM   16  O   UNL     1      20.095   5.631  11.093  1.00  0.00    -0.361 OA
HETATM   17  H   UNL     1      20.772   4.986  11.148  1.00  0.00     0.217 HD
ENDBRANCH  12  16
ENDBRANCH   9  10
ENDBRANCH   3   9
ENDBRANCH   1   3
TORSDOF 7
ENDMDL
MODEL 7
REMARK VINA RESULT:      -6.0      2.172      5.666
REMARK  7 active torsions:
REMARK  status: ('A' for Active; 'I' for Inactive)
REMARK    1  A    between atoms: O_1  and  C_2 
REMARK    2  A    between atoms: C_2  and  C_3 
REMARK    3  A    between atoms: C_2  and  C_8 
REMARK    4  A    between atoms: C_3  and  C_4 
REMARK    5  A    between atoms: C_4  and  C_5 
REMARK    6  A    between atoms: C_8  and  C_9 
REMARK    7  A    between atoms: C_11  and  O_15 
ROOT
HETATM    1  O   UNL     1      11.104   6.707  14.524  1.00  0.00    -0.395 OA
HETATM    2  H   UNL     1      10.856   5.823  14.210  1.00  0.00     0.210 HD
ENDROOT
BRANCH   1   3
HETATM    3  C   UNL     1      12.527   6.796  14.622  1.00  0.00     0.122 C 
BRANCH   3   4
HETATM    4  C   UNL     1      13.019   7.818  13.592  1.00  0.00     0.042 C 
BRANCH   4   5
HETATM    5  C   UNL     1      11.882   8.688  13.062  1.00  0.00     0.116 C 
BRANCH   5   6
HETATM    6  C   UNL     1      12.062  10.108  13.506  1.00  0.00     0.172 C 
HETATM    7  O   UNL     1      11.457  11.078  13.083  1.00  0.00    -0.648 OA
HETATM    8  O   UNL     1      12.973  10.238  14.489  1.00  0.00    -0.648 OA
ENDBRANCH   5   6
ENDBRANCH   4   5
ENDBRANCH   3   4
BRANCH   3   9
HETATM    9  C   UNL     1      13.183   5.424  14.385  1.00  0.00     0.070 C 
BRANCH   9  10
HETATM   10  C   UNL     1      13.623   5.220  12.954  1.00  0.00    -0.053 A 
HETATM   11  C   UNL     1      12.715   4.774  11.985  1.00  0.00     0.043 A 
HETATM   12  C   UNL     1      13.132   4.583  10.672  1.00  0.00     0.066 A 
HETATM   13  C   UNL     1      14.450   4.828  10.297  1.00  0.00     0.036 A 
HETATM   14  C   UNL     1      15.361   5.270  11.255  1.00  0.00     0.003 A 
HETATM   15  C   UNL     1      14.952   5.465  12.577  1.00  0.00     0.007 A 
BRANCH  12  16
HETATM   16  O   UNL     1      12.206   4.150   9.769  1.00  0.00    -0.361 OA
HETATM   17  H   UNL     1      11.905   3.263   9.796  1.00  0.00     0.217 HD
ENDBRANCH  12  16
ENDBRANCH   9  10
ENDBRANCH   3   9
ENDBRANCH   1   3
TORSDOF 7
ENDMDL
MODEL 8
REMARK VINA RESULT:      -5.9      2.194      2.840
REMARK  7 active torsions:
REMARK  status: ('A' for Active; 'I' for Inactive)
REMARK    1  A    between atoms: O_1  and  C_2 
REMARK    2  A    between atoms: C_2  and  C_3 
REMARK    3  A    between atoms: C_2  and  C_8 
REMARK    4  A    between atoms: C_3  and  C_4 
REMARK    5  A    between atoms: C_4  and  C_5 
REMARK    6  A    between atoms: C_8  and  C_9 
REMARK    7  A    between atoms: C_11  and  O_15 
ROOT
HETATM    1  O   UNL     1      14.940   6.379   9.655  1.00  0.00    -0.395 OA
HETATM    2  H   UNL     1      15.360   7.103  10.146  1.00  0.00     0.210 HD
ENDROOT
BRANCH   1   3
HETATM    3  C   UNL     1      14.936   5.197  10.459  1.00  0.00     0.122 C 
BRANCH   3   4
HETATM    4  C   UNL     1      13.481   4.812  10.745  1.00  0.00     0.042 C 
BRANCH   4   5
HETATM    5  C   UNL     1      13.025   3.630   9.895  1.00  0.00     0.116 C 
BRANCH   5   6
HETATM    6  C   UNL     1      13.198   3.938   8.439  1.00  0.00     0.172 C 
HETATM    7  O   UNL     1      12.777   4.921   7.854  1.00  0.00    -0.648 OA
HETATM    8  O   UNL     1      13.926   3.009   7.790  1.00  0.00    -0.648 OA
ENDBRANCH   5   6
ENDBRANCH   4   5
ENDBRANCH   3   4
BRANCH   3   9
HETATM    9  C   UNL     1      15.710   5.420  11.771  1.00  0.00     0.070 C 
BRANCH   9  10
HETATM   10  C   UNL     1      14.837   5.939  12.889  1.00  0.00    -0.053 A 
HETATM   11  C   UNL     1      14.391   7.267  12.890  1.00  0.00     0.043 A 
HETATM   12  C   UNL     1      13.593   7.735  13.928  1.00  0.00     0.066 A 
HETATM   13  C   UNL     1      13.225   6.902  14.980  1.00  0.00     0.036 A 
HETATM   14  C   UNL     1      13.667   5.580  14.989  1.00  0.00     0.003 A 
HETATM   15  C   UNL     1      14.468   5.099  13.951  1.00  0.00     0.007 A 
BRANCH  12  16
HETATM   16  O   UNL     1      13.185   9.036  13.877  1.00  0.00    -0.361 OA
HETATM   17  H   UNL     1      12.404   9.264  13.413  1.00  0.00     0.217 HD
ENDBRANCH  12  16
ENDBRANCH   9  10
ENDBRANCH   3   9
ENDBRANCH   1   3
TORSDOF 7
ENDMDL
MODEL 9
REMARK VINA RESULT:      -5.9      4.459      5.394
REMARK  7 active torsions:
REMARK  status: ('A' for Active; 'I' for Inactive)
REMARK    1  A    between atoms: O_1  and  C_2 
REMARK    2  A    between atoms: C_2  and  C_3 
REMARK    3  A    between atoms: C_2  and  C_8 
REMARK    4  A    between atoms: C_3  and  C_4 
REMARK    5  A    between atoms: C_4  and  C_5 
REMARK    6  A    between atoms: C_8  and  C_9 
REMARK    7  A    between atoms: C_11  and  O_15 
ROOT
HETATM    1  O   UNL     1      16.359   5.094   9.597  1.00  0.00    -0.395 OA
HETATM    2  H   UNL     1      17.038   5.151   8.906  1.00  0.00     0.210 HD
ENDROOT
BRANCH   1   3
HETATM    3  C   UNL     1      16.691   5.983  10.665  1.00  0.00     0.122 C 
BRANCH   3   4
HETATM    4  C   UNL     1      18.218   6.077  10.760  1.00  0.00     0.042 C 
BRANCH   4   5
HETATM    5  C   UNL     1      18.707   5.993  12.203  1.00  0.00     0.116 C 
BRANCH   5   6
HETATM    6  C   UNL     1      20.165   5.647  12.240  1.00  0.00     0.172 C 
HETATM    7  O   UNL     1      21.085   6.363  11.886  1.00  0.00    -0.648 OA
HETATM    8  O   UNL     1      20.400   4.424  12.753  1.00  0.00    -0.648 OA
ENDBRANCH   5   6
ENDBRANCH   4   5
ENDBRANCH   3   4
BRANCH   3   9
HETATM    9  C   UNL     1      16.090   5.496  11.995  1.00  0.00     0.070 C 
BRANCH   9  10
HETATM   10  C   UNL     1      14.663   5.947  12.198  1.00  0.00    -0.053 A 
HETATM   11  C   UNL     1      13.594   5.151  11.767  1.00  0.00     0.043 A 
HETATM   12  C   UNL     1      12.284   5.579  11.953  1.00  0.00     0.066 A 
HETATM   13  C   UNL     1      12.011   6.798  12.565  1.00  0.00     0.036 A 
HETATM   14  C   UNL     1      13.068   7.599  12.995  1.00  0.00     0.003 A 
HETATM   15  C   UNL     1      14.387   7.178  12.813  1.00  0.00     0.007 A 
BRANCH  12  16
HETATM   16  O   UNL     1      11.283   4.763  11.516  1.00  0.00    -0.361 OA
HETATM   17  H   UNL     1      11.395   4.262  10.732  1.00  0.00     0.217 HD
ENDBRANCH  12  16
ENDBRANCH   9  10
ENDBRANCH   3   9
ENDBRANCH   1   3
TORSDOF 7
ENDMDL
