MODEL 1
REMARK VINA RESULT:      -6.5      0.000      0.000
REMARK  7 active torsions:
REMARK  status: ('A' for Active; 'I' for Inactive)
REMARK    1  A    between atoms: O_1  and  C_2 
REMARK    2  A    between atoms: C_2  and  C_3 
REMARK    3  A    between atoms: C_2  and  C_8 
REMARK    4  A    between atoms: C_3  and  C_4 
REMARK    5  A    between atoms: C_4  and  C_5 
REMARK    6  A    between atoms: C_8  and  C_9 
REMARK    7  A    between atoms: C_11  and  O_15 
ROOT
HETATM    1  O   UNL     1       9.285   4.887  10.139  1.00  0.00    -0.395 OA
HETATM    2  H   UNL     1       8.339   5.029   9.977  1.00  0.00     0.210 HD
ENDROOT
BRANCH   1   3
HETATM    3  C   UNL     1      10.032   5.973   9.586  1.00  0.00     0.122 C 
BRANCH   3   4
HETATM    4  C   UNL     1      10.420   5.610   8.149  1.00  0.00     0.042 C 
BRANCH   4   5
HETATM    5  C   UNL     1      11.090   6.776   7.427  1.00  0.00     0.116 C 
BRANCH   5   6
HETATM    6  C   UNL     1      10.768   6.737   5.964  1.00  0.00     0.172 C 
HETATM    7  O   UNL     1      10.945   5.796   5.210  1.00  0.00    -0.648 OA
HETATM    8  O   UNL     1      10.202   7.877   5.522  1.00  0.00    -0.648 OA
ENDBRANCH   5   6
ENDBRANCH   4   5
ENDBRANCH   3   4
BRANCH   3   9
HETATM    9  C   UNL     1      11.283   6.269  10.432  1.00  0.00     0.070 C 
BRANCH   9  10
HETATM   10  C   UNL     1      11.154   7.529  11.255  1.00  0.00    -0.053 A 
HETATM   11  C   UNL     1      10.965   7.459  12.642  1.00  0.00     0.043 A 
HETATM   12  C   UNL     1      10.841   8.626  13.389  1.00  0.00     0.066 A 
HETATM   13  C   UNL     1      10.899   9.875  12.780  1.00  0.00     0.036 A 
HETATM   14  C   UNL     1      11.084   9.954  11.400  1.00  0.00     0.003 A 
HETATM   15  C   UNL     1      11.211   8.788  10.640  1.00  0.00     0.007 A 
BRANCH  12  16
HETATM   16  O   UNL     1      10.661   8.499  14.735  1.00  0.00    -0.361 OA
HETATM   17  H   UNL     1      10.914   9.195  15.309  1.00  0.00     0.217 HD
ENDBRANCH  12  16
ENDBRANCH   9  10
ENDBRANCH   3   9
ENDBRANCH   1   3
TORSDOF 7
ENDMDL
MODEL 2
REMARK VINA RESULT:      -6.5      2.990      5.696
REMARK  7 active torsions:
REMARK  status: ('A' for Active; 'I' for Inactive)
REMARK    1  A    between atoms: O_1  and  C_2 
REMARK    2  A    between atoms: C_2  and  C_3 
REMARK    3  A    between atoms: C_2  and  C_8 
REMARK    4  A    between atoms: C_3  and  C_4 
REMARK    5  A    between atoms: C_4  and  C_5 
REMARK    6  A    between atoms: C_8  and  C_9 
REMARK    7  A    between atoms: C_11  and  O_15 
ROOT
HETATM    1  O   UNL     1       9.360   6.382   9.613  1.00  0.00    -0.395 OA
HETATM    2  H   UNL     1       8.645   7.037   9.626  1.00  0.00     0.210 HD
ENDROOT
BRANCH   1   3
HETATM    3  C   UNL     1      10.620   7.051   9.710  1.00  0.00     0.122 C 
BRANCH   3   4
HETATM    4  C   UNL     1      10.362   8.514  10.086  1.00  0.00     0.042 C 
BRANCH   4   5
HETATM    5  C   UNL     1      10.540   8.761  11.581  1.00  0.00     0.116 C 
BRANCH   5   6
HETATM    6  C   UNL     1      11.396   9.969  11.812  1.00  0.00     0.172 C 
HETATM    7  O   UNL     1      11.020  11.128  11.823  1.00  0.00    -0.648 OA
HETATM    8  O   UNL     1      12.685   9.660  12.052  1.00  0.00    -0.648 OA
ENDBRANCH   5   6
ENDBRANCH   4   5
ENDBRANCH   3   4
BRANCH   3   9
HETATM    9  C   UNL     1      11.398   6.956   8.386  1.00  0.00     0.070 C 
BRANCH   9  10
HETATM   10  C   UNL     1      12.896   6.967   8.581  1.00  0.00    -0.053 A 
HETATM   11  C   UNL     1      13.755   7.195   7.497  1.00  0.00     0.043 A 
HETATM   12  C   UNL     1      15.133   7.196   7.687  1.00  0.00     0.066 A 
HETATM   13  C   UNL     1      15.682   6.971   8.945  1.00  0.00     0.036 A 
HETATM   14  C   UNL     1      14.835   6.742  10.028  1.00  0.00     0.003 A 
HETATM   15  C   UNL     1      13.450   6.739   9.849  1.00  0.00     0.007 A 
BRANCH  12  16
HETATM   16  O   UNL     1      15.922   7.425   6.598  1.00  0.00    -0.361 OA
HETATM   17  H   UNL     1      16.580   6.803   6.356  1.00  0.00     0.217 HD
ENDBRANCH  12  16
ENDBRANCH   9  10
ENDBRANCH   3   9
ENDBRANCH   1   3
TORSDOF 7
ENDMDL
MODEL 3
REMARK VINA RESULT:      -6.3      1.595      2.194
REMARK  7 active torsions:
REMARK  status: ('A' for Active; 'I' for Inactive)
REMARK    1  A    between atoms: O_1  and  C_2 
REMARK    2  A    between atoms: C_2  and  C_3 
REMARK    3  A    between atoms: C_2  and  C_8 
REMARK    4  A    between atoms: C_3  and  C_4 
REMARK    5  A    between atoms: C_4  and  C_5 
REMARK    6  A    between atoms: C_8  and  C_9 
REMARK    7  A    between atoms: C_11  and  O_15 
ROOT
HETATM    1  O   UNL     1      13.167   7.964   7.289  1.00  0.00    -0.395 OA
HETATM    2  H   UNL     1      13.418   8.667   7.908  1.00  0.00     0.210 HD
ENDROOT
BRANCH   1   3
HETATM    3  C   UNL     1      12.720   6.822   8.023  1.00  0.00     0.122 C 
BRANCH   3   4
HETATM    4  C   UNL     1      11.202   6.929   8.206  1.00  0.00     0.042 C 
BRANCH   4   5
HETATM    5  C   UNL     1      10.447   5.960   7.302  1.00  0.00     0.116 C 
BRANCH   5   6
HETATM    6  C   UNL     1      10.666   6.313   5.862  1.00  0.00     0.172 C 
HETATM    7  O   UNL     1      10.986   5.545   4.971  1.00  0.00    -0.648 OA
HETATM    8  O   UNL     1      10.439   7.614   5.601  1.00  0.00    -0.648 OA
ENDBRANCH   5   6
ENDBRANCH   4   5
ENDBRANCH   3   4
BRANCH   3   9
HETATM    9  C   UNL     1      13.429   6.729   9.385  1.00  0.00     0.070 C 
BRANCH   9  10
HETATM   10  C   UNL     1      12.743   7.535  10.463  1.00  0.00    -0.053 A 
HETATM   11  C   UNL     1      11.799   6.937  11.309  1.00  0.00     0.043 A 
HETATM   12  C   UNL     1      11.168   7.690  12.294  1.00  0.00     0.066 A 
HETATM   13  C   UNL     1      11.458   9.041  12.457  1.00  0.00     0.036 A 
HETATM   14  C   UNL     1      12.393   9.644  11.618  1.00  0.00     0.003 A 
HETATM   15  C   UNL     1      13.033   8.897  10.626  1.00  0.00     0.007 A 
BRANCH  12  16
HETATM   16  O   UNL     1      10.260   7.057  13.091  1.00  0.00    -0.361 OA
HETATM   17  H   UNL     1       9.426   7.451  13.256  1.00  0.00     0.217 HD
ENDBRANCH  12  16
ENDBRANCH   9  10
ENDBRANCH   3   9
ENDBRANCH   1   3
TORSDOF 7
ENDMDL
MODEL 4
REMARK VINA RESULT:      -6.2      2.406      2.563
REMARK  7 active torsions:
REMARK  status: ('A' for Active; 'I' for Inactive)
REMARK    1  A    between atoms: O_1  and  C_2 
REMARK    2  A    between atoms: C_2  and  C_3 
REMARK    3  A    between atoms: C_2  and  C_8 
REMARK    4  A    between atoms: C_3  and  C_4 
REMARK    5  A    between atoms: C_4  and  C_5 
REMARK    6  A    between atoms: C_8  and  C_9 
REMARK    7  A    between atoms: C_11  and  O_15 
ROOT
HETATM    1  O   UNL     1       9.945   6.334   8.077  1.00  0.00    -0.395 OA
HETATM    2  H   UNL     1       9.100   6.702   8.376  1.00  0.00     0.210 HD
ENDROOT
BRANCH   1   3
HETATM    3  C   UNL     1      11.020   7.087   8.644  1.00  0.00     0.122 C 
BRANCH   3   4
HETATM    4  C   UNL     1      12.273   6.856   7.793  1.00  0.00     0.042 C 
BRANCH   4   5
HETATM    5  C   UNL     1      13.537   6.787   8.645  1.00  0.00     0.116 C 
BRANCH   5   6
HETATM    6  C   UNL     1      14.573   7.734   8.119  1.00  0.00     0.172 C 
HETATM    7  O   UNL     1      15.614   7.429   7.563  1.00  0.00    -0.648 OA
HETATM    8  O   UNL     1      14.234   9.026   8.286  1.00  0.00    -0.648 OA
ENDBRANCH   5   6
ENDBRANCH   4   5
ENDBRANCH   3   4
BRANCH   3   9
HETATM    9  C   UNL     1      11.270   6.676  10.106  1.00  0.00     0.070 C 
BRANCH   9  10
HETATM   10  C   UNL     1      11.146   7.831  11.072  1.00  0.00    -0.053 A 
HETATM   11  C   UNL     1      10.933   7.599  12.437  1.00  0.00     0.043 A 
HETATM   12  C   UNL     1      10.814   8.670  13.317  1.00  0.00     0.066 A 
HETATM   13  C   UNL     1      10.901   9.981  12.863  1.00  0.00     0.036 A 
HETATM   14  C   UNL     1      11.111  10.221  11.506  1.00  0.00     0.003 A 
HETATM   15  C   UNL     1      11.232   9.153  10.614  1.00  0.00     0.007 A 
BRANCH  12  16
HETATM   16  O   UNL     1      10.609   8.386  14.636  1.00  0.00    -0.361 OA
HETATM   17  H   UNL     1      10.106   8.970  15.168  1.00  0.00     0.217 HD
ENDBRANCH  12  16
ENDBRANCH   9  10
ENDBRANCH   3   9
ENDBRANCH   1   3
TORSDOF 7
ENDMDL
MODEL 5
REMARK VINA RESULT:      -6.2      3.468      4.963
REMARK  7 active torsions:
REMARK  status: ('A' for Active; 'I' for Inactive)
REMARK    1  A    between atoms: O_1  and  C_2 
REMARK    2  A    between atoms: C_2  and  C_3 
REMARK    3  A    between atoms: C_2  and  C_8 
REMARK    4  A    between atoms: C_3  and  C_4 
REMARK    5  A    between atoms: C_4  and  C_5 
REMARK    6  A    between atoms: C_8  and  C_9 
REMARK    7  A    between atoms: C_11  and  O_15 
ROOT
HETATM    1  O   UNL     1      11.416   8.710  10.005  1.00  0.00    -0.395 OA
HETATM    2  H   UNL     1      10.455   8.838  10.004  1.00  0.00     0.210 HD
ENDROOT
BRANCH   1   3
HETATM    3  C   UNL     1      11.758   7.657   9.101  1.00  0.00     0.122 C 
BRANCH   3   4
HETATM    4  C   UNL     1      10.463   6.984   8.632  1.00  0.00     0.042 C 
BRANCH   4   5
HETATM    5  C   UNL     1      10.717   5.964   7.526  1.00  0.00     0.116 C 
BRANCH   5   6
HETATM    6  C   UNL     1      10.583   6.610   6.180  1.00  0.00     0.172 C 
HETATM    7  O   UNL     1      10.105   7.707   5.951  1.00  0.00    -0.648 OA
HETATM    8  O   UNL     1      11.088   5.857   5.185  1.00  0.00    -0.648 OA
ENDBRANCH   5   6
ENDBRANCH   4   5
ENDBRANCH   3   4
BRANCH   3   9
HETATM    9  C   UNL     1      12.691   6.634   9.773  1.00  0.00     0.070 C 
BRANCH   9  10
HETATM   10  C   UNL     1      14.136   6.795   9.360  1.00  0.00    -0.053 A 
HETATM   11  C   UNL     1      14.470   7.100   8.034  1.00  0.00     0.043 A 
HETATM   12  C   UNL     1      15.803   7.239   7.664  1.00  0.00     0.066 A 
HETATM   13  C   UNL     1      16.824   7.079   8.595  1.00  0.00     0.036 A 
HETATM   14  C   UNL     1      16.501   6.773   9.916  1.00  0.00     0.003 A 
HETATM   15  C   UNL     1      15.165   6.631  10.299  1.00  0.00     0.007 A 
BRANCH  12  16
HETATM   16  O   UNL     1      16.071   7.539   6.361  1.00  0.00    -0.361 OA
HETATM   17  H   UNL     1      15.953   6.889   5.697  1.00  0.00     0.217 HD
ENDBRANCH  12  16
ENDBRANCH   9  10
ENDBRANCH   3   9
ENDBRANCH   1   3
TORSDOF 7
ENDMDL
MODEL 6
REMARK VINA RESULT:      -6.1      2.863      6.463
REMARK  7 active torsions:
REMARK  status: ('A' for Active; 'I' for Inactive)
REMARK    1  A    between atoms: O_1  and  C_2 
REMARK    2  A    between atoms: C_2  and  C_3 
REMARK    3  A    between atoms: C_2  and  C_8 
REMARK    4  A    between atoms: C_3  and  C_4 
REMARK    5  A    between atoms: C_4  and  C_5 
REMARK    6  A    between atoms: C_8  and  C_9 
REMARK    7  A    between atoms: C_11  and  O_15 
ROOT
HETATM    1  O   UNL     1      13.180   9.072  12.119  1.00  0.00    -0.395 OA
HETATM    2  H   UNL     1      13.064   8.176  12.471  1.00  0.00     0.210 HD
ENDROOT
BRANCH   1   3
HETATM    3  C   UNL     1      12.143   9.352  11.176  1.00  0.00     0.122 C 
BRANCH   3   4
HETATM    4  C   UNL     1      11.304  10.517  11.712  1.00  0.00     0.042 C 
BRANCH   4   5
HETATM    5  C   UNL     1      12.064  11.339  12.748  1.00  0.00     0.116 C 
BRANCH   5   6
HETATM    6  C   UNL     1      12.016  12.795  12.396  1.00  0.00     0.172 C 
HETATM    7  O   UNL     1      12.862  13.631  12.665  1.00  0.00    -0.648 OA
HETATM    8  O   UNL     1      10.919  13.127  11.689  1.00  0.00    -0.648 OA
ENDBRANCH   5   6
ENDBRANCH   4   5
ENDBRANCH   3   4
BRANCH   3   9
HETATM    9  C   UNL     1      11.265   8.111  10.937  1.00  0.00     0.070 C 
BRANCH   9  10
HETATM   10  C   UNL     1      11.418   7.539   9.547  1.00  0.00    -0.053 A 
HETATM   11  C   UNL     1      12.624   7.675   8.848  1.00  0.00     0.043 A 
HETATM   12  C   UNL     1      12.751   7.150   7.566  1.00  0.00     0.066 A 
HETATM   13  C   UNL     1      11.692   6.487   6.957  1.00  0.00     0.036 A 
HETATM   14  C   UNL     1      10.487   6.350   7.644  1.00  0.00     0.003 A 
HETATM   15  C   UNL     1      10.348   6.872   8.932  1.00  0.00     0.007 A 
BRANCH  12  16
HETATM   16  O   UNL     1      13.949   7.309   6.933  1.00  0.00    -0.361 OA
HETATM   17  H   UNL     1      14.348   6.583   6.496  1.00  0.00     0.217 HD
ENDBRANCH  12  16
ENDBRANCH   9  10
ENDBRANCH   3   9
ENDBRANCH   1   3
TORSDOF 7
ENDMDL
MODEL 7
REMARK VINA RESULT:      -6.1      1.926      5.794
REMARK  7 active torsions:
REMARK  status: ('A' for Active; 'I' for Inactive)
REMARK    1  A    between atoms: O_1  and  C_2 
REMARK    2  A    between atoms: C_2  and  C_3 
REMARK    3  A    between atoms: C_2  and  C_8 
REMARK    4  A    between atoms: C_3  and  C_4 
REMARK    5  A    between atoms: C_4  and  C_5 
REMARK    6  A    between atoms: C_8  and  C_9 
REMARK    7  A    between atoms: C_11  and  O_15 
ROOT
HETATM    1  O   UNL     1      10.393   7.141  12.986  1.00  0.00    -0.395 OA
HETATM    2  H   UNL     1       9.887   7.920  13.265  1.00  0.00     0.210 HD
ENDROOT
BRANCH   1   3
HETATM    3  C   UNL     1      11.127   7.449  11.799  1.00  0.00     0.122 C 
BRANCH   3   4
HETATM    4  C   UNL     1      10.526   8.712  11.173  1.00  0.00     0.042 C 
BRANCH   4   5
HETATM    5  C   UNL     1      11.554   9.832  11.049  1.00  0.00     0.116 C 
BRANCH   5   6
HETATM    6  C   UNL     1      11.551  10.682  12.283  1.00  0.00     0.172 C 
HETATM    7  O   UNL     1      12.222  11.682  12.473  1.00  0.00    -0.648 OA
HETATM    8  O   UNL     1      10.676  10.253  13.212  1.00  0.00    -0.648 OA
ENDBRANCH   5   6
ENDBRANCH   4   5
ENDBRANCH   3   4
BRANCH   3   9
HETATM    9  C   UNL     1      11.085   6.275  10.805  1.00  0.00     0.070 C 
BRANCH   9  10
HETATM   10  C   UNL     1      11.888   6.534   9.552  1.00  0.00    -0.053 A 
HETATM   11  C   UNL     1      11.264   6.564   8.297  1.00  0.00     0.043 A 
HETATM   12  C   UNL     1      12.014   6.798   7.150  1.00  0.00     0.066 A 
HETATM   13  C   UNL     1      13.388   7.003   7.223  1.00  0.00     0.036 A 
HETATM   14  C   UNL     1      14.017   6.972   8.466  1.00  0.00     0.003 A 
HETATM   15  C   UNL     1      13.274   6.739   9.625  1.00  0.00     0.007 A 
BRANCH  12  16
HETATM   16  O   UNL     1      11.355   6.819   5.956  1.00  0.00    -0.361 OA
HETATM   17  H   UNL     1      11.580   6.204   5.285  1.00  0.00     0.217 HD
ENDBRANCH  12  16
ENDBRANCH   9  10
ENDBRANCH   3   9
ENDBRANCH   1   3
TORSDOF 7
ENDMDL
MODEL 8
REMARK VINA RESULT:      -6.0      4.469      5.248
REMARK  7 active torsions:
REMARK  status: ('A' for Active; 'I' for Inactive)
REMARK    1  A    between atoms: O_1  and  C_2 
REMARK    2  A    between atoms: C_2  and  C_3 
REMARK    3  A    between atoms: C_2  and  C_8 
REMARK    4  A    between atoms: C_3  and  C_4 
REMARK    5  A    between atoms: C_4  and  C_5 
REMARK    6  A    between atoms: C_8  and  C_9 
REMARK    7  A    between atoms: C_11  and  O_15 
ROOT
HETATM    1  O   UNL     1      13.760   6.794   6.610  1.00  0.00    -0.395 OA
HETATM    2  H   UNL     1      12.816   6.699   6.811  1.00  0.00     0.210 HD
ENDROOT
BRANCH   1   3
HETATM    3  C   UNL     1      14.413   7.458   7.694  1.00  0.00     0.122 C 
BRANCH   3   4
HETATM    4  C   UNL     1      15.927   7.337   7.493  1.00  0.00     0.042 C 
BRANCH   4   5
HETATM    5  C   UNL     1      16.646   6.953   8.783  1.00  0.00     0.116 C 
BRANCH   5   6
HETATM    6  C   UNL     1      18.008   6.406   8.478  1.00  0.00     0.172 C 
HETATM    7  O   UNL     1      18.948   7.027   8.013  1.00  0.00    -0.648 OA
HETATM    8  O   UNL     1      18.135   5.106   8.806  1.00  0.00    -0.648 OA
ENDBRANCH   5   6
ENDBRANCH   4   5
ENDBRANCH   3   4
BRANCH   3   9
HETATM    9  C   UNL     1      13.992   6.852   9.045  1.00  0.00     0.070 C 
BRANCH   9  10
HETATM   10  C   UNL     1      12.929   7.664   9.749  1.00  0.00    -0.053 A 
HETATM   11  C   UNL     1      11.571   7.443   9.486  1.00  0.00     0.043 A 
HETATM   12  C   UNL     1      10.602   8.200  10.135  1.00  0.00     0.066 A 
HETATM   13  C   UNL     1      10.958   9.186  11.050  1.00  0.00     0.036 A 
HETATM   14  C   UNL     1      12.307   9.414  11.316  1.00  0.00     0.003 A 
HETATM   15  C   UNL     1      13.289   8.659  10.670  1.00  0.00     0.007 A 
BRANCH  12  16
HETATM   16  O   UNL     1       9.295   7.941   9.843  1.00  0.00    -0.361 OA
HETATM   17  H   UNL     1       8.946   7.082   9.976  1.00  0.00     0.217 HD
ENDBRANCH  12  16
ENDBRANCH   9  10
ENDBRANCH   3   9
ENDBRANCH   1   3
TORSDOF 7
ENDMDL
MODEL 9
REMARK VINA RESULT:      -5.9      3.851      4.772
REMARK  7 active torsions:
REMARK  status: ('A' for Active; 'I' for Inactive)
REMARK    1  A    between atoms: O_1  and  C_2 
REMARK    2  A    between atoms: C_2  and  C_3 
REMARK    3  A    between atoms: C_2  and  C_8 
REMARK    4  A    between atoms: C_3  and  C_4 
REMARK    5  A    between atoms: C_4  and  C_5 
REMARK    6  A    between atoms: C_8  and  C_9 
REMARK    7  A    between atoms: C_11  and  O_15 
ROOT
HETATM    1  O   UNL     1      11.535   8.625  10.187  1.00  0.00    -0.395 OA
HETATM    2  H   UNL     1      10.919   9.309   9.880  1.00  0.00     0.210 HD
ENDROOT
BRANCH   1   3
HETATM    3  C   UNL     1      11.809   7.716   9.119  1.00  0.00     0.122 C 
BRANCH   3   4
HETATM    4  C   UNL     1      10.486   7.086   8.670  1.00  0.00     0.042 C 
BRANCH   4   5
HETATM    5  C   UNL     1      10.697   6.017   7.601  1.00  0.00     0.116 C 
BRANCH   5   6
HETATM    6  C   UNL     1      10.616   6.623   6.233  1.00  0.00     0.172 C 
HETATM    7  O   UNL     1      10.115   7.698   5.949  1.00  0.00    -0.648 OA
HETATM    8  O   UNL     1      11.201   5.864   5.288  1.00  0.00    -0.648 OA
ENDBRANCH   5   6
ENDBRANCH   4   5
ENDBRANCH   3   4
BRANCH   3   9
HETATM    9  C   UNL     1      12.809   6.632   9.559  1.00  0.00     0.070 C 
BRANCH   9  10
HETATM   10  C   UNL     1      14.194   6.843   8.994  1.00  0.00    -0.053 A 
HETATM   11  C   UNL     1      15.317   6.820   9.831  1.00  0.00     0.043 A 
HETATM   12  C   UNL     1      16.587   7.022   9.301  1.00  0.00     0.066 A 
HETATM   13  C   UNL     1      16.766   7.251   7.940  1.00  0.00     0.036 A 
HETATM   14  C   UNL     1      15.654   7.279   7.101  1.00  0.00     0.003 A 
HETATM   15  C   UNL     1      14.374   7.077   7.623  1.00  0.00     0.007 A 
BRANCH  12  16
HETATM   16  O   UNL     1      17.646   6.986  10.161  1.00  0.00    -0.361 OA
HETATM   17  H   UNL     1      17.508   6.780  11.064  1.00  0.00     0.217 HD
ENDBRANCH  12  16
ENDBRANCH   9  10
ENDBRANCH   3   9
ENDBRANCH   1   3
TORSDOF 7
ENDMDL
