MODEL 1
REMARK VINA RESULT:      -6.7      0.000      0.000
REMARK  7 active torsions:
REMARK  status: ('A' for Active; 'I' for Inactive)
REMARK    1  A    between atoms: O_1  and  C_2 
REMARK    2  A    between atoms: C_2  and  C_3 
REMARK    3  A    between atoms: C_2  and  C_8 
REMARK    4  A    between atoms: C_3  and  C_4 
REMARK    5  A    between atoms: C_4  and  C_5 
REMARK    6  A    between atoms: C_8  and  C_9 
REMARK    7  A    between atoms: C_11  and  O_15 
ROOT
HETATM    1  O   UNL     1       9.622   4.838   9.419  1.00  0.00    -0.395 OA
HETATM    2  H   UNL     1      10.290   4.155   9.255  1.00  0.00     0.210 HD
ENDROOT
BRANCH   1   3
HETATM    3  C   UNL     1      10.250   6.122   9.446  1.00  0.00     0.122 C 
BRANCH   3   4
HETATM    4  C   UNL     1      10.934   6.353   8.094  1.00  0.00     0.042 C 
BRANCH   4   5
HETATM    5  C   UNL     1      10.293   5.528   6.981  1.00  0.00     0.116 C 
BRANCH   5   6
HETATM    6  C   UNL     1      10.732   6.032   5.640  1.00  0.00     0.172 C 
HETATM    7  O   UNL     1      11.228   5.368   4.746  1.00  0.00    -0.648 OA
HETATM    8  O   UNL     1      10.495   7.347   5.471  1.00  0.00    -0.648 OA
ENDBRANCH   5   6
ENDBRANCH   4   5
ENDBRANCH   3   4
BRANCH   3   9
HETATM    9  C   UNL     1      11.270   6.213  10.595  1.00  0.00     0.070 C 
BRANCH   9  10
HETATM   10  C   UNL     1      11.152   7.494  11.387  1.00  0.00    -0.053 A 
HETATM   11  C   UNL     1      10.952   7.461  12.773  1.00  0.00     0.043 A 
HETATM   12  C   UNL     1      10.839   8.647  13.491  1.00  0.00     0.066 A 
HETATM   13  C   UNL     1      10.919   9.880  12.853  1.00  0.00     0.036 A 
HETATM   14  C   UNL     1      11.116   9.923  11.473  1.00  0.00     0.003 A 
HETATM   15  C   UNL     1      11.231   8.738  10.742  1.00  0.00     0.007 A 
BRANCH  12  16
HETATM   16  O   UNL     1      10.647   8.555  14.839  1.00  0.00    -0.361 OA
HETATM   17  H   UNL     1       9.781   8.469  15.184  1.00  0.00     0.217 HD
ENDBRANCH  12  16
ENDBRANCH   9  10
ENDBRANCH   3   9
ENDBRANCH   1   3
TORSDOF 7
ENDMDL
MODEL 2
REMARK VINA RESULT:      -6.5      3.072      5.799
REMARK  7 active torsions:
REMARK  status: ('A' for Active; 'I' for Inactive)
REMARK    1  A    between atoms: O_1  and  C_2 
REMARK    2  A    between atoms: C_2  and  C_3 
REMARK    3  A    between atoms: C_2  and  C_8 
REMARK    4  A    between atoms: C_3  and  C_4 
REMARK    5  A    between atoms: C_4  and  C_5 
REMARK    6  A    between atoms: C_8  and  C_9 
REMARK    7  A    between atoms: C_11  and  O_15 
ROOT
HETATM    1  O   UNL     1       9.377   6.350   9.599  1.00  0.00    -0.395 OA
HETATM    2  H   UNL     1       9.217   5.851  10.414  1.00  0.00     0.210 HD
ENDROOT
BRANCH   1   3
HETATM    3  C   UNL     1      10.645   7.004   9.682  1.00  0.00     0.122 C 
BRANCH   3   4
HETATM    4  C   UNL     1      10.405   8.491   9.961  1.00  0.00     0.042 C 
BRANCH   4   5
HETATM    5  C   UNL     1      10.486   8.814  11.450  1.00  0.00     0.116 C 
BRANCH   5   6
HETATM    6  C   UNL     1      11.617   9.760  11.718  1.00  0.00     0.172 C 
HETATM    7  O   UNL     1      12.775   9.617  11.367  1.00  0.00    -0.648 OA
HETATM    8  O   UNL     1      11.230  10.862  12.387  1.00  0.00    -0.648 OA
ENDBRANCH   5   6
ENDBRANCH   4   5
ENDBRANCH   3   4
BRANCH   3   9
HETATM    9  C   UNL     1      11.449   6.815   8.383  1.00  0.00     0.070 C 
BRANCH   9  10
HETATM   10  C   UNL     1      12.943   6.886   8.598  1.00  0.00    -0.053 A 
HETATM   11  C   UNL     1      13.805   7.162   7.530  1.00  0.00     0.043 A 
HETATM   12  C   UNL     1      15.180   7.219   7.738  1.00  0.00     0.066 A 
HETATM   13  C   UNL     1      15.721   7.001   9.001  1.00  0.00     0.036 A 
HETATM   14  C   UNL     1      14.870   6.722  10.070  1.00  0.00     0.003 A 
HETATM   15  C   UNL     1      13.488   6.664   9.871  1.00  0.00     0.007 A 
BRANCH  12  16
HETATM   16  O   UNL     1      15.973   7.494   6.663  1.00  0.00    -0.361 OA
HETATM   17  H   UNL     1      16.268   6.800   6.109  1.00  0.00     0.217 HD
ENDBRANCH  12  16
ENDBRANCH   9  10
ENDBRANCH   3   9
ENDBRANCH   1   3
TORSDOF 7
ENDMDL
MODEL 3
REMARK VINA RESULT:      -6.4      2.887      6.604
REMARK  7 active torsions:
REMARK  status: ('A' for Active; 'I' for Inactive)
REMARK    1  A    between atoms: O_1  and  C_2 
REMARK    2  A    between atoms: C_2  and  C_3 
REMARK    3  A    between atoms: C_2  and  C_8 
REMARK    4  A    between atoms: C_3  and  C_4 
REMARK    5  A    between atoms: C_4  and  C_5 
REMARK    6  A    between atoms: C_8  and  C_9 
REMARK    7  A    between atoms: C_11  and  O_15 
ROOT
HETATM    1  O   UNL     1      10.240   8.566  12.869  1.00  0.00    -0.395 OA
HETATM    2  H   UNL     1      10.113   9.258  13.537  1.00  0.00     0.210 HD
ENDROOT
BRANCH   1   3
HETATM    3  C   UNL     1      11.097   9.054  11.835  1.00  0.00     0.122 C 
BRANCH   3   4
HETATM    4  C   UNL     1      10.987  10.583  11.797  1.00  0.00     0.042 C 
BRANCH   4   5
HETATM    5  C   UNL     1      12.112  11.256  12.577  1.00  0.00     0.116 C 
BRANCH   5   6
HETATM    6  C   UNL     1      12.015  12.746  12.450  1.00  0.00     0.172 C 
HETATM    7  O   UNL     1      12.861  13.556  12.788  1.00  0.00    -0.648 OA
HETATM    8  O   UNL     1      10.868  13.149  11.869  1.00  0.00    -0.648 OA
ENDBRANCH   5   6
ENDBRANCH   4   5
ENDBRANCH   3   4
BRANCH   3   9
HETATM    9  C   UNL     1      10.719   8.446  10.473  1.00  0.00     0.070 C 
BRANCH   9  10
HETATM   10  C   UNL     1      11.917   7.953   9.694  1.00  0.00    -0.053 A 
HETATM   11  C   UNL     1      11.761   7.415   8.410  1.00  0.00     0.043 A 
HETATM   12  C   UNL     1      12.870   6.958   7.705  1.00  0.00     0.066 A 
HETATM   13  C   UNL     1      14.145   7.024   8.258  1.00  0.00     0.036 A 
HETATM   14  C   UNL     1      14.309   7.554   9.536  1.00  0.00     0.003 A 
HETATM   15  C   UNL     1      13.202   8.017  10.252  1.00  0.00     0.007 A 
BRANCH  12  16
HETATM   16  O   UNL     1      12.661   6.447   6.458  1.00  0.00    -0.361 OA
HETATM   17  H   UNL     1      13.389   6.176   5.935  1.00  0.00     0.217 HD
ENDBRANCH  12  16
ENDBRANCH   9  10
ENDBRANCH   3   9
ENDBRANCH   1   3
TORSDOF 7
ENDMDL
MODEL 4
REMARK VINA RESULT:      -6.4      1.599      2.203
REMARK  7 active torsions:
REMARK  status: ('A' for Active; 'I' for Inactive)
REMARK    1  A    between atoms: O_1  and  C_2 
REMARK    2  A    between atoms: C_2  and  C_3 
REMARK    3  A    between atoms: C_2  and  C_8 
REMARK    4  A    between atoms: C_3  and  C_4 
REMARK    5  A    between atoms: C_4  and  C_5 
REMARK    6  A    between atoms: C_8  and  C_9 
REMARK    7  A    between atoms: C_11  and  O_15 
ROOT
HETATM    1  O   UNL     1      13.079   8.052   7.349  1.00  0.00    -0.395 OA
HETATM    2  H   UNL     1      12.611   8.079   6.500  1.00  0.00     0.210 HD
ENDROOT
BRANCH   1   3
HETATM    3  C   UNL     1      12.717   6.862   8.054  1.00  0.00     0.122 C 
BRANCH   3   4
HETATM    4  C   UNL     1      11.197   6.858   8.246  1.00  0.00     0.042 C 
BRANCH   4   5
HETATM    5  C   UNL     1      10.498   5.932   7.255  1.00  0.00     0.116 C 
BRANCH   5   6
HETATM    6  C   UNL     1      10.599   6.484   5.866  1.00  0.00     0.172 C 
HETATM    7  O   UNL     1      10.387   7.636   5.529  1.00  0.00    -0.648 OA
HETATM    8  O   UNL     1      10.998   5.565   4.965  1.00  0.00    -0.648 OA
ENDBRANCH   5   6
ENDBRANCH   4   5
ENDBRANCH   3   4
BRANCH   3   9
HETATM    9  C   UNL     1      13.439   6.784   9.411  1.00  0.00     0.070 C 
BRANCH   9  10
HETATM   10  C   UNL     1      12.751   7.585  10.491  1.00  0.00    -0.053 A 
HETATM   11  C   UNL     1      11.800   6.986  11.328  1.00  0.00     0.043 A 
HETATM   12  C   UNL     1      11.168   7.734  12.315  1.00  0.00     0.066 A 
HETATM   13  C   UNL     1      11.464   9.082  12.490  1.00  0.00     0.036 A 
HETATM   14  C   UNL     1      12.407   9.687  11.661  1.00  0.00     0.003 A 
HETATM   15  C   UNL     1      13.048   8.944  10.666  1.00  0.00     0.007 A 
BRANCH  12  16
HETATM   16  O   UNL     1      10.252   7.100  13.102  1.00  0.00    -0.361 OA
HETATM   17  H   UNL     1       9.514   6.674  12.712  1.00  0.00     0.217 HD
ENDBRANCH  12  16
ENDBRANCH   9  10
ENDBRANCH   3   9
ENDBRANCH   1   3
TORSDOF 7
ENDMDL
MODEL 5
REMARK VINA RESULT:      -6.2      1.961      6.108
REMARK  7 active torsions:
REMARK  status: ('A' for Active; 'I' for Inactive)
REMARK    1  A    between atoms: O_1  and  C_2 
REMARK    2  A    between atoms: C_2  and  C_3 
REMARK    3  A    between atoms: C_2  and  C_8 
REMARK    4  A    between atoms: C_3  and  C_4 
REMARK    5  A    between atoms: C_4  and  C_5 
REMARK    6  A    between atoms: C_8  and  C_9 
REMARK    7  A    between atoms: C_11  and  O_15 
ROOT
HETATM    1  O   UNL     1      10.402   7.235  12.963  1.00  0.00    -0.395 OA
HETATM    2  H   UNL     1      10.227   8.073  13.418  1.00  0.00     0.210 HD
ENDROOT
BRANCH   1   3
HETATM    3  C   UNL     1      11.160   7.486  11.777  1.00  0.00     0.122 C 
BRANCH   3   4
HETATM    4  C   UNL     1      10.661   8.793  11.153  1.00  0.00     0.042 C 
BRANCH   4   5
HETATM    5  C   UNL     1      11.734   9.878  11.165  1.00  0.00     0.116 C 
BRANCH   5   6
HETATM    6  C   UNL     1      11.574  10.756  12.369  1.00  0.00     0.172 C 
HETATM    7  O   UNL     1      12.175  11.792  12.591  1.00  0.00    -0.648 OA
HETATM    8  O   UNL     1      10.637  10.305  13.225  1.00  0.00    -0.648 OA
ENDBRANCH   5   6
ENDBRANCH   4   5
ENDBRANCH   3   4
BRANCH   3   9
HETATM    9  C   UNL     1      11.027   6.320  10.781  1.00  0.00     0.070 C 
BRANCH   9  10
HETATM   10  C   UNL     1      11.814   6.538   9.510  1.00  0.00    -0.053 A 
HETATM   11  C   UNL     1      11.175   6.520   8.263  1.00  0.00     0.043 A 
HETATM   12  C   UNL     1      11.911   6.715   7.099  1.00  0.00     0.066 A 
HETATM   13  C   UNL     1      13.285   6.929   7.149  1.00  0.00     0.036 A 
HETATM   14  C   UNL     1      13.929   6.946   8.384  1.00  0.00     0.003 A 
HETATM   15  C   UNL     1      13.200   6.751   9.560  1.00  0.00     0.007 A 
BRANCH  12  16
HETATM   16  O   UNL     1      11.238   6.690   5.913  1.00  0.00    -0.361 OA
HETATM   17  H   UNL     1      11.630   6.294   5.160  1.00  0.00     0.217 HD
ENDBRANCH  12  16
ENDBRANCH   9  10
ENDBRANCH   3   9
ENDBRANCH   1   3
TORSDOF 7
ENDMDL
MODEL 6
REMARK VINA RESULT:      -6.2      3.543      4.945
REMARK  7 active torsions:
REMARK  status: ('A' for Active; 'I' for Inactive)
REMARK    1  A    between atoms: O_1  and  C_2 
REMARK    2  A    between atoms: C_2  and  C_3 
REMARK    3  A    between atoms: C_2  and  C_8 
REMARK    4  A    between atoms: C_3  and  C_4 
REMARK    5  A    between atoms: C_4  and  C_5 
REMARK    6  A    between atoms: C_8  and  C_9 
REMARK    7  A    between atoms: C_11  and  O_15 
ROOT
HETATM    1  O   UNL     1      11.402   8.663  10.202  1.00  0.00    -0.395 OA
HETATM    2  H   UNL     1      10.599   9.126   9.918  1.00  0.00     0.210 HD
ENDROOT
BRANCH   1   3
HETATM    3  C   UNL     1      11.812   7.751   9.180  1.00  0.00     0.122 C 
BRANCH   3   4
HETATM    4  C   UNL     1      10.557   7.137   8.549  1.00  0.00     0.042 C 
BRANCH   4   5
HETATM    5  C   UNL     1      10.898   6.001   7.589  1.00  0.00     0.116 C 
BRANCH   5   6
HETATM    6  C   UNL     1      10.676   6.433   6.171  1.00  0.00     0.172 C 
HETATM    7  O   UNL     1      11.043   5.842   5.171  1.00  0.00    -0.648 OA
HETATM    8  O   UNL     1       9.969   7.576   6.077  1.00  0.00    -0.648 OA
ENDBRANCH   5   6
ENDBRANCH   4   5
ENDBRANCH   3   4
BRANCH   3   9
HETATM    9  C   UNL     1      12.727   6.655   9.753  1.00  0.00     0.070 C 
BRANCH   9  10
HETATM   10  C   UNL     1      14.170   6.814   9.336  1.00  0.00    -0.053 A 
HETATM   11  C   UNL     1      14.499   7.144   8.014  1.00  0.00     0.043 A 
HETATM   12  C   UNL     1      15.831   7.282   7.639  1.00  0.00     0.066 A 
HETATM   13  C   UNL     1      16.856   7.094   8.561  1.00  0.00     0.036 A 
HETATM   14  C   UNL     1      16.539   6.763   9.877  1.00  0.00     0.003 A 
HETATM   15  C   UNL     1      15.204   6.623  10.264  1.00  0.00     0.007 A 
BRANCH  12  16
HETATM   16  O   UNL     1      16.093   7.607   6.341  1.00  0.00    -0.361 OA
HETATM   17  H   UNL     1      16.834   8.140   6.131  1.00  0.00     0.217 HD
ENDBRANCH  12  16
ENDBRANCH   9  10
ENDBRANCH   3   9
ENDBRANCH   1   3
TORSDOF 7
ENDMDL
MODEL 7
REMARK VINA RESULT:      -6.2      2.531      2.966
REMARK  7 active torsions:
REMARK  status: ('A' for Active; 'I' for Inactive)
REMARK    1  A    between atoms: O_1  and  C_2 
REMARK    2  A    between atoms: C_2  and  C_3 
REMARK    3  A    between atoms: C_2  and  C_8 
REMARK    4  A    between atoms: C_3  and  C_4 
REMARK    5  A    between atoms: C_4  and  C_5 
REMARK    6  A    between atoms: C_8  and  C_9 
REMARK    7  A    between atoms: C_11  and  O_15 
ROOT
HETATM    1  O   UNL     1      10.031   6.514   7.929  1.00  0.00    -0.395 OA
HETATM    2  H   UNL     1      10.244   6.527   6.983  1.00  0.00     0.210 HD
ENDROOT
BRANCH   1   3
HETATM    3  C   UNL     1      11.076   7.161   8.660  1.00  0.00     0.122 C 
BRANCH   3   4
HETATM    4  C   UNL     1      12.407   6.871   7.960  1.00  0.00     0.042 C 
BRANCH   4   5
HETATM    5  C   UNL     1      13.574   6.833   8.943  1.00  0.00     0.116 C 
BRANCH   5   6
HETATM    6  C   UNL     1      14.282   8.154   8.961  1.00  0.00     0.172 C 
HETATM    7  O   UNL     1      14.181   9.039   8.129  1.00  0.00    -0.648 OA
HETATM    8  O   UNL     1      15.063   8.315  10.046  1.00  0.00    -0.648 OA
ENDBRANCH   5   6
ENDBRANCH   4   5
ENDBRANCH   3   4
BRANCH   3   9
HETATM    9  C   UNL     1      11.109   6.674  10.120  1.00  0.00     0.070 C 
BRANCH   9  10
HETATM   10  C   UNL     1      11.057   7.805  11.120  1.00  0.00    -0.053 A 
HETATM   11  C   UNL     1      10.929   7.542  12.490  1.00  0.00     0.043 A 
HETATM   12  C   UNL     1      10.875   8.591  13.401  1.00  0.00     0.066 A 
HETATM   13  C   UNL     1      10.944   9.913  12.974  1.00  0.00     0.036 A 
HETATM   14  C   UNL     1      11.069  10.185  11.613  1.00  0.00     0.003 A 
HETATM   15  C   UNL     1      11.124   9.139  10.689  1.00  0.00     0.007 A 
BRANCH  12  16
HETATM   16  O   UNL     1      10.753   8.277  14.723  1.00  0.00    -0.361 OA
HETATM   17  H   UNL     1      10.974   7.417  15.022  1.00  0.00     0.217 HD
ENDBRANCH  12  16
ENDBRANCH   9  10
ENDBRANCH   3   9
ENDBRANCH   1   3
TORSDOF 7
ENDMDL
MODEL 8
REMARK VINA RESULT:      -6.2      3.661      6.231
REMARK  7 active torsions:
REMARK  status: ('A' for Active; 'I' for Inactive)
REMARK    1  A    between atoms: O_1  and  C_2 
REMARK    2  A    between atoms: C_2  and  C_3 
REMARK    3  A    between atoms: C_2  and  C_8 
REMARK    4  A    between atoms: C_3  and  C_4 
REMARK    5  A    between atoms: C_4  and  C_5 
REMARK    6  A    between atoms: C_8  and  C_9 
REMARK    7  A    between atoms: C_11  and  O_15 
ROOT
HETATM    1  O   UNL     1       9.708   8.965  12.867  1.00  0.00    -0.395 OA
HETATM    2  H   UNL     1       9.994   9.082  13.786  1.00  0.00     0.210 HD
ENDROOT
BRANCH   1   3
HETATM    3  C   UNL     1      10.815   9.191  11.991  1.00  0.00     0.122 C 
BRANCH   3   4
HETATM    4  C   UNL     1      10.928  10.697  11.733  1.00  0.00     0.042 C 
BRANCH   4   5
HETATM    5  C   UNL     1      12.105  11.317  12.481  1.00  0.00     0.116 C 
BRANCH   5   6
HETATM    6  C   UNL     1      12.061  12.812  12.374  1.00  0.00     0.172 C 
HETATM    7  O   UNL     1      12.923  13.588  12.750  1.00  0.00    -0.648 OA
HETATM    8  O   UNL     1      10.947  13.261  11.766  1.00  0.00    -0.648 OA
ENDBRANCH   5   6
ENDBRANCH   4   5
ENDBRANCH   3   4
BRANCH   3   9
HETATM    9  C   UNL     1      10.637   8.423  10.669  1.00  0.00     0.070 C 
BRANCH   9  10
HETATM   10  C   UNL     1      11.936   7.870  10.129  1.00  0.00    -0.053 A 
HETATM   11  C   UNL     1      12.885   7.306  10.992  1.00  0.00     0.043 A 
HETATM   12  C   UNL     1      14.079   6.806  10.485  1.00  0.00     0.066 A 
HETATM   13  C   UNL     1      14.355   6.857   9.123  1.00  0.00     0.036 A 
HETATM   14  C   UNL     1      13.418   7.419   8.257  1.00  0.00     0.003 A 
HETATM   15  C   UNL     1      12.215   7.923   8.756  1.00  0.00     0.007 A 
BRANCH  12  16
HETATM   16  O   UNL     1      14.966   6.266  11.370  1.00  0.00    -0.361 OA
HETATM   17  H   UNL     1      14.655   5.764  12.097  1.00  0.00     0.217 HD
ENDBRANCH  12  16
ENDBRANCH   9  10
ENDBRANCH   3   9
ENDBRANCH   1   3
TORSDOF 7
ENDMDL
MODEL 9
REMARK VINA RESULT:      -6.1      2.665      6.286
REMARK  7 active torsions:
REMARK  status: ('A' for Active; 'I' for Inactive)
REMARK    1  A    between atoms: O_1  and  C_2 
REMARK    2  A    between atoms: C_2  and  C_3 
REMARK    3  A    between atoms: C_2  and  C_8 
REMARK    4  A    between atoms: C_3  and  C_4 
REMARK    5  A    between atoms: C_4  and  C_5 
REMARK    6  A    between atoms: C_8  and  C_9 
REMARK    7  A    between atoms: C_11  and  O_15 
ROOT
HETATM    1  O   UNL     1      10.378   7.684  12.963  1.00  0.00    -0.395 OA
HETATM    2  H   UNL     1       9.519   7.456  12.576  1.00  0.00     0.210 HD
ENDROOT
BRANCH   1   3
HETATM    3  C   UNL     1      11.213   8.268  11.961  1.00  0.00     0.122 C 
BRANCH   3   4
HETATM    4  C   UNL     1      11.684   9.637  12.462  1.00  0.00     0.042 C 
BRANCH   4   5
HETATM    5  C   UNL     1      10.868  10.777  11.860  1.00  0.00     0.116 C 
BRANCH   5   6
HETATM    6  C   UNL     1      11.496  12.098  12.189  1.00  0.00     0.172 C 
HETATM    7  O   UNL     1      11.036  13.198  11.937  1.00  0.00    -0.648 OA
HETATM    8  O   UNL     1      12.661  11.973  12.853  1.00  0.00    -0.648 OA
ENDBRANCH   5   6
ENDBRANCH   4   5
ENDBRANCH   3   4
BRANCH   3   9
HETATM    9  C   UNL     1      10.459   8.405  10.626  1.00  0.00     0.070 C 
BRANCH   9  10
HETATM   10  C   UNL     1      11.258   7.910   9.444  1.00  0.00    -0.053 A 
HETATM   11  C   UNL     1      12.540   8.415   9.188  1.00  0.00     0.043 A 
HETATM   12  C   UNL     1      13.265   7.957   8.092  1.00  0.00     0.066 A 
HETATM   13  C   UNL     1      12.735   6.999   7.234  1.00  0.00     0.036 A 
HETATM   14  C   UNL     1      11.460   6.493   7.480  1.00  0.00     0.003 A 
HETATM   15  C   UNL     1      10.723   6.945   8.578  1.00  0.00     0.007 A 
BRANCH  12  16
HETATM   16  O   UNL     1      14.508   8.481   7.892  1.00  0.00    -0.361 OA
HETATM   17  H   UNL     1      14.862   9.096   8.504  1.00  0.00     0.217 HD
ENDBRANCH  12  16
ENDBRANCH   9  10
ENDBRANCH   3   9
ENDBRANCH   1   3
TORSDOF 7
ENDMDL
