MODEL 1
REMARK VINA RESULT:      -6.7      0.000      0.000
REMARK  7 active torsions:
REMARK  status: ('A' for Active; 'I' for Inactive)
REMARK    1  A    between atoms: O_1  and  C_2 
REMARK    2  A    between atoms: C_2  and  C_3 
REMARK    3  A    between atoms: C_2  and  C_8 
REMARK    4  A    between atoms: C_3  and  C_4 
REMARK    5  A    between atoms: C_4  and  C_5 
REMARK    6  A    between atoms: C_8  and  C_9 
REMARK    7  A    between atoms: C_11  and  O_15 
ROOT
HETATM    1  O   UNL     1       9.700   4.848   9.361  1.00  0.00    -0.395 OA
HETATM    2  H   UNL     1      10.128   4.391   8.620  1.00  0.00     0.210 HD
ENDROOT
BRANCH   1   3
HETATM    3  C   UNL     1      10.128   6.211   9.392  1.00  0.00     0.122 C 
BRANCH   3   4
HETATM    4  C   UNL     1      10.520   6.627   7.970  1.00  0.00     0.042 C 
BRANCH   4   5
HETATM    5  C   UNL     1      10.364   5.479   6.976  1.00  0.00     0.116 C 
BRANCH   5   6
HETATM    6  C   UNL     1      10.829   5.902   5.615  1.00  0.00     0.172 C 
HETATM    7  O   UNL     1      11.307   5.178   4.759  1.00  0.00    -0.648 OA
HETATM    8  O   UNL     1      10.639   7.214   5.381  1.00  0.00    -0.648 OA
ENDBRANCH   5   6
ENDBRANCH   4   5
ENDBRANCH   3   4
BRANCH   3   9
HETATM    9  C   UNL     1      11.310   6.396  10.360  1.00  0.00     0.070 C 
BRANCH   9  10
HETATM   10  C   UNL     1      11.171   7.622  11.233  1.00  0.00    -0.053 A 
HETATM   11  C   UNL     1      10.960   7.495  12.612  1.00  0.00     0.043 A 
HETATM   12  C   UNL     1      10.827   8.630  13.405  1.00  0.00     0.066 A 
HETATM   13  C   UNL     1      10.898   9.903  12.850  1.00  0.00     0.036 A 
HETATM   14  C   UNL     1      11.105  10.038  11.478  1.00  0.00     0.003 A 
HETATM   15  C   UNL     1      11.240   8.905  10.672  1.00  0.00     0.007 A 
BRANCH  12  16
HETATM   16  O   UNL     1      10.625   8.448  14.742  1.00  0.00    -0.361 OA
HETATM   17  H   UNL     1       9.999   7.818  15.040  1.00  0.00     0.217 HD
ENDBRANCH  12  16
ENDBRANCH   9  10
ENDBRANCH   3   9
ENDBRANCH   1   3
TORSDOF 7
ENDMDL
MODEL 2
REMARK VINA RESULT:      -6.6      3.099      5.855
REMARK  7 active torsions:
REMARK  status: ('A' for Active; 'I' for Inactive)
REMARK    1  A    between atoms: O_1  and  C_2 
REMARK    2  A    between atoms: C_2  and  C_3 
REMARK    3  A    between atoms: C_2  and  C_8 
REMARK    4  A    between atoms: C_3  and  C_4 
REMARK    5  A    between atoms: C_4  and  C_5 
REMARK    6  A    between atoms: C_8  and  C_9 
REMARK    7  A    between atoms: C_11  and  O_15 
ROOT
HETATM    1  O   UNL     1       9.360   6.325   9.614  1.00  0.00    -0.395 OA
HETATM    2  H   UNL     1       9.486   5.393   9.851  1.00  0.00     0.210 HD
ENDROOT
BRANCH   1   3
HETATM    3  C   UNL     1      10.612   7.010   9.692  1.00  0.00     0.122 C 
BRANCH   3   4
HETATM    4  C   UNL     1      10.338   8.483  10.012  1.00  0.00     0.042 C 
BRANCH   4   5
HETATM    5  C   UNL     1      10.473   8.778  11.503  1.00  0.00     0.116 C 
BRANCH   5   6
HETATM    6  C   UNL     1      11.376   9.954  11.722  1.00  0.00     0.172 C 
HETATM    7  O   UNL     1      11.028  11.112  11.878  1.00  0.00    -0.648 OA
HETATM    8  O   UNL     1      12.678   9.613  11.769  1.00  0.00    -0.648 OA
ENDBRANCH   5   6
ENDBRANCH   4   5
ENDBRANCH   3   4
BRANCH   3   9
HETATM    9  C   UNL     1      11.397   6.874   8.375  1.00  0.00     0.070 C 
BRANCH   9  10
HETATM   10  C   UNL     1      12.894   6.921   8.574  1.00  0.00    -0.053 A 
HETATM   11  C   UNL     1      13.750   7.170   7.493  1.00  0.00     0.043 A 
HETATM   12  C   UNL     1      15.127   7.205   7.687  1.00  0.00     0.066 A 
HETATM   13  C   UNL     1      15.678   6.993   8.946  1.00  0.00     0.036 A 
HETATM   14  C   UNL     1      14.834   6.742  10.027  1.00  0.00     0.003 A 
HETATM   15  C   UNL     1      13.450   6.705   9.844  1.00  0.00     0.007 A 
BRANCH  12  16
HETATM   16  O   UNL     1      15.913   7.454   6.600  1.00  0.00    -0.361 OA
HETATM   17  H   UNL     1      15.901   6.869   5.868  1.00  0.00     0.217 HD
ENDBRANCH  12  16
ENDBRANCH   9  10
ENDBRANCH   3   9
ENDBRANCH   1   3
TORSDOF 7
ENDMDL
MODEL 3
REMARK VINA RESULT:      -6.5      1.586      2.023
REMARK  7 active torsions:
REMARK  status: ('A' for Active; 'I' for Inactive)
REMARK    1  A    between atoms: O_1  and  C_2 
REMARK    2  A    between atoms: C_2  and  C_3 
REMARK    3  A    between atoms: C_2  and  C_8 
REMARK    4  A    between atoms: C_3  and  C_4 
REMARK    5  A    between atoms: C_4  and  C_5 
REMARK    6  A    between atoms: C_8  and  C_9 
REMARK    7  A    between atoms: C_11  and  O_15 
ROOT
HETATM    1  O   UNL     1      12.995   8.193   7.315  1.00  0.00    -0.395 OA
HETATM    2  H   UNL     1      12.335   8.869   7.532  1.00  0.00     0.210 HD
ENDROOT
BRANCH   1   3
HETATM    3  C   UNL     1      12.654   6.967   7.966  1.00  0.00     0.122 C 
BRANCH   3   4
HETATM    4  C   UNL     1      11.135   6.932   8.165  1.00  0.00     0.042 C 
BRANCH   4   5
HETATM    5  C   UNL     1      10.462   5.909   7.254  1.00  0.00     0.116 C 
BRANCH   5   6
HETATM    6  C   UNL     1      10.668   6.278   5.816  1.00  0.00     0.172 C 
HETATM    7  O   UNL     1      11.018   5.527   4.922  1.00  0.00    -0.648 OA
HETATM    8  O   UNL     1      10.389   7.570   5.561  1.00  0.00    -0.648 OA
ENDBRANCH   5   6
ENDBRANCH   4   5
ENDBRANCH   3   4
BRANCH   3   9
HETATM    9  C   UNL     1      13.385   6.836   9.314  1.00  0.00     0.070 C 
BRANCH   9  10
HETATM   10  C   UNL     1      12.710   7.603  10.427  1.00  0.00    -0.053 A 
HETATM   11  C   UNL     1      11.769   6.978  11.256  1.00  0.00     0.043 A 
HETATM   12  C   UNL     1      11.150   7.696  12.274  1.00  0.00     0.066 A 
HETATM   13  C   UNL     1      11.447   9.038  12.486  1.00  0.00     0.036 A 
HETATM   14  C   UNL     1      12.380   9.669  11.664  1.00  0.00     0.003 A 
HETATM   15  C   UNL     1      13.009   8.957  10.639  1.00  0.00     0.007 A 
BRANCH  12  16
HETATM   16  O   UNL     1      10.244   7.037  13.052  1.00  0.00    -0.361 OA
HETATM   17  H   UNL     1      10.502   6.270  13.524  1.00  0.00     0.217 HD
ENDBRANCH  12  16
ENDBRANCH   9  10
ENDBRANCH   3   9
ENDBRANCH   1   3
TORSDOF 7
ENDMDL
MODEL 4
REMARK VINA RESULT:      -6.4      2.960      6.574
REMARK  7 active torsions:
REMARK  status: ('A' for Active; 'I' for Inactive)
REMARK    1  A    between atoms: O_1  and  C_2 
REMARK    2  A    between atoms: C_2  and  C_3 
REMARK    3  A    between atoms: C_2  and  C_8 
REMARK    4  A    between atoms: C_3  and  C_4 
REMARK    5  A    between atoms: C_4  and  C_5 
REMARK    6  A    between atoms: C_8  and  C_9 
REMARK    7  A    between atoms: C_11  and  O_15 
ROOT
HETATM    1  O   UNL     1      10.038   8.799  13.090  1.00  0.00    -0.395 OA
HETATM    2  H   UNL     1      10.224   9.333  13.878  1.00  0.00     0.210 HD
ENDROOT
BRANCH   1   3
HETATM    3  C   UNL     1      10.966   9.138  12.057  1.00  0.00     0.122 C 
BRANCH   3   4
HETATM    4  C   UNL     1      10.894  10.650  11.820  1.00  0.00     0.042 C 
BRANCH   4   5
HETATM    5  C   UNL     1      12.075  11.383  12.451  1.00  0.00     0.116 C 
BRANCH   5   6
HETATM    6  C   UNL     1      11.917  12.864  12.285  1.00  0.00     0.172 C 
HETATM    7  O   UNL     1      10.972  13.436  11.770  1.00  0.00    -0.648 OA
HETATM    8  O   UNL     1      12.944  13.562  12.807  1.00  0.00    -0.648 OA
ENDBRANCH   5   6
ENDBRANCH   4   5
ENDBRANCH   3   4
BRANCH   3   9
HETATM    9  C   UNL     1      10.654   8.367  10.761  1.00  0.00     0.070 C 
BRANCH   9  10
HETATM   10  C   UNL     1      11.897   7.905  10.037  1.00  0.00    -0.053 A 
HETATM   11  C   UNL     1      11.839   7.532   8.687  1.00  0.00     0.043 A 
HETATM   12  C   UNL     1      12.988   7.102   8.032  1.00  0.00     0.066 A 
HETATM   13  C   UNL     1      14.207   7.032   8.697  1.00  0.00     0.036 A 
HETATM   14  C   UNL     1      14.273   7.398  10.041  1.00  0.00     0.003 A 
HETATM   15  C   UNL     1      13.126   7.832  10.708  1.00  0.00     0.007 A 
BRANCH  12  16
HETATM   16  O   UNL     1      12.874   6.754   6.718  1.00  0.00    -0.361 OA
HETATM   17  H   UNL     1      13.481   7.092   6.089  1.00  0.00     0.217 HD
ENDBRANCH  12  16
ENDBRANCH   9  10
ENDBRANCH   3   9
ENDBRANCH   1   3
TORSDOF 7
ENDMDL
MODEL 5
REMARK VINA RESULT:      -6.3      3.437      4.852
REMARK  7 active torsions:
REMARK  status: ('A' for Active; 'I' for Inactive)
REMARK    1  A    between atoms: O_1  and  C_2 
REMARK    2  A    between atoms: C_2  and  C_3 
REMARK    3  A    between atoms: C_2  and  C_8 
REMARK    4  A    between atoms: C_3  and  C_4 
REMARK    5  A    between atoms: C_4  and  C_5 
REMARK    6  A    between atoms: C_8  and  C_9 
REMARK    7  A    between atoms: C_11  and  O_15 
ROOT
HETATM    1  O   UNL     1      11.236   8.626  10.084  1.00  0.00    -0.395 OA
HETATM    2  H   UNL     1      10.332   8.447  10.385  1.00  0.00     0.210 HD
ENDROOT
BRANCH   1   3
HETATM    3  C   UNL     1      11.626   7.633   9.132  1.00  0.00     0.122 C 
BRANCH   3   4
HETATM    4  C   UNL     1      10.359   6.976   8.573  1.00  0.00     0.042 C 
BRANCH   4   5
HETATM    5  C   UNL     1      10.680   5.924   7.516  1.00  0.00     0.116 C 
BRANCH   5   6
HETATM    6  C   UNL     1      10.694   6.543   6.151  1.00  0.00     0.172 C 
HETATM    7  O   UNL     1      10.266   7.645   5.855  1.00  0.00    -0.648 OA
HETATM    8  O   UNL     1      11.279   5.758   5.226  1.00  0.00    -0.648 OA
ENDBRANCH   5   6
ENDBRANCH   4   5
ENDBRANCH   3   4
BRANCH   3   9
HETATM    9  C   UNL     1      12.546   6.582   9.777  1.00  0.00     0.070 C 
BRANCH   9  10
HETATM   10  C   UNL     1      14.002   6.776   9.423  1.00  0.00    -0.053 A 
HETATM   11  C   UNL     1      14.383   7.072   8.107  1.00  0.00     0.043 A 
HETATM   12  C   UNL     1      15.726   7.242   7.790  1.00  0.00     0.066 A 
HETATM   13  C   UNL     1      16.712   7.121   8.765  1.00  0.00     0.036 A 
HETATM   14  C   UNL     1      16.342   6.825  10.076  1.00  0.00     0.003 A 
HETATM   15  C   UNL     1      14.996   6.652  10.405  1.00  0.00     0.007 A 
BRANCH  12  16
HETATM   16  O   UNL     1      16.040   7.531   6.495  1.00  0.00    -0.361 OA
HETATM   17  H   UNL     1      15.602   7.086   5.796  1.00  0.00     0.217 HD
ENDBRANCH  12  16
ENDBRANCH   9  10
ENDBRANCH   3   9
ENDBRANCH   1   3
TORSDOF 7
ENDMDL
MODEL 6
REMARK VINA RESULT:      -6.3      2.471      2.699
REMARK  7 active torsions:
REMARK  status: ('A' for Active; 'I' for Inactive)
REMARK    1  A    between atoms: O_1  and  C_2 
REMARK    2  A    between atoms: C_2  and  C_3 
REMARK    3  A    between atoms: C_2  and  C_8 
REMARK    4  A    between atoms: C_3  and  C_4 
REMARK    5  A    between atoms: C_4  and  C_5 
REMARK    6  A    between atoms: C_8  and  C_9 
REMARK    7  A    between atoms: C_11  and  O_15 
ROOT
HETATM    1  O   UNL     1       9.863   6.432   7.965  1.00  0.00    -0.395 OA
HETATM    2  H   UNL     1       9.230   6.214   8.666  1.00  0.00     0.210 HD
ENDROOT
BRANCH   1   3
HETATM    3  C   UNL     1      11.006   7.072   8.536  1.00  0.00     0.122 C 
BRANCH   3   4
HETATM    4  C   UNL     1      12.224   6.759   7.660  1.00  0.00     0.042 C 
BRANCH   4   5
HETATM    5  C   UNL     1      13.306   7.827   7.783  1.00  0.00     0.116 C 
BRANCH   5   6
HETATM    6  C   UNL     1      14.619   7.199   8.141  1.00  0.00     0.172 C 
HETATM    7  O   UNL     1      15.587   7.084   7.409  1.00  0.00    -0.648 OA
HETATM    8  O   UNL     1      14.667   6.774   9.418  1.00  0.00    -0.648 OA
ENDBRANCH   5   6
ENDBRANCH   4   5
ENDBRANCH   3   4
BRANCH   3   9
HETATM    9  C   UNL     1      11.238   6.598   9.982  1.00  0.00     0.070 C 
BRANCH   9  10
HETATM   10  C   UNL     1      11.133   7.717  10.992  1.00  0.00    -0.053 A 
HETATM   11  C   UNL     1      11.004   7.434  12.359  1.00  0.00     0.043 A 
HETATM   12  C   UNL     1      10.902   8.471  13.280  1.00  0.00     0.066 A 
HETATM   13  C   UNL     1      10.924   9.799  12.866  1.00  0.00     0.036 A 
HETATM   14  C   UNL     1      11.050  10.090  11.509  1.00  0.00     0.003 A 
HETATM   15  C   UNL     1      11.154   9.056  10.575  1.00  0.00     0.007 A 
BRANCH  12  16
HETATM   16  O   UNL     1      10.780   8.139  14.597  1.00  0.00    -0.361 OA
HETATM   17  H   UNL     1      10.080   8.495  15.107  1.00  0.00     0.217 HD
ENDBRANCH  12  16
ENDBRANCH   9  10
ENDBRANCH   3   9
ENDBRANCH   1   3
TORSDOF 7
ENDMDL
MODEL 7
REMARK VINA RESULT:      -6.3      2.052      6.056
REMARK  7 active torsions:
REMARK  status: ('A' for Active; 'I' for Inactive)
REMARK    1  A    between atoms: O_1  and  C_2 
REMARK    2  A    between atoms: C_2  and  C_3 
REMARK    3  A    between atoms: C_2  and  C_8 
REMARK    4  A    between atoms: C_3  and  C_4 
REMARK    5  A    between atoms: C_4  and  C_5 
REMARK    6  A    between atoms: C_8  and  C_9 
REMARK    7  A    between atoms: C_11  and  O_15 
ROOT
HETATM    1  O   UNL     1      10.244   7.336  12.988  1.00  0.00    -0.395 OA
HETATM    2  H   UNL     1       9.768   8.162  13.167  1.00  0.00     0.210 HD
ENDROOT
BRANCH   1   3
HETATM    3  C   UNL     1      11.159   7.537  11.909  1.00  0.00     0.122 C 
BRANCH   3   4
HETATM    4  C   UNL     1      10.733   8.793  11.142  1.00  0.00     0.042 C 
BRANCH   4   5
HETATM    5  C   UNL     1      11.819   9.865  11.151  1.00  0.00     0.116 C 
BRANCH   5   6
HETATM    6  C   UNL     1      11.612  10.807  12.298  1.00  0.00     0.172 C 
HETATM    7  O   UNL     1      12.167  11.880  12.459  1.00  0.00    -0.648 OA
HETATM    8  O   UNL     1      10.687  10.371  13.174  1.00  0.00    -0.648 OA
ENDBRANCH   5   6
ENDBRANCH   4   5
ENDBRANCH   3   4
BRANCH   3   9
HETATM    9  C   UNL     1      11.192   6.313  10.977  1.00  0.00     0.070 C 
BRANCH   9  10
HETATM   10  C   UNL     1      11.942   6.570   9.691  1.00  0.00    -0.053 A 
HETATM   11  C   UNL     1      11.256   6.674   8.474  1.00  0.00     0.043 A 
HETATM   12  C   UNL     1      11.958   6.905   7.295  1.00  0.00     0.066 A 
HETATM   13  C   UNL     1      13.343   7.034   7.301  1.00  0.00     0.036 A 
HETATM   14  C   UNL     1      14.033   6.930   8.507  1.00  0.00     0.003 A 
HETATM   15  C   UNL     1      13.339   6.699   9.697  1.00  0.00     0.007 A 
BRANCH  12  16
HETATM   16  O   UNL     1      11.240   7.000   6.139  1.00  0.00    -0.361 OA
HETATM   17  H   UNL     1      10.600   6.348   5.930  1.00  0.00     0.217 HD
ENDBRANCH  12  16
ENDBRANCH   9  10
ENDBRANCH   3   9
ENDBRANCH   1   3
TORSDOF 7
ENDMDL
MODEL 8
REMARK VINA RESULT:      -6.1      4.183      5.480
REMARK  7 active torsions:
REMARK  status: ('A' for Active; 'I' for Inactive)
REMARK    1  A    between atoms: O_1  and  C_2 
REMARK    2  A    between atoms: C_2  and  C_3 
REMARK    3  A    between atoms: C_2  and  C_8 
REMARK    4  A    between atoms: C_3  and  C_4 
REMARK    5  A    between atoms: C_4  and  C_5 
REMARK    6  A    between atoms: C_8  and  C_9 
REMARK    7  A    between atoms: C_11  and  O_15 
ROOT
HETATM    1  O   UNL     1      13.093   8.542   7.250  1.00  0.00    -0.395 OA
HETATM    2  H   UNL     1      13.154   8.352   6.301  1.00  0.00     0.210 HD
ENDROOT
BRANCH   1   3
HETATM    3  C   UNL     1      13.160   7.318   7.985  1.00  0.00     0.122 C 
BRANCH   3   4
HETATM    4  C   UNL     1      11.749   6.724   8.063  1.00  0.00     0.042 C 
BRANCH   4   5
HETATM    5  C   UNL     1      10.940   7.006   6.801  1.00  0.00     0.116 C 
BRANCH   5   6
HETATM    6  C   UNL     1      10.753   5.747   6.010  1.00  0.00     0.172 C 
HETATM    7  O   UNL     1      11.152   5.541   4.877  1.00  0.00    -0.648 OA
HETATM    8  O   UNL     1      10.101   4.789   6.696  1.00  0.00    -0.648 OA
ENDBRANCH   5   6
ENDBRANCH   4   5
ENDBRANCH   3   4
BRANCH   3   9
HETATM    9  C   UNL     1      13.733   7.551   9.394  1.00  0.00     0.070 C 
BRANCH   9  10
HETATM   10  C   UNL     1      15.127   6.994   9.563  1.00  0.00    -0.053 A 
HETATM   11  C   UNL     1      16.012   6.946   8.478  1.00  0.00     0.043 A 
HETATM   12  C   UNL     1      17.292   6.425   8.643  1.00  0.00     0.066 A 
HETATM   13  C   UNL     1      17.714   5.944   9.879  1.00  0.00     0.036 A 
HETATM   14  C   UNL     1      16.839   5.986  10.963  1.00  0.00     0.003 A 
HETATM   15  C   UNL     1      15.552   6.508  10.808  1.00  0.00     0.007 A 
BRANCH  12  16
HETATM   16  O   UNL     1      18.113   6.404   7.554  1.00  0.00    -0.361 OA
HETATM   17  H   UNL     1      17.747   6.425   6.692  1.00  0.00     0.217 HD
ENDBRANCH  12  16
ENDBRANCH   9  10
ENDBRANCH   3   9
ENDBRANCH   1   3
TORSDOF 7
ENDMDL
MODEL 9
REMARK VINA RESULT:      -6.1      2.865      6.701
REMARK  7 active torsions:
REMARK  status: ('A' for Active; 'I' for Inactive)
REMARK    1  A    between atoms: O_1  and  C_2 
REMARK    2  A    between atoms: C_2  and  C_3 
REMARK    3  A    between atoms: C_2  and  C_8 
REMARK    4  A    between atoms: C_3  and  C_4 
REMARK    5  A    between atoms: C_4  and  C_5 
REMARK    6  A    between atoms: C_8  and  C_9 
REMARK    7  A    between atoms: C_11  and  O_15 
ROOT
HETATM    1  O   UNL     1      12.916   8.620  12.173  1.00  0.00    -0.395 OA
HETATM    2  H   UNL     1      12.945   7.658  12.057  1.00  0.00     0.210 HD
ENDROOT
BRANCH   1   3
HETATM    3  C   UNL     1      12.004   9.187  11.230  1.00  0.00     0.122 C 
BRANCH   3   4
HETATM    4  C   UNL     1      11.329  10.400  11.879  1.00  0.00     0.042 C 
BRANCH   4   5
HETATM    5  C   UNL     1      12.327  11.271  12.637  1.00  0.00     0.116 C 
BRANCH   5   6
HETATM    6  C   UNL     1      12.063  12.722  12.367  1.00  0.00     0.172 C 
HETATM    7  O   UNL     1      12.802  13.652  12.637  1.00  0.00    -0.648 OA
HETATM    8  O   UNL     1      10.892  12.932  11.736  1.00  0.00    -0.648 OA
ENDBRANCH   5   6
ENDBRANCH   4   5
ENDBRANCH   3   4
BRANCH   3   9
HETATM    9  C   UNL     1      10.955   8.152  10.786  1.00  0.00     0.070 C 
BRANCH   9  10
HETATM   10  C   UNL     1      11.249   7.559   9.428  1.00  0.00    -0.053 A 
HETATM   11  C   UNL     1      12.492   7.764   8.814  1.00  0.00     0.043 A 
HETATM   12  C   UNL     1      12.750   7.220   7.560  1.00  0.00     0.066 A 
HETATM   13  C   UNL     1      11.786   6.469   6.895  1.00  0.00     0.036 A 
HETATM   14  C   UNL     1      10.546   6.262   7.497  1.00  0.00     0.003 A 
HETATM   15  C   UNL     1      10.277   6.803   8.756  1.00  0.00     0.007 A 
BRANCH  12  16
HETATM   16  O   UNL     1      13.977   7.449   7.010  1.00  0.00    -0.361 OA
HETATM   17  H   UNL     1      14.260   6.948   6.271  1.00  0.00     0.217 HD
ENDBRANCH  12  16
ENDBRANCH   9  10
ENDBRANCH   3   9
ENDBRANCH   1   3
TORSDOF 7
ENDMDL
