MODEL 1
REMARK VINA RESULT:      -6.4      0.000      0.000
REMARK  6 active torsions:
REMARK  status: ('A' for Active; 'I' for Inactive)
REMARK    1  A    between atoms: O_1  and  C_11 
REMARK    2  A    between atoms: C_4  and  C_5 
REMARK    3  A    between atoms: C_4  and  C_6 
REMARK    4  A    between atoms: C_5  and  C_7 
REMARK    5  A    between atoms: C_6  and  C_8 
REMARK    6  A    between atoms: C_8  and  C_12 
ROOT
HETATM    1  O   UNL     1       6.288  -7.614  56.667  1.00  0.00    -0.361 OA
HETATM    2  H   UNL     1       6.964  -8.066  56.202  1.00  0.00     0.217 HD
ENDROOT
BRANCH   1   3
HETATM    3  C   UNL     1       4.986  -7.780  56.308  1.00  0.00     0.066 A 
HETATM    4  C   UNL     1       4.414  -9.052  56.326  1.00  0.00     0.043 A 
HETATM    5  C   UNL     1       3.086  -9.206  55.958  1.00  0.00    -0.056 A 
HETATM    6  C   UNL     1       2.317  -8.118  55.571  1.00  0.00     0.007 A 
HETATM    7  C   UNL     1       2.889  -6.847  55.554  1.00  0.00     0.003 A 
HETATM    8  C   UNL     1       4.224  -6.677  55.923  1.00  0.00     0.036 A 
BRANCH   5   9
HETATM    9  C   UNL     1       2.468 -10.581  55.975  1.00  0.00     0.038 C 
BRANCH   9  10
HETATM   10  C   UNL     1       1.708 -10.937  54.692  1.00  0.00     0.005 C 
BRANCH  10  11
HETATM   11  C   UNL     1       0.366 -11.630  54.964  1.00  0.00     0.011 C 
BRANCH  11  12
HETATM   12  C   UNL     1      -0.826 -10.693  54.754  1.00  0.00     0.113 C 
BRANCH  12  13
HETATM   13  C   UNL     1      -1.665 -10.504  55.998  1.00  0.00     0.172 C 
HETATM   14  O   UNL     1      -0.938  -9.963  57.010  1.00  0.00    -0.648 OA
HETATM   15  O   UNL     1      -2.853 -10.774  56.101  1.00  0.00    -0.648 OA
ENDBRANCH  12  13
ENDBRANCH  11  12
ENDBRANCH  10  11
ENDBRANCH   9  10
ENDBRANCH   5   9
ENDBRANCH   1   3
TORSDOF 6
ENDMDL
MODEL 2
REMARK VINA RESULT:      -6.3      1.041      1.825
REMARK  6 active torsions:
REMARK  status: ('A' for Active; 'I' for Inactive)
REMARK    1  A    between atoms: O_1  and  C_11 
REMARK    2  A    between atoms: C_4  and  C_5 
REMARK    3  A    between atoms: C_4  and  C_6 
REMARK    4  A    between atoms: C_5  and  C_7 
REMARK    5  A    between atoms: C_6  and  C_8 
REMARK    6  A    between atoms: C_8  and  C_12 
ROOT
HETATM    1  O   UNL     1       6.281  -7.664  56.635  1.00  0.00    -0.361 OA
HETATM    2  H   UNL     1       6.154  -6.737  56.581  1.00  0.00     0.217 HD
ENDROOT
BRANCH   1   3
HETATM    3  C   UNL     1       5.216  -8.504  56.522  1.00  0.00     0.066 A 
HETATM    4  C   UNL     1       4.312  -8.348  55.470  1.00  0.00     0.043 A 
HETATM    5  C   UNL     1       3.232  -9.212  55.369  1.00  0.00    -0.056 A 
HETATM    6  C   UNL     1       3.034 -10.227  56.293  1.00  0.00     0.007 A 
HETATM    7  C   UNL     1       3.938 -10.383  57.343  1.00  0.00     0.003 A 
HETATM    8  C   UNL     1       5.030  -9.522  57.458  1.00  0.00     0.036 A 
BRANCH   5   9
HETATM    9  C   UNL     1       2.254  -9.043  54.234  1.00  0.00     0.038 C 
BRANCH   9  10
HETATM   10  C   UNL     1       1.633 -10.358  53.748  1.00  0.00     0.005 C 
BRANCH  10  11
HETATM   11  C   UNL     1       0.100 -10.352  53.801  1.00  0.00     0.011 C 
BRANCH  11  12
HETATM   12  C   UNL     1      -0.449 -11.289  54.879  1.00  0.00     0.113 C 
BRANCH  12  13
HETATM   13  C   UNL     1      -1.227 -10.570  55.958  1.00  0.00     0.172 C 
HETATM   14  O   UNL     1      -0.401  -9.894  56.798  1.00  0.00    -0.648 OA
HETATM   15  O   UNL     1      -2.445 -10.564  56.071  1.00  0.00    -0.648 OA
ENDBRANCH  12  13
ENDBRANCH  11  12
ENDBRANCH  10  11
ENDBRANCH   9  10
ENDBRANCH   5   9
ENDBRANCH   1   3
TORSDOF 6
ENDMDL
MODEL 3
REMARK VINA RESULT:      -6.3      3.843      4.819
REMARK  6 active torsions:
REMARK  status: ('A' for Active; 'I' for Inactive)
REMARK    1  A    between atoms: O_1  and  C_11 
REMARK    2  A    between atoms: C_4  and  C_5 
REMARK    3  A    between atoms: C_4  and  C_6 
REMARK    4  A    between atoms: C_5  and  C_7 
REMARK    5  A    between atoms: C_6  and  C_8 
REMARK    6  A    between atoms: C_8  and  C_12 
ROOT
HETATM    1  O   UNL     1       4.723  -3.924  53.003  1.00  0.00    -0.361 OA
HETATM    2  H   UNL     1       5.601  -3.607  53.081  1.00  0.00     0.217 HD
ENDROOT
BRANCH   1   3
HETATM    3  C   UNL     1       4.215  -4.760  53.949  1.00  0.00     0.066 A 
HETATM    4  C   UNL     1       4.595  -6.102  53.971  1.00  0.00     0.043 A 
HETATM    5  C   UNL     1       4.068  -6.941  54.942  1.00  0.00    -0.056 A 
HETATM    6  C   UNL     1       3.172  -6.471  55.890  1.00  0.00     0.007 A 
HETATM    7  C   UNL     1       2.794  -5.129  55.868  1.00  0.00     0.003 A 
HETATM    8  C   UNL     1       3.315  -4.273  54.898  1.00  0.00     0.036 A 
BRANCH   5   9
HETATM    9  C   UNL     1       4.476  -8.393  54.965  1.00  0.00     0.038 C 
BRANCH   9  10
HETATM   10  C   UNL     1       3.336  -9.353  55.325  1.00  0.00     0.005 C 
BRANCH  10  11
HETATM   11  C   UNL     1       3.499  -9.980  56.716  1.00  0.00     0.011 C 
BRANCH  11  12
HETATM   12  C   UNL     1       4.869  -9.684  57.331  1.00  0.00     0.113 C 
BRANCH  12  13
HETATM   13  C   UNL     1       5.200 -10.573  58.509  1.00  0.00     0.172 C 
HETATM   14  O   UNL     1       4.851  -9.989  59.685  1.00  0.00    -0.648 OA
HETATM   15  O   UNL     1       5.698 -11.688  58.440  1.00  0.00    -0.648 OA
ENDBRANCH  12  13
ENDBRANCH  11  12
ENDBRANCH  10  11
ENDBRANCH   9  10
ENDBRANCH   5   9
ENDBRANCH   1   3
TORSDOF 6
ENDMDL
MODEL 4
REMARK VINA RESULT:      -6.1      2.326      3.362
REMARK  6 active torsions:
REMARK  status: ('A' for Active; 'I' for Inactive)
REMARK    1  A    between atoms: O_1  and  C_11 
REMARK    2  A    between atoms: C_4  and  C_5 
REMARK    3  A    between atoms: C_4  and  C_6 
REMARK    4  A    between atoms: C_5  and  C_7 
REMARK    5  A    between atoms: C_6  and  C_8 
REMARK    6  A    between atoms: C_8  and  C_12 
ROOT
HETATM    1  O   UNL     1       4.826  -3.843  53.207  1.00  0.00    -0.361 OA
HETATM    2  H   UNL     1       5.023  -2.964  53.464  1.00  0.00     0.217 HD
ENDROOT
BRANCH   1   3
HETATM    3  C   UNL     1       4.244  -4.695  54.093  1.00  0.00     0.066 A 
HETATM    4  C   UNL     1       4.606  -6.043  54.108  1.00  0.00     0.043 A 
HETATM    5  C   UNL     1       4.002  -6.899  55.016  1.00  0.00    -0.056 A 
HETATM    6  C   UNL     1       3.046  -6.441  55.910  1.00  0.00     0.007 A 
HETATM    7  C   UNL     1       2.685  -5.095  55.896  1.00  0.00     0.003 A 
HETATM    8  C   UNL     1       3.283  -4.221  54.988  1.00  0.00     0.036 A 
BRANCH   5   9
HETATM    9  C   UNL     1       4.392  -8.355  55.031  1.00  0.00     0.038 C 
BRANCH   9  10
HETATM   10  C   UNL     1       4.269  -9.018  56.409  1.00  0.00     0.005 C 
BRANCH  10  11
HETATM   11  C   UNL     1       3.246 -10.163  56.432  1.00  0.00     0.011 C 
BRANCH  11  12
HETATM   12  C   UNL     1       2.452 -10.259  55.128  1.00  0.00     0.113 C 
BRANCH  12  13
HETATM   13  C   UNL     1       1.263 -11.190  55.219  1.00  0.00     0.172 C 
HETATM   14  O   UNL     1       1.461 -12.157  56.153  1.00  0.00    -0.648 OA
HETATM   15  O   UNL     1       0.234 -11.095  54.565  1.00  0.00    -0.648 OA
ENDBRANCH  12  13
ENDBRANCH  11  12
ENDBRANCH  10  11
ENDBRANCH   9  10
ENDBRANCH   5   9
ENDBRANCH   1   3
TORSDOF 6
ENDMDL
MODEL 5
REMARK VINA RESULT:      -6.0      1.816      2.526
REMARK  6 active torsions:
REMARK  status: ('A' for Active; 'I' for Inactive)
REMARK    1  A    between atoms: O_1  and  C_11 
REMARK    2  A    between atoms: C_4  and  C_5 
REMARK    3  A    between atoms: C_4  and  C_6 
REMARK    4  A    between atoms: C_5  and  C_7 
REMARK    5  A    between atoms: C_6  and  C_8 
REMARK    6  A    between atoms: C_8  and  C_12 
ROOT
HETATM    1  O   UNL     1       6.604  -7.690  56.443  1.00  0.00    -0.361 OA
HETATM    2  H   UNL     1       7.023  -7.541  55.618  1.00  0.00     0.217 HD
ENDROOT
BRANCH   1   3
HETATM    3  C   UNL     1       5.469  -8.437  56.505  1.00  0.00     0.066 A 
HETATM    4  C   UNL     1       4.403  -8.161  55.648  1.00  0.00     0.043 A 
HETATM    5  C   UNL     1       3.253  -8.931  55.723  1.00  0.00    -0.056 A 
HETATM    6  C   UNL     1       3.142  -9.971  56.634  1.00  0.00     0.007 A 
HETATM    7  C   UNL     1       4.207 -10.248  57.490  1.00  0.00     0.003 A 
HETATM    8  C   UNL     1       5.371  -9.481  57.426  1.00  0.00     0.036 A 
BRANCH   5   9
HETATM    9  C   UNL     1       2.100  -8.632  54.798  1.00  0.00     0.038 C 
BRANCH   9  10
HETATM   10  C   UNL     1       2.133  -9.426  53.487  1.00  0.00     0.005 C 
BRANCH  10  11
HETATM   11  C   UNL     1       0.738  -9.859  53.016  1.00  0.00     0.011 C 
BRANCH  11  12
HETATM   12  C   UNL     1      -0.101 -10.453  54.150  1.00  0.00     0.113 C 
BRANCH  12  13
HETATM   13  C   UNL     1       0.362 -11.827  54.581  1.00  0.00     0.172 C 
HETATM   14  O   UNL     1       0.387 -11.939  55.935  1.00  0.00    -0.648 OA
HETATM   15  O   UNL     1       0.660 -12.744  53.830  1.00  0.00    -0.648 OA
ENDBRANCH  12  13
ENDBRANCH  11  12
ENDBRANCH  10  11
ENDBRANCH   9  10
ENDBRANCH   5   9
ENDBRANCH   1   3
TORSDOF 6
ENDMDL
MODEL 6
REMARK VINA RESULT:      -6.0      1.573      1.964
REMARK  6 active torsions:
REMARK  status: ('A' for Active; 'I' for Inactive)
REMARK    1  A    between atoms: O_1  and  C_11 
REMARK    2  A    between atoms: C_4  and  C_5 
REMARK    3  A    between atoms: C_4  and  C_6 
REMARK    4  A    between atoms: C_5  and  C_7 
REMARK    5  A    between atoms: C_6  and  C_8 
REMARK    6  A    between atoms: C_8  and  C_12 
ROOT
HETATM    1  O   UNL     1       3.658 -10.350  58.141  1.00  0.00    -0.361 OA
HETATM    2  H   UNL     1       4.282 -10.001  58.747  1.00  0.00     0.217 HD
ENDROOT
BRANCH   1   3
HETATM    3  C   UNL     1       3.594  -9.860  56.874  1.00  0.00     0.066 A 
HETATM    4  C   UNL     1       2.649 -10.362  55.978  1.00  0.00     0.043 A 
HETATM    5  C   UNL     1       2.596  -9.852  54.689  1.00  0.00    -0.056 A 
HETATM    6  C   UNL     1       3.464  -8.852  54.275  1.00  0.00     0.007 A 
HETATM    7  C   UNL     1       4.406  -8.350  55.171  1.00  0.00     0.003 A 
HETATM    8  C   UNL     1       4.472  -8.853  56.471  1.00  0.00     0.036 A 
BRANCH   5   9
HETATM    9  C   UNL     1       1.577 -10.396  53.720  1.00  0.00     0.038 C 
BRANCH   9  10
HETATM   10  C   UNL     1       1.017 -11.768  54.111  1.00  0.00     0.005 C 
BRANCH  10  11
HETATM   11  C   UNL     1      -0.497 -11.883  53.886  1.00  0.00     0.011 C 
BRANCH  11  12
HETATM   12  C   UNL     1      -1.243 -10.609  54.290  1.00  0.00     0.113 C 
BRANCH  12  13
HETATM   13  C   UNL     1      -1.831 -10.676  55.682  1.00  0.00     0.172 C 
HETATM   14  O   UNL     1      -0.940 -10.255  56.617  1.00  0.00    -0.648 OA
HETATM   15  O   UNL     1      -2.966 -11.037  55.957  1.00  0.00    -0.648 OA
ENDBRANCH  12  13
ENDBRANCH  11  12
ENDBRANCH  10  11
ENDBRANCH   9  10
ENDBRANCH   5   9
ENDBRANCH   1   3
TORSDOF 6
ENDMDL
MODEL 7
REMARK VINA RESULT:      -5.9      1.828      2.468
REMARK  6 active torsions:
REMARK  status: ('A' for Active; 'I' for Inactive)
REMARK    1  A    between atoms: O_1  and  C_11 
REMARK    2  A    between atoms: C_4  and  C_5 
REMARK    3  A    between atoms: C_4  and  C_6 
REMARK    4  A    between atoms: C_5  and  C_7 
REMARK    5  A    between atoms: C_6  and  C_8 
REMARK    6  A    between atoms: C_8  and  C_12 
ROOT
HETATM    1  O   UNL     1       3.737 -10.762  57.941  1.00  0.00    -0.361 OA
HETATM    2  H   UNL     1       4.308 -10.906  58.669  1.00  0.00     0.217 HD
ENDROOT
BRANCH   1   3
HETATM    3  C   UNL     1       4.076  -9.865  56.976  1.00  0.00     0.066 A 
HETATM    4  C   UNL     1       3.311  -9.767  55.814  1.00  0.00     0.043 A 
HETATM    5  C   UNL     1       3.670  -8.848  54.839  1.00  0.00    -0.056 A 
HETATM    6  C   UNL     1       4.776  -8.026  54.999  1.00  0.00     0.007 A 
HETATM    7  C   UNL     1       5.540  -8.124  56.160  1.00  0.00     0.003 A 
HETATM    8  C   UNL     1       5.190  -9.044  57.150  1.00  0.00     0.036 A 
BRANCH   5   9
HETATM    9  C   UNL     1       2.845  -8.743  53.582  1.00  0.00     0.038 C 
BRANCH   9  10
HETATM   10  C   UNL     1       1.981  -9.978  53.299  1.00  0.00     0.005 C 
BRANCH  10  11
HETATM   11  C   UNL     1       0.486  -9.728  53.536  1.00  0.00     0.011 C 
BRANCH  11  12
HETATM   12  C   UNL     1      -0.222 -10.951  54.124  1.00  0.00     0.113 C 
BRANCH  12  13
HETATM   13  C   UNL     1      -0.143 -11.020  55.633  1.00  0.00     0.172 C 
HETATM   14  O   UNL     1       0.596 -12.085  56.042  1.00  0.00    -0.648 OA
HETATM   15  O   UNL     1      -0.649 -10.222  56.409  1.00  0.00    -0.648 OA
ENDBRANCH  12  13
ENDBRANCH  11  12
ENDBRANCH  10  11
ENDBRANCH   9  10
ENDBRANCH   5   9
ENDBRANCH   1   3
TORSDOF 6
ENDMDL
MODEL 8
REMARK VINA RESULT:      -5.9      1.880      2.580
REMARK  6 active torsions:
REMARK  status: ('A' for Active; 'I' for Inactive)
REMARK    1  A    between atoms: O_1  and  C_11 
REMARK    2  A    between atoms: C_4  and  C_5 
REMARK    3  A    between atoms: C_4  and  C_6 
REMARK    4  A    between atoms: C_5  and  C_7 
REMARK    5  A    between atoms: C_6  and  C_8 
REMARK    6  A    between atoms: C_8  and  C_12 
ROOT
HETATM    1  O   UNL     1       6.075  -7.497  56.602  1.00  0.00    -0.361 OA
HETATM    2  H   UNL     1       6.917  -7.596  57.002  1.00  0.00     0.217 HD
ENDROOT
BRANCH   1   3
HETATM    3  C   UNL     1       5.175  -8.516  56.649  1.00  0.00     0.066 A 
HETATM    4  C   UNL     1       4.198  -8.631  55.660  1.00  0.00     0.043 A 
HETATM    5  C   UNL     1       3.287  -9.675  55.722  1.00  0.00    -0.056 A 
HETATM    6  C   UNL     1       3.330 -10.606  56.748  1.00  0.00     0.007 A 
HETATM    7  C   UNL     1       4.307 -10.492  57.736  1.00  0.00     0.003 A 
HETATM    8  C   UNL     1       5.231  -9.447  57.687  1.00  0.00     0.036 A 
BRANCH   5   9
HETATM    9  C   UNL     1       2.230  -9.799  54.654  1.00  0.00     0.038 C 
BRANCH   9  10
HETATM   10  C   UNL     1       1.501 -11.148  54.654  1.00  0.00     0.005 C 
BRANCH  10  11
HETATM   11  C   UNL     1       0.015 -11.025  55.019  1.00  0.00     0.011 C 
BRANCH  11  12
HETATM   12  C   UNL     1      -0.816 -10.431  53.880  1.00  0.00     0.113 C 
BRANCH  12  13
HETATM   13  C   UNL     1      -1.570 -11.473  53.083  1.00  0.00     0.172 C 
HETATM   14  O   UNL     1      -0.891 -11.823  51.960  1.00  0.00    -0.648 OA
HETATM   15  O   UNL     1      -2.642 -11.969  53.397  1.00  0.00    -0.648 OA
ENDBRANCH  12  13
ENDBRANCH  11  12
ENDBRANCH  10  11
ENDBRANCH   9  10
ENDBRANCH   5   9
ENDBRANCH   1   3
TORSDOF 6
ENDMDL
MODEL 9
REMARK VINA RESULT:      -5.9      3.392      4.691
REMARK  6 active torsions:
REMARK  status: ('A' for Active; 'I' for Inactive)
REMARK    1  A    between atoms: O_1  and  C_11 
REMARK    2  A    between atoms: C_4  and  C_5 
REMARK    3  A    between atoms: C_4  and  C_6 
REMARK    4  A    between atoms: C_5  and  C_7 
REMARK    5  A    between atoms: C_6  and  C_8 
REMARK    6  A    between atoms: C_8  and  C_12 
ROOT
HETATM    1  O   UNL     1       6.320  -7.660  56.615  1.00  0.00    -0.361 OA
HETATM    2  H   UNL     1       6.451  -7.151  57.390  1.00  0.00     0.217 HD
ENDROOT
BRANCH   1   3
HETATM    3  C   UNL     1       5.280  -8.535  56.542  1.00  0.00     0.066 A 
HETATM    4  C   UNL     1       4.438  -8.528  55.430  1.00  0.00     0.043 A 
HETATM    5  C   UNL     1       3.382  -9.426  55.371  1.00  0.00    -0.056 A 
HETATM    6  C   UNL     1       3.149 -10.330  56.397  1.00  0.00     0.007 A 
HETATM    7  C   UNL     1       3.991 -10.337  57.508  1.00  0.00     0.003 A 
HETATM    8  C   UNL     1       5.058  -9.440  57.581  1.00  0.00     0.036 A 
BRANCH   5   9
HETATM    9  C   UNL     1       2.470  -9.417  54.171  1.00  0.00     0.038 C 
BRANCH   9  10
HETATM   10  C   UNL     1       3.038  -8.662  52.963  1.00  0.00     0.005 C 
BRANCH  10  11
HETATM   11  C   UNL     1       2.288  -7.357  52.667  1.00  0.00     0.011 C 
BRANCH  11  12
HETATM   12  C   UNL     1       3.233  -6.163  52.517  1.00  0.00     0.113 C 
BRANCH  12  13
HETATM   13  C   UNL     1       3.400  -5.369  53.794  1.00  0.00     0.172 C 
HETATM   14  O   UNL     1       4.373  -4.430  53.669  1.00  0.00    -0.648 OA
HETATM   15  O   UNL     1       2.742  -5.517  54.813  1.00  0.00    -0.648 OA
ENDBRANCH  12  13
ENDBRANCH  11  12
ENDBRANCH  10  11
ENDBRANCH   9  10
ENDBRANCH   5   9
ENDBRANCH   1   3
TORSDOF 6
ENDMDL
