MODEL 1
REMARK VINA RESULT:      -6.4      0.000      0.000
REMARK  6 active torsions:
REMARK  status: ('A' for Active; 'I' for Inactive)
REMARK    1  A    between atoms: O_1  and  C_11 
REMARK    2  A    between atoms: C_4  and  C_5 
REMARK    3  A    between atoms: C_4  and  C_6 
REMARK    4  A    between atoms: C_5  and  C_7 
REMARK    5  A    between atoms: C_6  and  C_8 
REMARK    6  A    between atoms: C_8  and  C_12 
ROOT
HETATM    1  O   UNL     1       4.644  -3.770  53.100  1.00  0.00    -0.361 OA
HETATM    2  H   UNL     1       4.065  -3.176  52.663  1.00  0.00     0.217 HD
ENDROOT
BRANCH   1   3
HETATM    3  C   UNL     1       4.153  -4.648  54.016  1.00  0.00     0.066 A 
HETATM    4  C   UNL     1       4.552  -5.985  53.986  1.00  0.00     0.043 A 
HETATM    5  C   UNL     1       4.042  -6.867  54.927  1.00  0.00    -0.056 A 
HETATM    6  C   UNL     1       3.144  -6.446  55.896  1.00  0.00     0.007 A 
HETATM    7  C   UNL     1       2.747  -5.110  55.927  1.00  0.00     0.003 A 
HETATM    8  C   UNL     1       3.251  -4.210  54.987  1.00  0.00     0.036 A 
BRANCH   5   9
HETATM    9  C   UNL     1       4.471  -8.312  54.893  1.00  0.00     0.038 C 
BRANCH   9  10
HETATM   10  C   UNL     1       3.346  -9.303  55.216  1.00  0.00     0.005 C 
BRANCH  10  11
HETATM   11  C   UNL     1       3.526  -9.990  56.576  1.00  0.00     0.011 C 
BRANCH  11  12
HETATM   12  C   UNL     1       4.852  -9.618  57.245  1.00  0.00     0.113 C 
BRANCH  12  13
HETATM   13  C   UNL     1       5.195 -10.500  58.425  1.00  0.00     0.172 C 
HETATM   14  O   UNL     1       4.841  -9.917  59.599  1.00  0.00    -0.648 OA
HETATM   15  O   UNL     1       5.705 -11.610  58.358  1.00  0.00    -0.648 OA
ENDBRANCH  12  13
ENDBRANCH  11  12
ENDBRANCH  10  11
ENDBRANCH   9  10
ENDBRANCH   5   9
ENDBRANCH   1   3
TORSDOF 6
ENDMDL
MODEL 2
REMARK VINA RESULT:      -6.4      3.645      5.163
REMARK  6 active torsions:
REMARK  status: ('A' for Active; 'I' for Inactive)
REMARK    1  A    between atoms: O_1  and  C_11 
REMARK    2  A    between atoms: C_4  and  C_5 
REMARK    3  A    between atoms: C_4  and  C_6 
REMARK    4  A    between atoms: C_5  and  C_7 
REMARK    5  A    between atoms: C_6  and  C_8 
REMARK    6  A    between atoms: C_8  and  C_12 
ROOT
HETATM    1  O   UNL     1       6.295  -7.671  56.625  1.00  0.00    -0.361 OA
HETATM    2  H   UNL     1       6.206  -6.756  56.446  1.00  0.00     0.217 HD
ENDROOT
BRANCH   1   3
HETATM    3  C   UNL     1       5.226  -8.500  56.481  1.00  0.00     0.066 A 
HETATM    4  C   UNL     1       4.373  -8.357  55.387  1.00  0.00     0.043 A 
HETATM    5  C   UNL     1       3.288  -9.209  55.254  1.00  0.00    -0.056 A 
HETATM    6  C   UNL     1       3.034 -10.202  56.190  1.00  0.00     0.007 A 
HETATM    7  C   UNL     1       3.887 -10.345  57.283  1.00  0.00     0.003 A 
HETATM    8  C   UNL     1       4.984  -9.495  57.430  1.00  0.00     0.036 A 
BRANCH   5   9
HETATM    9  C   UNL     1       2.364  -9.054  54.073  1.00  0.00     0.038 C 
BRANCH   9  10
HETATM   10  C   UNL     1       1.623 -10.340  53.689  1.00  0.00     0.005 C 
BRANCH  10  11
HETATM   11  C   UNL     1       0.101 -10.221  53.841  1.00  0.00     0.011 C 
BRANCH  11  12
HETATM   12  C   UNL     1      -0.462 -11.215  54.860  1.00  0.00     0.113 C 
BRANCH  12  13
HETATM   13  C   UNL     1      -1.274 -10.557  55.953  1.00  0.00     0.172 C 
HETATM   14  O   UNL     1      -0.476  -9.922  56.850  1.00  0.00    -0.648 OA
HETATM   15  O   UNL     1      -2.495 -10.562  56.031  1.00  0.00    -0.648 OA
ENDBRANCH  12  13
ENDBRANCH  11  12
ENDBRANCH  10  11
ENDBRANCH   9  10
ENDBRANCH   5   9
ENDBRANCH   1   3
TORSDOF 6
ENDMDL
MODEL 3
REMARK VINA RESULT:      -6.3      3.800      4.815
REMARK  6 active torsions:
REMARK  status: ('A' for Active; 'I' for Inactive)
REMARK    1  A    between atoms: O_1  and  C_11 
REMARK    2  A    between atoms: C_4  and  C_5 
REMARK    3  A    between atoms: C_4  and  C_6 
REMARK    4  A    between atoms: C_5  and  C_7 
REMARK    5  A    between atoms: C_6  and  C_8 
REMARK    6  A    between atoms: C_8  and  C_12 
ROOT
HETATM    1  O   UNL     1       6.251  -7.608  56.686  1.00  0.00    -0.361 OA
HETATM    2  H   UNL     1       6.524  -7.844  57.551  1.00  0.00     0.217 HD
ENDROOT
BRANCH   1   3
HETATM    3  C   UNL     1       4.959  -7.796  56.305  1.00  0.00     0.066 A 
HETATM    4  C   UNL     1       4.393  -9.070  56.359  1.00  0.00     0.043 A 
HETATM    5  C   UNL     1       3.075  -9.246  55.967  1.00  0.00    -0.056 A 
HETATM    6  C   UNL     1       2.309  -8.179  55.521  1.00  0.00     0.007 A 
HETATM    7  C   UNL     1       2.874  -6.906  55.467  1.00  0.00     0.003 A 
HETATM    8  C   UNL     1       4.199  -6.714  55.860  1.00  0.00     0.036 A 
BRANCH   5   9
HETATM    9  C   UNL     1       2.463 -10.623  56.024  1.00  0.00     0.038 C 
BRANCH   9  10
HETATM   10  C   UNL     1       1.760 -11.046  54.728  1.00  0.00     0.005 C 
BRANCH  10  11
HETATM   11  C   UNL     1       0.386 -11.682  54.974  1.00  0.00     0.011 C 
BRANCH  11  12
HETATM   12  C   UNL     1      -0.754 -10.667  54.855  1.00  0.00     0.113 C 
BRANCH  12  13
HETATM   13  C   UNL     1      -1.494 -10.444  56.156  1.00  0.00     0.172 C 
HETATM   14  O   UNL     1      -2.785 -10.855  56.069  1.00  0.00    -0.648 OA
HETATM   15  O   UNL     1      -1.010  -9.975  57.176  1.00  0.00    -0.648 OA
ENDBRANCH  12  13
ENDBRANCH  11  12
ENDBRANCH  10  11
ENDBRANCH   9  10
ENDBRANCH   5   9
ENDBRANCH   1   3
TORSDOF 6
ENDMDL
MODEL 4
REMARK VINA RESULT:      -6.2      2.450      2.953
REMARK  6 active torsions:
REMARK  status: ('A' for Active; 'I' for Inactive)
REMARK    1  A    between atoms: O_1  and  C_11 
REMARK    2  A    between atoms: C_4  and  C_5 
REMARK    3  A    between atoms: C_4  and  C_6 
REMARK    4  A    between atoms: C_5  and  C_7 
REMARK    5  A    between atoms: C_6  and  C_8 
REMARK    6  A    between atoms: C_8  and  C_12 
ROOT
HETATM    1  O   UNL     1       4.772  -3.861  53.200  1.00  0.00    -0.361 OA
HETATM    2  H   UNL     1       4.630  -3.978  52.281  1.00  0.00     0.217 HD
ENDROOT
BRANCH   1   3
HETATM    3  C   UNL     1       4.202  -4.717  54.091  1.00  0.00     0.066 A 
HETATM    4  C   UNL     1       4.519  -6.075  54.055  1.00  0.00     0.043 A 
HETATM    5  C   UNL     1       3.929  -6.935  54.969  1.00  0.00    -0.056 A 
HETATM    6  C   UNL     1       3.031  -6.470  55.918  1.00  0.00     0.007 A 
HETATM    7  C   UNL     1       2.716  -5.112  55.954  1.00  0.00     0.003 A 
HETATM    8  C   UNL     1       3.301  -4.235  55.041  1.00  0.00     0.036 A 
BRANCH   5   9
HETATM    9  C   UNL     1       4.269  -8.403  54.930  1.00  0.00     0.038 C 
BRANCH   9  10
HETATM   10  C   UNL     1       4.189  -9.097  56.295  1.00  0.00     0.005 C 
BRANCH  10  11
HETATM   11  C   UNL     1       3.203 -10.274  56.310  1.00  0.00     0.011 C 
BRANCH  11  12
HETATM   12  C   UNL     1       2.334 -10.322  55.051  1.00  0.00     0.113 C 
BRANCH  12  13
HETATM   13  C   UNL     1       1.336 -11.458  55.056  1.00  0.00     0.172 C 
HETATM   14  O   UNL     1       1.081 -11.900  53.797  1.00  0.00    -0.648 OA
HETATM   15  O   UNL     1       0.825 -11.951  56.052  1.00  0.00    -0.648 OA
ENDBRANCH  12  13
ENDBRANCH  11  12
ENDBRANCH  10  11
ENDBRANCH   9  10
ENDBRANCH   5   9
ENDBRANCH   1   3
TORSDOF 6
ENDMDL
MODEL 5
REMARK VINA RESULT:      -6.1      2.437      2.851
REMARK  6 active torsions:
REMARK  status: ('A' for Active; 'I' for Inactive)
REMARK    1  A    between atoms: O_1  and  C_11 
REMARK    2  A    between atoms: C_4  and  C_5 
REMARK    3  A    between atoms: C_4  and  C_6 
REMARK    4  A    between atoms: C_5  and  C_7 
REMARK    5  A    between atoms: C_6  and  C_8 
REMARK    6  A    between atoms: C_8  and  C_12 
ROOT
HETATM    1  O   UNL     1       4.783  -3.877  53.178  1.00  0.00    -0.361 OA
HETATM    2  H   UNL     1       5.198  -4.219  52.411  1.00  0.00     0.217 HD
ENDROOT
BRANCH   1   3
HETATM    3  C   UNL     1       4.225  -4.723  54.086  1.00  0.00     0.066 A 
HETATM    4  C   UNL     1       4.584  -6.072  54.095  1.00  0.00     0.043 A 
HETATM    5  C   UNL     1       4.007  -6.922  55.026  1.00  0.00    -0.056 A 
HETATM    6  C   UNL     1       3.080  -6.457  55.947  1.00  0.00     0.007 A 
HETATM    7  C   UNL     1       2.722  -5.110  55.938  1.00  0.00     0.003 A 
HETATM    8  C   UNL     1       3.295  -4.242  55.007  1.00  0.00     0.036 A 
BRANCH   5   9
HETATM    9  C   UNL     1       4.393  -8.379  55.036  1.00  0.00     0.038 C 
BRANCH   9  10
HETATM   10  C   UNL     1       4.273  -9.045  56.413  1.00  0.00     0.005 C 
BRANCH  10  11
HETATM   11  C   UNL     1       3.277 -10.212  56.427  1.00  0.00     0.011 C 
BRANCH  11  12
HETATM   12  C   UNL     1       2.439 -10.279  55.149  1.00  0.00     0.113 C 
BRANCH  12  13
HETATM   13  C   UNL     1       0.954 -10.134  55.398  1.00  0.00     0.172 C 
HETATM   14  O   UNL     1       0.707  -9.610  56.626  1.00  0.00    -0.648 OA
HETATM   15  O   UNL     1       0.070 -10.423  54.605  1.00  0.00    -0.648 OA
ENDBRANCH  12  13
ENDBRANCH  11  12
ENDBRANCH  10  11
ENDBRANCH   9  10
ENDBRANCH   5   9
ENDBRANCH   1   3
TORSDOF 6
ENDMDL
MODEL 6
REMARK VINA RESULT:      -6.0      3.847      5.690
REMARK  6 active torsions:
REMARK  status: ('A' for Active; 'I' for Inactive)
REMARK    1  A    between atoms: O_1  and  C_11 
REMARK    2  A    between atoms: C_4  and  C_5 
REMARK    3  A    between atoms: C_4  and  C_6 
REMARK    4  A    between atoms: C_5  and  C_7 
REMARK    5  A    between atoms: C_6  and  C_8 
REMARK    6  A    between atoms: C_8  and  C_12 
ROOT
HETATM    1  O   UNL     1       3.579 -10.362  58.023  1.00  0.00    -0.361 OA
HETATM    2  H   UNL     1       4.368 -10.726  58.373  1.00  0.00     0.217 HD
ENDROOT
BRANCH   1   3
HETATM    3  C   UNL     1       3.566  -9.850  56.763  1.00  0.00     0.066 A 
HETATM    4  C   UNL     1       2.668 -10.345  55.817  1.00  0.00     0.043 A 
HETATM    5  C   UNL     1       2.668  -9.812  54.536  1.00  0.00    -0.056 A 
HETATM    6  C   UNL     1       3.543  -8.797  54.179  1.00  0.00     0.007 A 
HETATM    7  C   UNL     1       4.439  -8.302  55.125  1.00  0.00     0.003 A 
HETATM    8  C   UNL     1       4.451  -8.828  56.417  1.00  0.00     0.036 A 
BRANCH   5   9
HETATM    9  C   UNL     1       1.699 -10.348  53.513  1.00  0.00     0.038 C 
BRANCH   9  10
HETATM   10  C   UNL     1       0.468  -9.460  53.296  1.00  0.00     0.005 C 
BRANCH  10  11
HETATM   11  C   UNL     1      -0.854 -10.229  53.423  1.00  0.00     0.011 C 
BRANCH  11  12
HETATM   12  C   UNL     1      -0.863 -11.176  54.625  1.00  0.00     0.113 C 
BRANCH  12  13
HETATM   13  C   UNL     1      -1.549 -10.593  55.841  1.00  0.00     0.172 C 
HETATM   14  O   UNL     1      -0.649 -10.071  56.715  1.00  0.00    -0.648 OA
HETATM   15  O   UNL     1      -2.757 -10.561  56.028  1.00  0.00    -0.648 OA
ENDBRANCH  12  13
ENDBRANCH  11  12
ENDBRANCH  10  11
ENDBRANCH   9  10
ENDBRANCH   5   9
ENDBRANCH   1   3
TORSDOF 6
ENDMDL
MODEL 7
REMARK VINA RESULT:      -6.0      1.808      5.360
REMARK  6 active torsions:
REMARK  status: ('A' for Active; 'I' for Inactive)
REMARK    1  A    between atoms: O_1  and  C_11 
REMARK    2  A    between atoms: C_4  and  C_5 
REMARK    3  A    between atoms: C_4  and  C_6 
REMARK    4  A    between atoms: C_5  and  C_7 
REMARK    5  A    between atoms: C_6  and  C_8 
REMARK    6  A    between atoms: C_8  and  C_12 
ROOT
HETATM    1  O   UNL     1       5.897  -9.188  57.778  1.00  0.00    -0.361 OA
HETATM    2  H   UNL     1       6.030  -8.379  58.231  1.00  0.00     0.217 HD
ENDROOT
BRANCH   1   3
HETATM    3  C   UNL     1       4.868  -9.314  56.896  1.00  0.00     0.066 A 
HETATM    4  C   UNL     1       4.832  -8.522  55.748  1.00  0.00     0.043 A 
HETATM    5  C   UNL     1       3.776  -8.662  54.860  1.00  0.00    -0.056 A 
HETATM    6  C   UNL     1       2.757  -9.574  55.092  1.00  0.00     0.007 A 
HETATM    7  C   UNL     1       2.794 -10.365  56.239  1.00  0.00     0.003 A 
HETATM    8  C   UNL     1       3.850 -10.236  57.142  1.00  0.00     0.036 A 
BRANCH   5   9
HETATM    9  C   UNL     1       3.734  -7.806  53.619  1.00  0.00     0.038 C 
BRANCH   9  10
HETATM   10  C   UNL     1       4.900  -6.816  53.508  1.00  0.00     0.005 C 
BRANCH  10  11
HETATM   11  C   UNL     1       4.502  -5.381  53.878  1.00  0.00     0.011 C 
BRANCH  11  12
HETATM   12  C   UNL     1       3.025  -5.266  54.262  1.00  0.00     0.113 C 
BRANCH  12  13
HETATM   13  C   UNL     1       2.811  -4.853  55.701  1.00  0.00     0.172 C 
HETATM   14  O   UNL     1       3.691  -5.472  56.531  1.00  0.00    -0.648 OA
HETATM   15  O   UNL     1       1.976  -4.051  56.093  1.00  0.00    -0.648 OA
ENDBRANCH  12  13
ENDBRANCH  11  12
ENDBRANCH  10  11
ENDBRANCH   9  10
ENDBRANCH   5   9
ENDBRANCH   1   3
TORSDOF 6
ENDMDL
MODEL 8
REMARK VINA RESULT:      -5.9      3.326      5.273
REMARK  6 active torsions:
REMARK  status: ('A' for Active; 'I' for Inactive)
REMARK    1  A    between atoms: O_1  and  C_11 
REMARK    2  A    between atoms: C_4  and  C_5 
REMARK    3  A    between atoms: C_4  and  C_6 
REMARK    4  A    between atoms: C_5  and  C_7 
REMARK    5  A    between atoms: C_6  and  C_8 
REMARK    6  A    between atoms: C_8  and  C_12 
ROOT
HETATM    1  O   UNL     1       4.693 -11.269  58.544  1.00  0.00    -0.361 OA
HETATM    2  H   UNL     1       4.194 -11.229  59.336  1.00  0.00     0.217 HD
ENDROOT
BRANCH   1   3
HETATM    3  C   UNL     1       4.637 -10.244  57.651  1.00  0.00     0.066 A 
HETATM    4  C   UNL     1       3.428  -9.921  57.033  1.00  0.00     0.043 A 
HETATM    5  C   UNL     1       3.387  -8.874  56.125  1.00  0.00    -0.056 A 
HETATM    6  C   UNL     1       4.525  -8.142  55.820  1.00  0.00     0.007 A 
HETATM    7  C   UNL     1       5.732  -8.464  56.438  1.00  0.00     0.003 A 
HETATM    8  C   UNL     1       5.789  -9.515  57.354  1.00  0.00     0.036 A 
BRANCH   5   9
HETATM    9  C   UNL     1       2.082  -8.526  55.456  1.00  0.00     0.038 C 
BRANCH   9  10
HETATM   10  C   UNL     1       2.028  -8.893  53.968  1.00  0.00     0.005 C 
BRANCH  10  11
HETATM   11  C   UNL     1       1.666 -10.365  53.728  1.00  0.00     0.011 C 
BRANCH  11  12
HETATM   12  C   UNL     1       0.238 -10.692  54.169  1.00  0.00     0.113 C 
BRANCH  12  13
HETATM   13  C   UNL     1       0.165 -11.323  55.543  1.00  0.00     0.172 C 
HETATM   14  O   UNL     1      -0.919 -10.883  56.233  1.00  0.00    -0.648 OA
HETATM   15  O   UNL     1       0.954 -12.143  55.990  1.00  0.00    -0.648 OA
ENDBRANCH  12  13
ENDBRANCH  11  12
ENDBRANCH  10  11
ENDBRANCH   9  10
ENDBRANCH   5   9
ENDBRANCH   1   3
TORSDOF 6
ENDMDL
MODEL 9
REMARK VINA RESULT:      -5.9      2.594      5.949
REMARK  6 active torsions:
REMARK  status: ('A' for Active; 'I' for Inactive)
REMARK    1  A    between atoms: O_1  and  C_11 
REMARK    2  A    between atoms: C_4  and  C_5 
REMARK    3  A    between atoms: C_4  and  C_6 
REMARK    4  A    between atoms: C_5  and  C_7 
REMARK    5  A    between atoms: C_6  and  C_8 
REMARK    6  A    between atoms: C_8  and  C_12 
ROOT
HETATM    1  O   UNL     1       0.869 -12.244  55.883  1.00  0.00    -0.361 OA
HETATM    2  H   UNL     1       1.040 -13.126  55.617  1.00  0.00     0.217 HD
ENDROOT
BRANCH   1   3
HETATM    3  C   UNL     1       1.626 -11.226  55.392  1.00  0.00     0.066 A 
HETATM    4  C   UNL     1       2.601 -10.631  56.194  1.00  0.00     0.043 A 
HETATM    5  C   UNL     1       3.365  -9.594  55.679  1.00  0.00    -0.056 A 
HETATM    6  C   UNL     1       3.177  -9.138  54.382  1.00  0.00     0.007 A 
HETATM    7  C   UNL     1       2.203  -9.733  53.581  1.00  0.00     0.003 A 
HETATM    8  C   UNL     1       1.428 -10.778  54.086  1.00  0.00     0.036 A 
BRANCH   5   9
HETATM    9  C   UNL     1       4.417  -8.950  56.545  1.00  0.00     0.038 C 
BRANCH   9  10
HETATM   10  C   UNL     1       5.017  -7.672  55.947  1.00  0.00     0.005 C 
BRANCH  10  11
HETATM   11  C   UNL     1       4.340  -6.395  56.462  1.00  0.00     0.011 C 
BRANCH  11  12
HETATM   12  C   UNL     1       4.326  -5.280  55.414  1.00  0.00     0.113 C 
BRANCH  12  13
HETATM   13  C   UNL     1       2.934  -4.918  54.944  1.00  0.00     0.172 C 
HETATM   14  O   UNL     1       2.639  -5.515  53.761  1.00  0.00    -0.648 OA
HETATM   15  O   UNL     1       2.147  -4.201  55.545  1.00  0.00    -0.648 OA
ENDBRANCH  12  13
ENDBRANCH  11  12
ENDBRANCH  10  11
ENDBRANCH   9  10
ENDBRANCH   5   9
ENDBRANCH   1   3
TORSDOF 6
ENDMDL
