MODEL 1
REMARK VINA RESULT:      -6.0      0.000      0.000
REMARK  6 active torsions:
REMARK  status: ('A' for Active; 'I' for Inactive)
REMARK    1  A    between atoms: O_1  and  C_11 
REMARK    2  A    between atoms: C_4  and  C_5 
REMARK    3  A    between atoms: C_4  and  C_6 
REMARK    4  A    between atoms: C_5  and  C_7 
REMARK    5  A    between atoms: C_6  and  C_8 
REMARK    6  A    between atoms: C_8  and  C_12 
ROOT
HETATM    1  O   UNL     1       3.893  -6.592  59.695  1.00  0.00    -0.361 OA
HETATM    2  H   UNL     1       3.036  -6.956  59.593  1.00  0.00     0.217 HD
ENDROOT
BRANCH   1   3
HETATM    3  C   UNL     1       4.409  -5.783  58.731  1.00  0.00     0.066 A 
HETATM    4  C   UNL     1       5.471  -4.929  59.030  1.00  0.00     0.043 A 
HETATM    5  C   UNL     1       5.986  -4.110  58.037  1.00  0.00    -0.056 A 
HETATM    6  C   UNL     1       5.464  -4.124  56.752  1.00  0.00     0.007 A 
HETATM    7  C   UNL     1       4.403  -4.978  56.453  1.00  0.00     0.003 A 
HETATM    8  C   UNL     1       3.875  -5.808  57.442  1.00  0.00     0.036 A 
BRANCH   5   9
HETATM    9  C   UNL     1       7.132  -3.186  58.360  1.00  0.00     0.038 C 
BRANCH   9  10
HETATM   10  C   UNL     1       7.335  -2.065  57.334  1.00  0.00     0.005 C 
BRANCH  10  11
HETATM   11  C   UNL     1       6.772  -0.716  57.802  1.00  0.00     0.011 C 
BRANCH  11  12
HETATM   12  C   UNL     1       5.461  -0.358  57.099  1.00  0.00     0.113 C 
BRANCH  12  13
HETATM   13  C   UNL     1       5.580  -0.325  55.591  1.00  0.00     0.172 C 
HETATM   14  O   UNL     1       4.740  -1.219  55.008  1.00  0.00    -0.648 OA
HETATM   15  O   UNL     1       6.313   0.416  54.952  1.00  0.00    -0.648 OA
ENDBRANCH  12  13
ENDBRANCH  11  12
ENDBRANCH  10  11
ENDBRANCH   9  10
ENDBRANCH   5   9
ENDBRANCH   1   3
TORSDOF 6
ENDMDL
MODEL 2
REMARK VINA RESULT:      -5.9      2.347      5.420
REMARK  6 active torsions:
REMARK  status: ('A' for Active; 'I' for Inactive)
REMARK    1  A    between atoms: O_1  and  C_11 
REMARK    2  A    between atoms: C_4  and  C_5 
REMARK    3  A    between atoms: C_4  and  C_6 
REMARK    4  A    between atoms: C_5  and  C_7 
REMARK    5  A    between atoms: C_6  and  C_8 
REMARK    6  A    between atoms: C_8  and  C_12 
ROOT
HETATM    1  O   UNL     1       8.392  -1.354  58.247  1.00  0.00    -0.361 OA
HETATM    2  H   UNL     1       8.170  -0.659  57.659  1.00  0.00     0.217 HD
ENDROOT
BRANCH   1   3
HETATM    3  C   UNL     1       7.559  -2.420  58.385  1.00  0.00     0.066 A 
HETATM    4  C   UNL     1       6.638  -2.722  57.381  1.00  0.00     0.043 A 
HETATM    5  C   UNL     1       5.795  -3.812  57.537  1.00  0.00    -0.056 A 
HETATM    6  C   UNL     1       5.850  -4.607  58.672  1.00  0.00     0.007 A 
HETATM    7  C   UNL     1       6.771  -4.306  59.675  1.00  0.00     0.003 A 
HETATM    8  C   UNL     1       7.626  -3.213  59.532  1.00  0.00     0.036 A 
BRANCH   5   9
HETATM    9  C   UNL     1       4.798  -4.137  56.454  1.00  0.00     0.038 C 
BRANCH   9  10
HETATM   10  C   UNL     1       3.963  -5.393  56.733  1.00  0.00     0.005 C 
BRANCH  10  11
HETATM   11  C   UNL     1       2.454  -5.115  56.752  1.00  0.00     0.011 C 
BRANCH  11  12
HETATM   12  C   UNL     1       1.736  -5.877  57.868  1.00  0.00     0.113 C 
BRANCH  12  13
HETATM   13  C   UNL     1       1.553  -5.059  59.128  1.00  0.00     0.172 C 
HETATM   14  O   UNL     1       0.252  -5.029  59.515  1.00  0.00    -0.648 OA
HETATM   15  O   UNL     1       2.448  -4.506  59.752  1.00  0.00    -0.648 OA
ENDBRANCH  12  13
ENDBRANCH  11  12
ENDBRANCH  10  11
ENDBRANCH   9  10
ENDBRANCH   5   9
ENDBRANCH   1   3
TORSDOF 6
ENDMDL
MODEL 3
REMARK VINA RESULT:      -5.9      2.263      5.519
REMARK  6 active torsions:
REMARK  status: ('A' for Active; 'I' for Inactive)
REMARK    1  A    between atoms: O_1  and  C_11 
REMARK    2  A    between atoms: C_4  and  C_5 
REMARK    3  A    between atoms: C_4  and  C_6 
REMARK    4  A    between atoms: C_5  and  C_7 
REMARK    5  A    between atoms: C_6  and  C_8 
REMARK    6  A    between atoms: C_8  and  C_12 
ROOT
HETATM    1  O   UNL     1       8.447  -1.021  58.271  1.00  0.00    -0.361 OA
HETATM    2  H   UNL     1       9.232  -1.350  57.879  1.00  0.00     0.217 HD
ENDROOT
BRANCH   1   3
HETATM    3  C   UNL     1       7.256  -1.629  58.022  1.00  0.00     0.066 A 
HETATM    4  C   UNL     1       7.008  -2.909  58.520  1.00  0.00     0.043 A 
HETATM    5  C   UNL     1       5.789  -3.516  58.257  1.00  0.00    -0.056 A 
HETATM    6  C   UNL     1       4.814  -2.875  57.508  1.00  0.00     0.007 A 
HETATM    7  C   UNL     1       5.062  -1.597  57.010  1.00  0.00     0.003 A 
HETATM    8  C   UNL     1       6.283  -0.973  57.267  1.00  0.00     0.036 A 
BRANCH   5   9
HETATM    9  C   UNL     1       5.520  -4.899  58.794  1.00  0.00     0.038 C 
BRANCH   9  10
HETATM   10  C   UNL     1       4.479  -5.687  57.990  1.00  0.00     0.005 C 
BRANCH  10  11
HETATM   11  C   UNL     1       3.246  -6.068  58.820  1.00  0.00     0.011 C 
BRANCH  11  12
HETATM   12  C   UNL     1       1.982  -5.345  58.350  1.00  0.00     0.113 C 
BRANCH  12  13
HETATM   13  C   UNL     1       1.181  -4.742  59.482  1.00  0.00     0.172 C 
HETATM   14  O   UNL     1       1.934  -3.885  60.220  1.00  0.00    -0.648 OA
HETATM   15  O   UNL     1       0.001  -4.962  59.714  1.00  0.00    -0.648 OA
ENDBRANCH  12  13
ENDBRANCH  11  12
ENDBRANCH  10  11
ENDBRANCH   9  10
ENDBRANCH   5   9
ENDBRANCH   1   3
TORSDOF 6
ENDMDL
MODEL 4
REMARK VINA RESULT:      -5.8      3.016      4.972
REMARK  6 active torsions:
REMARK  status: ('A' for Active; 'I' for Inactive)
REMARK    1  A    between atoms: O_1  and  C_11 
REMARK    2  A    between atoms: C_4  and  C_5 
REMARK    3  A    between atoms: C_4  and  C_6 
REMARK    4  A    between atoms: C_5  and  C_7 
REMARK    5  A    between atoms: C_6  and  C_8 
REMARK    6  A    between atoms: C_8  and  C_12 
ROOT
HETATM    1  O   UNL     1       6.626  -4.514  60.502  1.00  0.00    -0.361 OA
HETATM    2  H   UNL     1       6.172  -4.027  61.161  1.00  0.00     0.217 HD
ENDROOT
BRANCH   1   3
HETATM    3  C   UNL     1       6.714  -4.026  59.235  1.00  0.00     0.066 A 
HETATM    4  C   UNL     1       5.759  -4.379  58.282  1.00  0.00     0.043 A 
HETATM    5  C   UNL     1       5.863  -3.874  56.994  1.00  0.00    -0.056 A 
HETATM    6  C   UNL     1       6.899  -3.023  56.638  1.00  0.00     0.007 A 
HETATM    7  C   UNL     1       7.853  -2.669  57.591  1.00  0.00     0.003 A 
HETATM    8  C   UNL     1       7.761  -3.170  58.890  1.00  0.00     0.036 A 
BRANCH   5   9
HETATM    9  C   UNL     1       4.832  -4.257  55.963  1.00  0.00     0.038 C 
BRANCH   9  10
HETATM   10  C   UNL     1       3.918  -5.409  56.396  1.00  0.00     0.005 C 
BRANCH  10  11
HETATM   11  C   UNL     1       2.469  -4.965  56.639  1.00  0.00     0.011 C 
BRANCH  11  12
HETATM   12  C   UNL     1       1.815  -5.720  57.798  1.00  0.00     0.113 C 
BRANCH  12  13
HETATM   13  C   UNL     1       2.409  -5.377  59.146  1.00  0.00     0.172 C 
HETATM   14  O   UNL     1       3.214  -6.373  59.601  1.00  0.00    -0.648 OA
HETATM   15  O   UNL     1       2.224  -4.336  59.760  1.00  0.00    -0.648 OA
ENDBRANCH  12  13
ENDBRANCH  11  12
ENDBRANCH  10  11
ENDBRANCH   9  10
ENDBRANCH   5   9
ENDBRANCH   1   3
TORSDOF 6
ENDMDL
MODEL 5
REMARK VINA RESULT:      -5.8      2.216      3.067
REMARK  6 active torsions:
REMARK  status: ('A' for Active; 'I' for Inactive)
REMARK    1  A    between atoms: O_1  and  C_11 
REMARK    2  A    between atoms: C_4  and  C_5 
REMARK    3  A    between atoms: C_4  and  C_6 
REMARK    4  A    between atoms: C_5  and  C_7 
REMARK    5  A    between atoms: C_6  and  C_8 
REMARK    6  A    between atoms: C_8  and  C_12 
ROOT
HETATM    1  O   UNL     1       8.458  -2.969  59.614  1.00  0.00    -0.361 OA
HETATM    2  H   UNL     1       8.743  -2.126  59.320  1.00  0.00     0.217 HD
ENDROOT
BRANCH   1   3
HETATM    3  C   UNL     1       7.368  -3.554  59.048  1.00  0.00     0.066 A 
HETATM    4  C   UNL     1       7.034  -3.273  57.722  1.00  0.00     0.043 A 
HETATM    5  C   UNL     1       5.920  -3.878  57.159  1.00  0.00    -0.056 A 
HETATM    6  C   UNL     1       5.133  -4.756  57.888  1.00  0.00     0.007 A 
HETATM    7  C   UNL     1       5.468  -5.038  59.212  1.00  0.00     0.003 A 
HETATM    8  C   UNL     1       6.586  -4.437  59.792  1.00  0.00     0.036 A 
BRANCH   5   9
HETATM    9  C   UNL     1       5.558  -3.573  55.728  1.00  0.00     0.038 C 
BRANCH   9  10
HETATM   10  C   UNL     1       6.194  -2.288  55.185  1.00  0.00     0.005 C 
BRANCH  10  11
HETATM   11  C   UNL     1       5.179  -1.154  54.988  1.00  0.00     0.011 C 
BRANCH  11  12
HETATM   12  C   UNL     1       5.735   0.206  55.416  1.00  0.00     0.113 C 
BRANCH  12  13
HETATM   13  C   UNL     1       5.573   0.481  56.895  1.00  0.00     0.172 C 
HETATM   14  O   UNL     1       4.519   1.304  57.133  1.00  0.00    -0.648 OA
HETATM   15  O   UNL     1       6.272   0.017  57.784  1.00  0.00    -0.648 OA
ENDBRANCH  12  13
ENDBRANCH  11  12
ENDBRANCH  10  11
ENDBRANCH   9  10
ENDBRANCH   5   9
ENDBRANCH   1   3
TORSDOF 6
ENDMDL
MODEL 6
REMARK VINA RESULT:      -5.7      2.318      5.482
REMARK  6 active torsions:
REMARK  status: ('A' for Active; 'I' for Inactive)
REMARK    1  A    between atoms: O_1  and  C_11 
REMARK    2  A    between atoms: C_4  and  C_5 
REMARK    3  A    between atoms: C_4  and  C_6 
REMARK    4  A    between atoms: C_5  and  C_7 
REMARK    5  A    between atoms: C_6  and  C_8 
REMARK    6  A    between atoms: C_8  and  C_12 
ROOT
HETATM    1  O   UNL     1       5.470   0.285  53.521  1.00  0.00    -0.361 OA
HETATM    2  H   UNL     1       5.199  -0.247  52.799  1.00  0.00     0.217 HD
ENDROOT
BRANCH   1   3
HETATM    3  C   UNL     1       5.461  -0.225  54.782  1.00  0.00     0.066 A 
HETATM    4  C   UNL     1       5.214  -1.583  54.985  1.00  0.00     0.043 A 
HETATM    5  C   UNL     1       5.208  -2.088  56.276  1.00  0.00    -0.056 A 
HETATM    6  C   UNL     1       5.442  -1.268  57.370  1.00  0.00     0.007 A 
HETATM    7  C   UNL     1       5.690   0.089  57.167  1.00  0.00     0.003 A 
HETATM    8  C   UNL     1       5.700   0.611  55.873  1.00  0.00     0.036 A 
BRANCH   5   9
HETATM    9  C   UNL     1       4.939  -3.555  56.496  1.00  0.00     0.038 C 
BRANCH   9  10
HETATM   10  C   UNL     1       4.569  -3.910  57.941  1.00  0.00     0.005 C 
BRANCH  10  11
HETATM   11  C   UNL     1       5.619  -4.795  58.627  1.00  0.00     0.011 C 
BRANCH  11  12
HETATM   12  C   UNL     1       6.348  -4.064  59.757  1.00  0.00     0.113 C 
BRANCH  12  13
HETATM   13  C   UNL     1       7.726  -3.578  59.364  1.00  0.00     0.172 C 
HETATM   14  O   UNL     1       8.563  -3.546  60.433  1.00  0.00    -0.648 OA
HETATM   15  O   UNL     1       8.074  -3.267  58.234  1.00  0.00    -0.648 OA
ENDBRANCH  12  13
ENDBRANCH  11  12
ENDBRANCH  10  11
ENDBRANCH   9  10
ENDBRANCH   5   9
ENDBRANCH   1   3
TORSDOF 6
ENDMDL
MODEL 7
REMARK VINA RESULT:      -5.6      2.603      5.894
REMARK  6 active torsions:
REMARK  status: ('A' for Active; 'I' for Inactive)
REMARK    1  A    between atoms: O_1  and  C_11 
REMARK    2  A    between atoms: C_4  and  C_5 
REMARK    3  A    between atoms: C_4  and  C_6 
REMARK    4  A    between atoms: C_5  and  C_7 
REMARK    5  A    between atoms: C_6  and  C_8 
REMARK    6  A    between atoms: C_8  and  C_12 
ROOT
HETATM    1  O   UNL     1       8.434  -1.746  57.915  1.00  0.00    -0.361 OA
HETATM    2  H   UNL     1       8.680  -1.041  58.482  1.00  0.00     0.217 HD
ENDROOT
BRANCH   1   3
HETATM    3  C   UNL     1       7.634  -2.744  58.377  1.00  0.00     0.066 A 
HETATM    4  C   UNL     1       6.487  -3.105  57.669  1.00  0.00     0.043 A 
HETATM    5  C   UNL     1       5.681  -4.124  58.153  1.00  0.00    -0.056 A 
HETATM    6  C   UNL     1       5.994  -4.791  59.328  1.00  0.00     0.007 A 
HETATM    7  C   UNL     1       7.140  -4.431  60.035  1.00  0.00     0.003 A 
HETATM    8  C   UNL     1       7.961  -3.408  59.560  1.00  0.00     0.036 A 
BRANCH   5   9
HETATM    9  C   UNL     1       4.441  -4.513  57.389  1.00  0.00     0.038 C 
BRANCH   9  10
HETATM   10  C   UNL     1       3.946  -5.933  57.689  1.00  0.00     0.005 C 
BRANCH  10  11
HETATM   11  C   UNL     1       2.592  -5.954  58.411  1.00  0.00     0.011 C 
BRANCH  11  12
HETATM   12  C   UNL     1       1.421  -5.697  57.459  1.00  0.00     0.113 C 
BRANCH  12  13
HETATM   13  C   UNL     1       0.764  -6.966  56.963  1.00  0.00     0.172 C 
HETATM   14  O   UNL     1      -0.469  -7.132  57.509  1.00  0.00    -0.648 OA
HETATM   15  O   UNL     1       1.248  -7.748  56.157  1.00  0.00    -0.648 OA
ENDBRANCH  12  13
ENDBRANCH  11  12
ENDBRANCH  10  11
ENDBRANCH   9  10
ENDBRANCH   5   9
ENDBRANCH   1   3
TORSDOF 6
ENDMDL
MODEL 8
REMARK VINA RESULT:      -5.6      1.269      5.717
REMARK  6 active torsions:
REMARK  status: ('A' for Active; 'I' for Inactive)
REMARK    1  A    between atoms: O_1  and  C_11 
REMARK    2  A    between atoms: C_4  and  C_5 
REMARK    3  A    between atoms: C_4  and  C_6 
REMARK    4  A    between atoms: C_5  and  C_7 
REMARK    5  A    between atoms: C_6  and  C_8 
REMARK    6  A    between atoms: C_8  and  C_12 
ROOT
HETATM    1  O   UNL     1       5.457   0.496  53.659  1.00  0.00    -0.361 OA
HETATM    2  H   UNL     1       5.328  -0.126  52.970  1.00  0.00     0.217 HD
ENDROOT
BRANCH   1   3
HETATM    3  C   UNL     1       5.614   0.069  54.941  1.00  0.00     0.066 A 
HETATM    4  C   UNL     1       6.309  -1.113  55.203  1.00  0.00     0.043 A 
HETATM    5  C   UNL     1       6.460  -1.535  56.515  1.00  0.00    -0.056 A 
HETATM    6  C   UNL     1       5.934  -0.806  57.571  1.00  0.00     0.007 A 
HETATM    7  C   UNL     1       5.241   0.375  57.309  1.00  0.00     0.003 A 
HETATM    8  C   UNL     1       5.081   0.813  55.994  1.00  0.00     0.036 A 
BRANCH   5   9
HETATM    9  C   UNL     1       7.209  -2.813  56.799  1.00  0.00     0.038 C 
BRANCH   9  10
HETATM   10  C   UNL     1       6.683  -3.585  58.015  1.00  0.00     0.005 C 
BRANCH  10  11
HETATM   11  C   UNL     1       5.498  -4.499  57.675  1.00  0.00     0.011 C 
BRANCH  11  12
HETATM   12  C   UNL     1       4.204  -4.053  58.359  1.00  0.00     0.113 C 
BRANCH  12  13
HETATM   13  C   UNL     1       3.497  -5.173  59.092  1.00  0.00     0.172 C 
HETATM   14  O   UNL     1       4.356  -6.175  59.411  1.00  0.00    -0.648 OA
HETATM   15  O   UNL     1       2.312  -5.189  59.391  1.00  0.00    -0.648 OA
ENDBRANCH  12  13
ENDBRANCH  11  12
ENDBRANCH  10  11
ENDBRANCH   9  10
ENDBRANCH   5   9
ENDBRANCH   1   3
TORSDOF 6
ENDMDL
MODEL 9
REMARK VINA RESULT:      -5.6      1.686      2.708
REMARK  6 active torsions:
REMARK  status: ('A' for Active; 'I' for Inactive)
REMARK    1  A    between atoms: O_1  and  C_11 
REMARK    2  A    between atoms: C_4  and  C_5 
REMARK    3  A    between atoms: C_4  and  C_6 
REMARK    4  A    between atoms: C_5  and  C_7 
REMARK    5  A    between atoms: C_6  and  C_8 
REMARK    6  A    between atoms: C_8  and  C_12 
ROOT
HETATM    1  O   UNL     1       4.615  -5.662  59.376  1.00  0.00    -0.361 OA
HETATM    2  H   UNL     1       4.685  -6.583  59.220  1.00  0.00     0.217 HD
ENDROOT
BRANCH   1   3
HETATM    3  C   UNL     1       5.538  -4.812  58.850  1.00  0.00     0.066 A 
HETATM    4  C   UNL     1       5.459  -4.439  57.507  1.00  0.00     0.043 A 
HETATM    5  C   UNL     1       6.407  -3.572  56.986  1.00  0.00    -0.056 A 
HETATM    6  C   UNL     1       7.432  -3.069  57.774  1.00  0.00     0.007 A 
HETATM    7  C   UNL     1       7.510  -3.441  59.115  1.00  0.00     0.003 A 
HETATM    8  C   UNL     1       6.563  -4.312  59.654  1.00  0.00     0.036 A 
BRANCH   5   9
HETATM    9  C   UNL     1       6.324  -3.170  55.535  1.00  0.00     0.038 C 
BRANCH   9  10
HETATM   10  C   UNL     1       5.256  -2.108  55.244  1.00  0.00     0.005 C 
BRANCH  10  11
HETATM   11  C   UNL     1       5.845  -0.703  55.060  1.00  0.00     0.011 C 
BRANCH  11  12
HETATM   12  C   UNL     1       4.927   0.390  55.612  1.00  0.00     0.113 C 
BRANCH  12  13
HETATM   13  C   UNL     1       5.171   0.696  57.073  1.00  0.00     0.172 C 
HETATM   14  O   UNL     1       4.357   1.690  57.514  1.00  0.00    -0.648 OA
HETATM   15  O   UNL     1       5.974   0.122  57.794  1.00  0.00    -0.648 OA
ENDBRANCH  12  13
ENDBRANCH  11  12
ENDBRANCH  10  11
ENDBRANCH   9  10
ENDBRANCH   5   9
ENDBRANCH   1   3
TORSDOF 6
ENDMDL
