MODEL 1
REMARK VINA RESULT:      -6.1      0.000      0.000
REMARK  6 active torsions:
REMARK  status: ('A' for Active; 'I' for Inactive)
REMARK    1  A    between atoms: O_1  and  C_11 
REMARK    2  A    between atoms: C_4  and  C_5 
REMARK    3  A    between atoms: C_4  and  C_6 
REMARK    4  A    between atoms: C_5  and  C_7 
REMARK    5  A    between atoms: C_6  and  C_8 
REMARK    6  A    between atoms: C_8  and  C_12 
ROOT
HETATM    1  O   UNL     1       8.442  -1.418  58.118  1.00  0.00    -0.361 OA
HETATM    2  H   UNL     1       8.983  -1.345  57.357  1.00  0.00     0.217 HD
ENDROOT
BRANCH   1   3
HETATM    3  C   UNL     1       7.577  -2.462  58.241  1.00  0.00     0.066 A 
HETATM    4  C   UNL     1       6.710  -2.777  57.194  1.00  0.00     0.043 A 
HETATM    5  C   UNL     1       5.835  -3.844  57.335  1.00  0.00    -0.056 A 
HETATM    6  C   UNL     1       5.806  -4.602  58.496  1.00  0.00     0.007 A 
HETATM    7  C   UNL     1       6.673  -4.287  59.541  1.00  0.00     0.003 A 
HETATM    8  C   UNL     1       7.559  -3.217  59.414  1.00  0.00     0.036 A 
BRANCH   5   9
HETATM    9  C   UNL     1       4.896  -4.184  56.205  1.00  0.00     0.038 C 
BRANCH   9  10
HETATM   10  C   UNL     1       4.003  -5.399  56.483  1.00  0.00     0.005 C 
BRANCH  10  11
HETATM   11  C   UNL     1       2.533  -5.020  56.709  1.00  0.00     0.011 C 
BRANCH  11  12
HETATM   12  C   UNL     1       1.898  -5.811  57.856  1.00  0.00     0.113 C 
BRANCH  12  13
HETATM   13  C   UNL     1       2.402  -5.395  59.220  1.00  0.00     0.172 C 
HETATM   14  O   UNL     1       3.191  -6.354  59.771  1.00  0.00    -0.648 OA
HETATM   15  O   UNL     1       2.164  -4.330  59.771  1.00  0.00    -0.648 OA
ENDBRANCH  12  13
ENDBRANCH  11  12
ENDBRANCH  10  11
ENDBRANCH   9  10
ENDBRANCH   5   9
ENDBRANCH   1   3
TORSDOF 6
ENDMDL
MODEL 2
REMARK VINA RESULT:      -6.0      3.168      4.750
REMARK  6 active torsions:
REMARK  status: ('A' for Active; 'I' for Inactive)
REMARK    1  A    between atoms: O_1  and  C_11 
REMARK    2  A    between atoms: C_4  and  C_5 
REMARK    3  A    between atoms: C_4  and  C_6 
REMARK    4  A    between atoms: C_5  and  C_7 
REMARK    5  A    between atoms: C_6  and  C_8 
REMARK    6  A    between atoms: C_8  and  C_12 
ROOT
HETATM    1  O   UNL     1       8.809  -3.328  60.061  1.00  0.00    -0.361 OA
HETATM    2  H   UNL     1       8.885  -3.791  60.871  1.00  0.00     0.217 HD
ENDROOT
BRANCH   1   3
HETATM    3  C   UNL     1       7.734  -3.541  59.254  1.00  0.00     0.066 A 
HETATM    4  C   UNL     1       7.675  -2.942  57.996  1.00  0.00     0.043 A 
HETATM    5  C   UNL     1       6.572  -3.169  57.186  1.00  0.00    -0.056 A 
HETATM    6  C   UNL     1       5.528  -3.980  57.603  1.00  0.00     0.007 A 
HETATM    7  C   UNL     1       5.587  -4.579  58.861  1.00  0.00     0.003 A 
HETATM    8  C   UNL     1       6.690  -4.361  59.687  1.00  0.00     0.036 A 
BRANCH   5   9
HETATM    9  C   UNL     1       6.507  -2.520  55.826  1.00  0.00     0.038 C 
BRANCH   9  10
HETATM   10  C   UNL     1       5.453  -1.411  55.716  1.00  0.00     0.005 C 
BRANCH  10  11
HETATM   11  C   UNL     1       5.985  -0.037  56.145  1.00  0.00     0.011 C 
BRANCH  11  12
HETATM   12  C   UNL     1       5.330   0.463  57.434  1.00  0.00     0.113 C 
BRANCH  12  13
HETATM   13  C   UNL     1       4.321   1.567  57.204  1.00  0.00     0.172 C 
HETATM   14  O   UNL     1       4.061   1.733  55.881  1.00  0.00    -0.648 OA
HETATM   15  O   UNL     1       3.776   2.225  58.079  1.00  0.00    -0.648 OA
ENDBRANCH  12  13
ENDBRANCH  11  12
ENDBRANCH  10  11
ENDBRANCH   9  10
ENDBRANCH   5   9
ENDBRANCH   1   3
TORSDOF 6
ENDMDL
MODEL 3
REMARK VINA RESULT:      -6.0      2.204      5.340
REMARK  6 active torsions:
REMARK  status: ('A' for Active; 'I' for Inactive)
REMARK    1  A    between atoms: O_1  and  C_11 
REMARK    2  A    between atoms: C_4  and  C_5 
REMARK    3  A    between atoms: C_4  and  C_6 
REMARK    4  A    between atoms: C_5  and  C_7 
REMARK    5  A    between atoms: C_6  and  C_8 
REMARK    6  A    between atoms: C_8  and  C_12 
ROOT
HETATM    1  O   UNL     1       3.658  -6.565  59.711  1.00  0.00    -0.361 OA
HETATM    2  H   UNL     1       4.009  -6.540  60.579  1.00  0.00     0.217 HD
ENDROOT
BRANCH   1   3
HETATM    3  C   UNL     1       4.227  -5.819  58.725  1.00  0.00     0.066 A 
HETATM    4  C   UNL     1       5.326  -5.008  59.010  1.00  0.00     0.043 A 
HETATM    5  C   UNL     1       5.895  -4.253  57.995  1.00  0.00    -0.056 A 
HETATM    6  C   UNL     1       5.391  -4.289  56.703  1.00  0.00     0.007 A 
HETATM    7  C   UNL     1       4.293  -5.100  56.419  1.00  0.00     0.003 A 
HETATM    8  C   UNL     1       3.710  -5.866  57.430  1.00  0.00     0.036 A 
BRANCH   5   9
HETATM    9  C   UNL     1       7.082  -3.376  58.301  1.00  0.00     0.038 C 
BRANCH   9  10
HETATM   10  C   UNL     1       7.326  -2.275  57.262  1.00  0.00     0.005 C 
BRANCH  10  11
HETATM   11  C   UNL     1       6.844  -0.895  57.728  1.00  0.00     0.011 C 
BRANCH  11  12
HETATM   12  C   UNL     1       5.470  -0.536  57.159  1.00  0.00     0.113 C 
BRANCH  12  13
HETATM   13  C   UNL     1       5.415  -0.589  55.648  1.00  0.00     0.172 C 
HETATM   14  O   UNL     1       6.171   0.393  55.090  1.00  0.00    -0.648 OA
HETATM   15  O   UNL     1       4.797  -1.411  54.988  1.00  0.00    -0.648 OA
ENDBRANCH  12  13
ENDBRANCH  11  12
ENDBRANCH  10  11
ENDBRANCH   9  10
ENDBRANCH   5   9
ENDBRANCH   1   3
TORSDOF 6
ENDMDL
MODEL 4
REMARK VINA RESULT:      -5.9      1.353      2.085
REMARK  6 active torsions:
REMARK  status: ('A' for Active; 'I' for Inactive)
REMARK    1  A    between atoms: O_1  and  C_11 
REMARK    2  A    between atoms: C_4  and  C_5 
REMARK    3  A    between atoms: C_4  and  C_6 
REMARK    4  A    between atoms: C_5  and  C_7 
REMARK    5  A    between atoms: C_6  and  C_8 
REMARK    6  A    between atoms: C_8  and  C_12 
ROOT
HETATM    1  O   UNL     1       8.503  -0.923  58.248  1.00  0.00    -0.361 OA
HETATM    2  H   UNL     1       8.610  -0.634  59.132  1.00  0.00     0.217 HD
ENDROOT
BRANCH   1   3
HETATM    3  C   UNL     1       7.303  -1.411  57.832  1.00  0.00     0.066 A 
HETATM    4  C   UNL     1       7.019  -2.771  57.961  1.00  0.00     0.043 A 
HETATM    5  C   UNL     1       5.791  -3.253  57.532  1.00  0.00    -0.056 A 
HETATM    6  C   UNL     1       4.842  -2.408  56.977  1.00  0.00     0.007 A 
HETATM    7  C   UNL     1       5.125  -1.049  56.849  1.00  0.00     0.003 A 
HETATM    8  C   UNL     1       6.356  -0.550  57.276  1.00  0.00     0.036 A 
BRANCH   5   9
HETATM    9  C   UNL     1       5.484  -4.722  57.669  1.00  0.00     0.038 C 
BRANCH   9  10
HETATM   10  C   UNL     1       4.293  -5.190  56.826  1.00  0.00     0.005 C 
BRANCH  10  11
HETATM   11  C   UNL     1       3.618  -6.448  57.390  1.00  0.00     0.011 C 
BRANCH  11  12
HETATM   12  C   UNL     1       3.268  -6.305  58.873  1.00  0.00     0.113 C 
BRANCH  12  13
HETATM   13  C   UNL     1       2.211  -5.256  59.140  1.00  0.00     0.172 C 
HETATM   14  O   UNL     1       1.067  -5.520  58.458  1.00  0.00    -0.648 OA
HETATM   15  O   UNL     1       2.337  -4.296  59.887  1.00  0.00    -0.648 OA
ENDBRANCH  12  13
ENDBRANCH  11  12
ENDBRANCH  10  11
ENDBRANCH   9  10
ENDBRANCH   5   9
ENDBRANCH   1   3
TORSDOF 6
ENDMDL
MODEL 5
REMARK VINA RESULT:      -5.8      3.317      4.857
REMARK  6 active torsions:
REMARK  status: ('A' for Active; 'I' for Inactive)
REMARK    1  A    between atoms: O_1  and  C_11 
REMARK    2  A    between atoms: C_4  and  C_5 
REMARK    3  A    between atoms: C_4  and  C_6 
REMARK    4  A    between atoms: C_5  and  C_7 
REMARK    5  A    between atoms: C_6  and  C_8 
REMARK    6  A    between atoms: C_8  and  C_12 
ROOT
HETATM    1  O   UNL     1       5.925   0.558  53.553  1.00  0.00    -0.361 OA
HETATM    2  H   UNL     1       5.487   1.352  53.318  1.00  0.00     0.217 HD
ENDROOT
BRANCH   1   3
HETATM    3  C   UNL     1       5.859   0.097  54.832  1.00  0.00     0.066 A 
HETATM    4  C   UNL     1       6.404  -1.145  55.156  1.00  0.00     0.043 A 
HETATM    5  C   UNL     1       6.328  -1.601  56.463  1.00  0.00    -0.056 A 
HETATM    6  C   UNL     1       5.720  -0.845  57.454  1.00  0.00     0.007 A 
HETATM    7  C   UNL     1       5.176   0.397  57.130  1.00  0.00     0.003 A 
HETATM    8  C   UNL     1       5.245   0.869  55.819  1.00  0.00     0.036 A 
BRANCH   5   9
HETATM    9  C   UNL     1       6.916  -2.945  56.814  1.00  0.00     0.038 C 
BRANCH   9  10
HETATM   10  C   UNL     1       5.936  -3.886  57.525  1.00  0.00     0.005 C 
BRANCH  10  11
HETATM   11  C   UNL     1       6.343  -4.188  58.974  1.00  0.00     0.011 C 
BRANCH  11  12
HETATM   12  C   UNL     1       7.710  -3.601  59.329  1.00  0.00     0.113 C 
BRANCH  12  13
HETATM   13  C   UNL     1       8.183  -3.981  60.714  1.00  0.00     0.172 C 
HETATM   14  O   UNL     1       8.652  -5.256  60.746  1.00  0.00    -0.648 OA
HETATM   15  O   UNL     1       8.177  -3.249  61.693  1.00  0.00    -0.648 OA
ENDBRANCH  12  13
ENDBRANCH  11  12
ENDBRANCH  10  11
ENDBRANCH   9  10
ENDBRANCH   5   9
ENDBRANCH   1   3
TORSDOF 6
ENDMDL
MODEL 6
REMARK VINA RESULT:      -5.8      2.559      3.596
REMARK  6 active torsions:
REMARK  status: ('A' for Active; 'I' for Inactive)
REMARK    1  A    between atoms: O_1  and  C_11 
REMARK    2  A    between atoms: C_4  and  C_5 
REMARK    3  A    between atoms: C_4  and  C_6 
REMARK    4  A    between atoms: C_5  and  C_7 
REMARK    5  A    between atoms: C_6  and  C_8 
REMARK    6  A    between atoms: C_8  and  C_12 
ROOT
HETATM    1  O   UNL     1       5.040   0.100  53.842  1.00  0.00    -0.361 OA
HETATM    2  H   UNL     1       5.630   0.659  53.377  1.00  0.00     0.217 HD
ENDROOT
BRANCH   1   3
HETATM    3  C   UNL     1       5.346  -0.313  55.102  1.00  0.00     0.066 A 
HETATM    4  C   UNL     1       5.657  -1.652  55.341  1.00  0.00     0.043 A 
HETATM    5  C   UNL     1       5.966  -2.059  56.631  1.00  0.00    -0.056 A 
HETATM    6  C   UNL     1       5.970  -1.159  57.686  1.00  0.00     0.007 A 
HETATM    7  C   UNL     1       5.660   0.179  57.447  1.00  0.00     0.003 A 
HETATM    8  C   UNL     1       5.347   0.603  56.154  1.00  0.00     0.036 A 
BRANCH   5   9
HETATM    9  C   UNL     1       6.301  -3.505  56.890  1.00  0.00     0.038 C 
BRANCH   9  10
HETATM   10  C   UNL     1       6.502  -3.841  58.373  1.00  0.00     0.005 C 
BRANCH  10  11
HETATM   11  C   UNL     1       5.364  -4.691  58.953  1.00  0.00     0.011 C 
BRANCH  11  12
HETATM   12  C   UNL     1       4.505  -5.337  57.863  1.00  0.00     0.113 C 
BRANCH  12  13
HETATM   13  C   UNL     1       3.567  -6.400  58.391  1.00  0.00     0.172 C 
HETATM   14  O   UNL     1       3.379  -6.274  59.730  1.00  0.00    -0.648 OA
HETATM   15  O   UNL     1       3.018  -7.260  57.717  1.00  0.00    -0.648 OA
ENDBRANCH  12  13
ENDBRANCH  11  12
ENDBRANCH  10  11
ENDBRANCH   9  10
ENDBRANCH   5   9
ENDBRANCH   1   3
TORSDOF 6
ENDMDL
MODEL 7
REMARK VINA RESULT:      -5.7      3.300      5.311
REMARK  6 active torsions:
REMARK  status: ('A' for Active; 'I' for Inactive)
REMARK    1  A    between atoms: O_1  and  C_11 
REMARK    2  A    between atoms: C_4  and  C_5 
REMARK    3  A    between atoms: C_4  and  C_6 
REMARK    4  A    between atoms: C_5  and  C_7 
REMARK    5  A    between atoms: C_6  and  C_8 
REMARK    6  A    between atoms: C_8  and  C_12 
ROOT
HETATM    1  O   UNL     1       8.741  -3.210  59.258  1.00  0.00    -0.361 OA
HETATM    2  H   UNL     1       9.184  -2.599  59.814  1.00  0.00     0.217 HD
ENDROOT
BRANCH   1   3
HETATM    3  C   UNL     1       7.572  -2.859  58.657  1.00  0.00     0.066 A 
HETATM    4  C   UNL     1       7.409  -1.571  58.147  1.00  0.00     0.043 A 
HETATM    5  C   UNL     1       6.211  -1.228  57.537  1.00  0.00    -0.056 A 
HETATM    6  C   UNL     1       5.174  -2.142  57.424  1.00  0.00     0.007 A 
HETATM    7  C   UNL     1       5.338  -3.429  57.933  1.00  0.00     0.003 A 
HETATM    8  C   UNL     1       6.537  -3.789  58.549  1.00  0.00     0.036 A 
BRANCH   5   9
HETATM    9  C   UNL     1       6.033   0.165  56.987  1.00  0.00     0.038 C 
BRANCH   9  10
HETATM   10  C   UNL     1       5.095   0.240  55.777  1.00  0.00     0.005 C 
BRANCH  10  11
HETATM   11  C   UNL     1       5.843   0.216  54.438  1.00  0.00     0.011 C 
BRANCH  11  12
HETATM   12  C   UNL     1       5.970  -1.199  53.868  1.00  0.00     0.113 C 
BRANCH  12  13
HETATM   13  C   UNL     1       7.388  -1.725  53.882  1.00  0.00     0.172 C 
HETATM   14  O   UNL     1       7.487  -2.866  54.612  1.00  0.00    -0.648 OA
HETATM   15  O   UNL     1       8.338  -1.220  53.301  1.00  0.00    -0.648 OA
ENDBRANCH  12  13
ENDBRANCH  11  12
ENDBRANCH  10  11
ENDBRANCH   9  10
ENDBRANCH   5   9
ENDBRANCH   1   3
TORSDOF 6
ENDMDL
MODEL 8
REMARK VINA RESULT:      -5.7      1.973      5.151
REMARK  6 active torsions:
REMARK  status: ('A' for Active; 'I' for Inactive)
REMARK    1  A    between atoms: O_1  and  C_11 
REMARK    2  A    between atoms: C_4  and  C_5 
REMARK    3  A    between atoms: C_4  and  C_6 
REMARK    4  A    between atoms: C_5  and  C_7 
REMARK    5  A    between atoms: C_6  and  C_8 
REMARK    6  A    between atoms: C_8  and  C_12 
ROOT
HETATM    1  O   UNL     1       3.693  -6.776  59.901  1.00  0.00    -0.361 OA
HETATM    2  H   UNL     1       2.941  -6.521  60.397  1.00  0.00     0.217 HD
ENDROOT
BRANCH   1   3
HETATM    3  C   UNL     1       3.904  -6.249  58.664  1.00  0.00     0.066 A 
HETATM    4  C   UNL     1       4.829  -5.219  58.492  1.00  0.00     0.043 A 
HETATM    5  C   UNL     1       5.032  -4.692  57.226  1.00  0.00    -0.056 A 
HETATM    6  C   UNL     1       4.332  -5.170  56.127  1.00  0.00     0.007 A 
HETATM    7  C   UNL     1       3.409  -6.200  56.299  1.00  0.00     0.003 A 
HETATM    8  C   UNL     1       3.194  -6.740  57.568  1.00  0.00     0.036 A 
BRANCH   5   9
HETATM    9  C   UNL     1       6.030  -3.577  57.040  1.00  0.00     0.038 C 
BRANCH   9  10
HETATM   10  C   UNL     1       6.147  -2.640  58.247  1.00  0.00     0.005 C 
BRANCH  10  11
HETATM   11  C   UNL     1       7.583  -2.527  58.779  1.00  0.00     0.011 C 
BRANCH  11  12
HETATM   12  C   UNL     1       8.170  -3.887  59.163  1.00  0.00     0.113 C 
BRANCH  12  13
HETATM   13  C   UNL     1       8.286  -4.088  60.657  1.00  0.00     0.172 C 
HETATM   14  O   UNL     1       8.716  -5.341  60.957  1.00  0.00    -0.648 OA
HETATM   15  O   UNL     1       8.051  -3.242  61.508  1.00  0.00    -0.648 OA
ENDBRANCH  12  13
ENDBRANCH  11  12
ENDBRANCH  10  11
ENDBRANCH   9  10
ENDBRANCH   5   9
ENDBRANCH   1   3
TORSDOF 6
ENDMDL
MODEL 9
REMARK VINA RESULT:      -5.6      1.848      2.147
REMARK  6 active torsions:
REMARK  status: ('A' for Active; 'I' for Inactive)
REMARK    1  A    between atoms: O_1  and  C_11 
REMARK    2  A    between atoms: C_4  and  C_5 
REMARK    3  A    between atoms: C_4  and  C_6 
REMARK    4  A    between atoms: C_5  and  C_7 
REMARK    5  A    between atoms: C_6  and  C_8 
REMARK    6  A    between atoms: C_8  and  C_12 
ROOT
HETATM    1  O   UNL     1       8.439  -1.655  57.891  1.00  0.00    -0.361 OA
HETATM    2  H   UNL     1       8.213  -1.276  57.064  1.00  0.00     0.217 HD
ENDROOT
BRANCH   1   3
HETATM    3  C   UNL     1       7.698  -2.677  58.397  1.00  0.00     0.066 A 
HETATM    4  C   UNL     1       6.569  -3.127  57.711  1.00  0.00     0.043 A 
HETATM    5  C   UNL     1       5.823  -4.170  58.240  1.00  0.00    -0.056 A 
HETATM    6  C   UNL     1       6.178  -4.772  59.438  1.00  0.00     0.007 A 
HETATM    7  C   UNL     1       7.305  -4.322  60.123  1.00  0.00     0.003 A 
HETATM    8  C   UNL     1       8.066  -3.275  59.603  1.00  0.00     0.036 A 
BRANCH   5   9
HETATM    9  C   UNL     1       4.603  -4.656  57.500  1.00  0.00     0.038 C 
BRANCH   9  10
HETATM   10  C   UNL     1       3.400  -4.945  58.406  1.00  0.00     0.005 C 
BRANCH  10  11
HETATM   11  C   UNL     1       3.166  -6.445  58.629  1.00  0.00     0.011 C 
BRANCH  11  12
HETATM   12  C   UNL     1       2.803  -7.176  57.335  1.00  0.00     0.113 C 
BRANCH  12  13
HETATM   13  C   UNL     1       1.388  -6.908  56.873  1.00  0.00     0.172 C 
HETATM   14  O   UNL     1       1.367  -6.376  55.623  1.00  0.00    -0.648 OA
HETATM   15  O   UNL     1       0.374  -7.149  57.512  1.00  0.00    -0.648 OA
ENDBRANCH  12  13
ENDBRANCH  11  12
ENDBRANCH  10  11
ENDBRANCH   9  10
ENDBRANCH   5   9
ENDBRANCH   1   3
TORSDOF 6
ENDMDL
