MODEL 1
REMARK VINA RESULT:      -6.4      0.000      0.000
REMARK  6 active torsions:
REMARK  status: ('A' for Active; 'I' for Inactive)
REMARK    1  A    between atoms: O_1  and  C_11 
REMARK    2  A    between atoms: C_4  and  C_5 
REMARK    3  A    between atoms: C_4  and  C_6 
REMARK    4  A    between atoms: C_5  and  C_7 
REMARK    5  A    between atoms: C_6  and  C_8 
REMARK    6  A    between atoms: C_8  and  C_12 
ROOT
HETATM    1  O   UNL     1       6.147  -7.658  56.625  1.00  0.00    -0.361 OA
HETATM    2  H   UNL     1       6.335  -7.019  55.966  1.00  0.00     0.217 HD
ENDROOT
BRANCH   1   3
HETATM    3  C   UNL     1       5.118  -8.531  56.452  1.00  0.00     0.066 A 
HETATM    4  C   UNL     1       4.356  -8.490  55.284  1.00  0.00     0.043 A 
HETATM    5  C   UNL     1       3.310  -9.387  55.123  1.00  0.00    -0.056 A 
HETATM    6  C   UNL     1       3.009 -10.323  56.101  1.00  0.00     0.007 A 
HETATM    7  C   UNL     1       3.771 -10.364  57.268  1.00  0.00     0.003 A 
HETATM    8  C   UNL     1       4.826  -9.468  57.444  1.00  0.00     0.036 A 
BRANCH   5   9
HETATM    9  C   UNL     1       2.485  -9.342  53.862  1.00  0.00     0.038 C 
BRANCH   9  10
HETATM   10  C   UNL     1       1.492 -10.503  53.728  1.00  0.00     0.005 C 
BRANCH  10  11
HETATM   11  C   UNL     1       0.029 -10.039  53.715  1.00  0.00     0.011 C 
BRANCH  11  12
HETATM   12  C   UNL     1      -0.896 -11.012  54.449  1.00  0.00     0.113 C 
BRANCH  12  13
HETATM   13  C   UNL     1      -1.279 -10.543  55.836  1.00  0.00     0.172 C 
HETATM   14  O   UNL     1      -2.620 -10.620  56.032  1.00  0.00    -0.648 OA
HETATM   15  O   UNL     1      -0.499 -10.162  56.697  1.00  0.00    -0.648 OA
ENDBRANCH  12  13
ENDBRANCH  11  12
ENDBRANCH  10  11
ENDBRANCH   9  10
ENDBRANCH   5   9
ENDBRANCH   1   3
TORSDOF 6
ENDMDL
MODEL 2
REMARK VINA RESULT:      -6.4      1.148      2.029
REMARK  6 active torsions:
REMARK  status: ('A' for Active; 'I' for Inactive)
REMARK    1  A    between atoms: O_1  and  C_11 
REMARK    2  A    between atoms: C_4  and  C_5 
REMARK    3  A    between atoms: C_4  and  C_6 
REMARK    4  A    between atoms: C_5  and  C_7 
REMARK    5  A    between atoms: C_6  and  C_8 
REMARK    6  A    between atoms: C_8  and  C_12 
ROOT
HETATM    1  O   UNL     1       6.378  -7.535  56.749  1.00  0.00    -0.361 OA
HETATM    2  H   UNL     1       7.070  -7.891  56.227  1.00  0.00     0.217 HD
ENDROOT
BRANCH   1   3
HETATM    3  C   UNL     1       5.082  -7.711  56.374  1.00  0.00     0.066 A 
HETATM    4  C   UNL     1       4.527  -8.991  56.360  1.00  0.00     0.043 A 
HETATM    5  C   UNL     1       3.205  -9.154  55.975  1.00  0.00    -0.056 A 
HETATM    6  C   UNL     1       2.425  -8.069  55.603  1.00  0.00     0.007 A 
HETATM    7  C   UNL     1       2.980  -6.790  55.617  1.00  0.00     0.003 A 
HETATM    8  C   UNL     1       4.309  -6.610  56.002  1.00  0.00     0.036 A 
BRANCH   5   9
HETATM    9  C   UNL     1       2.604 -10.537  55.958  1.00  0.00     0.038 C 
BRANCH   9  10
HETATM   10  C   UNL     1       1.717 -10.816  54.739  1.00  0.00     0.005 C 
BRANCH  10  11
HETATM   11  C   UNL     1       0.455 -11.615  55.088  1.00  0.00     0.011 C 
BRANCH  11  12
HETATM   12  C   UNL     1      -0.829 -10.848  54.762  1.00  0.00     0.113 C 
BRANCH  12  13
HETATM   13  C   UNL     1      -1.659 -10.525  55.984  1.00  0.00     0.172 C 
HETATM   14  O   UNL     1      -0.901  -9.976  56.968  1.00  0.00    -0.648 OA
HETATM   15  O   UNL     1      -2.864 -10.703  56.091  1.00  0.00    -0.648 OA
ENDBRANCH  12  13
ENDBRANCH  11  12
ENDBRANCH  10  11
ENDBRANCH   9  10
ENDBRANCH   5   9
ENDBRANCH   1   3
TORSDOF 6
ENDMDL
MODEL 3
REMARK VINA RESULT:      -6.3      0.874      1.196
REMARK  6 active torsions:
REMARK  status: ('A' for Active; 'I' for Inactive)
REMARK    1  A    between atoms: O_1  and  C_11 
REMARK    2  A    between atoms: C_4  and  C_5 
REMARK    3  A    between atoms: C_4  and  C_6 
REMARK    4  A    between atoms: C_5  and  C_7 
REMARK    5  A    between atoms: C_6  and  C_8 
REMARK    6  A    between atoms: C_8  and  C_12 
ROOT
HETATM    1  O   UNL     1       6.636  -7.739  56.406  1.00  0.00    -0.361 OA
HETATM    2  H   UNL     1       7.208  -7.848  55.672  1.00  0.00     0.217 HD
ENDROOT
BRANCH   1   3
HETATM    3  C   UNL     1       5.496  -8.476  56.495  1.00  0.00     0.066 A 
HETATM    4  C   UNL     1       4.441  -8.239  55.612  1.00  0.00     0.043 A 
HETATM    5  C   UNL     1       3.285  -8.998  55.716  1.00  0.00    -0.056 A 
HETATM    6  C   UNL     1       3.157  -9.986  56.681  1.00  0.00     0.007 A 
HETATM    7  C   UNL     1       4.211 -10.222  57.563  1.00  0.00     0.003 A 
HETATM    8  C   UNL     1       5.381  -9.467  57.470  1.00  0.00     0.036 A 
BRANCH   5   9
HETATM    9  C   UNL     1       2.145  -8.742  54.764  1.00  0.00     0.038 C 
BRANCH   9  10
HETATM   10  C   UNL     1       2.132  -9.672  53.545  1.00  0.00     0.005 C 
BRANCH  10  11
HETATM   11  C   UNL     1       1.265 -10.921  53.754  1.00  0.00     0.011 C 
BRANCH  11  12
HETATM   12  C   UNL     1      -0.137 -10.577  54.262  1.00  0.00     0.113 C 
BRANCH  12  13
HETATM   13  C   UNL     1      -0.351 -10.931  55.717  1.00  0.00     0.172 C 
HETATM   14  O   UNL     1       0.365 -12.030  56.070  1.00  0.00    -0.648 OA
HETATM   15  O   UNL     1      -1.054 -10.312  56.502  1.00  0.00    -0.648 OA
ENDBRANCH  12  13
ENDBRANCH  11  12
ENDBRANCH  10  11
ENDBRANCH   9  10
ENDBRANCH   5   9
ENDBRANCH   1   3
TORSDOF 6
ENDMDL
MODEL 4
REMARK VINA RESULT:      -6.3      3.652      5.188
REMARK  6 active torsions:
REMARK  status: ('A' for Active; 'I' for Inactive)
REMARK    1  A    between atoms: O_1  and  C_11 
REMARK    2  A    between atoms: C_4  and  C_5 
REMARK    3  A    between atoms: C_4  and  C_6 
REMARK    4  A    between atoms: C_5  and  C_7 
REMARK    5  A    between atoms: C_6  and  C_8 
REMARK    6  A    between atoms: C_8  and  C_12 
ROOT
HETATM    1  O   UNL     1       4.837  -3.836  53.225  1.00  0.00    -0.361 OA
HETATM    2  H   UNL     1       5.006  -4.093  52.340  1.00  0.00     0.217 HD
ENDROOT
BRANCH   1   3
HETATM    3  C   UNL     1       4.237  -4.704  54.083  1.00  0.00     0.066 A 
HETATM    4  C   UNL     1       4.546  -6.064  54.031  1.00  0.00     0.043 A 
HETATM    5  C   UNL     1       3.925  -6.937  54.912  1.00  0.00    -0.056 A 
HETATM    6  C   UNL     1       3.004  -6.483  55.844  1.00  0.00     0.007 A 
HETATM    7  C   UNL     1       2.695  -5.125  55.897  1.00  0.00     0.003 A 
HETATM    8  C   UNL     1       3.312  -4.234  55.016  1.00  0.00     0.036 A 
BRANCH   5   9
HETATM    9  C   UNL     1       4.258  -8.406  54.855  1.00  0.00     0.038 C 
BRANCH   9  10
HETATM   10  C   UNL     1       3.112  -9.321  55.305  1.00  0.00     0.005 C 
BRANCH  10  11
HETATM   11  C   UNL     1       3.438 -10.103  56.584  1.00  0.00     0.011 C 
BRANCH  11  12
HETATM   12  C   UNL     1       4.769  -9.673  57.205  1.00  0.00     0.113 C 
BRANCH  12  13
HETATM   13  C   UNL     1       5.177 -10.520  58.391  1.00  0.00     0.172 C 
HETATM   14  O   UNL     1       4.845  -9.922  59.565  1.00  0.00    -0.648 OA
HETATM   15  O   UNL     1       5.718 -11.615  58.329  1.00  0.00    -0.648 OA
ENDBRANCH  12  13
ENDBRANCH  11  12
ENDBRANCH  10  11
ENDBRANCH   9  10
ENDBRANCH   5   9
ENDBRANCH   1   3
TORSDOF 6
ENDMDL
MODEL 5
REMARK VINA RESULT:      -6.1      2.638      5.550
REMARK  6 active torsions:
REMARK  status: ('A' for Active; 'I' for Inactive)
REMARK    1  A    between atoms: O_1  and  C_11 
REMARK    2  A    between atoms: C_4  and  C_5 
REMARK    3  A    between atoms: C_4  and  C_6 
REMARK    4  A    between atoms: C_5  and  C_7 
REMARK    5  A    between atoms: C_6  and  C_8 
REMARK    6  A    between atoms: C_8  and  C_12 
ROOT
HETATM    1  O   UNL     1       0.787 -12.250  55.997  1.00  0.00    -0.361 OA
HETATM    2  H   UNL     1       0.911 -12.438  56.906  1.00  0.00     0.217 HD
ENDROOT
BRANCH   1   3
HETATM    3  C   UNL     1       1.524 -11.277  55.396  1.00  0.00     0.066 A 
HETATM    4  C   UNL     1       2.542 -10.636  56.103  1.00  0.00     0.043 A 
HETATM    5  C   UNL     1       3.284  -9.645  55.478  1.00  0.00    -0.056 A 
HETATM    6  C   UNL     1       3.033  -9.280  54.163  1.00  0.00     0.007 A 
HETATM    7  C   UNL     1       2.016  -9.921  53.457  1.00  0.00     0.003 A 
HETATM    8  C   UNL     1       1.261 -10.920  54.073  1.00  0.00     0.036 A 
BRANCH   5   9
HETATM    9  C   UNL     1       4.383  -8.951  56.241  1.00  0.00     0.038 C 
BRANCH   9  10
HETATM   10  C   UNL     1       4.897  -7.673  55.567  1.00  0.00     0.005 C 
BRANCH  10  11
HETATM   11  C   UNL     1       4.441  -6.394  56.282  1.00  0.00     0.011 C 
BRANCH  11  12
HETATM   12  C   UNL     1       3.020  -5.984  55.890  1.00  0.00     0.113 C 
BRANCH  12  13
HETATM   13  C   UNL     1       2.945  -4.606  55.269  1.00  0.00     0.172 C 
HETATM   14  O   UNL     1       4.005  -4.372  54.452  1.00  0.00    -0.648 OA
HETATM   15  O   UNL     1       2.046  -3.796  55.445  1.00  0.00    -0.648 OA
ENDBRANCH  12  13
ENDBRANCH  11  12
ENDBRANCH  10  11
ENDBRANCH   9  10
ENDBRANCH   5   9
ENDBRANCH   1   3
TORSDOF 6
ENDMDL
MODEL 6
REMARK VINA RESULT:      -6.1      2.728      3.663
REMARK  6 active torsions:
REMARK  status: ('A' for Active; 'I' for Inactive)
REMARK    1  A    between atoms: O_1  and  C_11 
REMARK    2  A    between atoms: C_4  and  C_5 
REMARK    3  A    between atoms: C_4  and  C_6 
REMARK    4  A    between atoms: C_5  and  C_7 
REMARK    5  A    between atoms: C_6  and  C_8 
REMARK    6  A    between atoms: C_8  and  C_12 
ROOT
HETATM    1  O   UNL     1       4.801  -3.836  53.231  1.00  0.00    -0.361 OA
HETATM    2  H   UNL     1       4.254  -3.254  52.741  1.00  0.00     0.217 HD
ENDROOT
BRANCH   1   3
HETATM    3  C   UNL     1       4.246  -4.706  54.117  1.00  0.00     0.066 A 
HETATM    4  C   UNL     1       4.643  -6.044  54.125  1.00  0.00     0.043 A 
HETATM    5  C   UNL     1       4.068  -6.919  55.034  1.00  0.00    -0.056 A 
HETATM    6  C   UNL     1       3.105  -6.489  55.935  1.00  0.00     0.007 A 
HETATM    7  C   UNL     1       2.708  -5.153  55.927  1.00  0.00     0.003 A 
HETATM    8  C   UNL     1       3.279  -4.260  55.019  1.00  0.00     0.036 A 
BRANCH   5   9
HETATM    9  C   UNL     1       4.496  -8.364  55.042  1.00  0.00     0.038 C 
BRANCH   9  10
HETATM   10  C   UNL     1       3.439  -9.322  55.605  1.00  0.00     0.005 C 
BRANCH  10  11
HETATM   11  C   UNL     1       2.623 -10.023  54.511  1.00  0.00     0.011 C 
BRANCH  11  12
HETATM   12  C   UNL     1       1.124  -9.738  54.631  1.00  0.00     0.113 C 
BRANCH  12  13
HETATM   13  C   UNL     1       0.463 -10.481  55.770  1.00  0.00     0.172 C 
HETATM   14  O   UNL     1       0.851 -11.782  55.805  1.00  0.00    -0.648 OA
HETATM   15  O   UNL     1      -0.308  -9.993  56.584  1.00  0.00    -0.648 OA
ENDBRANCH  12  13
ENDBRANCH  11  12
ENDBRANCH  10  11
ENDBRANCH   9  10
ENDBRANCH   5   9
ENDBRANCH   1   3
TORSDOF 6
ENDMDL
MODEL 7
REMARK VINA RESULT:      -6.1      1.272      2.105
REMARK  6 active torsions:
REMARK  status: ('A' for Active; 'I' for Inactive)
REMARK    1  A    between atoms: O_1  and  C_11 
REMARK    2  A    between atoms: C_4  and  C_5 
REMARK    3  A    between atoms: C_4  and  C_6 
REMARK    4  A    between atoms: C_5  and  C_7 
REMARK    5  A    between atoms: C_6  and  C_8 
REMARK    6  A    between atoms: C_8  and  C_12 
ROOT
HETATM    1  O   UNL     1       3.678 -10.379  58.065  1.00  0.00    -0.361 OA
HETATM    2  H   UNL     1       3.890  -9.827  58.792  1.00  0.00     0.217 HD
ENDROOT
BRANCH   1   3
HETATM    3  C   UNL     1       3.609  -9.856  56.811  1.00  0.00     0.066 A 
HETATM    4  C   UNL     1       2.645 -10.317  55.914  1.00  0.00     0.043 A 
HETATM    5  C   UNL     1       2.588  -9.773  54.639  1.00  0.00    -0.056 A 
HETATM    6  C   UNL     1       3.471  -8.781  54.240  1.00  0.00     0.007 A 
HETATM    7  C   UNL     1       4.433  -8.320  55.137  1.00  0.00     0.003 A 
HETATM    8  C   UNL     1       4.503  -8.857  56.423  1.00  0.00     0.036 A 
BRANCH   5   9
HETATM    9  C   UNL     1       1.548 -10.272  53.669  1.00  0.00     0.038 C 
BRANCH   9  10
HETATM   10  C   UNL     1       1.113 -11.722  53.913  1.00  0.00     0.005 C 
BRANCH  10  11
HETATM   11  C   UNL     1      -0.411 -11.887  53.975  1.00  0.00     0.011 C 
BRANCH  11  12
HETATM   12  C   UNL     1      -1.124 -10.580  54.328  1.00  0.00     0.113 C 
BRANCH  12  13
HETATM   13  C   UNL     1      -1.692 -10.567  55.730  1.00  0.00     0.172 C 
HETATM   14  O   UNL     1      -0.723 -10.338  56.655  1.00  0.00    -0.648 OA
HETATM   15  O   UNL     1      -2.870 -10.718  56.020  1.00  0.00    -0.648 OA
ENDBRANCH  12  13
ENDBRANCH  11  12
ENDBRANCH  10  11
ENDBRANCH   9  10
ENDBRANCH   5   9
ENDBRANCH   1   3
TORSDOF 6
ENDMDL
MODEL 8
REMARK VINA RESULT:      -5.9      1.367      1.752
REMARK  6 active torsions:
REMARK  status: ('A' for Active; 'I' for Inactive)
REMARK    1  A    between atoms: O_1  and  C_11 
REMARK    2  A    between atoms: C_4  and  C_5 
REMARK    3  A    between atoms: C_4  and  C_6 
REMARK    4  A    between atoms: C_5  and  C_7 
REMARK    5  A    between atoms: C_6  and  C_8 
REMARK    6  A    between atoms: C_8  and  C_12 
ROOT
HETATM    1  O   UNL     1       6.282  -7.647  56.622  1.00  0.00    -0.361 OA
HETATM    2  H   UNL     1       6.443  -7.116  57.377  1.00  0.00     0.217 HD
ENDROOT
BRANCH   1   3
HETATM    3  C   UNL     1       5.243  -8.525  56.617  1.00  0.00     0.066 A 
HETATM    4  C   UNL     1       4.199  -8.367  55.705  1.00  0.00     0.043 A 
HETATM    5  C   UNL     1       3.147  -9.270  55.712  1.00  0.00    -0.056 A 
HETATM    6  C   UNL     1       3.113 -10.327  56.609  1.00  0.00     0.007 A 
HETATM    7  C   UNL     1       4.156 -10.486  57.520  1.00  0.00     0.003 A 
HETATM    8  C   UNL     1       5.222  -9.585  57.524  1.00  0.00     0.036 A 
BRANCH   5   9
HETATM    9  C   UNL     1       2.018  -9.098  54.728  1.00  0.00     0.038 C 
BRANCH   9  10
HETATM   10  C   UNL     1       2.384  -9.482  53.289  1.00  0.00     0.005 C 
BRANCH  10  11
HETATM   11  C   UNL     1       1.412 -10.500  52.676  1.00  0.00     0.011 C 
BRANCH  11  12
HETATM   12  C   UNL     1       0.963 -11.557  53.688  1.00  0.00     0.113 C 
BRANCH  12  13
HETATM   13  C   UNL     1      -0.534 -11.780  53.696  1.00  0.00     0.172 C 
HETATM   14  O   UNL     1      -1.149 -10.985  54.610  1.00  0.00    -0.648 OA
HETATM   15  O   UNL     1      -1.140 -12.553  52.968  1.00  0.00    -0.648 OA
ENDBRANCH  12  13
ENDBRANCH  11  12
ENDBRANCH  10  11
ENDBRANCH   9  10
ENDBRANCH   5   9
ENDBRANCH   1   3
TORSDOF 6
ENDMDL
MODEL 9
REMARK VINA RESULT:      -5.7      2.629      4.840
REMARK  6 active torsions:
REMARK  status: ('A' for Active; 'I' for Inactive)
REMARK    1  A    between atoms: O_1  and  C_11 
REMARK    2  A    between atoms: C_4  and  C_5 
REMARK    3  A    between atoms: C_4  and  C_6 
REMARK    4  A    between atoms: C_5  and  C_7 
REMARK    5  A    between atoms: C_6  and  C_8 
REMARK    6  A    between atoms: C_8  and  C_12 
ROOT
HETATM    1  O   UNL     1       3.386 -10.313  57.625  1.00  0.00    -0.361 OA
HETATM    2  H   UNL     1       3.225 -11.095  58.115  1.00  0.00     0.217 HD
ENDROOT
BRANCH   1   3
HETATM    3  C   UNL     1       2.961 -10.219  56.336  1.00  0.00     0.066 A 
HETATM    4  C   UNL     1       3.507  -9.255  55.489  1.00  0.00     0.043 A 
HETATM    5  C   UNL     1       3.063  -9.171  54.177  1.00  0.00    -0.056 A 
HETATM    6  C   UNL     1       2.086 -10.029  53.694  1.00  0.00     0.007 A 
HETATM    7  C   UNL     1       1.541 -10.993  54.540  1.00  0.00     0.003 A 
HETATM    8  C   UNL     1       1.978 -11.089  55.862  1.00  0.00     0.036 A 
BRANCH   5   9
HETATM    9  C   UNL     1       3.651  -8.128  53.262  1.00  0.00     0.038 C 
BRANCH   9  10
HETATM   10  C   UNL     1       4.859  -7.392  53.853  1.00  0.00     0.005 C 
BRANCH  10  11
HETATM   11  C   UNL     1       4.654  -5.873  53.931  1.00  0.00     0.011 C 
BRANCH  11  12
HETATM   12  C   UNL     1       3.211  -5.498  54.276  1.00  0.00     0.113 C 
BRANCH  12  13
HETATM   13  C   UNL     1       3.035  -5.058  55.713  1.00  0.00     0.172 C 
HETATM   14  O   UNL     1       3.952  -5.643  56.526  1.00  0.00    -0.648 OA
HETATM   15  O   UNL     1       2.197  -4.263  56.114  1.00  0.00    -0.648 OA
ENDBRANCH  12  13
ENDBRANCH  11  12
ENDBRANCH  10  11
ENDBRANCH   9  10
ENDBRANCH   5   9
ENDBRANCH   1   3
TORSDOF 6
ENDMDL
