MODEL 1
REMARK VINA RESULT:      -6.1      0.000      0.000
REMARK  6 active torsions:
REMARK  status: ('A' for Active; 'I' for Inactive)
REMARK    1  A    between atoms: O_1  and  C_11 
REMARK    2  A    between atoms: C_4  and  C_5 
REMARK    3  A    between atoms: C_4  and  C_6 
REMARK    4  A    between atoms: C_5  and  C_7 
REMARK    5  A    between atoms: C_6  and  C_8 
REMARK    6  A    between atoms: C_8  and  C_12 
ROOT
HETATM    1  O   UNL     1       8.451  -1.439  58.071  1.00  0.00    -0.361 OA
HETATM    2  H   UNL     1       8.805  -1.248  57.225  1.00  0.00     0.217 HD
ENDROOT
BRANCH   1   3
HETATM    3  C   UNL     1       7.594  -2.483  58.231  1.00  0.00     0.066 A 
HETATM    4  C   UNL     1       6.689  -2.805  57.218  1.00  0.00     0.043 A 
HETATM    5  C   UNL     1       5.822  -3.872  57.396  1.00  0.00    -0.056 A 
HETATM    6  C   UNL     1       5.837  -4.625  58.561  1.00  0.00     0.007 A 
HETATM    7  C   UNL     1       6.741  -4.304  59.572  1.00  0.00     0.003 A 
HETATM    8  C   UNL     1       7.620  -3.233  59.407  1.00  0.00     0.036 A 
BRANCH   5   9
HETATM    9  C   UNL     1       4.843  -4.220  56.303  1.00  0.00     0.038 C 
BRANCH   9  10
HETATM   10  C   UNL     1       3.941  -5.415  56.633  1.00  0.00     0.005 C 
BRANCH  10  11
HETATM   11  C   UNL     1       2.452  -5.048  56.675  1.00  0.00     0.011 C 
BRANCH  11  12
HETATM   12  C   UNL     1       1.731  -5.675  57.871  1.00  0.00     0.113 C 
BRANCH  12  13
HETATM   13  C   UNL     1       2.353  -5.314  59.202  1.00  0.00     0.172 C 
HETATM   14  O   UNL     1       3.067  -6.350  59.713  1.00  0.00    -0.648 OA
HETATM   15  O   UNL     1       2.260  -4.229  59.757  1.00  0.00    -0.648 OA
ENDBRANCH  12  13
ENDBRANCH  11  12
ENDBRANCH  10  11
ENDBRANCH   9  10
ENDBRANCH   5   9
ENDBRANCH   1   3
TORSDOF 6
ENDMDL
MODEL 2
REMARK VINA RESULT:      -6.1      2.327      5.393
REMARK  6 active torsions:
REMARK  status: ('A' for Active; 'I' for Inactive)
REMARK    1  A    between atoms: O_1  and  C_11 
REMARK    2  A    between atoms: C_4  and  C_5 
REMARK    3  A    between atoms: C_4  and  C_6 
REMARK    4  A    between atoms: C_5  and  C_7 
REMARK    5  A    between atoms: C_6  and  C_8 
REMARK    6  A    between atoms: C_8  and  C_12 
ROOT
HETATM    1  O   UNL     1       3.642  -6.624  59.676  1.00  0.00    -0.361 OA
HETATM    2  H   UNL     1       2.749  -6.885  59.561  1.00  0.00     0.217 HD
ENDROOT
BRANCH   1   3
HETATM    3  C   UNL     1       4.250  -5.849  58.738  1.00  0.00     0.066 A 
HETATM    4  C   UNL     1       5.319  -5.028  59.096  1.00  0.00     0.043 A 
HETATM    5  C   UNL     1       5.928  -4.243  58.128  1.00  0.00    -0.056 A 
HETATM    6  C   UNL     1       5.494  -4.260  56.811  1.00  0.00     0.007 A 
HETATM    7  C   UNL     1       4.426  -5.081  56.453  1.00  0.00     0.003 A 
HETATM    8  C   UNL     1       3.803  -5.877  57.416  1.00  0.00     0.036 A 
BRANCH   5   9
HETATM    9  C   UNL     1       7.082  -3.354  58.515  1.00  0.00     0.038 C 
BRANCH   9  10
HETATM   10  C   UNL     1       7.467  -2.331  57.440  1.00  0.00     0.005 C 
BRANCH  10  11
HETATM   11  C   UNL     1       6.963  -0.916  57.754  1.00  0.00     0.011 C 
BRANCH  11  12
HETATM   12  C   UNL     1       5.462  -0.763  57.497  1.00  0.00     0.113 C 
BRANCH  12  13
HETATM   13  C   UNL     1       5.113   0.478  56.705  1.00  0.00     0.172 C 
HETATM   14  O   UNL     1       4.642   1.465  57.511  1.00  0.00    -0.648 OA
HETATM   15  O   UNL     1       5.249   0.611  55.497  1.00  0.00    -0.648 OA
ENDBRANCH  12  13
ENDBRANCH  11  12
ENDBRANCH  10  11
ENDBRANCH   9  10
ENDBRANCH   5   9
ENDBRANCH   1   3
TORSDOF 6
ENDMDL
MODEL 3
REMARK VINA RESULT:      -6.0      1.319      2.149
REMARK  6 active torsions:
REMARK  status: ('A' for Active; 'I' for Inactive)
REMARK    1  A    between atoms: O_1  and  C_11 
REMARK    2  A    between atoms: C_4  and  C_5 
REMARK    3  A    between atoms: C_4  and  C_6 
REMARK    4  A    between atoms: C_5  and  C_7 
REMARK    5  A    between atoms: C_6  and  C_8 
REMARK    6  A    between atoms: C_8  and  C_12 
ROOT
HETATM    1  O   UNL     1       8.560  -0.962  58.220  1.00  0.00    -0.361 OA
HETATM    2  H   UNL     1       9.323  -1.505  58.228  1.00  0.00     0.217 HD
ENDROOT
BRANCH   1   3
HETATM    3  C   UNL     1       7.337  -1.509  57.983  1.00  0.00     0.066 A 
HETATM    4  C   UNL     1       7.054  -2.803  58.421  1.00  0.00     0.043 A 
HETATM    5  C   UNL     1       5.804  -3.347  58.171  1.00  0.00    -0.056 A 
HETATM    6  C   UNL     1       4.829  -2.629  57.494  1.00  0.00     0.007 A 
HETATM    7  C   UNL     1       5.112  -1.336  57.057  1.00  0.00     0.003 A 
HETATM    8  C   UNL     1       6.366  -0.775  57.301  1.00  0.00     0.036 A 
BRANCH   5   9
HETATM    9  C   UNL     1       5.498  -4.746  58.642  1.00  0.00     0.038 C 
BRANCH   9  10
HETATM   10  C   UNL     1       4.568  -5.529  57.707  1.00  0.00     0.005 C 
BRANCH  10  11
HETATM   11  C   UNL     1       3.349  -6.117  58.430  1.00  0.00     0.011 C 
BRANCH  11  12
HETATM   12  C   UNL     1       2.074  -5.312  58.172  1.00  0.00     0.113 C 
BRANCH  12  13
HETATM   13  C   UNL     1       1.548  -4.612  59.405  1.00  0.00     0.172 C 
HETATM   14  O   UNL     1       0.224  -4.853  59.585  1.00  0.00    -0.648 OA
HETATM   15  O   UNL     1       2.213  -3.929  60.172  1.00  0.00    -0.648 OA
ENDBRANCH  12  13
ENDBRANCH  11  12
ENDBRANCH  10  11
ENDBRANCH   9  10
ENDBRANCH   5   9
ENDBRANCH   1   3
TORSDOF 6
ENDMDL
MODEL 4
REMARK VINA RESULT:      -5.9      2.126      5.339
REMARK  6 active torsions:
REMARK  status: ('A' for Active; 'I' for Inactive)
REMARK    1  A    between atoms: O_1  and  C_11 
REMARK    2  A    between atoms: C_4  and  C_5 
REMARK    3  A    between atoms: C_4  and  C_6 
REMARK    4  A    between atoms: C_5  and  C_7 
REMARK    5  A    between atoms: C_6  and  C_8 
REMARK    6  A    between atoms: C_8  and  C_12 
ROOT
HETATM    1  O   UNL     1       3.646  -6.769  59.801  1.00  0.00    -0.361 OA
HETATM    2  H   UNL     1       3.411  -6.230  60.530  1.00  0.00     0.217 HD
ENDROOT
BRANCH   1   3
HETATM    3  C   UNL     1       3.874  -6.204  58.584  1.00  0.00     0.066 A 
HETATM    4  C   UNL     1       4.866  -5.234  58.439  1.00  0.00     0.043 A 
HETATM    5  C   UNL     1       5.086  -4.667  57.192  1.00  0.00    -0.056 A 
HETATM    6  C   UNL     1       4.338  -5.047  56.088  1.00  0.00     0.007 A 
HETATM    7  C   UNL     1       3.347  -6.017  56.233  1.00  0.00     0.003 A 
HETATM    8  C   UNL     1       3.115  -6.597  57.481  1.00  0.00     0.036 A 
BRANCH   5   9
HETATM    9  C   UNL     1       6.156  -3.617  57.035  1.00  0.00     0.038 C 
BRANCH   9  10
HETATM   10  C   UNL     1       6.410  -2.793  58.303  1.00  0.00     0.005 C 
BRANCH  10  11
HETATM   11  C   UNL     1       7.743  -3.135  58.982  1.00  0.00     0.011 C 
BRANCH  11  12
HETATM   12  C   UNL     1       7.549  -3.885  60.301  1.00  0.00     0.113 C 
BRANCH  12  13
HETATM   13  C   UNL     1       8.695  -4.814  60.636  1.00  0.00     0.172 C 
HETATM   14  O   UNL     1       9.773  -4.575  59.845  1.00  0.00    -0.648 OA
HETATM   15  O   UNL     1       8.687  -5.663  61.516  1.00  0.00    -0.648 OA
ENDBRANCH  12  13
ENDBRANCH  11  12
ENDBRANCH  10  11
ENDBRANCH   9  10
ENDBRANCH   5   9
ENDBRANCH   1   3
TORSDOF 6
ENDMDL
MODEL 5
REMARK VINA RESULT:      -5.9      1.456      2.163
REMARK  6 active torsions:
REMARK  status: ('A' for Active; 'I' for Inactive)
REMARK    1  A    between atoms: O_1  and  C_11 
REMARK    2  A    between atoms: C_4  and  C_5 
REMARK    3  A    between atoms: C_4  and  C_6 
REMARK    4  A    between atoms: C_5  and  C_7 
REMARK    5  A    between atoms: C_6  and  C_8 
REMARK    6  A    between atoms: C_8  and  C_12 
ROOT
HETATM    1  O   UNL     1       6.597  -4.309  60.553  1.00  0.00    -0.361 OA
HETATM    2  H   UNL     1       6.120  -3.818  61.192  1.00  0.00     0.217 HD
ENDROOT
BRANCH   1   3
HETATM    3  C   UNL     1       6.310  -4.168  59.231  1.00  0.00     0.066 A 
HETATM    4  C   UNL     1       5.303  -4.938  58.649  1.00  0.00     0.043 A 
HETATM    5  C   UNL     1       5.022  -4.783  57.300  1.00  0.00    -0.056 A 
HETATM    6  C   UNL     1       5.723  -3.876  56.519  1.00  0.00     0.007 A 
HETATM    7  C   UNL     1       6.729  -3.106  57.101  1.00  0.00     0.003 A 
HETATM    8  C   UNL     1       7.023  -3.251  58.457  1.00  0.00     0.036 A 
BRANCH   5   9
HETATM    9  C   UNL     1       3.935  -5.616  56.670  1.00  0.00     0.038 C 
BRANCH   9  10
HETATM   10  C   UNL     1       2.756  -4.796  56.131  1.00  0.00     0.005 C 
BRANCH  10  11
HETATM   11  C   UNL     1       1.415  -5.187  56.766  1.00  0.00     0.011 C 
BRANCH  11  12
HETATM   12  C   UNL     1       1.592  -5.874  58.123  1.00  0.00     0.113 C 
BRANCH  12  13
HETATM   13  C   UNL     1       1.337  -4.954  59.296  1.00  0.00     0.172 C 
HETATM   14  O   UNL     1       0.021  -4.936  59.634  1.00  0.00    -0.648 OA
HETATM   15  O   UNL     1       2.189  -4.316  59.897  1.00  0.00    -0.648 OA
ENDBRANCH  12  13
ENDBRANCH  11  12
ENDBRANCH  10  11
ENDBRANCH   9  10
ENDBRANCH   5   9
ENDBRANCH   1   3
TORSDOF 6
ENDMDL
MODEL 6
REMARK VINA RESULT:      -5.9      3.014      4.394
REMARK  6 active torsions:
REMARK  status: ('A' for Active; 'I' for Inactive)
REMARK    1  A    between atoms: O_1  and  C_11 
REMARK    2  A    between atoms: C_4  and  C_5 
REMARK    3  A    between atoms: C_4  and  C_6 
REMARK    4  A    between atoms: C_5  and  C_7 
REMARK    5  A    between atoms: C_6  and  C_8 
REMARK    6  A    between atoms: C_8  and  C_12 
ROOT
HETATM    1  O   UNL     1       8.631  -3.156  59.901  1.00  0.00    -0.361 OA
HETATM    2  H   UNL     1       9.421  -2.882  59.478  1.00  0.00     0.217 HD
ENDROOT
BRANCH   1   3
HETATM    3  C   UNL     1       7.565  -3.557  59.156  1.00  0.00     0.066 A 
HETATM    4  C   UNL     1       7.432  -3.124  57.836  1.00  0.00     0.043 A 
HETATM    5  C   UNL     1       6.340  -3.542  57.091  1.00  0.00    -0.056 A 
HETATM    6  C   UNL     1       5.378  -4.381  57.633  1.00  0.00     0.007 A 
HETATM    7  C   UNL     1       5.511  -4.814  58.951  1.00  0.00     0.003 A 
HETATM    8  C   UNL     1       6.605  -4.402  59.714  1.00  0.00     0.036 A 
BRANCH   5   9
HETATM    9  C   UNL     1       6.195  -3.073  55.665  1.00  0.00     0.038 C 
BRANCH   9  10
HETATM   10  C   UNL     1       4.900  -2.297  55.395  1.00  0.00     0.005 C 
BRANCH  10  11
HETATM   11  C   UNL     1       5.141  -0.969  54.664  1.00  0.00     0.011 C 
BRANCH  11  12
HETATM   12  C   UNL     1       6.122  -0.063  55.412  1.00  0.00     0.113 C 
BRANCH  12  13
HETATM   13  C   UNL     1       5.615   0.378  56.767  1.00  0.00     0.172 C 
HETATM   14  O   UNL     1       4.575   1.244  56.649  1.00  0.00    -0.648 OA
HETATM   15  O   UNL     1       6.052   0.003  57.846  1.00  0.00    -0.648 OA
ENDBRANCH  12  13
ENDBRANCH  11  12
ENDBRANCH  10  11
ENDBRANCH   9  10
ENDBRANCH   5   9
ENDBRANCH   1   3
TORSDOF 6
ENDMDL
MODEL 7
REMARK VINA RESULT:      -5.9      2.895      4.545
REMARK  6 active torsions:
REMARK  status: ('A' for Active; 'I' for Inactive)
REMARK    1  A    between atoms: O_1  and  C_11 
REMARK    2  A    between atoms: C_4  and  C_5 
REMARK    3  A    between atoms: C_4  and  C_6 
REMARK    4  A    between atoms: C_5  and  C_7 
REMARK    5  A    between atoms: C_6  and  C_8 
REMARK    6  A    between atoms: C_8  and  C_12 
ROOT
HETATM    1  O   UNL     1       5.449   0.486  53.672  1.00  0.00    -0.361 OA
HETATM    2  H   UNL     1       6.086   1.139  53.458  1.00  0.00     0.217 HD
ENDROOT
BRANCH   1   3
HETATM    3  C   UNL     1       5.443  -0.078  54.910  1.00  0.00     0.066 A 
HETATM    4  C   UNL     1       5.262  -1.455  55.050  1.00  0.00     0.043 A 
HETATM    5  C   UNL     1       5.258  -2.015  56.318  1.00  0.00    -0.056 A 
HETATM    6  C   UNL     1       5.431  -1.232  57.450  1.00  0.00     0.007 A 
HETATM    7  C   UNL     1       5.612   0.143  57.311  1.00  0.00     0.003 A 
HETATM    8  C   UNL     1       5.619   0.721  56.041  1.00  0.00     0.036 A 
BRANCH   5   9
HETATM    9  C   UNL     1       5.061  -3.502  56.470  1.00  0.00     0.038 C 
BRANCH   9  10
HETATM   10  C   UNL     1       4.613  -3.930  57.872  1.00  0.00     0.005 C 
BRANCH  10  11
HETATM   11  C   UNL     1       5.640  -4.823  58.582  1.00  0.00     0.011 C 
BRANCH  11  12
HETATM   12  C   UNL     1       6.312  -4.114  59.760  1.00  0.00     0.113 C 
BRANCH  12  13
HETATM   13  C   UNL     1       7.679  -3.561  59.424  1.00  0.00     0.172 C 
HETATM   14  O   UNL     1       8.440  -3.409  60.539  1.00  0.00    -0.648 OA
HETATM   15  O   UNL     1       8.083  -3.297  58.300  1.00  0.00    -0.648 OA
ENDBRANCH  12  13
ENDBRANCH  11  12
ENDBRANCH  10  11
ENDBRANCH   9  10
ENDBRANCH   5   9
ENDBRANCH   1   3
TORSDOF 6
ENDMDL
MODEL 8
REMARK VINA RESULT:      -5.7      1.440      1.905
REMARK  6 active torsions:
REMARK  status: ('A' for Active; 'I' for Inactive)
REMARK    1  A    between atoms: O_1  and  C_11 
REMARK    2  A    between atoms: C_4  and  C_5 
REMARK    3  A    between atoms: C_4  and  C_6 
REMARK    4  A    between atoms: C_5  and  C_7 
REMARK    5  A    between atoms: C_6  and  C_8 
REMARK    6  A    between atoms: C_8  and  C_12 
ROOT
HETATM    1  O   UNL     1       6.910  -4.377  60.878  1.00  0.00    -0.361 OA
HETATM    2  H   UNL     1       6.959  -5.291  61.080  1.00  0.00     0.217 HD
ENDROOT
BRANCH   1   3
HETATM    3  C   UNL     1       6.819  -3.971  59.582  1.00  0.00     0.066 A 
HETATM    4  C   UNL     1       5.648  -4.201  58.859  1.00  0.00     0.043 A 
HETATM    5  C   UNL     1       5.571  -3.781  57.539  1.00  0.00    -0.056 A 
HETATM    6  C   UNL     1       6.636  -3.139  56.926  1.00  0.00     0.007 A 
HETATM    7  C   UNL     1       7.806  -2.909  57.649  1.00  0.00     0.003 A 
HETATM    8  C   UNL     1       7.898  -3.325  58.978  1.00  0.00     0.036 A 
BRANCH   5   9
HETATM    9  C   UNL     1       4.307  -4.030  56.757  1.00  0.00     0.038 C 
BRANCH   9  10
HETATM   10  C   UNL     1       4.132  -5.485  56.305  1.00  0.00     0.005 C 
BRANCH  10  11
HETATM   11  C   UNL     1       3.065  -6.238  57.112  1.00  0.00     0.011 C 
BRANCH  11  12
HETATM   12  C   UNL     1       1.845  -5.366  57.419  1.00  0.00     0.113 C 
BRANCH  12  13
HETATM   13  C   UNL     1       1.513  -5.300  58.893  1.00  0.00     0.172 C 
HETATM   14  O   UNL     1       2.611  -5.528  59.660  1.00  0.00    -0.648 OA
HETATM   15  O   UNL     1       0.411  -5.053  59.362  1.00  0.00    -0.648 OA
ENDBRANCH  12  13
ENDBRANCH  11  12
ENDBRANCH  10  11
ENDBRANCH   9  10
ENDBRANCH   5   9
ENDBRANCH   1   3
TORSDOF 6
ENDMDL
MODEL 9
REMARK VINA RESULT:      -5.7      2.585      3.800
REMARK  6 active torsions:
REMARK  status: ('A' for Active; 'I' for Inactive)
REMARK    1  A    between atoms: O_1  and  C_11 
REMARK    2  A    between atoms: C_4  and  C_5 
REMARK    3  A    between atoms: C_4  and  C_6 
REMARK    4  A    between atoms: C_5  and  C_7 
REMARK    5  A    between atoms: C_6  and  C_8 
REMARK    6  A    between atoms: C_8  and  C_12 
ROOT
HETATM    1  O   UNL     1       6.133   0.601  53.634  1.00  0.00    -0.361 OA
HETATM    2  H   UNL     1       5.788   0.126  52.904  1.00  0.00     0.217 HD
ENDROOT
BRANCH   1   3
HETATM    3  C   UNL     1       5.976   0.119  54.896  1.00  0.00     0.066 A 
HETATM    4  C   UNL     1       6.397  -1.175  55.206  1.00  0.00     0.043 A 
HETATM    5  C   UNL     1       6.229  -1.653  56.497  1.00  0.00    -0.056 A 
HETATM    6  C   UNL     1       5.652  -0.869  57.485  1.00  0.00     0.007 A 
HETATM    7  C   UNL     1       5.232   0.423  57.175  1.00  0.00     0.003 A 
HETATM    8  C   UNL     1       5.394   0.918  55.880  1.00  0.00     0.036 A 
BRANCH   5   9
HETATM    9  C   UNL     1       6.682  -3.051  56.833  1.00  0.00     0.038 C 
BRANCH   9  10
HETATM   10  C   UNL     1       7.087  -3.239  58.300  1.00  0.00     0.005 C 
BRANCH  10  11
HETATM   11  C   UNL     1       6.304  -4.359  58.997  1.00  0.00     0.011 C 
BRANCH  11  12
HETATM   12  C   UNL     1       5.117  -4.846  58.163  1.00  0.00     0.113 C 
BRANCH  12  13
HETATM   13  C   UNL     1       3.890  -5.155  58.993  1.00  0.00     0.172 C 
HETATM   14  O   UNL     1       3.881  -6.450  59.401  1.00  0.00    -0.648 OA
HETATM   15  O   UNL     1       3.014  -4.355  59.291  1.00  0.00    -0.648 OA
ENDBRANCH  12  13
ENDBRANCH  11  12
ENDBRANCH  10  11
ENDBRANCH   9  10
ENDBRANCH   5   9
ENDBRANCH   1   3
TORSDOF 6
ENDMDL
