MODEL 1
REMARK VINA RESULT:      -6.8      0.000      0.000
REMARK  9 active torsions:
REMARK  status: ('A' for Active; 'I' for Inactive)
REMARK    1  A    between atoms: C_3  and  C_8 
REMARK    2  A    between atoms: C_5  and  O_7 
REMARK    3  A    between atoms: C_8  and  C_9 
REMARK    4  A    between atoms: C_9  and  C_10 
REMARK    5  A    between atoms: C_9  and  O_20 
REMARK    6  A    between atoms: C_10  and  C_11 
REMARK    7  A    between atoms: C_12  and  O_19 
REMARK    8  A    between atoms: C_14  and  O_18 
REMARK    9  A    between atoms: C_16  and  O_17 
ROOT
HETATM    1  C   UNL     1       5.128   0.817  57.685  1.00  0.00     0.003 A 
HETATM    2  C   UNL     1       5.610  -0.095  56.765  1.00  0.00     0.007 A 
HETATM    3  C   UNL     1       5.201  -0.031  55.445  1.00  0.00    -0.053 A 
HETATM    4  C   UNL     1       4.310   0.945  55.044  1.00  0.00     0.043 A 
HETATM    5  C   UNL     1       3.825   1.861  55.966  1.00  0.00     0.066 A 
HETATM    6  C   UNL     1       4.237   1.795  57.289  1.00  0.00     0.036 A 
ENDROOT
BRANCH   3   7
HETATM    7  C   UNL     1       5.729  -1.026  54.444  1.00  0.00     0.070 C 
BRANCH   7   8
HETATM    8  C   UNL     1       7.184  -1.364  54.777  1.00  0.00     0.127 C 
BRANCH   8   9
HETATM    9  C   UNL     1       7.324  -2.874  54.976  1.00  0.00     0.076 C 
BRANCH   9  10
HETATM   10  C   UNL     1       7.032  -3.221  56.413  1.00  0.00     0.011 A 
HETATM   11  C   UNL     1       7.942  -2.891  57.406  1.00  0.00     0.077 A 
HETATM   12  C   UNL     1       7.673  -3.210  58.728  1.00  0.00     0.073 A 
HETATM   13  C   UNL     1       6.493  -3.861  59.057  1.00  0.00     0.071 A 
HETATM   14  C   UNL     1       5.582  -4.190  58.064  1.00  0.00     0.073 A 
HETATM   15  C   UNL     1       5.850  -3.866  56.743  1.00  0.00     0.077 A 
BRANCH  11  16
HETATM   16  O   UNL     1       9.098  -2.254  57.082  1.00  0.00    -0.360 OA
HETATM   17  H   UNL     1       9.187  -1.841  56.246  1.00  0.00     0.217 HD
ENDBRANCH  11  16
BRANCH  13  18
HETATM   18  O   UNL     1       6.229  -4.175  60.353  1.00  0.00    -0.361 OA
HETATM   19  H   UNL     1       6.587  -3.653  61.043  1.00  0.00     0.217 HD
ENDBRANCH  13  18
BRANCH  15  20
HETATM   20  O   UNL     1       4.957  -4.190  55.770  1.00  0.00    -0.360 OA
HETATM   21  H   UNL     1       5.256  -4.359  54.899  1.00  0.00     0.217 HD
ENDBRANCH  15  20
ENDBRANCH   9  10
ENDBRANCH   8   9
BRANCH   8  22
HETATM   22  O   UNL     1       8.027  -0.944  53.704  1.00  0.00    -0.395 OA
HETATM   23  H   UNL     1       8.490  -0.128  53.955  1.00  0.00     0.210 HD
ENDBRANCH   8  22
ENDBRANCH   7   8
ENDBRANCH   3   7
BRANCH   5  24
HETATM   24  O   UNL     1       2.948   2.823  55.573  1.00  0.00    -0.361 OA
HETATM   25  H   UNL     1       2.945   3.119  54.684  1.00  0.00     0.217 HD
ENDBRANCH   5  24
TORSDOF 9
ENDMDL
MODEL 2
REMARK VINA RESULT:      -6.8      2.438      5.690
REMARK  9 active torsions:
REMARK  status: ('A' for Active; 'I' for Inactive)
REMARK    1  A    between atoms: C_3  and  C_8 
REMARK    2  A    between atoms: C_5  and  O_7 
REMARK    3  A    between atoms: C_8  and  C_9 
REMARK    4  A    between atoms: C_9  and  C_10 
REMARK    5  A    between atoms: C_9  and  O_20 
REMARK    6  A    between atoms: C_10  and  C_11 
REMARK    7  A    between atoms: C_12  and  O_19 
REMARK    8  A    between atoms: C_14  and  O_18 
REMARK    9  A    between atoms: C_16  and  O_17 
ROOT
HETATM    1  C   UNL     1       5.326  -3.955  58.687  1.00  0.00     0.003 A 
HETATM    2  C   UNL     1       5.061  -2.796  57.983  1.00  0.00     0.007 A 
HETATM    3  C   UNL     1       6.064  -1.866  57.773  1.00  0.00    -0.053 A 
HETATM    4  C   UNL     1       7.332  -2.095  58.268  1.00  0.00     0.043 A 
HETATM    5  C   UNL     1       7.601  -3.258  58.976  1.00  0.00     0.066 A 
HETATM    6  C   UNL     1       6.594  -4.188  59.184  1.00  0.00     0.036 A 
ENDROOT
BRANCH   3   7
HETATM    7  C   UNL     1       5.771  -0.604  57.005  1.00  0.00     0.070 C 
BRANCH   7   8
HETATM    8  C   UNL     1       5.997  -0.851  55.511  1.00  0.00     0.127 C 
BRANCH   8   9
HETATM    9  C   UNL     1       4.663  -0.750  54.770  1.00  0.00     0.076 C 
BRANCH   9  10
HETATM   10  C   UNL     1       4.678  -1.675  53.580  1.00  0.00     0.011 A 
HETATM   11  C   UNL     1       5.207  -1.243  52.372  1.00  0.00     0.077 A 
HETATM   12  C   UNL     1       5.221  -2.094  51.278  1.00  0.00     0.073 A 
HETATM   13  C   UNL     1       4.706  -3.377  51.391  1.00  0.00     0.071 A 
HETATM   14  C   UNL     1       4.179  -3.809  52.598  1.00  0.00     0.073 A 
HETATM   15  C   UNL     1       4.170  -2.960  53.694  1.00  0.00     0.077 A 
BRANCH  11  16
HETATM   16  O   UNL     1       5.710   0.014  52.262  1.00  0.00    -0.360 OA
HETATM   17  H   UNL     1       5.168   0.754  52.453  1.00  0.00     0.217 HD
ENDBRANCH  11  16
BRANCH  13  18
HETATM   18  O   UNL     1       4.719  -4.211  50.318  1.00  0.00    -0.361 OA
HETATM   19  H   UNL     1       5.372  -4.880  50.253  1.00  0.00     0.217 HD
ENDBRANCH  13  18
BRANCH  15  20
HETATM   20  O   UNL     1       3.652  -3.383  54.877  1.00  0.00    -0.360 OA
HETATM   21  H   UNL     1       2.726  -3.365  55.017  1.00  0.00     0.217 HD
ENDBRANCH  15  20
ENDBRANCH   9  10
ENDBRANCH   8   9
BRANCH   8  22
HETATM   22  O   UNL     1       6.902   0.129  54.999  1.00  0.00    -0.395 OA
HETATM   23  H   UNL     1       7.815  -0.153  55.169  1.00  0.00     0.210 HD
ENDBRANCH   8  22
ENDBRANCH   7   8
ENDBRANCH   3   7
BRANCH   5  24
HETATM   24  O   UNL     1       8.849  -3.485  59.463  1.00  0.00    -0.361 OA
HETATM   25  H   UNL     1       9.242  -4.330  59.369  1.00  0.00     0.217 HD
ENDBRANCH   5  24
TORSDOF 9
ENDMDL
MODEL 3
REMARK VINA RESULT:      -6.8      2.435      5.843
REMARK  9 active torsions:
REMARK  status: ('A' for Active; 'I' for Inactive)
REMARK    1  A    between atoms: C_3  and  C_8 
REMARK    2  A    between atoms: C_5  and  O_7 
REMARK    3  A    between atoms: C_8  and  C_9 
REMARK    4  A    between atoms: C_9  and  C_10 
REMARK    5  A    between atoms: C_9  and  O_20 
REMARK    6  A    between atoms: C_10  and  C_11 
REMARK    7  A    between atoms: C_12  and  O_19 
REMARK    8  A    between atoms: C_14  and  O_18 
REMARK    9  A    between atoms: C_16  and  O_17 
ROOT
HETATM    1  C   UNL     1       5.317  -3.955  58.639  1.00  0.00     0.003 A 
HETATM    2  C   UNL     1       5.051  -2.790  57.945  1.00  0.00     0.007 A 
HETATM    3  C   UNL     1       6.051  -1.854  57.753  1.00  0.00    -0.053 A 
HETATM    4  C   UNL     1       7.316  -2.080  58.257  1.00  0.00     0.043 A 
HETATM    5  C   UNL     1       7.585  -3.249  58.955  1.00  0.00     0.066 A 
HETATM    6  C   UNL     1       6.581  -4.187  59.145  1.00  0.00     0.036 A 
ENDROOT
BRANCH   3   7
HETATM    7  C   UNL     1       5.758  -0.585  56.995  1.00  0.00     0.070 C 
BRANCH   7   8
HETATM    8  C   UNL     1       5.993  -0.817  55.500  1.00  0.00     0.127 C 
BRANCH   8   9
HETATM    9  C   UNL     1       4.662  -0.719  54.753  1.00  0.00     0.076 C 
BRANCH   9  10
HETATM   10  C   UNL     1       4.682  -1.648  53.567  1.00  0.00     0.011 A 
HETATM   11  C   UNL     1       4.156  -2.927  53.678  1.00  0.00     0.077 A 
HETATM   12  C   UNL     1       4.175  -3.782  52.587  1.00  0.00     0.073 A 
HETATM   13  C   UNL     1       4.720  -3.358  51.384  1.00  0.00     0.071 A 
HETATM   14  C   UNL     1       5.244  -2.079  51.272  1.00  0.00     0.073 A 
HETATM   15  C   UNL     1       5.221  -1.223  52.362  1.00  0.00     0.077 A 
BRANCH  11  16
HETATM   16  O   UNL     1       3.623  -3.341  54.858  1.00  0.00    -0.360 OA
HETATM   17  H   UNL     1       2.693  -3.369  54.967  1.00  0.00     0.217 HD
ENDBRANCH  11  16
BRANCH  13  18
HETATM   18  O   UNL     1       4.739  -4.196  50.314  1.00  0.00    -0.361 OA
HETATM   19  H   UNL     1       5.349  -4.053  49.618  1.00  0.00     0.217 HD
ENDBRANCH  13  18
BRANCH  15  20
HETATM   20  O   UNL     1       5.737   0.030  52.253  1.00  0.00    -0.360 OA
HETATM   21  H   UNL     1       6.657   0.169  52.361  1.00  0.00     0.217 HD
ENDBRANCH  15  20
ENDBRANCH   9  10
ENDBRANCH   8   9
BRANCH   8  22
HETATM   22  O   UNL     1       6.894   0.173  55.001  1.00  0.00    -0.395 OA
HETATM   23  H   UNL     1       6.412   0.790  54.427  1.00  0.00     0.210 HD
ENDBRANCH   8  22
ENDBRANCH   7   8
ENDBRANCH   3   7
BRANCH   5  24
HETATM   24  O   UNL     1       8.831  -3.474  59.450  1.00  0.00    -0.361 OA
HETATM   25  H   UNL     1       9.513  -3.777  58.883  1.00  0.00     0.217 HD
ENDBRANCH   5  24
TORSDOF 9
ENDMDL
MODEL 4
REMARK VINA RESULT:      -6.7      2.056      5.873
REMARK  9 active torsions:
REMARK  status: ('A' for Active; 'I' for Inactive)
REMARK    1  A    between atoms: C_3  and  C_8 
REMARK    2  A    between atoms: C_5  and  O_7 
REMARK    3  A    between atoms: C_8  and  C_9 
REMARK    4  A    between atoms: C_9  and  C_10 
REMARK    5  A    between atoms: C_9  and  O_20 
REMARK    6  A    between atoms: C_10  and  C_11 
REMARK    7  A    between atoms: C_12  and  O_19 
REMARK    8  A    between atoms: C_14  and  O_18 
REMARK    9  A    between atoms: C_16  and  O_17 
ROOT
HETATM    1  C   UNL     1       4.263  -5.051  55.732  1.00  0.00     0.003 A 
HETATM    2  C   UNL     1       5.021  -4.201  56.514  1.00  0.00     0.007 A 
HETATM    3  C   UNL     1       5.134  -4.424  57.874  1.00  0.00    -0.053 A 
HETATM    4  C   UNL     1       4.488  -5.499  58.453  1.00  0.00     0.043 A 
HETATM    5  C   UNL     1       3.726  -6.354  57.671  1.00  0.00     0.066 A 
HETATM    6  C   UNL     1       3.615  -6.127  56.307  1.00  0.00     0.036 A 
ENDROOT
BRANCH   3   7
HETATM    7  C   UNL     1       5.962  -3.495  58.724  1.00  0.00     0.070 C 
BRANCH   7   8
HETATM    8  C   UNL     1       7.085  -2.892  57.876  1.00  0.00     0.127 C 
BRANCH   8   9
HETATM    9  C   UNL     1       6.930  -1.371  57.832  1.00  0.00     0.076 C 
BRANCH   9  10
HETATM   10  C   UNL     1       6.568  -0.944  56.433  1.00  0.00     0.011 A 
HETATM   11  C   UNL     1       7.230  -1.495  55.346  1.00  0.00     0.077 A 
HETATM   12  C   UNL     1       6.898  -1.102  54.058  1.00  0.00     0.073 A 
HETATM   13  C   UNL     1       5.903  -0.157  53.858  1.00  0.00     0.071 A 
HETATM   14  C   UNL     1       5.240   0.394  54.944  1.00  0.00     0.073 A 
HETATM   15  C   UNL     1       5.570  -0.003  56.231  1.00  0.00     0.077 A 
BRANCH  11  16
HETATM   16  O   UNL     1       8.206  -2.421  55.543  1.00  0.00    -0.360 OA
HETATM   17  H   UNL     1       8.355  -2.769  56.400  1.00  0.00     0.217 HD
ENDBRANCH  11  16
BRANCH  13  18
HETATM   18  O   UNL     1       5.578   0.230  52.596  1.00  0.00    -0.361 OA
HETATM   19  H   UNL     1       4.928  -0.244  52.115  1.00  0.00     0.217 HD
ENDBRANCH  13  18
BRANCH  15  20
HETATM   20  O   UNL     1       4.920   0.538  57.296  1.00  0.00    -0.360 OA
HETATM   21  H   UNL     1       4.524   1.383  57.223  1.00  0.00     0.217 HD
ENDBRANCH  15  20
ENDBRANCH   9  10
ENDBRANCH   8   9
BRANCH   8  22
HETATM   22  O   UNL     1       8.348  -3.226  58.454  1.00  0.00    -0.395 OA
HETATM   23  H   UNL     1       8.442  -2.775  59.308  1.00  0.00     0.210 HD
ENDBRANCH   8  22
ENDBRANCH   7   8
ENDBRANCH   3   7
BRANCH   5  24
HETATM   24  O   UNL     1       3.091  -7.412  58.240  1.00  0.00    -0.361 OA
HETATM   25  H   UNL     1       2.163  -7.387  58.369  1.00  0.00     0.217 HD
ENDBRANCH   5  24
TORSDOF 9
ENDMDL
MODEL 5
REMARK VINA RESULT:      -6.7      2.061      5.952
REMARK  9 active torsions:
REMARK  status: ('A' for Active; 'I' for Inactive)
REMARK    1  A    between atoms: C_3  and  C_8 
REMARK    2  A    between atoms: C_5  and  O_7 
REMARK    3  A    between atoms: C_8  and  C_9 
REMARK    4  A    between atoms: C_9  and  C_10 
REMARK    5  A    between atoms: C_9  and  O_20 
REMARK    6  A    between atoms: C_10  and  C_11 
REMARK    7  A    between atoms: C_12  and  O_19 
REMARK    8  A    between atoms: C_14  and  O_18 
REMARK    9  A    between atoms: C_16  and  O_17 
ROOT
HETATM    1  C   UNL     1       4.252  -5.068  55.740  1.00  0.00     0.003 A 
HETATM    2  C   UNL     1       5.017  -4.222  56.520  1.00  0.00     0.007 A 
HETATM    3  C   UNL     1       5.133  -4.448  57.880  1.00  0.00    -0.053 A 
HETATM    4  C   UNL     1       4.484  -5.519  58.460  1.00  0.00     0.043 A 
HETATM    5  C   UNL     1       3.714  -6.369  57.679  1.00  0.00     0.066 A 
HETATM    6  C   UNL     1       3.600  -6.141  56.316  1.00  0.00     0.036 A 
ENDROOT
BRANCH   3   7
HETATM    7  C   UNL     1       5.969  -3.524  58.728  1.00  0.00     0.070 C 
BRANCH   7   8
HETATM    8  C   UNL     1       7.072  -2.901  57.870  1.00  0.00     0.127 C 
BRANCH   8   9
HETATM    9  C   UNL     1       6.897  -1.382  57.838  1.00  0.00     0.076 C 
BRANCH   9  10
HETATM   10  C   UNL     1       6.549  -0.946  56.438  1.00  0.00     0.011 A 
HETATM   11  C   UNL     1       5.565   0.011  56.234  1.00  0.00     0.077 A 
HETATM   12  C   UNL     1       5.244   0.412  54.946  1.00  0.00     0.073 A 
HETATM   13  C   UNL     1       5.907  -0.143  53.862  1.00  0.00     0.071 A 
HETATM   14  C   UNL     1       6.892  -1.099  54.066  1.00  0.00     0.073 A 
HETATM   15  C   UNL     1       7.215  -1.496  55.354  1.00  0.00     0.077 A 
BRANCH  11  16
HETATM   16  O   UNL     1       4.915   0.554  57.297  1.00  0.00    -0.360 OA
HETATM   17  H   UNL     1       5.204   0.368  58.168  1.00  0.00     0.217 HD
ENDBRANCH  11  16
BRANCH  13  18
HETATM   18  O   UNL     1       5.593   0.249  52.599  1.00  0.00    -0.361 OA
HETATM   19  H   UNL     1       6.028   0.985  52.216  1.00  0.00     0.217 HD
ENDBRANCH  13  18
BRANCH  15  20
HETATM   20  O   UNL     1       8.180  -2.433  55.554  1.00  0.00    -0.360 OA
HETATM   21  H   UNL     1       8.381  -3.050  54.878  1.00  0.00     0.217 HD
ENDBRANCH  15  20
ENDBRANCH   9  10
ENDBRANCH   8   9
BRANCH   8  22
HETATM   22  O   UNL     1       8.348  -3.222  58.428  1.00  0.00    -0.395 OA
HETATM   23  H   UNL     1       8.278  -4.040  58.945  1.00  0.00     0.210 HD
ENDBRANCH   8  22
ENDBRANCH   7   8
ENDBRANCH   3   7
BRANCH   5  24
HETATM   24  O   UNL     1       3.075  -7.425  58.249  1.00  0.00    -0.361 OA
HETATM   25  H   UNL     1       2.148  -7.395  58.382  1.00  0.00     0.217 HD
ENDBRANCH   5  24
TORSDOF 9
ENDMDL
MODEL 6
REMARK VINA RESULT:      -6.6      2.931      4.889
REMARK  9 active torsions:
REMARK  status: ('A' for Active; 'I' for Inactive)
REMARK    1  A    between atoms: C_3  and  C_8 
REMARK    2  A    between atoms: C_5  and  O_7 
REMARK    3  A    between atoms: C_8  and  C_9 
REMARK    4  A    between atoms: C_9  and  C_10 
REMARK    5  A    between atoms: C_9  and  O_20 
REMARK    6  A    between atoms: C_10  and  C_11 
REMARK    7  A    between atoms: C_12  and  O_19 
REMARK    8  A    between atoms: C_14  and  O_18 
REMARK    9  A    between atoms: C_16  and  O_17 
ROOT
HETATM    1  C   UNL     1       5.434   0.591  56.824  1.00  0.00     0.003 A 
HETATM    2  C   UNL     1       5.795  -0.493  57.601  1.00  0.00     0.007 A 
HETATM    3  C   UNL     1       5.735  -1.772  57.078  1.00  0.00    -0.053 A 
HETATM    4  C   UNL     1       5.313  -1.968  55.778  1.00  0.00     0.043 A 
HETATM    5  C   UNL     1       4.950  -0.881  54.996  1.00  0.00     0.066 A 
HETATM    6  C   UNL     1       5.012   0.401  55.523  1.00  0.00     0.036 A 
ENDROOT
BRANCH   3   7
HETATM    7  C   UNL     1       6.129  -2.952  57.928  1.00  0.00     0.070 C 
BRANCH   7   8
HETATM    8  C   UNL     1       4.871  -3.629  58.478  1.00  0.00     0.127 C 
BRANCH   8   9
HETATM    9  C   UNL     1       4.869  -5.105  58.077  1.00  0.00     0.076 C 
BRANCH   9  10
HETATM   10  C   UNL     1       3.534  -5.461  57.477  1.00  0.00     0.011 A 
HETATM   11  C   UNL     1       2.449  -5.720  58.302  1.00  0.00     0.077 A 
HETATM   12  C   UNL     1       1.220  -6.047  57.750  1.00  0.00     0.073 A 
HETATM   13  C   UNL     1       1.076  -6.117  56.372  1.00  0.00     0.071 A 
HETATM   14  C   UNL     1       2.160  -5.858  55.547  1.00  0.00     0.073 A 
HETATM   15  C   UNL     1       3.387  -5.525  56.100  1.00  0.00     0.077 A 
BRANCH  11  16
HETATM   16  O   UNL     1       2.591  -5.652  59.652  1.00  0.00    -0.360 OA
HETATM   17  H   UNL     1       3.114  -4.975  60.034  1.00  0.00     0.217 HD
ENDBRANCH  11  16
BRANCH  13  18
HETATM   18  O   UNL     1      -0.128  -6.439  55.830  1.00  0.00    -0.361 OA
HETATM   19  H   UNL     1      -0.629  -7.145  56.189  1.00  0.00     0.217 HD
ENDBRANCH  13  18
BRANCH  15  20
HETATM   20  O   UNL     1       4.450  -5.272  55.291  1.00  0.00    -0.360 OA
HETATM   21  H   UNL     1       5.251  -5.744  55.408  1.00  0.00     0.217 HD
ENDBRANCH  15  20
ENDBRANCH   9  10
ENDBRANCH   8   9
BRANCH   8  22
HETATM   22  O   UNL     1       4.858  -3.522  59.902  1.00  0.00    -0.395 OA
HETATM   23  H   UNL     1       4.242  -4.176  60.270  1.00  0.00     0.210 HD
ENDBRANCH   8  22
ENDBRANCH   7   8
ENDBRANCH   3   7
BRANCH   5  24
HETATM   24  O   UNL     1       4.536  -1.071  53.715  1.00  0.00    -0.361 OA
HETATM   25  H   UNL     1       4.989  -1.677  53.161  1.00  0.00     0.217 HD
ENDBRANCH   5  24
TORSDOF 9
ENDMDL
MODEL 7
REMARK VINA RESULT:      -6.6      2.931      4.837
REMARK  9 active torsions:
REMARK  status: ('A' for Active; 'I' for Inactive)
REMARK    1  A    between atoms: C_3  and  C_8 
REMARK    2  A    between atoms: C_5  and  O_7 
REMARK    3  A    between atoms: C_8  and  C_9 
REMARK    4  A    between atoms: C_9  and  C_10 
REMARK    5  A    between atoms: C_9  and  O_20 
REMARK    6  A    between atoms: C_10  and  C_11 
REMARK    7  A    between atoms: C_12  and  O_19 
REMARK    8  A    between atoms: C_14  and  O_18 
REMARK    9  A    between atoms: C_16  and  O_17 
ROOT
HETATM    1  C   UNL     1       5.423   0.565  56.900  1.00  0.00     0.003 A 
HETATM    2  C   UNL     1       5.797  -0.548  57.630  1.00  0.00     0.007 A 
HETATM    3  C   UNL     1       5.748  -1.804  57.053  1.00  0.00    -0.053 A 
HETATM    4  C   UNL     1       5.326  -1.948  55.746  1.00  0.00     0.043 A 
HETATM    5  C   UNL     1       4.950  -0.833  55.012  1.00  0.00     0.066 A 
HETATM    6  C   UNL     1       5.000   0.426  55.593  1.00  0.00     0.036 A 
ENDROOT
BRANCH   3   7
HETATM    7  C   UNL     1       6.157  -3.016  57.850  1.00  0.00     0.070 C 
BRANCH   7   8
HETATM    8  C   UNL     1       4.913  -3.675  58.451  1.00  0.00     0.127 C 
BRANCH   8   9
HETATM    9  C   UNL     1       4.888  -5.157  58.071  1.00  0.00     0.076 C 
BRANCH   9  10
HETATM   10  C   UNL     1       3.545  -5.502  57.481  1.00  0.00     0.011 A 
HETATM   11  C   UNL     1       3.384  -5.548  56.104  1.00  0.00     0.077 A 
HETATM   12  C   UNL     1       2.148  -5.866  55.561  1.00  0.00     0.073 A 
HETATM   13  C   UNL     1       1.073  -6.135  56.395  1.00  0.00     0.071 A 
HETATM   14  C   UNL     1       1.235  -6.090  57.771  1.00  0.00     0.073 A 
HETATM   15  C   UNL     1       2.472  -5.777  58.314  1.00  0.00     0.077 A 
BRANCH  11  16
HETATM   16  O   UNL     1       4.437  -5.283  55.288  1.00  0.00    -0.360 OA
HETATM   17  H   UNL     1       4.297  -5.146  54.372  1.00  0.00     0.217 HD
ENDBRANCH  11  16
BRANCH  13  18
HETATM   18  O   UNL     1      -0.138  -6.445  55.863  1.00  0.00    -0.361 OA
HETATM   19  H   UNL     1      -0.521  -5.888  55.214  1.00  0.00     0.217 HD
ENDBRANCH  13  18
BRANCH  15  20
HETATM   20  O   UNL     1       2.630  -5.732  59.664  1.00  0.00    -0.360 OA
HETATM   21  H   UNL     1       3.470  -5.540  60.030  1.00  0.00     0.217 HD
ENDBRANCH  15  20
ENDBRANCH   9  10
ENDBRANCH   8   9
BRANCH   8  22
HETATM   22  O   UNL     1       4.947  -3.548  59.873  1.00  0.00    -0.395 OA
HETATM   23  H   UNL     1       5.277  -2.667  60.112  1.00  0.00     0.210 HD
ENDBRANCH   8  22
ENDBRANCH   7   8
ENDBRANCH   3   7
BRANCH   5  24
HETATM   24  O   UNL     1       4.534  -0.973  53.725  1.00  0.00    -0.361 OA
HETATM   25  H   UNL     1       3.674  -1.300  53.543  1.00  0.00     0.217 HD
ENDBRANCH   5  24
TORSDOF 9
ENDMDL
MODEL 8
REMARK VINA RESULT:      -6.6      2.325      5.743
REMARK  9 active torsions:
REMARK  status: ('A' for Active; 'I' for Inactive)
REMARK    1  A    between atoms: C_3  and  C_8 
REMARK    2  A    between atoms: C_5  and  O_7 
REMARK    3  A    between atoms: C_8  and  C_9 
REMARK    4  A    between atoms: C_9  and  C_10 
REMARK    5  A    between atoms: C_9  and  O_20 
REMARK    6  A    between atoms: C_10  and  C_11 
REMARK    7  A    between atoms: C_12  and  O_19 
REMARK    8  A    between atoms: C_14  and  O_18 
REMARK    9  A    between atoms: C_16  and  O_17 
ROOT
HETATM    1  C   UNL     1       3.938  -5.887  57.209  1.00  0.00     0.003 A 
HETATM    2  C   UNL     1       4.987  -4.994  57.319  1.00  0.00     0.007 A 
HETATM    3  C   UNL     1       4.952  -3.999  58.279  1.00  0.00    -0.053 A 
HETATM    4  C   UNL     1       3.869  -3.895  59.129  1.00  0.00     0.043 A 
HETATM    5  C   UNL     1       2.815  -4.790  59.020  1.00  0.00     0.066 A 
HETATM    6  C   UNL     1       2.852  -5.788  58.057  1.00  0.00     0.036 A 
ENDROOT
BRANCH   3   7
HETATM    7  C   UNL     1       6.098  -3.027  58.397  1.00  0.00     0.070 C 
BRANCH   7   8
HETATM    8  C   UNL     1       6.430  -2.459  57.015  1.00  0.00     0.127 C 
BRANCH   8   9
HETATM    9  C   UNL     1       5.357  -1.447  56.608  1.00  0.00     0.076 C 
BRANCH   9  10
HETATM   10  C   UNL     1       5.387  -1.257  55.114  1.00  0.00     0.011 A 
HETATM   11  C   UNL     1       6.137  -0.230  54.560  1.00  0.00     0.077 A 
HETATM   12  C   UNL     1       6.165  -0.056  53.184  1.00  0.00     0.073 A 
HETATM   13  C   UNL     1       5.441  -0.907  52.363  1.00  0.00     0.071 A 
HETATM   14  C   UNL     1       4.692  -1.935  52.917  1.00  0.00     0.073 A 
HETATM   15  C   UNL     1       4.669  -2.112  54.292  1.00  0.00     0.077 A 
BRANCH  11  16
HETATM   16  O   UNL     1       6.845   0.604  55.365  1.00  0.00    -0.360 OA
HETATM   17  H   UNL     1       6.600   0.707  56.263  1.00  0.00     0.217 HD
ENDBRANCH  11  16
BRANCH  13  18
HETATM   18  O   UNL     1       5.467  -0.736  51.015  1.00  0.00    -0.361 OA
HETATM   19  H   UNL     1       5.353  -1.472  50.447  1.00  0.00     0.217 HD
ENDBRANCH  13  18
BRANCH  15  20
HETATM   20  O   UNL     1       3.933  -3.118  54.834  1.00  0.00    -0.360 OA
HETATM   21  H   UNL     1       3.733  -3.879  54.326  1.00  0.00     0.217 HD
ENDBRANCH  15  20
ENDBRANCH   9  10
ENDBRANCH   8   9
BRANCH   8  22
HETATM   22  O   UNL     1       7.703  -1.811  57.060  1.00  0.00    -0.395 OA
HETATM   23  H   UNL     1       7.577  -0.849  57.042  1.00  0.00     0.210 HD
ENDBRANCH   8  22
ENDBRANCH   7   8
ENDBRANCH   3   7
BRANCH   5  24
HETATM   24  O   UNL     1       1.748  -4.691  59.856  1.00  0.00    -0.361 OA
HETATM   25  H   UNL     1       1.386  -3.849  60.056  1.00  0.00     0.217 HD
ENDBRANCH   5  24
TORSDOF 9
ENDMDL
MODEL 9
REMARK VINA RESULT:      -6.5      3.027      6.548
REMARK  9 active torsions:
REMARK  status: ('A' for Active; 'I' for Inactive)
REMARK    1  A    between atoms: C_3  and  C_8 
REMARK    2  A    between atoms: C_5  and  O_7 
REMARK    3  A    between atoms: C_8  and  C_9 
REMARK    4  A    between atoms: C_9  and  C_10 
REMARK    5  A    between atoms: C_9  and  O_20 
REMARK    6  A    between atoms: C_10  and  C_11 
REMARK    7  A    between atoms: C_12  and  O_19 
REMARK    8  A    between atoms: C_14  and  O_18 
REMARK    9  A    between atoms: C_16  and  O_17 
ROOT
HETATM    1  C   UNL     1       5.469  -4.202  57.707  1.00  0.00     0.003 A 
HETATM    2  C   UNL     1       5.704  -3.741  56.425  1.00  0.00     0.007 A 
HETATM    3  C   UNL     1       6.835  -2.993  56.153  1.00  0.00    -0.053 A 
HETATM    4  C   UNL     1       7.732  -2.705  57.163  1.00  0.00     0.043 A 
HETATM    5  C   UNL     1       7.498  -3.166  58.450  1.00  0.00     0.066 A 
HETATM    6  C   UNL     1       6.363  -3.916  58.720  1.00  0.00     0.036 A 
ENDROOT
BRANCH   3   7
HETATM    7  C   UNL     1       7.089  -2.492  54.755  1.00  0.00     0.070 C 
BRANCH   7   8
HETATM    8  C   UNL     1       5.758  -2.359  54.011  1.00  0.00     0.127 C 
BRANCH   8   9
HETATM    9  C   UNL     1       5.628  -0.942  53.449  1.00  0.00     0.076 C 
BRANCH   9  10
HETATM   10  C   UNL     1       5.894  -0.964  51.966  1.00  0.00     0.011 A 
HETATM   11  C   UNL     1       7.147  -0.618  51.481  1.00  0.00     0.077 A 
HETATM   12  C   UNL     1       7.393  -0.638  50.117  1.00  0.00     0.073 A 
HETATM   13  C   UNL     1       6.385  -1.003  49.237  1.00  0.00     0.071 A 
HETATM   14  C   UNL     1       5.132  -1.350  49.721  1.00  0.00     0.073 A 
HETATM   15  C   UNL     1       4.889  -1.334  51.086  1.00  0.00     0.077 A 
BRANCH  11  16
HETATM   16  O   UNL     1       8.134  -0.260  52.344  1.00  0.00    -0.360 OA
HETATM   17  H   UNL     1       7.955   0.349  53.034  1.00  0.00     0.217 HD
ENDBRANCH  11  16
BRANCH  13  18
HETATM   18  O   UNL     1       6.624  -1.021  47.899  1.00  0.00    -0.361 OA
HETATM   19  H   UNL     1       7.354  -0.550  47.548  1.00  0.00     0.217 HD
ENDBRANCH  13  18
BRANCH  15  20
HETATM   20  O   UNL     1       3.661  -1.673  51.561  1.00  0.00    -0.360 OA
HETATM   21  H   UNL     1       3.265  -2.482  51.301  1.00  0.00     0.217 HD
ENDBRANCH  15  20
ENDBRANCH   9  10
ENDBRANCH   8   9
BRANCH   8  22
HETATM   22  O   UNL     1       5.716  -3.303  52.939  1.00  0.00    -0.395 OA
HETATM   23  H   UNL     1       5.724  -4.203  53.300  1.00  0.00     0.210 HD
ENDBRANCH   8  22
ENDBRANCH   7   8
ENDBRANCH   3   7
BRANCH   5  24
HETATM   24  O   UNL     1       8.381  -2.884  59.445  1.00  0.00    -0.361 OA
HETATM   25  H   UNL     1       8.895  -2.102  59.407  1.00  0.00     0.217 HD
ENDBRANCH   5  24
TORSDOF 9
ENDMDL
