MODEL 1
REMARK VINA RESULT:      -6.8      0.000      0.000
REMARK  9 active torsions:
REMARK  status: ('A' for Active; 'I' for Inactive)
REMARK    1  A    between atoms: C_3  and  C_8 
REMARK    2  A    between atoms: C_5  and  O_7 
REMARK    3  A    between atoms: C_8  and  C_9 
REMARK    4  A    between atoms: C_9  and  C_10 
REMARK    5  A    between atoms: C_9  and  O_20 
REMARK    6  A    between atoms: C_10  and  C_11 
REMARK    7  A    between atoms: C_12  and  O_19 
REMARK    8  A    between atoms: C_14  and  O_18 
REMARK    9  A    between atoms: C_16  and  O_17 
ROOT
HETATM    1  C   UNL     1       5.140   0.826  57.687  1.00  0.00     0.003 A 
HETATM    2  C   UNL     1       5.623  -0.079  56.761  1.00  0.00     0.007 A 
HETATM    3  C   UNL     1       5.205  -0.014  55.444  1.00  0.00    -0.053 A 
HETATM    4  C   UNL     1       4.302   0.955  55.053  1.00  0.00     0.043 A 
HETATM    5  C   UNL     1       3.815   1.864  55.981  1.00  0.00     0.066 A 
HETATM    6  C   UNL     1       4.237   1.797  57.300  1.00  0.00     0.036 A 
ENDROOT
BRANCH   3   7
HETATM    7  C   UNL     1       5.734  -1.002  54.437  1.00  0.00     0.070 C 
BRANCH   7   8
HETATM    8  C   UNL     1       7.185  -1.350  54.777  1.00  0.00     0.127 C 
BRANCH   8   9
HETATM    9  C   UNL     1       7.315  -2.862  54.969  1.00  0.00     0.076 C 
BRANCH   9  10
HETATM   10  C   UNL     1       7.028  -3.213  56.406  1.00  0.00     0.011 A 
HETATM   11  C   UNL     1       5.846  -3.858  56.740  1.00  0.00     0.077 A 
HETATM   12  C   UNL     1       5.582  -4.180  58.063  1.00  0.00     0.073 A 
HETATM   13  C   UNL     1       6.499  -3.856  59.051  1.00  0.00     0.071 A 
HETATM   14  C   UNL     1       7.681  -3.213  58.717  1.00  0.00     0.073 A 
HETATM   15  C   UNL     1       7.947  -2.895  57.394  1.00  0.00     0.077 A 
BRANCH  11  16
HETATM   16  O   UNL     1       4.947  -4.173  55.771  1.00  0.00    -0.360 OA
HETATM   17  H   UNL     1       4.494  -4.992  55.802  1.00  0.00     0.217 HD
ENDBRANCH  11  16
BRANCH  13  18
HETATM   18  O   UNL     1       6.241  -4.171  60.348  1.00  0.00    -0.361 OA
HETATM   19  H   UNL     1       5.364  -4.127  60.674  1.00  0.00     0.217 HD
ENDBRANCH  13  18
BRANCH  15  20
HETATM   20  O   UNL     1       9.105  -2.263  57.067  1.00  0.00    -0.360 OA
HETATM   21  H   UNL     1       9.877  -2.404  57.579  1.00  0.00     0.217 HD
ENDBRANCH  15  20
ENDBRANCH   9  10
ENDBRANCH   8   9
BRANCH   8  22
HETATM   22  O   UNL     1       8.037  -0.930  53.710  1.00  0.00    -0.395 OA
HETATM   23  H   UNL     1       8.621  -0.221  54.022  1.00  0.00     0.210 HD
ENDBRANCH   8  22
ENDBRANCH   7   8
ENDBRANCH   3   7
BRANCH   5  24
HETATM   24  O   UNL     1       2.928   2.819  55.597  1.00  0.00    -0.361 OA
HETATM   25  H   UNL     1       2.011   2.626  55.576  1.00  0.00     0.217 HD
ENDBRANCH   5  24
TORSDOF 9
ENDMDL
MODEL 2
REMARK VINA RESULT:      -6.8      2.432      5.836
REMARK  9 active torsions:
REMARK  status: ('A' for Active; 'I' for Inactive)
REMARK    1  A    between atoms: C_3  and  C_8 
REMARK    2  A    between atoms: C_5  and  O_7 
REMARK    3  A    between atoms: C_8  and  C_9 
REMARK    4  A    between atoms: C_9  and  C_10 
REMARK    5  A    between atoms: C_9  and  O_20 
REMARK    6  A    between atoms: C_10  and  C_11 
REMARK    7  A    between atoms: C_12  and  O_19 
REMARK    8  A    between atoms: C_14  and  O_18 
REMARK    9  A    between atoms: C_16  and  O_17 
ROOT
HETATM    1  C   UNL     1       5.326  -3.957  58.682  1.00  0.00     0.003 A 
HETATM    2  C   UNL     1       5.046  -2.795  57.989  1.00  0.00     0.007 A 
HETATM    3  C   UNL     1       6.041  -1.858  57.774  1.00  0.00    -0.053 A 
HETATM    4  C   UNL     1       7.316  -2.082  58.254  1.00  0.00     0.043 A 
HETATM    5  C   UNL     1       7.599  -3.247  58.951  1.00  0.00     0.066 A 
HETATM    6  C   UNL     1       6.600  -4.186  59.164  1.00  0.00     0.036 A 
ENDROOT
BRANCH   3   7
HETATM    7  C   UNL     1       5.732  -0.592  57.017  1.00  0.00     0.070 C 
BRANCH   7   8
HETATM    8  C   UNL     1       5.981  -0.816  55.524  1.00  0.00     0.127 C 
BRANCH   8   9
HETATM    9  C   UNL     1       4.657  -0.712  54.765  1.00  0.00     0.076 C 
BRANCH   9  10
HETATM   10  C   UNL     1       4.682  -1.645  53.581  1.00  0.00     0.011 A 
HETATM   11  C   UNL     1       5.225  -1.223  52.376  1.00  0.00     0.077 A 
HETATM   12  C   UNL     1       5.249  -2.081  51.288  1.00  0.00     0.073 A 
HETATM   13  C   UNL     1       4.728  -3.361  51.403  1.00  0.00     0.071 A 
HETATM   14  C   UNL     1       4.187  -3.784  52.608  1.00  0.00     0.073 A 
HETATM   15  C   UNL     1       4.168  -2.927  53.698  1.00  0.00     0.077 A 
BRANCH  11  16
HETATM   16  O   UNL     1       5.734   0.032  52.264  1.00  0.00    -0.360 OA
HETATM   17  H   UNL     1       6.136   0.305  51.463  1.00  0.00     0.217 HD
ENDBRANCH  11  16
BRANCH  13  18
HETATM   18  O   UNL     1       4.750  -4.202  50.336  1.00  0.00    -0.361 OA
HETATM   19  H   UNL     1       3.946  -4.509  49.965  1.00  0.00     0.217 HD
ENDBRANCH  13  18
BRANCH  15  20
HETATM   20  O   UNL     1       3.636  -3.341  54.878  1.00  0.00    -0.360 OA
HETATM   21  H   UNL     1       4.035  -4.046  55.350  1.00  0.00     0.217 HD
ENDBRANCH  15  20
ENDBRANCH   9  10
ENDBRANCH   8   9
BRANCH   8  22
HETATM   22  O   UNL     1       6.888   0.176  55.039  1.00  0.00    -0.395 OA
HETATM   23  H   UNL     1       7.800  -0.126  55.174  1.00  0.00     0.210 HD
ENDBRANCH   8  22
ENDBRANCH   7   8
ENDBRANCH   3   7
BRANCH   5  24
HETATM   24  O   UNL     1       8.855  -3.470  59.423  1.00  0.00    -0.361 OA
HETATM   25  H   UNL     1       9.053  -4.270  59.869  1.00  0.00     0.217 HD
ENDBRANCH   5  24
TORSDOF 9
ENDMDL
MODEL 3
REMARK VINA RESULT:      -6.8      2.443      5.686
REMARK  9 active torsions:
REMARK  status: ('A' for Active; 'I' for Inactive)
REMARK    1  A    between atoms: C_3  and  C_8 
REMARK    2  A    between atoms: C_5  and  O_7 
REMARK    3  A    between atoms: C_8  and  C_9 
REMARK    4  A    between atoms: C_9  and  C_10 
REMARK    5  A    between atoms: C_9  and  O_20 
REMARK    6  A    between atoms: C_10  and  C_11 
REMARK    7  A    between atoms: C_12  and  O_19 
REMARK    8  A    between atoms: C_14  and  O_18 
REMARK    9  A    between atoms: C_16  and  O_17 
ROOT
HETATM    1  C   UNL     1       5.321  -3.955  58.658  1.00  0.00     0.003 A 
HETATM    2  C   UNL     1       5.058  -2.792  57.958  1.00  0.00     0.007 A 
HETATM    3  C   UNL     1       6.060  -1.859  57.762  1.00  0.00    -0.053 A 
HETATM    4  C   UNL     1       7.325  -2.087  58.267  1.00  0.00     0.043 A 
HETATM    5  C   UNL     1       7.591  -3.253  58.970  1.00  0.00     0.066 A 
HETATM    6  C   UNL     1       6.584  -4.187  59.165  1.00  0.00     0.036 A 
ENDROOT
BRANCH   3   7
HETATM    7  C   UNL     1       5.770  -0.593  56.998  1.00  0.00     0.070 C 
BRANCH   7   8
HETATM    8  C   UNL     1       5.995  -0.836  55.503  1.00  0.00     0.127 C 
BRANCH   8   9
HETATM    9  C   UNL     1       4.658  -0.743  54.765  1.00  0.00     0.076 C 
BRANCH   9  10
HETATM   10  C   UNL     1       4.675  -1.670  53.578  1.00  0.00     0.011 A 
HETATM   11  C   UNL     1       4.157  -2.952  53.690  1.00  0.00     0.077 A 
HETATM   12  C   UNL     1       4.173  -3.805  52.597  1.00  0.00     0.073 A 
HETATM   13  C   UNL     1       4.706  -3.376  51.391  1.00  0.00     0.071 A 
HETATM   14  C   UNL     1       5.222  -2.094  51.278  1.00  0.00     0.073 A 
HETATM   15  C   UNL     1       5.202  -1.240  52.369  1.00  0.00     0.077 A 
BRANCH  11  16
HETATM   16  O   UNL     1       3.636  -3.372  54.873  1.00  0.00    -0.360 OA
HETATM   17  H   UNL     1       3.226  -4.212  54.932  1.00  0.00     0.217 HD
ENDBRANCH  11  16
BRANCH  13  18
HETATM   18  O   UNL     1       4.722  -4.212  50.320  1.00  0.00    -0.361 OA
HETATM   19  H   UNL     1       4.026  -4.184  49.694  1.00  0.00     0.217 HD
ENDBRANCH  13  18
BRANCH  15  20
HETATM   20  O   UNL     1       5.709   0.017  52.258  1.00  0.00    -0.360 OA
HETATM   21  H   UNL     1       5.150   0.727  52.013  1.00  0.00     0.217 HD
ENDBRANCH  15  20
ENDBRANCH   9  10
ENDBRANCH   8   9
BRANCH   8  22
HETATM   22  O   UNL     1       6.892   0.150  54.991  1.00  0.00    -0.395 OA
HETATM   23  H   UNL     1       7.308   0.624  55.728  1.00  0.00     0.210 HD
ENDBRANCH   8  22
ENDBRANCH   7   8
ENDBRANCH   3   7
BRANCH   5  24
HETATM   24  O   UNL     1       8.836  -3.479  59.467  1.00  0.00    -0.361 OA
HETATM   25  H   UNL     1       8.967  -3.541  60.393  1.00  0.00     0.217 HD
ENDBRANCH   5  24
TORSDOF 9
ENDMDL
MODEL 4
REMARK VINA RESULT:      -6.7      2.050      5.934
REMARK  9 active torsions:
REMARK  status: ('A' for Active; 'I' for Inactive)
REMARK    1  A    between atoms: C_3  and  C_8 
REMARK    2  A    between atoms: C_5  and  O_7 
REMARK    3  A    between atoms: C_8  and  C_9 
REMARK    4  A    between atoms: C_9  and  C_10 
REMARK    5  A    between atoms: C_9  and  O_20 
REMARK    6  A    between atoms: C_10  and  C_11 
REMARK    7  A    between atoms: C_12  and  O_19 
REMARK    8  A    between atoms: C_14  and  O_18 
REMARK    9  A    between atoms: C_16  and  O_17 
ROOT
HETATM    1  C   UNL     1       4.310  -5.049  55.740  1.00  0.00     0.003 A 
HETATM    2  C   UNL     1       5.067  -4.197  56.521  1.00  0.00     0.007 A 
HETATM    3  C   UNL     1       5.166  -4.410  57.884  1.00  0.00    -0.053 A 
HETATM    4  C   UNL     1       4.508  -5.475  58.467  1.00  0.00     0.043 A 
HETATM    5  C   UNL     1       3.748  -6.331  57.684  1.00  0.00     0.066 A 
HETATM    6  C   UNL     1       3.651  -6.116  56.318  1.00  0.00     0.036 A 
ENDROOT
BRANCH   3   7
HETATM    7  C   UNL     1       5.993  -3.479  58.734  1.00  0.00     0.070 C 
BRANCH   7   8
HETATM    8  C   UNL     1       7.130  -2.894  57.892  1.00  0.00     0.127 C 
BRANCH   8   9
HETATM    9  C   UNL     1       6.996  -1.371  57.843  1.00  0.00     0.076 C 
BRANCH   9  10
HETATM   10  C   UNL     1       6.607  -0.946  56.451  1.00  0.00     0.011 A 
HETATM   11  C   UNL     1       7.254  -1.493  55.352  1.00  0.00     0.077 A 
HETATM   12  C   UNL     1       6.896  -1.102  54.071  1.00  0.00     0.073 A 
HETATM   13  C   UNL     1       5.892  -0.163  53.888  1.00  0.00     0.071 A 
HETATM   14  C   UNL     1       5.245   0.383  54.986  1.00  0.00     0.073 A 
HETATM   15  C   UNL     1       5.599  -0.012  56.267  1.00  0.00     0.077 A 
BRANCH  11  16
HETATM   16  O   UNL     1       8.238  -2.412  55.532  1.00  0.00    -0.360 OA
HETATM   17  H   UNL     1       8.656  -2.494  56.366  1.00  0.00     0.217 HD
ENDBRANCH  11  16
BRANCH  13  18
HETATM   18  O   UNL     1       5.542   0.221  52.632  1.00  0.00    -0.361 OA
HETATM   19  H   UNL     1       4.942  -0.298  52.134  1.00  0.00     0.217 HD
ENDBRANCH  13  18
BRANCH  15  20
HETATM   20  O   UNL     1       4.966   0.525  57.343  1.00  0.00    -0.360 OA
HETATM   21  H   UNL     1       4.680   1.417  57.322  1.00  0.00     0.217 HD
ENDBRANCH  15  20
ENDBRANCH   9  10
ENDBRANCH   8   9
BRANCH   8  22
HETATM   22  O   UNL     1       8.384  -3.243  58.480  1.00  0.00    -0.395 OA
HETATM   23  H   UNL     1       8.637  -2.568  59.129  1.00  0.00     0.210 HD
ENDBRANCH   8  22
ENDBRANCH   7   8
ENDBRANCH   3   7
BRANCH   5  24
HETATM   24  O   UNL     1       3.100  -7.381  58.256  1.00  0.00    -0.361 OA
HETATM   25  H   UNL     1       3.499  -7.849  58.964  1.00  0.00     0.217 HD
ENDBRANCH   5  24
TORSDOF 9
ENDMDL
MODEL 5
REMARK VINA RESULT:      -6.7      2.059      5.878
REMARK  9 active torsions:
REMARK  status: ('A' for Active; 'I' for Inactive)
REMARK    1  A    between atoms: C_3  and  C_8 
REMARK    2  A    between atoms: C_5  and  O_7 
REMARK    3  A    between atoms: C_8  and  C_9 
REMARK    4  A    between atoms: C_9  and  C_10 
REMARK    5  A    between atoms: C_9  and  O_20 
REMARK    6  A    between atoms: C_10  and  C_11 
REMARK    7  A    between atoms: C_12  and  O_19 
REMARK    8  A    between atoms: C_14  and  O_18 
REMARK    9  A    between atoms: C_16  and  O_17 
ROOT
HETATM    1  C   UNL     1       4.251  -5.066  55.752  1.00  0.00     0.003 A 
HETATM    2  C   UNL     1       5.028  -4.226  56.526  1.00  0.00     0.007 A 
HETATM    3  C   UNL     1       5.153  -4.453  57.885  1.00  0.00    -0.053 A 
HETATM    4  C   UNL     1       4.499  -5.519  58.470  1.00  0.00     0.043 A 
HETATM    5  C   UNL     1       3.718  -6.363  57.695  1.00  0.00     0.066 A 
HETATM    6  C   UNL     1       3.595  -6.134  56.332  1.00  0.00     0.036 A 
ENDROOT
BRANCH   3   7
HETATM    7  C   UNL     1       6.002  -3.536  58.727  1.00  0.00     0.070 C 
BRANCH   7   8
HETATM    8  C   UNL     1       7.092  -2.907  57.856  1.00  0.00     0.127 C 
BRANCH   8   9
HETATM    9  C   UNL     1       6.906  -1.388  57.824  1.00  0.00     0.076 C 
BRANCH   9  10
HETATM   10  C   UNL     1       6.557  -0.955  56.424  1.00  0.00     0.011 A 
HETATM   11  C   UNL     1       5.564  -0.009  56.217  1.00  0.00     0.077 A 
HETATM   12  C   UNL     1       5.243   0.390  54.928  1.00  0.00     0.073 A 
HETATM   13  C   UNL     1       5.914  -0.159  53.846  1.00  0.00     0.071 A 
HETATM   14  C   UNL     1       6.907  -1.104  54.052  1.00  0.00     0.073 A 
HETATM   15  C   UNL     1       7.232  -1.499  55.341  1.00  0.00     0.077 A 
BRANCH  11  16
HETATM   16  O   UNL     1       4.906   0.528  57.278  1.00  0.00    -0.360 OA
HETATM   17  H   UNL     1       5.031   0.171  58.135  1.00  0.00     0.217 HD
ENDBRANCH  11  16
BRANCH  13  18
HETATM   18  O   UNL     1       5.598   0.231  52.583  1.00  0.00    -0.361 OA
HETATM   19  H   UNL     1       5.784   1.106  52.303  1.00  0.00     0.217 HD
ENDBRANCH  13  18
BRANCH  15  20
HETATM   20  O   UNL     1       8.205  -2.426  55.543  1.00  0.00    -0.360 OA
HETATM   21  H   UNL     1       8.245  -3.188  54.999  1.00  0.00     0.217 HD
ENDBRANCH  15  20
ENDBRANCH   9  10
ENDBRANCH   8   9
BRANCH   8  22
HETATM   22  O   UNL     1       8.375  -3.218  58.402  1.00  0.00    -0.395 OA
HETATM   23  H   UNL     1       8.588  -4.147  58.219  1.00  0.00     0.210 HD
ENDBRANCH   8  22
ENDBRANCH   7   8
ENDBRANCH   3   7
BRANCH   5  24
HETATM   24  O   UNL     1       3.074  -7.414  58.269  1.00  0.00    -0.361 OA
HETATM   25  H   UNL     1       2.299  -7.761  57.874  1.00  0.00     0.217 HD
ENDBRANCH   5  24
TORSDOF 9
ENDMDL
MODEL 6
REMARK VINA RESULT:      -6.6      2.934      4.852
REMARK  9 active torsions:
REMARK  status: ('A' for Active; 'I' for Inactive)
REMARK    1  A    between atoms: C_3  and  C_8 
REMARK    2  A    between atoms: C_5  and  O_7 
REMARK    3  A    between atoms: C_8  and  C_9 
REMARK    4  A    between atoms: C_9  and  C_10 
REMARK    5  A    between atoms: C_9  and  O_20 
REMARK    6  A    between atoms: C_10  and  C_11 
REMARK    7  A    between atoms: C_12  and  O_19 
REMARK    8  A    between atoms: C_14  and  O_18 
REMARK    9  A    between atoms: C_16  and  O_17 
ROOT
HETATM    1  C   UNL     1       5.430   0.589  56.823  1.00  0.00     0.003 A 
HETATM    2  C   UNL     1       5.791  -0.495  57.599  1.00  0.00     0.007 A 
HETATM    3  C   UNL     1       5.734  -1.774  57.075  1.00  0.00    -0.053 A 
HETATM    4  C   UNL     1       5.314  -1.969  55.774  1.00  0.00     0.043 A 
HETATM    5  C   UNL     1       4.950  -0.881  54.993  1.00  0.00     0.066 A 
HETATM    6  C   UNL     1       5.009   0.400  55.521  1.00  0.00     0.036 A 
ENDROOT
BRANCH   3   7
HETATM    7  C   UNL     1       6.130  -2.954  57.923  1.00  0.00     0.070 C 
BRANCH   7   8
HETATM    8  C   UNL     1       4.873  -3.627  58.480  1.00  0.00     0.127 C 
BRANCH   8   9
HETATM    9  C   UNL     1       4.866  -5.104  58.080  1.00  0.00     0.076 C 
BRANCH   9  10
HETATM   10  C   UNL     1       3.529  -5.456  57.480  1.00  0.00     0.011 A 
HETATM   11  C   UNL     1       2.443  -5.711  58.304  1.00  0.00     0.077 A 
HETATM   12  C   UNL     1       1.213  -6.034  57.751  1.00  0.00     0.073 A 
HETATM   13  C   UNL     1       1.069  -6.103  56.374  1.00  0.00     0.071 A 
HETATM   14  C   UNL     1       2.155  -5.846  55.549  1.00  0.00     0.073 A 
HETATM   15  C   UNL     1       3.383  -5.518  56.102  1.00  0.00     0.077 A 
BRANCH  11  16
HETATM   16  O   UNL     1       2.586  -5.645  59.654  1.00  0.00    -0.360 OA
HETATM   17  H   UNL     1       3.028  -4.917  60.043  1.00  0.00     0.217 HD
ENDBRANCH  11  16
BRANCH  13  18
HETATM   18  O   UNL     1      -0.136  -6.421  55.832  1.00  0.00    -0.361 OA
HETATM   19  H   UNL     1      -0.705  -7.019  56.275  1.00  0.00     0.217 HD
ENDBRANCH  13  18
BRANCH  15  20
HETATM   20  O   UNL     1       4.447  -5.268  55.294  1.00  0.00    -0.360 OA
HETATM   21  H   UNL     1       5.226  -4.889  55.649  1.00  0.00     0.217 HD
ENDBRANCH  15  20
ENDBRANCH   9  10
ENDBRANCH   8   9
BRANCH   8  22
HETATM   22  O   UNL     1       4.866  -3.519  59.904  1.00  0.00    -0.395 OA
HETATM   23  H   UNL     1       5.779  -3.475  60.230  1.00  0.00     0.210 HD
ENDBRANCH   8  22
ENDBRANCH   7   8
ENDBRANCH   3   7
BRANCH   5  24
HETATM   24  O   UNL     1       4.537  -1.071  53.711  1.00  0.00    -0.361 OA
HETATM   25  H   UNL     1       5.109  -0.860  52.999  1.00  0.00     0.217 HD
ENDBRANCH   5  24
TORSDOF 9
ENDMDL
MODEL 7
REMARK VINA RESULT:      -6.6      2.335      5.991
REMARK  9 active torsions:
REMARK  status: ('A' for Active; 'I' for Inactive)
REMARK    1  A    between atoms: C_3  and  C_8 
REMARK    2  A    between atoms: C_5  and  O_7 
REMARK    3  A    between atoms: C_8  and  C_9 
REMARK    4  A    between atoms: C_9  and  C_10 
REMARK    5  A    between atoms: C_9  and  O_20 
REMARK    6  A    between atoms: C_10  and  C_11 
REMARK    7  A    between atoms: C_12  and  O_19 
REMARK    8  A    between atoms: C_14  and  O_18 
REMARK    9  A    between atoms: C_16  and  O_17 
ROOT
HETATM    1  C   UNL     1       3.942  -5.860  57.216  1.00  0.00     0.003 A 
HETATM    2  C   UNL     1       4.995  -4.970  57.317  1.00  0.00     0.007 A 
HETATM    3  C   UNL     1       4.973  -3.976  58.279  1.00  0.00    -0.053 A 
HETATM    4  C   UNL     1       3.898  -3.871  59.139  1.00  0.00     0.043 A 
HETATM    5  C   UNL     1       2.840  -4.763  59.039  1.00  0.00     0.066 A 
HETATM    6  C   UNL     1       2.865  -5.759  58.074  1.00  0.00     0.036 A 
ENDROOT
BRANCH   3   7
HETATM    7  C   UNL     1       6.122  -3.008  58.388  1.00  0.00     0.070 C 
BRANCH   7   8
HETATM    8  C   UNL     1       6.446  -2.443  57.003  1.00  0.00     0.127 C 
BRANCH   8   9
HETATM    9  C   UNL     1       5.358  -1.450  56.590  1.00  0.00     0.076 C 
BRANCH   9  10
HETATM   10  C   UNL     1       5.389  -1.265  55.095  1.00  0.00     0.011 A 
HETATM   11  C   UNL     1       6.147  -0.246  54.537  1.00  0.00     0.077 A 
HETATM   12  C   UNL     1       6.176  -0.076  53.161  1.00  0.00     0.073 A 
HETATM   13  C   UNL     1       5.445  -0.924  52.343  1.00  0.00     0.071 A 
HETATM   14  C   UNL     1       4.688  -1.943  52.900  1.00  0.00     0.073 A 
HETATM   15  C   UNL     1       4.664  -2.117  54.275  1.00  0.00     0.077 A 
BRANCH  11  16
HETATM   16  O   UNL     1       6.862   0.585  55.340  1.00  0.00    -0.360 OA
HETATM   17  H   UNL     1       6.562   0.771  56.208  1.00  0.00     0.217 HD
ENDBRANCH  11  16
BRANCH  13  18
HETATM   18  O   UNL     1       5.472  -0.756  50.994  1.00  0.00    -0.361 OA
HETATM   19  H   UNL     1       4.805  -0.253  50.572  1.00  0.00     0.217 HD
ENDBRANCH  13  18
BRANCH  15  20
HETATM   20  O   UNL     1       3.920  -3.115  54.821  1.00  0.00    -0.360 OA
HETATM   21  H   UNL     1       3.524  -2.999  55.662  1.00  0.00     0.217 HD
ENDBRANCH  15  20
ENDBRANCH   9  10
ENDBRANCH   8   9
BRANCH   8  22
HETATM   22  O   UNL     1       7.709  -1.775  57.046  1.00  0.00    -0.395 OA
HETATM   23  H   UNL     1       7.807  -1.218  56.257  1.00  0.00     0.210 HD
ENDBRANCH   8  22
ENDBRANCH   7   8
ENDBRANCH   3   7
BRANCH   5  24
HETATM   24  O   UNL     1       1.781  -4.661  59.885  1.00  0.00    -0.361 OA
HETATM   25  H   UNL     1       1.922  -4.637  60.812  1.00  0.00     0.217 HD
ENDBRANCH   5  24
TORSDOF 9
ENDMDL
MODEL 8
REMARK VINA RESULT:      -6.5      2.985      6.771
REMARK  9 active torsions:
REMARK  status: ('A' for Active; 'I' for Inactive)
REMARK    1  A    between atoms: C_3  and  C_8 
REMARK    2  A    between atoms: C_5  and  O_7 
REMARK    3  A    between atoms: C_8  and  C_9 
REMARK    4  A    between atoms: C_9  and  C_10 
REMARK    5  A    between atoms: C_9  and  O_20 
REMARK    6  A    between atoms: C_10  and  C_11 
REMARK    7  A    between atoms: C_12  and  O_19 
REMARK    8  A    between atoms: C_14  and  O_18 
REMARK    9  A    between atoms: C_16  and  O_17 
ROOT
HETATM    1  C   UNL     1       5.559  -4.228  57.773  1.00  0.00     0.003 A 
HETATM    2  C   UNL     1       5.748  -3.718  56.503  1.00  0.00     0.007 A 
HETATM    3  C   UNL     1       6.848  -2.925  56.230  1.00  0.00    -0.053 A 
HETATM    4  C   UNL     1       7.759  -2.640  57.227  1.00  0.00     0.043 A 
HETATM    5  C   UNL     1       7.572  -3.151  58.503  1.00  0.00     0.066 A 
HETATM    6  C   UNL     1       6.468  -3.946  58.774  1.00  0.00     0.036 A 
ENDROOT
BRANCH   3   7
HETATM    7  C   UNL     1       7.051  -2.370  54.843  1.00  0.00     0.070 C 
BRANCH   7   8
HETATM    8  C   UNL     1       5.713  -2.354  54.099  1.00  0.00     0.127 C 
BRANCH   8   9
HETATM    9  C   UNL     1       5.479  -0.966  53.501  1.00  0.00     0.076 C 
BRANCH   9  10
HETATM   10  C   UNL     1       5.796  -0.992  52.029  1.00  0.00     0.011 A 
HETATM   11  C   UNL     1       7.059  -0.629  51.584  1.00  0.00     0.077 A 
HETATM   12  C   UNL     1       7.350  -0.654  50.228  1.00  0.00     0.073 A 
HETATM   13  C   UNL     1       6.379  -1.041  49.317  1.00  0.00     0.071 A 
HETATM   14  C   UNL     1       5.117  -1.406  49.762  1.00  0.00     0.073 A 
HETATM   15  C   UNL     1       4.827  -1.386  51.118  1.00  0.00     0.077 A 
BRANCH  11  16
HETATM   16  O   UNL     1       8.009  -0.249  52.477  1.00  0.00    -0.360 OA
HETATM   17  H   UNL     1       7.871  -0.382  53.393  1.00  0.00     0.217 HD
ENDBRANCH  11  16
BRANCH  13  18
HETATM   18  O   UNL     1       6.664  -1.065  47.989  1.00  0.00    -0.361 OA
HETATM   19  H   UNL     1       6.441  -1.816  47.475  1.00  0.00     0.217 HD
ENDBRANCH  13  18
BRANCH  15  20
HETATM   20  O   UNL     1       3.590  -1.742  51.553  1.00  0.00    -0.360 OA
HETATM   21  H   UNL     1       3.433  -2.615  51.854  1.00  0.00     0.217 HD
ENDBRANCH  15  20
ENDBRANCH   9  10
ENDBRANCH   8   9
BRANCH   8  22
HETATM   22  O   UNL     1       5.741  -3.325  53.051  1.00  0.00    -0.395 OA
HETATM   23  H   UNL     1       5.759  -4.216  53.435  1.00  0.00     0.210 HD
ENDBRANCH   8  22
ENDBRANCH   7   8
ENDBRANCH   3   7
BRANCH   5  24
HETATM   24  O   UNL     1       8.469  -2.872  59.486  1.00  0.00    -0.361 OA
HETATM   25  H   UNL     1       8.281  -2.206  60.117  1.00  0.00     0.217 HD
ENDBRANCH   5  24
TORSDOF 9
ENDMDL
MODEL 9
REMARK VINA RESULT:      -6.4      3.101      6.320
REMARK  9 active torsions:
REMARK  status: ('A' for Active; 'I' for Inactive)
REMARK    1  A    between atoms: C_3  and  C_8 
REMARK    2  A    between atoms: C_5  and  O_7 
REMARK    3  A    between atoms: C_8  and  C_9 
REMARK    4  A    between atoms: C_9  and  C_10 
REMARK    5  A    between atoms: C_9  and  O_20 
REMARK    6  A    between atoms: C_10  and  C_11 
REMARK    7  A    between atoms: C_12  and  O_19 
REMARK    8  A    between atoms: C_14  and  O_18 
REMARK    9  A    between atoms: C_16  and  O_17 
ROOT
HETATM    1  C   UNL     1       6.340  -4.050  58.194  1.00  0.00     0.003 A 
HETATM    2  C   UNL     1       5.557  -3.855  57.072  1.00  0.00     0.007 A 
HETATM    3  C   UNL     1       5.658  -2.679  56.352  1.00  0.00    -0.053 A 
HETATM    4  C   UNL     1       6.542  -1.697  56.753  1.00  0.00     0.043 A 
HETATM    5  C   UNL     1       7.328  -1.890  57.879  1.00  0.00     0.066 A 
HETATM    6  C   UNL     1       7.225  -3.071  58.599  1.00  0.00     0.036 A 
ENDROOT
BRANCH   3   7
HETATM    7  C   UNL     1       4.803  -2.469  55.129  1.00  0.00     0.070 C 
BRANCH   7   8
HETATM    8  C   UNL     1       5.699  -2.342  53.895  1.00  0.00     0.127 C 
BRANCH   8   9
HETATM    9  C   UNL     1       5.585  -0.927  53.325  1.00  0.00     0.076 C 
BRANCH   9  10
HETATM   10  C   UNL     1       5.882  -0.954  51.848  1.00  0.00     0.011 A 
HETATM   11  C   UNL     1       4.888  -1.305  50.946  1.00  0.00     0.077 A 
HETATM   12  C   UNL     1       5.162  -1.330  49.587  1.00  0.00     0.073 A 
HETATM   13  C   UNL     1       6.430  -1.006  49.130  1.00  0.00     0.071 A 
HETATM   14  C   UNL     1       7.424  -0.654  50.031  1.00  0.00     0.073 A 
HETATM   15  C   UNL     1       7.148  -0.624  51.389  1.00  0.00     0.077 A 
BRANCH  11  16
HETATM   16  O   UNL     1       3.646  -1.623  51.396  1.00  0.00    -0.360 OA
HETATM   17  H   UNL     1       2.989  -1.910  50.793  1.00  0.00     0.217 HD
ENDBRANCH  11  16
BRANCH  13  18
HETATM   18  O   UNL     1       6.699  -1.032  47.798  1.00  0.00    -0.361 OA
HETATM   19  H   UNL     1       6.232  -1.619  47.237  1.00  0.00     0.217 HD
ENDBRANCH  13  18
BRANCH  15  20
HETATM   20  O   UNL     1       8.123  -0.281  52.273  1.00  0.00    -0.360 OA
HETATM   21  H   UNL     1       7.898   0.143  53.077  1.00  0.00     0.217 HD
ENDBRANCH  15  20
ENDBRANCH   9  10
ENDBRANCH   8   9
BRANCH   8  22
HETATM   22  O   UNL     1       7.056  -2.599  54.264  1.00  0.00    -0.395 OA
HETATM   23  H   UNL     1       7.605  -1.835  54.027  1.00  0.00     0.210 HD
ENDBRANCH   8  22
ENDBRANCH   7   8
ENDBRANCH   3   7
BRANCH   5  24
HETATM   24  O   UNL     1       8.199  -0.925  58.275  1.00  0.00    -0.361 OA
HETATM   25  H   UNL     1       8.979  -1.159  58.740  1.00  0.00     0.217 HD
ENDBRANCH   5  24
TORSDOF 9
ENDMDL
