MODEL 1
REMARK VINA RESULT:      -6.8      0.000      0.000
REMARK  9 active torsions:
REMARK  status: ('A' for Active; 'I' for Inactive)
REMARK    1  A    between atoms: C_3  and  C_8 
REMARK    2  A    between atoms: C_5  and  O_7 
REMARK    3  A    between atoms: C_8  and  C_9 
REMARK    4  A    between atoms: C_9  and  C_10 
REMARK    5  A    between atoms: C_9  and  O_20 
REMARK    6  A    between atoms: C_10  and  C_11 
REMARK    7  A    between atoms: C_12  and  O_19 
REMARK    8  A    between atoms: C_14  and  O_18 
REMARK    9  A    between atoms: C_16  and  O_17 
ROOT
HETATM    1  C   UNL     1       1.793 -10.817  50.789  1.00  0.00     0.003 A 
HETATM    2  C   UNL     1       1.435 -10.408  52.059  1.00  0.00     0.007 A 
HETATM    3  C   UNL     1       0.904 -11.317  52.957  1.00  0.00    -0.053 A 
HETATM    4  C   UNL     1       0.730 -12.635  52.584  1.00  0.00     0.043 A 
HETATM    5  C   UNL     1       1.089 -13.047  51.309  1.00  0.00     0.066 A 
HETATM    6  C   UNL     1       1.622 -12.134  50.411  1.00  0.00     0.036 A 
ENDROOT
BRANCH   3   7
HETATM    7  C   UNL     1       0.515 -10.868  54.342  1.00  0.00     0.070 C 
BRANCH   7   8
HETATM    8  C   UNL     1       1.743 -10.903  55.254  1.00  0.00     0.127 C 
BRANCH   8   9
HETATM    9  C   UNL     1       1.870  -9.567  55.989  1.00  0.00     0.076 C 
BRANCH   9  10
HETATM   10  C   UNL     1       3.308  -9.120  55.975  1.00  0.00     0.011 A 
HETATM   11  C   UNL     1       4.180  -9.554  56.963  1.00  0.00     0.077 A 
HETATM   12  C   UNL     1       5.504  -9.142  56.949  1.00  0.00     0.073 A 
HETATM   13  C   UNL     1       5.957  -8.297  55.947  1.00  0.00     0.071 A 
HETATM   14  C   UNL     1       5.086  -7.865  54.958  1.00  0.00     0.073 A 
HETATM   15  C   UNL     1       3.763  -8.280  54.970  1.00  0.00     0.077 A 
BRANCH  11  16
HETATM   16  O   UNL     1       3.736 -10.381  57.945  1.00  0.00    -0.360 OA
HETATM   17  H   UNL     1       3.372 -10.023  58.730  1.00  0.00     0.217 HD
ENDBRANCH  11  16
BRANCH  13  18
HETATM   18  O   UNL     1       7.254  -7.893  55.934  1.00  0.00    -0.361 OA
HETATM   19  H   UNL     1       7.531  -7.226  55.337  1.00  0.00     0.217 HD
ENDBRANCH  13  18
BRANCH  15  20
HETATM   20  O   UNL     1       2.909  -7.855  54.001  1.00  0.00    -0.360 OA
HETATM   21  H   UNL     1       2.992  -6.990  53.651  1.00  0.00     0.217 HD
ENDBRANCH  15  20
ENDBRANCH   9  10
ENDBRANCH   8   9
BRANCH   8  22
HETATM   22  O   UNL     1       1.600 -11.959  56.205  1.00  0.00    -0.395 OA
HETATM   23  H   UNL     1       2.417 -12.042  56.722  1.00  0.00     0.210 HD
ENDBRANCH   8  22
ENDBRANCH   7   8
ENDBRANCH   3   7
BRANCH   5  24
HETATM   24  O   UNL     1       0.919 -14.345  50.940  1.00  0.00    -0.361 OA
HETATM   25  H   UNL     1       0.979 -15.026  51.581  1.00  0.00     0.217 HD
ENDBRANCH   5  24
TORSDOF 9
ENDMDL
MODEL 2
REMARK VINA RESULT:      -6.8      0.046      1.848
REMARK  9 active torsions:
REMARK  status: ('A' for Active; 'I' for Inactive)
REMARK    1  A    between atoms: C_3  and  C_8 
REMARK    2  A    between atoms: C_5  and  O_7 
REMARK    3  A    between atoms: C_8  and  C_9 
REMARK    4  A    between atoms: C_9  and  C_10 
REMARK    5  A    between atoms: C_9  and  O_20 
REMARK    6  A    between atoms: C_10  and  C_11 
REMARK    7  A    between atoms: C_12  and  O_19 
REMARK    8  A    between atoms: C_14  and  O_18 
REMARK    9  A    between atoms: C_16  and  O_17 
ROOT
HETATM    1  C   UNL     1       1.797 -10.780  50.793  1.00  0.00     0.003 A 
HETATM    2  C   UNL     1       1.432 -10.372  52.062  1.00  0.00     0.007 A 
HETATM    3  C   UNL     1       0.891 -11.279  52.954  1.00  0.00    -0.053 A 
HETATM    4  C   UNL     1       0.713 -12.596  52.578  1.00  0.00     0.043 A 
HETATM    5  C   UNL     1       1.079 -13.008  51.305  1.00  0.00     0.066 A 
HETATM    6  C   UNL     1       1.623 -12.096  50.413  1.00  0.00     0.036 A 
ENDROOT
BRANCH   3   7
HETATM    7  C   UNL     1       0.494 -10.831  54.337  1.00  0.00     0.070 C 
BRANCH   7   8
HETATM    8  C   UNL     1       1.714 -10.876  55.259  1.00  0.00     0.127 C 
BRANCH   8   9
HETATM    9  C   UNL     1       1.842  -9.545  56.002  1.00  0.00     0.076 C 
BRANCH   9  10
HETATM   10  C   UNL     1       3.281  -9.097  55.988  1.00  0.00     0.011 A 
HETATM   11  C   UNL     1       3.728  -8.230  55.002  1.00  0.00     0.077 A 
HETATM   12  C   UNL     1       5.052  -7.819  54.989  1.00  0.00     0.073 A 
HETATM   13  C   UNL     1       5.929  -8.274  55.961  1.00  0.00     0.071 A 
HETATM   14  C   UNL     1       5.481  -9.140  56.948  1.00  0.00     0.073 A 
HETATM   15  C   UNL     1       4.157  -9.548  56.964  1.00  0.00     0.077 A 
BRANCH  11  16
HETATM   16  O   UNL     1       2.868  -7.785  54.048  1.00  0.00    -0.360 OA
HETATM   17  H   UNL     1       3.055  -7.935  53.142  1.00  0.00     0.217 HD
ENDBRANCH  11  16
BRANCH  13  18
HETATM   18  O   UNL     1       7.227  -7.872  55.948  1.00  0.00    -0.361 OA
HETATM   19  H   UNL     1       7.614  -7.513  56.723  1.00  0.00     0.217 HD
ENDBRANCH  13  18
BRANCH  15  20
HETATM   20  O   UNL     1       3.718 -10.397  57.930  1.00  0.00    -0.360 OA
HETATM   21  H   UNL     1       2.811 -10.626  57.976  1.00  0.00     0.217 HD
ENDBRANCH  15  20
ENDBRANCH   9  10
ENDBRANCH   8   9
BRANCH   8  22
HETATM   22  O   UNL     1       1.558 -11.936  56.204  1.00  0.00    -0.395 OA
HETATM   23  H   UNL     1       2.234 -12.613  56.045  1.00  0.00     0.210 HD
ENDBRANCH   8  22
ENDBRANCH   7   8
ENDBRANCH   3   7
BRANCH   5  24
HETATM   24  O   UNL     1       0.906 -14.305  50.934  1.00  0.00    -0.361 OA
HETATM   25  H   UNL     1       0.270 -14.524  50.281  1.00  0.00     0.217 HD
ENDBRANCH   5  24
TORSDOF 9
ENDMDL
MODEL 3
REMARK VINA RESULT:      -6.8      3.460      6.817
REMARK  9 active torsions:
REMARK  status: ('A' for Active; 'I' for Inactive)
REMARK    1  A    between atoms: C_3  and  C_8 
REMARK    2  A    between atoms: C_5  and  O_7 
REMARK    3  A    between atoms: C_8  and  C_9 
REMARK    4  A    between atoms: C_9  and  C_10 
REMARK    5  A    between atoms: C_9  and  O_20 
REMARK    6  A    between atoms: C_10  and  C_11 
REMARK    7  A    between atoms: C_12  and  O_19 
REMARK    8  A    between atoms: C_14  and  O_18 
REMARK    9  A    between atoms: C_16  and  O_17 
ROOT
HETATM    1  C   UNL     1       2.876  -9.546  56.468  1.00  0.00     0.003 A 
HETATM    2  C   UNL     1       2.893  -8.237  56.024  1.00  0.00     0.007 A 
HETATM    3  C   UNL     1       4.031  -7.466  56.179  1.00  0.00    -0.053 A 
HETATM    4  C   UNL     1       5.152  -8.002  56.780  1.00  0.00     0.043 A 
HETATM    5  C   UNL     1       5.137  -9.315  57.228  1.00  0.00     0.066 A 
HETATM    6  C   UNL     1       3.996 -10.087  57.070  1.00  0.00     0.036 A 
ENDROOT
BRANCH   3   7
HETATM    7  C   UNL     1       4.046  -6.040  55.693  1.00  0.00     0.070 C 
BRANCH   7   8
HETATM    8  C   UNL     1       4.341  -6.015  54.192  1.00  0.00     0.127 C 
BRANCH   8   9
HETATM    9  C   UNL     1       3.117  -5.489  53.440  1.00  0.00     0.076 C 
BRANCH   9  10
HETATM   10  C   UNL     1       3.139  -6.002  52.023  1.00  0.00     0.011 A 
HETATM   11  C   UNL     1       3.769  -5.268  51.029  1.00  0.00     0.077 A 
HETATM   12  C   UNL     1       3.789  -5.740  49.725  1.00  0.00     0.073 A 
HETATM   13  C   UNL     1       3.179  -6.947  49.415  1.00  0.00     0.071 A 
HETATM   14  C   UNL     1       2.551  -7.682  50.410  1.00  0.00     0.073 A 
HETATM   15  C   UNL     1       2.535  -7.212  51.714  1.00  0.00     0.077 A 
BRANCH  11  16
HETATM   16  O   UNL     1       4.365  -4.086  51.333  1.00  0.00    -0.360 OA
HETATM   17  H   UNL     1       3.842  -3.331  51.519  1.00  0.00     0.217 HD
ENDBRANCH  11  16
BRANCH  13  18
HETATM   18  O   UNL     1       3.198  -7.409  48.138  1.00  0.00    -0.361 OA
HETATM   19  H   UNL     1       3.544  -8.260  47.953  1.00  0.00     0.217 HD
ENDBRANCH  13  18
BRANCH  15  20
HETATM   20  O   UNL     1       1.917  -7.932  52.688  1.00  0.00    -0.360 OA
HETATM   21  H   UNL     1       2.319  -8.709  53.021  1.00  0.00     0.217 HD
ENDBRANCH  15  20
ENDBRANCH   9  10
ENDBRANCH   8   9
BRANCH   8  22
HETATM   22  O   UNL     1       5.458  -5.160  53.940  1.00  0.00    -0.395 OA
HETATM   23  H   UNL     1       6.277  -5.680  53.976  1.00  0.00     0.210 HD
ENDBRANCH   8  22
ENDBRANCH   7   8
ENDBRANCH   3   7
BRANCH   5  24
HETATM   24  O   UNL     1       6.241  -9.845  57.819  1.00  0.00    -0.361 OA
HETATM   25  H   UNL     1       6.773  -9.314  58.379  1.00  0.00     0.217 HD
ENDBRANCH   5  24
TORSDOF 9
ENDMDL
MODEL 4
REMARK VINA RESULT:      -6.7      3.482      6.641
REMARK  9 active torsions:
REMARK  status: ('A' for Active; 'I' for Inactive)
REMARK    1  A    between atoms: C_3  and  C_8 
REMARK    2  A    between atoms: C_5  and  O_7 
REMARK    3  A    between atoms: C_8  and  C_9 
REMARK    4  A    between atoms: C_9  and  C_10 
REMARK    5  A    between atoms: C_9  and  O_20 
REMARK    6  A    between atoms: C_10  and  C_11 
REMARK    7  A    between atoms: C_12  and  O_19 
REMARK    8  A    between atoms: C_14  and  O_18 
REMARK    9  A    between atoms: C_16  and  O_17 
ROOT
HETATM    1  C   UNL     1       2.885  -9.717  56.551  1.00  0.00     0.003 A 
HETATM    2  C   UNL     1       2.919  -8.412  56.096  1.00  0.00     0.007 A 
HETATM    3  C   UNL     1       4.075  -7.664  56.222  1.00  0.00    -0.053 A 
HETATM    4  C   UNL     1       5.198  -8.219  56.804  1.00  0.00     0.043 A 
HETATM    5  C   UNL     1       5.166  -9.528  57.262  1.00  0.00     0.066 A 
HETATM    6  C   UNL     1       4.005 -10.276  57.133  1.00  0.00     0.036 A 
ENDROOT
BRANCH   3   7
HETATM    7  C   UNL     1       4.110  -6.242  55.724  1.00  0.00     0.070 C 
BRANCH   7   8
HETATM    8  C   UNL     1       4.357  -6.235  54.214  1.00  0.00     0.127 C 
BRANCH   8   9
HETATM    9  C   UNL     1       3.151  -5.618  53.502  1.00  0.00     0.076 C 
BRANCH   9  10
HETATM   10  C   UNL     1       3.166  -6.019  52.050  1.00  0.00     0.011 A 
HETATM   11  C   UNL     1       2.555  -7.199  51.649  1.00  0.00     0.077 A 
HETATM   12  C   UNL     1       2.568  -7.568  50.313  1.00  0.00     0.073 A 
HETATM   13  C   UNL     1       3.193  -6.758  49.377  1.00  0.00     0.071 A 
HETATM   14  C   UNL     1       3.803  -5.578  49.777  1.00  0.00     0.073 A 
HETATM   15  C   UNL     1       3.785  -5.207  51.112  1.00  0.00     0.077 A 
BRANCH  11  16
HETATM   16  O   UNL     1       1.944  -7.992  52.568  1.00  0.00    -0.360 OA
HETATM   17  H   UNL     1       1.980  -8.924  52.480  1.00  0.00     0.217 HD
ENDBRANCH  11  16
BRANCH  13  18
HETATM   18  O   UNL     1       3.207  -7.120  48.067  1.00  0.00    -0.361 OA
HETATM   19  H   UNL     1       3.410  -8.002  47.827  1.00  0.00     0.217 HD
ENDBRANCH  13  18
BRANCH  15  20
HETATM   20  O   UNL     1       4.384  -4.051  51.504  1.00  0.00    -0.360 OA
HETATM   21  H   UNL     1       5.289  -3.905  51.315  1.00  0.00     0.217 HD
ENDBRANCH  15  20
ENDBRANCH   9  10
ENDBRANCH   8   9
BRANCH   8  22
HETATM   22  O   UNL     1       5.525  -5.465  53.926  1.00  0.00    -0.395 OA
HETATM   23  H   UNL     1       5.380  -4.946  53.119  1.00  0.00     0.210 HD
ENDBRANCH   8  22
ENDBRANCH   7   8
ENDBRANCH   3   7
BRANCH   5  24
HETATM   24  O   UNL     1       6.270 -10.076  57.834  1.00  0.00    -0.361 OA
HETATM   25  H   UNL     1       7.054  -9.568  57.922  1.00  0.00     0.217 HD
ENDBRANCH   5  24
TORSDOF 9
ENDMDL
MODEL 5
REMARK VINA RESULT:      -6.7      1.059      1.504
REMARK  9 active torsions:
REMARK  status: ('A' for Active; 'I' for Inactive)
REMARK    1  A    between atoms: C_3  and  C_8 
REMARK    2  A    between atoms: C_5  and  O_7 
REMARK    3  A    between atoms: C_8  and  C_9 
REMARK    4  A    between atoms: C_9  and  C_10 
REMARK    5  A    between atoms: C_9  and  O_20 
REMARK    6  A    between atoms: C_10  and  C_11 
REMARK    7  A    between atoms: C_12  and  O_19 
REMARK    8  A    between atoms: C_14  and  O_18 
REMARK    9  A    between atoms: C_16  and  O_17 
ROOT
HETATM    1  C   UNL     1       0.975 -13.020  51.292  1.00  0.00     0.003 A 
HETATM    2  C   UNL     1       0.609 -12.585  52.552  1.00  0.00     0.007 A 
HETATM    3  C   UNL     1       0.889 -11.289  52.947  1.00  0.00    -0.053 A 
HETATM    4  C   UNL     1       1.536 -10.428  52.084  1.00  0.00     0.043 A 
HETATM    5  C   UNL     1       1.906 -10.863  50.819  1.00  0.00     0.066 A 
HETATM    6  C   UNL     1       1.623 -12.162  50.425  1.00  0.00     0.036 A 
ENDROOT
BRANCH   3   7
HETATM    7  C   UNL     1       0.487 -10.818  54.321  1.00  0.00     0.070 C 
BRANCH   7   8
HETATM    8  C   UNL     1       1.703 -10.857  55.250  1.00  0.00     0.127 C 
BRANCH   8   9
HETATM    9  C   UNL     1       1.826  -9.521  55.985  1.00  0.00     0.076 C 
BRANCH   9  10
HETATM   10  C   UNL     1       3.265  -9.075  55.978  1.00  0.00     0.011 A 
HETATM   11  C   UNL     1       4.134  -9.517  56.965  1.00  0.00     0.077 A 
HETATM   12  C   UNL     1       5.458  -9.106  56.959  1.00  0.00     0.073 A 
HETATM   13  C   UNL     1       5.914  -8.253  55.965  1.00  0.00     0.071 A 
HETATM   14  C   UNL     1       5.046  -7.812  54.977  1.00  0.00     0.073 A 
HETATM   15  C   UNL     1       3.723  -8.227  54.981  1.00  0.00     0.077 A 
BRANCH  11  16
HETATM   16  O   UNL     1       3.686 -10.352  57.939  1.00  0.00    -0.360 OA
HETATM   17  H   UNL     1       3.487 -11.244  57.736  1.00  0.00     0.217 HD
ENDBRANCH  11  16
BRANCH  13  18
HETATM   18  O   UNL     1       7.211  -7.849  55.959  1.00  0.00    -0.361 OA
HETATM   19  H   UNL     1       7.740  -7.961  56.724  1.00  0.00     0.217 HD
ENDBRANCH  13  18
BRANCH  15  20
HETATM   20  O   UNL     1       2.872  -7.794  54.014  1.00  0.00    -0.360 OA
HETATM   21  H   UNL     1       3.179  -7.684  53.135  1.00  0.00     0.217 HD
ENDBRANCH  15  20
ENDBRANCH   9  10
ENDBRANCH   8   9
BRANCH   8  22
HETATM   22  O   UNL     1       1.541 -11.911  56.201  1.00  0.00    -0.395 OA
HETATM   23  H   UNL     1       2.189 -11.805  56.916  1.00  0.00     0.210 HD
ENDBRANCH   8  22
ENDBRANCH   7   8
ENDBRANCH   3   7
BRANCH   5  24
HETATM   24  O   UNL     1       2.543 -10.016  49.968  1.00  0.00    -0.361 OA
HETATM   25  H   UNL     1       3.475  -9.927  50.006  1.00  0.00     0.217 HD
ENDBRANCH   5  24
TORSDOF 9
ENDMDL
MODEL 6
REMARK VINA RESULT:      -6.6      2.462      6.134
REMARK  9 active torsions:
REMARK  status: ('A' for Active; 'I' for Inactive)
REMARK    1  A    between atoms: C_3  and  C_8 
REMARK    2  A    between atoms: C_5  and  O_7 
REMARK    3  A    between atoms: C_8  and  C_9 
REMARK    4  A    between atoms: C_9  and  C_10 
REMARK    5  A    between atoms: C_9  and  O_20 
REMARK    6  A    between atoms: C_10  and  C_11 
REMARK    7  A    between atoms: C_12  and  O_19 
REMARK    8  A    between atoms: C_14  and  O_18 
REMARK    9  A    between atoms: C_16  and  O_17 
ROOT
HETATM    1  C   UNL     1       3.166  -4.743  55.484  1.00  0.00     0.003 A 
HETATM    2  C   UNL     1       3.374  -5.883  56.237  1.00  0.00     0.007 A 
HETATM    3  C   UNL     1       4.074  -6.949  55.703  1.00  0.00    -0.053 A 
HETATM    4  C   UNL     1       4.565  -6.878  54.414  1.00  0.00     0.043 A 
HETATM    5  C   UNL     1       4.357  -5.735  53.656  1.00  0.00     0.066 A 
HETATM    6  C   UNL     1       3.656  -4.666  54.195  1.00  0.00     0.036 A 
ENDROOT
BRANCH   3   7
HETATM    7  C   UNL     1       4.299  -8.191  56.527  1.00  0.00     0.070 C 
BRANCH   7   8
HETATM    8  C   UNL     1       3.070  -9.098  56.430  1.00  0.00     0.127 C 
BRANCH   8   9
HETATM    9  C   UNL     1       3.161  -9.945  55.160  1.00  0.00     0.076 C 
BRANCH   9  10
HETATM   10  C   UNL     1       1.773 -10.314  54.703  1.00  0.00     0.011 A 
HETATM   11  C   UNL     1       1.132 -11.416  55.250  1.00  0.00     0.077 A 
HETATM   12  C   UNL     1      -0.145 -11.756  54.830  1.00  0.00     0.073 A 
HETATM   13  C   UNL     1      -0.781 -10.994  53.861  1.00  0.00     0.071 A 
HETATM   14  C   UNL     1      -0.140  -9.892  53.314  1.00  0.00     0.073 A 
HETATM   15  C   UNL     1       1.134  -9.550  53.738  1.00  0.00     0.077 A 
BRANCH  11  16
HETATM   16  O   UNL     1       1.756 -12.162  56.199  1.00  0.00    -0.360 OA
HETATM   17  H   UNL     1       2.190 -11.742  56.915  1.00  0.00     0.217 HD
ENDBRANCH  11  16
BRANCH  13  18
HETATM   18  O   UNL     1      -2.032 -11.327  53.448  1.00  0.00    -0.361 OA
HETATM   19  H   UNL     1      -2.151 -12.020  52.828  1.00  0.00     0.217 HD
ENDBRANCH  13  18
BRANCH  15  20
HETATM   20  O   UNL     1       1.762  -8.470  53.201  1.00  0.00    -0.360 OA
HETATM   21  H   UNL     1       2.689  -8.373  53.296  1.00  0.00     0.217 HD
ENDBRANCH  15  20
ENDBRANCH   9  10
ENDBRANCH   8   9
BRANCH   8  22
HETATM   22  O   UNL     1       3.021  -9.956  57.572  1.00  0.00    -0.395 OA
HETATM   23  H   UNL     1       2.305  -9.670  58.161  1.00  0.00     0.210 HD
ENDBRANCH   8  22
ENDBRANCH   7   8
ENDBRANCH   3   7
BRANCH   5  24
HETATM   24  O   UNL     1       4.841  -5.662  52.387  1.00  0.00    -0.361 OA
HETATM   25  H   UNL     1       4.266  -5.790  51.659  1.00  0.00     0.217 HD
ENDBRANCH   5  24
TORSDOF 9
ENDMDL
MODEL 7
REMARK VINA RESULT:      -6.6      2.500      6.682
REMARK  9 active torsions:
REMARK  status: ('A' for Active; 'I' for Inactive)
REMARK    1  A    between atoms: C_3  and  C_8 
REMARK    2  A    between atoms: C_5  and  O_7 
REMARK    3  A    between atoms: C_8  and  C_9 
REMARK    4  A    between atoms: C_9  and  C_10 
REMARK    5  A    between atoms: C_9  and  O_20 
REMARK    6  A    between atoms: C_10  and  C_11 
REMARK    7  A    between atoms: C_12  and  O_19 
REMARK    8  A    between atoms: C_14  and  O_18 
REMARK    9  A    between atoms: C_16  and  O_17 
ROOT
HETATM    1  C   UNL     1       2.520  -4.676  55.798  1.00  0.00     0.003 A 
HETATM    2  C   UNL     1       2.970  -5.918  56.204  1.00  0.00     0.007 A 
HETATM    3  C   UNL     1       4.017  -6.528  55.539  1.00  0.00    -0.053 A 
HETATM    4  C   UNL     1       4.616  -5.898  54.466  1.00  0.00     0.043 A 
HETATM    5  C   UNL     1       4.166  -4.651  54.056  1.00  0.00     0.066 A 
HETATM    6  C   UNL     1       3.116  -4.041  54.726  1.00  0.00     0.036 A 
ENDROOT
BRANCH   3   7
HETATM    7  C   UNL     1       4.505  -7.883  55.985  1.00  0.00     0.070 C 
BRANCH   7   8
HETATM    8  C   UNL     1       3.316  -8.836  56.116  1.00  0.00     0.127 C 
BRANCH   8   9
HETATM    9  C   UNL     1       3.268  -9.764  54.901  1.00  0.00     0.076 C 
BRANCH   9  10
HETATM   10  C   UNL     1       1.842 -10.171  54.635  1.00  0.00     0.011 A 
HETATM   11  C   UNL     1       1.089  -9.488  53.693  1.00  0.00     0.077 A 
HETATM   12  C   UNL     1      -0.224  -9.863  53.449  1.00  0.00     0.073 A 
HETATM   13  C   UNL     1      -0.783 -10.922  54.148  1.00  0.00     0.071 A 
HETATM   14  C   UNL     1      -0.030 -11.606  55.089  1.00  0.00     0.073 A 
HETATM   15  C   UNL     1       1.284 -11.234  55.330  1.00  0.00     0.077 A 
BRANCH  11  16
HETATM   16  O   UNL     1       1.637  -8.449  53.009  1.00  0.00    -0.360 OA
HETATM   17  H   UNL     1       1.525  -7.573  53.318  1.00  0.00     0.217 HD
ENDBRANCH  11  16
BRANCH  13  18
HETATM   18  O   UNL     1      -2.070 -11.289  53.909  1.00  0.00    -0.361 OA
HETATM   19  H   UNL     1      -2.261 -11.916  53.240  1.00  0.00     0.217 HD
ENDBRANCH  13  18
BRANCH  15  20
HETATM   20  O   UNL     1       2.022 -11.905  56.254  1.00  0.00    -0.360 OA
HETATM   21  H   UNL     1       2.929 -12.075  56.094  1.00  0.00     0.217 HD
ENDBRANCH  15  20
ENDBRANCH   9  10
ENDBRANCH   8   9
BRANCH   8  22
HETATM   22  O   UNL     1       3.460  -9.616  57.305  1.00  0.00    -0.395 OA
HETATM   23  H   UNL     1       3.519 -10.555  57.071  1.00  0.00     0.210 HD
ENDBRANCH   8  22
ENDBRANCH   7   8
ENDBRANCH   3   7
BRANCH   5  24
HETATM   24  O   UNL     1       4.754  -4.028  53.001  1.00  0.00    -0.361 OA
HETATM   25  H   UNL     1       4.774  -4.446  52.162  1.00  0.00     0.217 HD
ENDBRANCH   5  24
TORSDOF 9
ENDMDL
MODEL 8
REMARK VINA RESULT:      -6.5      2.551      4.179
REMARK  9 active torsions:
REMARK  status: ('A' for Active; 'I' for Inactive)
REMARK    1  A    between atoms: C_3  and  C_8 
REMARK    2  A    between atoms: C_5  and  O_7 
REMARK    3  A    between atoms: C_8  and  C_9 
REMARK    4  A    between atoms: C_9  and  C_10 
REMARK    5  A    between atoms: C_9  and  O_20 
REMARK    6  A    between atoms: C_10  and  C_11 
REMARK    7  A    between atoms: C_12  and  O_19 
REMARK    8  A    between atoms: C_14  and  O_18 
REMARK    9  A    between atoms: C_16  and  O_17 
ROOT
HETATM    1  C   UNL     1       0.618 -11.226  53.349  1.00  0.00     0.003 A 
HETATM    2  C   UNL     1       1.761 -11.014  54.096  1.00  0.00     0.007 A 
HETATM    3  C   UNL     1       1.663 -10.617  55.417  1.00  0.00    -0.053 A 
HETATM    4  C   UNL     1       0.421 -10.430  55.992  1.00  0.00     0.043 A 
HETATM    5  C   UNL     1      -0.728 -10.642  55.244  1.00  0.00     0.066 A 
HETATM    6  C   UNL     1      -0.626 -11.041  53.919  1.00  0.00     0.036 A 
ENDROOT
BRANCH   3   7
HETATM    7  C   UNL     1       2.911 -10.387  56.229  1.00  0.00     0.070 C 
BRANCH   7   8
HETATM    8  C   UNL     1       3.653  -9.161  55.690  1.00  0.00     0.127 C 
BRANCH   8   9
HETATM    9  C   UNL     1       2.775  -7.920  55.859  1.00  0.00     0.076 C 
BRANCH   9  10
HETATM   10  C   UNL     1       3.225  -6.852  54.896  1.00  0.00     0.011 A 
HETATM   11  C   UNL     1       2.766  -6.858  53.587  1.00  0.00     0.077 A 
HETATM   12  C   UNL     1       3.180  -5.876  52.701  1.00  0.00     0.073 A 
HETATM   13  C   UNL     1       4.055  -4.886  53.124  1.00  0.00     0.071 A 
HETATM   14  C   UNL     1       4.513  -4.878  54.433  1.00  0.00     0.073 A 
HETATM   15  C   UNL     1       4.095  -5.858  55.320  1.00  0.00     0.077 A 
BRANCH  11  16
HETATM   16  O   UNL     1       1.909  -7.829  53.174  1.00  0.00    -0.360 OA
HETATM   17  H   UNL     1       2.025  -8.230  52.335  1.00  0.00     0.217 HD
ENDBRANCH  11  16
BRANCH  13  18
HETATM   18  O   UNL     1       4.462  -3.923  52.256  1.00  0.00    -0.361 OA
HETATM   19  H   UNL     1       5.182  -4.087  51.679  1.00  0.00     0.217 HD
ENDBRANCH  13  18
BRANCH  15  20
HETATM   20  O   UNL     1       4.546  -5.851  56.602  1.00  0.00    -0.360 OA
HETATM   21  H   UNL     1       5.137  -5.183  56.887  1.00  0.00     0.217 HD
ENDBRANCH  15  20
ENDBRANCH   9  10
ENDBRANCH   8   9
BRANCH   8  22
HETATM   22  O   UNL     1       4.871  -8.985  56.415  1.00  0.00    -0.395 OA
HETATM   23  H   UNL     1       4.795  -9.411  57.284  1.00  0.00     0.210 HD
ENDBRANCH   8  22
ENDBRANCH   7   8
ENDBRANCH   3   7
BRANCH   5  24
HETATM   24  O   UNL     1      -1.951 -10.460  55.809  1.00  0.00    -0.361 OA
HETATM   25  H   UNL     1      -2.249 -11.044  56.478  1.00  0.00     0.217 HD
ENDBRANCH   5  24
TORSDOF 9
ENDMDL
MODEL 9
REMARK VINA RESULT:      -6.5      3.856      6.632
REMARK  9 active torsions:
REMARK  status: ('A' for Active; 'I' for Inactive)
REMARK    1  A    between atoms: C_3  and  C_8 
REMARK    2  A    between atoms: C_5  and  O_7 
REMARK    3  A    between atoms: C_8  and  C_9 
REMARK    4  A    between atoms: C_9  and  C_10 
REMARK    5  A    between atoms: C_9  and  O_20 
REMARK    6  A    between atoms: C_10  and  C_11 
REMARK    7  A    between atoms: C_12  and  O_19 
REMARK    8  A    between atoms: C_14  and  O_18 
REMARK    9  A    between atoms: C_16  and  O_17 
ROOT
HETATM    1  C   UNL     1       2.285 -10.273  54.754  1.00  0.00     0.003 A 
HETATM    2  C   UNL     1       2.920  -9.158  54.241  1.00  0.00     0.007 A 
HETATM    3  C   UNL     1       3.815  -8.449  55.022  1.00  0.00    -0.053 A 
HETATM    4  C   UNL     1       4.076  -8.854  56.316  1.00  0.00     0.043 A 
HETATM    5  C   UNL     1       3.439  -9.973  56.833  1.00  0.00     0.066 A 
HETATM    6  C   UNL     1       2.542 -10.683  56.048  1.00  0.00     0.036 A 
ENDROOT
BRANCH   3   7
HETATM    7  C   UNL     1       4.506  -7.234  54.459  1.00  0.00     0.070 C 
BRANCH   7   8
HETATM    8  C   UNL     1       4.403  -7.249  52.932  1.00  0.00     0.127 C 
BRANCH   8   9
HETATM    9  C   UNL     1       3.293  -6.295  52.487  1.00  0.00     0.076 C 
BRANCH   9  10
HETATM   10  C   UNL     1       3.412  -6.043  51.006  1.00  0.00     0.011 A 
HETATM   11  C   UNL     1       2.900  -6.962  50.102  1.00  0.00     0.077 A 
HETATM   12  C   UNL     1       3.010  -6.731  48.739  1.00  0.00     0.073 A 
HETATM   13  C   UNL     1       3.632  -5.580  48.280  1.00  0.00     0.071 A 
HETATM   14  C   UNL     1       4.143  -4.660  49.184  1.00  0.00     0.073 A 
HETATM   15  C   UNL     1       4.029  -4.889  50.546  1.00  0.00     0.077 A 
BRANCH  11  16
HETATM   16  O   UNL     1       2.292  -8.091  50.553  1.00  0.00    -0.360 OA
HETATM   17  H   UNL     1       2.797  -8.761  50.968  1.00  0.00     0.217 HD
ENDBRANCH  11  16
BRANCH  13  18
HETATM   18  O   UNL     1       3.740  -5.353  46.945  1.00  0.00    -0.361 OA
HETATM   19  H   UNL     1       3.822  -4.476  46.624  1.00  0.00     0.217 HD
ENDBRANCH  13  18
BRANCH  15  20
HETATM   20  O   UNL     1       4.531  -3.988  51.431  1.00  0.00    -0.360 OA
HETATM   21  H   UNL     1       4.369  -3.073  51.310  1.00  0.00     0.217 HD
ENDBRANCH  15  20
ENDBRANCH   9  10
ENDBRANCH   8   9
BRANCH   8  22
HETATM   22  O   UNL     1       5.647  -6.829  52.368  1.00  0.00    -0.395 OA
HETATM   23  H   UNL     1       6.344  -7.457  52.617  1.00  0.00     0.210 HD
ENDBRANCH   8  22
ENDBRANCH   7   8
ENDBRANCH   3   7
BRANCH   5  24
HETATM   24  O   UNL     1       3.695 -10.374  58.107  1.00  0.00    -0.361 OA
HETATM   25  H   UNL     1       2.986 -10.532  58.699  1.00  0.00     0.217 HD
ENDBRANCH   5  24
TORSDOF 9
ENDMDL
