MODEL 1
REMARK VINA RESULT:      -6.7      0.000      0.000
REMARK  9 active torsions:
REMARK  status: ('A' for Active; 'I' for Inactive)
REMARK    1  A    between atoms: C_3  and  C_8 
REMARK    2  A    between atoms: C_5  and  O_7 
REMARK    3  A    between atoms: C_8  and  C_9 
REMARK    4  A    between atoms: C_9  and  C_10 
REMARK    5  A    between atoms: C_9  and  O_20 
REMARK    6  A    between atoms: C_10  and  C_11 
REMARK    7  A    between atoms: C_12  and  O_19 
REMARK    8  A    between atoms: C_14  and  O_18 
REMARK    9  A    between atoms: C_16  and  O_17 
ROOT
HETATM    1  C   UNL     1       5.342  -3.936  58.687  1.00  0.00     0.003 A 
HETATM    2  C   UNL     1       5.079  -2.775  57.983  1.00  0.00     0.007 A 
HETATM    3  C   UNL     1       6.088  -1.856  57.760  1.00  0.00    -0.053 A 
HETATM    4  C   UNL     1       7.361  -2.097  58.239  1.00  0.00     0.043 A 
HETATM    5  C   UNL     1       7.626  -3.261  58.946  1.00  0.00     0.066 A 
HETATM    6  C   UNL     1       6.613  -4.181  59.168  1.00  0.00     0.036 A 
ENDROOT
BRANCH   3   7
HETATM    7  C   UNL     1       5.799  -0.592  56.992  1.00  0.00     0.070 C 
BRANCH   7   8
HETATM    8  C   UNL     1       6.024  -0.839  55.498  1.00  0.00     0.127 C 
BRANCH   8   9
HETATM    9  C   UNL     1       4.692  -0.723  54.756  1.00  0.00     0.076 C 
BRANCH   9  10
HETATM   10  C   UNL     1       4.698  -1.647  53.566  1.00  0.00     0.011 A 
HETATM   11  C   UNL     1       4.198  -2.936  53.686  1.00  0.00     0.077 A 
HETATM   12  C   UNL     1       4.203  -3.786  52.591  1.00  0.00     0.073 A 
HETATM   13  C   UNL     1       4.709  -3.349  51.376  1.00  0.00     0.071 A 
HETATM   14  C   UNL     1       5.208  -2.060  51.256  1.00  0.00     0.073 A 
HETATM   15  C   UNL     1       5.198  -1.208  52.349  1.00  0.00     0.077 A 
BRANCH  11  16
HETATM   16  O   UNL     1       3.703  -3.364  54.877  1.00  0.00    -0.360 OA
HETATM   17  H   UNL     1       4.287  -3.557  55.584  1.00  0.00     0.217 HD
ENDBRANCH  11  16
BRANCH  13  18
HETATM   18  O   UNL     1       4.716  -4.183  50.303  1.00  0.00    -0.361 OA
HETATM   19  H   UNL     1       4.301  -5.021  50.359  1.00  0.00     0.217 HD
ENDBRANCH  13  18
BRANCH  15  20
HETATM   20  O   UNL     1       5.687   0.054  52.232  1.00  0.00    -0.360 OA
HETATM   21  H   UNL     1       5.658   0.638  52.964  1.00  0.00     0.217 HD
ENDBRANCH  15  20
ENDBRANCH   9  10
ENDBRANCH   8   9
BRANCH   8  22
HETATM   22  O   UNL     1       6.940   0.132  54.989  1.00  0.00    -0.395 OA
HETATM   23  H   UNL     1       7.769   0.091  55.492  1.00  0.00     0.210 HD
ENDBRANCH   8  22
ENDBRANCH   7   8
ENDBRANCH   3   7
BRANCH   5  24
HETATM   24  O   UNL     1       8.879  -3.499  59.418  1.00  0.00    -0.361 OA
HETATM   25  H   UNL     1       9.619  -3.099  59.006  1.00  0.00     0.217 HD
ENDBRANCH   5  24
TORSDOF 9
ENDMDL
MODEL 2
REMARK VINA RESULT:      -6.7      0.054      1.849
REMARK  9 active torsions:
REMARK  status: ('A' for Active; 'I' for Inactive)
REMARK    1  A    between atoms: C_3  and  C_8 
REMARK    2  A    between atoms: C_5  and  O_7 
REMARK    3  A    between atoms: C_8  and  C_9 
REMARK    4  A    between atoms: C_9  and  C_10 
REMARK    5  A    between atoms: C_9  and  O_20 
REMARK    6  A    between atoms: C_10  and  C_11 
REMARK    7  A    between atoms: C_12  and  O_19 
REMARK    8  A    between atoms: C_14  and  O_18 
REMARK    9  A    between atoms: C_16  and  O_17 
ROOT
HETATM    1  C   UNL     1       5.308  -3.893  58.637  1.00  0.00     0.003 A 
HETATM    2  C   UNL     1       5.053  -2.727  57.942  1.00  0.00     0.007 A 
HETATM    3  C   UNL     1       6.065  -1.808  57.733  1.00  0.00    -0.053 A 
HETATM    4  C   UNL     1       7.334  -2.054  58.220  1.00  0.00     0.043 A 
HETATM    5  C   UNL     1       7.592  -3.224  58.919  1.00  0.00     0.066 A 
HETATM    6  C   UNL     1       6.575  -4.145  59.127  1.00  0.00     0.036 A 
ENDROOT
BRANCH   3   7
HETATM    7  C   UNL     1       5.784  -0.537  56.973  1.00  0.00     0.070 C 
BRANCH   7   8
HETATM    8  C   UNL     1       6.008  -0.776  55.478  1.00  0.00     0.127 C 
BRANCH   8   9
HETATM    9  C   UNL     1       4.668  -0.699  54.743  1.00  0.00     0.076 C 
BRANCH   9  10
HETATM   10  C   UNL     1       4.687  -1.638  53.565  1.00  0.00     0.011 A 
HETATM   11  C   UNL     1       5.217  -1.221  52.353  1.00  0.00     0.077 A 
HETATM   12  C   UNL     1       5.235  -2.085  51.269  1.00  0.00     0.073 A 
HETATM   13  C   UNL     1       4.722  -3.368  51.397  1.00  0.00     0.071 A 
HETATM   14  C   UNL     1       4.193  -3.786  52.609  1.00  0.00     0.073 A 
HETATM   15  C   UNL     1       4.180  -2.923  53.694  1.00  0.00     0.077 A 
BRANCH  11  16
HETATM   16  O   UNL     1       5.718   0.036  52.229  1.00  0.00    -0.360 OA
HETATM   17  H   UNL     1       6.134   0.298  51.431  1.00  0.00     0.217 HD
ENDBRANCH  11  16
BRANCH  13  18
HETATM   18  O   UNL     1       4.738  -4.215  50.334  1.00  0.00    -0.361 OA
HETATM   19  H   UNL     1       5.555  -4.522  49.993  1.00  0.00     0.217 HD
ENDBRANCH  13  18
BRANCH  15  20
HETATM   20  O   UNL     1       3.661  -3.332  54.882  1.00  0.00    -0.360 OA
HETATM   21  H   UNL     1       3.515  -2.712  55.568  1.00  0.00     0.217 HD
ENDBRANCH  15  20
ENDBRANCH   9  10
ENDBRANCH   8   9
BRANCH   8  22
HETATM   22  O   UNL     1       6.891   0.223  54.964  1.00  0.00    -0.395 OA
HETATM   23  H   UNL     1       7.750  -0.178  54.761  1.00  0.00     0.210 HD
ENDBRANCH   8  22
ENDBRANCH   7   8
ENDBRANCH   3   7
BRANCH   5  24
HETATM   24  O   UNL     1       8.840  -3.469  59.399  1.00  0.00    -0.361 OA
HETATM   25  H   UNL     1       9.048  -4.309  59.760  1.00  0.00     0.217 HD
ENDBRANCH   5  24
TORSDOF 9
ENDMDL
MODEL 3
REMARK VINA RESULT:      -6.6      2.475      4.310
REMARK  9 active torsions:
REMARK  status: ('A' for Active; 'I' for Inactive)
REMARK    1  A    between atoms: C_3  and  C_8 
REMARK    2  A    between atoms: C_5  and  O_7 
REMARK    3  A    between atoms: C_8  and  C_9 
REMARK    4  A    between atoms: C_9  and  C_10 
REMARK    5  A    between atoms: C_9  and  O_20 
REMARK    6  A    between atoms: C_10  and  C_11 
REMARK    7  A    between atoms: C_12  and  O_19 
REMARK    8  A    between atoms: C_14  and  O_18 
REMARK    9  A    between atoms: C_16  and  O_17 
ROOT
HETATM    1  C   UNL     1       4.239  -5.064  55.728  1.00  0.00     0.003 A 
HETATM    2  C   UNL     1       4.995  -4.212  56.510  1.00  0.00     0.007 A 
HETATM    3  C   UNL     1       5.111  -4.438  57.870  1.00  0.00    -0.053 A 
HETATM    4  C   UNL     1       4.470  -5.515  58.449  1.00  0.00     0.043 A 
HETATM    5  C   UNL     1       3.709  -6.372  57.665  1.00  0.00     0.066 A 
HETATM    6  C   UNL     1       3.596  -6.143  56.302  1.00  0.00     0.036 A 
ENDROOT
BRANCH   3   7
HETATM    7  C   UNL     1       5.937  -3.508  58.720  1.00  0.00     0.070 C 
BRANCH   7   8
HETATM    8  C   UNL     1       7.057  -2.900  57.872  1.00  0.00     0.127 C 
BRANCH   8   9
HETATM    9  C   UNL     1       6.900  -1.379  57.834  1.00  0.00     0.076 C 
BRANCH   9  10
HETATM   10  C   UNL     1       6.547  -0.945  56.435  1.00  0.00     0.011 A 
HETATM   11  C   UNL     1       5.559   0.007  56.232  1.00  0.00     0.077 A 
HETATM   12  C   UNL     1       5.234   0.406  54.944  1.00  0.00     0.073 A 
HETATM   13  C   UNL     1       5.897  -0.147  53.859  1.00  0.00     0.071 A 
HETATM   14  C   UNL     1       6.887  -1.098  54.062  1.00  0.00     0.073 A 
HETATM   15  C   UNL     1       7.214  -1.493  55.350  1.00  0.00     0.077 A 
BRANCH  11  16
HETATM   16  O   UNL     1       4.908   0.548  57.295  1.00  0.00    -0.360 OA
HETATM   17  H   UNL     1       5.392   0.984  57.968  1.00  0.00     0.217 HD
ENDBRANCH  11  16
BRANCH  13  18
HETATM   18  O   UNL     1       5.579   0.244  52.597  1.00  0.00    -0.361 OA
HETATM   19  H   UNL     1       4.686   0.229  52.314  1.00  0.00     0.217 HD
ENDBRANCH  13  18
BRANCH  15  20
HETATM   20  O   UNL     1       8.183  -2.426  55.549  1.00  0.00    -0.360 OA
HETATM   21  H   UNL     1       8.025  -3.320  55.319  1.00  0.00     0.217 HD
ENDBRANCH  15  20
ENDBRANCH   9  10
ENDBRANCH   8   9
BRANCH   8  22
HETATM   22  O   UNL     1       8.322  -3.234  58.445  1.00  0.00    -0.395 OA
HETATM   23  H   UNL     1       8.201  -3.919  59.121  1.00  0.00     0.210 HD
ENDBRANCH   8  22
ENDBRANCH   7   8
ENDBRANCH   3   7
BRANCH   5  24
HETATM   24  O   UNL     1       3.078  -7.433  58.233  1.00  0.00    -0.361 OA
HETATM   25  H   UNL     1       3.438  -7.838  58.998  1.00  0.00     0.217 HD
ENDBRANCH   5  24
TORSDOF 9
ENDMDL
MODEL 4
REMARK VINA RESULT:      -6.6      2.461      4.320
REMARK  9 active torsions:
REMARK  status: ('A' for Active; 'I' for Inactive)
REMARK    1  A    between atoms: C_3  and  C_8 
REMARK    2  A    between atoms: C_5  and  O_7 
REMARK    3  A    between atoms: C_8  and  C_9 
REMARK    4  A    between atoms: C_9  and  C_10 
REMARK    5  A    between atoms: C_9  and  O_20 
REMARK    6  A    between atoms: C_10  and  C_11 
REMARK    7  A    between atoms: C_12  and  O_19 
REMARK    8  A    between atoms: C_14  and  O_18 
REMARK    9  A    between atoms: C_16  and  O_17 
ROOT
HETATM    1  C   UNL     1       4.123  -4.939  55.764  1.00  0.00     0.003 A 
HETATM    2  C   UNL     1       4.872  -4.076  56.542  1.00  0.00     0.007 A 
HETATM    3  C   UNL     1       5.066  -4.344  57.885  1.00  0.00    -0.053 A 
HETATM    4  C   UNL     1       4.510  -5.473  58.452  1.00  0.00     0.043 A 
HETATM    5  C   UNL     1       3.757  -6.340  57.673  1.00  0.00     0.066 A 
HETATM    6  C   UNL     1       3.565  -6.070  56.326  1.00  0.00     0.036 A 
ENDROOT
BRANCH   3   7
HETATM    7  C   UNL     1       5.883  -3.401  58.730  1.00  0.00     0.070 C 
BRANCH   7   8
HETATM    8  C   UNL     1       7.073  -2.887  57.917  1.00  0.00     0.127 C 
BRANCH   8   9
HETATM    9  C   UNL     1       7.017  -1.361  57.839  1.00  0.00     0.076 C 
BRANCH   9  10
HETATM   10  C   UNL     1       6.614  -0.943  56.448  1.00  0.00     0.011 A 
HETATM   11  C   UNL     1       7.248  -1.498  55.346  1.00  0.00     0.077 A 
HETATM   12  C   UNL     1       6.878  -1.113  54.067  1.00  0.00     0.073 A 
HETATM   13  C   UNL     1       5.874  -0.173  53.889  1.00  0.00     0.071 A 
HETATM   14  C   UNL     1       5.239   0.380  54.990  1.00  0.00     0.073 A 
HETATM   15  C   UNL     1       5.606  -0.008  56.270  1.00  0.00     0.077 A 
BRANCH  11  16
HETATM   16  O   UNL     1       8.233  -2.418  55.521  1.00  0.00    -0.360 OA
HETATM   17  H   UNL     1       9.053  -2.316  55.081  1.00  0.00     0.217 HD
ENDBRANCH  11  16
BRANCH  13  18
HETATM   18  O   UNL     1       5.511   0.204  52.635  1.00  0.00    -0.361 OA
HETATM   19  H   UNL     1       5.808   1.022  52.288  1.00  0.00     0.217 HD
ENDBRANCH  13  18
BRANCH  15  20
HETATM   20  O   UNL     1       4.984   0.536  57.349  1.00  0.00    -0.360 OA
HETATM   21  H   UNL     1       5.378   1.255  57.803  1.00  0.00     0.217 HD
ENDBRANCH  15  20
ENDBRANCH   9  10
ENDBRANCH   8   9
BRANCH   8  22
HETATM   22  O   UNL     1       8.290  -3.288  58.549  1.00  0.00    -0.395 OA
HETATM   23  H   UNL     1       8.862  -3.730  57.901  1.00  0.00     0.210 HD
ENDBRANCH   8  22
ENDBRANCH   7   8
ENDBRANCH   3   7
BRANCH   5  24
HETATM   24  O   UNL     1       3.210  -7.454  58.229  1.00  0.00    -0.361 OA
HETATM   25  H   UNL     1       3.007  -8.195  57.692  1.00  0.00     0.217 HD
ENDBRANCH   5  24
TORSDOF 9
ENDMDL
MODEL 5
REMARK VINA RESULT:      -6.5      3.058      5.767
REMARK  9 active torsions:
REMARK  status: ('A' for Active; 'I' for Inactive)
REMARK    1  A    between atoms: C_3  and  C_8 
REMARK    2  A    between atoms: C_5  and  O_7 
REMARK    3  A    between atoms: C_8  and  C_9 
REMARK    4  A    between atoms: C_9  and  C_10 
REMARK    5  A    between atoms: C_9  and  O_20 
REMARK    6  A    between atoms: C_10  and  C_11 
REMARK    7  A    between atoms: C_12  and  O_19 
REMARK    8  A    between atoms: C_14  and  O_18 
REMARK    9  A    between atoms: C_16  and  O_17 
ROOT
HETATM    1  C   UNL     1       5.436   0.591  56.835  1.00  0.00     0.003 A 
HETATM    2  C   UNL     1       5.797  -0.497  57.607  1.00  0.00     0.007 A 
HETATM    3  C   UNL     1       5.738  -1.773  57.077  1.00  0.00    -0.053 A 
HETATM    4  C   UNL     1       5.317  -1.962  55.776  1.00  0.00     0.043 A 
HETATM    5  C   UNL     1       4.954  -0.872  54.999  1.00  0.00     0.066 A 
HETATM    6  C   UNL     1       5.015   0.407  55.533  1.00  0.00     0.036 A 
ENDROOT
BRANCH   3   7
HETATM    7  C   UNL     1       6.132  -2.957  57.922  1.00  0.00     0.070 C 
BRANCH   7   8
HETATM    8  C   UNL     1       4.875  -3.631  58.476  1.00  0.00     0.127 C 
BRANCH   8   9
HETATM    9  C   UNL     1       4.868  -5.107  58.077  1.00  0.00     0.076 C 
BRANCH   9  10
HETATM   10  C   UNL     1       3.532  -5.460  57.476  1.00  0.00     0.011 A 
HETATM   11  C   UNL     1       3.387  -5.526  56.098  1.00  0.00     0.077 A 
HETATM   12  C   UNL     1       2.157  -5.850  55.545  1.00  0.00     0.073 A 
HETATM   13  C   UNL     1       1.073  -6.107  56.370  1.00  0.00     0.071 A 
HETATM   14  C   UNL     1       1.218  -6.042  57.748  1.00  0.00     0.073 A 
HETATM   15  C   UNL     1       2.449  -5.723  58.300  1.00  0.00     0.077 A 
BRANCH  11  16
HETATM   16  O   UNL     1       4.450  -5.273  55.291  1.00  0.00    -0.360 OA
HETATM   17  H   UNL     1       4.881  -4.442  55.330  1.00  0.00     0.217 HD
ENDBRANCH  11  16
BRANCH  13  18
HETATM   18  O   UNL     1      -0.133  -6.424  55.828  1.00  0.00    -0.361 OA
HETATM   19  H   UNL     1      -0.917  -6.295  56.324  1.00  0.00     0.217 HD
ENDBRANCH  13  18
BRANCH  15  20
HETATM   20  O   UNL     1       2.591  -5.658  59.651  1.00  0.00    -0.360 OA
HETATM   21  H   UNL     1       3.206  -6.216  60.084  1.00  0.00     0.217 HD
ENDBRANCH  15  20
ENDBRANCH   9  10
ENDBRANCH   8   9
BRANCH   8  22
HETATM   22  O   UNL     1       4.866  -3.522  59.901  1.00  0.00    -0.395 OA
HETATM   23  H   UNL     1       4.902  -4.409  60.293  1.00  0.00     0.210 HD
ENDBRANCH   8  22
ENDBRANCH   7   8
ENDBRANCH   3   7
BRANCH   5  24
HETATM   24  O   UNL     1       4.541  -1.056  53.717  1.00  0.00    -0.361 OA
HETATM   25  H   UNL     1       3.934  -1.741  53.515  1.00  0.00     0.217 HD
ENDBRANCH   5  24
TORSDOF 9
ENDMDL
MODEL 6
REMARK VINA RESULT:      -6.5      2.026      3.249
REMARK  9 active torsions:
REMARK  status: ('A' for Active; 'I' for Inactive)
REMARK    1  A    between atoms: C_3  and  C_8 
REMARK    2  A    between atoms: C_5  and  O_7 
REMARK    3  A    between atoms: C_8  and  C_9 
REMARK    4  A    between atoms: C_9  and  C_10 
REMARK    5  A    between atoms: C_9  and  O_20 
REMARK    6  A    between atoms: C_10  and  C_11 
REMARK    7  A    between atoms: C_12  and  O_19 
REMARK    8  A    between atoms: C_14  and  O_18 
REMARK    9  A    between atoms: C_16  and  O_17 
ROOT
HETATM    1  C   UNL     1       3.937  -5.865  57.206  1.00  0.00     0.003 A 
HETATM    2  C   UNL     1       4.988  -4.973  57.312  1.00  0.00     0.007 A 
HETATM    3  C   UNL     1       4.964  -3.984  58.278  1.00  0.00    -0.053 A 
HETATM    4  C   UNL     1       3.889  -3.885  59.139  1.00  0.00     0.043 A 
HETATM    5  C   UNL     1       2.833  -4.779  59.035  1.00  0.00     0.066 A 
HETATM    6  C   UNL     1       2.860  -5.771  58.066  1.00  0.00     0.036 A 
ENDROOT
BRANCH   3   7
HETATM    7  C   UNL     1       6.111  -3.013  58.390  1.00  0.00     0.070 C 
BRANCH   7   8
HETATM    8  C   UNL     1       6.438  -2.447  57.006  1.00  0.00     0.127 C 
BRANCH   8   9
HETATM    9  C   UNL     1       5.354  -1.449  56.594  1.00  0.00     0.076 C 
BRANCH   9  10
HETATM   10  C   UNL     1       5.386  -1.263  55.099  1.00  0.00     0.011 A 
HETATM   11  C   UNL     1       4.654  -2.109  54.279  1.00  0.00     0.077 A 
HETATM   12  C   UNL     1       4.683  -1.937  52.903  1.00  0.00     0.073 A 
HETATM   13  C   UNL     1       5.445  -0.921  52.347  1.00  0.00     0.071 A 
HETATM   14  C   UNL     1       6.176  -0.075  53.167  1.00  0.00     0.073 A 
HETATM   15  C   UNL     1       6.143  -0.243  54.543  1.00  0.00     0.077 A 
BRANCH  11  16
HETATM   16  O   UNL     1       3.908  -3.105  54.824  1.00  0.00    -0.360 OA
HETATM   17  H   UNL     1       4.153  -4.000  54.692  1.00  0.00     0.217 HD
ENDBRANCH  11  16
BRANCH  13  18
HETATM   18  O   UNL     1       5.474  -0.753  50.999  1.00  0.00    -0.361 OA
HETATM   19  H   UNL     1       6.285  -0.827  50.536  1.00  0.00     0.217 HD
ENDBRANCH  13  18
BRANCH  15  20
HETATM   20  O   UNL     1       6.861   0.586  55.346  1.00  0.00    -0.360 OA
HETATM   21  H   UNL     1       6.424   1.245  55.848  1.00  0.00     0.217 HD
ENDBRANCH  15  20
ENDBRANCH   9  10
ENDBRANCH   8   9
BRANCH   8  22
HETATM   22  O   UNL     1       7.704  -1.785  57.051  1.00  0.00    -0.395 OA
HETATM   23  H   UNL     1       8.343  -2.273  56.508  1.00  0.00     0.210 HD
ENDBRANCH   8  22
ENDBRANCH   7   8
ENDBRANCH   3   7
BRANCH   5  24
HETATM   24  O   UNL     1       1.775  -4.684  59.883  1.00  0.00    -0.361 OA
HETATM   25  H   UNL     1       1.031  -4.165  59.647  1.00  0.00     0.217 HD
ENDBRANCH   5  24
TORSDOF 9
ENDMDL
MODEL 7
REMARK VINA RESULT:      -6.5      2.010      3.603
REMARK  9 active torsions:
REMARK  status: ('A' for Active; 'I' for Inactive)
REMARK    1  A    between atoms: C_3  and  C_8 
REMARK    2  A    between atoms: C_5  and  O_7 
REMARK    3  A    between atoms: C_8  and  C_9 
REMARK    4  A    between atoms: C_9  and  C_10 
REMARK    5  A    between atoms: C_9  and  O_20 
REMARK    6  A    between atoms: C_10  and  C_11 
REMARK    7  A    between atoms: C_12  and  O_19 
REMARK    8  A    between atoms: C_14  and  O_18 
REMARK    9  A    between atoms: C_16  and  O_17 
ROOT
HETATM    1  C   UNL     1       4.007  -5.851  57.191  1.00  0.00     0.003 A 
HETATM    2  C   UNL     1       5.038  -4.938  57.300  1.00  0.00     0.007 A 
HETATM    3  C   UNL     1       4.991  -3.951  58.268  1.00  0.00    -0.053 A 
HETATM    4  C   UNL     1       3.913  -3.876  59.127  1.00  0.00     0.043 A 
HETATM    5  C   UNL     1       2.877  -4.792  59.020  1.00  0.00     0.066 A 
HETATM    6  C   UNL     1       2.926  -5.781  58.049  1.00  0.00     0.036 A 
ENDROOT
BRANCH   3   7
HETATM    7  C   UNL     1       6.118  -2.957  58.384  1.00  0.00     0.070 C 
BRANCH   7   8
HETATM    8  C   UNL     1       6.448  -2.395  56.999  1.00  0.00     0.127 C 
BRANCH   8   9
HETATM    9  C   UNL     1       5.357  -1.409  56.576  1.00  0.00     0.076 C 
BRANCH   9  10
HETATM   10  C   UNL     1       5.389  -1.237  55.079  1.00  0.00     0.011 A 
HETATM   11  C   UNL     1       6.155  -0.229  54.513  1.00  0.00     0.077 A 
HETATM   12  C   UNL     1       6.184  -0.071  53.135  1.00  0.00     0.073 A 
HETATM   13  C   UNL     1       5.447  -0.921  52.324  1.00  0.00     0.071 A 
HETATM   14  C   UNL     1       4.683  -1.930  52.891  1.00  0.00     0.073 A 
HETATM   15  C   UNL     1       4.657  -2.090  54.267  1.00  0.00     0.077 A 
BRANCH  11  16
HETATM   16  O   UNL     1       6.876   0.604  55.308  1.00  0.00    -0.360 OA
HETATM   17  H   UNL     1       7.544   0.258  55.866  1.00  0.00     0.217 HD
ENDBRANCH  11  16
BRANCH  13  18
HETATM   18  O   UNL     1       5.475  -0.766  50.975  1.00  0.00    -0.361 OA
HETATM   19  H   UNL     1       5.116  -1.430  50.420  1.00  0.00     0.217 HD
ENDBRANCH  13  18
BRANCH  15  20
HETATM   20  O   UNL     1       3.907  -3.079  54.822  1.00  0.00    -0.360 OA
HETATM   21  H   UNL     1       3.180  -3.435  54.351  1.00  0.00     0.217 HD
ENDBRANCH  15  20
ENDBRANCH   9  10
ENDBRANCH   8   9
BRANCH   8  22
HETATM   22  O   UNL     1       7.707  -1.721  57.047  1.00  0.00    -0.395 OA
HETATM   23  H   UNL     1       7.559  -0.765  57.131  1.00  0.00     0.210 HD
ENDBRANCH   8  22
ENDBRANCH   7   8
ENDBRANCH   3   7
BRANCH   5  24
HETATM   24  O   UNL     1       1.815  -4.721  59.866  1.00  0.00    -0.361 OA
HETATM   25  H   UNL     1       1.903  -5.009  60.754  1.00  0.00     0.217 HD
ENDBRANCH   5  24
TORSDOF 9
ENDMDL
MODEL 8
REMARK VINA RESULT:      -6.5      2.013      2.930
REMARK  9 active torsions:
REMARK  status: ('A' for Active; 'I' for Inactive)
REMARK    1  A    between atoms: C_3  and  C_8 
REMARK    2  A    between atoms: C_5  and  O_7 
REMARK    3  A    between atoms: C_8  and  C_9 
REMARK    4  A    between atoms: C_9  and  C_10 
REMARK    5  A    between atoms: C_9  and  O_20 
REMARK    6  A    between atoms: C_10  and  C_11 
REMARK    7  A    between atoms: C_12  and  O_19 
REMARK    8  A    between atoms: C_14  and  O_18 
REMARK    9  A    between atoms: C_16  and  O_17 
ROOT
HETATM    1  C   UNL     1       5.459  -4.118  57.739  1.00  0.00     0.003 A 
HETATM    2  C   UNL     1       5.686  -3.600  56.478  1.00  0.00     0.007 A 
HETATM    3  C   UNL     1       6.842  -2.888  56.217  1.00  0.00    -0.053 A 
HETATM    4  C   UNL     1       7.773  -2.692  57.218  1.00  0.00     0.043 A 
HETATM    5  C   UNL     1       7.548  -3.209  58.485  1.00  0.00     0.066 A 
HETATM    6  C   UNL     1       6.387  -3.924  58.743  1.00  0.00     0.036 A 
ENDROOT
BRANCH   3   7
HETATM    7  C   UNL     1       7.086  -2.326  54.840  1.00  0.00     0.070 C 
BRANCH   7   8
HETATM    8  C   UNL     1       5.773  -2.311  54.055  1.00  0.00     0.127 C 
BRANCH   8   9
HETATM    9  C   UNL     1       5.557  -0.923  53.449  1.00  0.00     0.076 C 
BRANCH   9  10
HETATM   10  C   UNL     1       5.842  -0.970  51.971  1.00  0.00     0.011 A 
HETATM   11  C   UNL     1       7.089  -0.596  51.492  1.00  0.00     0.077 A 
HETATM   12  C   UNL     1       7.352  -0.639  50.131  1.00  0.00     0.073 A 
HETATM   13  C   UNL     1       6.367  -1.057  49.248  1.00  0.00     0.071 A 
HETATM   14  C   UNL     1       5.121  -1.432  49.727  1.00  0.00     0.073 A 
HETATM   15  C   UNL     1       4.860  -1.393  51.088  1.00  0.00     0.077 A 
BRANCH  11  16
HETATM   16  O   UNL     1       8.053  -0.186  52.358  1.00  0.00    -0.360 OA
HETATM   17  H   UNL     1       8.931  -0.498  52.263  1.00  0.00     0.217 HD
ENDBRANCH  11  16
BRANCH  13  18
HETATM   18  O   UNL     1       6.624  -1.099  47.915  1.00  0.00    -0.361 OA
HETATM   19  H   UNL     1       5.934  -0.947  47.300  1.00  0.00     0.217 HD
ENDBRANCH  13  18
BRANCH  15  20
HETATM   20  O   UNL     1       3.638  -1.760  51.556  1.00  0.00    -0.360 OA
HETATM   21  H   UNL     1       3.153  -2.434  51.122  1.00  0.00     0.217 HD
ENDBRANCH  15  20
ENDBRANCH   9  10
ENDBRANCH   8   9
BRANCH   8  22
HETATM   22  O   UNL     1       5.833  -3.283  53.009  1.00  0.00    -0.395 OA
HETATM   23  H   UNL     1       6.286  -4.078  53.332  1.00  0.00     0.210 HD
ENDBRANCH   8  22
ENDBRANCH   7   8
ENDBRANCH   3   7
BRANCH   5  24
HETATM   24  O   UNL     1       8.464  -3.018  59.471  1.00  0.00    -0.361 OA
HETATM   25  H   UNL     1       8.824  -3.754  59.925  1.00  0.00     0.217 HD
ENDBRANCH   5  24
TORSDOF 9
ENDMDL
MODEL 9
REMARK VINA RESULT:      -6.4      2.149      6.442
REMARK  9 active torsions:
REMARK  status: ('A' for Active; 'I' for Inactive)
REMARK    1  A    between atoms: C_3  and  C_8 
REMARK    2  A    between atoms: C_5  and  O_7 
REMARK    3  A    between atoms: C_8  and  C_9 
REMARK    4  A    between atoms: C_9  and  C_10 
REMARK    5  A    between atoms: C_9  and  O_20 
REMARK    6  A    between atoms: C_10  and  C_11 
REMARK    7  A    between atoms: C_12  and  O_19 
REMARK    8  A    between atoms: C_14  and  O_18 
REMARK    9  A    between atoms: C_16  and  O_17 
ROOT
HETATM    1  C   UNL     1       7.655  -2.371  54.011  1.00  0.00     0.003 A 
HETATM    2  C   UNL     1       6.642  -3.198  54.457  1.00  0.00     0.007 A 
HETATM    3  C   UNL     1       5.326  -2.775  54.401  1.00  0.00    -0.053 A 
HETATM    4  C   UNL     1       5.023  -1.525  53.899  1.00  0.00     0.043 A 
HETATM    5  C   UNL     1       6.039  -0.693  53.451  1.00  0.00     0.066 A 
HETATM    6  C   UNL     1       7.357  -1.120  53.508  1.00  0.00     0.036 A 
ENDROOT
BRANCH   3   7
HETATM    7  C   UNL     1       4.224  -3.680  54.888  1.00  0.00     0.070 C 
BRANCH   7   8
HETATM    8  C   UNL     1       4.699  -4.445  56.125  1.00  0.00     0.127 C 
BRANCH   8   9
HETATM    9  C   UNL     1       4.500  -3.577  57.369  1.00  0.00     0.076 C 
BRANCH   9  10
HETATM   10  C   UNL     1       5.666  -3.764  58.304  1.00  0.00     0.011 A 
HETATM   11  C   UNL     1       5.688  -4.839  59.180  1.00  0.00     0.077 A 
HETATM   12  C   UNL     1       6.762  -5.011  60.041  1.00  0.00     0.073 A 
HETATM   13  C   UNL     1       7.814  -4.108  60.026  1.00  0.00     0.071 A 
HETATM   14  C   UNL     1       7.793  -3.034  59.149  1.00  0.00     0.073 A 
HETATM   15  C   UNL     1       6.722  -2.865  58.285  1.00  0.00     0.077 A 
BRANCH  11  16
HETATM   16  O   UNL     1       4.656  -5.723  59.195  1.00  0.00    -0.360 OA
HETATM   17  H   UNL     1       4.740  -6.549  58.761  1.00  0.00     0.217 HD
ENDBRANCH  11  16
BRANCH  13  18
HETATM   18  O   UNL     1       8.866  -4.276  60.870  1.00  0.00    -0.361 OA
HETATM   19  H   UNL     1       9.737  -4.318  60.528  1.00  0.00     0.217 HD
ENDBRANCH  13  18
BRANCH  15  20
HETATM   20  O   UNL     1       6.701  -1.811  57.426  1.00  0.00    -0.360 OA
HETATM   21  H   UNL     1       6.417  -0.970  57.724  1.00  0.00     0.217 HD
ENDBRANCH  15  20
ENDBRANCH   9  10
ENDBRANCH   8   9
BRANCH   8  22
HETATM   22  O   UNL     1       3.944  -5.650  56.259  1.00  0.00    -0.395 OA
HETATM   23  H   UNL     1       4.336  -6.203  56.953  1.00  0.00     0.210 HD
ENDBRANCH   8  22
ENDBRANCH   7   8
ENDBRANCH   3   7
BRANCH   5  24
HETATM   24  O   UNL     1       5.742   0.538  52.957  1.00  0.00    -0.361 OA
HETATM   25  H   UNL     1       6.097   0.810  52.133  1.00  0.00     0.217 HD
ENDBRANCH   5  24
TORSDOF 9
ENDMDL
