MODEL 1
REMARK VINA RESULT:      -6.1      0.000      0.000
REMARK  4 active torsions:
REMARK  status: ('A' for Active; 'I' for Inactive)
REMARK    1  A    between atoms: O_1  and  C_11 
REMARK    2  A    between atoms: C_4  and  C_5 
REMARK    3  A    between atoms: C_4  and  C_6 
REMARK    4  A    between atoms: C_6  and  C_12 
ROOT
ATOM      1  O   UNL A   1       6.085  -7.662  56.626  1.00  0.00    -0.361 OA
ATOM      2  H   UNL A   1       6.329  -7.485  57.513  1.00  0.00     0.217 HD
ENDROOT
BRANCH   1   3
ATOM      3  C   UNL A   1       5.043  -8.497  56.362  1.00  0.00     0.065 A 
ATOM      4  C   UNL A   1       4.333  -8.371  55.168  1.00  0.00     0.037 A 
ATOM      5  C   UNL A   1       3.265  -9.225  54.896  1.00  0.00     0.010 A 
ATOM      6  C   UNL A   1       2.905 -10.207  55.820  1.00  0.00    -0.058 A 
ATOM      7  C   UNL A   1       3.615 -10.333  57.014  1.00  0.00     0.010 A 
ATOM      8  C   UNL A   1       4.683  -9.479  57.286  1.00  0.00     0.037 A 
BRANCH   6   9
ATOM      9  C   UNL A   1       1.764 -11.121  55.530  1.00  0.00     0.049 C 
BRANCH   9  10
ATOM     10  C   UNL A   1       0.669 -10.486  54.665  1.00  0.00     0.117 C 
BRANCH  10  11
ATOM     11  C   UNL A   1      -0.690 -10.597  55.315  1.00  0.00     0.172 C 
ATOM     12  O   UNL A   1      -0.667 -10.302  56.639  1.00  0.00    -0.648 OA
ATOM     13  O   UNL A   1      -1.711 -10.896  54.711  1.00  0.00    -0.648 OA
ENDBRANCH  10  11
ENDBRANCH   9  10
ENDBRANCH   6   9
ENDBRANCH   1   3
TORSDOF 4
ENDMDL
MODEL 2
REMARK VINA RESULT:      -6.0      0.125      1.676
REMARK  4 active torsions:
REMARK  status: ('A' for Active; 'I' for Inactive)
REMARK    1  A    between atoms: O_1  and  C_11 
REMARK    2  A    between atoms: C_4  and  C_5 
REMARK    3  A    between atoms: C_4  and  C_6 
REMARK    4  A    between atoms: C_6  and  C_12 
ROOT
ATOM      1  O   UNL A   1       6.161  -7.673  56.637  1.00  0.00    -0.361 OA
ATOM      2  H   UNL A   1       6.049  -6.915  57.178  1.00  0.00     0.217 HD
ENDROOT
BRANCH   1   3
ATOM      3  C   UNL A   1       5.100  -8.483  56.374  1.00  0.00     0.065 A 
ATOM      4  C   UNL A   1       4.727  -9.465  57.291  1.00  0.00     0.037 A 
ATOM      5  C   UNL A   1       3.640 -10.296  57.022  1.00  0.00     0.010 A 
ATOM      6  C   UNL A   1       2.925 -10.146  55.833  1.00  0.00    -0.058 A 
ATOM      7  C   UNL A   1       3.298  -9.164  54.916  1.00  0.00     0.010 A 
ATOM      8  C   UNL A   1       4.384  -8.333  55.185  1.00  0.00     0.037 A 
BRANCH   6   9
ATOM      9  C   UNL A   1       1.763 -11.034  55.545  1.00  0.00     0.049 C 
BRANCH   9  10
ATOM     10  C   UNL A   1       0.632 -10.341  54.776  1.00  0.00     0.117 C 
BRANCH  10  11
ATOM     11  C   UNL A   1      -0.705 -10.543  55.447  1.00  0.00     0.172 C 
ATOM     12  O   UNL A   1      -1.648 -11.037  54.607  1.00  0.00    -0.648 OA
ATOM     13  O   UNL A   1      -0.914 -10.313  56.631  1.00  0.00    -0.648 OA
ENDBRANCH  10  11
ENDBRANCH   9  10
ENDBRANCH   6   9
ENDBRANCH   1   3
TORSDOF 4
ENDMDL
MODEL 3
REMARK VINA RESULT:      -5.9      1.493      1.560
REMARK  4 active torsions:
REMARK  status: ('A' for Active; 'I' for Inactive)
REMARK    1  A    between atoms: O_1  and  C_11 
REMARK    2  A    between atoms: C_4  and  C_5 
REMARK    3  A    between atoms: C_4  and  C_6 
REMARK    4  A    between atoms: C_6  and  C_12 
ROOT
ATOM      1  O   UNL A   1       6.352  -7.487  56.578  1.00  0.00    -0.361 OA
ATOM      2  H   UNL A   1       6.760  -7.019  55.876  1.00  0.00     0.217 HD
ENDROOT
BRANCH   1   3
ATOM      3  C   UNL A   1       5.098  -7.991  56.420  1.00  0.00     0.065 A 
ATOM      4  C   UNL A   1       4.117  -7.235  55.779  1.00  0.00     0.037 A 
ATOM      5  C   UNL A   1       2.831  -7.750  55.618  1.00  0.00     0.010 A 
ATOM      6  C   UNL A   1       2.525  -9.024  56.099  1.00  0.00    -0.058 A 
ATOM      7  C   UNL A   1       3.506  -9.780  56.739  1.00  0.00     0.010 A 
ATOM      8  C   UNL A   1       4.791  -9.265  56.901  1.00  0.00     0.037 A 
BRANCH   6   9
ATOM      9  C   UNL A   1       1.151  -9.575  55.926  1.00  0.00     0.049 C 
BRANCH   9  10
ATOM     10  C   UNL A   1       0.944 -10.312  54.598  1.00  0.00     0.117 C 
BRANCH  10  11
ATOM     11  C   UNL A   1       0.803 -11.802  54.803  1.00  0.00     0.172 C 
ATOM     12  O   UNL A   1       0.991 -12.177  56.092  1.00  0.00    -0.648 OA
ATOM     13  O   UNL A   1       0.522 -12.589  53.908  1.00  0.00    -0.648 OA
ENDBRANCH  10  11
ENDBRANCH   9  10
ENDBRANCH   6   9
ENDBRANCH   1   3
TORSDOF 4
ENDMDL
MODEL 4
REMARK VINA RESULT:      -5.9      3.091      4.767
REMARK  4 active torsions:
REMARK  status: ('A' for Active; 'I' for Inactive)
REMARK    1  A    between atoms: O_1  and  C_11 
REMARK    2  A    between atoms: C_4  and  C_5 
REMARK    3  A    between atoms: C_4  and  C_6 
REMARK    4  A    between atoms: C_6  and  C_12 
ROOT
ATOM      1  O   UNL A   1       4.519  -3.584  53.017  1.00  0.00    -0.361 OA
ATOM      2  H   UNL A   1       4.648  -3.631  52.090  1.00  0.00     0.217 HD
ENDROOT
BRANCH   1   3
ATOM      3  C   UNL A   1       4.074  -4.676  53.697  1.00  0.00     0.065 A 
ATOM      4  C   UNL A   1       3.656  -5.810  53.001  1.00  0.00     0.037 A 
ATOM      5  C   UNL A   1       3.199  -6.928  53.697  1.00  0.00     0.010 A 
ATOM      6  C   UNL A   1       3.160  -6.914  55.092  1.00  0.00    -0.058 A 
ATOM      7  C   UNL A   1       3.578  -5.780  55.788  1.00  0.00     0.010 A 
ATOM      8  C   UNL A   1       4.035  -4.662  55.092  1.00  0.00     0.037 A 
BRANCH   6   9
ATOM      9  C   UNL A   1       2.673  -8.110  55.836  1.00  0.00     0.049 C 
BRANCH   9  10
ATOM     10  C   UNL A   1       3.624  -9.310  55.768  1.00  0.00     0.117 C 
BRANCH  10  11
ATOM     11  C   UNL A   1       4.423  -9.461  57.041  1.00  0.00     0.172 C 
ATOM     12  O   UNL A   1       5.434  -8.562  57.139  1.00  0.00    -0.648 OA
ATOM     13  O   UNL A   1       4.173 -10.287  57.908  1.00  0.00    -0.648 OA
ENDBRANCH  10  11
ENDBRANCH   9  10
ENDBRANCH   6   9
ENDBRANCH   1   3
TORSDOF 4
ENDMDL
MODEL 5
REMARK VINA RESULT:      -5.9      3.071      4.912
REMARK  4 active torsions:
REMARK  status: ('A' for Active; 'I' for Inactive)
REMARK    1  A    between atoms: O_1  and  C_11 
REMARK    2  A    between atoms: C_4  and  C_5 
REMARK    3  A    between atoms: C_4  and  C_6 
REMARK    4  A    between atoms: C_6  and  C_12 
ROOT
ATOM      1  O   UNL A   1       4.506  -3.563  53.022  1.00  0.00    -0.361 OA
ATOM      2  H   UNL A   1       4.361  -2.708  53.377  1.00  0.00     0.217 HD
ENDROOT
BRANCH   1   3
ATOM      3  C   UNL A   1       4.058  -4.662  53.688  1.00  0.00     0.065 A 
ATOM      4  C   UNL A   1       3.865  -4.610  55.068  1.00  0.00     0.037 A 
ATOM      5  C   UNL A   1       3.406  -5.736  55.752  1.00  0.00     0.010 A 
ATOM      6  C   UNL A   1       3.140  -6.915  55.054  1.00  0.00    -0.058 A 
ATOM      7  C   UNL A   1       3.332  -6.966  53.674  1.00  0.00     0.010 A 
ATOM      8  C   UNL A   1       3.791  -5.841  52.990  1.00  0.00     0.037 A 
BRANCH   6   9
ATOM      9  C   UNL A   1       2.648  -8.118  55.785  1.00  0.00     0.049 C 
BRANCH   9  10
ATOM     10  C   UNL A   1       3.620  -9.303  55.746  1.00  0.00     0.117 C 
BRANCH  10  11
ATOM     11  C   UNL A   1       4.532  -9.316  56.950  1.00  0.00     0.172 C 
ATOM     12  O   UNL A   1       4.131 -10.190  57.906  1.00  0.00    -0.648 OA
ATOM     13  O   UNL A   1       5.542  -8.632  57.046  1.00  0.00    -0.648 OA
ENDBRANCH  10  11
ENDBRANCH   9  10
ENDBRANCH   6   9
ENDBRANCH   1   3
TORSDOF 4
ENDMDL
MODEL 6
REMARK VINA RESULT:      -5.8      2.994      4.028
REMARK  4 active torsions:
REMARK  status: ('A' for Active; 'I' for Inactive)
REMARK    1  A    between atoms: O_1  and  C_11 
REMARK    2  A    between atoms: C_4  and  C_5 
REMARK    3  A    between atoms: C_4  and  C_6 
REMARK    4  A    between atoms: C_6  and  C_12 
ROOT
ATOM      1  O   UNL A   1       4.769  -3.714  53.292  1.00  0.00    -0.361 OA
ATOM      2  H   UNL A   1       4.400  -3.416  52.484  1.00  0.00     0.217 HD
ENDROOT
BRANCH   1   3
ATOM      3  C   UNL A   1       4.244  -4.801  53.921  1.00  0.00     0.065 A 
ATOM      4  C   UNL A   1       4.450  -6.077  53.398  1.00  0.00     0.037 A 
ATOM      5  C   UNL A   1       3.911  -7.191  54.040  1.00  0.00     0.010 A 
ATOM      6  C   UNL A   1       3.164  -7.029  55.207  1.00  0.00    -0.058 A 
ATOM      7  C   UNL A   1       2.957  -5.753  55.730  1.00  0.00     0.010 A 
ATOM      8  C   UNL A   1       3.496  -4.639  55.088  1.00  0.00     0.037 A 
BRANCH   6   9
ATOM      9  C   UNL A   1       2.588  -8.220  55.894  1.00  0.00     0.049 C 
BRANCH   9  10
ATOM     10  C   UNL A   1       3.081  -9.557  55.330  1.00  0.00     0.117 C 
BRANCH  10  11
ATOM     11  C   UNL A   1       2.948 -10.672  56.341  1.00  0.00     0.172 C 
ATOM     12  O   UNL A   1       3.846 -10.576  57.353  1.00  0.00    -0.648 OA
ATOM     13  O   UNL A   1       2.104 -11.555  56.273  1.00  0.00    -0.648 OA
ENDBRANCH  10  11
ENDBRANCH   9  10
ENDBRANCH   6   9
ENDBRANCH   1   3
TORSDOF 4
ENDMDL
MODEL 7
REMARK VINA RESULT:      -5.7      3.517      4.813
REMARK  4 active torsions:
REMARK  status: ('A' for Active; 'I' for Inactive)
REMARK    1  A    between atoms: O_1  and  C_11 
REMARK    2  A    between atoms: C_4  and  C_5 
REMARK    3  A    between atoms: C_4  and  C_6 
REMARK    4  A    between atoms: C_6  and  C_12 
ROOT
ATOM      1  O   UNL A   1       4.882 -11.659  58.390  1.00  0.00    -0.361 OA
ATOM      2  H   UNL A   1       4.252 -12.341  58.516  1.00  0.00     0.217 HD
ENDROOT
BRANCH   1   3
ATOM      3  C   UNL A   1       4.565 -10.570  57.638  1.00  0.00     0.065 A 
ATOM      4  C   UNL A   1       5.466  -9.511  57.529  1.00  0.00     0.037 A 
ATOM      5  C   UNL A   1       5.142  -8.395  56.759  1.00  0.00     0.010 A 
ATOM      6  C   UNL A   1       3.914  -8.336  56.098  1.00  0.00    -0.058 A 
ATOM      7  C   UNL A   1       3.013  -9.394  56.208  1.00  0.00     0.010 A 
ATOM      8  C   UNL A   1       3.338 -10.511  56.977  1.00  0.00     0.037 A 
BRANCH   6   9
ATOM      9  C   UNL A   1       3.567  -7.142  55.275  1.00  0.00     0.049 C 
BRANCH   9  10
ATOM     10  C   UNL A   1       3.634  -5.819  56.047  1.00  0.00     0.117 C 
BRANCH  10  11
ATOM     11  C   UNL A   1       3.140  -4.662  55.213  1.00  0.00     0.172 C 
ATOM     12  O   UNL A   1       3.908  -4.434  54.118  1.00  0.00    -0.648 OA
ATOM     13  O   UNL A   1       2.137  -4.012  55.477  1.00  0.00    -0.648 OA
ENDBRANCH  10  11
ENDBRANCH   9  10
ENDBRANCH   6   9
ENDBRANCH   1   3
TORSDOF 4
ENDMDL
MODEL 8
REMARK VINA RESULT:      -5.7      3.607      4.825
REMARK  4 active torsions:
REMARK  status: ('A' for Active; 'I' for Inactive)
REMARK    1  A    between atoms: O_1  and  C_11 
REMARK    2  A    between atoms: C_4  and  C_5 
REMARK    3  A    between atoms: C_4  and  C_6 
REMARK    4  A    between atoms: C_6  and  C_12 
ROOT
ATOM      1  O   UNL A   1       5.022 -11.853  58.562  1.00  0.00    -0.361 OA
ATOM      2  H   UNL A   1       4.717 -11.903  59.447  1.00  0.00     0.217 HD
ENDROOT
BRANCH   1   3
ATOM      3  C   UNL A   1       4.711 -10.772  57.796  1.00  0.00     0.065 A 
ATOM      4  C   UNL A   1       3.506 -10.736  57.097  1.00  0.00     0.037 A 
ATOM      5  C   UNL A   1       3.187  -9.629  56.311  1.00  0.00     0.010 A 
ATOM      6  C   UNL A   1       4.076  -8.556  56.224  1.00  0.00    -0.058 A 
ATOM      7  C   UNL A   1       5.282  -8.593  56.923  1.00  0.00     0.010 A 
ATOM      8  C   UNL A   1       5.600  -9.700  57.709  1.00  0.00     0.037 A 
BRANCH   6   9
ATOM      9  C   UNL A   1       3.736  -7.372  55.384  1.00  0.00     0.049 C 
BRANCH   9  10
ATOM     10  C   UNL A   1       4.011  -6.029  56.071  1.00  0.00     0.117 C 
BRANCH  10  11
ATOM     11  C   UNL A   1       3.600  -4.865  55.202  1.00  0.00     0.172 C 
ATOM     12  O   UNL A   1       2.444  -4.284  55.610  1.00  0.00    -0.648 OA
ATOM     13  O   UNL A   1       4.250  -4.466  54.245  1.00  0.00    -0.648 OA
ENDBRANCH  10  11
ENDBRANCH   9  10
ENDBRANCH   6   9
ENDBRANCH   1   3
TORSDOF 4
ENDMDL
MODEL 9
REMARK VINA RESULT:      -5.6      2.282      4.964
REMARK  4 active torsions:
REMARK  status: ('A' for Active; 'I' for Inactive)
REMARK    1  A    between atoms: O_1  and  C_11 
REMARK    2  A    between atoms: C_4  and  C_5 
REMARK    3  A    between atoms: C_4  and  C_6 
REMARK    4  A    between atoms: C_6  and  C_12 
ROOT
ATOM      1  O   UNL A   1       1.328 -12.180  55.955  1.00  0.00    -0.361 OA
ATOM      2  H   UNL A   1       1.725 -12.978  56.243  1.00  0.00     0.217 HD
ENDROOT
BRANCH   1   3
ATOM      3  C   UNL A   1       2.097 -11.078  55.738  1.00  0.00     0.065 A 
ATOM      4  C   UNL A   1       1.969 -10.360  54.550  1.00  0.00     0.037 A 
ATOM      5  C   UNL A   1       2.758  -9.232  54.326  1.00  0.00     0.010 A 
ATOM      6  C   UNL A   1       3.677  -8.821  55.293  1.00  0.00    -0.058 A 
ATOM      7  C   UNL A   1       3.805  -9.540  56.481  1.00  0.00     0.010 A 
ATOM      8  C   UNL A   1       3.017 -10.668  56.704  1.00  0.00     0.037 A 
BRANCH   6   9
ATOM      9  C   UNL A   1       4.520  -7.615  55.055  1.00  0.00     0.049 C 
BRANCH   9  10
ATOM     10  C   UNL A   1       4.402  -6.553  56.155  1.00  0.00     0.117 C 
BRANCH  10  11
ATOM     11  C   UNL A   1       3.721  -5.303  55.652  1.00  0.00     0.172 C 
ATOM     12  O   UNL A   1       4.334  -4.768  54.567  1.00  0.00    -0.648 OA
ATOM     13  O   UNL A   1       2.708  -4.832  56.151  1.00  0.00    -0.648 OA
ENDBRANCH  10  11
ENDBRANCH   9  10
ENDBRANCH   6   9
ENDBRANCH   1   3
TORSDOF 4
ENDMDL
