MODEL 1
REMARK VINA RESULT:      -6.1      0.000      0.000
REMARK  4 active torsions:
REMARK  status: ('A' for Active; 'I' for Inactive)
REMARK    1  A    between atoms: O_1  and  C_11 
REMARK    2  A    between atoms: C_4  and  C_5 
REMARK    3  A    between atoms: C_4  and  C_6 
REMARK    4  A    between atoms: C_6  and  C_12 
ROOT
ATOM      1  O   UNL A   1       6.099  -7.621  56.651  1.00  0.00    -0.361 OA
ATOM      2  H   UNL A   1       6.269  -6.914  56.060  1.00  0.00     0.217 HD
ENDROOT
BRANCH   1   3
ATOM      3  C   UNL A   1       5.070  -8.478  56.408  1.00  0.00     0.065 A 
ATOM      4  C   UNL A   1       4.725  -9.440  57.357  1.00  0.00     0.037 A 
ATOM      5  C   UNL A   1       3.672 -10.319  57.108  1.00  0.00     0.010 A 
ATOM      6  C   UNL A   1       2.962 -10.237  55.910  1.00  0.00    -0.058 A 
ATOM      7  C   UNL A   1       3.307  -9.274  54.961  1.00  0.00     0.010 A 
ATOM      8  C   UNL A   1       4.361  -8.395  55.209  1.00  0.00     0.037 A 
BRANCH   6   9
ATOM      9  C   UNL A   1       1.835 -11.176  55.644  1.00  0.00     0.049 C 
BRANCH   9  10
ATOM     10  C   UNL A   1       0.727 -10.579  54.768  1.00  0.00     0.117 C 
BRANCH  10  11
ATOM     11  C   UNL A   1      -0.604 -10.571  55.482  1.00  0.00     0.172 C 
ATOM     12  O   UNL A   1      -1.639 -10.903  54.670  1.00  0.00    -0.648 OA
ATOM     13  O   UNL A   1      -0.737 -10.320  56.672  1.00  0.00    -0.648 OA
ENDBRANCH  10  11
ENDBRANCH   9  10
ENDBRANCH   6   9
ENDBRANCH   1   3
TORSDOF 4
ENDMDL
MODEL 2
REMARK VINA RESULT:      -6.0      0.150      1.681
REMARK  4 active torsions:
REMARK  status: ('A' for Active; 'I' for Inactive)
REMARK    1  A    between atoms: O_1  and  C_11 
REMARK    2  A    between atoms: C_4  and  C_5 
REMARK    3  A    between atoms: C_4  and  C_6 
REMARK    4  A    between atoms: C_6  and  C_12 
ROOT
ATOM      1  O   UNL A   1       6.189  -7.683  56.631  1.00  0.00    -0.361 OA
ATOM      2  H   UNL A   1       6.098  -6.974  57.236  1.00  0.00     0.217 HD
ENDROOT
BRANCH   1   3
ATOM      3  C   UNL A   1       5.126  -8.489  56.363  1.00  0.00     0.065 A 
ATOM      4  C   UNL A   1       4.434  -8.354  55.159  1.00  0.00     0.037 A 
ATOM      5  C   UNL A   1       3.344  -9.178  54.883  1.00  0.00     0.010 A 
ATOM      6  C   UNL A   1       2.943 -10.139  55.813  1.00  0.00    -0.058 A 
ATOM      7  C   UNL A   1       3.634 -10.274  57.017  1.00  0.00     0.010 A 
ATOM      8  C   UNL A   1       4.725  -9.450  57.292  1.00  0.00     0.037 A 
BRANCH   6   9
ATOM      9  C   UNL A   1       1.778 -11.021  55.519  1.00  0.00     0.049 C 
BRANCH   9  10
ATOM     10  C   UNL A   1       0.679 -10.338  54.696  1.00  0.00     0.117 C 
BRANCH  10  11
ATOM     11  C   UNL A   1      -0.693 -10.612  55.263  1.00  0.00     0.172 C 
ATOM     12  O   UNL A   1      -0.780 -10.340  56.589  1.00  0.00    -0.648 OA
ATOM     13  O   UNL A   1      -1.639 -11.012  54.597  1.00  0.00    -0.648 OA
ENDBRANCH  10  11
ENDBRANCH   9  10
ENDBRANCH   6   9
ENDBRANCH   1   3
TORSDOF 4
ENDMDL
MODEL 3
REMARK VINA RESULT:      -5.9      3.107      4.721
REMARK  4 active torsions:
REMARK  status: ('A' for Active; 'I' for Inactive)
REMARK    1  A    between atoms: O_1  and  C_11 
REMARK    2  A    between atoms: C_4  and  C_5 
REMARK    3  A    between atoms: C_4  and  C_6 
REMARK    4  A    between atoms: C_6  and  C_12 
ROOT
ATOM      1  O   UNL A   1       4.512  -3.674  53.163  1.00  0.00    -0.361 OA
ATOM      2  H   UNL A   1       3.929  -2.963  52.985  1.00  0.00     0.217 HD
ENDROOT
BRANCH   1   3
ATOM      3  C   UNL A   1       4.059  -4.777  53.820  1.00  0.00     0.065 A 
ATOM      4  C   UNL A   1       3.768  -4.707  55.182  1.00  0.00     0.037 A 
ATOM      5  C   UNL A   1       3.305  -5.836  55.857  1.00  0.00     0.010 A 
ATOM      6  C   UNL A   1       3.133  -7.038  55.169  1.00  0.00    -0.058 A 
ATOM      7  C   UNL A   1       3.424  -7.108  53.807  1.00  0.00     0.010 A 
ATOM      8  C   UNL A   1       3.887  -5.978  53.132  1.00  0.00     0.037 A 
BRANCH   6   9
ATOM      9  C   UNL A   1       2.638  -8.245  55.889  1.00  0.00     0.049 C 
BRANCH   9  10
ATOM     10  C   UNL A   1       3.613  -9.427  55.857  1.00  0.00     0.117 C 
BRANCH  10  11
ATOM     11  C   UNL A   1       4.562  -9.399  57.031  1.00  0.00     0.172 C 
ATOM     12  O   UNL A   1       4.369 -10.430  57.890  1.00  0.00    -0.648 OA
ATOM     13  O   UNL A   1       5.433  -8.552  57.183  1.00  0.00    -0.648 OA
ENDBRANCH  10  11
ENDBRANCH   9  10
ENDBRANCH   6   9
ENDBRANCH   1   3
TORSDOF 4
ENDMDL
MODEL 4
REMARK VINA RESULT:      -5.9      3.131      4.825
REMARK  4 active torsions:
REMARK  status: ('A' for Active; 'I' for Inactive)
REMARK    1  A    between atoms: O_1  and  C_11 
REMARK    2  A    between atoms: C_4  and  C_5 
REMARK    3  A    between atoms: C_4  and  C_6 
REMARK    4  A    between atoms: C_6  and  C_12 
ROOT
ATOM      1  O   UNL A   1       4.522  -3.676  53.179  1.00  0.00    -0.361 OA
ATOM      2  H   UNL A   1       3.910  -3.081  52.793  1.00  0.00     0.217 HD
ENDROOT
BRANCH   1   3
ATOM      3  C   UNL A   1       4.074  -4.767  53.858  1.00  0.00     0.065 A 
ATOM      4  C   UNL A   1       3.848  -5.965  53.181  1.00  0.00     0.037 A 
ATOM      5  C   UNL A   1       3.388  -7.084  53.875  1.00  0.00     0.010 A 
ATOM      6  C   UNL A   1       3.151  -7.004  55.248  1.00  0.00    -0.058 A 
ATOM      7  C   UNL A   1       3.377  -5.805  55.925  1.00  0.00     0.010 A 
ATOM      8  C   UNL A   1       3.837  -4.687  55.231  1.00  0.00     0.037 A 
BRANCH   6   9
ATOM      9  C   UNL A   1       2.660  -8.199  55.991  1.00  0.00     0.049 C 
BRANCH   9  10
ATOM     10  C   UNL A   1       3.593  -9.412  55.896  1.00  0.00     0.117 C 
BRANCH  10  11
ATOM     11  C   UNL A   1       4.564  -9.459  57.051  1.00  0.00     0.172 C 
ATOM     12  O   UNL A   1       4.422 -10.571  57.815  1.00  0.00    -0.648 OA
ATOM     13  O   UNL A   1       5.410  -8.601  57.265  1.00  0.00    -0.648 OA
ENDBRANCH  10  11
ENDBRANCH   9  10
ENDBRANCH   6   9
ENDBRANCH   1   3
TORSDOF 4
ENDMDL
MODEL 5
REMARK VINA RESULT:      -5.8      3.088      4.164
REMARK  4 active torsions:
REMARK  status: ('A' for Active; 'I' for Inactive)
REMARK    1  A    between atoms: O_1  and  C_11 
REMARK    2  A    between atoms: C_4  and  C_5 
REMARK    3  A    between atoms: C_4  and  C_6 
REMARK    4  A    between atoms: C_6  and  C_12 
ROOT
ATOM      1  O   UNL A   1       4.563  -3.660  53.157  1.00  0.00    -0.361 OA
ATOM      2  H   UNL A   1       4.700  -3.658  52.230  1.00  0.00     0.217 HD
ENDROOT
BRANCH   1   3
ATOM      3  C   UNL A   1       4.047  -4.762  53.766  1.00  0.00     0.065 A 
ATOM      4  C   UNL A   1       3.876  -4.779  55.150  1.00  0.00     0.037 A 
ATOM      5  C   UNL A   1       3.348  -5.908  55.775  1.00  0.00     0.010 A 
ATOM      6  C   UNL A   1       2.991  -7.023  55.015  1.00  0.00    -0.058 A 
ATOM      7  C   UNL A   1       3.162  -7.006  53.631  1.00  0.00     0.010 A 
ATOM      8  C   UNL A   1       3.690  -5.877  53.006  1.00  0.00     0.037 A 
BRANCH   6   9
ATOM      9  C   UNL A   1       2.426  -8.231  55.682  1.00  0.00     0.049 C 
BRANCH   9  10
ATOM     10  C   UNL A   1       3.147  -9.533  55.316  1.00  0.00     0.117 C 
BRANCH  10  11
ATOM     11  C   UNL A   1       2.984 -10.582  56.389  1.00  0.00     0.172 C 
ATOM     12  O   UNL A   1       3.790 -10.371  57.460  1.00  0.00    -0.648 OA
ATOM     13  O   UNL A   1       2.190 -11.511  56.319  1.00  0.00    -0.648 OA
ENDBRANCH  10  11
ENDBRANCH   9  10
ENDBRANCH   6   9
ENDBRANCH   1   3
TORSDOF 4
ENDMDL
MODEL 6
REMARK VINA RESULT:      -5.8      3.082      4.121
REMARK  4 active torsions:
REMARK  status: ('A' for Active; 'I' for Inactive)
REMARK    1  A    between atoms: O_1  and  C_11 
REMARK    2  A    between atoms: C_4  and  C_5 
REMARK    3  A    between atoms: C_4  and  C_6 
REMARK    4  A    between atoms: C_6  and  C_12 
ROOT
ATOM      1  O   UNL A   1       4.509  -3.728  53.121  1.00  0.00    -0.361 OA
ATOM      2  H   UNL A   1       5.189  -3.188  53.472  1.00  0.00     0.217 HD
ENDROOT
BRANCH   1   3
ATOM      3  C   UNL A   1       4.069  -4.808  53.822  1.00  0.00     0.065 A 
ATOM      4  C   UNL A   1       3.978  -6.053  53.201  1.00  0.00     0.037 A 
ATOM      5  C   UNL A   1       3.526  -7.161  53.918  1.00  0.00     0.010 A 
ATOM      6  C   UNL A   1       3.165  -7.023  55.259  1.00  0.00    -0.058 A 
ATOM      7  C   UNL A   1       3.256  -5.778  55.880  1.00  0.00     0.010 A 
ATOM      8  C   UNL A   1       3.707  -4.670  55.163  1.00  0.00     0.037 A 
BRANCH   6   9
ATOM      9  C   UNL A   1       2.683  -8.206  56.027  1.00  0.00     0.049 C 
BRANCH   9  10
ATOM     10  C   UNL A   1       2.672  -9.507  55.215  1.00  0.00     0.117 C 
BRANCH  10  11
ATOM     11  C   UNL A   1       2.534 -10.718  56.105  1.00  0.00     0.172 C 
ATOM     12  O   UNL A   1       3.336 -10.665  57.197  1.00  0.00    -0.648 OA
ATOM     13  O   UNL A   1       1.762 -11.642  55.883  1.00  0.00    -0.648 OA
ENDBRANCH  10  11
ENDBRANCH   9  10
ENDBRANCH   6   9
ENDBRANCH   1   3
TORSDOF 4
ENDMDL
MODEL 7
REMARK VINA RESULT:      -5.8      0.862      1.766
REMARK  4 active torsions:
REMARK  status: ('A' for Active; 'I' for Inactive)
REMARK    1  A    between atoms: O_1  and  C_11 
REMARK    2  A    between atoms: C_4  and  C_5 
REMARK    3  A    between atoms: C_4  and  C_6 
REMARK    4  A    between atoms: C_6  and  C_12 
ROOT
ATOM      1  O   UNL A   1       6.234  -7.680  56.647  1.00  0.00    -0.361 OA
ATOM      2  H   UNL A   1       6.292  -7.218  57.460  1.00  0.00     0.217 HD
ENDROOT
BRANCH   1   3
ATOM      3  C   UNL A   1       5.169  -8.492  56.401  1.00  0.00     0.065 A 
ATOM      4  C   UNL A   1       4.453  -8.363  55.212  1.00  0.00     0.037 A 
ATOM      5  C   UNL A   1       3.362  -9.193  54.960  1.00  0.00     0.010 A 
ATOM      6  C   UNL A   1       2.986 -10.155  55.898  1.00  0.00    -0.058 A 
ATOM      7  C   UNL A   1       3.702 -10.285  57.088  1.00  0.00     0.010 A 
ATOM      8  C   UNL A   1       4.793  -9.454  57.340  1.00  0.00     0.037 A 
BRANCH   6   9
ATOM      9  C   UNL A   1       1.820 -11.044  55.629  1.00  0.00     0.049 C 
BRANCH   9  10
ATOM     10  C   UNL A   1       1.338 -11.006  54.174  1.00  0.00     0.117 C 
BRANCH  10  11
ATOM     11  C   UNL A   1      -0.135 -11.320  54.067  1.00  0.00     0.172 C 
ATOM     12  O   UNL A   1      -0.382 -12.469  53.390  1.00  0.00    -0.648 OA
ATOM     13  O   UNL A   1      -1.017 -10.628  54.559  1.00  0.00    -0.648 OA
ENDBRANCH  10  11
ENDBRANCH   9  10
ENDBRANCH   6   9
ENDBRANCH   1   3
TORSDOF 4
ENDMDL
MODEL 8
REMARK VINA RESULT:      -5.7      3.544      4.796
REMARK  4 active torsions:
REMARK  status: ('A' for Active; 'I' for Inactive)
REMARK    1  A    between atoms: O_1  and  C_11 
REMARK    2  A    between atoms: C_4  and  C_5 
REMARK    3  A    between atoms: C_4  and  C_6 
REMARK    4  A    between atoms: C_6  and  C_12 
ROOT
ATOM      1  O   UNL A   1       4.918 -11.680  58.417  1.00  0.00    -0.361 OA
ATOM      2  H   UNL A   1       5.770 -11.778  58.796  1.00  0.00     0.217 HD
ENDROOT
BRANCH   1   3
ATOM      3  C   UNL A   1       4.629 -10.578  57.673  1.00  0.00     0.065 A 
ATOM      4  C   UNL A   1       3.375 -10.449  57.075  1.00  0.00     0.037 A 
ATOM      5  C   UNL A   1       3.078  -9.321  56.312  1.00  0.00     0.010 A 
ATOM      6  C   UNL A   1       4.035  -8.319  56.145  1.00  0.00    -0.058 A 
ATOM      7  C   UNL A   1       5.288  -8.448  56.743  1.00  0.00     0.010 A 
ATOM      8  C   UNL A   1       5.586  -9.576  57.507  1.00  0.00     0.037 A 
BRANCH   6   9
ATOM      9  C   UNL A   1       3.718  -7.112  55.330  1.00  0.00     0.049 C 
BRANCH   9  10
ATOM     10  C   UNL A   1       3.642  -5.817  56.147  1.00  0.00     0.117 C 
BRANCH  10  11
ATOM     11  C   UNL A   1       3.121  -4.667  55.320  1.00  0.00     0.172 C 
ATOM     12  O   UNL A   1       3.849  -4.452  54.196  1.00  0.00    -0.648 OA
ATOM     13  O   UNL A   1       2.130  -4.010  55.615  1.00  0.00    -0.648 OA
ENDBRANCH  10  11
ENDBRANCH   9  10
ENDBRANCH   6   9
ENDBRANCH   1   3
TORSDOF 4
ENDMDL
MODEL 9
REMARK VINA RESULT:      -5.6      2.935      3.699
REMARK  4 active torsions:
REMARK  status: ('A' for Active; 'I' for Inactive)
REMARK    1  A    between atoms: O_1  and  C_11 
REMARK    2  A    between atoms: C_4  and  C_5 
REMARK    3  A    between atoms: C_4  and  C_6 
REMARK    4  A    between atoms: C_6  and  C_12 
ROOT
ATOM      1  O   UNL A   1       4.698  -3.744  53.335  1.00  0.00    -0.361 OA
ATOM      2  H   UNL A   1       5.556  -3.447  53.566  1.00  0.00     0.217 HD
ENDROOT
BRANCH   1   3
ATOM      3  C   UNL A   1       4.171  -4.840  53.946  1.00  0.00     0.065 A 
ATOM      4  C   UNL A   1       3.964  -4.838  55.325  1.00  0.00     0.037 A 
ATOM      5  C   UNL A   1       3.425  -5.961  55.952  1.00  0.00     0.010 A 
ATOM      6  C   UNL A   1       3.093  -7.088  55.199  1.00  0.00    -0.058 A 
ATOM      7  C   UNL A   1       3.301  -7.090  53.820  1.00  0.00     0.010 A 
ATOM      8  C   UNL A   1       3.839  -5.968  53.193  1.00  0.00     0.037 A 
BRANCH   6   9
ATOM      9  C   UNL A   1       2.516  -8.289  55.869  1.00  0.00     0.049 C 
BRANCH   9  10
ATOM     10  C   UNL A   1       3.165  -9.609  55.436  1.00  0.00     0.117 C 
BRANCH  10  11
ATOM     11  C   UNL A   1       2.138 -10.699  55.247  1.00  0.00     0.172 C 
ATOM     12  O   UNL A   1       1.636 -10.737  53.988  1.00  0.00    -0.648 OA
ATOM     13  O   UNL A   1       1.809 -11.485  56.126  1.00  0.00    -0.648 OA
ENDBRANCH  10  11
ENDBRANCH   9  10
ENDBRANCH   6   9
ENDBRANCH   1   3
TORSDOF 4
ENDMDL
