MODEL 1
REMARK VINA RESULT:      -7.1      0.000      0.000
REMARK  3 active torsions:
REMARK  status: ('A' for Active; 'I' for Inactive)
REMARK    1  A    between atoms: O_5  and  C_15 
REMARK    2  A    between atoms: N_8  and  C_16 
REMARK    3  A    between atoms: N_12  and  C_21 
ROOT
HETATM    1  P   UNL     1     -48.278  39.583   7.969  1.00  0.00     0.408 P 
HETATM    2  O   UNL     1     -50.823  43.040   8.484  1.00  0.00    -0.353 OA
HETATM    3  O   UNL     1     -49.672  39.912   7.196  1.00  0.00    -0.279 OA
HETATM    4  O   UNL     1     -48.300  40.482   9.322  1.00  0.00    -0.287 OA
HETATM    5  O   UNL     1     -47.138  40.282   7.055  1.00  0.00    -0.624 OA
HETATM    6  O   UNL     1     -48.039  38.120   8.209  1.00  0.00    -0.624 OA
HETATM    7  C   UNL     1     -50.065  41.266   7.193  1.00  0.00     0.198 C 
HETATM    8  C   UNL     1     -50.177  41.775   8.614  1.00  0.00     0.180 C 
HETATM    9  C   UNL     1     -51.445  41.581   6.662  1.00  0.00     0.199 C 
HETATM   10  C   UNL     1     -51.745  42.918   7.367  1.00  0.00     0.262 C 
HETATM   11  C   UNL     1     -48.812  41.814   9.271  1.00  0.00     0.216 C 
ENDROOT
BRANCH   9  12
HETATM   12  O   UNL     1     -52.375  40.596   7.102  1.00  0.00    -0.388 OA
HETATM   13  H   UNL     1     -52.780  40.882   7.936  1.00  0.00     0.210 HD
ENDBRANCH   9  12
BRANCH  10  14
HETATM   14  N   UNL     1     -51.608  44.083   6.492  1.00  0.00    -0.294 N 
HETATM   15  C   UNL     1     -51.641  45.396   6.866  1.00  0.00     0.167 A 
HETATM   16  N   UNL     1     -51.802  45.891   8.102  1.00  0.00    -0.222 NA
HETATM   17  C   UNL     1     -51.471  46.112   5.692  1.00  0.00     0.149 A 
HETATM   18  C   UNL     1     -51.780  47.242   8.077  1.00  0.00     0.237 A 
HETATM   19  N   UNL     1     -51.624  48.070   7.015  1.00  0.00    -0.222 NA
HETATM   20  C   UNL     1     -51.466  47.500   5.797  1.00  0.00     0.155 A 
HETATM   21  N   UNL     1     -51.337  45.265   4.621  1.00  0.00    -0.236 NA
HETATM   22  C   UNL     1     -51.423  44.055   5.134  1.00  0.00     0.214 A 
BRANCH  20  23
HETATM   23  N   UNL     1     -51.301  48.305   4.656  1.00  0.00    -0.382 N 
HETATM   24  H   UNL     1     -52.015  48.351   3.978  1.00  0.00     0.157 HD
HETATM   25  H   UNL     1     -50.473  48.823   4.534  1.00  0.00     0.157 HD
ENDBRANCH  20  23
ENDBRANCH  10  14
TORSDOF 3
ENDMDL
MODEL 2
REMARK VINA RESULT:      -7.0      4.703      7.156
REMARK  3 active torsions:
REMARK  status: ('A' for Active; 'I' for Inactive)
REMARK    1  A    between atoms: O_5  and  C_15 
REMARK    2  A    between atoms: N_8  and  C_16 
REMARK    3  A    between atoms: N_12  and  C_21 
ROOT
HETATM    1  P   UNL     1     -53.837  49.597  10.421  1.00  0.00     0.408 P 
HETATM    2  O   UNL     1     -54.080  45.478   9.125  1.00  0.00    -0.353 OA
HETATM    3  O   UNL     1     -52.641  48.493  10.394  1.00  0.00    -0.279 OA
HETATM    4  O   UNL     1     -55.222  48.747  10.400  1.00  0.00    -0.287 OA
HETATM    5  O   UNL     1     -53.780  50.286   8.957  1.00  0.00    -0.624 OA
HETATM    6  O   UNL     1     -53.739  50.581  11.551  1.00  0.00    -0.624 OA
HETATM    7  C   UNL     1     -52.838  47.398   9.528  1.00  0.00     0.198 C 
HETATM    8  C   UNL     1     -54.130  46.690   9.876  1.00  0.00     0.180 C 
HETATM    9  C   UNL     1     -51.849  46.259   9.623  1.00  0.00     0.199 C 
HETATM   10  C   UNL     1     -52.681  45.085   9.073  1.00  0.00     0.262 C 
HETATM   11  C   UNL     1     -55.318  47.582   9.578  1.00  0.00     0.216 C 
ENDROOT
BRANCH   9  12
HETATM   12  O   UNL     1     -51.520  46.007  10.986  1.00  0.00    -0.388 OA
HETATM   13  H   UNL     1     -50.580  46.199  11.133  1.00  0.00     0.210 HD
ENDBRANCH   9  12
BRANCH  10  14
HETATM   14  N   UNL     1     -52.330  44.712   7.702  1.00  0.00    -0.294 N 
HETATM   15  C   UNL     1     -51.646  43.598   7.306  1.00  0.00     0.167 A 
HETATM   16  N   UNL     1     -51.158  42.619   8.082  1.00  0.00    -0.222 NA
HETATM   17  C   UNL     1     -51.565  43.693   5.926  1.00  0.00     0.149 A 
HETATM   18  C   UNL     1     -50.541  41.682   7.329  1.00  0.00     0.237 A 
HETATM   19  N   UNL     1     -50.384  41.642   5.984  1.00  0.00    -0.222 NA
HETATM   20  C   UNL     1     -50.903  42.664   5.262  1.00  0.00     0.155 A 
HETATM   21  N   UNL     1     -52.182  44.835   5.481  1.00  0.00    -0.236 NA
HETATM   22  C   UNL     1     -52.631  45.423   6.570  1.00  0.00     0.214 A 
BRANCH  20  23
HETATM   23  N   UNL     1     -50.772  42.681   3.863  1.00  0.00    -0.382 N 
HETATM   24  H   UNL     1     -50.064  42.153   3.428  1.00  0.00     0.157 HD
HETATM   25  H   UNL     1     -51.390  43.220   3.317  1.00  0.00     0.157 HD
ENDBRANCH  20  23
ENDBRANCH  10  14
TORSDOF 3
ENDMDL
MODEL 3
REMARK VINA RESULT:      -6.9      5.312      7.589
REMARK  3 active torsions:
REMARK  status: ('A' for Active; 'I' for Inactive)
REMARK    1  A    between atoms: O_5  and  C_15 
REMARK    2  A    between atoms: N_8  and  C_16 
REMARK    3  A    between atoms: N_12  and  C_21 
ROOT
HETATM    1  P   UNL     1     -52.756  45.422   6.820  1.00  0.00     0.408 P 
HETATM    2  O   UNL     1     -54.846  47.416  10.039  1.00  0.00    -0.353 OA
HETATM    3  O   UNL     1     -52.644  46.986   7.257  1.00  0.00    -0.279 OA
HETATM    4  O   UNL     1     -54.164  44.891   7.436  1.00  0.00    -0.287 OA
HETATM    5  O   UNL     1     -51.633  44.674   7.716  1.00  0.00    -0.624 OA
HETATM    6  O   UNL     1     -52.604  45.182   5.346  1.00  0.00    -0.624 OA
HETATM    7  C   UNL     1     -53.049  47.285   8.573  1.00  0.00     0.198 C 
HETATM    8  C   UNL     1     -54.477  46.831   8.791  1.00  0.00     0.180 C 
HETATM    9  C   UNL     1     -53.149  48.746   8.948  1.00  0.00     0.199 C 
HETATM   10  C   UNL     1     -54.157  48.694  10.112  1.00  0.00     0.262 C 
HETATM   11  C   UNL     1     -54.565  45.320   8.738  1.00  0.00     0.216 C 
ENDROOT
BRANCH   9  12
HETATM   12  O   UNL     1     -53.709  49.491   7.871  1.00  0.00    -0.388 OA
HETATM   13  H   UNL     1     -53.339  49.174   7.032  1.00  0.00     0.210 HD
ENDBRANCH   9  12
BRANCH  10  14
HETATM   14  N   UNL     1     -53.536  48.838  11.430  1.00  0.00    -0.294 N 
HETATM   15  C   UNL     1     -52.867  47.875  12.130  1.00  0.00     0.167 A 
HETATM   16  N   UNL     1     -52.638  46.606  11.762  1.00  0.00    -0.222 NA
HETATM   17  C   UNL     1     -52.473  48.491  13.307  1.00  0.00     0.149 A 
HETATM   18  C   UNL     1     -51.941  45.954  12.719  1.00  0.00     0.237 A 
HETATM   19  N   UNL     1     -51.492  46.421  13.909  1.00  0.00    -0.222 NA
HETATM   20  C   UNL     1     -51.759  47.713  14.215  1.00  0.00     0.155 A 
HETATM   21  N   UNL     1     -52.886  49.799  13.334  1.00  0.00    -0.236 NA
HETATM   22  C   UNL     1     -53.520  49.976  12.193  1.00  0.00     0.214 A 
BRANCH  20  23
HETATM   23  N   UNL     1     -51.322  48.256  15.435  1.00  0.00    -0.382 N 
HETATM   24  H   UNL     1     -50.915  49.152  15.458  1.00  0.00     0.157 HD
HETATM   25  H   UNL     1     -51.422  47.740  16.268  1.00  0.00     0.157 HD
ENDBRANCH  20  23
ENDBRANCH  10  14
TORSDOF 3
ENDMDL
MODEL 4
REMARK VINA RESULT:      -6.8      2.712      3.659
REMARK  3 active torsions:
REMARK  status: ('A' for Active; 'I' for Inactive)
REMARK    1  A    between atoms: O_5  and  C_15 
REMARK    2  A    between atoms: N_8  and  C_16 
REMARK    3  A    between atoms: N_12  and  C_21 
ROOT
HETATM    1  P   UNL     1     -51.081  41.011   8.082  1.00  0.00     0.408 P 
HETATM    2  O   UNL     1     -51.950  44.646  10.258  1.00  0.00    -0.353 OA
HETATM    3  O   UNL     1     -52.519  41.758   8.231  1.00  0.00    -0.279 OA
HETATM    4  O   UNL     1     -50.172  41.553   9.317  1.00  0.00    -0.287 OA
HETATM    5  O   UNL     1     -50.408  41.691   6.775  1.00  0.00    -0.624 OA
HETATM    6  O   UNL     1     -51.171  39.514   8.000  1.00  0.00    -0.624 OA
HETATM    7  C   UNL     1     -52.467  43.122   8.584  1.00  0.00     0.198 C 
HETATM    8  C   UNL     1     -51.707  43.291   9.882  1.00  0.00     0.180 C 
HETATM    9  C   UNL     1     -53.777  43.795   8.925  1.00  0.00     0.199 C 
HETATM   10  C   UNL     1     -53.299  44.958   9.815  1.00  0.00     0.262 C 
HETATM   11  C   UNL     1     -50.248  42.929   9.691  1.00  0.00     0.216 C 
ENDROOT
BRANCH   9  12
HETATM   12  O   UNL     1     -54.594  42.917   9.693  1.00  0.00    -0.388 OA
HETATM   13  H   UNL     1     -55.223  43.437  10.219  1.00  0.00     0.210 HD
ENDBRANCH   9  12
BRANCH  10  14
HETATM   14  N   UNL     1     -53.301  46.254   9.134  1.00  0.00    -0.294 N 
HETATM   15  C   UNL     1     -53.327  47.487   9.721  1.00  0.00     0.167 A 
HETATM   16  N   UNL     1     -53.354  47.769  11.032  1.00  0.00    -0.222 NA
HETATM   17  C   UNL     1     -53.318  48.389   8.669  1.00  0.00     0.149 A 
HETATM   18  C   UNL     1     -53.375  49.106  11.227  1.00  0.00     0.237 A 
HETATM   19  N   UNL     1     -53.370  50.100  10.306  1.00  0.00    -0.222 NA
HETATM   20  C   UNL     1     -53.341  49.742   9.000  1.00  0.00     0.155 A 
HETATM   21  N   UNL     1     -53.287  47.732   7.465  1.00  0.00    -0.236 NA
HETATM   22  C   UNL     1     -53.277  46.453   7.779  1.00  0.00     0.214 A 
BRANCH  20  23
HETATM   23  N   UNL     1     -53.336  50.725   7.996  1.00  0.00    -0.382 N 
HETATM   24  H   UNL     1     -54.094  50.796   7.372  1.00  0.00     0.157 HD
HETATM   25  H   UNL     1     -52.574  51.344   7.917  1.00  0.00     0.157 HD
ENDBRANCH  20  23
ENDBRANCH  10  14
TORSDOF 3
ENDMDL
MODEL 5
REMARK VINA RESULT:      -6.6      4.598      7.068
REMARK  3 active torsions:
REMARK  status: ('A' for Active; 'I' for Inactive)
REMARK    1  A    between atoms: O_5  and  C_15 
REMARK    2  A    between atoms: N_8  and  C_16 
REMARK    3  A    between atoms: N_12  and  C_21 
ROOT
HETATM    1  P   UNL     1     -53.850  48.494   9.764  1.00  0.00     0.408 P 
HETATM    2  O   UNL     1     -52.341  45.435   7.108  1.00  0.00    -0.353 OA
HETATM    3  O   UNL     1     -54.349  46.949   9.645  1.00  0.00    -0.279 OA
HETATM    4  O   UNL     1     -53.089  48.821   8.366  1.00  0.00    -0.287 OA
HETATM    5  O   UNL     1     -52.656  48.447  10.857  1.00  0.00    -0.624 OA
HETATM    6  O   UNL     1     -54.940  49.468  10.110  1.00  0.00    -0.624 OA
HETATM    7  C   UNL     1     -53.432  46.053   9.062  1.00  0.00     0.198 C 
HETATM    8  C   UNL     1     -53.045  46.535   7.680  1.00  0.00     0.180 C 
HETATM    9  C   UNL     1     -53.932  44.660   8.752  1.00  0.00     0.199 C 
HETATM   10  C   UNL     1     -52.966  44.231   7.632  1.00  0.00     0.262 C 
HETATM   11  C   UNL     1     -52.254  47.825   7.773  1.00  0.00     0.216 C 
ENDROOT
BRANCH   9  12
HETATM   12  O   UNL     1     -55.258  44.719   8.237  1.00  0.00    -0.388 OA
HETATM   13  H   UNL     1     -55.886  44.451   8.927  1.00  0.00     0.210 HD
ENDBRANCH   9  12
BRANCH  10  14
HETATM   14  N   UNL     1     -51.929  43.298   8.078  1.00  0.00    -0.294 N 
HETATM   15  C   UNL     1     -51.112  42.543   7.287  1.00  0.00     0.167 A 
HETATM   16  N   UNL     1     -51.084  42.497   5.947  1.00  0.00    -0.222 NA
HETATM   17  C   UNL     1     -50.312  41.831   8.167  1.00  0.00     0.149 A 
HETATM   18  C   UNL     1     -50.137  41.631   5.523  1.00  0.00     0.237 A 
HETATM   19  N   UNL     1     -49.290  40.872   6.259  1.00  0.00    -0.222 NA
HETATM   20  C   UNL     1     -49.373  40.969   7.607  1.00  0.00     0.155 A 
HETATM   21  N   UNL     1     -50.627  42.138   9.467  1.00  0.00    -0.236 NA
HETATM   22  C   UNL     1     -51.600  43.021   9.379  1.00  0.00     0.214 A 
BRANCH  20  23
HETATM   23  N   UNL     1     -48.522  40.207   8.426  1.00  0.00    -0.382 N 
HETATM   24  H   UNL     1     -48.069  40.628   9.192  1.00  0.00     0.157 HD
HETATM   25  H   UNL     1     -48.380  39.252   8.234  1.00  0.00     0.157 HD
ENDBRANCH  20  23
ENDBRANCH  10  14
TORSDOF 3
ENDMDL
MODEL 6
REMARK VINA RESULT:      -6.5      4.651      6.784
REMARK  3 active torsions:
REMARK  status: ('A' for Active; 'I' for Inactive)
REMARK    1  A    between atoms: O_5  and  C_15 
REMARK    2  A    between atoms: N_8  and  C_16 
REMARK    3  A    between atoms: N_12  and  C_21 
ROOT
HETATM    1  P   UNL     1     -53.791  49.223   9.960  1.00  0.00     0.408 P 
HETATM    2  O   UNL     1     -53.913  44.931   9.445  1.00  0.00    -0.353 OA
HETATM    3  O   UNL     1     -52.623  48.147  10.317  1.00  0.00    -0.279 OA
HETATM    4  O   UNL     1     -55.172  48.370   9.896  1.00  0.00    -0.287 OA
HETATM    5  O   UNL     1     -53.508  49.623   8.416  1.00  0.00    -0.624 OA
HETATM    6  O   UNL     1     -53.842  50.405  10.885  1.00  0.00    -0.624 OA
HETATM    7  C   UNL     1     -52.710  46.906   9.656  1.00  0.00     0.198 C 
HETATM    8  C   UNL     1     -54.051  46.263   9.937  1.00  0.00     0.180 C 
HETATM    9  C   UNL     1     -51.766  45.816  10.109  1.00  0.00     0.199 C 
HETATM   10  C   UNL     1     -52.529  44.551   9.674  1.00  0.00     0.262 C 
HETATM   11  C   UNL     1     -55.167  47.070   9.304  1.00  0.00     0.216 C 
ENDROOT
BRANCH   9  12
HETATM   12  O   UNL     1     -51.645  45.831  11.528  1.00  0.00    -0.388 OA
HETATM   13  H   UNL     1     -51.496  44.928  11.850  1.00  0.00     0.210 HD
ENDBRANCH   9  12
BRANCH  10  14
HETATM   14  N   UNL     1     -51.988  43.927   8.465  1.00  0.00    -0.294 N 
HETATM   15  C   UNL     1     -52.144  44.362   7.180  1.00  0.00     0.167 A 
HETATM   16  N   UNL     1     -52.817  45.441   6.757  1.00  0.00    -0.222 NA
HETATM   17  C   UNL     1     -51.454  43.446   6.402  1.00  0.00     0.149 A 
HETATM   18  C   UNL     1     -52.747  45.545   5.411  1.00  0.00     0.237 A 
HETATM   19  N   UNL     1     -52.116  44.734   4.529  1.00  0.00    -0.222 NA
HETATM   20  C   UNL     1     -51.455  43.662   5.027  1.00  0.00     0.155 A 
HETATM   21  N   UNL     1     -50.887  42.472   7.185  1.00  0.00    -0.236 NA
HETATM   22  C   UNL     1     -51.225  42.790   8.417  1.00  0.00     0.214 A 
BRANCH  20  23
HETATM   23  N   UNL     1     -50.782  42.781   4.162  1.00  0.00    -0.382 N 
HETATM   24  H   UNL     1     -49.877  43.001   3.843  1.00  0.00     0.157 HD
HETATM   25  H   UNL     1     -51.215  41.945   3.876  1.00  0.00     0.157 HD
ENDBRANCH  20  23
ENDBRANCH  10  14
TORSDOF 3
ENDMDL
MODEL 7
REMARK VINA RESULT:      -6.4      2.529      3.643
REMARK  3 active torsions:
REMARK  status: ('A' for Active; 'I' for Inactive)
REMARK    1  A    between atoms: O_5  and  C_15 
REMARK    2  A    between atoms: N_8  and  C_16 
REMARK    3  A    between atoms: N_12  and  C_21 
ROOT
HETATM    1  P   UNL     1     -50.252  41.434   8.526  1.00  0.00     0.408 P 
HETATM    2  O   UNL     1     -53.581  44.176   8.208  1.00  0.00    -0.353 OA
HETATM    3  O   UNL     1     -50.562  42.483   7.320  1.00  0.00    -0.279 OA
HETATM    4  O   UNL     1     -51.668  41.214   9.293  1.00  0.00    -0.287 OA
HETATM    5  O   UNL     1     -49.365  42.284   9.580  1.00  0.00    -0.624 OA
HETATM    6  O   UNL     1     -49.594  40.160   8.078  1.00  0.00    -0.624 OA
HETATM    7  C   UNL     1     -51.415  43.557   7.646  1.00  0.00     0.198 C 
HETATM    8  C   UNL     1     -52.734  43.029   8.168  1.00  0.00     0.180 C 
HETATM    9  C   UNL     1     -51.883  44.435   6.509  1.00  0.00     0.199 C 
HETATM   10  C   UNL     1     -53.186  45.016   7.088  1.00  0.00     0.262 C 
HETATM   11  C   UNL     1     -52.536  42.330   9.498  1.00  0.00     0.216 C 
ENDROOT
BRANCH   9  12
HETATM   12  O   UNL     1     -52.187  43.638   5.368  1.00  0.00    -0.388 OA
HETATM   13  H   UNL     1     -52.404  44.215   4.619  1.00  0.00     0.210 HD
ENDBRANCH   9  12
BRANCH  10  14
HETATM   14  N   UNL     1     -53.058  46.403   7.540  1.00  0.00    -0.294 N 
HETATM   15  C   UNL     1     -53.887  47.063   8.401  1.00  0.00     0.167 A 
HETATM   16  N   UNL     1     -54.982  46.586   9.011  1.00  0.00    -0.222 NA
HETATM   17  C   UNL     1     -53.353  48.337   8.513  1.00  0.00     0.149 A 
HETATM   18  C   UNL     1     -55.541  47.538   9.790  1.00  0.00     0.237 A 
HETATM   19  N   UNL     1     -55.136  48.814   9.996  1.00  0.00    -0.222 NA
HETATM   20  C   UNL     1     -54.021  49.228   9.348  1.00  0.00     0.155 A 
HETATM   21  N   UNL     1     -52.225  48.460   7.742  1.00  0.00    -0.236 NA
HETATM   22  C   UNL     1     -52.074  47.283   7.172  1.00  0.00     0.214 A 
BRANCH  20  23
HETATM   23  N   UNL     1     -53.550  50.541   9.518  1.00  0.00    -0.382 N 
HETATM   24  H   UNL     1     -53.596  51.182   8.772  1.00  0.00     0.157 HD
HETATM   25  H   UNL     1     -53.174  50.821  10.384  1.00  0.00     0.157 HD
ENDBRANCH  20  23
ENDBRANCH  10  14
TORSDOF 3
ENDMDL
MODEL 8
REMARK VINA RESULT:      -6.4      4.976      6.399
REMARK  3 active torsions:
REMARK  status: ('A' for Active; 'I' for Inactive)
REMARK    1  A    between atoms: O_5  and  C_15 
REMARK    2  A    between atoms: N_8  and  C_16 
REMARK    3  A    between atoms: N_12  and  C_21 
ROOT
HETATM    1  P   UNL     1     -52.911  40.280  14.297  1.00  0.00     0.408 P 
HETATM    2  O   UNL     1     -53.095  43.411  11.320  1.00  0.00    -0.353 OA
HETATM    3  O   UNL     1     -51.722  41.301  13.856  1.00  0.00    -0.279 OA
HETATM    4  O   UNL     1     -53.974  40.283  13.067  1.00  0.00    -0.287 OA
HETATM    5  O   UNL     1     -53.688  41.059  15.485  1.00  0.00    -0.624 OA
HETATM    6  O   UNL     1     -52.433  38.912  14.690  1.00  0.00    -0.624 OA
HETATM    7  C   UNL     1     -52.139  42.490  13.225  1.00  0.00     0.198 C 
HETATM    8  C   UNL     1     -52.964  42.163  11.998  1.00  0.00     0.180 C 
HETATM    9  C   UNL     1     -51.062  43.364  12.624  1.00  0.00     0.199 C 
HETATM   10  C   UNL     1     -51.857  44.137  11.555  1.00  0.00     0.262 C 
HETATM   11  C   UNL     1     -54.272  41.510  12.401  1.00  0.00     0.216 C 
ENDROOT
BRANCH   9  12
HETATM   12  O   UNL     1     -50.075  42.559  11.988  1.00  0.00    -0.388 OA
HETATM   13  H   UNL     1     -50.498  41.993  11.323  1.00  0.00     0.210 HD
ENDBRANCH   9  12
BRANCH  10  14
HETATM   14  N   UNL     1     -52.166  45.516  11.938  1.00  0.00    -0.294 N 
HETATM   15  C   UNL     1     -52.520  46.538  11.104  1.00  0.00     0.167 A 
HETATM   16  N   UNL     1     -52.660  46.495   9.771  1.00  0.00    -0.222 NA
HETATM   17  C   UNL     1     -52.706  47.633  11.932  1.00  0.00     0.149 A 
HETATM   18  C   UNL     1     -53.022  47.707   9.295  1.00  0.00     0.237 A 
HETATM   19  N   UNL     1     -53.238  48.858   9.976  1.00  0.00    -0.222 NA
HETATM   20  C   UNL     1     -53.078  48.827  11.321  1.00  0.00     0.155 A 
HETATM   21  N   UNL     1     -52.473  47.298  13.242  1.00  0.00    -0.236 NA
HETATM   22  C   UNL     1     -52.152  46.021  13.212  1.00  0.00     0.214 A 
BRANCH  20  23
HETATM   23  N   UNL     1     -53.286  49.989  12.084  1.00  0.00    -0.382 N 
HETATM   24  H   UNL     1     -52.926  50.048  12.999  1.00  0.00     0.157 HD
HETATM   25  H   UNL     1     -53.792  50.744  11.705  1.00  0.00     0.157 HD
ENDBRANCH  20  23
ENDBRANCH  10  14
TORSDOF 3
ENDMDL
MODEL 9
REMARK VINA RESULT:      -6.3      5.581      7.112
REMARK  3 active torsions:
REMARK  status: ('A' for Active; 'I' for Inactive)
REMARK    1  A    between atoms: O_5  and  C_15 
REMARK    2  A    between atoms: N_8  and  C_16 
REMARK    3  A    between atoms: N_12  and  C_21 
ROOT
HETATM    1  P   UNL     1     -48.117  45.387  14.599  1.00  0.00     0.408 P 
HETATM    2  O   UNL     1     -52.262  46.460  13.996  1.00  0.00    -0.353 OA
HETATM    3  O   UNL     1     -48.957  45.357  13.205  1.00  0.00    -0.279 OA
HETATM    4  O   UNL     1     -49.228  45.361  15.784  1.00  0.00    -0.287 OA
HETATM    5  O   UNL     1     -47.508  46.886  14.668  1.00  0.00    -0.624 OA
HETATM    6  O   UNL     1     -47.075  44.312  14.712  1.00  0.00    -0.624 OA
HETATM    7  C   UNL     1     -50.113  46.161  13.169  1.00  0.00     0.198 C 
HETATM    8  C   UNL     1     -51.047  45.775  14.295  1.00  0.00     0.180 C 
HETATM    9  C   UNL     1     -51.023  46.007  11.972  1.00  0.00     0.199 C 
HETATM   10  C   UNL     1     -52.367  46.492  12.546  1.00  0.00     0.262 C 
HETATM   11  C   UNL     1     -50.430  46.119  15.636  1.00  0.00     0.216 C 
ENDROOT
BRANCH   9  12
HETATM   12  O   UNL     1     -51.131  44.633  11.613  1.00  0.00    -0.388 OA
HETATM   13  H   UNL     1     -51.367  44.561  10.674  1.00  0.00     0.210 HD
ENDBRANCH   9  12
BRANCH  10  14
HETATM   14  N   UNL     1     -52.735  47.842  12.113  1.00  0.00    -0.294 N 
HETATM   15  C   UNL     1     -53.029  48.242  10.841  1.00  0.00     0.167 A 
HETATM   16  N   UNL     1     -53.044  47.492   9.730  1.00  0.00    -0.222 NA
HETATM   17  C   UNL     1     -53.310  49.595  10.943  1.00  0.00     0.149 A 
HETATM   18  C   UNL     1     -53.382  48.242   8.658  1.00  0.00     0.237 A 
HETATM   19  N   UNL     1     -53.681  49.562   8.605  1.00  0.00    -0.222 NA
HETATM   20  C   UNL     1     -53.646  50.258   9.766  1.00  0.00     0.155 A 
HETATM   21  N   UNL     1     -53.193  50.019  12.243  1.00  0.00    -0.236 NA
HETATM   22  C   UNL     1     -52.848  48.944  12.920  1.00  0.00     0.214 A 
BRANCH  20  23
HETATM   23  N   UNL     1     -53.944  51.632   9.777  1.00  0.00    -0.382 N 
HETATM   24  H   UNL     1     -53.349  52.261  10.246  1.00  0.00     0.157 HD
HETATM   25  H   UNL     1     -54.748  51.965   9.316  1.00  0.00     0.157 HD
ENDBRANCH  20  23
ENDBRANCH  10  14
TORSDOF 3
ENDMDL
