MODEL 1
REMARK VINA RESULT:      -7.1      0.000      0.000
REMARK  3 active torsions:
REMARK  status: ('A' for Active; 'I' for Inactive)
REMARK    1  A    between atoms: O_5  and  C_15 
REMARK    2  A    between atoms: N_8  and  C_16 
REMARK    3  A    between atoms: N_12  and  C_21 
ROOT
HETATM    1  P   UNL     1     -48.276  39.583   7.971  1.00  0.00     0.408 P 
HETATM    2  O   UNL     1     -50.818  43.043   8.487  1.00  0.00    -0.353 OA
HETATM    3  O   UNL     1     -49.672  39.913   7.200  1.00  0.00    -0.279 OA
HETATM    4  O   UNL     1     -48.296  40.484   9.323  1.00  0.00    -0.287 OA
HETATM    5  O   UNL     1     -47.137  40.280   7.054  1.00  0.00    -0.624 OA
HETATM    6  O   UNL     1     -48.038  38.120   8.213  1.00  0.00    -0.624 OA
HETATM    7  C   UNL     1     -50.064  41.267   7.196  1.00  0.00     0.198 C 
HETATM    8  C   UNL     1     -50.173  41.778   8.617  1.00  0.00     0.180 C 
HETATM    9  C   UNL     1     -51.445  41.582   6.668  1.00  0.00     0.199 C 
HETATM   10  C   UNL     1     -51.742  42.920   7.371  1.00  0.00     0.262 C 
HETATM   11  C   UNL     1     -48.807  41.817   9.271  1.00  0.00     0.216 C 
ENDROOT
BRANCH   9  12
HETATM   12  O   UNL     1     -52.375  40.598   7.110  1.00  0.00    -0.388 OA
HETATM   13  H   UNL     1     -52.992  40.998   7.743  1.00  0.00     0.210 HD
ENDBRANCH   9  12
BRANCH  10  14
HETATM   14  N   UNL     1     -51.607  44.084   6.494  1.00  0.00    -0.294 N 
HETATM   15  C   UNL     1     -51.635  45.398   6.867  1.00  0.00     0.167 A 
HETATM   16  N   UNL     1     -51.790  45.894   8.103  1.00  0.00    -0.222 NA
HETATM   17  C   UNL     1     -51.468  46.112   5.691  1.00  0.00     0.149 A 
HETATM   18  C   UNL     1     -51.766  47.245   8.076  1.00  0.00     0.237 A 
HETATM   19  N   UNL     1     -51.612  48.071   7.013  1.00  0.00    -0.222 NA
HETATM   20  C   UNL     1     -51.460  47.500   5.794  1.00  0.00     0.155 A 
HETATM   21  N   UNL     1     -51.340  45.263   4.621  1.00  0.00    -0.236 NA
HETATM   22  C   UNL     1     -51.426  44.054   5.136  1.00  0.00     0.214 A 
BRANCH  20  23
HETATM   23  N   UNL     1     -51.298  48.303   4.652  1.00  0.00    -0.382 N 
HETATM   24  H   UNL     1     -51.792  49.151   4.572  1.00  0.00     0.157 HD
HETATM   25  H   UNL     1     -50.690  48.017   3.932  1.00  0.00     0.157 HD
ENDBRANCH  20  23
ENDBRANCH  10  14
TORSDOF 3
ENDMDL
MODEL 2
REMARK VINA RESULT:      -7.0      4.696      7.148
REMARK  3 active torsions:
REMARK  status: ('A' for Active; 'I' for Inactive)
REMARK    1  A    between atoms: O_5  and  C_15 
REMARK    2  A    between atoms: N_8  and  C_16 
REMARK    3  A    between atoms: N_12  and  C_21 
ROOT
HETATM    1  P   UNL     1     -53.828  49.580  10.425  1.00  0.00     0.408 P 
HETATM    2  O   UNL     1     -54.071  45.461   9.132  1.00  0.00    -0.353 OA
HETATM    3  O   UNL     1     -52.630  48.477  10.394  1.00  0.00    -0.279 OA
HETATM    4  O   UNL     1     -55.212  48.729  10.408  1.00  0.00    -0.287 OA
HETATM    5  O   UNL     1     -53.776  50.269   8.960  1.00  0.00    -0.624 OA
HETATM    6  O   UNL     1     -53.727  50.565  11.554  1.00  0.00    -0.624 OA
HETATM    7  C   UNL     1     -52.829  47.382   9.530  1.00  0.00     0.198 C 
HETATM    8  C   UNL     1     -54.119  46.673   9.883  1.00  0.00     0.180 C 
HETATM    9  C   UNL     1     -51.839  46.243   9.623  1.00  0.00     0.199 C 
HETATM   10  C   UNL     1     -52.672  45.069   9.076  1.00  0.00     0.262 C 
HETATM   11  C   UNL     1     -55.309  47.564   9.587  1.00  0.00     0.216 C 
ENDROOT
BRANCH   9  12
HETATM   12  O   UNL     1     -51.506  45.993  10.985  1.00  0.00    -0.388 OA
HETATM   13  H   UNL     1     -50.946  45.203  11.041  1.00  0.00     0.210 HD
ENDBRANCH   9  12
BRANCH  10  14
HETATM   14  N   UNL     1     -52.325  44.694   7.704  1.00  0.00    -0.294 N 
HETATM   15  C   UNL     1     -51.640  43.581   7.308  1.00  0.00     0.167 A 
HETATM   16  N   UNL     1     -51.146  42.605   8.083  1.00  0.00    -0.222 NA
HETATM   17  C   UNL     1     -51.563  43.675   5.927  1.00  0.00     0.149 A 
HETATM   18  C   UNL     1     -50.530  41.668   7.329  1.00  0.00     0.237 A 
HETATM   19  N   UNL     1     -50.377  41.627   5.983  1.00  0.00    -0.222 NA
HETATM   20  C   UNL     1     -50.901  42.647   5.263  1.00  0.00     0.155 A 
HETATM   21  N   UNL     1     -52.184  44.815   5.483  1.00  0.00    -0.236 NA
HETATM   22  C   UNL     1     -52.631  45.404   6.573  1.00  0.00     0.214 A 
BRANCH  20  23
HETATM   23  N   UNL     1     -50.775  42.662   3.863  1.00  0.00    -0.382 N 
HETATM   24  H   UNL     1     -50.895  41.831   3.348  1.00  0.00     0.157 HD
HETATM   25  H   UNL     1     -50.568  43.504   3.396  1.00  0.00     0.157 HD
ENDBRANCH  20  23
ENDBRANCH  10  14
TORSDOF 3
ENDMDL
MODEL 3
REMARK VINA RESULT:      -7.0      5.325      7.598
REMARK  3 active torsions:
REMARK  status: ('A' for Active; 'I' for Inactive)
REMARK    1  A    between atoms: O_5  and  C_15 
REMARK    2  A    between atoms: N_8  and  C_16 
REMARK    3  A    between atoms: N_12  and  C_21 
ROOT
HETATM    1  P   UNL     1     -52.779  45.421   6.828  1.00  0.00     0.408 P 
HETATM    2  O   UNL     1     -54.851  47.430  10.049  1.00  0.00    -0.353 OA
HETATM    3  O   UNL     1     -52.660  46.986   7.261  1.00  0.00    -0.279 OA
HETATM    4  O   UNL     1     -54.187  44.897   7.450  1.00  0.00    -0.287 OA
HETATM    5  O   UNL     1     -51.656  44.671   7.722  1.00  0.00    -0.624 OA
HETATM    6  O   UNL     1     -52.633  45.177   5.354  1.00  0.00    -0.624 OA
HETATM    7  C   UNL     1     -53.060  47.289   8.578  1.00  0.00     0.198 C 
HETATM    8  C   UNL     1     -54.489  46.841   8.801  1.00  0.00     0.180 C 
HETATM    9  C   UNL     1     -53.153  48.751   8.950  1.00  0.00     0.199 C 
HETATM   10  C   UNL     1     -54.156  48.706  10.117  1.00  0.00     0.262 C 
HETATM   11  C   UNL     1     -54.582  45.330   8.752  1.00  0.00     0.216 C 
ENDROOT
BRANCH   9  12
HETATM   12  O   UNL     1     -53.713  49.496   7.873  1.00  0.00    -0.388 OA
HETATM   13  H   UNL     1     -53.589  50.444   8.036  1.00  0.00     0.210 HD
ENDBRANCH   9  12
BRANCH  10  14
HETATM   14  N   UNL     1     -53.531  48.850  11.433  1.00  0.00    -0.294 N 
HETATM   15  C   UNL     1     -52.869  47.884  12.136  1.00  0.00     0.167 A 
HETATM   16  N   UNL     1     -52.653  46.612  11.773  1.00  0.00    -0.222 NA
HETATM   17  C   UNL     1     -52.466  48.502  13.309  1.00  0.00     0.149 A 
HETATM   18  C   UNL     1     -51.959  45.958  12.731  1.00  0.00     0.237 A 
HETATM   19  N   UNL     1     -51.502  46.426  13.918  1.00  0.00    -0.222 NA
HETATM   20  C   UNL     1     -51.757  47.722  14.219  1.00  0.00     0.155 A 
HETATM   21  N   UNL     1     -52.867  49.814  13.331  1.00  0.00    -0.236 NA
HETATM   22  C   UNL     1     -53.503  49.991  12.191  1.00  0.00     0.214 A 
BRANCH  20  23
HETATM   23  N   UNL     1     -51.311  48.267  15.435  1.00  0.00    -0.382 N 
HETATM   24  H   UNL     1     -50.503  47.908  15.869  1.00  0.00     0.157 HD
HETATM   25  H   UNL     1     -51.806  49.008  15.854  1.00  0.00     0.157 HD
ENDBRANCH  20  23
ENDBRANCH  10  14
TORSDOF 3
ENDMDL
MODEL 4
REMARK VINA RESULT:      -6.8      2.714      3.658
REMARK  3 active torsions:
REMARK  status: ('A' for Active; 'I' for Inactive)
REMARK    1  A    between atoms: O_5  and  C_15 
REMARK    2  A    between atoms: N_8  and  C_16 
REMARK    3  A    between atoms: N_12  and  C_21 
ROOT
HETATM    1  P   UNL     1     -51.080  41.012   8.092  1.00  0.00     0.408 P 
HETATM    2  O   UNL     1     -51.959  44.647  10.262  1.00  0.00    -0.353 OA
HETATM    3  O   UNL     1     -52.518  41.762   8.230  1.00  0.00    -0.279 OA
HETATM    4  O   UNL     1     -50.180  41.552   9.333  1.00  0.00    -0.287 OA
HETATM    5  O   UNL     1     -50.397  41.691   6.791  1.00  0.00    -0.624 OA
HETATM    6  O   UNL     1     -51.172  39.515   8.008  1.00  0.00    -0.624 OA
HETATM    7  C   UNL     1     -52.467  43.125   8.584  1.00  0.00     0.198 C 
HETATM    8  C   UNL     1     -51.716  43.293   9.888  1.00  0.00     0.180 C 
HETATM    9  C   UNL     1     -53.778  43.800   8.916  1.00  0.00     0.199 C 
HETATM   10  C   UNL     1     -53.305  44.962   9.809  1.00  0.00     0.262 C 
HETATM   11  C   UNL     1     -50.256  42.928   9.708  1.00  0.00     0.216 C 
ENDROOT
BRANCH   9  12
HETATM   12  O   UNL     1     -54.602  42.923   9.677  1.00  0.00    -0.388 OA
HETATM   13  H   UNL     1     -55.164  43.443  10.274  1.00  0.00     0.210 HD
ENDBRANCH   9  12
BRANCH  10  14
HETATM   14  N   UNL     1     -53.299  46.259   9.129  1.00  0.00    -0.294 N 
HETATM   15  C   UNL     1     -53.323  47.492   9.716  1.00  0.00     0.167 A 
HETATM   16  N   UNL     1     -53.355  47.773  11.027  1.00  0.00    -0.222 NA
HETATM   17  C   UNL     1     -53.307  48.394   8.665  1.00  0.00     0.149 A 
HETATM   18  C   UNL     1     -53.371  49.110  11.223  1.00  0.00     0.237 A 
HETATM   19  N   UNL     1     -53.359  50.104  10.302  1.00  0.00    -0.222 NA
HETATM   20  C   UNL     1     -53.326  49.746   8.996  1.00  0.00     0.155 A 
HETATM   21  N   UNL     1     -53.274  47.737   7.461  1.00  0.00    -0.236 NA
HETATM   22  C   UNL     1     -53.270  46.458   7.774  1.00  0.00     0.214 A 
BRANCH  20  23
HETATM   23  N   UNL     1     -53.314  50.730   7.993  1.00  0.00    -0.382 N 
HETATM   24  H   UNL     1     -54.026  51.409   7.960  1.00  0.00     0.157 HD
HETATM   25  H   UNL     1     -52.593  50.741   7.322  1.00  0.00     0.157 HD
ENDBRANCH  20  23
ENDBRANCH  10  14
TORSDOF 3
ENDMDL
MODEL 5
REMARK VINA RESULT:      -6.6      4.598      7.065
REMARK  3 active torsions:
REMARK  status: ('A' for Active; 'I' for Inactive)
REMARK    1  A    between atoms: O_5  and  C_15 
REMARK    2  A    between atoms: N_8  and  C_16 
REMARK    3  A    between atoms: N_12  and  C_21 
ROOT
HETATM    1  P   UNL     1     -53.847  48.491   9.773  1.00  0.00     0.408 P 
HETATM    2  O   UNL     1     -52.352  45.434   7.106  1.00  0.00    -0.353 OA
HETATM    3  O   UNL     1     -54.353  46.949   9.649  1.00  0.00    -0.279 OA
HETATM    4  O   UNL     1     -53.084  48.819   8.376  1.00  0.00    -0.287 OA
HETATM    5  O   UNL     1     -52.653  48.435  10.866  1.00  0.00    -0.624 OA
HETATM    6  O   UNL     1     -54.933  49.468  10.122  1.00  0.00    -0.624 OA
HETATM    7  C   UNL     1     -53.439  46.050   9.062  1.00  0.00     0.198 C 
HETATM    8  C   UNL     1     -53.051  46.536   7.682  1.00  0.00     0.180 C 
HETATM    9  C   UNL     1     -53.945  44.661   8.749  1.00  0.00     0.199 C 
HETATM   10  C   UNL     1     -52.981  44.231   7.627  1.00  0.00     0.262 C 
HETATM   11  C   UNL     1     -52.254  47.821   7.779  1.00  0.00     0.216 C 
ENDROOT
BRANCH   9  12
HETATM   12  O   UNL     1     -55.271  44.727   8.234  1.00  0.00    -0.388 OA
HETATM   13  H   UNL     1     -55.386  44.049   7.548  1.00  0.00     0.210 HD
ENDBRANCH   9  12
BRANCH  10  14
HETATM   14  N   UNL     1     -51.949  43.293   8.070  1.00  0.00    -0.294 N 
HETATM   15  C   UNL     1     -51.126  42.545   7.276  1.00  0.00     0.167 A 
HETATM   16  N   UNL     1     -51.089  42.515   5.936  1.00  0.00    -0.222 NA
HETATM   17  C   UNL     1     -50.334  41.823   8.154  1.00  0.00     0.149 A 
HETATM   18  C   UNL     1     -50.140  41.652   5.509  1.00  0.00     0.237 A 
HETATM   19  N   UNL     1     -49.298  40.885   6.242  1.00  0.00    -0.222 NA
HETATM   20  C   UNL     1     -49.392  40.967   7.591  1.00  0.00     0.155 A 
HETATM   21  N   UNL     1     -50.658  42.116   9.454  1.00  0.00    -0.236 NA
HETATM   22  C   UNL     1     -51.629  43.001   9.370  1.00  0.00     0.214 A 
BRANCH  20  23
HETATM   23  N   UNL     1     -48.547  40.194   8.407  1.00  0.00    -0.382 N 
HETATM   24  H   UNL     1     -48.347  39.261   8.165  1.00  0.00     0.157 HD
HETATM   25  H   UNL     1     -48.155  40.587   9.220  1.00  0.00     0.157 HD
ENDBRANCH  20  23
ENDBRANCH  10  14
TORSDOF 3
ENDMDL
MODEL 6
REMARK VINA RESULT:      -6.5      4.647      6.781
REMARK  3 active torsions:
REMARK  status: ('A' for Active; 'I' for Inactive)
REMARK    1  A    between atoms: O_5  and  C_15 
REMARK    2  A    between atoms: N_8  and  C_16 
REMARK    3  A    between atoms: N_12  and  C_21 
ROOT
HETATM    1  P   UNL     1     -53.791  49.222   9.952  1.00  0.00     0.408 P 
HETATM    2  O   UNL     1     -53.911  44.930   9.443  1.00  0.00    -0.353 OA
HETATM    3  O   UNL     1     -52.621  48.148  10.308  1.00  0.00    -0.279 OA
HETATM    4  O   UNL     1     -55.172  48.367   9.894  1.00  0.00    -0.287 OA
HETATM    5  O   UNL     1     -53.513  49.621   8.407  1.00  0.00    -0.624 OA
HETATM    6  O   UNL     1     -53.841  50.405  10.876  1.00  0.00    -0.624 OA
HETATM    7  C   UNL     1     -52.709  46.906   9.648  1.00  0.00     0.198 C 
HETATM    8  C   UNL     1     -54.048  46.262   9.934  1.00  0.00     0.180 C 
HETATM    9  C   UNL     1     -51.762  45.817  10.099  1.00  0.00     0.199 C 
HETATM   10  C   UNL     1     -52.525  44.551   9.668  1.00  0.00     0.262 C 
HETATM   11  C   UNL     1     -55.167  47.067   9.304  1.00  0.00     0.216 C 
ENDROOT
BRANCH   9  12
HETATM   12  O   UNL     1     -51.636  45.834  11.518  1.00  0.00    -0.388 OA
HETATM   13  H   UNL     1     -51.038  45.124  11.798  1.00  0.00     0.210 HD
ENDBRANCH   9  12
BRANCH  10  14
HETATM   14  N   UNL     1     -51.987  43.926   8.459  1.00  0.00    -0.294 N 
HETATM   15  C   UNL     1     -52.135  44.367   7.175  1.00  0.00     0.167 A 
HETATM   16  N   UNL     1     -52.797  45.455   6.754  1.00  0.00    -0.222 NA
HETATM   17  C   UNL     1     -51.452  43.448   6.395  1.00  0.00     0.149 A 
HETATM   18  C   UNL     1     -52.722  45.563   5.409  1.00  0.00     0.237 A 
HETATM   19  N   UNL     1     -52.097  44.749   4.525  1.00  0.00    -0.222 NA
HETATM   20  C   UNL     1     -51.447  43.669   5.020  1.00  0.00     0.155 A 
HETATM   21  N   UNL     1     -50.897  42.465   7.175  1.00  0.00    -0.236 NA
HETATM   22  C   UNL     1     -51.235  42.782   8.408  1.00  0.00     0.214 A 
BRANCH  20  23
HETATM   23  N   UNL     1     -50.781  42.785   4.154  1.00  0.00    -0.382 N 
HETATM   24  H   UNL     1     -51.163  42.580   3.270  1.00  0.00     0.157 HD
HETATM   25  H   UNL     1     -49.931  42.371   4.431  1.00  0.00     0.157 HD
ENDBRANCH  20  23
ENDBRANCH  10  14
TORSDOF 3
ENDMDL
MODEL 7
REMARK VINA RESULT:      -6.4      4.390      7.211
REMARK  3 active torsions:
REMARK  status: ('A' for Active; 'I' for Inactive)
REMARK    1  A    between atoms: O_5  and  C_15 
REMARK    2  A    between atoms: N_8  and  C_16 
REMARK    3  A    between atoms: N_12  and  C_21 
ROOT
HETATM    1  P   UNL     1     -52.299  44.846   6.150  1.00  0.00     0.408 P 
HETATM    2  O   UNL     1     -49.829  41.320   5.745  1.00  0.00    -0.353 OA
HETATM    3  O   UNL     1     -52.412  43.454   6.986  1.00  0.00    -0.279 OA
HETATM    4  O   UNL     1     -51.475  44.482   4.797  1.00  0.00    -0.287 OA
HETATM    5  O   UNL     1     -51.261  45.746   7.008  1.00  0.00    -0.624 OA
HETATM    6  O   UNL     1     -53.616  45.524   5.902  1.00  0.00    -0.624 OA
HETATM    7  C   UNL     1     -51.252  42.654   7.004  1.00  0.00     0.198 C 
HETATM    8  C   UNL     1     -50.829  42.325   5.589  1.00  0.00     0.180 C 
HETATM    9  C   UNL     1     -51.379  41.270   7.598  1.00  0.00     0.199 C 
HETATM   10  C   UNL     1     -50.217  40.533   6.905  1.00  0.00     0.262 C 
HETATM   11  C   UNL     1     -50.372  43.579   4.869  1.00  0.00     0.216 C 
ENDROOT
BRANCH   9  12
HETATM   12  O   UNL     1     -52.614  40.680   7.204  1.00  0.00    -0.388 OA
HETATM   13  H   UNL     1     -52.514  40.271   6.330  1.00  0.00     0.210 HD
ENDBRANCH   9  12
BRANCH  10  14
HETATM   14  N   UNL     1     -49.053  40.332   7.770  1.00  0.00    -0.294 N 
HETATM   15  C   UNL     1     -48.174  39.288   7.730  1.00  0.00     0.167 A 
HETATM   16  N   UNL     1     -48.189  38.237   6.898  1.00  0.00    -0.222 NA
HETATM   17  C   UNL     1     -47.258  39.548   8.737  1.00  0.00     0.149 A 
HETATM   18  C   UNL     1     -47.155  37.409   7.163  1.00  0.00     0.237 A 
HETATM   19  N   UNL     1     -46.190  37.531   8.107  1.00  0.00    -0.222 NA
HETATM   20  C   UNL     1     -46.236  38.618   8.912  1.00  0.00     0.155 A 
HETATM   21  N   UNL     1     -47.562  40.720   9.381  1.00  0.00    -0.236 NA
HETATM   22  C   UNL     1     -48.644  41.166   8.777  1.00  0.00     0.214 A 
BRANCH  20  23
HETATM   23  N   UNL     1     -45.265  38.801   9.911  1.00  0.00    -0.382 N 
HETATM   24  H   UNL     1     -45.534  38.856  10.857  1.00  0.00     0.157 HD
HETATM   25  H   UNL     1     -44.314  38.874   9.666  1.00  0.00     0.157 HD
ENDBRANCH  20  23
ENDBRANCH  10  14
TORSDOF 3
ENDMDL
MODEL 8
REMARK VINA RESULT:      -6.3      4.999      6.423
REMARK  3 active torsions:
REMARK  status: ('A' for Active; 'I' for Inactive)
REMARK    1  A    between atoms: O_5  and  C_15 
REMARK    2  A    between atoms: N_8  and  C_16 
REMARK    3  A    between atoms: N_12  and  C_21 
ROOT
HETATM    1  P   UNL     1     -52.956  40.257  14.323  1.00  0.00     0.408 P 
HETATM    2  O   UNL     1     -53.047  43.381  11.334  1.00  0.00    -0.353 OA
HETATM    3  O   UNL     1     -51.752  41.275  13.914  1.00  0.00    -0.279 OA
HETATM    4  O   UNL     1     -53.983  40.259  13.063  1.00  0.00    -0.287 OA
HETATM    5  O   UNL     1     -53.765  41.041  15.487  1.00  0.00    -0.624 OA
HETATM    6  O   UNL     1     -52.492  38.889  14.733  1.00  0.00    -0.624 OA
HETATM    7  C   UNL     1     -52.148  42.463  13.268  1.00  0.00     0.198 C 
HETATM    8  C   UNL     1     -52.939  42.135  12.019  1.00  0.00     0.180 C 
HETATM    9  C   UNL     1     -51.053  43.334  12.697  1.00  0.00     0.199 C 
HETATM   10  C   UNL     1     -51.816  44.106  11.603  1.00  0.00     0.262 C 
HETATM   11  C   UNL     1     -54.258  41.486  12.385  1.00  0.00     0.216 C 
ENDROOT
BRANCH   9  12
HETATM   12  O   UNL     1     -50.049  42.525  12.092  1.00  0.00    -0.388 OA
HETATM   13  H   UNL     1     -49.431  43.090  11.601  1.00  0.00     0.210 HD
ENDBRANCH   9  12
BRANCH  10  14
HETATM   14  N   UNL     1     -52.133  45.486  11.974  1.00  0.00    -0.294 N 
HETATM   15  C   UNL     1     -52.499  46.496  11.132  1.00  0.00     0.167 A 
HETATM   16  N   UNL     1     -52.646  46.439   9.800  1.00  0.00    -0.222 NA
HETATM   17  C   UNL     1     -52.689  47.599  11.949  1.00  0.00     0.149 A 
HETATM   18  C   UNL     1     -53.020  47.643   9.313  1.00  0.00     0.237 A 
HETATM   19  N   UNL     1     -53.241  48.799   9.984  1.00  0.00    -0.222 NA
HETATM   20  C   UNL     1     -53.074  48.784  11.328  1.00  0.00     0.155 A 
HETATM   21  N   UNL     1     -52.446  47.279  13.261  1.00  0.00    -0.236 NA
HETATM   22  C   UNL     1     -52.116  46.004  13.242  1.00  0.00     0.214 A 
BRANCH  20  23
HETATM   23  N   UNL     1     -53.286  49.952  12.081  1.00  0.00    -0.382 N 
HETATM   24  H   UNL     1     -52.878  50.044  12.972  1.00  0.00     0.157 HD
HETATM   25  H   UNL     1     -53.843  50.678  11.717  1.00  0.00     0.157 HD
ENDBRANCH  20  23
ENDBRANCH  10  14
TORSDOF 3
ENDMDL
MODEL 9
REMARK VINA RESULT:      -6.3      2.550      3.732
REMARK  3 active torsions:
REMARK  status: ('A' for Active; 'I' for Inactive)
REMARK    1  A    between atoms: O_5  and  C_15 
REMARK    2  A    between atoms: N_8  and  C_16 
REMARK    3  A    between atoms: N_12  and  C_21 
ROOT
HETATM    1  P   UNL     1     -50.428  41.402   8.190  1.00  0.00     0.408 P 
HETATM    2  O   UNL     1     -53.666  44.265   8.028  1.00  0.00    -0.353 OA
HETATM    3  O   UNL     1     -50.699  42.530   7.048  1.00  0.00    -0.279 OA
HETATM    4  O   UNL     1     -51.853  41.183   8.941  1.00  0.00    -0.287 OA
HETATM    5  O   UNL     1     -49.518  42.160   9.294  1.00  0.00    -0.624 OA
HETATM    6  O   UNL     1     -49.810  40.137   7.670  1.00  0.00    -0.624 OA
HETATM    7  C   UNL     1     -51.518  43.610   7.435  1.00  0.00     0.198 C 
HETATM    8  C   UNL     1     -52.856  43.095   7.922  1.00  0.00     0.180 C 
HETATM    9  C   UNL     1     -51.954  44.568   6.350  1.00  0.00     0.199 C 
HETATM   10  C   UNL     1     -53.240  45.156   6.961  1.00  0.00     0.262 C 
HETATM   11  C   UNL     1     -52.685  42.313   9.209  1.00  0.00     0.216 C 
ENDROOT
BRANCH   9  12
HETATM   12  O   UNL     1     -52.279  43.850   5.164  1.00  0.00    -0.388 OA
HETATM   13  H   UNL     1     -51.691  43.082   5.079  1.00  0.00     0.210 HD
ENDBRANCH   9  12
BRANCH  10  14
HETATM   14  N   UNL     1     -53.069  46.509   7.494  1.00  0.00    -0.294 N 
HETATM   15  C   UNL     1     -53.883  47.146   8.387  1.00  0.00     0.167 A 
HETATM   16  N   UNL     1     -54.999  46.672   8.959  1.00  0.00    -0.222 NA
HETATM   17  C   UNL     1     -53.307  48.392   8.576  1.00  0.00     0.149 A 
HETATM   18  C   UNL     1     -55.533  47.595   9.789  1.00  0.00     0.237 A 
HETATM   19  N   UNL     1     -55.086  48.843  10.072  1.00  0.00    -0.222 NA
HETATM   20  C   UNL     1     -53.952  49.255   9.457  1.00  0.00     0.155 A 
HETATM   21  N   UNL     1     -52.168  48.521   7.822  1.00  0.00    -0.236 NA
HETATM   22  C   UNL     1     -52.053  47.374   7.185  1.00  0.00     0.214 A 
BRANCH  20  23
HETATM   23  N   UNL     1     -53.439  50.539   9.708  1.00  0.00    -0.382 N 
HETATM   24  H   UNL     1     -52.963  51.027   8.996  1.00  0.00     0.157 HD
HETATM   25  H   UNL     1     -53.555  50.952  10.594  1.00  0.00     0.157 HD
ENDBRANCH  20  23
ENDBRANCH  10  14
TORSDOF 3
ENDMDL
