MODEL 1
REMARK VINA RESULT:      -7.1      0.000      0.000
REMARK  3 active torsions:
REMARK  status: ('A' for Active; 'I' for Inactive)
REMARK    1  A    between atoms: O_5  and  C_15 
REMARK    2  A    between atoms: N_8  and  C_16 
REMARK    3  A    between atoms: N_12  and  C_21 
ROOT
HETATM    1  P   UNL     1     -48.279  39.584   7.968  1.00  0.00     0.408 P 
HETATM    2  O   UNL     1     -50.826  43.041   8.482  1.00  0.00    -0.353 OA
HETATM    3  O   UNL     1     -49.672  39.915   7.192  1.00  0.00    -0.279 OA
HETATM    4  O   UNL     1     -48.305  40.481   9.323  1.00  0.00    -0.287 OA
HETATM    5  O   UNL     1     -47.137  40.284   7.058  1.00  0.00    -0.624 OA
HETATM    6  O   UNL     1     -48.041  38.121   8.207  1.00  0.00    -0.624 OA
HETATM    7  C   UNL     1     -50.065  41.268   7.190  1.00  0.00     0.198 C 
HETATM    8  C   UNL     1     -50.181  41.775   8.612  1.00  0.00     0.180 C 
HETATM    9  C   UNL     1     -51.443  41.584   6.657  1.00  0.00     0.199 C 
HETATM   10  C   UNL     1     -51.745  42.920   7.362  1.00  0.00     0.262 C 
HETATM   11  C   UNL     1     -48.817  41.814   9.272  1.00  0.00     0.216 C 
ENDROOT
BRANCH   9  12
HETATM   12  O   UNL     1     -52.375  40.598   7.092  1.00  0.00    -0.388 OA
HETATM   13  H   UNL     1     -51.964  39.720   7.042  1.00  0.00     0.210 HD
ENDBRANCH   9  12
BRANCH  10  14
HETATM   14  N   UNL     1     -51.606  44.086   6.489  1.00  0.00    -0.294 N 
HETATM   15  C   UNL     1     -51.643  45.399   6.864  1.00  0.00     0.167 A 
HETATM   16  N   UNL     1     -51.810  45.892   8.100  1.00  0.00    -0.222 NA
HETATM   17  C   UNL     1     -51.468  46.116   5.691  1.00  0.00     0.149 A 
HETATM   18  C   UNL     1     -51.790  47.243   8.076  1.00  0.00     0.237 A 
HETATM   19  N   UNL     1     -51.631  48.072   7.016  1.00  0.00    -0.222 NA
HETATM   20  C   UNL     1     -51.466  47.504   5.798  1.00  0.00     0.155 A 
HETATM   21  N   UNL     1     -51.328  45.271   4.620  1.00  0.00    -0.236 NA
HETATM   22  C   UNL     1     -51.414  44.060   5.132  1.00  0.00     0.214 A 
BRANCH  20  23
HETATM   23  N   UNL     1     -51.298  48.310   4.659  1.00  0.00    -0.382 N 
HETATM   24  H   UNL     1     -51.739  48.066   3.813  1.00  0.00     0.157 HD
HETATM   25  H   UNL     1     -50.738  49.119   4.706  1.00  0.00     0.157 HD
ENDBRANCH  20  23
ENDBRANCH  10  14
TORSDOF 3
ENDMDL
MODEL 2
REMARK VINA RESULT:      -7.0      4.706      7.155
REMARK  3 active torsions:
REMARK  status: ('A' for Active; 'I' for Inactive)
REMARK    1  A    between atoms: O_5  and  C_15 
REMARK    2  A    between atoms: N_8  and  C_16 
REMARK    3  A    between atoms: N_12  and  C_21 
ROOT
HETATM    1  P   UNL     1     -53.847  49.589  10.423  1.00  0.00     0.408 P 
HETATM    2  O   UNL     1     -54.099  45.473   9.120  1.00  0.00    -0.353 OA
HETATM    3  O   UNL     1     -52.654  48.481  10.398  1.00  0.00    -0.279 OA
HETATM    4  O   UNL     1     -55.235  48.743  10.395  1.00  0.00    -0.287 OA
HETATM    5  O   UNL     1     -53.783  50.280   8.959  1.00  0.00    -0.624 OA
HETATM    6  O   UNL     1     -53.751  50.571  11.554  1.00  0.00    -0.624 OA
HETATM    7  C   UNL     1     -52.852  47.388   9.531  1.00  0.00     0.198 C 
HETATM    8  C   UNL     1     -54.148  46.684   9.873  1.00  0.00     0.180 C 
HETATM    9  C   UNL     1     -51.867  46.245   9.628  1.00  0.00     0.199 C 
HETATM   10  C   UNL     1     -52.702  45.075   9.073  1.00  0.00     0.262 C 
HETATM   11  C   UNL     1     -55.332  47.581   9.571  1.00  0.00     0.216 C 
ENDROOT
BRANCH   9  12
HETATM   12  O   UNL     1     -51.545  45.991  10.992  1.00  0.00    -0.388 OA
HETATM   13  H   UNL     1     -52.053  45.226  11.307  1.00  0.00     0.210 HD
ENDBRANCH   9  12
BRANCH  10  14
HETATM   14  N   UNL     1     -52.347  44.702   7.703  1.00  0.00    -0.294 N 
HETATM   15  C   UNL     1     -51.648  43.596   7.311  1.00  0.00     0.167 A 
HETATM   16  N   UNL     1     -51.146  42.626   8.089  1.00  0.00    -0.222 NA
HETATM   17  C   UNL     1     -51.569  43.688   5.930  1.00  0.00     0.149 A 
HETATM   18  C   UNL     1     -50.517  41.695   7.338  1.00  0.00     0.237 A 
HETATM   19  N   UNL     1     -50.361  41.653   5.993  1.00  0.00    -0.222 NA
HETATM   20  C   UNL     1     -50.894  42.665   5.269  1.00  0.00     0.155 A 
HETATM   21  N   UNL     1     -52.202  44.820   5.482  1.00  0.00    -0.236 NA
HETATM   22  C   UNL     1     -52.658  45.406   6.569  1.00  0.00     0.214 A 
BRANCH  20  23
HETATM   23  N   UNL     1     -50.765  42.679   3.870  1.00  0.00    -0.382 N 
HETATM   24  H   UNL     1     -50.361  41.911   3.405  1.00  0.00     0.157 HD
HETATM   25  H   UNL     1     -51.078  43.458   3.354  1.00  0.00     0.157 HD
ENDBRANCH  20  23
ENDBRANCH  10  14
TORSDOF 3
ENDMDL
MODEL 3
REMARK VINA RESULT:      -7.0      5.324      7.599
REMARK  3 active torsions:
REMARK  status: ('A' for Active; 'I' for Inactive)
REMARK    1  A    between atoms: O_5  and  C_15 
REMARK    2  A    between atoms: N_8  and  C_16 
REMARK    3  A    between atoms: N_12  and  C_21 
ROOT
HETATM    1  P   UNL     1     -52.767  45.435   6.821  1.00  0.00     0.408 P 
HETATM    2  O   UNL     1     -54.843  47.434  10.046  1.00  0.00    -0.353 OA
HETATM    3  O   UNL     1     -52.651  46.999   7.258  1.00  0.00    -0.279 OA
HETATM    4  O   UNL     1     -54.174  44.908   7.441  1.00  0.00    -0.287 OA
HETATM    5  O   UNL     1     -51.643  44.685   7.714  1.00  0.00    -0.624 OA
HETATM    6  O   UNL     1     -52.619  45.196   5.346  1.00  0.00    -0.624 OA
HETATM    7  C   UNL     1     -53.051  47.299   8.575  1.00  0.00     0.198 C 
HETATM    8  C   UNL     1     -54.480  46.849   8.796  1.00  0.00     0.180 C 
HETATM    9  C   UNL     1     -53.147  48.760   8.950  1.00  0.00     0.199 C 
HETATM   10  C   UNL     1     -54.151  48.710  10.117  1.00  0.00     0.262 C 
HETATM   11  C   UNL     1     -54.571  45.337   8.744  1.00  0.00     0.216 C 
ENDROOT
BRANCH   9  12
HETATM   12  O   UNL     1     -53.708  49.506   7.875  1.00  0.00    -0.388 OA
HETATM   13  H   UNL     1     -54.485  49.995   8.191  1.00  0.00     0.210 HD
ENDBRANCH   9  12
BRANCH  10  14
HETATM   14  N   UNL     1     -53.526  48.853  11.433  1.00  0.00    -0.294 N 
HETATM   15  C   UNL     1     -52.868  47.885  12.137  1.00  0.00     0.167 A 
HETATM   16  N   UNL     1     -52.655  46.612  11.774  1.00  0.00    -0.222 NA
HETATM   17  C   UNL     1     -52.464  48.501  13.310  1.00  0.00     0.149 A 
HETATM   18  C   UNL     1     -51.964  45.956  12.733  1.00  0.00     0.237 A 
HETATM   19  N   UNL     1     -51.507  46.423  13.920  1.00  0.00    -0.222 NA
HETATM   20  C   UNL     1     -51.758  47.719  14.221  1.00  0.00     0.155 A 
HETATM   21  N   UNL     1     -52.861  49.814  13.332  1.00  0.00    -0.236 NA
HETATM   22  C   UNL     1     -53.495  49.994  12.192  1.00  0.00     0.214 A 
BRANCH  20  23
HETATM   23  N   UNL     1     -51.312  48.262  15.438  1.00  0.00    -0.382 N 
HETATM   24  H   UNL     1     -51.676  47.929  16.289  1.00  0.00     0.157 HD
HETATM   25  H   UNL     1     -50.634  48.977  15.439  1.00  0.00     0.157 HD
ENDBRANCH  20  23
ENDBRANCH  10  14
TORSDOF 3
ENDMDL
MODEL 4
REMARK VINA RESULT:      -6.8      2.722      3.671
REMARK  3 active torsions:
REMARK  status: ('A' for Active; 'I' for Inactive)
REMARK    1  A    between atoms: O_5  and  C_15 
REMARK    2  A    between atoms: N_8  and  C_16 
REMARK    3  A    between atoms: N_12  and  C_21 
ROOT
HETATM    1  P   UNL     1     -51.097  40.995   8.111  1.00  0.00     0.408 P 
HETATM    2  O   UNL     1     -51.979  44.626  10.288  1.00  0.00    -0.353 OA
HETATM    3  O   UNL     1     -52.534  41.750   8.241  1.00  0.00    -0.279 OA
HETATM    4  O   UNL     1     -50.204  41.527   9.361  1.00  0.00    -0.287 OA
HETATM    5  O   UNL     1     -50.402  41.677   6.817  1.00  0.00    -0.624 OA
HETATM    6  O   UNL     1     -51.195  39.500   8.021  1.00  0.00    -0.624 OA
HETATM    7  C   UNL     1     -52.480  43.112   8.601  1.00  0.00     0.198 C 
HETATM    8  C   UNL     1     -51.738  43.272   9.911  1.00  0.00     0.180 C 
HETATM    9  C   UNL     1     -53.791  43.791   8.926  1.00  0.00     0.199 C 
HETATM   10  C   UNL     1     -53.320  44.948   9.827  1.00  0.00     0.262 C 
HETATM   11  C   UNL     1     -50.278  42.903   9.740  1.00  0.00     0.216 C 
ENDROOT
BRANCH   9  12
HETATM   12  O   UNL     1     -54.623  42.914   9.678  1.00  0.00    -0.388 OA
HETATM   13  H   UNL     1     -55.230  42.450   9.079  1.00  0.00     0.210 HD
ENDBRANCH   9  12
BRANCH  10  14
HETATM   14  N   UNL     1     -53.305  46.247   9.152  1.00  0.00    -0.294 N 
HETATM   15  C   UNL     1     -53.338  47.477   9.743  1.00  0.00     0.167 A 
HETATM   16  N   UNL     1     -53.390  47.754  11.054  1.00  0.00    -0.222 NA
HETATM   17  C   UNL     1     -53.307  48.384   8.696  1.00  0.00     0.149 A 
HETATM   18  C   UNL     1     -53.409  49.090  11.255  1.00  0.00     0.237 A 
HETATM   19  N   UNL     1     -53.384  50.087  10.338  1.00  0.00    -0.222 NA
HETATM   20  C   UNL     1     -53.332  49.734   9.031  1.00  0.00     0.155 A 
HETATM   21  N   UNL     1     -53.255  47.731   7.490  1.00  0.00    -0.236 NA
HETATM   22  C   UNL     1     -53.255  46.451   7.798  1.00  0.00     0.214 A 
BRANCH  20  23
HETATM   23  N   UNL     1     -53.305  50.722   8.032  1.00  0.00    -0.382 N 
HETATM   24  H   UNL     1     -53.323  51.675   8.280  1.00  0.00     0.157 HD
HETATM   25  H   UNL     1     -53.267  50.462   7.083  1.00  0.00     0.157 HD
ENDBRANCH  20  23
ENDBRANCH  10  14
TORSDOF 3
ENDMDL
MODEL 5
REMARK VINA RESULT:      -6.8      4.649      6.842
REMARK  3 active torsions:
REMARK  status: ('A' for Active; 'I' for Inactive)
REMARK    1  A    between atoms: O_5  and  C_15 
REMARK    2  A    between atoms: N_8  and  C_16 
REMARK    3  A    between atoms: N_12  and  C_21 
ROOT
HETATM    1  P   UNL     1     -51.913  43.986   7.782  1.00  0.00     0.408 P 
HETATM    2  O   UNL     1     -54.511  46.911   9.625  1.00  0.00    -0.353 OA
HETATM    3  O   UNL     1     -51.770  45.607   7.739  1.00  0.00    -0.279 OA
HETATM    4  O   UNL     1     -53.466  43.690   8.160  1.00  0.00    -0.287 OA
HETATM    5  O   UNL     1     -51.098  43.546   9.110  1.00  0.00    -0.624 OA
HETATM    6  O   UNL     1     -51.444  43.294   6.534  1.00  0.00    -0.624 OA
HETATM    7  C   UNL     1     -52.442  46.308   8.760  1.00  0.00     0.198 C 
HETATM    8  C   UNL     1     -53.915  45.960   8.744  1.00  0.00     0.180 C 
HETATM    9  C   UNL     1     -52.498  47.814   8.639  1.00  0.00     0.199 C 
HETATM   10  C   UNL     1     -53.749  48.140   9.477  1.00  0.00     0.262 C 
HETATM   11  C   UNL     1     -54.120  44.509   9.130  1.00  0.00     0.216 C 
ENDROOT
BRANCH   9  12
HETATM   12  O   UNL     1     -52.726  48.188   7.284  1.00  0.00    -0.388 OA
HETATM   13  H   UNL     1     -52.081  47.742   6.713  1.00  0.00     0.210 HD
ENDBRANCH   9  12
BRANCH  10  14
HETATM   14  N   UNL     1     -53.441  48.685  10.801  1.00  0.00    -0.294 N 
HETATM   15  C   UNL     1     -52.929  48.004  11.868  1.00  0.00     0.167 A 
HETATM   16  N   UNL     1     -52.602  46.704  11.928  1.00  0.00    -0.222 NA
HETATM   17  C   UNL     1     -52.818  48.944  12.879  1.00  0.00     0.149 A 
HETATM   18  C   UNL     1     -52.126  46.394  13.154  1.00  0.00     0.237 A 
HETATM   19  N   UNL     1     -51.961  47.200  14.231  1.00  0.00    -0.222 NA
HETATM   20  C   UNL     1     -52.312  48.501  14.098  1.00  0.00     0.155 A 
HETATM   21  N   UNL     1     -53.249  50.174  12.449  1.00  0.00    -0.236 NA
HETATM   22  C   UNL     1     -53.615  49.985  11.198  1.00  0.00     0.214 A 
BRANCH  20  23
HETATM   23  N   UNL     1     -52.167  49.387  15.179  1.00  0.00    -0.382 N 
HETATM   24  H   UNL     1     -52.496  50.312  15.105  1.00  0.00     0.157 HD
HETATM   25  H   UNL     1     -51.736  49.083  16.011  1.00  0.00     0.157 HD
ENDBRANCH  20  23
ENDBRANCH  10  14
TORSDOF 3
ENDMDL
MODEL 6
REMARK VINA RESULT:      -6.6      4.597      7.066
REMARK  3 active torsions:
REMARK  status: ('A' for Active; 'I' for Inactive)
REMARK    1  A    between atoms: O_5  and  C_15 
REMARK    2  A    between atoms: N_8  and  C_16 
REMARK    3  A    between atoms: N_12  and  C_21 
ROOT
HETATM    1  P   UNL     1     -53.848  48.491   9.773  1.00  0.00     0.408 P 
HETATM    2  O   UNL     1     -52.353  45.432   7.106  1.00  0.00    -0.353 OA
HETATM    3  O   UNL     1     -54.354  46.948   9.650  1.00  0.00    -0.279 OA
HETATM    4  O   UNL     1     -53.086  48.818   8.375  1.00  0.00    -0.287 OA
HETATM    5  O   UNL     1     -52.653  48.435  10.864  1.00  0.00    -0.624 OA
HETATM    6  O   UNL     1     -54.933  49.468  10.122  1.00  0.00    -0.624 OA
HETATM    7  C   UNL     1     -53.440  46.049   9.063  1.00  0.00     0.198 C 
HETATM    8  C   UNL     1     -53.052  46.534   7.682  1.00  0.00     0.180 C 
HETATM    9  C   UNL     1     -53.946  44.660   8.750  1.00  0.00     0.199 C 
HETATM   10  C   UNL     1     -52.983  44.230   7.628  1.00  0.00     0.262 C 
HETATM   11  C   UNL     1     -52.256  47.820   7.778  1.00  0.00     0.216 C 
ENDROOT
BRANCH   9  12
HETATM   12  O   UNL     1     -55.272  44.725   8.236  1.00  0.00    -0.388 OA
HETATM   13  H   UNL     1     -55.832  44.082   8.700  1.00  0.00     0.210 HD
ENDBRANCH   9  12
BRANCH  10  14
HETATM   14  N   UNL     1     -51.950  43.291   8.071  1.00  0.00    -0.294 N 
HETATM   15  C   UNL     1     -51.127  42.545   7.276  1.00  0.00     0.167 A 
HETATM   16  N   UNL     1     -51.090  42.515   5.936  1.00  0.00    -0.222 NA
HETATM   17  C   UNL     1     -50.334  41.822   8.154  1.00  0.00     0.149 A 
HETATM   18  C   UNL     1     -50.141  41.652   5.509  1.00  0.00     0.237 A 
HETATM   19  N   UNL     1     -49.299  40.885   6.242  1.00  0.00    -0.222 NA
HETATM   20  C   UNL     1     -49.392  40.966   7.591  1.00  0.00     0.155 A 
HETATM   21  N   UNL     1     -50.658  42.114   9.455  1.00  0.00    -0.236 NA
HETATM   22  C   UNL     1     -51.630  42.999   9.370  1.00  0.00     0.214 A 
BRANCH  20  23
HETATM   23  N   UNL     1     -48.547  40.194   8.407  1.00  0.00    -0.382 N 
HETATM   24  H   UNL     1     -48.621  40.252   9.387  1.00  0.00     0.157 HD
HETATM   25  H   UNL     1     -47.881  39.595   7.998  1.00  0.00     0.157 HD
ENDBRANCH  20  23
ENDBRANCH  10  14
TORSDOF 3
ENDMDL
MODEL 7
REMARK VINA RESULT:      -6.4      4.652      6.786
REMARK  3 active torsions:
REMARK  status: ('A' for Active; 'I' for Inactive)
REMARK    1  A    between atoms: O_5  and  C_15 
REMARK    2  A    between atoms: N_8  and  C_16 
REMARK    3  A    between atoms: N_12  and  C_21 
ROOT
HETATM    1  P   UNL     1     -53.787  49.231   9.965  1.00  0.00     0.408 P 
HETATM    2  O   UNL     1     -53.921  44.940   9.448  1.00  0.00    -0.353 OA
HETATM    3  O   UNL     1     -52.622  48.152  10.322  1.00  0.00    -0.279 OA
HETATM    4  O   UNL     1     -55.171  48.381   9.901  1.00  0.00    -0.287 OA
HETATM    5  O   UNL     1     -53.504  49.631   8.421  1.00  0.00    -0.624 OA
HETATM    6  O   UNL     1     -53.835  50.413  10.891  1.00  0.00    -0.624 OA
HETATM    7  C   UNL     1     -52.713  46.911   9.659  1.00  0.00     0.198 C 
HETATM    8  C   UNL     1     -54.056  46.272   9.941  1.00  0.00     0.180 C 
HETATM    9  C   UNL     1     -51.771  45.819  10.112  1.00  0.00     0.199 C 
HETATM   10  C   UNL     1     -52.538  44.556   9.676  1.00  0.00     0.262 C 
HETATM   11  C   UNL     1     -55.169  47.082   9.309  1.00  0.00     0.216 C 
ENDROOT
BRANCH   9  12
HETATM   12  O   UNL     1     -51.650  45.833  11.530  1.00  0.00    -0.388 OA
HETATM   13  H   UNL     1     -51.544  44.924  11.856  1.00  0.00     0.210 HD
ENDBRANCH   9  12
BRANCH  10  14
HETATM   14  N   UNL     1     -51.998  43.931   8.467  1.00  0.00    -0.294 N 
HETATM   15  C   UNL     1     -52.141  44.375   7.184  1.00  0.00     0.167 A 
HETATM   16  N   UNL     1     -52.796  45.467   6.763  1.00  0.00    -0.222 NA
HETATM   17  C   UNL     1     -51.459  43.454   6.404  1.00  0.00     0.149 A 
HETATM   18  C   UNL     1     -52.717  45.577   5.418  1.00  0.00     0.237 A 
HETATM   19  N   UNL     1     -52.092  44.762   4.535  1.00  0.00    -0.222 NA
HETATM   20  C   UNL     1     -51.449  43.678   5.030  1.00  0.00     0.155 A 
HETATM   21  N   UNL     1     -50.911  42.468   7.184  1.00  0.00    -0.236 NA
HETATM   22  C   UNL     1     -51.252  42.784   8.417  1.00  0.00     0.214 A 
BRANCH  20  23
HETATM   23  N   UNL     1     -50.784  42.793   4.164  1.00  0.00    -0.382 N 
HETATM   24  H   UNL     1     -50.368  41.975   4.521  1.00  0.00     0.157 HD
HETATM   25  H   UNL     1     -50.734  42.991   3.201  1.00  0.00     0.157 HD
ENDBRANCH  20  23
ENDBRANCH  10  14
TORSDOF 3
ENDMDL
MODEL 8
REMARK VINA RESULT:      -6.4      2.557      3.719
REMARK  3 active torsions:
REMARK  status: ('A' for Active; 'I' for Inactive)
REMARK    1  A    between atoms: O_5  and  C_15 
REMARK    2  A    between atoms: N_8  and  C_16 
REMARK    3  A    between atoms: N_12  and  C_21 
ROOT
HETATM    1  P   UNL     1     -50.386  41.504   8.579  1.00  0.00     0.408 P 
HETATM    2  O   UNL     1     -53.658  44.306   8.206  1.00  0.00    -0.353 OA
HETATM    3  O   UNL     1     -50.661  42.551   7.364  1.00  0.00    -0.279 OA
HETATM    4  O   UNL     1     -51.814  41.316   9.332  1.00  0.00    -0.287 OA
HETATM    5  O   UNL     1     -49.495  42.345   9.638  1.00  0.00    -0.624 OA
HETATM    6  O   UNL     1     -49.746  40.216   8.148  1.00  0.00    -0.624 OA
HETATM    7  C   UNL     1     -51.498  43.643   7.674  1.00  0.00     0.198 C 
HETATM    8  C   UNL     1     -52.833  43.143   8.183  1.00  0.00     0.180 C 
HETATM    9  C   UNL     1     -51.936  44.522   6.525  1.00  0.00     0.199 C 
HETATM   10  C   UNL     1     -53.235  45.131   7.086  1.00  0.00     0.262 C 
HETATM   11  C   UNL     1     -52.663  42.449   9.519  1.00  0.00     0.216 C 
ENDROOT
BRANCH   9  12
HETATM   12  O   UNL     1     -52.242  43.724   5.386  1.00  0.00    -0.388 OA
HETATM   13  H   UNL     1     -51.529  43.805   4.733  1.00  0.00     0.210 HD
ENDBRANCH   9  12
BRANCH  10  14
HETATM   14  N   UNL     1     -53.086  46.518   7.531  1.00  0.00    -0.294 N 
HETATM   15  C   UNL     1     -53.888  47.186   8.412  1.00  0.00     0.167 A 
HETATM   16  N   UNL     1     -54.970  46.718   9.051  1.00  0.00    -0.222 NA
HETATM   17  C   UNL     1     -53.343  48.457   8.506  1.00  0.00     0.149 A 
HETATM   18  C   UNL     1     -55.503  47.675   9.842  1.00  0.00     0.237 A 
HETATM   19  N   UNL     1     -55.084  48.949  10.034  1.00  0.00    -0.222 NA
HETATM   20  C   UNL     1     -53.983  49.354   9.356  1.00  0.00     0.155 A 
HETATM   21  N   UNL     1     -52.234  48.571   7.706  1.00  0.00    -0.236 NA
HETATM   22  C   UNL     1     -52.107  47.391   7.135  1.00  0.00     0.214 A 
BRANCH  20  23
HETATM   23  N   UNL     1     -53.500  50.665   9.511  1.00  0.00    -0.382 N 
HETATM   24  H   UNL     1     -52.543  50.856   9.375  1.00  0.00     0.157 HD
HETATM   25  H   UNL     1     -54.117  51.392   9.754  1.00  0.00     0.157 HD
ENDBRANCH  20  23
ENDBRANCH  10  14
TORSDOF 3
ENDMDL
MODEL 9
REMARK VINA RESULT:      -6.4      1.260      2.219
REMARK  3 active torsions:
REMARK  status: ('A' for Active; 'I' for Inactive)
REMARK    1  A    between atoms: O_5  and  C_15 
REMARK    2  A    between atoms: N_8  and  C_16 
REMARK    3  A    between atoms: N_12  and  C_21 
ROOT
HETATM    1  P   UNL     1     -48.573  39.377   7.622  1.00  0.00     0.408 P 
HETATM    2  O   UNL     1     -52.099  41.844   7.206  1.00  0.00    -0.353 OA
HETATM    3  O   UNL     1     -48.897  40.453   6.444  1.00  0.00    -0.279 OA
HETATM    4  O   UNL     1     -50.008  39.003   8.287  1.00  0.00    -0.287 OA
HETATM    5  O   UNL     1     -47.827  40.247   8.766  1.00  0.00    -0.624 OA
HETATM    6  O   UNL     1     -47.781  38.185   7.165  1.00  0.00    -0.624 OA
HETATM    7  C   UNL     1     -49.858  41.435   6.760  1.00  0.00     0.198 C 
HETATM    8  C   UNL     1     -51.156  40.775   7.172  1.00  0.00     0.180 C 
HETATM    9  C   UNL     1     -50.330  42.324   5.632  1.00  0.00     0.199 C 
HETATM   10  C   UNL     1     -51.711  42.766   6.151  1.00  0.00     0.262 C 
HETATM   11  C   UNL     1     -50.979  40.033   8.482  1.00  0.00     0.216 C 
ENDROOT
BRANCH   9  12
HETATM   12  O   UNL     1     -50.495  41.559   4.442  1.00  0.00    -0.388 OA
HETATM   13  H   UNL     1     -49.951  41.941   3.734  1.00  0.00     0.210 HD
ENDBRANCH   9  12
BRANCH  10  14
HETATM   14  N   UNL     1     -51.731  44.136   6.668  1.00  0.00    -0.294 N 
HETATM   15  C   UNL     1     -51.557  45.285   5.950  1.00  0.00     0.167 A 
HETATM   16  N   UNL     1     -51.337  45.401   4.633  1.00  0.00    -0.222 NA
HETATM   17  C   UNL     1     -51.659  46.310   6.877  1.00  0.00     0.149 A 
HETATM   18  C   UNL     1     -51.217  46.702   4.286  1.00  0.00     0.237 A 
HETATM   19  N   UNL     1     -51.292  47.801   5.075  1.00  0.00    -0.222 NA
HETATM   20  C   UNL     1     -51.517  47.609   6.396  1.00  0.00     0.155 A 
HETATM   21  N   UNL     1     -51.890  45.808   8.133  1.00  0.00    -0.236 NA
HETATM   22  C   UNL     1     -51.928  44.501   7.974  1.00  0.00     0.214 A 
BRANCH  20  23
HETATM   23  N   UNL     1     -51.605  48.708   7.267  1.00  0.00    -0.382 N 
HETATM   24  H   UNL     1     -50.784  49.131   7.611  1.00  0.00     0.157 HD
HETATM   25  H   UNL     1     -52.486  49.057   7.533  1.00  0.00     0.157 HD
ENDBRANCH  20  23
ENDBRANCH  10  14
TORSDOF 3
ENDMDL
