MODEL 1
REMARK VINA RESULT:      -7.5      0.000      0.000
REMARK  7 active torsions:
REMARK  status: ('A' for Active; 'I' for Inactive)
REMARK    1  A    between atoms: O_1  and  C_2 
REMARK    2  A    between atoms: C_2  and  C_3 
REMARK    3  A    between atoms: C_2  and  C_8 
REMARK    4  A    between atoms: C_3  and  C_4 
REMARK    5  A    between atoms: C_4  and  C_5 
REMARK    6  A    between atoms: C_8  and  C_9 
REMARK    7  A    between atoms: C_11  and  O_15 
ROOT
HETATM    1  O   UNL     1      21.661  -0.805  31.241  1.00  0.00    -0.395 OA
HETATM    2  H   UNL     1      22.282  -0.110  31.511  1.00  0.00     0.210 HD
ENDROOT
BRANCH   1   3
HETATM    3  C   UNL     1      21.825  -1.943  32.086  1.00  0.00     0.122 C 
BRANCH   3   4
HETATM    4  C   UNL     1      21.418  -1.588  33.525  1.00  0.00     0.042 C 
BRANCH   4   5
HETATM    5  C   UNL     1      22.612  -1.358  34.455  1.00  0.00     0.116 C 
BRANCH   5   6
HETATM    6  C   UNL     1      22.331  -1.473  35.931  1.00  0.00     0.172 C 
HETATM    7  O   UNL     1      22.420  -0.562  36.738  1.00  0.00    -0.648 OA
HETATM    8  O   UNL     1      22.046  -2.721  36.355  1.00  0.00    -0.648 OA
ENDBRANCH   5   6
ENDBRANCH   4   5
ENDBRANCH   3   4
BRANCH   3   9
HETATM    9  C   UNL     1      20.976  -3.114  31.553  1.00  0.00     0.070 C 
BRANCH   9  10
HETATM   10  C   UNL     1      21.679  -4.451  31.647  1.00  0.00    -0.053 A 
HETATM   11  C   UNL     1      22.169  -4.912  32.879  1.00  0.00     0.043 A 
HETATM   12  C   UNL     1      22.812  -6.147  32.953  1.00  0.00     0.066 A 
HETATM   13  C   UNL     1      22.980  -6.934  31.821  1.00  0.00     0.036 A 
HETATM   14  C   UNL     1      22.498  -6.484  30.594  1.00  0.00     0.003 A 
HETATM   15  C   UNL     1      21.851  -5.249  30.507  1.00  0.00     0.007 A 
BRANCH  12  16
HETATM   16  O   UNL     1      23.298  -6.625  34.134  1.00  0.00    -0.361 OA
HETATM   17  H   UNL     1      23.787  -6.062  34.702  1.00  0.00     0.217 HD
ENDBRANCH  12  16
ENDBRANCH   9  10
ENDBRANCH   3   9
ENDBRANCH   1   3
TORSDOF 7
ENDMDL
MODEL 2
REMARK VINA RESULT:      -7.2      1.170      1.707
REMARK  7 active torsions:
REMARK  status: ('A' for Active; 'I' for Inactive)
REMARK    1  A    between atoms: O_1  and  C_2 
REMARK    2  A    between atoms: C_2  and  C_3 
REMARK    3  A    between atoms: C_2  and  C_8 
REMARK    4  A    between atoms: C_3  and  C_4 
REMARK    5  A    between atoms: C_4  and  C_5 
REMARK    6  A    between atoms: C_8  and  C_9 
REMARK    7  A    between atoms: C_11  and  O_15 
ROOT
HETATM    1  O   UNL     1      21.637  -0.820  31.249  1.00  0.00    -0.395 OA
HETATM    2  H   UNL     1      22.502  -0.509  30.938  1.00  0.00     0.210 HD
ENDROOT
BRANCH   1   3
HETATM    3  C   UNL     1      21.815  -1.968  32.078  1.00  0.00     0.122 C 
BRANCH   3   4
HETATM    4  C   UNL     1      21.388  -1.642  33.519  1.00  0.00     0.042 C 
BRANCH   4   5
HETATM    5  C   UNL     1      22.560  -1.277  34.432  1.00  0.00     0.116 C 
BRANCH   5   6
HETATM    6  C   UNL     1      22.329  -1.464  35.909  1.00  0.00     0.172 C 
HETATM    7  O   UNL     1      22.453  -0.594  36.757  1.00  0.00    -0.648 OA
HETATM    8  O   UNL     1      22.050  -2.729  36.281  1.00  0.00    -0.648 OA
ENDBRANCH   5   6
ENDBRANCH   4   5
ENDBRANCH   3   4
BRANCH   3   9
HETATM    9  C   UNL     1      20.993  -3.146  31.519  1.00  0.00     0.070 C 
BRANCH   9  10
HETATM   10  C   UNL     1      21.675  -4.486  31.700  1.00  0.00    -0.053 A 
HETATM   11  C   UNL     1      21.792  -5.376  30.622  1.00  0.00     0.043 A 
HETATM   12  C   UNL     1      22.424  -6.606  30.801  1.00  0.00     0.066 A 
HETATM   13  C   UNL     1      22.943  -6.968  32.038  1.00  0.00     0.036 A 
HETATM   14  C   UNL     1      22.831  -6.091  33.114  1.00  0.00     0.003 A 
HETATM   15  C   UNL     1      22.201  -4.856  32.946  1.00  0.00     0.007 A 
BRANCH  12  16
HETATM   16  O   UNL     1      22.556  -7.493  29.774  1.00  0.00    -0.361 OA
HETATM   17  H   UNL     1      22.210  -8.360  29.857  1.00  0.00     0.217 HD
ENDBRANCH  12  16
ENDBRANCH   9  10
ENDBRANCH   3   9
ENDBRANCH   1   3
TORSDOF 7
ENDMDL
MODEL 3
REMARK VINA RESULT:      -7.1      2.741      4.070
REMARK  7 active torsions:
REMARK  status: ('A' for Active; 'I' for Inactive)
REMARK    1  A    between atoms: O_1  and  C_2 
REMARK    2  A    between atoms: C_2  and  C_3 
REMARK    3  A    between atoms: C_2  and  C_8 
REMARK    4  A    between atoms: C_3  and  C_4 
REMARK    5  A    between atoms: C_4  and  C_5 
REMARK    6  A    between atoms: C_8  and  C_9 
REMARK    7  A    between atoms: C_11  and  O_15 
ROOT
HETATM    1  O   UNL     1      21.771  -0.511  32.302  1.00  0.00    -0.395 OA
HETATM    2  H   UNL     1      21.164  -0.027  31.721  1.00  0.00     0.210 HD
ENDROOT
BRANCH   1   3
HETATM    3  C   UNL     1      21.586  -1.914  32.118  1.00  0.00     0.122 C 
BRANCH   3   4
HETATM    4  C   UNL     1      21.706  -2.638  33.469  1.00  0.00     0.042 C 
BRANCH   4   5
HETATM    5  C   UNL     1      21.355  -1.752  34.666  1.00  0.00     0.116 C 
BRANCH   5   6
HETATM    6  C   UNL     1      22.510  -1.333  35.538  1.00  0.00     0.172 C 
HETATM    7  O   UNL     1      22.449  -1.132  36.741  1.00  0.00    -0.648 OA
HETATM    8  O   UNL     1      23.659  -1.093  34.875  1.00  0.00    -0.648 OA
ENDBRANCH   5   6
ENDBRANCH   4   5
ENDBRANCH   3   4
BRANCH   3   9
HETATM    9  C   UNL     1      20.208  -2.179  31.479  1.00  0.00     0.070 C 
BRANCH   9  10
HETATM   10  C   UNL     1      20.295  -2.572  30.019  1.00  0.00    -0.053 A 
HETATM   11  C   UNL     1      19.128  -2.772  29.265  1.00  0.00     0.043 A 
HETATM   12  C   UNL     1      19.222  -3.132  27.921  1.00  0.00     0.066 A 
HETATM   13  C   UNL     1      20.459  -3.298  27.312  1.00  0.00     0.036 A 
HETATM   14  C   UNL     1      21.623  -3.103  28.052  1.00  0.00     0.003 A 
HETATM   15  C   UNL     1      21.541  -2.741  29.399  1.00  0.00     0.007 A 
BRANCH  12  16
HETATM   16  O   UNL     1      18.109  -3.332  27.160  1.00  0.00    -0.361 OA
HETATM   17  H   UNL     1      18.043  -4.093  26.617  1.00  0.00     0.217 HD
ENDBRANCH  12  16
ENDBRANCH   9  10
ENDBRANCH   3   9
ENDBRANCH   1   3
TORSDOF 7
ENDMDL
MODEL 4
REMARK VINA RESULT:      -6.9      3.369      6.212
REMARK  7 active torsions:
REMARK  status: ('A' for Active; 'I' for Inactive)
REMARK    1  A    between atoms: O_1  and  C_2 
REMARK    2  A    between atoms: C_2  and  C_3 
REMARK    3  A    between atoms: C_2  and  C_8 
REMARK    4  A    between atoms: C_3  and  C_4 
REMARK    5  A    between atoms: C_4  and  C_5 
REMARK    6  A    between atoms: C_8  and  C_9 
REMARK    7  A    between atoms: C_11  and  O_15 
ROOT
HETATM    1  O   UNL     1      18.821  -1.625  29.554  1.00  0.00    -0.395 OA
HETATM    2  H   UNL     1      18.021  -1.618  29.006  1.00  0.00     0.210 HD
ENDROOT
BRANCH   1   3
HETATM    3  C   UNL     1      19.368  -2.943  29.580  1.00  0.00     0.122 C 
BRANCH   3   4
HETATM    4  C   UNL     1      19.047  -3.667  28.262  1.00  0.00     0.042 C 
BRANCH   4   5
HETATM    5  C   UNL     1      19.963  -3.259  27.106  1.00  0.00     0.116 C 
BRANCH   5   6
HETATM    6  C   UNL     1      19.466  -2.133  26.236  1.00  0.00     0.172 C 
HETATM    7  O   UNL     1      20.134  -1.535  25.408  1.00  0.00    -0.648 OA
HETATM    8  O   UNL     1      18.203  -1.737  26.493  1.00  0.00    -0.648 OA
ENDBRANCH   5   6
ENDBRANCH   4   5
ENDBRANCH   3   4
BRANCH   3   9
HETATM    9  C   UNL     1      20.891  -2.871  29.805  1.00  0.00     0.070 C 
BRANCH   9  10
HETATM   10  C   UNL     1      21.284  -3.015  31.260  1.00  0.00    -0.053 A 
HETATM   11  C   UNL     1      21.232  -1.910  32.125  1.00  0.00     0.043 A 
HETATM   12  C   UNL     1      21.594  -2.057  33.463  1.00  0.00     0.066 A 
HETATM   13  C   UNL     1      22.011  -3.285  33.959  1.00  0.00     0.036 A 
HETATM   14  C   UNL     1      22.068  -4.387  33.109  1.00  0.00     0.003 A 
HETATM   15  C   UNL     1      21.706  -4.253  31.767  1.00  0.00     0.007 A 
BRANCH  12  16
HETATM   16  O   UNL     1      21.553  -1.004  34.329  1.00  0.00    -0.361 OA
HETATM   17  H   UNL     1      20.979  -0.283  34.163  1.00  0.00     0.217 HD
ENDBRANCH  12  16
ENDBRANCH   9  10
ENDBRANCH   3   9
ENDBRANCH   1   3
TORSDOF 7
ENDMDL
MODEL 5
REMARK VINA RESULT:      -6.9      3.310      6.101
REMARK  7 active torsions:
REMARK  status: ('A' for Active; 'I' for Inactive)
REMARK    1  A    between atoms: O_1  and  C_2 
REMARK    2  A    between atoms: C_2  and  C_3 
REMARK    3  A    between atoms: C_2  and  C_8 
REMARK    4  A    between atoms: C_3  and  C_4 
REMARK    5  A    between atoms: C_4  and  C_5 
REMARK    6  A    between atoms: C_8  and  C_9 
REMARK    7  A    between atoms: C_11  and  O_15 
ROOT
HETATM    1  O   UNL     1      18.777  -1.721  29.623  1.00  0.00    -0.395 OA
HETATM    2  H   UNL     1      18.563  -1.477  30.537  1.00  0.00     0.210 HD
ENDROOT
BRANCH   1   3
HETATM    3  C   UNL     1      19.408  -3.001  29.609  1.00  0.00     0.122 C 
BRANCH   3   4
HETATM    4  C   UNL     1      19.137  -3.701  28.268  1.00  0.00     0.042 C 
BRANCH   4   5
HETATM    5  C   UNL     1      20.057  -3.230  27.139  1.00  0.00     0.116 C 
BRANCH   5   6
HETATM    6  C   UNL     1      19.507  -2.145  26.250  1.00  0.00     0.172 C 
HETATM    7  O   UNL     1      20.141  -1.544  25.397  1.00  0.00    -0.648 OA
HETATM    8  O   UNL     1      18.234  -1.788  26.516  1.00  0.00    -0.648 OA
ENDBRANCH   5   6
ENDBRANCH   4   5
ENDBRANCH   3   4
BRANCH   3   9
HETATM    9  C   UNL     1      20.923  -2.838  29.843  1.00  0.00     0.070 C 
BRANCH   9  10
HETATM   10  C   UNL     1      21.306  -2.876  31.307  1.00  0.00    -0.053 A 
HETATM   11  C   UNL     1      21.659  -4.089  31.919  1.00  0.00     0.043 A 
HETATM   12  C   UNL     1      22.013  -4.109  33.267  1.00  0.00     0.066 A 
HETATM   13  C   UNL     1      22.022  -2.942  34.021  1.00  0.00     0.036 A 
HETATM   14  C   UNL     1      21.673  -1.734  33.422  1.00  0.00     0.003 A 
HETATM   15  C   UNL     1      21.318  -1.701  32.072  1.00  0.00     0.007 A 
BRANCH  12  16
HETATM   16  O   UNL     1      22.361  -5.270  33.892  1.00  0.00    -0.361 OA
HETATM   17  H   UNL     1      21.768  -5.675  34.494  1.00  0.00     0.217 HD
ENDBRANCH  12  16
ENDBRANCH   9  10
ENDBRANCH   3   9
ENDBRANCH   1   3
TORSDOF 7
ENDMDL
MODEL 6
REMARK VINA RESULT:      -6.7      3.218      6.065
REMARK  7 active torsions:
REMARK  status: ('A' for Active; 'I' for Inactive)
REMARK    1  A    between atoms: O_1  and  C_2 
REMARK    2  A    between atoms: C_2  and  C_3 
REMARK    3  A    between atoms: C_2  and  C_8 
REMARK    4  A    between atoms: C_3  and  C_4 
REMARK    5  A    between atoms: C_4  and  C_5 
REMARK    6  A    between atoms: C_8  and  C_9 
REMARK    7  A    between atoms: C_11  and  O_15 
ROOT
HETATM    1  O   UNL     1      19.057  -1.570  28.933  1.00  0.00    -0.395 OA
HETATM    2  H   UNL     1      19.384  -0.717  29.259  1.00  0.00     0.210 HD
ENDROOT
BRANCH   1   3
HETATM    3  C   UNL     1      19.347  -2.588  29.890  1.00  0.00     0.122 C 
BRANCH   3   4
HETATM    4  C   UNL     1      18.752  -3.927  29.424  1.00  0.00     0.042 C 
BRANCH   4   5
HETATM    5  C   UNL     1      19.693  -4.729  28.521  1.00  0.00     0.116 C 
BRANCH   5   6
HETATM    6  C   UNL     1      19.528  -4.511  27.039  1.00  0.00     0.172 C 
HETATM    7  O   UNL     1      19.479  -3.424  26.487  1.00  0.00    -0.648 OA
HETATM    8  O   UNL     1      19.338  -5.637  26.322  1.00  0.00    -0.648 OA
ENDBRANCH   5   6
ENDBRANCH   4   5
ENDBRANCH   3   4
BRANCH   3   9
HETATM    9  C   UNL     1      20.873  -2.706  30.078  1.00  0.00     0.070 C 
BRANCH   9  10
HETATM   10  C   UNL     1      21.282  -2.869  31.526  1.00  0.00    -0.053 A 
HETATM   11  C   UNL     1      21.220  -1.782  32.411  1.00  0.00     0.043 A 
HETATM   12  C   UNL     1      21.598  -1.946  33.743  1.00  0.00     0.066 A 
HETATM   13  C   UNL     1      22.039  -3.177  34.213  1.00  0.00     0.036 A 
HETATM   14  C   UNL     1      22.106  -4.262  33.342  1.00  0.00     0.003 A 
HETATM   15  C   UNL     1      21.729  -4.109  32.006  1.00  0.00     0.007 A 
BRANCH  12  16
HETATM   16  O   UNL     1      21.547  -0.911  34.629  1.00  0.00    -0.361 OA
HETATM   17  H   UNL     1      21.834  -0.058  34.369  1.00  0.00     0.217 HD
ENDBRANCH  12  16
ENDBRANCH   9  10
ENDBRANCH   3   9
ENDBRANCH   1   3
TORSDOF 7
ENDMDL
MODEL 7
REMARK VINA RESULT:      -6.7      3.379      6.143
REMARK  7 active torsions:
REMARK  status: ('A' for Active; 'I' for Inactive)
REMARK    1  A    between atoms: O_1  and  C_2 
REMARK    2  A    between atoms: C_2  and  C_3 
REMARK    3  A    between atoms: C_2  and  C_8 
REMARK    4  A    between atoms: C_3  and  C_4 
REMARK    5  A    between atoms: C_4  and  C_5 
REMARK    6  A    between atoms: C_8  and  C_9 
REMARK    7  A    between atoms: C_11  and  O_15 
ROOT
HETATM    1  O   UNL     1      19.035  -1.575  28.793  1.00  0.00    -0.395 OA
HETATM    2  H   UNL     1      18.104  -1.640  28.532  1.00  0.00     0.210 HD
ENDROOT
BRANCH   1   3
HETATM    3  C   UNL     1      19.319  -2.554  29.791  1.00  0.00     0.122 C 
BRANCH   3   4
HETATM    4  C   UNL     1      18.694  -3.901  29.394  1.00  0.00     0.042 C 
BRANCH   4   5
HETATM    5  C   UNL     1      19.394  -4.569  28.208  1.00  0.00     0.116 C 
BRANCH   5   6
HETATM    6  C   UNL     1      18.707  -4.432  26.874  1.00  0.00     0.172 C 
HETATM    7  O   UNL     1      18.229  -5.352  26.229  1.00  0.00    -0.648 OA
HETATM    8  O   UNL     1      18.726  -3.188  26.355  1.00  0.00    -0.648 OA
ENDBRANCH   5   6
ENDBRANCH   4   5
ENDBRANCH   3   4
BRANCH   3   9
HETATM    9  C   UNL     1      20.844  -2.692  29.968  1.00  0.00     0.070 C 
BRANCH   9  10
HETATM   10  C   UNL     1      21.269  -2.792  31.417  1.00  0.00    -0.053 A 
HETATM   11  C   UNL     1      21.647  -4.028  31.965  1.00  0.00     0.043 A 
HETATM   12  C   UNL     1      22.038  -4.107  33.300  1.00  0.00     0.066 A 
HETATM   13  C   UNL     1      22.060  -2.975  34.106  1.00  0.00     0.036 A 
HETATM   14  C   UNL     1      21.685  -1.744  33.572  1.00  0.00     0.003 A 
HETATM   15  C   UNL     1      21.293  -1.653  32.235  1.00  0.00     0.007 A 
BRANCH  12  16
HETATM   16  O   UNL     1      22.413  -5.291  33.862  1.00  0.00    -0.361 OA
HETATM   17  H   UNL     1      23.286  -5.608  33.749  1.00  0.00     0.217 HD
ENDBRANCH  12  16
ENDBRANCH   9  10
ENDBRANCH   3   9
ENDBRANCH   1   3
TORSDOF 7
ENDMDL
MODEL 8
REMARK VINA RESULT:      -6.6      2.033      6.116
REMARK  7 active torsions:
REMARK  status: ('A' for Active; 'I' for Inactive)
REMARK    1  A    between atoms: O_1  and  C_2 
REMARK    2  A    between atoms: C_2  and  C_3 
REMARK    3  A    between atoms: C_2  and  C_8 
REMARK    4  A    between atoms: C_3  and  C_4 
REMARK    5  A    between atoms: C_4  and  C_5 
REMARK    6  A    between atoms: C_8  and  C_9 
REMARK    7  A    between atoms: C_11  and  O_15 
ROOT
HETATM    1  O   UNL     1      23.614  -6.900  34.296  1.00  0.00    -0.395 OA
HETATM    2  H   UNL     1      23.202  -6.449  35.050  1.00  0.00     0.210 HD
ENDROOT
BRANCH   1   3
HETATM    3  C   UNL     1      23.043  -6.414  33.082  1.00  0.00     0.122 C 
BRANCH   3   4
HETATM    4  C   UNL     1      22.738  -7.591  32.141  1.00  0.00     0.042 C 
BRANCH   4   5
HETATM    5  C   UNL     1      23.609  -7.604  30.883  1.00  0.00     0.116 C 
BRANCH   5   6
HETATM    6  C   UNL     1      24.662  -8.680  30.820  1.00  0.00     0.172 C 
HETATM    7  O   UNL     1      24.953  -9.324  29.825  1.00  0.00    -0.648 OA
HETATM    8  O   UNL     1      25.238  -8.975  32.003  1.00  0.00    -0.648 OA
ENDBRANCH   5   6
ENDBRANCH   4   5
ENDBRANCH   3   4
BRANCH   3   9
HETATM    9  C   UNL     1      21.761  -5.617  33.392  1.00  0.00     0.070 C 
BRANCH   9  10
HETATM   10  C   UNL     1      21.607  -4.380  32.533  1.00  0.00    -0.053 A 
HETATM   11  C   UNL     1      21.719  -3.101  33.100  1.00  0.00     0.043 A 
HETATM   12  C   UNL     1      21.578  -1.969  32.298  1.00  0.00     0.066 A 
HETATM   13  C   UNL     1      21.325  -2.086  30.937  1.00  0.00     0.036 A 
HETATM   14  C   UNL     1      21.210  -3.351  30.365  1.00  0.00     0.003 A 
HETATM   15  C   UNL     1      21.351  -4.492  31.159  1.00  0.00     0.007 A 
BRANCH  12  16
HETATM   16  O   UNL     1      21.682  -0.713  32.817  1.00  0.00    -0.361 OA
HETATM   17  H   UNL     1      21.866  -0.596  33.729  1.00  0.00     0.217 HD
ENDBRANCH  12  16
ENDBRANCH   9  10
ENDBRANCH   3   9
ENDBRANCH   1   3
TORSDOF 7
ENDMDL
MODEL 9
REMARK VINA RESULT:      -6.5      2.314      3.053
REMARK  7 active torsions:
REMARK  status: ('A' for Active; 'I' for Inactive)
REMARK    1  A    between atoms: O_1  and  C_2 
REMARK    2  A    between atoms: C_2  and  C_3 
REMARK    3  A    between atoms: C_2  and  C_8 
REMARK    4  A    between atoms: C_3  and  C_4 
REMARK    5  A    between atoms: C_4  and  C_5 
REMARK    6  A    between atoms: C_8  and  C_9 
REMARK    7  A    between atoms: C_11  and  O_15 
ROOT
HETATM    1  O   UNL     1      21.713  -0.535  31.837  1.00  0.00    -0.395 OA
HETATM    2  H   UNL     1      20.919  -0.133  31.452  1.00  0.00     0.210 HD
ENDROOT
BRANCH   1   3
HETATM    3  C   UNL     1      21.538  -1.949  31.922  1.00  0.00     0.122 C 
BRANCH   3   4
HETATM    4  C   UNL     1      21.562  -2.390  33.394  1.00  0.00     0.042 C 
BRANCH   4   5
HETATM    5  C   UNL     1      22.278  -1.398  34.314  1.00  0.00     0.116 C 
BRANCH   5   6
HETATM    6  C   UNL     1      22.225  -1.708  35.788  1.00  0.00     0.172 C 
HETATM    7  O   UNL     1      21.944  -2.794  36.269  1.00  0.00    -0.648 OA
HETATM    8  O   UNL     1      22.426  -0.647  36.595  1.00  0.00    -0.648 OA
ENDBRANCH   5   6
ENDBRANCH   4   5
ENDBRANCH   3   4
BRANCH   3   9
HETATM    9  C   UNL     1      20.208  -2.350  31.254  1.00  0.00     0.070 C 
BRANCH   9  10
HETATM   10  C   UNL     1      20.382  -3.353  30.134  1.00  0.00    -0.053 A 
HETATM   11  C   UNL     1      21.660  -3.639  29.627  1.00  0.00     0.043 A 
HETATM   12  C   UNL     1      21.807  -4.567  28.597  1.00  0.00     0.066 A 
HETATM   13  C   UNL     1      20.704  -5.217  28.058  1.00  0.00     0.036 A 
HETATM   14  C   UNL     1      19.432  -4.938  28.554  1.00  0.00     0.003 A 
HETATM   15  C   UNL     1      19.272  -4.012  29.587  1.00  0.00     0.007 A 
BRANCH  12  16
HETATM   16  O   UNL     1      23.034  -4.869  28.084  1.00  0.00    -0.361 OA
HETATM   17  H   UNL     1      23.794  -4.821  28.628  1.00  0.00     0.217 HD
ENDBRANCH  12  16
ENDBRANCH   9  10
ENDBRANCH   3   9
ENDBRANCH   1   3
TORSDOF 7
ENDMDL
