MODEL 1
REMARK VINA RESULT:      -7.7      0.000      0.000
REMARK  7 active torsions:
REMARK  status: ('A' for Active; 'I' for Inactive)
REMARK    1  A    between atoms: O_1  and  C_2 
REMARK    2  A    between atoms: C_2  and  C_3 
REMARK    3  A    between atoms: C_2  and  C_8 
REMARK    4  A    between atoms: C_3  and  C_4 
REMARK    5  A    between atoms: C_4  and  C_5 
REMARK    6  A    between atoms: C_8  and  C_9 
REMARK    7  A    between atoms: C_11  and  O_15 
ROOT
HETATM    1  O   UNL     1      11.170   4.646  11.600  1.00  0.00    -0.395 OA
HETATM    2  H   UNL     1      11.153   4.877  12.542  1.00  0.00     0.210 HD
ENDROOT
BRANCH   1   3
HETATM    3  C   UNL     1      12.366   5.151  11.009  1.00  0.00     0.122 C 
BRANCH   3   4
HETATM    4  C   UNL     1      12.028   5.917   9.719  1.00  0.00     0.042 C 
BRANCH   4   5
HETATM    5  C   UNL     1      12.486   5.198   8.448  1.00  0.00     0.116 C 
BRANCH   5   6
HETATM    6  C   UNL     1      12.714   6.073   7.242  1.00  0.00     0.172 C 
HETATM    7  O   UNL     1      13.645   6.849   7.100  1.00  0.00    -0.648 OA
HETATM    8  O   UNL     1      11.738   6.018   6.313  1.00  0.00    -0.648 OA
ENDBRANCH   5   6
ENDBRANCH   4   5
ENDBRANCH   3   4
BRANCH   3   9
HETATM    9  C   UNL     1      13.097   6.067  12.010  1.00  0.00     0.070 C 
BRANCH   9  10
HETATM   10  C   UNL     1      14.602   5.916  11.968  1.00  0.00    -0.053 A 
HETATM   11  C   UNL     1      15.301   6.081  10.761  1.00  0.00     0.043 A 
HETATM   12  C   UNL     1      16.687   5.941  10.736  1.00  0.00     0.066 A 
HETATM   13  C   UNL     1      17.396   5.637  11.892  1.00  0.00     0.036 A 
HETATM   14  C   UNL     1      16.711   5.471  13.094  1.00  0.00     0.003 A 
HETATM   15  C   UNL     1      15.322   5.610  13.131  1.00  0.00     0.007 A 
BRANCH  12  16
HETATM   16  O   UNL     1      17.396   6.096   9.581  1.00  0.00    -0.361 OA
HETATM   17  H   UNL     1      17.488   6.946   9.198  1.00  0.00     0.217 HD
ENDBRANCH  12  16
ENDBRANCH   9  10
ENDBRANCH   3   9
ENDBRANCH   1   3
TORSDOF 7
ENDMDL
MODEL 2
REMARK VINA RESULT:      -7.6      2.420      3.766
REMARK  7 active torsions:
REMARK  status: ('A' for Active; 'I' for Inactive)
REMARK    1  A    between atoms: O_1  and  C_2 
REMARK    2  A    between atoms: C_2  and  C_3 
REMARK    3  A    between atoms: C_2  and  C_8 
REMARK    4  A    between atoms: C_3  and  C_4 
REMARK    5  A    between atoms: C_4  and  C_5 
REMARK    6  A    between atoms: C_8  and  C_9 
REMARK    7  A    between atoms: C_11  and  O_15 
ROOT
HETATM    1  O   UNL     1      11.231   4.748  10.678  1.00  0.00    -0.395 OA
HETATM    2  H   UNL     1      11.154   3.896  11.134  1.00  0.00     0.210 HD
ENDROOT
BRANCH   1   3
HETATM    3  C   UNL     1      12.392   5.435  11.145  1.00  0.00     0.122 C 
BRANCH   3   4
HETATM    4  C   UNL     1      13.182   5.994   9.951  1.00  0.00     0.042 C 
BRANCH   4   5
HETATM    5  C   UNL     1      12.291   6.483   8.807  1.00  0.00     0.116 C 
BRANCH   5   6
HETATM    6  C   UNL     1      12.351   5.680   7.534  1.00  0.00     0.172 C 
HETATM    7  O   UNL     1      12.154   6.121   6.412  1.00  0.00    -0.648 OA
HETATM    8  O   UNL     1      12.555   4.359   7.709  1.00  0.00    -0.648 OA
ENDBRANCH   5   6
ENDBRANCH   4   5
ENDBRANCH   3   4
BRANCH   3   9
HETATM    9  C   UNL     1      11.976   6.569  12.102  1.00  0.00     0.070 C 
BRANCH   9  10
HETATM   10  C   UNL     1      12.690   6.513  13.436  1.00  0.00    -0.053 A 
HETATM   11  C   UNL     1      11.987   6.733  14.630  1.00  0.00     0.043 A 
HETATM   12  C   UNL     1      12.656   6.676  15.852  1.00  0.00     0.066 A 
HETATM   13  C   UNL     1      14.017   6.405  15.909  1.00  0.00     0.036 A 
HETATM   14  C   UNL     1      14.725   6.187  14.728  1.00  0.00     0.003 A 
HETATM   15  C   UNL     1      14.065   6.240  13.499  1.00  0.00     0.007 A 
BRANCH  12  16
HETATM   16  O   UNL     1      12.002   6.883  17.030  1.00  0.00    -0.361 OA
HETATM   17  H   UNL     1      12.474   6.859  17.839  1.00  0.00     0.217 HD
ENDBRANCH  12  16
ENDBRANCH   9  10
ENDBRANCH   3   9
ENDBRANCH   1   3
TORSDOF 7
ENDMDL
MODEL 3
REMARK VINA RESULT:      -7.5      1.180      1.897
REMARK  7 active torsions:
REMARK  status: ('A' for Active; 'I' for Inactive)
REMARK    1  A    between atoms: O_1  and  C_2 
REMARK    2  A    between atoms: C_2  and  C_3 
REMARK    3  A    between atoms: C_2  and  C_8 
REMARK    4  A    between atoms: C_3  and  C_4 
REMARK    5  A    between atoms: C_4  and  C_5 
REMARK    6  A    between atoms: C_8  and  C_9 
REMARK    7  A    between atoms: C_11  and  O_15 
ROOT
HETATM    1  O   UNL     1      11.170   4.665  11.631  1.00  0.00    -0.395 OA
HETATM    2  H   UNL     1      10.955   5.218  12.399  1.00  0.00     0.210 HD
ENDROOT
BRANCH   1   3
HETATM    3  C   UNL     1      12.352   5.162  11.005  1.00  0.00     0.122 C 
BRANCH   3   4
HETATM    4  C   UNL     1      11.984   5.903   9.709  1.00  0.00     0.042 C 
BRANCH   4   5
HETATM    5  C   UNL     1      12.522   5.224   8.447  1.00  0.00     0.116 C 
BRANCH   5   6
HETATM    6  C   UNL     1      12.551   6.073   7.203  1.00  0.00     0.172 C 
HETATM    7  O   UNL     1      11.711   6.055   6.317  1.00  0.00    -0.648 OA
HETATM    8  O   UNL     1      13.657   6.831   7.063  1.00  0.00    -0.648 OA
ENDBRANCH   5   6
ENDBRANCH   4   5
ENDBRANCH   3   4
BRANCH   3   9
HETATM    9  C   UNL     1      13.102   6.097  11.974  1.00  0.00     0.070 C 
BRANCH   9  10
HETATM   10  C   UNL     1      14.606   5.955  11.894  1.00  0.00    -0.053 A 
HETATM   11  C   UNL     1      15.349   5.597  13.031  1.00  0.00     0.043 A 
HETATM   12  C   UNL     1      16.734   5.466  12.944  1.00  0.00     0.066 A 
HETATM   13  C   UNL     1      17.398   5.686  11.743  1.00  0.00     0.036 A 
HETATM   14  C   UNL     1      16.670   6.043  10.610  1.00  0.00     0.003 A 
HETATM   15  C   UNL     1      15.282   6.176  10.685  1.00  0.00     0.007 A 
BRANCH  12  16
HETATM   16  O   UNL     1      17.484   5.118  14.028  1.00  0.00    -0.361 OA
HETATM   17  H   UNL     1      18.058   5.746  14.421  1.00  0.00     0.217 HD
ENDBRANCH  12  16
ENDBRANCH   9  10
ENDBRANCH   3   9
ENDBRANCH   1   3
TORSDOF 7
ENDMDL
MODEL 4
REMARK VINA RESULT:      -7.4      1.051      1.241
REMARK  7 active torsions:
REMARK  status: ('A' for Active; 'I' for Inactive)
REMARK    1  A    between atoms: O_1  and  C_2 
REMARK    2  A    between atoms: C_2  and  C_3 
REMARK    3  A    between atoms: C_2  and  C_8 
REMARK    4  A    between atoms: C_3  and  C_4 
REMARK    5  A    between atoms: C_4  and  C_5 
REMARK    6  A    between atoms: C_8  and  C_9 
REMARK    7  A    between atoms: C_11  and  O_15 
ROOT
HETATM    1  O   UNL     1      12.225   5.191  12.812  1.00  0.00    -0.395 OA
HETATM    2  H   UNL     1      12.281   6.043  13.271  1.00  0.00     0.210 HD
ENDROOT
BRANCH   1   3
HETATM    3  C   UNL     1      12.948   5.264  11.583  1.00  0.00     0.122 C 
BRANCH   3   4
HETATM    4  C   UNL     1      11.966   5.315  10.402  1.00  0.00     0.042 C 
BRANCH   4   5
HETATM    5  C   UNL     1      12.433   6.223   9.262  1.00  0.00     0.116 C 
BRANCH   5   6
HETATM    6  C   UNL     1      12.726   5.539   7.952  1.00  0.00     0.172 C 
HETATM    7  O   UNL     1      12.626   4.340   7.745  1.00  0.00    -0.648 OA
HETATM    8  O   UNL     1      13.217   6.347   6.991  1.00  0.00    -0.648 OA
ENDBRANCH   5   6
ENDBRANCH   4   5
ENDBRANCH   3   4
BRANCH   3   9
HETATM    9  C   UNL     1      13.859   6.508  11.589  1.00  0.00     0.070 C 
BRANCH   9  10
HETATM   10  C   UNL     1      15.334   6.165  11.561  1.00  0.00    -0.053 A 
HETATM   11  C   UNL     1      16.051   6.207  10.355  1.00  0.00     0.043 A 
HETATM   12  C   UNL     1      17.409   5.892  10.343  1.00  0.00     0.066 A 
HETATM   13  C   UNL     1      18.070   5.533  11.512  1.00  0.00     0.036 A 
HETATM   14  C   UNL     1      17.366   5.488  12.713  1.00  0.00     0.003 A 
HETATM   15  C   UNL     1      16.005   5.803  12.737  1.00  0.00     0.007 A 
BRANCH  12  16
HETATM   16  O   UNL     1      18.136   5.924   9.189  1.00  0.00    -0.361 OA
HETATM   17  H   UNL     1      18.086   5.210   8.585  1.00  0.00     0.217 HD
ENDBRANCH  12  16
ENDBRANCH   9  10
ENDBRANCH   3   9
ENDBRANCH   1   3
TORSDOF 7
ENDMDL
MODEL 5
REMARK VINA RESULT:      -6.8      2.438      3.048
REMARK  7 active torsions:
REMARK  status: ('A' for Active; 'I' for Inactive)
REMARK    1  A    between atoms: O_1  and  C_2 
REMARK    2  A    between atoms: C_2  and  C_3 
REMARK    3  A    between atoms: C_2  and  C_8 
REMARK    4  A    between atoms: C_3  and  C_4 
REMARK    5  A    between atoms: C_4  and  C_5 
REMARK    6  A    between atoms: C_8  and  C_9 
REMARK    7  A    between atoms: C_11  and  O_15 
ROOT
HETATM    1  O   UNL     1      11.039   4.862  10.892  1.00  0.00    -0.395 OA
HETATM    2  H   UNL     1      10.361   5.442  11.274  1.00  0.00     0.210 HD
ENDROOT
BRANCH   1   3
HETATM    3  C   UNL     1      12.332   5.319  11.287  1.00  0.00     0.122 C 
BRANCH   3   4
HETATM    4  C   UNL     1      13.065   5.919  10.076  1.00  0.00     0.042 C 
BRANCH   4   5
HETATM    5  C   UNL     1      12.124   6.352   8.949  1.00  0.00     0.116 C 
BRANCH   5   6
HETATM    6  C   UNL     1      12.330   5.672   7.620  1.00  0.00     0.172 C 
HETATM    7  O   UNL     1      12.146   6.188   6.529  1.00  0.00    -0.648 OA
HETATM    8  O   UNL     1      12.660   4.367   7.698  1.00  0.00    -0.648 OA
ENDBRANCH   5   6
ENDBRANCH   4   5
ENDBRANCH   3   4
BRANCH   3   9
HETATM    9  C   UNL     1      12.195   6.363  12.412  1.00  0.00     0.070 C 
BRANCH   9  10
HETATM   10  C   UNL     1      13.117   6.101  13.583  1.00  0.00    -0.053 A 
HETATM   11  C   UNL     1      13.734   4.850  13.737  1.00  0.00     0.043 A 
HETATM   12  C   UNL     1      14.584   4.621  14.818  1.00  0.00     0.066 A 
HETATM   13  C   UNL     1      14.831   5.618  15.755  1.00  0.00     0.036 A 
HETATM   14  C   UNL     1      14.222   6.862  15.612  1.00  0.00     0.003 A 
HETATM   15  C   UNL     1      13.370   7.103  14.531  1.00  0.00     0.007 A 
BRANCH  12  16
HETATM   16  O   UNL     1      15.200   3.418  14.996  1.00  0.00    -0.361 OA
HETATM   17  H   UNL     1      14.926   2.849  15.687  1.00  0.00     0.217 HD
ENDBRANCH  12  16
ENDBRANCH   9  10
ENDBRANCH   3   9
ENDBRANCH   1   3
TORSDOF 7
ENDMDL
MODEL 6
REMARK VINA RESULT:      -6.7      3.253      6.042
REMARK  7 active torsions:
REMARK  status: ('A' for Active; 'I' for Inactive)
REMARK    1  A    between atoms: O_1  and  C_2 
REMARK    2  A    between atoms: C_2  and  C_3 
REMARK    3  A    between atoms: C_2  and  C_8 
REMARK    4  A    between atoms: C_3  and  C_4 
REMARK    5  A    between atoms: C_4  and  C_5 
REMARK    6  A    between atoms: C_8  and  C_9 
REMARK    7  A    between atoms: C_11  and  O_15 
ROOT
HETATM    1  O   UNL     1      11.186   6.188  14.997  1.00  0.00    -0.395 OA
HETATM    2  H   UNL     1      11.528   5.376  15.402  1.00  0.00     0.210 HD
ENDROOT
BRANCH   1   3
HETATM    3  C   UNL     1      12.085   6.627  13.979  1.00  0.00     0.122 C 
BRANCH   3   4
HETATM    4  C   UNL     1      13.201   7.482  14.601  1.00  0.00     0.042 C 
BRANCH   4   5
HETATM    5  C   UNL     1      14.302   6.653  15.265  1.00  0.00     0.116 C 
BRANCH   5   6
HETATM    6  C   UNL     1      14.226   6.535  16.766  1.00  0.00     0.172 C 
HETATM    7  O   UNL     1      13.200   6.375  17.409  1.00  0.00    -0.648 OA
HETATM    8  O   UNL     1      15.399   6.714  17.406  1.00  0.00    -0.648 OA
ENDBRANCH   5   6
ENDBRANCH   4   5
ENDBRANCH   3   4
BRANCH   3   9
HETATM    9  C   UNL     1      12.677   5.407  13.246  1.00  0.00     0.070 C 
BRANCH   9  10
HETATM   10  C   UNL     1      13.077   5.707  11.818  1.00  0.00    -0.053 A 
HETATM   11  C   UNL     1      12.106   5.779  10.806  1.00  0.00     0.043 A 
HETATM   12  C   UNL     1      12.487   6.059   9.495  1.00  0.00     0.066 A 
HETATM   13  C   UNL     1      13.821   6.269   9.169  1.00  0.00     0.036 A 
HETATM   14  C   UNL     1      14.792   6.199  10.165  1.00  0.00     0.003 A 
HETATM   15  C   UNL     1      14.422   5.920  11.483  1.00  0.00     0.007 A 
BRANCH  12  16
HETATM   16  O   UNL     1      11.569   6.137   8.490  1.00  0.00    -0.361 OA
HETATM   17  H   UNL     1      11.848   6.094   7.597  1.00  0.00     0.217 HD
ENDBRANCH  12  16
ENDBRANCH   9  10
ENDBRANCH   3   9
ENDBRANCH   1   3
TORSDOF 7
ENDMDL
MODEL 7
REMARK VINA RESULT:      -6.7      2.546      4.441
REMARK  7 active torsions:
REMARK  status: ('A' for Active; 'I' for Inactive)
REMARK    1  A    between atoms: O_1  and  C_2 
REMARK    2  A    between atoms: C_2  and  C_3 
REMARK    3  A    between atoms: C_2  and  C_8 
REMARK    4  A    between atoms: C_3  and  C_4 
REMARK    5  A    between atoms: C_4  and  C_5 
REMARK    6  A    between atoms: C_8  and  C_9 
REMARK    7  A    between atoms: C_11  and  O_15 
ROOT
HETATM    1  O   UNL     1      11.249   4.951  10.368  1.00  0.00    -0.395 OA
HETATM    2  H   UNL     1      11.508   4.152   9.882  1.00  0.00     0.210 HD
ENDROOT
BRANCH   1   3
HETATM    3  C   UNL     1      12.399   5.525  10.987  1.00  0.00     0.122 C 
BRANCH   3   4
HETATM    4  C   UNL     1      13.262   6.233   9.929  1.00  0.00     0.042 C 
BRANCH   4   5
HETATM    5  C   UNL     1      14.734   5.817   9.969  1.00  0.00     0.116 C 
BRANCH   5   6
HETATM    6  C   UNL     1      15.695   6.844  10.510  1.00  0.00     0.172 C 
HETATM    7  O   UNL     1      15.745   7.221  11.670  1.00  0.00    -0.648 OA
HETATM    8  O   UNL     1      16.482   7.425   9.582  1.00  0.00    -0.648 OA
ENDBRANCH   5   6
ENDBRANCH   4   5
ENDBRANCH   3   4
BRANCH   3   9
HETATM    9  C   UNL     1      11.961   6.514  12.085  1.00  0.00     0.070 C 
BRANCH   9  10
HETATM   10  C   UNL     1      12.560   6.203  13.440  1.00  0.00    -0.053 A 
HETATM   11  C   UNL     1      12.026   6.778  14.603  1.00  0.00     0.043 A 
HETATM   12  C   UNL     1      12.585   6.481  15.845  1.00  0.00     0.066 A 
HETATM   13  C   UNL     1      13.670   5.620  15.952  1.00  0.00     0.036 A 
HETATM   14  C   UNL     1      14.208   5.045  14.803  1.00  0.00     0.003 A 
HETATM   15  C   UNL     1      13.655   5.334  13.554  1.00  0.00     0.007 A 
BRANCH  12  16
HETATM   16  O   UNL     1      12.090   7.021  16.995  1.00  0.00    -0.361 OA
HETATM   17  H   UNL     1      11.344   6.636  17.410  1.00  0.00     0.217 HD
ENDBRANCH  12  16
ENDBRANCH   9  10
ENDBRANCH   3   9
ENDBRANCH   1   3
TORSDOF 7
ENDMDL
MODEL 8
REMARK VINA RESULT:      -6.6      3.260      5.932
REMARK  7 active torsions:
REMARK  status: ('A' for Active; 'I' for Inactive)
REMARK    1  A    between atoms: O_1  and  C_2 
REMARK    2  A    between atoms: C_2  and  C_3 
REMARK    3  A    between atoms: C_2  and  C_8 
REMARK    4  A    between atoms: C_3  and  C_4 
REMARK    5  A    between atoms: C_4  and  C_5 
REMARK    6  A    between atoms: C_8  and  C_9 
REMARK    7  A    between atoms: C_11  and  O_15 
ROOT
HETATM    1  O   UNL     1      11.265   6.255  15.193  1.00  0.00    -0.395 OA
HETATM    2  H   UNL     1      10.454   5.877  14.820  1.00  0.00     0.210 HD
ENDROOT
BRANCH   1   3
HETATM    3  C   UNL     1      12.130   6.662  14.133  1.00  0.00     0.122 C 
BRANCH   3   4
HETATM    4  C   UNL     1      13.258   7.546  14.691  1.00  0.00     0.042 C 
BRANCH   4   5
HETATM    5  C   UNL     1      14.428   6.745  15.268  1.00  0.00     0.116 C 
BRANCH   5   6
HETATM    6  C   UNL     1      14.391   6.502  16.755  1.00  0.00     0.172 C 
HETATM    7  O   UNL     1      13.379   6.455  17.437  1.00  0.00    -0.648 OA
HETATM    8  O   UNL     1      15.601   6.422  17.344  1.00  0.00    -0.648 OA
ENDBRANCH   5   6
ENDBRANCH   4   5
ENDBRANCH   3   4
BRANCH   3   9
HETATM    9  C   UNL     1      12.709   5.421  13.427  1.00  0.00     0.070 C 
BRANCH   9  10
HETATM   10  C   UNL     1      13.037   5.664  11.969  1.00  0.00    -0.053 A 
HETATM   11  C   UNL     1      14.360   5.908  11.568  1.00  0.00     0.043 A 
HETATM   12  C   UNL     1      14.649   6.128  10.222  1.00  0.00     0.066 A 
HETATM   13  C   UNL     1      13.643   6.111   9.264  1.00  0.00     0.036 A 
HETATM   14  C   UNL     1      12.327   5.871   9.653  1.00  0.00     0.003 A 
HETATM   15  C   UNL     1      12.026   5.648  10.998  1.00  0.00     0.007 A 
BRANCH  12  16
HETATM   16  O   UNL     1      15.923   6.366   9.799  1.00  0.00    -0.361 OA
HETATM   17  H   UNL     1      16.647   5.987  10.257  1.00  0.00     0.217 HD
ENDBRANCH  12  16
ENDBRANCH   9  10
ENDBRANCH   3   9
ENDBRANCH   1   3
TORSDOF 7
ENDMDL
MODEL 9
REMARK VINA RESULT:      -6.5      1.828      3.689
REMARK  7 active torsions:
REMARK  status: ('A' for Active; 'I' for Inactive)
REMARK    1  A    between atoms: O_1  and  C_2 
REMARK    2  A    between atoms: C_2  and  C_3 
REMARK    3  A    between atoms: C_2  and  C_8 
REMARK    4  A    between atoms: C_3  and  C_4 
REMARK    5  A    between atoms: C_4  and  C_5 
REMARK    6  A    between atoms: C_8  and  C_9 
REMARK    7  A    between atoms: C_11  and  O_15 
ROOT
HETATM    1  O   UNL     1      15.855   5.877   9.730  1.00  0.00    -0.395 OA
HETATM    2  H   UNL     1      16.707   6.023  10.169  1.00  0.00     0.210 HD
ENDROOT
BRANCH   1   3
HETATM    3  C   UNL     1      14.829   6.567  10.442  1.00  0.00     0.122 C 
BRANCH   3   4
HETATM    4  C   UNL     1      13.540   5.729  10.442  1.00  0.00     0.042 C 
BRANCH   4   5
HETATM    5  C   UNL     1      12.548   6.140   9.352  1.00  0.00     0.116 C 
BRANCH   5   6
HETATM    6  C   UNL     1      12.790   5.553   7.985  1.00  0.00     0.172 C 
HETATM    7  O   UNL     1      12.669   4.374   7.693  1.00  0.00    -0.648 OA
HETATM    8  O   UNL     1      13.259   6.426   7.071  1.00  0.00    -0.648 OA
ENDBRANCH   5   6
ENDBRANCH   4   5
ENDBRANCH   3   4
BRANCH   3   9
HETATM    9  C   UNL     1      15.295   6.849  11.884  1.00  0.00     0.070 C 
BRANCH   9  10
HETATM   10  C   UNL     1      14.455   6.148  12.930  1.00  0.00    -0.053 A 
HETATM   11  C   UNL     1      13.220   6.684  13.328  1.00  0.00     0.043 A 
HETATM   12  C   UNL     1      12.454   6.027  14.289  1.00  0.00     0.066 A 
HETATM   13  C   UNL     1      12.895   4.843  14.867  1.00  0.00     0.036 A 
HETATM   14  C   UNL     1      14.120   4.304  14.479  1.00  0.00     0.003 A 
HETATM   15  C   UNL     1      14.895   4.952  13.515  1.00  0.00     0.007 A 
BRANCH  12  16
HETATM   16  O   UNL     1      11.250   6.520  14.697  1.00  0.00    -0.361 OA
HETATM   17  H   UNL     1      11.013   6.489  15.602  1.00  0.00     0.217 HD
ENDBRANCH  12  16
ENDBRANCH   9  10
ENDBRANCH   3   9
ENDBRANCH   1   3
TORSDOF 7
ENDMDL
