MODEL 1
REMARK VINA RESULT:      -7.8      0.000      0.000
REMARK  7 active torsions:
REMARK  status: ('A' for Active; 'I' for Inactive)
REMARK    1  A    between atoms: O_1  and  C_2 
REMARK    2  A    between atoms: C_2  and  C_3 
REMARK    3  A    between atoms: C_2  and  C_8 
REMARK    4  A    between atoms: C_3  and  C_4 
REMARK    5  A    between atoms: C_4  and  C_5 
REMARK    6  A    between atoms: C_8  and  C_9 
REMARK    7  A    between atoms: C_11  and  O_15 
ROOT
HETATM    1  O   UNL     1      11.181   4.796  11.598  1.00  0.00    -0.395 OA
HETATM    2  H   UNL     1      10.702   5.559  11.957  1.00  0.00     0.210 HD
ENDROOT
BRANCH   1   3
HETATM    3  C   UNL     1      12.430   5.230  11.060  1.00  0.00     0.122 C 
BRANCH   3   4
HETATM    4  C   UNL     1      12.191   6.052   9.784  1.00  0.00     0.042 C 
BRANCH   4   5
HETATM    5  C   UNL     1      12.418   5.255   8.497  1.00  0.00     0.116 C 
BRANCH   5   6
HETATM    6  C   UNL     1      12.541   6.066   7.232  1.00  0.00     0.172 C 
HETATM    7  O   UNL     1      11.773   6.014   6.284  1.00  0.00    -0.648 OA
HETATM    8  O   UNL     1      13.651   6.828   7.156  1.00  0.00    -0.648 OA
ENDBRANCH   5   6
ENDBRANCH   4   5
ENDBRANCH   3   4
BRANCH   3   9
HETATM    9  C   UNL     1      13.189   6.063  12.112  1.00  0.00     0.070 C 
BRANCH   9  10
HETATM   10  C   UNL     1      14.693   5.926  12.008  1.00  0.00    -0.053 A 
HETATM   11  C   UNL     1      15.338   6.081  10.771  1.00  0.00     0.043 A 
HETATM   12  C   UNL     1      16.724   5.955  10.690  1.00  0.00     0.066 A 
HETATM   13  C   UNL     1      17.483   5.675  11.819  1.00  0.00     0.036 A 
HETATM   14  C   UNL     1      16.851   5.518  13.051  1.00  0.00     0.003 A 
HETATM   15  C   UNL     1      15.464   5.644  13.145  1.00  0.00     0.007 A 
BRANCH  12  16
HETATM   16  O   UNL     1      17.382   6.101   9.504  1.00  0.00    -0.361 OA
HETATM   17  H   UNL     1      17.370   5.409   8.873  1.00  0.00     0.217 HD
ENDBRANCH  12  16
ENDBRANCH   9  10
ENDBRANCH   3   9
ENDBRANCH   1   3
TORSDOF 7
ENDMDL
MODEL 2
REMARK VINA RESULT:      -7.6      2.391      3.783
REMARK  7 active torsions:
REMARK  status: ('A' for Active; 'I' for Inactive)
REMARK    1  A    between atoms: O_1  and  C_2 
REMARK    2  A    between atoms: C_2  and  C_3 
REMARK    3  A    between atoms: C_2  and  C_8 
REMARK    4  A    between atoms: C_3  and  C_4 
REMARK    5  A    between atoms: C_4  and  C_5 
REMARK    6  A    between atoms: C_8  and  C_9 
REMARK    7  A    between atoms: C_11  and  O_15 
ROOT
HETATM    1  O   UNL     1      11.214   4.760  10.651  1.00  0.00    -0.395 OA
HETATM    2  H   UNL     1      10.645   5.398  10.191  1.00  0.00     0.210 HD
ENDROOT
BRANCH   1   3
HETATM    3  C   UNL     1      12.379   5.426  11.136  1.00  0.00     0.122 C 
BRANCH   3   4
HETATM    4  C   UNL     1      13.200   5.967   9.954  1.00  0.00     0.042 C 
BRANCH   4   5
HETATM    5  C   UNL     1      12.337   6.511   8.814  1.00  0.00     0.116 C 
BRANCH   5   6
HETATM    6  C   UNL     1      12.336   5.701   7.543  1.00  0.00     0.172 C 
HETATM    7  O   UNL     1      12.078   6.134   6.431  1.00  0.00    -0.648 OA
HETATM    8  O   UNL     1      12.558   4.382   7.715  1.00  0.00    -0.648 OA
ENDBRANCH   5   6
ENDBRANCH   4   5
ENDBRANCH   3   4
BRANCH   3   9
HETATM    9  C   UNL     1      11.970   6.569  12.085  1.00  0.00     0.070 C 
BRANCH   9  10
HETATM   10  C   UNL     1      12.690   6.525  13.416  1.00  0.00    -0.053 A 
HETATM   11  C   UNL     1      11.987   6.733  14.613  1.00  0.00     0.043 A 
HETATM   12  C   UNL     1      12.661   6.687  15.832  1.00  0.00     0.066 A 
HETATM   13  C   UNL     1      14.027   6.438  15.883  1.00  0.00     0.036 A 
HETATM   14  C   UNL     1      14.733   6.232  14.700  1.00  0.00     0.003 A 
HETATM   15  C   UNL     1      14.068   6.274  13.473  1.00  0.00     0.007 A 
BRANCH  12  16
HETATM   16  O   UNL     1      12.008   6.883  17.012  1.00  0.00    -0.361 OA
HETATM   17  H   UNL     1      11.308   7.503  17.063  1.00  0.00     0.217 HD
ENDBRANCH  12  16
ENDBRANCH   9  10
ENDBRANCH   3   9
ENDBRANCH   1   3
TORSDOF 7
ENDMDL
MODEL 3
REMARK VINA RESULT:      -7.5      1.013      1.198
REMARK  7 active torsions:
REMARK  status: ('A' for Active; 'I' for Inactive)
REMARK    1  A    between atoms: O_1  and  C_2 
REMARK    2  A    between atoms: C_2  and  C_3 
REMARK    3  A    between atoms: C_2  and  C_8 
REMARK    4  A    between atoms: C_3  and  C_4 
REMARK    5  A    between atoms: C_4  and  C_5 
REMARK    6  A    between atoms: C_8  and  C_9 
REMARK    7  A    between atoms: C_11  and  O_15 
ROOT
HETATM    1  O   UNL     1      12.034   5.471  12.716  1.00  0.00    -0.395 OA
HETATM    2  H   UNL     1      11.821   4.601  13.089  1.00  0.00     0.210 HD
ENDROOT
BRANCH   1   3
HETATM    3  C   UNL     1      12.914   5.309  11.605  1.00  0.00     0.122 C 
BRANCH   3   4
HETATM    4  C   UNL     1      12.098   5.114  10.317  1.00  0.00     0.042 C 
BRANCH   4   5
HETATM    5  C   UNL     1      12.381   6.176   9.252  1.00  0.00     0.116 C 
BRANCH   5   6
HETATM    6  C   UNL     1      12.799   5.658   7.899  1.00  0.00     0.172 C 
HETATM    7  O   UNL     1      13.211   6.346   6.979  1.00  0.00    -0.648 OA
HETATM    8  O   UNL     1      12.601   4.338   7.715  1.00  0.00    -0.648 OA
ENDBRANCH   5   6
ENDBRANCH   4   5
ENDBRANCH   3   4
BRANCH   3   9
HETATM    9  C   UNL     1      13.835   6.539  11.486  1.00  0.00     0.070 C 
BRANCH   9  10
HETATM   10  C   UNL     1      15.307   6.184  11.502  1.00  0.00    -0.053 A 
HETATM   11  C   UNL     1      16.065   6.235  10.322  1.00  0.00     0.043 A 
HETATM   12  C   UNL     1      17.420   5.909  10.351  1.00  0.00     0.066 A 
HETATM   13  C   UNL     1      18.038   5.530  11.536  1.00  0.00     0.036 A 
HETATM   14  C   UNL     1      17.294   5.476  12.713  1.00  0.00     0.003 A 
HETATM   15  C   UNL     1      15.936   5.802  12.696  1.00  0.00     0.007 A 
BRANCH  12  16
HETATM   16  O   UNL     1      18.184   5.949   9.222  1.00  0.00    -0.361 OA
HETATM   17  H   UNL     1      17.960   5.417   8.485  1.00  0.00     0.217 HD
ENDBRANCH  12  16
ENDBRANCH   9  10
ENDBRANCH   3   9
ENDBRANCH   1   3
TORSDOF 7
ENDMDL
MODEL 4
REMARK VINA RESULT:      -7.2      1.574      2.064
REMARK  7 active torsions:
REMARK  status: ('A' for Active; 'I' for Inactive)
REMARK    1  A    between atoms: O_1  and  C_2 
REMARK    2  A    between atoms: C_2  and  C_3 
REMARK    3  A    between atoms: C_2  and  C_8 
REMARK    4  A    between atoms: C_3  and  C_4 
REMARK    5  A    between atoms: C_4  and  C_5 
REMARK    6  A    between atoms: C_8  and  C_9 
REMARK    7  A    between atoms: C_11  and  O_15 
ROOT
HETATM    1  O   UNL     1      11.179   4.688  11.277  1.00  0.00    -0.395 OA
HETATM    2  H   UNL     1      10.469   5.317  11.479  1.00  0.00     0.210 HD
ENDROOT
BRANCH   1   3
HETATM    3  C   UNL     1      12.353   5.403  10.896  1.00  0.00     0.122 C 
BRANCH   3   4
HETATM    4  C   UNL     1      12.002   6.453   9.830  1.00  0.00     0.042 C 
BRANCH   4   5
HETATM    5  C   UNL     1      12.912   6.399   8.600  1.00  0.00     0.116 C 
BRANCH   5   6
HETATM    6  C   UNL     1      12.483   5.459   7.503  1.00  0.00     0.172 C 
HETATM    7  O   UNL     1      12.619   4.246   7.521  1.00  0.00    -0.648 OA
HETATM    8  O   UNL     1      11.996   6.064   6.401  1.00  0.00    -0.648 OA
ENDBRANCH   5   6
ENDBRANCH   4   5
ENDBRANCH   3   4
BRANCH   3   9
HETATM    9  C   UNL     1      12.980   6.073  12.135  1.00  0.00     0.070 C 
BRANCH   9  10
HETATM   10  C   UNL     1      14.480   5.883  12.218  1.00  0.00    -0.053 A 
HETATM   11  C   UNL     1      15.080   5.472  13.419  1.00  0.00     0.043 A 
HETATM   12  C   UNL     1      16.462   5.299  13.482  1.00  0.00     0.066 A 
HETATM   13  C   UNL     1      17.262   5.529  12.369  1.00  0.00     0.036 A 
HETATM   14  C   UNL     1      16.676   5.939  11.174  1.00  0.00     0.003 A 
HETATM   15  C   UNL     1      15.292   6.114  11.098  1.00  0.00     0.007 A 
BRANCH  12  16
HETATM   16  O   UNL     1      17.076   4.900  14.632  1.00  0.00    -0.361 OA
HETATM   17  H   UNL     1      16.702   5.118  15.462  1.00  0.00     0.217 HD
ENDBRANCH  12  16
ENDBRANCH   9  10
ENDBRANCH   3   9
ENDBRANCH   1   3
TORSDOF 7
ENDMDL
MODEL 5
REMARK VINA RESULT:      -6.8      1.536      2.031
REMARK  7 active torsions:
REMARK  status: ('A' for Active; 'I' for Inactive)
REMARK    1  A    between atoms: O_1  and  C_2 
REMARK    2  A    between atoms: C_2  and  C_3 
REMARK    3  A    between atoms: C_2  and  C_8 
REMARK    4  A    between atoms: C_3  and  C_4 
REMARK    5  A    between atoms: C_4  and  C_5 
REMARK    6  A    between atoms: C_8  and  C_9 
REMARK    7  A    between atoms: C_11  and  O_15 
ROOT
HETATM    1  O   UNL     1      11.058   4.704  11.109  1.00  0.00    -0.395 OA
HETATM    2  H   UNL     1      10.534   4.879  11.906  1.00  0.00     0.210 HD
ENDROOT
BRANCH   1   3
HETATM    3  C   UNL     1      12.196   5.565  11.090  1.00  0.00     0.122 C 
BRANCH   3   4
HETATM    4  C   UNL     1      12.147   6.468   9.847  1.00  0.00     0.042 C 
BRANCH   4   5
HETATM    5  C   UNL     1      13.189   6.102   8.788  1.00  0.00     0.116 C 
BRANCH   5   6
HETATM    6  C   UNL     1      12.650   5.520   7.506  1.00  0.00     0.172 C 
HETATM    7  O   UNL     1      12.171   6.165   6.587  1.00  0.00    -0.648 OA
HETATM    8  O   UNL     1      12.640   4.173   7.459  1.00  0.00    -0.648 OA
ENDBRANCH   5   6
ENDBRANCH   4   5
ENDBRANCH   3   4
BRANCH   3   9
HETATM    9  C   UNL     1      12.230   6.411  12.378  1.00  0.00     0.070 C 
BRANCH   9  10
HETATM   10  C   UNL     1      13.529   6.276  13.145  1.00  0.00    -0.053 A 
HETATM   11  C   UNL     1      14.697   5.847  12.496  1.00  0.00     0.043 A 
HETATM   12  C   UNL     1      15.887   5.730  13.213  1.00  0.00     0.066 A 
HETATM   13  C   UNL     1      15.937   6.031  14.569  1.00  0.00     0.036 A 
HETATM   14  C   UNL     1      14.782   6.456  15.221  1.00  0.00     0.003 A 
HETATM   15  C   UNL     1      13.584   6.579  14.513  1.00  0.00     0.007 A 
BRANCH  12  16
HETATM   16  O   UNL     1      17.040   5.318  12.613  1.00  0.00    -0.361 OA
HETATM   17  H   UNL     1      17.191   4.405  12.465  1.00  0.00     0.217 HD
ENDBRANCH  12  16
ENDBRANCH   9  10
ENDBRANCH   3   9
ENDBRANCH   1   3
TORSDOF 7
ENDMDL
MODEL 6
REMARK VINA RESULT:      -6.8      3.247      5.968
REMARK  7 active torsions:
REMARK  status: ('A' for Active; 'I' for Inactive)
REMARK    1  A    between atoms: O_1  and  C_2 
REMARK    2  A    between atoms: C_2  and  C_3 
REMARK    3  A    between atoms: C_2  and  C_8 
REMARK    4  A    between atoms: C_3  and  C_4 
REMARK    5  A    between atoms: C_4  and  C_5 
REMARK    6  A    between atoms: C_8  and  C_9 
REMARK    7  A    between atoms: C_11  and  O_15 
ROOT
HETATM    1  O   UNL     1      11.228   6.213  15.200  1.00  0.00    -0.395 OA
HETATM    2  H   UNL     1      10.302   6.381  14.966  1.00  0.00     0.210 HD
ENDROOT
BRANCH   1   3
HETATM    3  C   UNL     1      12.074   6.650  14.137  1.00  0.00     0.122 C 
BRANCH   3   4
HETATM    4  C   UNL     1      13.173   7.572  14.689  1.00  0.00     0.042 C 
BRANCH   4   5
HETATM    5  C   UNL     1      14.388   6.813  15.228  1.00  0.00     0.116 C 
BRANCH   5   6
HETATM    6  C   UNL     1      14.359   6.481  16.698  1.00  0.00     0.172 C 
HETATM    7  O   UNL     1      13.357   6.451  17.394  1.00  0.00    -0.648 OA
HETATM    8  O   UNL     1      15.572   6.296  17.258  1.00  0.00    -0.648 OA
ENDBRANCH   5   6
ENDBRANCH   4   5
ENDBRANCH   3   4
BRANCH   3   9
HETATM    9  C   UNL     1      12.692   5.428  13.428  1.00  0.00     0.070 C 
BRANCH   9  10
HETATM   10  C   UNL     1      13.095   5.711  11.997  1.00  0.00    -0.053 A 
HETATM   11  C   UNL     1      12.122   5.819  10.991  1.00  0.00     0.043 A 
HETATM   12  C   UNL     1      12.506   6.083   9.677  1.00  0.00     0.066 A 
HETATM   13  C   UNL     1      13.845   6.241   9.343  1.00  0.00     0.036 A 
HETATM   14  C   UNL     1      14.818   6.134  10.334  1.00  0.00     0.003 A 
HETATM   15  C   UNL     1      14.445   5.872  11.654  1.00  0.00     0.007 A 
BRANCH  12  16
HETATM   16  O   UNL     1      11.585   6.195   8.677  1.00  0.00    -0.361 OA
HETATM   17  H   UNL     1      11.214   7.030   8.474  1.00  0.00     0.217 HD
ENDBRANCH  12  16
ENDBRANCH   9  10
ENDBRANCH   3   9
ENDBRANCH   1   3
TORSDOF 7
ENDMDL
MODEL 7
REMARK VINA RESULT:      -6.7      2.545      5.671
REMARK  7 active torsions:
REMARK  status: ('A' for Active; 'I' for Inactive)
REMARK    1  A    between atoms: O_1  and  C_2 
REMARK    2  A    between atoms: C_2  and  C_3 
REMARK    3  A    between atoms: C_2  and  C_8 
REMARK    4  A    between atoms: C_3  and  C_4 
REMARK    5  A    between atoms: C_4  and  C_5 
REMARK    6  A    between atoms: C_8  and  C_9 
REMARK    7  A    between atoms: C_11  and  O_15 
ROOT
HETATM    1  O   UNL     1      16.140   4.490  14.264  1.00  0.00    -0.395 OA
HETATM    2  H   UNL     1      15.818   3.885  14.950  1.00  0.00     0.210 HD
ENDROOT
BRANCH   1   3
HETATM    3  C   UNL     1      15.099   5.398  13.906  1.00  0.00     0.122 C 
BRANCH   3   4
HETATM    4  C   UNL     1      14.861   6.396  15.051  1.00  0.00     0.042 C 
BRANCH   4   5
HETATM    5  C   UNL     1      13.764   7.419  14.747  1.00  0.00     0.116 C 
BRANCH   5   6
HETATM    6  C   UNL     1      12.355   6.989  15.066  1.00  0.00     0.172 C 
HETATM    7  O   UNL     1      11.437   6.932  14.263  1.00  0.00    -0.648 OA
HETATM    8  O   UNL     1      12.122   6.744  16.371  1.00  0.00    -0.648 OA
ENDBRANCH   5   6
ENDBRANCH   4   5
ENDBRANCH   3   4
BRANCH   3   9
HETATM    9  C   UNL     1      15.478   6.139  12.608  1.00  0.00     0.070 C 
BRANCH   9  10
HETATM   10  C   UNL     1      14.465   5.952  11.499  1.00  0.00    -0.053 A 
HETATM   11  C   UNL     1      13.173   5.484  11.786  1.00  0.00     0.043 A 
HETATM   12  C   UNL     1      12.248   5.319  10.756  1.00  0.00     0.066 A 
HETATM   13  C   UNL     1      12.586   5.610   9.440  1.00  0.00     0.036 A 
HETATM   14  C   UNL     1      13.866   6.074   9.145  1.00  0.00     0.003 A 
HETATM   15  C   UNL     1      14.800   6.244  10.169  1.00  0.00     0.007 A 
BRANCH  12  16
HETATM   16  O   UNL     1      10.985   4.868  11.001  1.00  0.00    -0.361 OA
HETATM   17  H   UNL     1      10.785   4.455  11.817  1.00  0.00     0.217 HD
ENDBRANCH  12  16
ENDBRANCH   9  10
ENDBRANCH   3   9
ENDBRANCH   1   3
TORSDOF 7
ENDMDL
MODEL 8
REMARK VINA RESULT:      -6.6      2.514      4.619
REMARK  7 active torsions:
REMARK  status: ('A' for Active; 'I' for Inactive)
REMARK    1  A    between atoms: O_1  and  C_2 
REMARK    2  A    between atoms: C_2  and  C_3 
REMARK    3  A    between atoms: C_2  and  C_8 
REMARK    4  A    between atoms: C_3  and  C_4 
REMARK    5  A    between atoms: C_4  and  C_5 
REMARK    6  A    between atoms: C_8  and  C_9 
REMARK    7  A    between atoms: C_11  and  O_15 
ROOT
HETATM    1  O   UNL     1      11.218   5.006  10.517  1.00  0.00    -0.395 OA
HETATM    2  H   UNL     1      10.577   4.695  11.174  1.00  0.00     0.210 HD
ENDROOT
BRANCH   1   3
HETATM    3  C   UNL     1      12.447   5.329  11.169  1.00  0.00     0.122 C 
BRANCH   3   4
HETATM    4  C   UNL     1      13.510   5.699  10.123  1.00  0.00     0.042 C 
BRANCH   4   5
HETATM    5  C   UNL     1      14.630   6.581  10.680  1.00  0.00     0.116 C 
BRANCH   5   6
HETATM    6  C   UNL     1      16.000   5.956  10.731  1.00  0.00     0.172 C 
HETATM    7  O   UNL     1      16.517   5.472  11.725  1.00  0.00    -0.648 OA
HETATM    8  O   UNL     1      16.701   6.041   9.583  1.00  0.00    -0.648 OA
ENDBRANCH   5   6
ENDBRANCH   4   5
ENDBRANCH   3   4
BRANCH   3   9
HETATM    9  C   UNL     1      12.224   6.492  12.155  1.00  0.00     0.070 C 
BRANCH   9  10
HETATM   10  C   UNL     1      12.721   6.191  13.553  1.00  0.00    -0.053 A 
HETATM   11  C   UNL     1      12.126   6.803  14.667  1.00  0.00     0.043 A 
HETATM   12  C   UNL     1      12.591   6.515  15.949  1.00  0.00     0.066 A 
HETATM   13  C   UNL     1      13.642   5.628  16.145  1.00  0.00     0.036 A 
HETATM   14  C   UNL     1      14.240   5.017  15.045  1.00  0.00     0.003 A 
HETATM   15  C   UNL     1      13.781   5.296  13.756  1.00  0.00     0.007 A 
BRANCH  12  16
HETATM   16  O   UNL     1      12.035   7.091  17.053  1.00  0.00    -0.361 OA
HETATM   17  H   UNL     1      12.553   7.229  17.821  1.00  0.00     0.217 HD
ENDBRANCH  12  16
ENDBRANCH   9  10
ENDBRANCH   3   9
ENDBRANCH   1   3
TORSDOF 7
ENDMDL
MODEL 9
REMARK VINA RESULT:      -6.6      1.815      3.706
REMARK  7 active torsions:
REMARK  status: ('A' for Active; 'I' for Inactive)
REMARK    1  A    between atoms: O_1  and  C_2 
REMARK    2  A    between atoms: C_2  and  C_3 
REMARK    3  A    between atoms: C_2  and  C_8 
REMARK    4  A    between atoms: C_3  and  C_4 
REMARK    5  A    between atoms: C_4  and  C_5 
REMARK    6  A    between atoms: C_8  and  C_9 
REMARK    7  A    between atoms: C_11  and  O_15 
ROOT
HETATM    1  O   UNL     1      15.861   5.863   9.764  1.00  0.00    -0.395 OA
HETATM    2  H   UNL     1      15.606   4.933   9.662  1.00  0.00     0.210 HD
ENDROOT
BRANCH   1   3
HETATM    3  C   UNL     1      14.825   6.568  10.447  1.00  0.00     0.122 C 
BRANCH   3   4
HETATM    4  C   UNL     1      13.536   5.731  10.446  1.00  0.00     0.042 C 
BRANCH   4   5
HETATM    5  C   UNL     1      12.544   6.143   9.356  1.00  0.00     0.116 C 
BRANCH   5   6
HETATM    6  C   UNL     1      12.873   5.688   7.958  1.00  0.00     0.172 C 
HETATM    7  O   UNL     1      13.263   6.410   7.055  1.00  0.00    -0.648 OA
HETATM    8  O   UNL     1      12.616   4.387   7.714  1.00  0.00    -0.648 OA
ENDBRANCH   5   6
ENDBRANCH   4   5
ENDBRANCH   3   4
BRANCH   3   9
HETATM    9  C   UNL     1      15.271   6.881  11.889  1.00  0.00     0.070 C 
BRANCH   9  10
HETATM   10  C   UNL     1      14.445   6.165  12.936  1.00  0.00    -0.053 A 
HETATM   11  C   UNL     1      13.211   6.689  13.351  1.00  0.00     0.043 A 
HETATM   12  C   UNL     1      12.459   6.018  14.314  1.00  0.00     0.066 A 
HETATM   13  C   UNL     1      12.914   4.831  14.875  1.00  0.00     0.036 A 
HETATM   14  C   UNL     1      14.138   4.304  14.471  1.00  0.00     0.003 A 
HETATM   15  C   UNL     1      14.899   4.966  13.505  1.00  0.00     0.007 A 
BRANCH  12  16
HETATM   16  O   UNL     1      11.256   6.500  14.738  1.00  0.00    -0.361 OA
HETATM   17  H   UNL     1      10.776   7.098  14.202  1.00  0.00     0.217 HD
ENDBRANCH  12  16
ENDBRANCH   9  10
ENDBRANCH   3   9
ENDBRANCH   1   3
TORSDOF 7
ENDMDL
