MODEL 1
REMARK VINA RESULT:      -7.5      0.000      0.000
REMARK  7 active torsions:
REMARK  status: ('A' for Active; 'I' for Inactive)
REMARK    1  A    between atoms: O_1  and  C_2 
REMARK    2  A    between atoms: C_2  and  C_3 
REMARK    3  A    between atoms: C_2  and  C_8 
REMARK    4  A    between atoms: C_3  and  C_4 
REMARK    5  A    between atoms: C_4  and  C_5 
REMARK    6  A    between atoms: C_8  and  C_9 
REMARK    7  A    between atoms: C_11  and  O_15 
ROOT
HETATM    1  O   UNL     1      21.702  -0.822  31.244  1.00  0.00    -0.395 OA
HETATM    2  H   UNL     1      21.018  -0.999  30.580  1.00  0.00     0.210 HD
ENDROOT
BRANCH   1   3
HETATM    3  C   UNL     1      21.840  -1.957  32.099  1.00  0.00     0.122 C 
BRANCH   3   4
HETATM    4  C   UNL     1      21.420  -1.586  33.530  1.00  0.00     0.042 C 
BRANCH   4   5
HETATM    5  C   UNL     1      22.605  -1.347  34.468  1.00  0.00     0.116 C 
BRANCH   5   6
HETATM    6  C   UNL     1      22.359  -1.631  35.928  1.00  0.00     0.172 C 
HETATM    7  O   UNL     1      22.050  -2.717  36.393  1.00  0.00    -0.648 OA
HETATM    8  O   UNL     1      22.412  -0.548  36.730  1.00  0.00    -0.648 OA
ENDBRANCH   5   6
ENDBRANCH   4   5
ENDBRANCH   3   4
BRANCH   3   9
HETATM    9  C   UNL     1      20.982  -3.120  31.563  1.00  0.00     0.070 C 
BRANCH   9  10
HETATM   10  C   UNL     1      21.675  -4.462  31.653  1.00  0.00    -0.053 A 
HETATM   11  C   UNL     1      22.210  -4.906  32.873  1.00  0.00     0.043 A 
HETATM   12  C   UNL     1      22.844  -6.146  32.943  1.00  0.00     0.066 A 
HETATM   13  C   UNL     1      22.957  -6.955  31.820  1.00  0.00     0.036 A 
HETATM   14  C   UNL     1      22.430  -6.522  30.605  1.00  0.00     0.003 A 
HETATM   15  C   UNL     1      21.792  -5.283  30.522  1.00  0.00     0.007 A 
BRANCH  12  16
HETATM   16  O   UNL     1      23.373  -6.607  34.112  1.00  0.00    -0.361 OA
HETATM   17  H   UNL     1      23.532  -6.016  34.821  1.00  0.00     0.217 HD
ENDBRANCH  12  16
ENDBRANCH   9  10
ENDBRANCH   3   9
ENDBRANCH   1   3
TORSDOF 7
ENDMDL
MODEL 2
REMARK VINA RESULT:      -7.2      1.166      1.703
REMARK  7 active torsions:
REMARK  status: ('A' for Active; 'I' for Inactive)
REMARK    1  A    between atoms: O_1  and  C_2 
REMARK    2  A    between atoms: C_2  and  C_3 
REMARK    3  A    between atoms: C_2  and  C_8 
REMARK    4  A    between atoms: C_3  and  C_4 
REMARK    5  A    between atoms: C_4  and  C_5 
REMARK    6  A    between atoms: C_8  and  C_9 
REMARK    7  A    between atoms: C_11  and  O_15 
ROOT
HETATM    1  O   UNL     1      21.678  -0.870  31.216  1.00  0.00    -0.395 OA
HETATM    2  H   UNL     1      22.449  -0.802  30.632  1.00  0.00     0.210 HD
ENDROOT
BRANCH   1   3
HETATM    3  C   UNL     1      21.836  -1.994  32.082  1.00  0.00     0.122 C 
BRANCH   3   4
HETATM    4  C   UNL     1      21.383  -1.624  33.504  1.00  0.00     0.042 C 
BRANCH   4   5
HETATM    5  C   UNL     1      22.546  -1.328  34.454  1.00  0.00     0.116 C 
BRANCH   5   6
HETATM    6  C   UNL     1      22.322  -1.683  35.901  1.00  0.00     0.172 C 
HETATM    7  O   UNL     1      21.979  -2.780  36.313  1.00  0.00    -0.648 OA
HETATM    8  O   UNL     1      22.436  -0.650  36.759  1.00  0.00    -0.648 OA
ENDBRANCH   5   6
ENDBRANCH   4   5
ENDBRANCH   3   4
BRANCH   3   9
HETATM    9  C   UNL     1      21.020  -3.186  31.543  1.00  0.00     0.070 C 
BRANCH   9  10
HETATM   10  C   UNL     1      21.724  -4.515  31.716  1.00  0.00    -0.053 A 
HETATM   11  C   UNL     1      21.968  -5.341  30.608  1.00  0.00     0.043 A 
HETATM   12  C   UNL     1      22.620  -6.561  30.781  1.00  0.00     0.066 A 
HETATM   13  C   UNL     1      23.034  -6.978  32.040  1.00  0.00     0.036 A 
HETATM   14  C   UNL     1      22.795  -6.165  33.146  1.00  0.00     0.003 A 
HETATM   15  C   UNL     1      22.144  -4.940  32.985  1.00  0.00     0.007 A 
BRANCH  12  16
HETATM   16  O   UNL     1      22.874  -7.386  29.725  1.00  0.00    -0.361 OA
HETATM   17  H   UNL     1      23.630  -7.244  29.190  1.00  0.00     0.217 HD
ENDBRANCH  12  16
ENDBRANCH   9  10
ENDBRANCH   3   9
ENDBRANCH   1   3
TORSDOF 7
ENDMDL
MODEL 3
REMARK VINA RESULT:      -7.1      2.749      4.097
REMARK  7 active torsions:
REMARK  status: ('A' for Active; 'I' for Inactive)
REMARK    1  A    between atoms: O_1  and  C_2 
REMARK    2  A    between atoms: C_2  and  C_3 
REMARK    3  A    between atoms: C_2  and  C_8 
REMARK    4  A    between atoms: C_3  and  C_4 
REMARK    5  A    between atoms: C_4  and  C_5 
REMARK    6  A    between atoms: C_8  and  C_9 
REMARK    7  A    between atoms: C_11  and  O_15 
ROOT
HETATM    1  O   UNL     1      21.743  -0.521  32.124  1.00  0.00    -0.395 OA
HETATM    2  H   UNL     1      22.301  -0.334  32.895  1.00  0.00     0.210 HD
ENDROOT
BRANCH   1   3
HETATM    3  C   UNL     1      21.552  -1.930  32.007  1.00  0.00     0.122 C 
BRANCH   3   4
HETATM    4  C   UNL     1      21.697  -2.593  33.386  1.00  0.00     0.042 C 
BRANCH   4   5
HETATM    5  C   UNL     1      21.361  -1.656  34.549  1.00  0.00     0.116 C 
BRANCH   5   6
HETATM    6  C   UNL     1      22.495  -1.338  35.489  1.00  0.00     0.172 C 
HETATM    7  O   UNL     1      22.387  -1.176  36.694  1.00  0.00    -0.648 OA
HETATM    8  O   UNL     1      23.687  -1.144  34.890  1.00  0.00    -0.648 OA
ENDBRANCH   5   6
ENDBRANCH   4   5
ENDBRANCH   3   4
BRANCH   3   9
HETATM    9  C   UNL     1      20.162  -2.219  31.407  1.00  0.00     0.070 C 
BRANCH   9  10
HETATM   10  C   UNL     1      20.216  -2.626  29.949  1.00  0.00    -0.053 A 
HETATM   11  C   UNL     1      19.035  -2.909  29.245  1.00  0.00     0.043 A 
HETATM   12  C   UNL     1      19.098  -3.280  27.903  1.00  0.00     0.066 A 
HETATM   13  C   UNL     1      20.318  -3.377  27.245  1.00  0.00     0.036 A 
HETATM   14  C   UNL     1      21.496  -3.100  27.937  1.00  0.00     0.003 A 
HETATM   15  C   UNL     1      21.444  -2.726  29.281  1.00  0.00     0.007 A 
BRANCH  12  16
HETATM   16  O   UNL     1      17.970  -3.559  27.189  1.00  0.00    -0.361 OA
HETATM   17  H   UNL     1      17.169  -3.752  27.635  1.00  0.00     0.217 HD
ENDBRANCH  12  16
ENDBRANCH   9  10
ENDBRANCH   3   9
ENDBRANCH   1   3
TORSDOF 7
ENDMDL
MODEL 4
REMARK VINA RESULT:      -6.9      3.391      6.247
REMARK  7 active torsions:
REMARK  status: ('A' for Active; 'I' for Inactive)
REMARK    1  A    between atoms: O_1  and  C_2 
REMARK    2  A    between atoms: C_2  and  C_3 
REMARK    3  A    between atoms: C_2  and  C_8 
REMARK    4  A    between atoms: C_3  and  C_4 
REMARK    5  A    between atoms: C_4  and  C_5 
REMARK    6  A    between atoms: C_8  and  C_9 
REMARK    7  A    between atoms: C_11  and  O_15 
ROOT
HETATM    1  O   UNL     1      18.787  -1.616  29.501  1.00  0.00    -0.395 OA
HETATM    2  H   UNL     1      19.288  -1.043  28.899  1.00  0.00     0.210 HD
ENDROOT
BRANCH   1   3
HETATM    3  C   UNL     1      19.430  -2.887  29.590  1.00  0.00     0.122 C 
BRANCH   3   4
HETATM    4  C   UNL     1      19.207  -3.677  28.290  1.00  0.00     0.042 C 
BRANCH   4   5
HETATM    5  C   UNL     1      20.018  -3.142  27.108  1.00  0.00     0.116 C 
BRANCH   5   6
HETATM    6  C   UNL     1      19.353  -2.071  26.282  1.00  0.00     0.172 C 
HETATM    7  O   UNL     1      18.185  -1.729  26.381  1.00  0.00    -0.648 OA
HETATM    8  O   UNL     1      20.128  -1.541  25.315  1.00  0.00    -0.648 OA
ENDBRANCH   5   6
ENDBRANCH   4   5
ENDBRANCH   3   4
BRANCH   3   9
HETATM    9  C   UNL     1      20.935  -2.692  29.859  1.00  0.00     0.070 C 
BRANCH   9  10
HETATM   10  C   UNL     1      21.311  -2.886  31.312  1.00  0.00    -0.053 A 
HETATM   11  C   UNL     1      21.305  -1.799  32.200  1.00  0.00     0.043 A 
HETATM   12  C   UNL     1      21.650  -1.992  33.537  1.00  0.00     0.066 A 
HETATM   13  C   UNL     1      22.004  -3.250  34.009  1.00  0.00     0.036 A 
HETATM   14  C   UNL     1      22.014  -4.334  33.135  1.00  0.00     0.003 A 
HETATM   15  C   UNL     1      21.668  -4.153  31.794  1.00  0.00     0.007 A 
BRANCH  12  16
HETATM   16  O   UNL     1      21.653  -0.958  34.426  1.00  0.00    -0.361 OA
HETATM   17  H   UNL     1      22.460  -0.665  34.801  1.00  0.00     0.217 HD
ENDBRANCH  12  16
ENDBRANCH   9  10
ENDBRANCH   3   9
ENDBRANCH   1   3
TORSDOF 7
ENDMDL
MODEL 5
REMARK VINA RESULT:      -6.9      3.333      6.123
REMARK  7 active torsions:
REMARK  status: ('A' for Active; 'I' for Inactive)
REMARK    1  A    between atoms: O_1  and  C_2 
REMARK    2  A    between atoms: C_2  and  C_3 
REMARK    3  A    between atoms: C_2  and  C_8 
REMARK    4  A    between atoms: C_3  and  C_4 
REMARK    5  A    between atoms: C_4  and  C_5 
REMARK    6  A    between atoms: C_8  and  C_9 
REMARK    7  A    between atoms: C_11  and  O_15 
ROOT
HETATM    1  O   UNL     1      18.789  -1.653  29.566  1.00  0.00    -0.395 OA
HETATM    2  H   UNL     1      19.014  -1.218  28.729  1.00  0.00     0.210 HD
ENDROOT
BRANCH   1   3
HETATM    3  C   UNL     1      19.438  -2.923  29.630  1.00  0.00     0.122 C 
BRANCH   3   4
HETATM    4  C   UNL     1      19.200  -3.697  28.324  1.00  0.00     0.042 C 
BRANCH   4   5
HETATM    5  C   UNL     1      20.005  -3.155  27.141  1.00  0.00     0.116 C 
BRANCH   5   6
HETATM    6  C   UNL     1      19.340  -2.072  26.331  1.00  0.00     0.172 C 
HETATM    7  O   UNL     1      18.174  -1.726  26.439  1.00  0.00    -0.648 OA
HETATM    8  O   UNL     1      20.113  -1.533  25.367  1.00  0.00    -0.648 OA
ENDBRANCH   5   6
ENDBRANCH   4   5
ENDBRANCH   3   4
BRANCH   3   9
HETATM    9  C   UNL     1      20.947  -2.725  29.879  1.00  0.00     0.070 C 
BRANCH   9  10
HETATM   10  C   UNL     1      21.324  -2.807  31.343  1.00  0.00    -0.053 A 
HETATM   11  C   UNL     1      21.660  -4.040  31.924  1.00  0.00     0.043 A 
HETATM   12  C   UNL     1      22.008  -4.101  33.272  1.00  0.00     0.066 A 
HETATM   13  C   UNL     1      22.027  -2.955  34.057  1.00  0.00     0.036 A 
HETATM   14  C   UNL     1      21.694  -1.727  33.490  1.00  0.00     0.003 A 
HETATM   15  C   UNL     1      21.345  -1.653  32.140  1.00  0.00     0.007 A 
BRANCH  12  16
HETATM   16  O   UNL     1      22.341  -5.282  33.867  1.00  0.00    -0.361 OA
HETATM   17  H   UNL     1      21.677  -5.912  34.061  1.00  0.00     0.217 HD
ENDBRANCH  12  16
ENDBRANCH   9  10
ENDBRANCH   3   9
ENDBRANCH   1   3
TORSDOF 7
ENDMDL
MODEL 6
REMARK VINA RESULT:      -6.7      1.698      2.163
REMARK  7 active torsions:
REMARK  status: ('A' for Active; 'I' for Inactive)
REMARK    1  A    between atoms: O_1  and  C_2 
REMARK    2  A    between atoms: C_2  and  C_3 
REMARK    3  A    between atoms: C_2  and  C_8 
REMARK    4  A    between atoms: C_3  and  C_4 
REMARK    5  A    between atoms: C_4  and  C_5 
REMARK    6  A    between atoms: C_8  and  C_9 
REMARK    7  A    between atoms: C_11  and  O_15 
ROOT
HETATM    1  O   UNL     1      21.744  -0.502  31.567  1.00  0.00    -0.395 OA
HETATM    2  H   UNL     1      21.494  -0.339  30.644  1.00  0.00     0.210 HD
ENDROOT
BRANCH   1   3
HETATM    3  C   UNL     1      21.414  -1.845  31.918  1.00  0.00     0.122 C 
BRANCH   3   4
HETATM    4  C   UNL     1      21.052  -1.921  33.411  1.00  0.00     0.042 C 
BRANCH   4   5
HETATM    5  C   UNL     1      22.079  -2.688  34.246  1.00  0.00     0.116 C 
BRANCH   5   6
HETATM    6  C   UNL     1      22.740  -1.911  35.356  1.00  0.00     0.172 C 
HETATM    7  O   UNL     1      22.437  -1.975  36.538  1.00  0.00    -0.648 OA
HETATM    8  O   UNL     1      23.672  -1.027  34.949  1.00  0.00    -0.648 OA
ENDBRANCH   5   6
ENDBRANCH   4   5
ENDBRANCH   3   4
BRANCH   3   9
HETATM    9  C   UNL     1      20.241  -2.338  31.048  1.00  0.00     0.070 C 
BRANCH   9  10
HETATM   10  C   UNL     1      20.506  -3.677  30.395  1.00  0.00    -0.053 A 
HETATM   11  C   UNL     1      21.597  -4.463  30.798  1.00  0.00     0.043 A 
HETATM   12  C   UNL     1      21.829  -5.695  30.190  1.00  0.00     0.066 A 
HETATM   13  C   UNL     1      20.993  -6.163  29.183  1.00  0.00     0.036 A 
HETATM   14  C   UNL     1      19.908  -5.390  28.775  1.00  0.00     0.003 A 
HETATM   15  C   UNL     1      19.665  -4.154  29.379  1.00  0.00     0.007 A 
BRANCH  12  16
HETATM   16  O   UNL     1      22.879  -6.483  30.558  1.00  0.00    -0.361 OA
HETATM   17  H   UNL     1      22.835  -7.410  30.433  1.00  0.00     0.217 HD
ENDBRANCH  12  16
ENDBRANCH   9  10
ENDBRANCH   3   9
ENDBRANCH   1   3
TORSDOF 7
ENDMDL
MODEL 7
REMARK VINA RESULT:      -6.7      3.308      6.115
REMARK  7 active torsions:
REMARK  status: ('A' for Active; 'I' for Inactive)
REMARK    1  A    between atoms: O_1  and  C_2 
REMARK    2  A    between atoms: C_2  and  C_3 
REMARK    3  A    between atoms: C_2  and  C_8 
REMARK    4  A    between atoms: C_3  and  C_4 
REMARK    5  A    between atoms: C_4  and  C_5 
REMARK    6  A    between atoms: C_8  and  C_9 
REMARK    7  A    between atoms: C_11  and  O_15 
ROOT
HETATM    1  O   UNL     1      19.037  -1.594  28.718  1.00  0.00    -0.395 OA
HETATM    2  H   UNL     1      19.865  -1.177  28.433  1.00  0.00     0.210 HD
ENDROOT
BRANCH   1   3
HETATM    3  C   UNL     1      19.316  -2.565  29.726  1.00  0.00     0.122 C 
BRANCH   3   4
HETATM    4  C   UNL     1      18.695  -3.916  29.335  1.00  0.00     0.042 C 
BRANCH   4   5
HETATM    5  C   UNL     1      19.631  -4.798  28.507  1.00  0.00     0.116 C 
BRANCH   5   6
HETATM    6  C   UNL     1      19.368  -4.828  27.023  1.00  0.00     0.172 C 
HETATM    7  O   UNL     1      19.626  -5.762  26.280  1.00  0.00    -0.648 OA
HETATM    8  O   UNL     1      18.891  -3.675  26.511  1.00  0.00    -0.648 OA
ENDBRANCH   5   6
ENDBRANCH   4   5
ENDBRANCH   3   4
BRANCH   3   9
HETATM    9  C   UNL     1      20.840  -2.699  29.912  1.00  0.00     0.070 C 
BRANCH   9  10
HETATM   10  C   UNL     1      21.249  -2.888  31.357  1.00  0.00    -0.053 A 
HETATM   11  C   UNL     1      21.196  -1.813  32.258  1.00  0.00     0.043 A 
HETATM   12  C   UNL     1      21.573  -2.000  33.587  1.00  0.00     0.066 A 
HETATM   13  C   UNL     1      22.005  -3.241  34.038  1.00  0.00     0.036 A 
HETATM   14  C   UNL     1      22.062  -4.313  33.152  1.00  0.00     0.003 A 
HETATM   15  C   UNL     1      21.686  -4.138  31.818  1.00  0.00     0.007 A 
BRANCH  12  16
HETATM   16  O   UNL     1      21.532  -0.977  34.488  1.00  0.00    -0.361 OA
HETATM   17  H   UNL     1      22.284  -0.782  35.010  1.00  0.00     0.217 HD
ENDBRANCH  12  16
ENDBRANCH   9  10
ENDBRANCH   3   9
ENDBRANCH   1   3
TORSDOF 7
ENDMDL
MODEL 8
REMARK VINA RESULT:      -6.7      2.735      4.822
REMARK  7 active torsions:
REMARK  status: ('A' for Active; 'I' for Inactive)
REMARK    1  A    between atoms: O_1  and  C_2 
REMARK    2  A    between atoms: C_2  and  C_3 
REMARK    3  A    between atoms: C_2  and  C_8 
REMARK    4  A    between atoms: C_3  and  C_4 
REMARK    5  A    between atoms: C_4  and  C_5 
REMARK    6  A    between atoms: C_8  and  C_9 
REMARK    7  A    between atoms: C_11  and  O_15 
ROOT
HETATM    1  O   UNL     1      21.776  -0.783  32.826  1.00  0.00    -0.395 OA
HETATM    2  H   UNL     1      21.137  -0.725  33.553  1.00  0.00     0.210 HD
ENDROOT
BRANCH   1   3
HETATM    3  C   UNL     1      21.609  -2.027  32.146  1.00  0.00     0.122 C 
BRANCH   3   4
HETATM    4  C   UNL     1      21.771  -3.190  33.139  1.00  0.00     0.042 C 
BRANCH   4   5
HETATM    5  C   UNL     1      21.924  -4.552  32.459  1.00  0.00     0.116 C 
BRANCH   5   6
HETATM    6  C   UNL     1      22.102  -5.732  33.380  1.00  0.00     0.172 C 
HETATM    7  O   UNL     1      23.157  -6.073  33.892  1.00  0.00    -0.648 OA
HETATM    8  O   UNL     1      20.999  -6.488  33.548  1.00  0.00    -0.648 OA
ENDBRANCH   5   6
ENDBRANCH   4   5
ENDBRANCH   3   4
BRANCH   3   9
HETATM    9  C   UNL     1      20.222  -2.073  31.475  1.00  0.00     0.070 C 
BRANCH   9  10
HETATM   10  C   UNL     1      20.278  -2.489  30.020  1.00  0.00    -0.053 A 
HETATM   11  C   UNL     1      19.098  -2.770  29.314  1.00  0.00     0.043 A 
HETATM   12  C   UNL     1      19.163  -3.150  27.975  1.00  0.00     0.066 A 
HETATM   13  C   UNL     1      20.385  -3.256  27.321  1.00  0.00     0.036 A 
HETATM   14  C   UNL     1      21.561  -2.980  28.014  1.00  0.00     0.003 A 
HETATM   15  C   UNL     1      21.508  -2.597  29.356  1.00  0.00     0.007 A 
BRANCH  12  16
HETATM   16  O   UNL     1      18.036  -3.429  27.260  1.00  0.00    -0.361 OA
HETATM   17  H   UNL     1      17.973  -4.229  26.778  1.00  0.00     0.217 HD
ENDBRANCH  12  16
ENDBRANCH   9  10
ENDBRANCH   3   9
ENDBRANCH   1   3
TORSDOF 7
ENDMDL
MODEL 9
REMARK VINA RESULT:      -6.6      3.462      6.184
REMARK  7 active torsions:
REMARK  status: ('A' for Active; 'I' for Inactive)
REMARK    1  A    between atoms: O_1  and  C_2 
REMARK    2  A    between atoms: C_2  and  C_3 
REMARK    3  A    between atoms: C_2  and  C_8 
REMARK    4  A    between atoms: C_3  and  C_4 
REMARK    5  A    between atoms: C_4  and  C_5 
REMARK    6  A    between atoms: C_8  and  C_9 
REMARK    7  A    between atoms: C_11  and  O_15 
ROOT
HETATM    1  O   UNL     1      19.249  -4.389  28.286  1.00  0.00    -0.395 OA
HETATM    2  H   UNL     1      18.905  -3.746  27.646  1.00  0.00     0.210 HD
ENDROOT
BRANCH   1   3
HETATM    3  C   UNL     1      20.410  -3.853  28.919  1.00  0.00     0.122 C 
BRANCH   3   4
HETATM    4  C   UNL     1      21.333  -3.219  27.865  1.00  0.00     0.042 C 
BRANCH   4   5
HETATM    5  C   UNL     1      20.914  -1.803  27.464  1.00  0.00     0.116 C 
BRANCH   5   6
HETATM    6  C   UNL     1      19.876  -1.706  26.375  1.00  0.00     0.172 C 
HETATM    7  O   UNL     1      20.110  -1.506  25.194  1.00  0.00    -0.648 OA
HETATM    8  O   UNL     1      18.600  -1.765  26.806  1.00  0.00    -0.648 OA
ENDBRANCH   5   6
ENDBRANCH   4   5
ENDBRANCH   3   4
BRANCH   3   9
HETATM    9  C   UNL     1      19.995  -2.812  29.977  1.00  0.00     0.070 C 
BRANCH   9  10
HETATM   10  C   UNL     1      20.715  -2.985  31.297  1.00  0.00    -0.053 A 
HETATM   11  C   UNL     1      20.791  -1.922  32.211  1.00  0.00     0.043 A 
HETATM   12  C   UNL     1      21.455  -2.095  33.424  1.00  0.00     0.066 A 
HETATM   13  C   UNL     1      22.050  -3.308  33.746  1.00  0.00     0.036 A 
HETATM   14  C   UNL     1      21.981  -4.368  32.845  1.00  0.00     0.003 A 
HETATM   15  C   UNL     1      21.317  -4.208  31.627  1.00  0.00     0.007 A 
BRANCH  12  16
HETATM   16  O   UNL     1      21.545  -1.084  34.335  1.00  0.00    -0.361 OA
HETATM   17  H   UNL     1      22.059  -0.325  34.143  1.00  0.00     0.217 HD
ENDBRANCH  12  16
ENDBRANCH   9  10
ENDBRANCH   3   9
ENDBRANCH   1   3
TORSDOF 7
ENDMDL
