MODEL 1
REMARK VINA RESULT:      -7.7      0.000      0.000
REMARK  7 active torsions:
REMARK  status: ('A' for Active; 'I' for Inactive)
REMARK    1  A    between atoms: O_1  and  C_2 
REMARK    2  A    between atoms: C_2  and  C_3 
REMARK    3  A    between atoms: C_2  and  C_8 
REMARK    4  A    between atoms: C_3  and  C_4 
REMARK    5  A    between atoms: C_4  and  C_5 
REMARK    6  A    between atoms: C_8  and  C_9 
REMARK    7  A    between atoms: C_11  and  O_15 
ROOT
HETATM    1  O   UNL     1      11.224   4.680  11.662  1.00  0.00    -0.395 OA
HETATM    2  H   UNL     1      10.936   3.877  11.200  1.00  0.00     0.210 HD
ENDROOT
BRANCH   1   3
HETATM    3  C   UNL     1      12.402   5.190  11.038  1.00  0.00     0.122 C 
BRANCH   3   4
HETATM    4  C   UNL     1      12.027   5.944   9.752  1.00  0.00     0.042 C 
BRANCH   4   5
HETATM    5  C   UNL     1      12.428   5.204   8.474  1.00  0.00     0.116 C 
BRANCH   5   6
HETATM    6  C   UNL     1      12.528   6.046   7.228  1.00  0.00     0.172 C 
HETATM    7  O   UNL     1      11.735   6.026   6.300  1.00  0.00    -0.648 OA
HETATM    8  O   UNL     1      13.643   6.798   7.143  1.00  0.00    -0.648 OA
ENDBRANCH   5   6
ENDBRANCH   4   5
ENDBRANCH   3   4
BRANCH   3   9
HETATM    9  C   UNL     1      13.150   6.117  12.016  1.00  0.00     0.070 C 
BRANCH   9  10
HETATM   10  C   UNL     1      14.653   5.944  11.971  1.00  0.00    -0.053 A 
HETATM   11  C   UNL     1      15.348   6.073  10.758  1.00  0.00     0.043 A 
HETATM   12  C   UNL     1      16.733   5.914  10.730  1.00  0.00     0.066 A 
HETATM   13  C   UNL     1      17.442   5.625  11.890  1.00  0.00     0.036 A 
HETATM   14  C   UNL     1      16.760   5.493  13.098  1.00  0.00     0.003 A 
HETATM   15  C   UNL     1      15.373   5.653  13.138  1.00  0.00     0.007 A 
BRANCH  12  16
HETATM   16  O   UNL     1      17.438   6.034   9.570  1.00  0.00    -0.361 OA
HETATM   17  H   UNL     1      16.996   5.986   8.746  1.00  0.00     0.217 HD
ENDBRANCH  12  16
ENDBRANCH   9  10
ENDBRANCH   3   9
ENDBRANCH   1   3
TORSDOF 7
ENDMDL
MODEL 2
REMARK VINA RESULT:      -7.6      2.416      3.782
REMARK  7 active torsions:
REMARK  status: ('A' for Active; 'I' for Inactive)
REMARK    1  A    between atoms: O_1  and  C_2 
REMARK    2  A    between atoms: C_2  and  C_3 
REMARK    3  A    between atoms: C_2  and  C_8 
REMARK    4  A    between atoms: C_3  and  C_4 
REMARK    5  A    between atoms: C_4  and  C_5 
REMARK    6  A    between atoms: C_8  and  C_9 
REMARK    7  A    between atoms: C_11  and  O_15 
ROOT
HETATM    1  O   UNL     1      11.375   4.598  10.673  1.00  0.00    -0.395 OA
HETATM    2  H   UNL     1      10.826   5.136  10.081  1.00  0.00     0.210 HD
ENDROOT
BRANCH   1   3
HETATM    3  C   UNL     1      12.471   5.380  11.146  1.00  0.00     0.122 C 
BRANCH   3   4
HETATM    4  C   UNL     1      13.203   6.025   9.958  1.00  0.00     0.042 C 
BRANCH   4   5
HETATM    5  C   UNL     1      12.265   6.469   8.834  1.00  0.00     0.116 C 
BRANCH   5   6
HETATM    6  C   UNL     1      12.361   5.691   7.548  1.00  0.00     0.172 C 
HETATM    7  O   UNL     1      12.180   6.149   6.431  1.00  0.00    -0.648 OA
HETATM    8  O   UNL     1      12.583   4.370   7.703  1.00  0.00    -0.648 OA
ENDBRANCH   5   6
ENDBRANCH   4   5
ENDBRANCH   3   4
BRANCH   3   9
HETATM    9  C   UNL     1      11.958   6.459  12.121  1.00  0.00     0.070 C 
BRANCH   9  10
HETATM   10  C   UNL     1      12.679   6.450  13.452  1.00  0.00    -0.053 A 
HETATM   11  C   UNL     1      11.978   6.691  14.643  1.00  0.00     0.043 A 
HETATM   12  C   UNL     1      12.654   6.677  15.863  1.00  0.00     0.066 A 
HETATM   13  C   UNL     1      14.020   6.428  15.919  1.00  0.00     0.036 A 
HETATM   14  C   UNL     1      14.724   6.189  14.742  1.00  0.00     0.003 A 
HETATM   15  C   UNL     1      14.058   6.199  13.515  1.00  0.00     0.007 A 
BRANCH  12  16
HETATM   16  O   UNL     1      12.002   6.907  17.038  1.00  0.00    -0.361 OA
HETATM   17  H   UNL     1      11.766   6.188  17.591  1.00  0.00     0.217 HD
ENDBRANCH  12  16
ENDBRANCH   9  10
ENDBRANCH   3   9
ENDBRANCH   1   3
TORSDOF 7
ENDMDL
MODEL 3
REMARK VINA RESULT:      -7.5      1.165      1.703
REMARK  7 active torsions:
REMARK  status: ('A' for Active; 'I' for Inactive)
REMARK    1  A    between atoms: O_1  and  C_2 
REMARK    2  A    between atoms: C_2  and  C_3 
REMARK    3  A    between atoms: C_2  and  C_8 
REMARK    4  A    between atoms: C_3  and  C_4 
REMARK    5  A    between atoms: C_4  and  C_5 
REMARK    6  A    between atoms: C_8  and  C_9 
REMARK    7  A    between atoms: C_11  and  O_15 
ROOT
HETATM    1  O   UNL     1      11.220   4.666  11.662  1.00  0.00    -0.395 OA
HETATM    2  H   UNL     1      10.914   5.299  12.330  1.00  0.00     0.210 HD
ENDROOT
BRANCH   1   3
HETATM    3  C   UNL     1      12.400   5.169  11.036  1.00  0.00     0.122 C 
BRANCH   3   4
HETATM    4  C   UNL     1      12.024   5.937   9.758  1.00  0.00     0.042 C 
BRANCH   4   5
HETATM    5  C   UNL     1      12.399   5.196   8.472  1.00  0.00     0.116 C 
BRANCH   5   6
HETATM    6  C   UNL     1      12.504   6.042   7.230  1.00  0.00     0.172 C 
HETATM    7  O   UNL     1      11.700   6.048   6.311  1.00  0.00    -0.648 OA
HETATM    8  O   UNL     1      13.637   6.767   7.134  1.00  0.00    -0.648 OA
ENDBRANCH   5   6
ENDBRANCH   4   5
ENDBRANCH   3   4
BRANCH   3   9
HETATM    9  C   UNL     1      13.161   6.083  12.016  1.00  0.00     0.070 C 
BRANCH   9  10
HETATM   10  C   UNL     1      14.665   5.956  11.902  1.00  0.00    -0.053 A 
HETATM   11  C   UNL     1      15.435   5.581  13.015  1.00  0.00     0.043 A 
HETATM   12  C   UNL     1      16.819   5.465  12.896  1.00  0.00     0.066 A 
HETATM   13  C   UNL     1      17.455   5.717  11.687  1.00  0.00     0.036 A 
HETATM   14  C   UNL     1      16.700   6.090  10.577  1.00  0.00     0.003 A 
HETATM   15  C   UNL     1      15.312   6.208  10.684  1.00  0.00     0.007 A 
BRANCH  12  16
HETATM   16  O   UNL     1      17.595   5.102  13.956  1.00  0.00    -0.361 OA
HETATM   17  H   UNL     1      17.197   4.887  14.776  1.00  0.00     0.217 HD
ENDBRANCH  12  16
ENDBRANCH   9  10
ENDBRANCH   3   9
ENDBRANCH   1   3
TORSDOF 7
ENDMDL
MODEL 4
REMARK VINA RESULT:      -6.6      3.179      5.923
REMARK  7 active torsions:
REMARK  status: ('A' for Active; 'I' for Inactive)
REMARK    1  A    between atoms: O_1  and  C_2 
REMARK    2  A    between atoms: C_2  and  C_3 
REMARK    3  A    between atoms: C_2  and  C_8 
REMARK    4  A    between atoms: C_3  and  C_4 
REMARK    5  A    between atoms: C_4  and  C_5 
REMARK    6  A    between atoms: C_8  and  C_9 
REMARK    7  A    between atoms: C_11  and  O_15 
ROOT
HETATM    1  O   UNL     1      11.181   6.151  15.093  1.00  0.00    -0.395 OA
HETATM    2  H   UNL     1      11.414   5.235  15.309  1.00  0.00     0.210 HD
ENDROOT
BRANCH   1   3
HETATM    3  C   UNL     1      12.044   6.630  14.062  1.00  0.00     0.122 C 
BRANCH   3   4
HETATM    4  C   UNL     1      13.074   7.606  14.655  1.00  0.00     0.042 C 
BRANCH   4   5
HETATM    5  C   UNL     1      14.354   6.920  15.135  1.00  0.00     0.116 C 
BRANCH   5   6
HETATM    6  C   UNL     1      14.353   6.447  16.567  1.00  0.00     0.172 C 
HETATM    7  O   UNL     1      13.383   6.450  17.308  1.00  0.00    -0.648 OA
HETATM    8  O   UNL     1      15.561   6.085  17.042  1.00  0.00    -0.648 OA
ENDBRANCH   5   6
ENDBRANCH   4   5
ENDBRANCH   3   4
BRANCH   3   9
HETATM    9  C   UNL     1      12.750   5.441  13.380  1.00  0.00     0.070 C 
BRANCH   9  10
HETATM   10  C   UNL     1      13.133   5.722  11.943  1.00  0.00    -0.053 A 
HETATM   11  C   UNL     1      12.147   5.831  10.951  1.00  0.00     0.043 A 
HETATM   12  C   UNL     1      12.513   6.093   9.631  1.00  0.00     0.066 A 
HETATM   13  C   UNL     1      13.848   6.247   9.278  1.00  0.00     0.036 A 
HETATM   14  C   UNL     1      14.835   6.138  10.255  1.00  0.00     0.003 A 
HETATM   15  C   UNL     1      14.479   5.878  11.581  1.00  0.00     0.007 A 
BRANCH  12  16
HETATM   16  O   UNL     1      11.579   6.207   8.644  1.00  0.00    -0.361 OA
HETATM   17  H   UNL     1      10.904   6.852   8.710  1.00  0.00     0.217 HD
ENDBRANCH  12  16
ENDBRANCH   9  10
ENDBRANCH   3   9
ENDBRANCH   1   3
TORSDOF 7
ENDMDL
MODEL 5
REMARK VINA RESULT:      -6.5      2.588      5.698
REMARK  7 active torsions:
REMARK  status: ('A' for Active; 'I' for Inactive)
REMARK    1  A    between atoms: O_1  and  C_2 
REMARK    2  A    between atoms: C_2  and  C_3 
REMARK    3  A    between atoms: C_2  and  C_8 
REMARK    4  A    between atoms: C_3  and  C_4 
REMARK    5  A    between atoms: C_4  and  C_5 
REMARK    6  A    between atoms: C_8  and  C_9 
REMARK    7  A    between atoms: C_11  and  O_15 
ROOT
HETATM    1  O   UNL     1      16.081   4.299  14.413  1.00  0.00    -0.395 OA
HETATM    2  H   UNL     1      15.993   4.056  15.348  1.00  0.00     0.210 HD
ENDROOT
BRANCH   1   3
HETATM    3  C   UNL     1      15.055   5.229  14.066  1.00  0.00     0.122 C 
BRANCH   3   4
HETATM    4  C   UNL     1      14.794   6.181  15.244  1.00  0.00     0.042 C 
BRANCH   4   5
HETATM    5  C   UNL     1      13.816   7.309  14.909  1.00  0.00     0.116 C 
BRANCH   5   6
HETATM    6  C   UNL     1      12.357   7.008  15.139  1.00  0.00     0.172 C 
HETATM    7  O   UNL     1      11.493   7.004  14.276  1.00  0.00    -0.648 OA
HETATM    8  O   UNL     1      12.017   6.820  16.430  1.00  0.00    -0.648 OA
ENDBRANCH   5   6
ENDBRANCH   4   5
ENDBRANCH   3   4
BRANCH   3   9
HETATM    9  C   UNL     1      15.472   6.019  12.810  1.00  0.00     0.070 C 
BRANCH   9  10
HETATM   10  C   UNL     1      14.488   5.883  11.668  1.00  0.00    -0.053 A 
HETATM   11  C   UNL     1      13.187   5.412  11.901  1.00  0.00     0.043 A 
HETATM   12  C   UNL     1      12.289   5.294  10.841  1.00  0.00     0.066 A 
HETATM   13  C   UNL     1      12.663   5.636   9.547  1.00  0.00     0.036 A 
HETATM   14  C   UNL     1      13.953   6.104   9.306  1.00  0.00     0.003 A 
HETATM   15  C   UNL     1      14.860   6.228  10.360  1.00  0.00     0.007 A 
BRANCH  12  16
HETATM   16  O   UNL     1      11.018   4.841  11.034  1.00  0.00    -0.361 OA
HETATM   17  H   UNL     1      10.867   4.072  11.547  1.00  0.00     0.217 HD
ENDBRANCH  12  16
ENDBRANCH   9  10
ENDBRANCH   3   9
ENDBRANCH   1   3
TORSDOF 7
ENDMDL
MODEL 6
REMARK VINA RESULT:      -6.5      2.047      6.047
REMARK  7 active torsions:
REMARK  status: ('A' for Active; 'I' for Inactive)
REMARK    1  A    between atoms: O_1  and  C_2 
REMARK    2  A    between atoms: C_2  and  C_3 
REMARK    3  A    between atoms: C_2  and  C_8 
REMARK    4  A    between atoms: C_3  and  C_4 
REMARK    5  A    between atoms: C_4  and  C_5 
REMARK    6  A    between atoms: C_8  and  C_9 
REMARK    7  A    between atoms: C_11  and  O_15 
ROOT
HETATM    1  O   UNL     1      17.881   5.776   9.455  1.00  0.00    -0.395 OA
HETATM    2  H   UNL     1      18.812   5.992   9.624  1.00  0.00     0.210 HD
ENDROOT
BRANCH   1   3
HETATM    3  C   UNL     1      17.137   5.894  10.667  1.00  0.00     0.122 C 
BRANCH   3   4
HETATM    4  C   UNL     1      18.048   6.419  11.789  1.00  0.00     0.042 C 
BRANCH   4   5
HETATM    5  C   UNL     1      18.068   5.519  13.026  1.00  0.00     0.116 C 
BRANCH   5   6
HETATM    6  C   UNL     1      19.077   4.400  13.012  1.00  0.00     0.172 C 
HETATM    7  O   UNL     1      19.882   4.188  12.118  1.00  0.00    -0.648 OA
HETATM    8  O   UNL     1      18.985   3.543  14.048  1.00  0.00    -0.648 OA
ENDBRANCH   5   6
ENDBRANCH   4   5
ENDBRANCH   3   4
BRANCH   3   9
HETATM    9  C   UNL     1      15.938   6.838  10.452  1.00  0.00     0.070 C 
BRANCH   9  10
HETATM   10  C   UNL     1      14.664   6.338  11.098  1.00  0.00    -0.053 A 
HETATM   11  C   UNL     1      13.558   5.983  10.311  1.00  0.00     0.043 A 
HETATM   12  C   UNL     1      12.391   5.521  10.919  1.00  0.00     0.066 A 
HETATM   13  C   UNL     1      12.303   5.407  12.301  1.00  0.00     0.036 A 
HETATM   14  C   UNL     1      13.395   5.759  13.091  1.00  0.00     0.003 A 
HETATM   15  C   UNL     1      14.569   6.221  12.493  1.00  0.00     0.007 A 
BRANCH  12  16
HETATM   16  O   UNL     1      11.299   5.166  10.183  1.00  0.00    -0.361 OA
HETATM   17  H   UNL     1      11.322   4.394   9.654  1.00  0.00     0.217 HD
ENDBRANCH  12  16
ENDBRANCH   9  10
ENDBRANCH   3   9
ENDBRANCH   1   3
TORSDOF 7
ENDMDL
MODEL 7
REMARK VINA RESULT:      -6.5      2.413      4.431
REMARK  7 active torsions:
REMARK  status: ('A' for Active; 'I' for Inactive)
REMARK    1  A    between atoms: O_1  and  C_2 
REMARK    2  A    between atoms: C_2  and  C_3 
REMARK    3  A    between atoms: C_2  and  C_8 
REMARK    4  A    between atoms: C_3  and  C_4 
REMARK    5  A    between atoms: C_4  and  C_5 
REMARK    6  A    between atoms: C_8  and  C_9 
REMARK    7  A    between atoms: C_11  and  O_15 
ROOT
HETATM    1  O   UNL     1      11.642   4.807   9.754  1.00  0.00    -0.395 OA
HETATM    2  H   UNL     1      11.378   5.412   9.043  1.00  0.00     0.210 HD
ENDROOT
BRANCH   1   3
HETATM    3  C   UNL     1      12.663   5.417  10.542  1.00  0.00     0.122 C 
BRANCH   3   4
HETATM    4  C   UNL     1      13.589   6.250   9.641  1.00  0.00     0.042 C 
BRANCH   4   5
HETATM    5  C   UNL     1      15.073   5.924   9.829  1.00  0.00     0.116 C 
BRANCH   5   6
HETATM    6  C   UNL     1      15.896   6.972  10.531  1.00  0.00     0.172 C 
HETATM    7  O   UNL     1      15.765   7.306  11.699  1.00  0.00    -0.648 OA
HETATM    8  O   UNL     1      16.772   7.624   9.742  1.00  0.00    -0.648 OA
ENDBRANCH   5   6
ENDBRANCH   4   5
ENDBRANCH   3   4
BRANCH   3   9
HETATM    9  C   UNL     1      12.022   6.301  11.630  1.00  0.00     0.070 C 
BRANCH   9  10
HETATM   10  C   UNL     1      12.554   6.016  13.018  1.00  0.00    -0.053 A 
HETATM   11  C   UNL     1      11.993   6.646  14.140  1.00  0.00     0.043 A 
HETATM   12  C   UNL     1      12.490   6.372  15.413  1.00  0.00     0.066 A 
HETATM   13  C   UNL     1      13.540   5.480  15.593  1.00  0.00     0.036 A 
HETATM   14  C   UNL     1      14.104   4.851  14.486  1.00  0.00     0.003 A 
HETATM   15  C   UNL     1      13.613   5.116  13.206  1.00  0.00     0.007 A 
BRANCH  12  16
HETATM   16  O   UNL     1      11.966   6.966  16.523  1.00  0.00    -0.361 OA
HETATM   17  H   UNL     1      12.485   7.049  17.299  1.00  0.00     0.217 HD
ENDBRANCH  12  16
ENDBRANCH   9  10
ENDBRANCH   3   9
ENDBRANCH   1   3
TORSDOF 7
ENDMDL
MODEL 8
REMARK VINA RESULT:      -6.4      2.009      3.940
REMARK  7 active torsions:
REMARK  status: ('A' for Active; 'I' for Inactive)
REMARK    1  A    between atoms: O_1  and  C_2 
REMARK    2  A    between atoms: C_2  and  C_3 
REMARK    3  A    between atoms: C_2  and  C_8 
REMARK    4  A    between atoms: C_3  and  C_4 
REMARK    5  A    between atoms: C_4  and  C_5 
REMARK    6  A    between atoms: C_8  and  C_9 
REMARK    7  A    between atoms: C_11  and  O_15 
ROOT
HETATM    1  O   UNL     1      16.358   7.596  10.755  1.00  0.00    -0.395 OA
HETATM    2  H   UNL     1      16.781   7.316   9.928  1.00  0.00     0.210 HD
ENDROOT
BRANCH   1   3
HETATM    3  C   UNL     1      15.209   6.784  10.998  1.00  0.00     0.122 C 
BRANCH   3   4
HETATM    4  C   UNL     1      14.867   5.972   9.738  1.00  0.00     0.042 C 
BRANCH   4   5
HETATM    5  C   UNL     1      13.384   6.025   9.365  1.00  0.00     0.116 C 
BRANCH   5   6
HETATM    6  C   UNL     1      13.043   5.615   7.956  1.00  0.00     0.172 C 
HETATM    7  O   UNL     1      13.164   6.321   6.968  1.00  0.00    -0.648 OA
HETATM    8  O   UNL     1      12.483   4.393   7.843  1.00  0.00    -0.648 OA
ENDBRANCH   5   6
ENDBRANCH   4   5
ENDBRANCH   3   4
BRANCH   3   9
HETATM    9  C   UNL     1      15.476   5.849  12.194  1.00  0.00     0.070 C 
BRANCH   9  10
HETATM   10  C   UNL     1      14.597   6.147  13.390  1.00  0.00    -0.053 A 
HETATM   11  C   UNL     1      13.212   6.312  13.233  1.00  0.00     0.043 A 
HETATM   12  C   UNL     1      12.413   6.583  14.343  1.00  0.00     0.066 A 
HETATM   13  C   UNL     1      12.969   6.696  15.612  1.00  0.00     0.036 A 
HETATM   14  C   UNL     1      14.343   6.536  15.777  1.00  0.00     0.003 A 
HETATM   15  C   UNL     1      15.152   6.262  14.673  1.00  0.00     0.007 A 
BRANCH  12  16
HETATM   16  O   UNL     1      11.065   6.747  14.225  1.00  0.00    -0.361 OA
HETATM   17  H   UNL     1      10.581   7.158  14.913  1.00  0.00     0.217 HD
ENDBRANCH  12  16
ENDBRANCH   9  10
ENDBRANCH   3   9
ENDBRANCH   1   3
TORSDOF 7
ENDMDL
MODEL 9
REMARK VINA RESULT:      -6.4      2.362      4.943
REMARK  7 active torsions:
REMARK  status: ('A' for Active; 'I' for Inactive)
REMARK    1  A    between atoms: O_1  and  C_2 
REMARK    2  A    between atoms: C_2  and  C_3 
REMARK    3  A    between atoms: C_2  and  C_8 
REMARK    4  A    between atoms: C_3  and  C_4 
REMARK    5  A    between atoms: C_4  and  C_5 
REMARK    6  A    between atoms: C_8  and  C_9 
REMARK    7  A    between atoms: C_11  and  O_15 
ROOT
HETATM    1  O   UNL     1      14.619   6.035   9.023  1.00  0.00    -0.395 OA
HETATM    2  H   UNL     1      15.492   5.993   8.602  1.00  0.00     0.210 HD
ENDROOT
BRANCH   1   3
HETATM    3  C   UNL     1      14.776   6.037  10.441  1.00  0.00     0.122 C 
BRANCH   3   4
HETATM    4  C   UNL     1      15.770   7.134  10.855  1.00  0.00     0.042 C 
BRANCH   4   5
HETATM    5  C   UNL     1      17.206   6.627  11.007  1.00  0.00     0.116 C 
BRANCH   5   6
HETATM    6  C   UNL     1      18.140   6.936   9.865  1.00  0.00     0.172 C 
HETATM    7  O   UNL     1      18.530   6.130   9.036  1.00  0.00    -0.648 OA
HETATM    8  O   UNL     1      18.620   8.196   9.855  1.00  0.00    -0.648 OA
ENDBRANCH   5   6
ENDBRANCH   4   5
ENDBRANCH   3   4
BRANCH   3   9
HETATM    9  C   UNL     1      13.408   6.258  11.116  1.00  0.00     0.070 C 
BRANCH   9  10
HETATM   10  C   UNL     1      13.410   5.916  12.591  1.00  0.00    -0.053 A 
HETATM   11  C   UNL     1      12.375   6.363  13.427  1.00  0.00     0.043 A 
HETATM   12  C   UNL     1      12.387   6.038  14.783  1.00  0.00     0.066 A 
HETATM   13  C   UNL     1      13.413   5.275  15.325  1.00  0.00     0.036 A 
HETATM   14  C   UNL     1      14.445   4.827  14.503  1.00  0.00     0.003 A 
HETATM   15  C   UNL     1      14.443   5.145  13.144  1.00  0.00     0.007 A 
BRANCH  12  16
HETATM   16  O   UNL     1      11.396   6.456  15.622  1.00  0.00    -0.361 OA
HETATM   17  H   UNL     1      10.882   7.207  15.402  1.00  0.00     0.217 HD
ENDBRANCH  12  16
ENDBRANCH   9  10
ENDBRANCH   3   9
ENDBRANCH   1   3
TORSDOF 7
ENDMDL
