MODEL 1
REMARK VINA RESULT:      -7.5      0.000      0.000
REMARK  7 active torsions:
REMARK  status: ('A' for Active; 'I' for Inactive)
REMARK    1  A    between atoms: O_1  and  C_2 
REMARK    2  A    between atoms: C_2  and  C_3 
REMARK    3  A    between atoms: C_2  and  C_8 
REMARK    4  A    between atoms: C_3  and  C_4 
REMARK    5  A    between atoms: C_4  and  C_5 
REMARK    6  A    between atoms: C_8  and  C_9 
REMARK    7  A    between atoms: C_11  and  O_15 
ROOT
HETATM    1  O   UNL     1      21.653  -0.845  31.209  1.00  0.00    -0.395 OA
HETATM    2  H   UNL     1      21.004  -0.225  31.576  1.00  0.00     0.210 HD
ENDROOT
BRANCH   1   3
HETATM    3  C   UNL     1      21.821  -1.943  32.104  1.00  0.00     0.122 C 
BRANCH   3   4
HETATM    4  C   UNL     1      21.430  -1.520  33.529  1.00  0.00     0.042 C 
BRANCH   4   5
HETATM    5  C   UNL     1      22.628  -1.371  34.469  1.00  0.00     0.116 C 
BRANCH   5   6
HETATM    6  C   UNL     1      22.362  -1.649  35.926  1.00  0.00     0.172 C 
HETATM    7  O   UNL     1      22.025  -2.728  36.388  1.00  0.00    -0.648 OA
HETATM    8  O   UNL     1      22.430  -0.568  36.729  1.00  0.00    -0.648 OA
ENDBRANCH   5   6
ENDBRANCH   4   5
ENDBRANCH   3   4
BRANCH   3   9
HETATM    9  C   UNL     1      20.962  -3.134  31.634  1.00  0.00     0.070 C 
BRANCH   9  10
HETATM   10  C   UNL     1      21.691  -4.459  31.706  1.00  0.00    -0.053 A 
HETATM   11  C   UNL     1      22.169  -4.943  32.934  1.00  0.00     0.043 A 
HETATM   12  C   UNL     1      22.836  -6.165  32.987  1.00  0.00     0.066 A 
HETATM   13  C   UNL     1      23.039  -6.919  31.838  1.00  0.00     0.036 A 
HETATM   14  C   UNL     1      22.569  -6.446  30.614  1.00  0.00     0.003 A 
HETATM   15  C   UNL     1      21.898  -5.223  30.549  1.00  0.00     0.007 A 
BRANCH  12  16
HETATM   16  O   UNL     1      23.312  -6.664  34.164  1.00  0.00    -0.361 OA
HETATM   17  H   UNL     1      24.138  -7.105  34.186  1.00  0.00     0.217 HD
ENDBRANCH  12  16
ENDBRANCH   9  10
ENDBRANCH   3   9
ENDBRANCH   1   3
TORSDOF 7
ENDMDL
MODEL 2
REMARK VINA RESULT:      -7.2      1.160      1.700
REMARK  7 active torsions:
REMARK  status: ('A' for Active; 'I' for Inactive)
REMARK    1  A    between atoms: O_1  and  C_2 
REMARK    2  A    between atoms: C_2  and  C_3 
REMARK    3  A    between atoms: C_2  and  C_8 
REMARK    4  A    between atoms: C_3  and  C_4 
REMARK    5  A    between atoms: C_4  and  C_5 
REMARK    6  A    between atoms: C_8  and  C_9 
REMARK    7  A    between atoms: C_11  and  O_15 
ROOT
HETATM    1  O   UNL     1      21.672  -0.864  31.221  1.00  0.00    -0.395 OA
HETATM    2  H   UNL     1      21.078  -1.106  30.494  1.00  0.00     0.210 HD
ENDROOT
BRANCH   1   3
HETATM    3  C   UNL     1      21.838  -1.984  32.091  1.00  0.00     0.122 C 
BRANCH   3   4
HETATM    4  C   UNL     1      21.391  -1.610  33.513  1.00  0.00     0.042 C 
BRANCH   4   5
HETATM    5  C   UNL     1      22.557  -1.297  34.454  1.00  0.00     0.116 C 
BRANCH   5   6
HETATM    6  C   UNL     1      22.343  -1.639  35.906  1.00  0.00     0.172 C 
HETATM    7  O   UNL     1      21.992  -2.729  36.329  1.00  0.00    -0.648 OA
HETATM    8  O   UNL     1      22.479  -0.602  36.756  1.00  0.00    -0.648 OA
ENDBRANCH   5   6
ENDBRANCH   4   5
ENDBRANCH   3   4
BRANCH   3   9
HETATM    9  C   UNL     1      21.025  -3.181  31.561  1.00  0.00     0.070 C 
BRANCH   9  10
HETATM   10  C   UNL     1      21.729  -4.508  31.746  1.00  0.00    -0.053 A 
HETATM   11  C   UNL     1      21.967  -5.348  30.647  1.00  0.00     0.043 A 
HETATM   12  C   UNL     1      22.619  -6.566  30.831  1.00  0.00     0.066 A 
HETATM   13  C   UNL     1      23.040  -6.967  32.093  1.00  0.00     0.036 A 
HETATM   14  C   UNL     1      22.808  -6.141  33.190  1.00  0.00     0.003 A 
HETATM   15  C   UNL     1      22.156  -4.917  33.017  1.00  0.00     0.007 A 
BRANCH  12  16
HETATM   16  O   UNL     1      22.866  -7.404  29.784  1.00  0.00    -0.361 OA
HETATM   17  H   UNL     1      22.348  -7.348  29.006  1.00  0.00     0.217 HD
ENDBRANCH  12  16
ENDBRANCH   9  10
ENDBRANCH   3   9
ENDBRANCH   1   3
TORSDOF 7
ENDMDL
MODEL 3
REMARK VINA RESULT:      -7.0      2.714      4.127
REMARK  7 active torsions:
REMARK  status: ('A' for Active; 'I' for Inactive)
REMARK    1  A    between atoms: O_1  and  C_2 
REMARK    2  A    between atoms: C_2  and  C_3 
REMARK    3  A    between atoms: C_2  and  C_8 
REMARK    4  A    between atoms: C_3  and  C_4 
REMARK    5  A    between atoms: C_4  and  C_5 
REMARK    6  A    between atoms: C_8  and  C_9 
REMARK    7  A    between atoms: C_11  and  O_15 
ROOT
HETATM    1  O   UNL     1      21.684  -0.526  32.096  1.00  0.00    -0.395 OA
HETATM    2  H   UNL     1      20.815  -0.112  31.980  1.00  0.00     0.210 HD
ENDROOT
BRANCH   1   3
HETATM    3  C   UNL     1      21.549  -1.945  32.011  1.00  0.00     0.122 C 
BRANCH   3   4
HETATM    4  C   UNL     1      21.704  -2.568  33.408  1.00  0.00     0.042 C 
BRANCH   4   5
HETATM    5  C   UNL     1      21.394  -1.593  34.546  1.00  0.00     0.116 C 
BRANCH   5   6
HETATM    6  C   UNL     1      22.512  -1.344  35.524  1.00  0.00     0.172 C 
HETATM    7  O   UNL     1      22.370  -1.113  36.715  1.00  0.00    -0.648 OA
HETATM    8  O   UNL     1      23.742  -1.296  34.974  1.00  0.00    -0.648 OA
ENDBRANCH   5   6
ENDBRANCH   4   5
ENDBRANCH   3   4
BRANCH   3   9
HETATM    9  C   UNL     1      20.179  -2.302  31.403  1.00  0.00     0.070 C 
BRANCH   9  10
HETATM   10  C   UNL     1      20.257  -2.676  29.938  1.00  0.00    -0.053 A 
HETATM   11  C   UNL     1      19.089  -2.786  29.168  1.00  0.00     0.043 A 
HETATM   12  C   UNL     1      19.174  -3.129  27.820  1.00  0.00     0.066 A 
HETATM   13  C   UNL     1      20.405  -3.366  27.220  1.00  0.00     0.036 A 
HETATM   14  C   UNL     1      21.570  -3.261  27.977  1.00  0.00     0.003 A 
HETATM   15  C   UNL     1      21.496  -2.917  29.328  1.00  0.00     0.007 A 
BRANCH  12  16
HETATM   16  O   UNL     1      18.059  -3.242  27.044  1.00  0.00    -0.361 OA
HETATM   17  H   UNL     1      17.909  -4.025  26.551  1.00  0.00     0.217 HD
ENDBRANCH  12  16
ENDBRANCH   9  10
ENDBRANCH   3   9
ENDBRANCH   1   3
TORSDOF 7
ENDMDL
MODEL 4
REMARK VINA RESULT:      -6.9      3.425      6.245
REMARK  7 active torsions:
REMARK  status: ('A' for Active; 'I' for Inactive)
REMARK    1  A    between atoms: O_1  and  C_2 
REMARK    2  A    between atoms: C_2  and  C_3 
REMARK    3  A    between atoms: C_2  and  C_8 
REMARK    4  A    between atoms: C_3  and  C_4 
REMARK    5  A    between atoms: C_4  and  C_5 
REMARK    6  A    between atoms: C_8  and  C_9 
REMARK    7  A    between atoms: C_11  and  O_15 
ROOT
HETATM    1  O   UNL     1      18.879  -1.527  29.420  1.00  0.00    -0.395 OA
HETATM    2  H   UNL     1      19.576  -0.949  29.767  1.00  0.00     0.210 HD
ENDROOT
BRANCH   1   3
HETATM    3  C   UNL     1      19.297  -2.888  29.516  1.00  0.00     0.122 C 
BRANCH   3   4
HETATM    4  C   UNL     1      18.881  -3.652  28.248  1.00  0.00     0.042 C 
BRANCH   4   5
HETATM    5  C   UNL     1      19.772  -3.356  27.040  1.00  0.00     0.116 C 
BRANCH   5   6
HETATM    6  C   UNL     1      19.382  -2.161  26.209  1.00  0.00     0.172 C 
HETATM    7  O   UNL     1      20.121  -1.564  25.442  1.00  0.00    -0.648 OA
HETATM    8  O   UNL     1      18.134  -1.701  26.433  1.00  0.00    -0.648 OA
ENDBRANCH   5   6
ENDBRANCH   4   5
ENDBRANCH   3   4
BRANCH   3   9
HETATM    9  C   UNL     1      20.824  -2.951  29.713  1.00  0.00     0.070 C 
BRANCH   9  10
HETATM   10  C   UNL     1      21.231  -3.089  31.165  1.00  0.00    -0.053 A 
HETATM   11  C   UNL     1      21.168  -1.986  32.030  1.00  0.00     0.043 A 
HETATM   12  C   UNL     1      21.543  -2.127  33.365  1.00  0.00     0.066 A 
HETATM   13  C   UNL     1      21.983  -3.349  33.858  1.00  0.00     0.036 A 
HETATM   14  C   UNL     1      22.050  -4.450  33.007  1.00  0.00     0.003 A 
HETATM   15  C   UNL     1      21.675  -4.321  31.668  1.00  0.00     0.007 A 
BRANCH  12  16
HETATM   16  O   UNL     1      21.492  -1.076  34.232  1.00  0.00    -0.361 OA
HETATM   17  H   UNL     1      22.277  -0.619  34.461  1.00  0.00     0.217 HD
ENDBRANCH  12  16
ENDBRANCH   9  10
ENDBRANCH   3   9
ENDBRANCH   1   3
TORSDOF 7
ENDMDL
MODEL 5
REMARK VINA RESULT:      -6.9      1.256      1.482
REMARK  7 active torsions:
REMARK  status: ('A' for Active; 'I' for Inactive)
REMARK    1  A    between atoms: O_1  and  C_2 
REMARK    2  A    between atoms: C_2  and  C_3 
REMARK    3  A    between atoms: C_2  and  C_8 
REMARK    4  A    between atoms: C_3  and  C_4 
REMARK    5  A    between atoms: C_4  and  C_5 
REMARK    6  A    between atoms: C_8  and  C_9 
REMARK    7  A    between atoms: C_11  and  O_15 
ROOT
HETATM    1  O   UNL     1      21.107  -2.237  29.819  1.00  0.00    -0.395 OA
HETATM    2  H   UNL     1      21.861  -1.657  29.631  1.00  0.00     0.210 HD
ENDROOT
BRANCH   1   3
HETATM    3  C   UNL     1      21.331  -2.927  31.047  1.00  0.00     0.122 C 
BRANCH   3   4
HETATM    4  C   UNL     1      20.772  -2.103  32.218  1.00  0.00     0.042 C 
BRANCH   4   5
HETATM    5  C   UNL     1      21.859  -1.444  33.070  1.00  0.00     0.116 C 
BRANCH   5   6
HETATM    6  C   UNL     1      22.021  -1.985  34.468  1.00  0.00     0.172 C 
HETATM    7  O   UNL     1      22.603  -3.017  34.760  1.00  0.00    -0.648 OA
HETATM    8  O   UNL     1      21.380  -1.282  35.423  1.00  0.00    -0.648 OA
ENDBRANCH   5   6
ENDBRANCH   4   5
ENDBRANCH   3   4
BRANCH   3   9
HETATM    9  C   UNL     1      20.667  -4.317  30.992  1.00  0.00     0.070 C 
BRANCH   9  10
HETATM   10  C   UNL     1      21.488  -5.396  31.667  1.00  0.00    -0.053 A 
HETATM   11  C   UNL     1      21.293  -5.693  33.025  1.00  0.00     0.043 A 
HETATM   12  C   UNL     1      22.053  -6.691  33.634  1.00  0.00     0.066 A 
HETATM   13  C   UNL     1      23.008  -7.400  32.916  1.00  0.00     0.036 A 
HETATM   14  C   UNL     1      23.209  -7.111  31.568  1.00  0.00     0.003 A 
HETATM   15  C   UNL     1      22.452  -6.115  30.947  1.00  0.00     0.007 A 
BRANCH  12  16
HETATM   16  O   UNL     1      21.888  -7.005  34.951  1.00  0.00    -0.361 OA
HETATM   17  H   UNL     1      21.258  -7.650  35.203  1.00  0.00     0.217 HD
ENDBRANCH  12  16
ENDBRANCH   9  10
ENDBRANCH   3   9
ENDBRANCH   1   3
TORSDOF 7
ENDMDL
MODEL 6
REMARK VINA RESULT:      -6.9      3.323      6.118
REMARK  7 active torsions:
REMARK  status: ('A' for Active; 'I' for Inactive)
REMARK    1  A    between atoms: O_1  and  C_2 
REMARK    2  A    between atoms: C_2  and  C_3 
REMARK    3  A    between atoms: C_2  and  C_8 
REMARK    4  A    between atoms: C_3  and  C_4 
REMARK    5  A    between atoms: C_4  and  C_5 
REMARK    6  A    between atoms: C_8  and  C_9 
REMARK    7  A    between atoms: C_11  and  O_15 
ROOT
HETATM    1  O   UNL     1      18.805  -1.614  29.620  1.00  0.00    -0.395 OA
HETATM    2  H   UNL     1      18.345  -1.476  30.463  1.00  0.00     0.210 HD
ENDROOT
BRANCH   1   3
HETATM    3  C   UNL     1      19.485  -2.869  29.650  1.00  0.00     0.122 C 
BRANCH   3   4
HETATM    4  C   UNL     1      19.276  -3.606  28.317  1.00  0.00     0.042 C 
BRANCH   4   5
HETATM    5  C   UNL     1      20.154  -3.072  27.183  1.00  0.00     0.116 C 
BRANCH   5   6
HETATM    6  C   UNL     1      19.498  -2.085  26.251  1.00  0.00     0.172 C 
HETATM    7  O   UNL     1      20.044  -1.541  25.304  1.00  0.00    -0.648 OA
HETATM    8  O   UNL     1      18.237  -1.747  26.584  1.00  0.00    -0.648 OA
ENDBRANCH   5   6
ENDBRANCH   4   5
ENDBRANCH   3   4
BRANCH   3   9
HETATM    9  C   UNL     1      20.986  -2.642  29.918  1.00  0.00     0.070 C 
BRANCH   9  10
HETATM   10  C   UNL     1      21.348  -2.734  31.385  1.00  0.00    -0.053 A 
HETATM   11  C   UNL     1      21.634  -3.977  31.971  1.00  0.00     0.043 A 
HETATM   12  C   UNL     1      21.969  -4.048  33.322  1.00  0.00     0.066 A 
HETATM   13  C   UNL     1      22.025  -2.902  34.105  1.00  0.00     0.036 A 
HETATM   14  C   UNL     1      21.742  -1.664  33.533  1.00  0.00     0.003 A 
HETATM   15  C   UNL     1      21.407  -1.580  32.180  1.00  0.00     0.007 A 
BRANCH  12  16
HETATM   16  O   UNL     1      22.253  -5.239  33.922  1.00  0.00    -0.361 OA
HETATM   17  H   UNL     1      23.055  -5.347  34.395  1.00  0.00     0.217 HD
ENDBRANCH  12  16
ENDBRANCH   9  10
ENDBRANCH   3   9
ENDBRANCH   1   3
TORSDOF 7
ENDMDL
MODEL 7
REMARK VINA RESULT:      -6.6      2.016      6.092
REMARK  7 active torsions:
REMARK  status: ('A' for Active; 'I' for Inactive)
REMARK    1  A    between atoms: O_1  and  C_2 
REMARK    2  A    between atoms: C_2  and  C_3 
REMARK    3  A    between atoms: C_2  and  C_8 
REMARK    4  A    between atoms: C_3  and  C_4 
REMARK    5  A    between atoms: C_4  and  C_5 
REMARK    6  A    between atoms: C_8  and  C_9 
REMARK    7  A    between atoms: C_11  and  O_15 
ROOT
HETATM    1  O   UNL     1      23.668  -7.004  34.203  1.00  0.00    -0.395 OA
HETATM    2  H   UNL     1      23.027  -6.992  34.931  1.00  0.00     0.210 HD
ENDROOT
BRANCH   1   3
HETATM    3  C   UNL     1      23.073  -6.436  33.037  1.00  0.00     0.122 C 
BRANCH   3   4
HETATM    4  C   UNL     1      22.699  -7.550  32.046  1.00  0.00     0.042 C 
BRANCH   4   5
HETATM    5  C   UNL     1      23.712  -7.721  30.912  1.00  0.00     0.116 C 
BRANCH   5   6
HETATM    6  C   UNL     1      24.807  -8.728  31.152  1.00  0.00     0.172 C 
HETATM    7  O   UNL     1      25.275  -9.013  32.243  1.00  0.00    -0.648 OA
HETATM    8  O   UNL     1      25.337  -9.262  30.034  1.00  0.00    -0.648 OA
ENDBRANCH   5   6
ENDBRANCH   4   5
ENDBRANCH   3   4
BRANCH   3   9
HETATM    9  C   UNL     1      21.829  -5.617  33.432  1.00  0.00     0.070 C 
BRANCH   9  10
HETATM   10  C   UNL     1      21.628  -4.387  32.574  1.00  0.00    -0.053 A 
HETATM   11  C   UNL     1      21.756  -3.103  33.128  1.00  0.00     0.043 A 
HETATM   12  C   UNL     1      21.572  -1.978  32.325  1.00  0.00     0.066 A 
HETATM   13  C   UNL     1      21.259  -2.106  30.978  1.00  0.00     0.036 A 
HETATM   14  C   UNL     1      21.129  -3.375  30.419  1.00  0.00     0.003 A 
HETATM   15  C   UNL     1      21.313  -4.510  31.213  1.00  0.00     0.007 A 
BRANCH  12  16
HETATM   16  O   UNL     1      21.691  -0.718  32.832  1.00  0.00    -0.361 OA
HETATM   17  H   UNL     1      21.175  -0.458  33.569  1.00  0.00     0.217 HD
ENDBRANCH  12  16
ENDBRANCH   9  10
ENDBRANCH   3   9
ENDBRANCH   1   3
TORSDOF 7
ENDMDL
MODEL 8
REMARK VINA RESULT:      -6.6      3.339      6.133
REMARK  7 active torsions:
REMARK  status: ('A' for Active; 'I' for Inactive)
REMARK    1  A    between atoms: O_1  and  C_2 
REMARK    2  A    between atoms: C_2  and  C_3 
REMARK    3  A    between atoms: C_2  and  C_8 
REMARK    4  A    between atoms: C_3  and  C_4 
REMARK    5  A    between atoms: C_4  and  C_5 
REMARK    6  A    between atoms: C_8  and  C_9 
REMARK    7  A    between atoms: C_11  and  O_15 
ROOT
HETATM    1  O   UNL     1      19.046  -1.647  28.672  1.00  0.00    -0.395 OA
HETATM    2  H   UNL     1      18.362  -1.021  28.954  1.00  0.00     0.210 HD
ENDROOT
BRANCH   1   3
HETATM    3  C   UNL     1      19.327  -2.556  29.736  1.00  0.00     0.122 C 
BRANCH   3   4
HETATM    4  C   UNL     1      18.705  -3.927  29.428  1.00  0.00     0.042 C 
BRANCH   4   5
HETATM    5  C   UNL     1      19.521  -4.755  28.433  1.00  0.00     0.116 C 
BRANCH   5   6
HETATM    6  C   UNL     1      19.090  -4.668  26.991  1.00  0.00     0.172 C 
HETATM    7  O   UNL     1      18.652  -5.596  26.330  1.00  0.00    -0.648 OA
HETATM    8  O   UNL     1      19.306  -3.471  26.409  1.00  0.00    -0.648 OA
ENDBRANCH   5   6
ENDBRANCH   4   5
ENDBRANCH   3   4
BRANCH   3   9
HETATM    9  C   UNL     1      20.852  -2.679  29.927  1.00  0.00     0.070 C 
BRANCH   9  10
HETATM   10  C   UNL     1      21.256  -2.879  31.372  1.00  0.00    -0.053 A 
HETATM   11  C   UNL     1      21.190  -1.813  32.283  1.00  0.00     0.043 A 
HETATM   12  C   UNL     1      21.563  -2.011  33.612  1.00  0.00     0.066 A 
HETATM   13  C   UNL     1      22.003  -3.252  34.053  1.00  0.00     0.036 A 
HETATM   14  C   UNL     1      22.073  -4.315  33.156  1.00  0.00     0.003 A 
HETATM   15  C   UNL     1      21.701  -4.130  31.823  1.00  0.00     0.007 A 
BRANCH  12  16
HETATM   16  O   UNL     1      21.509  -0.997  34.523  1.00  0.00    -0.361 OA
HETATM   17  H   UNL     1      21.732  -1.160  35.418  1.00  0.00     0.217 HD
ENDBRANCH  12  16
ENDBRANCH   9  10
ENDBRANCH   3   9
ENDBRANCH   1   3
TORSDOF 7
ENDMDL
MODEL 9
REMARK VINA RESULT:      -6.4      3.261      6.178
REMARK  7 active torsions:
REMARK  status: ('A' for Active; 'I' for Inactive)
REMARK    1  A    between atoms: O_1  and  C_2 
REMARK    2  A    between atoms: C_2  and  C_3 
REMARK    3  A    between atoms: C_2  and  C_8 
REMARK    4  A    between atoms: C_3  and  C_4 
REMARK    5  A    between atoms: C_4  and  C_5 
REMARK    6  A    between atoms: C_8  and  C_9 
REMARK    7  A    between atoms: C_11  and  O_15 
ROOT
HETATM    1  O   UNL     1      18.914  -4.134  29.452  1.00  0.00    -0.395 OA
HETATM    2  H   UNL     1      18.748  -4.863  30.069  1.00  0.00     0.210 HD
ENDROOT
BRANCH   1   3
HETATM    3  C   UNL     1      20.298  -3.788  29.486  1.00  0.00     0.122 C 
BRANCH   3   4
HETATM    4  C   UNL     1      20.828  -3.616  28.054  1.00  0.00     0.042 C 
BRANCH   4   5
HETATM    5  C   UNL     1      19.723  -3.394  27.019  1.00  0.00     0.116 C 
BRANCH   5   6
HETATM    6  C   UNL     1      19.461  -1.961  26.630  1.00  0.00     0.172 C 
HETATM    7  O   UNL     1      18.819  -1.158  27.288  1.00  0.00    -0.648 OA
HETATM    8  O   UNL     1      19.921  -1.615  25.411  1.00  0.00    -0.648 OA
ENDBRANCH   5   6
ENDBRANCH   4   5
ENDBRANCH   3   4
BRANCH   3   9
HETATM    9  C   UNL     1      20.491  -2.493  30.299  1.00  0.00     0.070 C 
BRANCH   9  10
HETATM   10  C   UNL     1      21.069  -2.736  31.677  1.00  0.00    -0.053 A 
HETATM   11  C   UNL     1      21.079  -1.711  32.636  1.00  0.00     0.043 A 
HETATM   12  C   UNL     1      21.611  -1.948  33.902  1.00  0.00     0.066 A 
HETATM   13  C   UNL     1      22.138  -3.190  34.234  1.00  0.00     0.036 A 
HETATM   14  C   UNL     1      22.134  -4.213  33.288  1.00  0.00     0.003 A 
HETATM   15  C   UNL     1      21.602  -3.988  32.017  1.00  0.00     0.007 A 
BRANCH  12  16
HETATM   16  O   UNL     1      21.634  -0.975  34.857  1.00  0.00    -0.361 OA
HETATM   17  H   UNL     1      20.839  -0.711  35.276  1.00  0.00     0.217 HD
ENDBRANCH  12  16
ENDBRANCH   9  10
ENDBRANCH   3   9
ENDBRANCH   1   3
TORSDOF 7
ENDMDL
