MODEL 1
REMARK VINA RESULT:      -3.7      0.000      0.000
REMARK  2 active torsions:
REMARK  status: ('A' for Active; 'I' for Inactive)
REMARK    1  A    between atoms: C_3  and  C_4 
REMARK    2  A    between atoms: C_4  and  C_6 
ROOT
ATOM      1  O   UNL A   1      -4.631  -3.492  47.650  1.00  0.00    -0.648 OA
ATOM      2  O   UNL A   1      -5.848  -4.749  46.181  1.00  0.00    -0.648 OA
ATOM      3  C   UNL A   1      -5.632  -3.748  46.925  1.00  0.00     0.172 C 
ENDROOT
BRANCH   3   4
ATOM      4  C   UNL A   1      -6.769  -2.722  46.946  1.00  0.00     0.113 C 
BRANCH   4   5
ATOM      5  C   UNL A   1      -8.123  -3.195  46.431  1.00  0.00     0.006 C 
ATOM      6  C   UNL A   1      -9.107  -2.050  46.239  1.00  0.00     0.005 C 
ENDBRANCH   4   5
ENDBRANCH   3   4
TORSDOF 2
ENDMDL
MODEL 2
REMARK VINA RESULT:      -3.6      3.008      3.192
REMARK  2 active torsions:
REMARK  status: ('A' for Active; 'I' for Inactive)
REMARK    1  A    between atoms: C_3  and  C_4 
REMARK    2  A    between atoms: C_4  and  C_6 
ROOT
ATOM      1  O   UNL A   1      -9.282  -4.819  46.869  1.00  0.00    -0.648 OA
ATOM      2  O   UNL A   1      -8.476  -4.965  44.737  1.00  0.00    -0.648 OA
ATOM      3  C   UNL A   1      -9.028  -4.380  45.714  1.00  0.00     0.172 C 
ENDROOT
BRANCH   3   4
ATOM      4  C   UNL A   1      -9.456  -2.937  45.423  1.00  0.00     0.113 C 
BRANCH   4   5
ATOM      5  C   UNL A   1      -8.824  -1.853  46.288  1.00  0.00     0.006 C 
ATOM      6  C   UNL A   1      -9.092  -0.453  45.755  1.00  0.00     0.005 C 
ENDBRANCH   4   5
ENDBRANCH   3   4
TORSDOF 2
ENDMDL
MODEL 3
REMARK VINA RESULT:      -3.6      1.851      2.358
REMARK  2 active torsions:
REMARK  status: ('A' for Active; 'I' for Inactive)
REMARK    1  A    between atoms: C_3  and  C_4 
REMARK    2  A    between atoms: C_4  and  C_6 
ROOT
ATOM      1  O   UNL A   1      -6.893  -2.787  46.456  1.00  0.00    -0.648 OA
ATOM      2  O   UNL A   1      -8.055  -4.734  46.736  1.00  0.00    -0.648 OA
ATOM      3  C   UNL A   1      -7.921  -3.518  46.413  1.00  0.00     0.172 C 
ENDROOT
BRANCH   3   4
ATOM      4  C   UNL A   1      -9.210  -2.853  45.917  1.00  0.00     0.113 C 
BRANCH   4   5
ATOM      5  C   UNL A   1      -9.482  -1.439  46.418  1.00  0.00     0.006 C 
ATOM      6  C   UNL A   1      -9.280  -0.389  45.335  1.00  0.00     0.005 C 
ENDBRANCH   4   5
ENDBRANCH   3   4
TORSDOF 2
ENDMDL
MODEL 4
REMARK VINA RESULT:      -3.5     15.235     16.474
REMARK  2 active torsions:
REMARK  status: ('A' for Active; 'I' for Inactive)
REMARK    1  A    between atoms: C_3  and  C_4 
REMARK    2  A    between atoms: C_4  and  C_6 
ROOT
ATOM      1  O   UNL A   1       5.509 -10.731  58.664  1.00  0.00    -0.648 OA
ATOM      2  O   UNL A   1       5.458  -8.764  57.503  1.00  0.00    -0.648 OA
ATOM      3  C   UNL A   1       5.014  -9.894  57.860  1.00  0.00     0.172 C 
ENDROOT
BRANCH   3   4
ATOM      4  C   UNL A   1       3.692 -10.290  57.193  1.00  0.00     0.113 C 
BRANCH   4   5
ATOM      5  C   UNL A   1       3.073  -9.265  56.249  1.00  0.00     0.006 C 
ATOM      6  C   UNL A   1       2.939  -9.790  54.826  1.00  0.00     0.005 C 
ENDBRANCH   4   5
ENDBRANCH   3   4
TORSDOF 2
ENDMDL
MODEL 5
REMARK VINA RESULT:      -3.5     15.220     16.443
REMARK  2 active torsions:
REMARK  status: ('A' for Active; 'I' for Inactive)
REMARK    1  A    between atoms: C_3  and  C_4 
REMARK    2  A    between atoms: C_4  and  C_6 
ROOT
ATOM      1  O   UNL A   1       5.489  -8.760  57.441  1.00  0.00    -0.648 OA
ATOM      2  O   UNL A   1       5.431 -10.650  58.723  1.00  0.00    -0.648 OA
ATOM      3  C   UNL A   1       4.999  -9.853  57.841  1.00  0.00     0.172 C 
ENDROOT
BRANCH   3   4
ATOM      4  C   UNL A   1       3.681 -10.287  57.191  1.00  0.00     0.113 C 
BRANCH   4   5
ATOM      5  C   UNL A   1       3.015  -9.278  56.262  1.00  0.00     0.006 C 
ATOM      6  C   UNL A   1       2.933  -9.776  54.826  1.00  0.00     0.005 C 
ENDBRANCH   4   5
ENDBRANCH   3   4
TORSDOF 2
ENDMDL
MODEL 6
REMARK VINA RESULT:      -3.5     15.312     16.780
REMARK  2 active torsions:
REMARK  status: ('A' for Active; 'I' for Inactive)
REMARK    1  A    between atoms: C_3  and  C_4 
REMARK    2  A    between atoms: C_4  and  C_6 
ROOT
ATOM      1  O   UNL A   1       3.279  -9.974  55.295  1.00  0.00    -0.648 OA
ATOM      2  O   UNL A   1       2.423  -9.768  57.403  1.00  0.00    -0.648 OA
ATOM      3  C   UNL A   1       3.345  -9.757  56.536  1.00  0.00     0.172 C 
ENDROOT
BRANCH   3   4
ATOM      4  C   UNL A   1       4.736  -9.453  57.102  1.00  0.00     0.113 C 
BRANCH   4   5
ATOM      5  C   UNL A   1       5.055 -10.033  58.475  1.00  0.00     0.006 C 
ATOM      6  C   UNL A   1       5.554 -11.468  58.399  1.00  0.00     0.005 C 
ENDBRANCH   4   5
ENDBRANCH   3   4
TORSDOF 2
ENDMDL
MODEL 7
REMARK VINA RESULT:      -3.5      2.650      3.383
REMARK  2 active torsions:
REMARK  status: ('A' for Active; 'I' for Inactive)
REMARK    1  A    between atoms: C_3  and  C_4 
REMARK    2  A    between atoms: C_4  and  C_6 
ROOT
ATOM      1  O   UNL A   1      -8.495  -5.115  44.712  1.00  0.00    -0.648 OA
ATOM      2  O   UNL A   1      -9.483  -5.098  46.772  1.00  0.00    -0.648 OA
ATOM      3  C   UNL A   1      -9.110  -4.583  45.677  1.00  0.00     0.172 C 
ENDROOT
BRANCH   3   4
ATOM      4  C   UNL A   1      -9.448  -3.096  45.534  1.00  0.00     0.113 C 
BRANCH   4   5
ATOM      5  C   UNL A   1      -8.795  -2.150  46.536  1.00  0.00     0.006 C 
ATOM      6  C   UNL A   1      -7.304  -2.408  46.694  1.00  0.00     0.005 C 
ENDBRANCH   4   5
ENDBRANCH   3   4
TORSDOF 2
ENDMDL
MODEL 8
REMARK VINA RESULT:      -3.4     14.962     16.264
REMARK  2 active torsions:
REMARK  status: ('A' for Active; 'I' for Inactive)
REMARK    1  A    between atoms: C_3  and  C_4 
REMARK    2  A    between atoms: C_4  and  C_6 
ROOT
ATOM      1  O   UNL A   1       3.096  -9.988  54.873  1.00  0.00    -0.648 OA
ATOM      2  O   UNL A   1       2.159 -11.506  56.299  1.00  0.00    -0.648 OA
ATOM      3  C   UNL A   1       2.821 -10.468  56.007  1.00  0.00     0.172 C 
ENDROOT
BRANCH   3   4
ATOM      4  C   UNL A   1       3.373  -9.711  57.220  1.00  0.00     0.113 C 
BRANCH   4   5
ATOM      5  C   UNL A   1       4.888  -9.712  57.391  1.00  0.00     0.006 C 
ATOM      6  C   UNL A   1       5.364 -10.782  58.362  1.00  0.00     0.005 C 
ENDBRANCH   4   5
ENDBRANCH   3   4
TORSDOF 2
ENDMDL
MODEL 9
REMARK VINA RESULT:      -3.4     16.324     17.134
REMARK  2 active torsions:
REMARK  status: ('A' for Active; 'I' for Inactive)
REMARK    1  A    between atoms: C_3  and  C_4 
REMARK    2  A    between atoms: C_4  and  C_6 
ROOT
ATOM      1  O   UNL A   1       5.089  -7.022  56.970  1.00  0.00    -0.648 OA
ATOM      2  O   UNL A   1       6.367  -8.312  55.584  1.00  0.00    -0.648 OA
ATOM      3  C   UNL A   1       5.464  -8.107  56.446  1.00  0.00     0.172 C 
ENDROOT
BRANCH   3   4
ATOM      4  C   UNL A   1       4.748  -9.376  56.922  1.00  0.00     0.113 C 
BRANCH   4   5
ATOM      5  C   UNL A   1       5.086  -9.862  58.327  1.00  0.00     0.006 C 
ATOM      6  C   UNL A   1       5.579 -11.301  58.343  1.00  0.00     0.005 C 
ENDBRANCH   4   5
ENDBRANCH   3   4
TORSDOF 2
ENDMDL
