MODEL 1
REMARK VINA RESULT:      -3.5      0.000      0.000
REMARK  2 active torsions:
REMARK  status: ('A' for Active; 'I' for Inactive)
REMARK    1  A    between atoms: C_3  and  C_4 
REMARK    2  A    between atoms: C_4  and  C_6 
ROOT
ATOM      1  O   UNL A   1       8.495  -5.210  61.003  1.00  0.00    -0.648 OA
ATOM      2  O   UNL A   1       8.401  -3.155  60.009  1.00  0.00    -0.648 OA
ATOM      3  C   UNL A   1       7.953  -4.297  60.320  1.00  0.00     0.172 C 
ENDROOT
BRANCH   3   4
ATOM      4  C   UNL A   1       6.559  -4.599  59.762  1.00  0.00     0.113 C 
BRANCH   4   5
ATOM      5  C   UNL A   1       6.206  -3.956  58.426  1.00  0.00     0.006 C 
ATOM      6  C   UNL A   1       5.170  -4.757  57.650  1.00  0.00     0.005 C 
ENDBRANCH   4   5
ENDBRANCH   3   4
TORSDOF 2
ENDMDL
MODEL 2
REMARK VINA RESULT:      -3.5      2.127      3.265
REMARK  2 active torsions:
REMARK  status: ('A' for Active; 'I' for Inactive)
REMARK    1  A    between atoms: C_3  and  C_4 
REMARK    2  A    between atoms: C_4  and  C_6 
ROOT
ATOM      1  O   UNL A   1       5.404  -3.930  59.972  1.00  0.00    -0.648 OA
ATOM      2  O   UNL A   1       6.021  -4.376  57.818  1.00  0.00    -0.648 OA
ATOM      3  C   UNL A   1       6.223  -4.020  59.016  1.00  0.00     0.172 C 
ENDROOT
BRANCH   3   4
ATOM      4  C   UNL A   1       7.673  -3.630  59.321  1.00  0.00     0.113 C 
BRANCH   4   5
ATOM      5  C   UNL A   1       8.149  -3.849  60.753  1.00  0.00     0.006 C 
ATOM      6  C   UNL A   1       8.625  -5.274  60.996  1.00  0.00     0.005 C 
ENDBRANCH   4   5
ENDBRANCH   3   4
TORSDOF 2
ENDMDL
MODEL 3
REMARK VINA RESULT:      -3.5      0.057      1.320
REMARK  2 active torsions:
REMARK  status: ('A' for Active; 'I' for Inactive)
REMARK    1  A    between atoms: C_3  and  C_4 
REMARK    2  A    between atoms: C_4  and  C_6 
ROOT
ATOM      1  O   UNL A   1       8.426  -3.148  60.053  1.00  0.00    -0.648 OA
ATOM      2  O   UNL A   1       8.496  -5.198  61.057  1.00  0.00    -0.648 OA
ATOM      3  C   UNL A   1       7.976  -4.289  60.348  1.00  0.00     0.172 C 
ENDROOT
BRANCH   3   4
ATOM      4  C   UNL A   1       6.591  -4.639  59.792  1.00  0.00     0.113 C 
BRANCH   4   5
ATOM      5  C   UNL A   1       6.210  -3.999  58.462  1.00  0.00     0.006 C 
ATOM      6  C   UNL A   1       5.151  -4.796  57.714  1.00  0.00     0.005 C 
ENDBRANCH   4   5
ENDBRANCH   3   4
TORSDOF 2
ENDMDL
MODEL 4
REMARK VINA RESULT:      -3.4      3.865      4.604
REMARK  2 active torsions:
REMARK  status: ('A' for Active; 'I' for Inactive)
REMARK    1  A    between atoms: C_3  and  C_4 
REMARK    2  A    between atoms: C_4  and  C_6 
ROOT
ATOM      1  O   UNL A   1       7.456  -2.486  56.855  1.00  0.00    -0.648 OA
ATOM      2  O   UNL A   1       7.895  -0.933  58.471  1.00  0.00    -0.648 OA
ATOM      3  C   UNL A   1       7.171  -1.520  57.616  1.00  0.00     0.172 C 
ENDROOT
BRANCH   3   4
ATOM      4  C   UNL A   1       5.755  -0.949  57.491  1.00  0.00     0.113 C 
BRANCH   4   5
ATOM      5  C   UNL A   1       5.628   0.416  56.823  1.00  0.00     0.006 C 
ATOM      6  C   UNL A   1       4.614   1.312  57.518  1.00  0.00     0.005 C 
ENDBRANCH   4   5
ENDBRANCH   3   4
TORSDOF 2
ENDMDL
MODEL 5
REMARK VINA RESULT:      -3.3     14.159     15.373
REMARK  2 active torsions:
REMARK  status: ('A' for Active; 'I' for Inactive)
REMARK    1  A    between atoms: C_3  and  C_4 
REMARK    2  A    between atoms: C_4  and  C_6 
ROOT
ATOM      1  O   UNL A   1      -2.795  -0.956  50.665  1.00  0.00    -0.648 OA
ATOM      2  O   UNL A   1      -3.955  -2.750  51.476  1.00  0.00    -0.648 OA
ATOM      3  C   UNL A   1      -3.800  -1.714  50.765  1.00  0.00     0.172 C 
ENDROOT
BRANCH   3   4
ATOM      4  C   UNL A   1      -5.026  -1.335  49.929  1.00  0.00     0.113 C 
BRANCH   4   5
ATOM      5  C   UNL A   1      -5.226   0.150  49.649  1.00  0.00     0.006 C 
ATOM      6  C   UNL A   1      -6.663   0.484  49.277  1.00  0.00     0.005 C 
ENDBRANCH   4   5
ENDBRANCH   3   4
TORSDOF 2
ENDMDL
MODEL 6
REMARK VINA RESULT:      -3.3      0.998      1.203
REMARK  2 active torsions:
REMARK  status: ('A' for Active; 'I' for Inactive)
REMARK    1  A    between atoms: C_3  and  C_4 
REMARK    2  A    between atoms: C_4  and  C_6 
ROOT
ATOM      1  O   UNL A   1       8.471  -3.504  60.501  1.00  0.00    -0.648 OA
ATOM      2  O   UNL A   1       7.939  -3.086  58.320  1.00  0.00    -0.648 OA
ATOM      3  C   UNL A   1       7.739  -3.562  59.475  1.00  0.00     0.172 C 
ENDROOT
BRANCH   3   4
ATOM      4  C   UNL A   1       6.421  -4.330  59.620  1.00  0.00     0.113 C 
BRANCH   4   5
ATOM      5  C   UNL A   1       5.274  -3.891  58.717  1.00  0.00     0.006 C 
ATOM      6  C   UNL A   1       4.949  -4.921  57.645  1.00  0.00     0.005 C 
ENDBRANCH   4   5
ENDBRANCH   3   4
TORSDOF 2
ENDMDL
MODEL 7
REMARK VINA RESULT:      -3.3      2.580      3.509
REMARK  2 active torsions:
REMARK  status: ('A' for Active; 'I' for Inactive)
REMARK    1  A    between atoms: C_3  and  C_4 
REMARK    2  A    between atoms: C_4  and  C_6 
ROOT
ATOM      1  O   UNL A   1       5.159  -5.011  57.420  1.00  0.00    -0.648 OA
ATOM      2  O   UNL A   1       4.961  -5.880  59.523  1.00  0.00    -0.648 OA
ATOM      3  C   UNL A   1       5.282  -4.996  58.676  1.00  0.00     0.172 C 
ENDROOT
BRANCH   3   4
ATOM      4  C   UNL A   1       5.926  -3.746  59.284  1.00  0.00     0.113 C 
BRANCH   4   5
ATOM      5  C   UNL A   1       7.428  -3.586  59.078  1.00  0.00     0.006 C 
ATOM      6  C   UNL A   1       8.236  -4.103  60.260  1.00  0.00     0.005 C 
ENDBRANCH   4   5
ENDBRANCH   3   4
TORSDOF 2
ENDMDL
MODEL 8
REMARK VINA RESULT:      -3.3      2.129      2.515
REMARK  2 active torsions:
REMARK  status: ('A' for Active; 'I' for Inactive)
REMARK    1  A    between atoms: C_3  and  C_4 
REMARK    2  A    between atoms: C_4  and  C_6 
ROOT
ATOM      1  O   UNL A   1       6.315  -4.283  60.090  1.00  0.00    -0.648 OA
ATOM      2  O   UNL A   1       8.442  -3.455  60.178  1.00  0.00    -0.648 OA
ATOM      3  C   UNL A   1       7.319  -3.668  59.636  1.00  0.00     0.172 C 
ENDROOT
BRANCH   3   4
ATOM      4  C   UNL A   1       7.189  -3.105  58.217  1.00  0.00     0.113 C 
BRANCH   4   5
ATOM      5  C   UNL A   1       7.618  -1.656  58.017  1.00  0.00     0.006 C 
ATOM      6  C   UNL A   1       6.465  -0.760  57.587  1.00  0.00     0.005 C 
ENDBRANCH   4   5
ENDBRANCH   3   4
TORSDOF 2
ENDMDL
MODEL 9
REMARK VINA RESULT:      -3.3      2.061      2.533
REMARK  2 active torsions:
REMARK  status: ('A' for Active; 'I' for Inactive)
REMARK    1  A    between atoms: C_3  and  C_4 
REMARK    2  A    between atoms: C_4  and  C_6 
ROOT
ATOM      1  O   UNL A   1       8.434  -3.442  60.137  1.00  0.00    -0.648 OA
ATOM      2  O   UNL A   1       6.344  -4.360  60.073  1.00  0.00    -0.648 OA
ATOM      3  C   UNL A   1       7.323  -3.711  59.603  1.00  0.00     0.172 C 
ENDROOT
BRANCH   3   4
ATOM      4  C   UNL A   1       7.097  -3.168  58.188  1.00  0.00     0.113 C 
BRANCH   4   5
ATOM      5  C   UNL A   1       7.418  -1.694  57.966  1.00  0.00     0.006 C 
ATOM      6  C   UNL A   1       6.190  -0.883  57.578  1.00  0.00     0.005 C 
ENDBRANCH   4   5
ENDBRANCH   3   4
TORSDOF 2
ENDMDL
