MODEL 1
REMARK VINA RESULT:      -3.5      0.000      0.000
REMARK  2 active torsions:
REMARK  status: ('A' for Active; 'I' for Inactive)
REMARK    1  A    between atoms: C_3  and  C_4 
REMARK    2  A    between atoms: C_4  and  C_6 
ROOT
ATOM      1  O   UNL A   1       5.472  -4.005  59.920  1.00  0.00    -0.648 OA
ATOM      2  O   UNL A   1       6.139  -4.245  57.748  1.00  0.00    -0.648 OA
ATOM      3  C   UNL A   1       6.311  -4.000  58.978  1.00  0.00     0.172 C 
ENDROOT
BRANCH   3   4
ATOM      4  C   UNL A   1       7.750  -3.628  59.349  1.00  0.00     0.113 C 
BRANCH   4   5
ATOM      5  C   UNL A   1       8.156  -3.847  60.802  1.00  0.00     0.006 C 
ATOM      6  C   UNL A   1       8.673  -5.255  61.057  1.00  0.00     0.005 C 
ENDBRANCH   4   5
ENDBRANCH   3   4
TORSDOF 2
ENDMDL
MODEL 2
REMARK VINA RESULT:      -3.5      2.092      3.265
REMARK  2 active torsions:
REMARK  status: ('A' for Active; 'I' for Inactive)
REMARK    1  A    between atoms: C_3  and  C_4 
REMARK    2  A    between atoms: C_4  and  C_6 
ROOT
ATOM      1  O   UNL A   1       8.460  -5.209  60.958  1.00  0.00    -0.648 OA
ATOM      2  O   UNL A   1       8.377  -3.122  60.033  1.00  0.00    -0.648 OA
ATOM      3  C   UNL A   1       7.921  -4.269  60.311  1.00  0.00     0.172 C 
ENDROOT
BRANCH   3   4
ATOM      4  C   UNL A   1       6.519  -4.540  59.757  1.00  0.00     0.113 C 
BRANCH   4   5
ATOM      5  C   UNL A   1       6.218  -3.988  58.368  1.00  0.00     0.006 C 
ATOM      6  C   UNL A   1       5.143  -4.787  57.644  1.00  0.00     0.005 C 
ENDBRANCH   4   5
ENDBRANCH   3   4
TORSDOF 2
ENDMDL
MODEL 3
REMARK VINA RESULT:      -3.5      2.112      3.351
REMARK  2 active torsions:
REMARK  status: ('A' for Active; 'I' for Inactive)
REMARK    1  A    between atoms: C_3  and  C_4 
REMARK    2  A    between atoms: C_4  and  C_6 
ROOT
ATOM      1  O   UNL A   1       8.429  -3.146  60.025  1.00  0.00    -0.648 OA
ATOM      2  O   UNL A   1       8.487  -5.179  61.066  1.00  0.00    -0.648 OA
ATOM      3  C   UNL A   1       7.972  -4.280  60.339  1.00  0.00     0.172 C 
ENDROOT
BRANCH   3   4
ATOM      4  C   UNL A   1       6.588  -4.634  59.785  1.00  0.00     0.113 C 
BRANCH   4   5
ATOM      5  C   UNL A   1       6.214  -4.018  58.442  1.00  0.00     0.006 C 
ATOM      6  C   UNL A   1       5.128  -4.804  57.722  1.00  0.00     0.005 C 
ENDBRANCH   4   5
ENDBRANCH   3   4
TORSDOF 2
ENDMDL
MODEL 4
REMARK VINA RESULT:      -3.4      3.898      5.027
REMARK  2 active torsions:
REMARK  status: ('A' for Active; 'I' for Inactive)
REMARK    1  A    between atoms: C_3  and  C_4 
REMARK    2  A    between atoms: C_4  and  C_6 
ROOT
ATOM      1  O   UNL A   1       7.917  -0.894  58.392  1.00  0.00    -0.648 OA
ATOM      2  O   UNL A   1       7.115  -2.950  57.801  1.00  0.00    -0.648 OA
ATOM      3  C   UNL A   1       7.063  -1.691  57.914  1.00  0.00     0.172 C 
ENDROOT
BRANCH   3   4
ATOM      4  C   UNL A   1       5.758  -1.067  57.406  1.00  0.00     0.113 C 
BRANCH   4   5
ATOM      5  C   UNL A   1       5.840   0.372  56.911  1.00  0.00     0.006 C 
ATOM      6  C   UNL A   1       4.672   1.221  57.392  1.00  0.00     0.005 C 
ENDBRANCH   4   5
ENDBRANCH   3   4
TORSDOF 2
ENDMDL
MODEL 5
REMARK VINA RESULT:      -3.3     14.416     15.835
REMARK  2 active torsions:
REMARK  status: ('A' for Active; 'I' for Inactive)
REMARK    1  A    between atoms: C_3  and  C_4 
REMARK    2  A    between atoms: C_4  and  C_6 
ROOT
ATOM      1  O   UNL A   1      -2.948  -0.879  50.414  1.00  0.00    -0.648 OA
ATOM      2  O   UNL A   1      -4.013  -2.694  51.303  1.00  0.00    -0.648 OA
ATOM      3  C   UNL A   1      -3.937  -1.640  50.607  1.00  0.00     0.172 C 
ENDROOT
BRANCH   3   4
ATOM      4  C   UNL A   1      -5.249  -1.239  49.925  1.00  0.00     0.113 C 
BRANCH   4   5
ATOM      5  C   UNL A   1      -5.426   0.241  49.608  1.00  0.00     0.006 C 
ATOM      6  C   UNL A   1      -6.852   0.583  49.199  1.00  0.00     0.005 C 
ENDBRANCH   4   5
ENDBRANCH   3   4
TORSDOF 2
ENDMDL
MODEL 6
REMARK VINA RESULT:      -3.3      1.987      3.328
REMARK  2 active torsions:
REMARK  status: ('A' for Active; 'I' for Inactive)
REMARK    1  A    between atoms: C_3  and  C_4 
REMARK    2  A    between atoms: C_4  and  C_6 
ROOT
ATOM      1  O   UNL A   1       7.957  -3.090  58.213  1.00  0.00    -0.648 OA
ATOM      2  O   UNL A   1       8.423  -3.395  60.429  1.00  0.00    -0.648 OA
ATOM      3  C   UNL A   1       7.733  -3.527  59.376  1.00  0.00     0.172 C 
ENDROOT
BRANCH   3   4
ATOM      4  C   UNL A   1       6.435  -4.317  59.569  1.00  0.00     0.113 C 
BRANCH   4   5
ATOM      5  C   UNL A   1       5.251  -3.904  58.702  1.00  0.00     0.006 C 
ATOM      6  C   UNL A   1       4.943  -4.922  57.614  1.00  0.00     0.005 C 
ENDBRANCH   4   5
ENDBRANCH   3   4
TORSDOF 2
ENDMDL
MODEL 7
REMARK VINA RESULT:      -3.2      1.314      1.996
REMARK  2 active torsions:
REMARK  status: ('A' for Active; 'I' for Inactive)
REMARK    1  A    between atoms: C_3  and  C_4 
REMARK    2  A    between atoms: C_4  and  C_6 
ROOT
ATOM      1  O   UNL A   1       4.949  -5.057  57.281  1.00  0.00    -0.648 OA
ATOM      2  O   UNL A   1       4.804  -5.669  59.477  1.00  0.00    -0.648 OA
ATOM      3  C   UNL A   1       5.260  -5.002  58.503  1.00  0.00     0.172 C 
ENDROOT
BRANCH   3   4
ATOM      4  C   UNL A   1       6.359  -4.004  58.882  1.00  0.00     0.113 C 
BRANCH   4   5
ATOM      5  C   UNL A   1       7.096  -4.268  60.190  1.00  0.00     0.006 C 
ATOM      6  C   UNL A   1       8.596  -4.039  60.070  1.00  0.00     0.005 C 
ENDBRANCH   4   5
ENDBRANCH   3   4
TORSDOF 2
ENDMDL
MODEL 8
REMARK VINA RESULT:      -3.2      2.360      2.684
REMARK  2 active torsions:
REMARK  status: ('A' for Active; 'I' for Inactive)
REMARK    1  A    between atoms: C_3  and  C_4 
REMARK    2  A    between atoms: C_4  and  C_6 
ROOT
ATOM      1  O   UNL A   1       5.830  -1.330  57.573  1.00  0.00    -0.648 OA
ATOM      2  O   UNL A   1       7.923  -0.847  58.349  1.00  0.00    -0.648 OA
ATOM      3  C   UNL A   1       6.995  -1.616  57.965  1.00  0.00     0.172 C 
ENDROOT
BRANCH   3   4
ATOM      4  C   UNL A   1       7.354  -3.105  58.006  1.00  0.00     0.113 C 
BRANCH   4   5
ATOM      5  C   UNL A   1       7.067  -3.838  59.312  1.00  0.00     0.006 C 
ATOM      6  C   UNL A   1       8.305  -3.980  60.185  1.00  0.00     0.005 C 
ENDBRANCH   4   5
ENDBRANCH   3   4
TORSDOF 2
ENDMDL
MODEL 9
REMARK VINA RESULT:      -3.2      2.238      3.047
REMARK  2 active torsions:
REMARK  status: ('A' for Active; 'I' for Inactive)
REMARK    1  A    between atoms: C_3  and  C_4 
REMARK    2  A    between atoms: C_4  and  C_6 
ROOT
ATOM      1  O   UNL A   1       3.157  -4.321  59.265  1.00  0.00    -0.648 OA
ATOM      2  O   UNL A   1       3.912  -6.472  59.410  1.00  0.00    -0.648 OA
ATOM      3  C   UNL A   1       3.911  -5.288  58.965  1.00  0.00     0.172 C 
ENDROOT
BRANCH   3   4
ATOM      4  C   UNL A   1       4.976  -5.016  57.898  1.00  0.00     0.113 C 
BRANCH   4   5
ATOM      5  C   UNL A   1       6.049  -3.992  58.251  1.00  0.00     0.006 C 
ATOM      6  C   UNL A   1       6.691  -4.265  59.604  1.00  0.00     0.005 C 
ENDBRANCH   4   5
ENDBRANCH   3   4
TORSDOF 2
ENDMDL
