MODEL 1
REMARK VINA RESULT:      -3.5      0.000      0.000
REMARK  2 active torsions:
REMARK  status: ('A' for Active; 'I' for Inactive)
REMARK    1  A    between atoms: C_3  and  C_4 
REMARK    2  A    between atoms: C_4  and  C_6 
ROOT
ATOM      1  O   UNL A   1       8.448  -5.244  60.987  1.00  0.00    -0.648 OA
ATOM      2  O   UNL A   1       8.409  -3.161  60.050  1.00  0.00    -0.648 OA
ATOM      3  C   UNL A   1       7.931  -4.299  60.330  1.00  0.00     0.172 C 
ENDROOT
BRANCH   3   4
ATOM      4  C   UNL A   1       6.529  -4.549  59.764  1.00  0.00     0.113 C 
BRANCH   4   5
ATOM      5  C   UNL A   1       6.206  -3.888  58.429  1.00  0.00     0.006 C 
ATOM      6  C   UNL A   1       5.262  -4.725  57.579  1.00  0.00     0.005 C 
ENDBRANCH   4   5
ENDBRANCH   3   4
TORSDOF 2
ENDMDL
MODEL 2
REMARK VINA RESULT:      -3.5      2.102      3.252
REMARK  2 active torsions:
REMARK  status: ('A' for Active; 'I' for Inactive)
REMARK    1  A    between atoms: C_3  and  C_4 
REMARK    2  A    between atoms: C_4  and  C_6 
ROOT
ATOM      1  O   UNL A   1       5.432  -4.001  59.989  1.00  0.00    -0.648 OA
ATOM      2  O   UNL A   1       6.040  -4.279  57.804  1.00  0.00    -0.648 OA
ATOM      3  C   UNL A   1       6.246  -4.012  59.024  1.00  0.00     0.172 C 
ENDROOT
BRANCH   3   4
ATOM      4  C   UNL A   1       7.694  -3.634  59.350  1.00  0.00     0.113 C 
BRANCH   4   5
ATOM      5  C   UNL A   1       8.151  -3.863  60.786  1.00  0.00     0.006 C 
ATOM      6  C   UNL A   1       8.637  -5.285  61.023  1.00  0.00     0.005 C 
ENDBRANCH   4   5
ENDBRANCH   3   4
TORSDOF 2
ENDMDL
MODEL 3
REMARK VINA RESULT:      -3.4      4.050      4.824
REMARK  2 active torsions:
REMARK  status: ('A' for Active; 'I' for Inactive)
REMARK    1  A    between atoms: C_3  and  C_4 
REMARK    2  A    between atoms: C_4  and  C_6 
ROOT
ATOM      1  O   UNL A   1       7.319  -2.126  56.607  1.00  0.00    -0.648 OA
ATOM      2  O   UNL A   1       7.854  -0.817  58.400  1.00  0.00    -0.648 OA
ATOM      3  C   UNL A   1       7.079  -1.284  57.516  1.00  0.00     0.172 C 
ENDROOT
BRANCH   3   4
ATOM      4  C   UNL A   1       5.656  -0.717  57.563  1.00  0.00     0.113 C 
BRANCH   4   5
ATOM      5  C   UNL A   1       5.423   0.599  56.830  1.00  0.00     0.006 C 
ATOM      6  C   UNL A   1       4.456   1.513  57.568  1.00  0.00     0.005 C 
ENDBRANCH   4   5
ENDBRANCH   3   4
TORSDOF 2
ENDMDL
MODEL 4
REMARK VINA RESULT:      -3.4      0.158      1.325
REMARK  2 active torsions:
REMARK  status: ('A' for Active; 'I' for Inactive)
REMARK    1  A    between atoms: C_3  and  C_4 
REMARK    2  A    between atoms: C_4  and  C_6 
ROOT
ATOM      1  O   UNL A   1       8.423  -3.114  59.812  1.00  0.00    -0.648 OA
ATOM      2  O   UNL A   1       8.444  -5.092  60.954  1.00  0.00    -0.648 OA
ATOM      3  C   UNL A   1       7.930  -4.204  60.213  1.00  0.00     0.172 C 
ENDROOT
BRANCH   3   4
ATOM      4  C   UNL A   1       6.498  -4.511  59.764  1.00  0.00     0.113 C 
BRANCH   4   5
ATOM      5  C   UNL A   1       6.035  -3.854  58.469  1.00  0.00     0.006 C 
ATOM      6  C   UNL A   1       5.203  -4.791  57.606  1.00  0.00     0.005 C 
ENDBRANCH   4   5
ENDBRANCH   3   4
TORSDOF 2
ENDMDL
MODEL 5
REMARK VINA RESULT:      -3.4      3.459      4.307
REMARK  2 active torsions:
REMARK  status: ('A' for Active; 'I' for Inactive)
REMARK    1  A    between atoms: C_3  and  C_4 
REMARK    2  A    between atoms: C_4  and  C_6 
ROOT
ATOM      1  O   UNL A   1       7.920  -0.842  58.372  1.00  0.00    -0.648 OA
ATOM      2  O   UNL A   1       7.471  -2.998  57.766  1.00  0.00    -0.648 OA
ATOM      3  C   UNL A   1       7.198  -1.772  57.918  1.00  0.00     0.172 C 
ENDROOT
BRANCH   3   4
ATOM      4  C   UNL A   1       5.774  -1.389  57.502  1.00  0.00     0.113 C 
BRANCH   4   5
ATOM      5  C   UNL A   1       5.633  -0.157  56.615  1.00  0.00     0.006 C 
ATOM      6  C   UNL A   1       4.887   0.975  57.304  1.00  0.00     0.005 C 
ENDBRANCH   4   5
ENDBRANCH   3   4
TORSDOF 2
ENDMDL
MODEL 6
REMARK VINA RESULT:      -3.3      2.582      3.591
REMARK  2 active torsions:
REMARK  status: ('A' for Active; 'I' for Inactive)
REMARK    1  A    between atoms: C_3  and  C_4 
REMARK    2  A    between atoms: C_4  and  C_6 
ROOT
ATOM      1  O   UNL A   1       5.525  -2.579  58.347  1.00  0.00    -0.648 OA
ATOM      2  O   UNL A   1       4.044  -3.929  59.445  1.00  0.00    -0.648 OA
ATOM      3  C   UNL A   1       5.194  -3.564  59.065  1.00  0.00     0.172 C 
ENDROOT
BRANCH   3   4
ATOM      4  C   UNL A   1       6.332  -4.473  59.540  1.00  0.00     0.113 C 
BRANCH   4   5
ATOM      5  C   UNL A   1       7.693  -3.814  59.738  1.00  0.00     0.006 C 
ATOM      6  C   UNL A   1       8.530  -4.512  60.800  1.00  0.00     0.005 C 
ENDBRANCH   4   5
ENDBRANCH   3   4
TORSDOF 2
ENDMDL
MODEL 7
REMARK VINA RESULT:      -3.3      1.003      1.225
REMARK  2 active torsions:
REMARK  status: ('A' for Active; 'I' for Inactive)
REMARK    1  A    between atoms: C_3  and  C_4 
REMARK    2  A    between atoms: C_4  and  C_6 
ROOT
ATOM      1  O   UNL A   1       8.539  -3.498  60.467  1.00  0.00    -0.648 OA
ATOM      2  O   UNL A   1       7.986  -3.063  58.293  1.00  0.00    -0.648 OA
ATOM      3  C   UNL A   1       7.796  -3.544  59.448  1.00  0.00     0.172 C 
ENDROOT
BRANCH   3   4
ATOM      4  C   UNL A   1       6.474  -4.304  59.602  1.00  0.00     0.113 C 
BRANCH   4   5
ATOM      5  C   UNL A   1       5.327  -3.865  58.700  1.00  0.00     0.006 C 
ATOM      6  C   UNL A   1       5.002  -4.895  57.627  1.00  0.00     0.005 C 
ENDBRANCH   4   5
ENDBRANCH   3   4
TORSDOF 2
ENDMDL
MODEL 8
REMARK VINA RESULT:      -3.3      2.098      2.474
REMARK  2 active torsions:
REMARK  status: ('A' for Active; 'I' for Inactive)
REMARK    1  A    between atoms: C_3  and  C_4 
REMARK    2  A    between atoms: C_4  and  C_6 
ROOT
ATOM      1  O   UNL A   1       6.358  -4.437  60.072  1.00  0.00    -0.648 OA
ATOM      2  O   UNL A   1       8.398  -3.409  60.122  1.00  0.00    -0.648 OA
ATOM      3  C   UNL A   1       7.280  -3.708  59.610  1.00  0.00     0.172 C 
ENDROOT
BRANCH   3   4
ATOM      4  C   UNL A   1       7.039  -3.101  58.224  1.00  0.00     0.113 C 
BRANCH   4   5
ATOM      5  C   UNL A   1       7.607  -1.707  57.984  1.00  0.00     0.006 C 
ATOM      6  C   UNL A   1       6.528  -0.692  57.632  1.00  0.00     0.005 C 
ENDBRANCH   4   5
ENDBRANCH   3   4
TORSDOF 2
ENDMDL
MODEL 9
REMARK VINA RESULT:      -3.3      2.838      3.679
REMARK  2 active torsions:
REMARK  status: ('A' for Active; 'I' for Inactive)
REMARK    1  A    between atoms: C_3  and  C_4 
REMARK    2  A    between atoms: C_4  and  C_6 
ROOT
ATOM      1  O   UNL A   1       7.916  -0.790  58.377  1.00  0.00    -0.648 OA
ATOM      2  O   UNL A   1       6.039  -1.666  57.415  1.00  0.00    -0.648 OA
ATOM      3  C   UNL A   1       7.167  -1.727  57.985  1.00  0.00     0.172 C 
ENDROOT
BRANCH   3   4
ATOM      4  C   UNL A   1       7.687  -3.152  58.201  1.00  0.00     0.113 C 
BRANCH   4   5
ATOM      5  C   UNL A   1       7.312  -3.820  59.519  1.00  0.00     0.006 C 
ATOM      6  C   UNL A   1       8.530  -4.204  60.346  1.00  0.00     0.005 C 
ENDBRANCH   4   5
ENDBRANCH   3   4
TORSDOF 2
ENDMDL
