MODEL 1
REMARK VINA RESULT:      -7.8      0.000      0.000
REMARK  4 active torsions:
REMARK  status: ('A' for Active; 'I' for Inactive)
REMARK    1  A    between atoms: O_1  and  C_9 
REMARK    2  A    between atoms: O_2  and  C_10 
REMARK    3  A    between atoms: C_3  and  C_5 
REMARK    4  A    between atoms: C_4  and  C_8 
ROOT
HETATM    1  O   UNL     1      18.024  -2.693  25.479  1.00  0.00    -0.358 OA
HETATM    2  H   UNL     1      18.101  -2.818  24.553  1.00  0.00     0.217 HD
ENDROOT
BRANCH   1   3
HETATM    3  C   UNL     1      19.141  -2.510  26.237  1.00  0.00     0.099 A 
HETATM    4  C   UNL     1      19.322  -3.275  27.389  1.00  0.00     0.050 A 
HETATM    5  C   UNL     1      20.459  -3.085  28.157  1.00  0.00    -0.033 A 
HETATM    6  C   UNL     1      21.419  -2.152  27.806  1.00  0.00     0.014 A 
HETATM    7  C   UNL     1      21.239  -1.385  26.654  1.00  0.00     0.040 A 
HETATM    8  C   UNL     1      20.099  -1.565  25.870  1.00  0.00     0.098 A 
BRANCH   5   9
HETATM    9  C   UNL     1      20.651  -3.895  29.374  1.00  0.00     0.012 C 
HETATM   10  C   UNL     1      21.846  -4.327  29.843  1.00  0.00     0.012 C 
BRANCH  10  11
HETATM   11  C   UNL     1      22.037  -5.109  31.055  1.00  0.00    -0.036 A 
HETATM   12  C   UNL     1      22.579  -6.391  30.979  1.00  0.00     0.011 A 
HETATM   13  C   UNL     1      22.763  -7.141  32.141  1.00  0.00     0.001 A 
HETATM   14  C   UNL     1      22.404  -6.607  33.378  1.00  0.00     0.000 A 
HETATM   15  C   UNL     1      21.862  -5.324  33.455  1.00  0.00     0.001 A 
HETATM   16  C   UNL     1      21.679  -4.575  32.292  1.00  0.00     0.011 A 
ENDBRANCH  10  11
ENDBRANCH   5   9
BRANCH   8  17
HETATM   17  O   UNL     1      19.933  -0.810  24.748  1.00  0.00    -0.358 OA
HETATM   18  H   UNL     1      19.496  -1.170  24.001  1.00  0.00     0.217 HD
ENDBRANCH   8  17
ENDBRANCH   1   3
TORSDOF 4
ENDMDL
MODEL 2
REMARK VINA RESULT:      -7.8      1.828      3.064
REMARK  4 active torsions:
REMARK  status: ('A' for Active; 'I' for Inactive)
REMARK    1  A    between atoms: O_1  and  C_9 
REMARK    2  A    between atoms: O_2  and  C_10 
REMARK    3  A    between atoms: C_3  and  C_5 
REMARK    4  A    between atoms: C_4  and  C_8 
ROOT
HETATM    1  O   UNL     1      20.173  -0.859  25.733  1.00  0.00    -0.358 OA
HETATM    2  H   UNL     1      20.918  -0.332  25.944  1.00  0.00     0.217 HD
ENDROOT
BRANCH   1   3
HETATM    3  C   UNL     1      19.758  -1.827  26.598  1.00  0.00     0.099 A 
HETATM    4  C   UNL     1      20.416  -1.987  27.817  1.00  0.00     0.050 A 
HETATM    5  C   UNL     1      19.992  -2.973  28.692  1.00  0.00    -0.033 A 
HETATM    6  C   UNL     1      18.928  -3.803  28.383  1.00  0.00     0.014 A 
HETATM    7  C   UNL     1      18.268  -3.644  27.163  1.00  0.00     0.040 A 
HETATM    8  C   UNL     1      18.684  -2.656  26.272  1.00  0.00     0.098 A 
BRANCH   5   9
HETATM    9  C   UNL     1      20.687  -3.141  29.981  1.00  0.00     0.012 C 
HETATM   10  C   UNL     1      20.572  -2.309  31.044  1.00  0.00     0.012 C 
BRANCH  10  11
HETATM   11  C   UNL     1      21.243  -2.486  32.323  1.00  0.00    -0.036 A 
HETATM   12  C   UNL     1      21.479  -1.385  33.145  1.00  0.00     0.011 A 
HETATM   13  C   UNL     1      22.121  -1.555  34.372  1.00  0.00     0.001 A 
HETATM   14  C   UNL     1      22.527  -2.827  34.775  1.00  0.00     0.000 A 
HETATM   15  C   UNL     1      22.291  -3.929  33.953  1.00  0.00     0.001 A 
HETATM   16  C   UNL     1      21.648  -3.758  32.726  1.00  0.00     0.011 A 
ENDBRANCH  10  11
ENDBRANCH   5   9
BRANCH   8  17
HETATM   17  O   UNL     1      18.034  -2.511  25.083  1.00  0.00    -0.358 OA
HETATM   18  H   UNL     1      17.499  -1.757  24.930  1.00  0.00     0.217 HD
ENDBRANCH   8  17
ENDBRANCH   1   3
TORSDOF 4
ENDMDL
MODEL 3
REMARK VINA RESULT:      -7.5      1.098      2.212
REMARK  4 active torsions:
REMARK  status: ('A' for Active; 'I' for Inactive)
REMARK    1  A    between atoms: O_1  and  C_9 
REMARK    2  A    between atoms: O_2  and  C_10 
REMARK    3  A    between atoms: C_3  and  C_5 
REMARK    4  A    between atoms: C_4  and  C_8 
ROOT
HETATM    1  O   UNL     1      20.105  -0.446  27.017  1.00  0.00    -0.358 OA
HETATM    2  H   UNL     1      20.543   0.024  27.700  1.00  0.00     0.217 HD
ENDROOT
BRANCH   1   3
HETATM    3  C   UNL     1      19.807  -1.765  27.180  1.00  0.00     0.099 A 
HETATM    4  C   UNL     1      20.606  -2.551  28.009  1.00  0.00     0.050 A 
HETATM    5  C   UNL     1      20.300  -3.893  28.172  1.00  0.00    -0.033 A 
HETATM    6  C   UNL     1      19.217  -4.469  27.529  1.00  0.00     0.014 A 
HETATM    7  C   UNL     1      18.418  -3.682  26.699  1.00  0.00     0.040 A 
HETATM    8  C   UNL     1      18.713  -2.331  26.525  1.00  0.00     0.098 A 
BRANCH   5   9
HETATM    9  C   UNL     1      21.143  -4.724  29.049  1.00  0.00     0.012 C 
HETATM   10  C   UNL     1      21.047  -4.781  30.399  1.00  0.00     0.012 C 
BRANCH  10  11
HETATM   11  C   UNL     1      21.866  -5.617  31.263  1.00  0.00    -0.036 A 
HETATM   12  C   UNL     1      22.052  -5.267  32.600  1.00  0.00     0.011 A 
HETATM   13  C   UNL     1      22.838  -6.068  33.429  1.00  0.00     0.001 A 
HETATM   14  C   UNL     1      23.437  -7.220  32.919  1.00  0.00     0.000 A 
HETATM   15  C   UNL     1      23.250  -7.571  31.582  1.00  0.00     0.001 A 
HETATM   16  C   UNL     1      22.465  -6.769  30.754  1.00  0.00     0.011 A 
ENDBRANCH  10  11
ENDBRANCH   5   9
BRANCH   8  17
HETATM   17  O   UNL     1      17.926  -1.573  25.710  1.00  0.00    -0.358 OA
HETATM   18  H   UNL     1      17.884  -0.644  25.831  1.00  0.00     0.217 HD
ENDBRANCH   8  17
ENDBRANCH   1   3
TORSDOF 4
ENDMDL
MODEL 4
REMARK VINA RESULT:      -7.3      2.241      3.266
REMARK  4 active torsions:
REMARK  status: ('A' for Active; 'I' for Inactive)
REMARK    1  A    between atoms: O_1  and  C_9 
REMARK    2  A    between atoms: O_2  and  C_10 
REMARK    3  A    between atoms: C_3  and  C_5 
REMARK    4  A    between atoms: C_4  and  C_8 
ROOT
HETATM    1  O   UNL     1      17.910  -2.680  26.429  1.00  0.00    -0.358 OA
HETATM    2  H   UNL     1      18.389  -1.903  26.216  1.00  0.00     0.217 HD
ENDROOT
BRANCH   1   3
HETATM    3  C   UNL     1      18.534  -3.712  27.062  1.00  0.00     0.099 A 
HETATM    4  C   UNL     1      19.217  -3.474  28.254  1.00  0.00     0.050 A 
HETATM    5  C   UNL     1      19.851  -4.526  28.895  1.00  0.00    -0.033 A 
HETATM    6  C   UNL     1      19.822  -5.810  28.375  1.00  0.00     0.014 A 
HETATM    7  C   UNL     1      19.139  -6.049  27.182  1.00  0.00     0.040 A 
HETATM    8  C   UNL     1      18.496  -4.999  26.526  1.00  0.00     0.098 A 
BRANCH   5   9
HETATM    9  C   UNL     1      20.571  -4.275  30.156  1.00  0.00     0.012 C 
HETATM   10  C   UNL     1      20.493  -3.137  30.886  1.00  0.00     0.012 C 
BRANCH  10  11
HETATM   11  C   UNL     1      21.188  -2.897  32.141  1.00  0.00    -0.036 A 
HETATM   12  C   UNL     1      21.677  -3.970  32.884  1.00  0.00     0.011 A 
HETATM   13  C   UNL     1      22.344  -3.739  34.088  1.00  0.00     0.001 A 
HETATM   14  C   UNL     1      22.522  -2.434  34.546  1.00  0.00     0.000 A 
HETATM   15  C   UNL     1      22.033  -1.360  33.803  1.00  0.00     0.001 A 
HETATM   16  C   UNL     1      21.367  -1.591  32.599  1.00  0.00     0.011 A 
ENDBRANCH  10  11
ENDBRANCH   5   9
BRANCH   8  17
HETATM   17  O   UNL     1      17.834  -5.245  25.360  1.00  0.00    -0.358 OA
HETATM   18  H   UNL     1      17.269  -5.989  25.290  1.00  0.00     0.217 HD
ENDBRANCH   8  17
ENDBRANCH   1   3
TORSDOF 4
ENDMDL
MODEL 5
REMARK VINA RESULT:      -7.3      1.931      2.564
REMARK  4 active torsions:
REMARK  status: ('A' for Active; 'I' for Inactive)
REMARK    1  A    between atoms: O_1  and  C_9 
REMARK    2  A    between atoms: O_2  and  C_10 
REMARK    3  A    between atoms: C_3  and  C_5 
REMARK    4  A    between atoms: C_4  and  C_8 
ROOT
HETATM    1  O   UNL     1      18.056  -4.950  26.091  1.00  0.00    -0.358 OA
HETATM    2  H   UNL     1      17.127  -5.072  26.050  1.00  0.00     0.217 HD
ENDROOT
BRANCH   1   3
HETATM    3  C   UNL     1      18.575  -3.902  26.790  1.00  0.00     0.099 A 
HETATM    4  C   UNL     1      19.098  -4.120  28.064  1.00  0.00     0.050 A 
HETATM    5  C   UNL     1      19.624  -3.052  28.772  1.00  0.00    -0.033 A 
HETATM    6  C   UNL     1      19.641  -1.772  28.242  1.00  0.00     0.014 A 
HETATM    7  C   UNL     1      19.117  -1.554  26.967  1.00  0.00     0.040 A 
HETATM    8  C   UNL     1      18.584  -2.620  26.242  1.00  0.00     0.098 A 
BRANCH   5   9
HETATM    9  C   UNL     1      20.179  -3.282  30.119  1.00  0.00     0.012 C 
HETATM   10  C   UNL     1      20.803  -2.347  30.875  1.00  0.00     0.012 C 
BRANCH  10  11
HETATM   11  C   UNL     1      21.333  -2.569  32.212  1.00  0.00    -0.036 A 
HETATM   12  C   UNL     1      21.762  -3.840  32.590  1.00  0.00     0.011 A 
HETATM   13  C   UNL     1      22.270  -4.052  33.872  1.00  0.00     0.001 A 
HETATM   14  C   UNL     1      22.349  -2.992  34.774  1.00  0.00     0.000 A 
HETATM   15  C   UNL     1      21.921  -1.719  34.396  1.00  0.00     0.001 A 
HETATM   16  C   UNL     1      21.413  -1.508  33.114  1.00  0.00     0.011 A 
ENDBRANCH  10  11
ENDBRANCH   5   9
BRANCH   8  17
HETATM   17  O   UNL     1      18.073  -2.394  24.999  1.00  0.00    -0.358 OA
HETATM   18  H   UNL     1      18.465  -1.750  24.442  1.00  0.00     0.217 HD
ENDBRANCH   8  17
ENDBRANCH   1   3
TORSDOF 4
ENDMDL
MODEL 6
REMARK VINA RESULT:      -7.2      3.940      6.543
REMARK  4 active torsions:
REMARK  status: ('A' for Active; 'I' for Inactive)
REMARK    1  A    between atoms: O_1  and  C_9 
REMARK    2  A    between atoms: O_2  and  C_10 
REMARK    3  A    between atoms: C_3  and  C_5 
REMARK    4  A    between atoms: C_4  and  C_8 
ROOT
HETATM    1  O   UNL     1      21.627  -0.793  32.898  1.00  0.00    -0.358 OA
HETATM    2  H   UNL     1      22.413  -0.322  33.098  1.00  0.00     0.217 HD
ENDROOT
BRANCH   1   3
HETATM    3  C   UNL     1      21.658  -2.150  32.779  1.00  0.00     0.099 A 
HETATM    4  C   UNL     1      21.179  -2.747  31.613  1.00  0.00     0.050 A 
HETATM    5  C   UNL     1      21.211  -4.127  31.496  1.00  0.00    -0.033 A 
HETATM    6  C   UNL     1      21.708  -4.926  32.512  1.00  0.00     0.014 A 
HETATM    7  C   UNL     1      22.187  -4.329  33.679  1.00  0.00     0.040 A 
HETATM    8  C   UNL     1      22.162  -2.941  33.812  1.00  0.00     0.098 A 
BRANCH   5   9
HETATM    9  C   UNL     1      20.706  -4.759  30.264  1.00  0.00     0.012 C 
HETATM   10  C   UNL     1      19.573  -4.403  29.613  1.00  0.00     0.012 C 
BRANCH  10  11
HETATM   11  C   UNL     1      19.086  -5.013  28.385  1.00  0.00    -0.036 A 
HETATM   12  C   UNL     1      19.989  -5.484  27.433  1.00  0.00     0.011 A 
HETATM   13  C   UNL     1      19.521  -6.069  26.256  1.00  0.00     0.001 A 
HETATM   14  C   UNL     1      18.149  -6.183  26.033  1.00  0.00     0.000 A 
HETATM   15  C   UNL     1      17.245  -5.713  26.986  1.00  0.00     0.001 A 
HETATM   16  C   UNL     1      17.713  -5.128  28.162  1.00  0.00     0.011 A 
ENDBRANCH  10  11
ENDBRANCH   5   9
BRANCH   8  17
HETATM   17  O   UNL     1      22.630  -2.370  34.956  1.00  0.00    -0.358 OA
HETATM   18  H   UNL     1      22.683  -2.874  35.744  1.00  0.00     0.217 HD
ENDBRANCH   8  17
ENDBRANCH   1   3
TORSDOF 4
ENDMDL
MODEL 7
REMARK VINA RESULT:      -7.2      1.123      1.729
REMARK  4 active torsions:
REMARK  status: ('A' for Active; 'I' for Inactive)
REMARK    1  A    between atoms: O_1  and  C_9 
REMARK    2  A    between atoms: O_2  and  C_10 
REMARK    3  A    between atoms: C_3  and  C_5 
REMARK    4  A    between atoms: C_4  and  C_8 
ROOT
HETATM    1  O   UNL     1      17.940  -3.034  26.737  1.00  0.00    -0.358 OA
HETATM    2  H   UNL     1      17.792  -3.777  26.185  1.00  0.00     0.217 HD
ENDROOT
BRANCH   1   3
HETATM    3  C   UNL     1      19.090  -2.942  27.462  1.00  0.00     0.099 A 
HETATM    4  C   UNL     1      19.257  -3.749  28.587  1.00  0.00     0.050 A 
HETATM    5  C   UNL     1      20.427  -3.653  29.323  1.00  0.00    -0.033 A 
HETATM    6  C   UNL     1      21.434  -2.772  28.965  1.00  0.00     0.014 A 
HETATM    7  C   UNL     1      21.266  -1.964  27.839  1.00  0.00     0.040 A 
HETATM    8  C   UNL     1      20.094  -2.050  27.088  1.00  0.00     0.098 A 
BRANCH   5   9
HETATM    9  C   UNL     1      20.605  -4.506  30.511  1.00  0.00     0.012 C 
HETATM   10  C   UNL     1      21.725  -5.207  30.807  1.00  0.00     0.012 C 
BRANCH  10  11
HETATM   11  C   UNL     1      21.907  -6.034  31.991  1.00  0.00    -0.036 A 
HETATM   12  C   UNL     1      20.901  -6.108  32.952  1.00  0.00     0.011 A 
HETATM   13  C   UNL     1      21.076  -6.901  34.087  1.00  0.00     0.001 A 
HETATM   14  C   UNL     1      22.259  -7.620  34.257  1.00  0.00     0.000 A 
HETATM   15  C   UNL     1      23.266  -7.547  33.295  1.00  0.00     0.001 A 
HETATM   16  C   UNL     1      23.090  -6.754  32.161  1.00  0.00     0.011 A 
ENDBRANCH  10  11
ENDBRANCH   5   9
BRANCH   8  17
HETATM   17  O   UNL     1      19.942  -1.255  25.993  1.00  0.00    -0.358 OA
HETATM   18  H   UNL     1      20.565  -0.577  25.815  1.00  0.00     0.217 HD
ENDBRANCH   8  17
ENDBRANCH   1   3
TORSDOF 4
ENDMDL
MODEL 8
REMARK VINA RESULT:      -7.2      4.064      5.846
REMARK  4 active torsions:
REMARK  status: ('A' for Active; 'I' for Inactive)
REMARK    1  A    between atoms: O_1  and  C_9 
REMARK    2  A    between atoms: O_2  and  C_10 
REMARK    3  A    between atoms: C_3  and  C_5 
REMARK    4  A    between atoms: C_4  and  C_8 
ROOT
HETATM    1  O   UNL     1      21.460  -0.640  31.833  1.00  0.00    -0.358 OA
HETATM    2  H   UNL     1      22.202  -0.075  31.736  1.00  0.00     0.217 HD
ENDROOT
BRANCH   1   3
HETATM    3  C   UNL     1      21.629  -1.914  32.287  1.00  0.00     0.099 A 
HETATM    4  C   UNL     1      21.522  -2.979  31.393  1.00  0.00     0.050 A 
HETATM    5  C   UNL     1      21.694  -4.273  31.858  1.00  0.00    -0.033 A 
HETATM    6  C   UNL     1      21.968  -4.531  33.191  1.00  0.00     0.014 A 
HETATM    7  C   UNL     1      22.075  -3.464  34.085  1.00  0.00     0.040 A 
HETATM    8  C   UNL     1      21.906  -2.157  33.632  1.00  0.00     0.098 A 
BRANCH   5   9
HETATM    9  C   UNL     1      21.582  -5.400  30.915  1.00  0.00     0.012 C 
HETATM   10  C   UNL     1      22.583  -6.256  30.599  1.00  0.00     0.012 C 
BRANCH  10  11
HETATM   11  C   UNL     1      22.467  -7.380  29.683  1.00  0.00    -0.036 A 
HETATM   12  C   UNL     1      21.213  -7.781  29.226  1.00  0.00     0.011 A 
HETATM   13  C   UNL     1      21.102  -8.859  28.347  1.00  0.00     0.001 A 
HETATM   14  C   UNL     1      22.247  -9.535  27.926  1.00  0.00     0.000 A 
HETATM   15  C   UNL     1      23.503  -9.133  28.383  1.00  0.00     0.001 A 
HETATM   16  C   UNL     1      23.613  -8.055  29.261  1.00  0.00     0.011 A 
ENDBRANCH  10  11
ENDBRANCH   5   9
BRANCH   8  17
HETATM   17  O   UNL     1      22.010  -1.124  34.514  1.00  0.00    -0.358 OA
HETATM   18  H   UNL     1      21.841  -0.246  34.231  1.00  0.00     0.217 HD
ENDBRANCH   8  17
ENDBRANCH   1   3
TORSDOF 4
ENDMDL
MODEL 9
REMARK VINA RESULT:      -7.2      3.941      6.614
REMARK  4 active torsions:
REMARK  status: ('A' for Active; 'I' for Inactive)
REMARK    1  A    between atoms: O_1  and  C_9 
REMARK    2  A    between atoms: O_2  and  C_10 
REMARK    3  A    between atoms: C_3  and  C_5 
REMARK    4  A    between atoms: C_4  and  C_8 
ROOT
HETATM    1  O   UNL     1      21.710  -0.820  32.867  1.00  0.00    -0.358 OA
HETATM    2  H   UNL     1      21.790  -0.284  32.102  1.00  0.00     0.217 HD
ENDROOT
BRANCH   1   3
HETATM    3  C   UNL     1      21.699  -2.177  32.750  1.00  0.00     0.099 A 
HETATM    4  C   UNL     1      21.234  -2.759  31.571  1.00  0.00     0.050 A 
HETATM    5  C   UNL     1      21.224  -4.140  31.456  1.00  0.00    -0.033 A 
HETATM    6  C   UNL     1      21.665  -4.954  32.486  1.00  0.00     0.014 A 
HETATM    7  C   UNL     1      22.130  -4.371  33.666  1.00  0.00     0.040 A 
HETATM    8  C   UNL     1      22.147  -2.983  33.797  1.00  0.00     0.098 A 
BRANCH   5   9
HETATM    9  C   UNL     1      20.734  -4.756  30.209  1.00  0.00     0.012 C 
HETATM   10  C   UNL     1      19.552  -4.474  29.612  1.00  0.00     0.012 C 
BRANCH  10  11
HETATM   11  C   UNL     1      19.077  -5.068  28.371  1.00  0.00    -0.036 A 
HETATM   12  C   UNL     1      17.709  -5.184  28.132  1.00  0.00     0.011 A 
HETATM   13  C   UNL     1      17.254  -5.754  26.943  1.00  0.00     0.001 A 
HETATM   14  C   UNL     1      18.169  -6.206  25.993  1.00  0.00     0.000 A 
HETATM   15  C   UNL     1      19.539  -6.090  26.231  1.00  0.00     0.001 A 
HETATM   16  C   UNL     1      19.993  -5.520  27.421  1.00  0.00     0.011 A 
ENDBRANCH  10  11
ENDBRANCH   5   9
BRANCH   8  17
HETATM   17  O   UNL     1      22.601  -2.425  34.954  1.00  0.00    -0.358 OA
HETATM   18  H   UNL     1      22.402  -2.827  35.777  1.00  0.00     0.217 HD
ENDBRANCH   8  17
ENDBRANCH   1   3
TORSDOF 4
ENDMDL
