MODEL 1
REMARK VINA RESULT:      -7.8      0.000      0.000
REMARK  4 active torsions:
REMARK  status: ('A' for Active; 'I' for Inactive)
REMARK    1  A    between atoms: O_1  and  C_9 
REMARK    2  A    between atoms: O_2  and  C_10 
REMARK    3  A    between atoms: C_3  and  C_5 
REMARK    4  A    between atoms: C_4  and  C_8 
ROOT
HETATM    1  O   UNL     1      18.013  -2.680  25.484  1.00  0.00    -0.358 OA
HETATM    2  H   UNL     1      17.540  -3.487  25.533  1.00  0.00     0.217 HD
ENDROOT
BRANCH   1   3
HETATM    3  C   UNL     1      19.134  -2.501  26.238  1.00  0.00     0.099 A 
HETATM    4  C   UNL     1      19.315  -3.268  27.389  1.00  0.00     0.050 A 
HETATM    5  C   UNL     1      20.456  -3.083  28.154  1.00  0.00    -0.033 A 
HETATM    6  C   UNL     1      21.419  -2.153  27.800  1.00  0.00     0.014 A 
HETATM    7  C   UNL     1      21.237  -1.385  26.649  1.00  0.00     0.040 A 
HETATM    8  C   UNL     1      20.095  -1.560  25.869  1.00  0.00     0.098 A 
BRANCH   5   9
HETATM    9  C   UNL     1      20.649  -3.894  29.370  1.00  0.00     0.012 C 
HETATM   10  C   UNL     1      21.844  -4.323  29.839  1.00  0.00     0.012 C 
BRANCH  10  11
HETATM   11  C   UNL     1      22.037  -5.107  31.050  1.00  0.00    -0.036 A 
HETATM   12  C   UNL     1      22.581  -6.388  30.973  1.00  0.00     0.011 A 
HETATM   13  C   UNL     1      22.765  -7.139  32.134  1.00  0.00     0.001 A 
HETATM   14  C   UNL     1      22.405  -6.607  33.372  1.00  0.00     0.000 A 
HETATM   15  C   UNL     1      21.861  -5.325  33.450  1.00  0.00     0.001 A 
HETATM   16  C   UNL     1      21.677  -4.574  32.289  1.00  0.00     0.011 A 
ENDBRANCH  10  11
ENDBRANCH   5   9
BRANCH   8  17
HETATM   17  O   UNL     1      19.928  -0.804  24.748  1.00  0.00    -0.358 OA
HETATM   18  H   UNL     1      19.886   0.131  24.815  1.00  0.00     0.217 HD
ENDBRANCH   8  17
ENDBRANCH   1   3
TORSDOF 4
ENDMDL
MODEL 2
REMARK VINA RESULT:      -7.8      1.820      3.060
REMARK  4 active torsions:
REMARK  status: ('A' for Active; 'I' for Inactive)
REMARK    1  A    between atoms: O_1  and  C_9 
REMARK    2  A    between atoms: O_2  and  C_10 
REMARK    3  A    between atoms: C_3  and  C_5 
REMARK    4  A    between atoms: C_4  and  C_8 
ROOT
HETATM    1  O   UNL     1      20.194  -0.857  25.696  1.00  0.00    -0.358 OA
HETATM    2  H   UNL     1      21.108  -0.669  25.607  1.00  0.00     0.217 HD
ENDROOT
BRANCH   1   3
HETATM    3  C   UNL     1      19.779  -1.816  26.571  1.00  0.00     0.099 A 
HETATM    4  C   UNL     1      20.444  -1.969  27.787  1.00  0.00     0.050 A 
HETATM    5  C   UNL     1      20.020  -2.945  28.674  1.00  0.00    -0.033 A 
HETATM    6  C   UNL     1      18.949  -3.772  28.378  1.00  0.00     0.014 A 
HETATM    7  C   UNL     1      18.283  -3.619  27.161  1.00  0.00     0.040 A 
HETATM    8  C   UNL     1      18.699  -2.641  26.259  1.00  0.00     0.098 A 
BRANCH   5   9
HETATM    9  C   UNL     1      20.722  -3.107  29.960  1.00  0.00     0.012 C 
HETATM   10  C   UNL     1      20.539  -2.327  31.052  1.00  0.00     0.012 C 
BRANCH  10  11
HETATM   11  C   UNL     1      21.218  -2.499  32.328  1.00  0.00    -0.036 A 
HETATM   12  C   UNL     1      21.442  -1.398  33.152  1.00  0.00     0.011 A 
HETATM   13  C   UNL     1      22.092  -1.562  34.376  1.00  0.00     0.001 A 
HETATM   14  C   UNL     1      22.518  -2.830  34.773  1.00  0.00     0.000 A 
HETATM   15  C   UNL     1      22.294  -3.932  33.947  1.00  0.00     0.001 A 
HETATM   16  C   UNL     1      21.643  -3.767  32.725  1.00  0.00     0.011 A 
ENDBRANCH  10  11
ENDBRANCH   5   9
BRANCH   8  17
HETATM   17  O   UNL     1      18.042  -2.502  25.073  1.00  0.00    -0.358 OA
HETATM   18  H   UNL     1      17.105  -2.491  25.055  1.00  0.00     0.217 HD
ENDBRANCH   8  17
ENDBRANCH   1   3
TORSDOF 4
ENDMDL
MODEL 3
REMARK VINA RESULT:      -7.7      1.105      1.817
REMARK  4 active torsions:
REMARK  status: ('A' for Active; 'I' for Inactive)
REMARK    1  A    between atoms: O_1  and  C_9 
REMARK    2  A    between atoms: O_2  and  C_10 
REMARK    3  A    between atoms: C_3  and  C_5 
REMARK    4  A    between atoms: C_4  and  C_8 
ROOT
HETATM    1  O   UNL     1      19.845  -0.453  27.043  1.00  0.00    -0.358 OA
HETATM    2  H   UNL     1      19.512  -0.036  26.272  1.00  0.00     0.217 HD
ENDROOT
BRANCH   1   3
HETATM    3  C   UNL     1      19.538  -1.756  27.297  1.00  0.00     0.099 A 
HETATM    4  C   UNL     1      20.081  -2.381  28.420  1.00  0.00     0.050 A 
HETATM    5  C   UNL     1      19.767  -3.706  28.675  1.00  0.00    -0.033 A 
HETATM    6  C   UNL     1      18.927  -4.423  27.840  1.00  0.00     0.014 A 
HETATM    7  C   UNL     1      18.384  -3.798  26.716  1.00  0.00     0.040 A 
HETATM    8  C   UNL     1      18.690  -2.464  26.446  1.00  0.00     0.098 A 
BRANCH   5   9
HETATM    9  C   UNL     1      20.339  -4.368  29.862  1.00  0.00     0.012 C 
HETATM   10  C   UNL     1      21.544  -4.984  29.906  1.00  0.00     0.012 C 
BRANCH  10  11
HETATM   11  C   UNL     1      22.117  -5.620  31.083  1.00  0.00    -0.036 A 
HETATM   12  C   UNL     1      22.756  -6.853  30.969  1.00  0.00     0.011 A 
HETATM   13  C   UNL     1      23.306  -7.462  32.097  1.00  0.00     0.001 A 
HETATM   14  C   UNL     1      23.216  -6.836  33.340  1.00  0.00     0.000 A 
HETATM   15  C   UNL     1      22.577  -5.601  33.455  1.00  0.00     0.001 A 
HETATM   16  C   UNL     1      22.028  -4.993  32.326  1.00  0.00     0.011 A 
ENDBRANCH  10  11
ENDBRANCH   5   9
BRANCH   8  17
HETATM   17  O   UNL     1      18.156  -1.865  25.345  1.00  0.00    -0.358 OA
HETATM   18  H   UNL     1      18.488  -2.070  24.493  1.00  0.00     0.217 HD
ENDBRANCH   8  17
ENDBRANCH   1   3
TORSDOF 4
ENDMDL
MODEL 4
REMARK VINA RESULT:      -7.6      1.168      2.175
REMARK  4 active torsions:
REMARK  status: ('A' for Active; 'I' for Inactive)
REMARK    1  A    between atoms: O_1  and  C_9 
REMARK    2  A    between atoms: O_2  and  C_10 
REMARK    3  A    between atoms: C_3  and  C_5 
REMARK    4  A    between atoms: C_4  and  C_8 
ROOT
HETATM    1  O   UNL     1      19.531  -0.498  27.076  1.00  0.00    -0.358 OA
HETATM    2  H   UNL     1      18.766   0.002  26.869  1.00  0.00     0.217 HD
ENDROOT
BRANCH   1   3
HETATM    3  C   UNL     1      19.427  -1.835  27.316  1.00  0.00     0.099 A 
HETATM    4  C   UNL     1      20.006  -2.373  28.465  1.00  0.00     0.050 A 
HETATM    5  C   UNL     1      19.898  -3.734  28.704  1.00  0.00    -0.033 A 
HETATM    6  C   UNL     1      19.229  -4.570  27.827  1.00  0.00     0.014 A 
HETATM    7  C   UNL     1      18.649  -4.032  26.677  1.00  0.00     0.040 A 
HETATM    8  C   UNL     1      18.749  -2.665  26.422  1.00  0.00     0.098 A 
BRANCH   5   9
HETATM    9  C   UNL     1      20.509  -4.303  29.919  1.00  0.00     0.012 C 
HETATM   10  C   UNL     1      21.483  -5.244  29.935  1.00  0.00     0.012 C 
BRANCH  10  11
HETATM   11  C   UNL     1      22.100  -5.791  31.134  1.00  0.00    -0.036 A 
HETATM   12  C   UNL     1      21.973  -5.124  32.351  1.00  0.00     0.011 A 
HETATM   13  C   UNL     1      22.564  -5.649  33.500  1.00  0.00     0.001 A 
HETATM   14  C   UNL     1      23.282  -6.842  33.431  1.00  0.00     0.000 A 
HETATM   15  C   UNL     1      23.409  -7.511  32.213  1.00  0.00     0.001 A 
HETATM   16  C   UNL     1      22.818  -6.985  31.064  1.00  0.00     0.011 A 
ENDBRANCH  10  11
ENDBRANCH   5   9
BRANCH   8  17
HETATM   17  O   UNL     1      18.181  -2.151  25.296  1.00  0.00    -0.358 OA
HETATM   18  H   UNL     1      18.568  -2.317  24.458  1.00  0.00     0.217 HD
ENDBRANCH   8  17
ENDBRANCH   1   3
TORSDOF 4
ENDMDL
MODEL 5
REMARK VINA RESULT:      -7.3      1.202      1.849
REMARK  4 active torsions:
REMARK  status: ('A' for Active; 'I' for Inactive)
REMARK    1  A    between atoms: O_1  and  C_9 
REMARK    2  A    between atoms: O_2  and  C_10 
REMARK    3  A    between atoms: C_3  and  C_5 
REMARK    4  A    between atoms: C_4  and  C_8 
ROOT
HETATM    1  O   UNL     1      17.982  -4.851  25.785  1.00  0.00    -0.358 OA
HETATM    2  H   UNL     1      18.149  -4.759  24.867  1.00  0.00     0.217 HD
ENDROOT
BRANCH   1   3
HETATM    3  C   UNL     1      18.627  -4.048  26.678  1.00  0.00     0.099 A 
HETATM    4  C   UNL     1      19.195  -4.611  27.820  1.00  0.00     0.050 A 
HETATM    5  C   UNL     1      19.849  -3.791  28.726  1.00  0.00    -0.033 A 
HETATM    6  C   UNL     1      19.950  -2.425  28.521  1.00  0.00     0.014 A 
HETATM    7  C   UNL     1      19.381  -1.862  27.378  1.00  0.00     0.040 A 
HETATM    8  C   UNL     1      18.720  -2.674  26.457  1.00  0.00     0.098 A 
BRANCH   5   9
HETATM    9  C   UNL     1      20.450  -4.385  29.933  1.00  0.00     0.012 C 
HETATM   10  C   UNL     1      21.505  -5.235  29.942  1.00  0.00     0.012 C 
BRANCH  10  11
HETATM   11  C   UNL     1      22.111  -5.806  31.135  1.00  0.00    -0.036 A 
HETATM   12  C   UNL     1      22.078  -5.104  32.339  1.00  0.00     0.011 A 
HETATM   13  C   UNL     1      22.660  -5.651  33.483  1.00  0.00     0.001 A 
HETATM   14  C   UNL     1      23.274  -6.902  33.421  1.00  0.00     0.000 A 
HETATM   15  C   UNL     1      23.306  -7.605  32.217  1.00  0.00     0.001 A 
HETATM   16  C   UNL     1      22.725  -7.058  31.074  1.00  0.00     0.011 A 
ENDBRANCH  10  11
ENDBRANCH   5   9
BRANCH   8  17
HETATM   17  O   UNL     1      18.167  -2.112  25.345  1.00  0.00    -0.358 OA
HETATM   18  H   UNL     1      17.320  -1.713  25.394  1.00  0.00     0.217 HD
ENDBRANCH   8  17
ENDBRANCH   1   3
TORSDOF 4
ENDMDL
MODEL 6
REMARK VINA RESULT:      -7.2      3.028      3.587
REMARK  4 active torsions:
REMARK  status: ('A' for Active; 'I' for Inactive)
REMARK    1  A    between atoms: O_1  and  C_9 
REMARK    2  A    between atoms: O_2  and  C_10 
REMARK    3  A    between atoms: C_3  and  C_5 
REMARK    4  A    between atoms: C_4  and  C_8 
ROOT
HETATM    1  O   UNL     1      15.967  -5.905  26.749  1.00  0.00    -0.358 OA
HETATM    2  H   UNL     1      15.636  -5.821  25.876  1.00  0.00     0.217 HD
ENDROOT
BRANCH   1   3
HETATM    3  C   UNL     1      17.289  -5.695  26.999  1.00  0.00     0.099 A 
HETATM    4  C   UNL     1      17.674  -5.106  28.204  1.00  0.00     0.050 A 
HETATM    5  C   UNL     1      19.020  -4.893  28.455  1.00  0.00    -0.033 A 
HETATM    6  C   UNL     1      19.991  -5.252  27.535  1.00  0.00     0.014 A 
HETATM    7  C   UNL     1      19.606  -5.841  26.330  1.00  0.00     0.040 A 
HETATM    8  C   UNL     1      18.255  -6.061  26.063  1.00  0.00     0.098 A 
BRANCH   5   9
HETATM    9  C   UNL     1      19.427  -4.272  29.728  1.00  0.00     0.012 C 
HETATM   10  C   UNL     1      20.695  -4.220  30.200  1.00  0.00     0.012 C 
BRANCH  10  11
HETATM   11  C   UNL     1      21.100  -3.590  31.448  1.00  0.00    -0.036 A 
HETATM   12  C   UNL     1      21.729  -4.343  32.438  1.00  0.00     0.011 A 
HETATM   13  C   UNL     1      22.117  -3.739  33.634  1.00  0.00     0.001 A 
HETATM   14  C   UNL     1      21.876  -2.380  33.838  1.00  0.00     0.000 A 
HETATM   15  C   UNL     1      21.247  -1.626  32.847  1.00  0.00     0.001 A 
HETATM   16  C   UNL     1      20.860  -2.231  31.651  1.00  0.00     0.011 A 
ENDBRANCH  10  11
ENDBRANCH   5   9
BRANCH   8  17
HETATM   17  O   UNL     1      17.892  -6.635  24.882  1.00  0.00    -0.358 OA
HETATM   18  H   UNL     1      17.112  -7.153  24.833  1.00  0.00     0.217 HD
ENDBRANCH   8  17
ENDBRANCH   1   3
TORSDOF 4
ENDMDL
MODEL 7
REMARK VINA RESULT:      -7.2      3.942      6.617
REMARK  4 active torsions:
REMARK  status: ('A' for Active; 'I' for Inactive)
REMARK    1  A    between atoms: O_1  and  C_9 
REMARK    2  A    between atoms: O_2  and  C_10 
REMARK    3  A    between atoms: C_3  and  C_5 
REMARK    4  A    between atoms: C_4  and  C_8 
ROOT
HETATM    1  O   UNL     1      21.669  -0.792  32.912  1.00  0.00    -0.358 OA
HETATM    2  H   UNL     1      21.868  -0.396  33.737  1.00  0.00     0.217 HD
ENDROOT
BRANCH   1   3
HETATM    3  C   UNL     1      21.686  -2.149  32.786  1.00  0.00     0.099 A 
HETATM    4  C   UNL     1      21.213  -2.735  31.612  1.00  0.00     0.050 A 
HETATM    5  C   UNL     1      21.232  -4.115  31.489  1.00  0.00    -0.033 A 
HETATM    6  C   UNL     1      21.709  -4.924  32.506  1.00  0.00     0.014 A 
HETATM    7  C   UNL     1      22.182  -4.338  33.681  1.00  0.00     0.040 A 
HETATM    8  C   UNL     1      22.170  -2.951  33.820  1.00  0.00     0.098 A 
BRANCH   5   9
HETATM    9  C   UNL     1      20.733  -4.735  30.248  1.00  0.00     0.012 C 
HETATM   10  C   UNL     1      19.575  -4.412  29.625  1.00  0.00     0.012 C 
BRANCH  10  11
HETATM   11  C   UNL     1      19.093  -5.010  28.389  1.00  0.00    -0.036 A 
HETATM   12  C   UNL     1      17.724  -5.097  28.144  1.00  0.00     0.011 A 
HETATM   13  C   UNL     1      17.261  -5.671  26.959  1.00  0.00     0.001 A 
HETATM   14  C   UNL     1      18.170  -6.156  26.020  1.00  0.00     0.000 A 
HETATM   15  C   UNL     1      19.541  -6.069  26.264  1.00  0.00     0.001 A 
HETATM   16  C   UNL     1      20.003  -5.495  27.449  1.00  0.00     0.011 A 
ENDBRANCH  10  11
ENDBRANCH   5   9
BRANCH   8  17
HETATM   17  O   UNL     1      22.633  -2.390  34.972  1.00  0.00    -0.358 OA
HETATM   18  H   UNL     1      22.517  -1.472  35.126  1.00  0.00     0.217 HD
ENDBRANCH   8  17
ENDBRANCH   1   3
TORSDOF 4
ENDMDL
MODEL 8
REMARK VINA RESULT:      -7.2      4.056      5.841
REMARK  4 active torsions:
REMARK  status: ('A' for Active; 'I' for Inactive)
REMARK    1  A    between atoms: O_1  and  C_9 
REMARK    2  A    between atoms: O_2  and  C_10 
REMARK    3  A    between atoms: C_3  and  C_5 
REMARK    4  A    between atoms: C_4  and  C_8 
ROOT
HETATM    1  O   UNL     1      21.439  -0.585  31.904  1.00  0.00    -0.358 OA
HETATM    2  H   UNL     1      21.944  -0.236  31.196  1.00  0.00     0.217 HD
ENDROOT
BRANCH   1   3
HETATM    3  C   UNL     1      21.624  -1.876  32.301  1.00  0.00     0.099 A 
HETATM    4  C   UNL     1      21.640  -2.891  31.345  1.00  0.00     0.050 A 
HETATM    5  C   UNL     1      21.828  -4.202  31.752  1.00  0.00    -0.033 A 
HETATM    6  C   UNL     1      22.000  -4.525  33.088  1.00  0.00     0.014 A 
HETATM    7  C   UNL     1      21.984  -3.509  34.044  1.00  0.00     0.040 A 
HETATM    8  C   UNL     1      21.797  -2.185  33.650  1.00  0.00     0.098 A 
BRANCH   5   9
HETATM    9  C   UNL     1      21.846  -5.276  30.743  1.00  0.00     0.012 C 
HETATM   10  C   UNL     1      22.572  -6.415  30.829  1.00  0.00     0.012 C 
BRANCH  10  11
HETATM   11  C   UNL     1      22.574  -7.485  29.842  1.00  0.00    -0.036 A 
HETATM   12  C   UNL     1      21.383  -7.873  29.231  1.00  0.00     0.011 A 
HETATM   13  C   UNL     1      21.385  -8.898  28.285  1.00  0.00     0.001 A 
HETATM   14  C   UNL     1      22.581  -9.533  27.949  1.00  0.00     0.000 A 
HETATM   15  C   UNL     1      23.773  -9.144  28.559  1.00  0.00     0.001 A 
HETATM   16  C   UNL     1      23.770  -8.119  29.506  1.00  0.00     0.011 A 
ENDBRANCH  10  11
ENDBRANCH   5   9
BRANCH   8  17
HETATM   17  O   UNL     1      21.781  -1.202  34.593  1.00  0.00    -0.358 OA
HETATM   18  H   UNL     1      22.143  -1.362  35.443  1.00  0.00     0.217 HD
ENDBRANCH   8  17
ENDBRANCH   1   3
TORSDOF 4
ENDMDL
MODEL 9
REMARK VINA RESULT:      -7.2      1.712      2.240
REMARK  4 active torsions:
REMARK  status: ('A' for Active; 'I' for Inactive)
REMARK    1  A    between atoms: O_1  and  C_9 
REMARK    2  A    between atoms: O_2  and  C_10 
REMARK    3  A    between atoms: C_3  and  C_5 
REMARK    4  A    between atoms: C_4  and  C_8 
ROOT
HETATM    1  O   UNL     1      18.075  -3.494  26.177  1.00  0.00    -0.358 OA
HETATM    2  H   UNL     1      17.327  -3.576  26.736  1.00  0.00     0.217 HD
ENDROOT
BRANCH   1   3
HETATM    3  C   UNL     1      19.194  -2.860  26.626  1.00  0.00     0.099 A 
HETATM    4  C   UNL     1      19.675  -3.141  27.905  1.00  0.00     0.050 A 
HETATM    5  C   UNL     1      20.813  -2.494  28.358  1.00  0.00    -0.033 A 
HETATM    6  C   UNL     1      21.483  -1.574  27.569  1.00  0.00     0.014 A 
HETATM    7  C   UNL     1      21.001  -1.293  26.290  1.00  0.00     0.040 A 
HETATM    8  C   UNL     1      19.857  -1.936  25.819  1.00  0.00     0.098 A 
BRANCH   5   9
HETATM    9  C   UNL     1      21.322  -2.791  29.709  1.00  0.00     0.012 C 
HETATM   10  C   UNL     1      20.882  -2.215  30.853  1.00  0.00     0.012 C 
BRANCH  10  11
HETATM   11  C   UNL     1      21.372  -2.522  32.189  1.00  0.00    -0.036 A 
HETATM   12  C   UNL     1      21.728  -3.829  32.517  1.00  0.00     0.011 A 
HETATM   13  C   UNL     1      22.197  -4.124  33.797  1.00  0.00     0.001 A 
HETATM   14  C   UNL     1      22.310  -3.110  34.748  1.00  0.00     0.000 A 
HETATM   15  C   UNL     1      21.954  -1.802  34.420  1.00  0.00     0.001 A 
HETATM   16  C   UNL     1      21.485  -1.508  33.140  1.00  0.00     0.011 A 
ENDBRANCH  10  11
ENDBRANCH   5   9
BRANCH   8  17
HETATM   17  O   UNL     1      19.396  -1.652  24.569  1.00  0.00    -0.358 OA
HETATM   18  H   UNL     1      18.820  -2.251  24.135  1.00  0.00     0.217 HD
ENDBRANCH   8  17
ENDBRANCH   1   3
TORSDOF 4
ENDMDL
