MODEL 1
REMARK VINA RESULT:      -7.2      0.000      0.000
REMARK  6 active torsions:
REMARK  status: ('A' for Active; 'I' for Inactive)
REMARK    1  A    between atoms: N_3  and  CA_7 
REMARK    2  A    between atoms: N_4  and  C_8 
REMARK    3  A    between atoms: C_5  and  C_6 
REMARK    4  A    between atoms: C_5  and  CA_7 
REMARK    5  A    between atoms: C_6  and  C_8 
REMARK    6  A    between atoms: CA_7  and  C_9 
ROOT
HETATM    1  O   UNL     1     -53.768  51.230  10.486  1.00  0.00    -0.646 OA
HETATM    2  OXT UNL     1     -54.499  51.435   8.349  1.00  0.00    -0.646 OA
HETATM    3  C   UNL     1     -54.329  50.745   9.345  1.00  0.00     0.204 C 
ENDROOT
BRANCH   3   4
HETATM    4  CA  UNL     1     -54.701  49.278   9.475  1.00  0.00     0.283 C 
BRANCH   4   5
HETATM    5  N   UNL     1     -55.138  48.803   8.163  1.00  0.00    -0.065 N 
HETATM    6  H   UNL     1     -55.184  47.783   8.168  1.00  0.00     0.275 HD
HETATM    7  H   UNL     1     -54.475  49.110   7.452  1.00  0.00     0.275 HD
HETATM    8  H   UNL     1     -56.062  49.183   7.954  1.00  0.00     0.275 HD
ENDBRANCH   4   5
BRANCH   4   9
HETATM    9  C   UNL     1     -53.557  48.435  10.059  1.00  0.00     0.045 C 
BRANCH   9  10
HETATM   10  C   UNL     1     -53.128  47.239   9.198  1.00  0.00     0.030 C 
BRANCH  10  11
HETATM   11  C   UNL     1     -51.742  47.469   8.595  1.00  0.00     0.230 C 
BRANCH  11  12
HETATM   12  N   UNL     1     -51.824  48.409   7.483  1.00  0.00    -0.079 N 
HETATM   13  H   UNL     1     -52.672  48.969   7.572  1.00  0.00     0.274 HD
HETATM   14  H   UNL     1     -51.849  47.894   6.603  1.00  0.00     0.274 HD
HETATM   15  H   UNL     1     -51.009  49.023   7.495  1.00  0.00     0.274 HD
ENDBRANCH  11  12
ENDBRANCH  10  11
ENDBRANCH   9  10
ENDBRANCH   4   9
ENDBRANCH   3   4
TORSDOF 6
ENDMDL
MODEL 2
REMARK VINA RESULT:      -6.8      2.112      3.209
REMARK  6 active torsions:
REMARK  status: ('A' for Active; 'I' for Inactive)
REMARK    1  A    between atoms: N_3  and  CA_7 
REMARK    2  A    between atoms: N_4  and  C_8 
REMARK    3  A    between atoms: C_5  and  C_6 
REMARK    4  A    between atoms: C_5  and  CA_7 
REMARK    5  A    between atoms: C_6  and  C_8 
REMARK    6  A    between atoms: CA_7  and  C_9 
ROOT
HETATM    1  O   UNL     1     -54.437  51.555   8.399  1.00  0.00    -0.646 OA
HETATM    2  OXT UNL     1     -53.997  50.825  10.501  1.00  0.00    -0.646 OA
HETATM    3  C   UNL     1     -54.333  50.586   9.348  1.00  0.00     0.204 C 
ENDROOT
BRANCH   3   4
HETATM    4  CA  UNL     1     -54.680  49.213   8.799  1.00  0.00     0.283 C 
BRANCH   4   5
HETATM    5  N   UNL     1     -53.429  48.516   8.498  1.00  0.00    -0.065 N 
HETATM    6  H   UNL     1     -53.244  48.569   7.496  1.00  0.00     0.275 HD
HETATM    7  H   UNL     1     -53.510  47.539   8.778  1.00  0.00     0.275 HD
HETATM    8  H   UNL     1     -52.664  48.955   9.009  1.00  0.00     0.275 HD
ENDBRANCH   4   5
BRANCH   4   9
HETATM    9  C   UNL     1     -55.588  48.417   9.748  1.00  0.00     0.045 C 
BRANCH   9  10
HETATM   10  C   UNL     1     -56.694  47.606   9.059  1.00  0.00     0.030 C 
BRANCH  10  11
HETATM   11  C   UNL     1     -56.176  46.236   8.621  1.00  0.00     0.230 C 
BRANCH  11  12
HETATM   12  N   UNL     1     -57.273  45.278   8.548  1.00  0.00    -0.079 N 
HETATM   13  H   UNL     1     -57.758  45.248   9.445  1.00  0.00     0.274 HD
HETATM   14  H   UNL     1     -56.903  44.353   8.331  1.00  0.00     0.274 HD
HETATM   15  H   UNL     1     -57.926  45.563   7.819  1.00  0.00     0.274 HD
ENDBRANCH  11  12
ENDBRANCH  10  11
ENDBRANCH   9  10
ENDBRANCH   4   9
ENDBRANCH   3   4
TORSDOF 6
ENDMDL
MODEL 3
REMARK VINA RESULT:      -6.5      1.795      1.858
REMARK  6 active torsions:
REMARK  status: ('A' for Active; 'I' for Inactive)
REMARK    1  A    between atoms: N_3  and  CA_7 
REMARK    2  A    between atoms: N_4  and  C_8 
REMARK    3  A    between atoms: C_5  and  C_6 
REMARK    4  A    between atoms: C_5  and  CA_7 
REMARK    5  A    between atoms: C_6  and  C_8 
REMARK    6  A    between atoms: CA_7  and  C_9 
ROOT
HETATM    1  O   UNL     1     -53.842  51.215  10.496  1.00  0.00    -0.646 OA
HETATM    2  OXT UNL     1     -54.485  51.474   8.337  1.00  0.00    -0.646 OA
HETATM    3  C   UNL     1     -54.426  50.783   9.346  1.00  0.00     0.204 C 
ENDROOT
BRANCH   3   4
HETATM    4  CA  UNL     1     -54.976  49.374   9.482  1.00  0.00     0.283 C 
BRANCH   4   5
HETATM    5  N   UNL     1     -55.037  48.780   8.146  1.00  0.00    -0.065 N 
HETATM    6  H   UNL     1     -55.931  49.009   7.712  1.00  0.00     0.275 HD
HETATM    7  H   UNL     1     -54.944  47.767   8.221  1.00  0.00     0.275 HD
HETATM    8  H   UNL     1     -54.276  49.149   7.575  1.00  0.00     0.275 HD
ENDBRANCH   4   5
BRANCH   4   9
HETATM    9  C   UNL     1     -54.166  48.524  10.472  1.00  0.00     0.045 C 
BRANCH   9  10
HETATM   10  C   UNL     1     -53.107  47.616   9.832  1.00  0.00     0.030 C 
BRANCH  10  11
HETATM   11  C   UNL     1     -52.236  46.954  10.900  1.00  0.00     0.230 C 
BRANCH  11  12
HETATM   12  N   UNL     1     -52.600  47.445  12.225  1.00  0.00    -0.079 N 
HETATM   13  H   UNL     1     -51.800  47.356  12.852  1.00  0.00     0.274 HD
HETATM   14  H   UNL     1     -53.378  46.895  12.589  1.00  0.00     0.274 HD
HETATM   15  H   UNL     1     -52.875  48.425  12.161  1.00  0.00     0.274 HD
ENDBRANCH  11  12
ENDBRANCH  10  11
ENDBRANCH   9  10
ENDBRANCH   4   9
ENDBRANCH   3   4
TORSDOF 6
ENDMDL
MODEL 4
REMARK VINA RESULT:      -6.4      3.585      4.372
REMARK  6 active torsions:
REMARK  status: ('A' for Active; 'I' for Inactive)
REMARK    1  A    between atoms: N_3  and  CA_7 
REMARK    2  A    between atoms: N_4  and  C_8 
REMARK    3  A    between atoms: C_5  and  C_6 
REMARK    4  A    between atoms: C_5  and  CA_7 
REMARK    5  A    between atoms: C_6  and  C_8 
REMARK    6  A    between atoms: CA_7  and  C_9 
ROOT
HETATM    1  O   UNL     1     -54.937  45.228   7.446  1.00  0.00    -0.646 OA
HETATM    2  OXT UNL     1     -56.805  45.524   8.697  1.00  0.00    -0.646 OA
HETATM    3  C   UNL     1     -55.661  45.854   8.413  1.00  0.00     0.204 C 
ENDROOT
BRANCH   3   4
HETATM    4  CA  UNL     1     -54.880  46.979   9.067  1.00  0.00     0.283 C 
BRANCH   4   5
HETATM    5  N   UNL     1     -53.483  46.866   8.648  1.00  0.00    -0.065 N 
HETATM    6  H   UNL     1     -52.997  47.742   8.844  1.00  0.00     0.275 HD
HETATM    7  H   UNL     1     -53.443  46.671   7.648  1.00  0.00     0.275 HD
HETATM    8  H   UNL     1     -53.035  46.106   9.161  1.00  0.00     0.275 HD
ENDBRANCH   4   5
BRANCH   4   9
HETATM    9  C   UNL     1     -55.479  48.361   8.761  1.00  0.00     0.045 C 
BRANCH   9  10
HETATM   10  C   UNL     1     -55.213  49.434   9.826  1.00  0.00     0.030 C 
BRANCH  10  11
HETATM   11  C   UNL     1     -54.060  50.345   9.407  1.00  0.00     0.230 C 
BRANCH  11  12
HETATM   12  N   UNL     1     -54.529  51.356   8.467  1.00  0.00    -0.079 N 
HETATM   13  H   UNL     1     -55.422  51.730   8.786  1.00  0.00     0.274 HD
HETATM   14  H   UNL     1     -54.648  50.934   7.545  1.00  0.00     0.274 HD
HETATM   15  H   UNL     1     -53.845  52.111   8.409  1.00  0.00     0.274 HD
ENDBRANCH  11  12
ENDBRANCH  10  11
ENDBRANCH   9  10
ENDBRANCH   4   9
ENDBRANCH   3   4
TORSDOF 6
ENDMDL
MODEL 5
REMARK VINA RESULT:      -6.4      1.197      1.222
REMARK  6 active torsions:
REMARK  status: ('A' for Active; 'I' for Inactive)
REMARK    1  A    between atoms: N_3  and  CA_7 
REMARK    2  A    between atoms: N_4  and  C_8 
REMARK    3  A    between atoms: C_5  and  C_6 
REMARK    4  A    between atoms: C_5  and  CA_7 
REMARK    5  A    between atoms: C_6  and  C_8 
REMARK    6  A    between atoms: CA_7  and  C_9 
ROOT
HETATM    1  O   UNL     1     -53.984  51.154  10.678  1.00  0.00    -0.646 OA
HETATM    2  OXT UNL     1     -54.166  51.318   8.424  1.00  0.00    -0.646 OA
HETATM    3  C   UNL     1     -54.204  50.636   9.440  1.00  0.00     0.204 C 
ENDROOT
BRANCH   3   4
HETATM    4  CA  UNL     1     -54.494  49.147   9.491  1.00  0.00     0.283 C 
BRANCH   4   5
HETATM    5  N   UNL     1     -55.026  48.743   8.189  1.00  0.00    -0.065 N 
HETATM    6  H   UNL     1     -55.217  49.573   7.628  1.00  0.00     0.275 HD
HETATM    7  H   UNL     1     -55.889  48.217   8.323  1.00  0.00     0.275 HD
HETATM    8  H   UNL     1     -54.342  48.157   7.710  1.00  0.00     0.275 HD
ENDBRANCH   4   5
BRANCH   4   9
HETATM    9  C   UNL     1     -53.264  48.326   9.908  1.00  0.00     0.045 C 
BRANCH   9  10
HETATM   10  C   UNL     1     -52.385  47.840   8.747  1.00  0.00     0.030 C 
BRANCH  10  11
HETATM   11  C   UNL     1     -52.251  46.317   8.764  1.00  0.00     0.230 C 
BRANCH  11  12
HETATM   12  N   UNL     1     -53.407  45.699   8.125  1.00  0.00    -0.079 N 
HETATM   13  H   UNL     1     -54.033  46.426   7.778  1.00  0.00     0.274 HD
HETATM   14  H   UNL     1     -53.903  45.121   8.804  1.00  0.00     0.274 HD
HETATM   15  H   UNL     1     -53.096  45.119   7.346  1.00  0.00     0.274 HD
ENDBRANCH  11  12
ENDBRANCH  10  11
ENDBRANCH   9  10
ENDBRANCH   4   9
ENDBRANCH   3   4
TORSDOF 6
ENDMDL
MODEL 6
REMARK VINA RESULT:      -6.3      1.773      2.357
REMARK  6 active torsions:
REMARK  status: ('A' for Active; 'I' for Inactive)
REMARK    1  A    between atoms: N_3  and  CA_7 
REMARK    2  A    between atoms: N_4  and  C_8 
REMARK    3  A    between atoms: C_5  and  C_6 
REMARK    4  A    between atoms: C_5  and  CA_7 
REMARK    5  A    between atoms: C_6  and  C_8 
REMARK    6  A    between atoms: CA_7  and  C_9 
ROOT
HETATM    1  O   UNL     1     -54.073  50.304  10.716  1.00  0.00    -0.646 OA
HETATM    2  OXT UNL     1     -53.822  51.185   8.641  1.00  0.00    -0.646 OA
HETATM    3  C   UNL     1     -53.926  50.205   9.367  1.00  0.00     0.204 C 
ENDROOT
BRANCH   3   4
HETATM    4  CA  UNL     1     -53.911  48.759   8.903  1.00  0.00     0.283 C 
BRANCH   4   5
HETATM    5  N   UNL     1     -52.665  48.530   8.171  1.00  0.00    -0.065 N 
HETATM    6  H   UNL     1     -51.915  49.073   8.600  1.00  0.00     0.275 HD
HETATM    7  H   UNL     1     -52.783  48.819   7.200  1.00  0.00     0.275 HD
HETATM    8  H   UNL     1     -52.430  47.538   8.204  1.00  0.00     0.275 HD
ENDBRANCH   4   5
BRANCH   4   9
HETATM    9  C   UNL     1     -54.106  47.771  10.064  1.00  0.00     0.045 C 
BRANCH   9  10
HETATM   10  C   UNL     1     -54.221  46.298   9.649  1.00  0.00     0.030 C 
BRANCH  10  11
HETATM   11  C   UNL     1     -55.437  46.077   8.749  1.00  0.00     0.230 C 
BRANCH  11  12
HETATM   12  N   UNL     1     -55.127  45.103   7.708  1.00  0.00    -0.079 N 
HETATM   13  H   UNL     1     -54.308  45.412   7.186  1.00  0.00     0.274 HD
HETATM   14  H   UNL     1     -55.922  45.019   7.074  1.00  0.00     0.274 HD
HETATM   15  H   UNL     1     -54.936  44.197   8.136  1.00  0.00     0.274 HD
ENDBRANCH  11  12
ENDBRANCH  10  11
ENDBRANCH   9  10
ENDBRANCH   4   9
ENDBRANCH   3   4
TORSDOF 6
ENDMDL
MODEL 7
REMARK VINA RESULT:      -6.2      3.677      4.226
REMARK  6 active torsions:
REMARK  status: ('A' for Active; 'I' for Inactive)
REMARK    1  A    between atoms: N_3  and  CA_7 
REMARK    2  A    between atoms: N_4  and  C_8 
REMARK    3  A    between atoms: C_5  and  C_6 
REMARK    4  A    between atoms: C_5  and  CA_7 
REMARK    5  A    between atoms: C_6  and  C_8 
REMARK    6  A    between atoms: CA_7  and  C_9 
ROOT
HETATM    1  O   UNL     1     -54.781  44.658   9.696  1.00  0.00    -0.646 OA
HETATM    2  OXT UNL     1     -53.738  45.480   7.859  1.00  0.00    -0.646 OA
HETATM    3  C   UNL     1     -54.719  45.447   8.590  1.00  0.00     0.204 C 
ENDROOT
BRANCH   3   4
HETATM    4  CA  UNL     1     -55.991  46.252   8.394  1.00  0.00     0.283 C 
BRANCH   4   5
HETATM    5  N   UNL     1     -57.131  45.365   8.629  1.00  0.00    -0.065 N 
HETATM    6  H   UNL     1     -57.253  44.749   7.825  1.00  0.00     0.275 HD
HETATM    7  H   UNL     1     -57.974  45.923   8.762  1.00  0.00     0.275 HD
HETATM    8  H   UNL     1     -56.958  44.805   9.464  1.00  0.00     0.275 HD
ENDBRANCH   4   5
BRANCH   4   9
HETATM    9  C   UNL     1     -56.028  47.509   9.277  1.00  0.00     0.045 C 
BRANCH   9  10
HETATM   10  C   UNL     1     -55.254  48.713   8.724  1.00  0.00     0.030 C 
BRANCH  10  11
HETATM   11  C   UNL     1     -53.845  48.775   9.314  1.00  0.00     0.230 C 
BRANCH  11  12
HETATM   12  N   UNL     1     -52.851  48.489   8.286  1.00  0.00    -0.079 N 
HETATM   13  H   UNL     1     -51.952  48.294   8.726  1.00  0.00     0.274 HD
HETATM   14  H   UNL     1     -52.759  49.295   7.668  1.00  0.00     0.274 HD
HETATM   15  H   UNL     1     -53.147  47.677   7.744  1.00  0.00     0.274 HD
ENDBRANCH  11  12
ENDBRANCH  10  11
ENDBRANCH   9  10
ENDBRANCH   4   9
ENDBRANCH   3   4
TORSDOF 6
ENDMDL
MODEL 8
REMARK VINA RESULT:      -6.2      2.695      3.685
REMARK  6 active torsions:
REMARK  status: ('A' for Active; 'I' for Inactive)
REMARK    1  A    between atoms: N_3  and  CA_7 
REMARK    2  A    between atoms: N_4  and  C_8 
REMARK    3  A    between atoms: C_5  and  C_6 
REMARK    4  A    between atoms: C_5  and  CA_7 
REMARK    5  A    between atoms: C_6  and  C_8 
REMARK    6  A    between atoms: CA_7  and  C_9 
ROOT
HETATM    1  O   UNL     1     -51.287  46.910   9.176  1.00  0.00    -0.646 OA
HETATM    2  OXT UNL     1     -52.174  48.417   7.733  1.00  0.00    -0.646 OA
HETATM    3  C   UNL     1     -52.276  47.739   8.747  1.00  0.00     0.204 C 
ENDROOT
BRANCH   3   4
HETATM    4  CA  UNL     1     -53.482  47.708   9.668  1.00  0.00     0.283 C 
BRANCH   4   5
HETATM    5  N   UNL     1     -53.026  48.013  11.024  1.00  0.00    -0.065 N 
HETATM    6  H   UNL     1     -52.345  48.773  10.991  1.00  0.00     0.275 HD
HETATM    7  H   UNL     1     -52.592  47.185  11.431  1.00  0.00     0.275 HD
HETATM    8  H   UNL     1     -53.823  48.295  11.596  1.00  0.00     0.275 HD
ENDBRANCH   4   5
BRANCH   4   9
HETATM    9  C   UNL     1     -54.602  48.648   9.196  1.00  0.00     0.045 C 
BRANCH   9  10
HETATM   10  C   UNL     1     -54.822  49.888  10.074  1.00  0.00     0.030 C 
BRANCH  10  11
HETATM   11  C   UNL     1     -53.988  51.068   9.572  1.00  0.00     0.230 C 
BRANCH  11  12
HETATM   12  N   UNL     1     -54.560  51.607   8.344  1.00  0.00    -0.079 N 
HETATM   13  H   UNL     1     -55.575  51.648   8.431  1.00  0.00     0.274 HD
HETATM   14  H   UNL     1     -54.311  51.004   7.560  1.00  0.00     0.274 HD
HETATM   15  H   UNL     1     -54.194  52.545   8.181  1.00  0.00     0.274 HD
ENDBRANCH  11  12
ENDBRANCH  10  11
ENDBRANCH   9  10
ENDBRANCH   4   9
ENDBRANCH   3   4
TORSDOF 6
ENDMDL
MODEL 9
REMARK VINA RESULT:      -5.9      2.785      3.924
REMARK  6 active torsions:
REMARK  status: ('A' for Active; 'I' for Inactive)
REMARK    1  A    between atoms: N_3  and  CA_7 
REMARK    2  A    between atoms: N_4  and  C_8 
REMARK    3  A    between atoms: C_5  and  C_6 
REMARK    4  A    between atoms: C_5  and  CA_7 
REMARK    5  A    between atoms: C_6  and  C_8 
REMARK    6  A    between atoms: CA_7  and  C_9 
ROOT
HETATM    1  O   UNL     1     -55.421  47.026   8.173  1.00  0.00    -0.646 OA
HETATM    2  OXT UNL     1     -54.617  45.362   9.486  1.00  0.00    -0.646 OA
HETATM    3  C   UNL     1     -54.527  46.504   9.055  1.00  0.00     0.204 C 
ENDROOT
BRANCH   3   4
HETATM    4  CA  UNL     1     -53.440  47.500   9.418  1.00  0.00     0.283 C 
BRANCH   4   5
HETATM    5  N   UNL     1     -52.948  48.107   8.181  1.00  0.00    -0.065 N 
HETATM    6  H   UNL     1     -53.211  49.093   8.157  1.00  0.00     0.275 HD
HETATM    7  H   UNL     1     -53.359  47.626   7.380  1.00  0.00     0.275 HD
HETATM    8  H   UNL     1     -51.932  48.024   8.142  1.00  0.00     0.275 HD
ENDBRANCH   4   5
BRANCH   4   9
HETATM    9  C   UNL     1     -53.921  48.544  10.438  1.00  0.00     0.045 C 
BRANCH   9  10
HETATM   10  C   UNL     1     -54.880  49.603   9.878  1.00  0.00     0.030 C 
BRANCH  10  11
HETATM   11  C   UNL     1     -54.174  50.950   9.718  1.00  0.00     0.230 C 
BRANCH  11  12
HETATM   12  N   UNL     1     -54.493  51.539   8.422  1.00  0.00    -0.079 N 
HETATM   13  H   UNL     1     -53.631  51.717   7.908  1.00  0.00     0.274 HD
HETATM   14  H   UNL     1     -54.993  52.417   8.562  1.00  0.00     0.274 HD
HETATM   15  H   UNL     1     -55.078  50.894   7.891  1.00  0.00     0.274 HD
ENDBRANCH  11  12
ENDBRANCH  10  11
ENDBRANCH   9  10
ENDBRANCH   4   9
ENDBRANCH   3   4
TORSDOF 6
ENDMDL
