MODEL 1
REMARK VINA RESULT:      -7.2      0.000      0.000
REMARK  6 active torsions:
REMARK  status: ('A' for Active; 'I' for Inactive)
REMARK    1  A    between atoms: N_3  and  CA_7 
REMARK    2  A    between atoms: N_4  and  C_8 
REMARK    3  A    between atoms: C_5  and  C_6 
REMARK    4  A    between atoms: C_5  and  CA_7 
REMARK    5  A    between atoms: C_6  and  C_8 
REMARK    6  A    between atoms: CA_7  and  C_9 
ROOT
HETATM    1  O   UNL     1     -53.855  51.242  10.523  1.00  0.00    -0.646 OA
HETATM    2  OXT UNL     1     -54.445  51.413   8.340  1.00  0.00    -0.646 OA
HETATM    3  C   UNL     1     -54.334  50.737   9.354  1.00  0.00     0.204 C 
ENDROOT
BRANCH   3   4
HETATM    4  CA  UNL     1     -54.699  49.268   9.478  1.00  0.00     0.283 C 
BRANCH   4   5
HETATM    5  N   UNL     1     -55.150  48.800   8.168  1.00  0.00    -0.065 N 
HETATM    6  H   UNL     1     -54.889  49.482   7.455  1.00  0.00     0.275 HD
HETATM    7  H   UNL     1     -56.163  48.687   8.177  1.00  0.00     0.275 HD
HETATM    8  H   UNL     1     -54.710  47.903   7.958  1.00  0.00     0.275 HD
ENDBRANCH   4   5
BRANCH   4   9
HETATM    9  C   UNL     1     -53.544  48.425  10.043  1.00  0.00     0.045 C 
BRANCH   9  10
HETATM   10  C   UNL     1     -53.111  47.246   9.161  1.00  0.00     0.030 C 
BRANCH  10  11
HETATM   11  C   UNL     1     -51.723  47.489   8.567  1.00  0.00     0.230 C 
BRANCH  11  12
HETATM   12  N   UNL     1     -51.804  48.430   7.456  1.00  0.00    -0.079 N 
HETATM   13  H   UNL     1     -52.728  48.862   7.443  1.00  0.00     0.274 HD
HETATM   14  H   UNL     1     -51.650  47.933   6.578  1.00  0.00     0.274 HD
HETATM   15  H   UNL     1     -51.093  49.152   7.568  1.00  0.00     0.274 HD
ENDBRANCH  11  12
ENDBRANCH  10  11
ENDBRANCH   9  10
ENDBRANCH   4   9
ENDBRANCH   3   4
TORSDOF 6
ENDMDL
MODEL 2
REMARK VINA RESULT:      -7.0      0.213      1.081
REMARK  6 active torsions:
REMARK  status: ('A' for Active; 'I' for Inactive)
REMARK    1  A    between atoms: N_3  and  CA_7 
REMARK    2  A    between atoms: N_4  and  C_8 
REMARK    3  A    between atoms: C_5  and  C_6 
REMARK    4  A    between atoms: C_5  and  CA_7 
REMARK    5  A    between atoms: C_6  and  C_8 
REMARK    6  A    between atoms: CA_7  and  C_9 
ROOT
HETATM    1  O   UNL     1     -54.110  51.262   8.413  1.00  0.00    -0.646 OA
HETATM    2  OXT UNL     1     -53.832  51.342  10.661  1.00  0.00    -0.646 OA
HETATM    3  C   UNL     1     -54.141  50.714   9.657  1.00  0.00     0.204 C 
ENDROOT
BRANCH   3   4
HETATM    4  CA  UNL     1     -54.596  49.266   9.629  1.00  0.00     0.283 C 
BRANCH   4   5
HETATM    5  N   UNL     1     -55.040  48.956   8.269  1.00  0.00    -0.065 N 
HETATM    6  H   UNL     1     -55.860  49.519   8.043  1.00  0.00     0.275 HD
HETATM    7  H   UNL     1     -55.278  47.967   8.207  1.00  0.00     0.275 HD
HETATM    8  H   UNL     1     -54.289  49.168   7.611  1.00  0.00     0.275 HD
ENDBRANCH   4   5
BRANCH   4   9
HETATM    9  C   UNL     1     -53.510  48.302  10.131  1.00  0.00     0.045 C 
BRANCH   9  10
HETATM   10  C   UNL     1     -53.098  47.212   9.132  1.00  0.00     0.030 C 
BRANCH  10  11
HETATM   11  C   UNL     1     -51.701  47.481   8.574  1.00  0.00     0.230 C 
BRANCH  11  12
HETATM   12  N   UNL     1     -51.775  48.402   7.445  1.00  0.00    -0.079 N 
HETATM   13  H   UNL     1     -52.301  49.232   7.717  1.00  0.00     0.274 HD
HETATM   14  H   UNL     1     -52.245  47.944   6.663  1.00  0.00     0.274 HD
HETATM   15  H   UNL     1     -50.833  48.673   7.164  1.00  0.00     0.274 HD
ENDBRANCH  11  12
ENDBRANCH  10  11
ENDBRANCH   9  10
ENDBRANCH   4   9
ENDBRANCH   3   4
TORSDOF 6
ENDMDL
MODEL 3
REMARK VINA RESULT:      -6.7      1.965      2.790
REMARK  6 active torsions:
REMARK  status: ('A' for Active; 'I' for Inactive)
REMARK    1  A    between atoms: N_3  and  CA_7 
REMARK    2  A    between atoms: N_4  and  C_8 
REMARK    3  A    between atoms: C_5  and  C_6 
REMARK    4  A    between atoms: C_5  and  CA_7 
REMARK    5  A    between atoms: C_6  and  C_8 
REMARK    6  A    between atoms: CA_7  and  C_9 
ROOT
HETATM    1  O   UNL     1     -54.477  51.531   8.466  1.00  0.00    -0.646 OA
HETATM    2  OXT UNL     1     -54.199  50.712  10.562  1.00  0.00    -0.646 OA
HETATM    3  C   UNL     1     -54.424  50.520   9.375  1.00  0.00     0.204 C 
ENDROOT
BRANCH   3   4
HETATM    4  CA  UNL     1     -54.673  49.166   8.732  1.00  0.00     0.283 C 
BRANCH   4   5
HETATM    5  N   UNL     1     -53.377  48.526   8.505  1.00  0.00    -0.065 N 
HETATM    6  H   UNL     1     -53.012  48.174   9.391  1.00  0.00     0.275 HD
HETATM    7  H   UNL     1     -52.726  49.207   8.115  1.00  0.00     0.275 HD
HETATM    8  H   UNL     1     -53.491  47.751   7.851  1.00  0.00     0.275 HD
ENDBRANCH   4   5
BRANCH   4   9
HETATM    9  C   UNL     1     -55.627  48.293   9.562  1.00  0.00     0.045 C 
BRANCH   9  10
HETATM   10  C   UNL     1     -56.302  47.153   8.787  1.00  0.00     0.030 C 
BRANCH  10  11
HETATM   11  C   UNL     1     -55.438  45.892   8.806  1.00  0.00     0.230 C 
BRANCH  11  12
HETATM   12  N   UNL     1     -55.550  45.181   7.538  1.00  0.00    -0.079 N 
HETATM   13  H   UNL     1     -55.553  45.853   6.771  1.00  0.00     0.274 HD
HETATM   14  H   UNL     1     -56.418  44.646   7.524  1.00  0.00     0.274 HD
HETATM   15  H   UNL     1     -54.758  44.547   7.432  1.00  0.00     0.274 HD
ENDBRANCH  11  12
ENDBRANCH  10  11
ENDBRANCH   9  10
ENDBRANCH   4   9
ENDBRANCH   3   4
TORSDOF 6
ENDMDL
MODEL 4
REMARK VINA RESULT:      -6.4      2.129      2.239
REMARK  6 active torsions:
REMARK  status: ('A' for Active; 'I' for Inactive)
REMARK    1  A    between atoms: N_3  and  CA_7 
REMARK    2  A    between atoms: N_4  and  C_8 
REMARK    3  A    between atoms: C_5  and  C_6 
REMARK    4  A    between atoms: C_5  and  CA_7 
REMARK    5  A    between atoms: C_6  and  C_8 
REMARK    6  A    between atoms: CA_7  and  C_9 
ROOT
HETATM    1  O   UNL     1     -53.861  51.246  10.546  1.00  0.00    -0.646 OA
HETATM    2  OXT UNL     1     -54.487  51.435   8.375  1.00  0.00    -0.646 OA
HETATM    3  C   UNL     1     -54.293  50.736   9.361  1.00  0.00     0.204 C 
ENDROOT
BRANCH   3   4
HETATM    4  CA  UNL     1     -54.493  49.232   9.429  1.00  0.00     0.283 C 
BRANCH   4   5
HETATM    5  N   UNL     1     -55.033  48.788   8.144  1.00  0.00    -0.065 N 
HETATM    6  H   UNL     1     -55.646  47.986   8.291  1.00  0.00     0.275 HD
HETATM    7  H   UNL     1     -54.265  48.521   7.527  1.00  0.00     0.275 HD
HETATM    8  H   UNL     1     -55.563  49.548   7.717  1.00  0.00     0.275 HD
ENDBRANCH   4   5
BRANCH   4   9
HETATM    9  C   UNL     1     -53.207  48.489   9.820  1.00  0.00     0.045 C 
BRANCH   9  10
HETATM   10  C   UNL     1     -53.388  47.393  10.879  1.00  0.00     0.030 C 
BRANCH  10  11
HETATM   11  C   UNL     1     -52.068  47.102  11.595  1.00  0.00     0.230 C 
BRANCH  11  12
HETATM   12  N   UNL     1     -52.208  47.334  13.028  1.00  0.00    -0.079 N 
HETATM   13  H   UNL     1     -52.927  48.039  13.190  1.00  0.00     0.274 HD
HETATM   14  H   UNL     1     -51.320  47.662  13.408  1.00  0.00     0.274 HD
HETATM   15  H   UNL     1     -52.475  46.464  13.490  1.00  0.00     0.274 HD
ENDBRANCH  11  12
ENDBRANCH  10  11
ENDBRANCH   9  10
ENDBRANCH   4   9
ENDBRANCH   3   4
TORSDOF 6
ENDMDL
MODEL 5
REMARK VINA RESULT:      -6.3      3.558      4.438
REMARK  6 active torsions:
REMARK  status: ('A' for Active; 'I' for Inactive)
REMARK    1  A    between atoms: N_3  and  CA_7 
REMARK    2  A    between atoms: N_4  and  C_8 
REMARK    3  A    between atoms: C_5  and  C_6 
REMARK    4  A    between atoms: C_5  and  CA_7 
REMARK    5  A    between atoms: C_6  and  C_8 
REMARK    6  A    between atoms: CA_7  and  C_9 
ROOT
HETATM    1  O   UNL     1     -54.943  45.142   7.266  1.00  0.00    -0.646 OA
HETATM    2  OXT UNL     1     -56.756  45.495   8.581  1.00  0.00    -0.646 OA
HETATM    3  C   UNL     1     -55.579  45.712   8.324  1.00  0.00     0.204 C 
ENDROOT
BRANCH   3   4
HETATM    4  CA  UNL     1     -54.658  46.624   9.115  1.00  0.00     0.283 C 
BRANCH   4   5
HETATM    5  N   UNL     1     -53.324  46.549   8.520  1.00  0.00    -0.065 N 
HETATM    6  H   UNL     1     -52.697  46.048   9.151  1.00  0.00     0.275 HD
HETATM    7  H   UNL     1     -52.968  47.491   8.364  1.00  0.00     0.275 HD
HETATM    8  H   UNL     1     -53.377  46.053   7.629  1.00  0.00     0.275 HD
ENDBRANCH   4   5
BRANCH   4   9
HETATM    9  C   UNL     1     -55.189  48.064   9.196  1.00  0.00     0.045 C 
BRANCH   9  10
HETATM   10  C   UNL     1     -54.108  49.152   9.255  1.00  0.00     0.030 C 
BRANCH  10  11
HETATM   11  C   UNL     1     -54.727  50.522   9.534  1.00  0.00     0.230 C 
BRANCH  11  12
HETATM   12  N   UNL     1     -54.449  51.437   8.433  1.00  0.00    -0.079 N 
HETATM   13  H   UNL     1     -54.556  50.945   7.546  1.00  0.00     0.274 HD
HETATM   14  H   UNL     1     -53.494  51.786   8.514  1.00  0.00     0.274 HD
HETATM   15  H   UNL     1     -55.101  52.220   8.468  1.00  0.00     0.274 HD
ENDBRANCH  11  12
ENDBRANCH  10  11
ENDBRANCH   9  10
ENDBRANCH   4   9
ENDBRANCH   3   4
TORSDOF 6
ENDMDL
MODEL 6
REMARK VINA RESULT:      -6.3      1.418      1.944
REMARK  6 active torsions:
REMARK  status: ('A' for Active; 'I' for Inactive)
REMARK    1  A    between atoms: N_3  and  CA_7 
REMARK    2  A    between atoms: N_4  and  C_8 
REMARK    3  A    between atoms: C_5  and  C_6 
REMARK    4  A    between atoms: C_5  and  CA_7 
REMARK    5  A    between atoms: C_6  and  C_8 
REMARK    6  A    between atoms: CA_7  and  C_9 
ROOT
HETATM    1  O   UNL     1     -54.035  51.035  10.740  1.00  0.00    -0.646 OA
HETATM    2  OXT UNL     1     -54.003  51.212   8.480  1.00  0.00    -0.646 OA
HETATM    3  C   UNL     1     -54.193  50.538   9.484  1.00  0.00     0.204 C 
ENDROOT
BRANCH   3   4
HETATM    4  CA  UNL     1     -54.623  49.082   9.499  1.00  0.00     0.283 C 
BRANCH   4   5
HETATM    5  N   UNL     1     -55.058  48.723   8.149  1.00  0.00    -0.065 N 
HETATM    6  H   UNL     1     -56.018  48.377   8.182  1.00  0.00     0.275 HD
HETATM    7  H   UNL     1     -54.447  47.997   7.777  1.00  0.00     0.275 HD
HETATM    8  H   UNL     1     -55.014  49.546   7.548  1.00  0.00     0.275 HD
ENDBRANCH   4   5
BRANCH   4   9
HETATM    9  C   UNL     1     -53.521  48.153  10.031  1.00  0.00     0.045 C 
BRANCH   9  10
HETATM   10  C   UNL     1     -53.291  46.880   9.206  1.00  0.00     0.030 C 
BRANCH  10  11
HETATM   11  C   UNL     1     -54.012  45.686   9.832  1.00  0.00     0.230 C 
BRANCH  11  12
HETATM   12  N   UNL     1     -55.043  45.186   8.929  1.00  0.00    -0.079 N 
HETATM   13  H   UNL     1     -55.884  45.754   9.025  1.00  0.00     0.274 HD
HETATM   14  H   UNL     1     -55.259  44.217   9.163  1.00  0.00     0.274 HD
HETATM   15  H   UNL     1     -54.706  45.236   7.967  1.00  0.00     0.274 HD
ENDBRANCH  11  12
ENDBRANCH  10  11
ENDBRANCH   9  10
ENDBRANCH   4   9
ENDBRANCH   3   4
TORSDOF 6
ENDMDL
MODEL 7
REMARK VINA RESULT:      -6.2      1.617      2.354
REMARK  6 active torsions:
REMARK  status: ('A' for Active; 'I' for Inactive)
REMARK    1  A    between atoms: N_3  and  CA_7 
REMARK    2  A    between atoms: N_4  and  C_8 
REMARK    3  A    between atoms: C_5  and  C_6 
REMARK    4  A    between atoms: C_5  and  CA_7 
REMARK    5  A    between atoms: C_6  and  C_8 
REMARK    6  A    between atoms: CA_7  and  C_9 
ROOT
HETATM    1  O   UNL     1     -53.771  51.141   8.490  1.00  0.00    -0.646 OA
HETATM    2  OXT UNL     1     -54.115  50.661  10.680  1.00  0.00    -0.646 OA
HETATM    3  C   UNL     1     -53.921  50.280   9.533  1.00  0.00     0.204 C 
ENDROOT
BRANCH   3   4
HETATM    4  CA  UNL     1     -53.817  48.831   9.091  1.00  0.00     0.283 C 
BRANCH   4   5
HETATM    5  N   UNL     1     -52.688  48.717   8.168  1.00  0.00    -0.065 N 
HETATM    6  H   UNL     1     -52.468  49.637   7.785  1.00  0.00     0.275 HD
HETATM    7  H   UNL     1     -52.932  48.082   7.409  1.00  0.00     0.275 HD
HETATM    8  H   UNL     1     -51.876  48.354   8.668  1.00  0.00     0.275 HD
ENDBRANCH   4   5
BRANCH   4   9
HETATM    9  C   UNL     1     -53.709  47.864  10.281  1.00  0.00     0.045 C 
BRANCH   9  10
HETATM   10  C   UNL     1     -53.726  46.375   9.910  1.00  0.00     0.030 C 
BRANCH  10  11
HETATM   11  C   UNL     1     -54.933  46.045   9.031  1.00  0.00     0.230 C 
BRANCH  11  12
HETATM   12  N   UNL     1     -54.511  45.296   7.852  1.00  0.00    -0.079 N 
HETATM   13  H   UNL     1     -55.313  44.810   7.453  1.00  0.00     0.274 HD
HETATM   14  H   UNL     1     -53.800  44.615   8.119  1.00  0.00     0.274 HD
HETATM   15  H   UNL     1     -54.124  45.939   7.161  1.00  0.00     0.274 HD
ENDBRANCH  11  12
ENDBRANCH  10  11
ENDBRANCH   9  10
ENDBRANCH   4   9
ENDBRANCH   3   4
TORSDOF 6
ENDMDL
MODEL 8
REMARK VINA RESULT:      -6.2      2.724      3.833
REMARK  6 active torsions:
REMARK  status: ('A' for Active; 'I' for Inactive)
REMARK    1  A    between atoms: N_3  and  CA_7 
REMARK    2  A    between atoms: N_4  and  C_8 
REMARK    3  A    between atoms: C_5  and  C_6 
REMARK    4  A    between atoms: C_5  and  CA_7 
REMARK    5  A    between atoms: C_6  and  C_8 
REMARK    6  A    between atoms: CA_7  and  C_9 
ROOT
HETATM    1  O   UNL     1     -52.276  48.391   7.759  1.00  0.00    -0.646 OA
HETATM    2  OXT UNL     1     -51.256  46.822   9.038  1.00  0.00    -0.646 OA
HETATM    3  C   UNL     1     -52.214  47.554   8.830  1.00  0.00     0.204 C 
ENDROOT
BRANCH   3   4
HETATM    4  CA  UNL     1     -53.455  47.651   9.699  1.00  0.00     0.283 C 
BRANCH   4   5
HETATM    5  N   UNL     1     -53.029  47.955  11.066  1.00  0.00    -0.065 N 
HETATM    6  H   UNL     1     -52.290  47.308  11.343  1.00  0.00     0.275 HD
HETATM    7  H   UNL     1     -53.822  47.857  11.699  1.00  0.00     0.275 HD
HETATM    8  H   UNL     1     -52.677  48.912  11.107  1.00  0.00     0.275 HD
ENDBRANCH   4   5
BRANCH   4   9
HETATM    9  C   UNL     1     -54.470  48.669   9.157  1.00  0.00     0.045 C 
BRANCH   9  10
HETATM   10  C   UNL     1     -54.759  49.856  10.086  1.00  0.00     0.030 C 
BRANCH  10  11
HETATM   11  C   UNL     1     -54.008  51.106   9.624  1.00  0.00     0.230 C 
BRANCH  11  12
HETATM   12  N   UNL     1     -54.528  51.563   8.341  1.00  0.00    -0.079 N 
HETATM   13  H   UNL     1     -55.531  51.387   8.297  1.00  0.00     0.274 HD
HETATM   14  H   UNL     1     -54.062  51.059   7.586  1.00  0.00     0.274 HD
HETATM   15  H   UNL     1     -54.353  52.563   8.240  1.00  0.00     0.274 HD
ENDBRANCH  11  12
ENDBRANCH  10  11
ENDBRANCH   9  10
ENDBRANCH   4   9
ENDBRANCH   3   4
TORSDOF 6
ENDMDL
MODEL 9
REMARK VINA RESULT:      -6.0      2.634      3.050
REMARK  6 active torsions:
REMARK  status: ('A' for Active; 'I' for Inactive)
REMARK    1  A    between atoms: N_3  and  CA_7 
REMARK    2  A    between atoms: N_4  and  C_8 
REMARK    3  A    between atoms: C_5  and  C_6 
REMARK    4  A    between atoms: C_5  and  CA_7 
REMARK    5  A    between atoms: C_6  and  C_8 
REMARK    6  A    between atoms: CA_7  and  C_9 
ROOT
HETATM    1  O   UNL     1     -57.099  47.377   8.913  1.00  0.00    -0.646 OA
HETATM    2  OXT UNL     1     -55.204  48.331   8.114  1.00  0.00    -0.646 OA
HETATM    3  C   UNL     1     -55.773  47.368   8.611  1.00  0.00     0.204 C 
ENDROOT
BRANCH   3   4
HETATM    4  CA  UNL     1     -55.119  46.044   8.964  1.00  0.00     0.283 C 
BRANCH   4   5
HETATM    5  N   UNL     1     -55.133  45.198   7.770  1.00  0.00    -0.065 N 
HETATM    6  H   UNL     1     -55.270  45.780   6.943  1.00  0.00     0.275 HD
HETATM    7  H   UNL     1     -55.895  44.523   7.840  1.00  0.00     0.275 HD
HETATM    8  H   UNL     1     -54.245  44.702   7.694  1.00  0.00     0.275 HD
ENDBRANCH   4   5
BRANCH   4   9
HETATM    9  C   UNL     1     -53.708  46.225   9.543  1.00  0.00     0.045 C 
BRANCH   9  10
HETATM   10  C   UNL     1     -52.563  46.015   8.542  1.00  0.00     0.030 C 
BRANCH  10  11
HETATM   11  C   UNL     1     -51.584  47.188   8.576  1.00  0.00     0.230 C 
BRANCH  11  12
HETATM   12  N   UNL     1     -52.089  48.293   7.768  1.00  0.00    -0.079 N 
HETATM   13  H   UNL     1     -52.883  48.725   8.240  1.00  0.00     0.274 HD
HETATM   14  H   UNL     1     -52.388  47.940   6.858  1.00  0.00     0.274 HD
HETATM   15  H   UNL     1     -51.352  48.985   7.639  1.00  0.00     0.274 HD
ENDBRANCH  11  12
ENDBRANCH  10  11
ENDBRANCH   9  10
ENDBRANCH   4   9
ENDBRANCH   3   4
TORSDOF 6
ENDMDL
