MODEL 1
REMARK VINA RESULT:     -12.2      0.000      0.000
REMARK  6 active torsions:
REMARK  status: ('A' for Active; 'I' for Inactive)
REMARK    1  A    between atoms: N_3  and  CA_7 
REMARK    2  A    between atoms: N_4  and  C_8 
REMARK    3  A    between atoms: C_5  and  C_6 
REMARK    4  A    between atoms: C_5  and  CA_7 
REMARK    5  A    between atoms: C_6  and  C_8 
REMARK    6  A    between atoms: CA_7  and  C_9 
ROOT
HETATM    1  O   UNL     1     -52.938  48.552  13.572  1.00  0.00    -0.646 OA
HETATM    2  OXT UNL     1     -52.997  50.360  14.939  1.00  0.00    -0.646 OA
HETATM    3  C   UNL     1     -53.254  49.844  13.860  1.00  0.00     0.204 C 
ENDROOT
BRANCH   3   4
HETATM    4  CA  UNL     1     -53.946  50.532  12.697  1.00  0.00     0.283 C 
BRANCH   4   5
HETATM    5  N   UNL     1     -53.593  51.951  12.734  1.00  0.00    -0.065 N 
HETATM    6  H   UNL     1     -52.627  52.069  12.427  1.00  0.00     0.275 HD
HETATM    7  H   UNL     1     -53.693  52.301  13.686  1.00  0.00     0.275 HD
HETATM    8  H   UNL     1     -54.214  52.472  12.113  1.00  0.00     0.275 HD
ENDBRANCH   4   5
BRANCH   4   9
HETATM    9  C   UNL     1     -53.614  49.875  11.348  1.00  0.00     0.045 C 
BRANCH   9  10
HETATM   10  C   UNL     1     -54.506  50.311  10.177  1.00  0.00     0.030 C 
BRANCH  10  11
HETATM   11  C   UNL     1     -53.717  50.334   8.868  1.00  0.00     0.230 C 
BRANCH  11  12
HETATM   12  N   UNL     1     -53.972  51.574   8.144  1.00  0.00    -0.079 N 
HETATM   13  H   UNL     1     -53.319  51.654   7.365  1.00  0.00     0.274 HD
HETATM   14  H   UNL     1     -53.846  52.367   8.774  1.00  0.00     0.274 HD
HETATM   15  H   UNL     1     -54.927  51.570   7.788  1.00  0.00     0.274 HD
ENDBRANCH  11  12
ENDBRANCH  10  11
ENDBRANCH   9  10
ENDBRANCH   4   9
ENDBRANCH   3   4
TORSDOF 6
ENDMDL
MODEL 2
REMARK VINA RESULT:     -11.9      1.722      1.919
REMARK  6 active torsions:
REMARK  status: ('A' for Active; 'I' for Inactive)
REMARK    1  A    between atoms: N_3  and  CA_7 
REMARK    2  A    between atoms: N_4  and  C_8 
REMARK    3  A    between atoms: C_5  and  C_6 
REMARK    4  A    between atoms: C_5  and  CA_7 
REMARK    5  A    between atoms: C_6  and  C_8 
REMARK    6  A    between atoms: CA_7  and  C_9 
ROOT
HETATM    1  O   UNL     1     -53.693  51.792  12.944  1.00  0.00    -0.646 OA
HETATM    2  OXT UNL     1     -54.143  50.093  14.376  1.00  0.00    -0.646 OA
HETATM    3  C   UNL     1     -53.761  50.475  13.278  1.00  0.00     0.204 C 
ENDROOT
BRANCH   3   4
HETATM    4  CA  UNL     1     -53.312  49.576  12.139  1.00  0.00     0.283 C 
BRANCH   4   5
HETATM    5  N   UNL     1     -52.977  48.267  12.699  1.00  0.00    -0.065 N 
HETATM    6  H   UNL     1     -53.445  48.152  13.598  1.00  0.00     0.275 HD
HETATM    7  H   UNL     1     -51.968  48.201  12.829  1.00  0.00     0.275 HD
HETATM    8  H   UNL     1     -53.286  47.535  12.058  1.00  0.00     0.275 HD
ENDBRANCH   4   5
BRANCH   4   9
HETATM    9  C   UNL     1     -54.358  49.490  11.017  1.00  0.00     0.045 C 
BRANCH   9  10
HETATM   10  C   UNL     1     -53.864  49.935   9.633  1.00  0.00     0.030 C 
BRANCH  10  11
HETATM   11  C   UNL     1     -54.033  51.444   9.452  1.00  0.00     0.230 C 
BRANCH  11  12
HETATM   12  N   UNL     1     -53.918  51.801   8.043  1.00  0.00    -0.079 N 
HETATM   13  H   UNL     1     -53.825  50.954   7.484  1.00  0.00     0.274 HD
HETATM   14  H   UNL     1     -53.094  52.388   7.908  1.00  0.00     0.274 HD
HETATM   15  H   UNL     1     -54.751  52.312   7.752  1.00  0.00     0.274 HD
ENDBRANCH  11  12
ENDBRANCH  10  11
ENDBRANCH   9  10
ENDBRANCH   4   9
ENDBRANCH   3   4
TORSDOF 6
ENDMDL
MODEL 3
REMARK VINA RESULT:     -11.8      1.696      1.844
REMARK  6 active torsions:
REMARK  status: ('A' for Active; 'I' for Inactive)
REMARK    1  A    between atoms: N_3  and  CA_7 
REMARK    2  A    between atoms: N_4  and  C_8 
REMARK    3  A    between atoms: C_5  and  C_6 
REMARK    4  A    between atoms: C_5  and  CA_7 
REMARK    5  A    between atoms: C_6  and  C_8 
REMARK    6  A    between atoms: CA_7  and  C_9 
ROOT
HETATM    1  O   UNL     1     -54.033  50.094  14.323  1.00  0.00    -0.646 OA
HETATM    2  OXT UNL     1     -53.709  51.860  12.938  1.00  0.00    -0.646 OA
HETATM    3  C   UNL     1     -53.691  50.651  13.130  1.00  0.00     0.204 C 
ENDROOT
BRANCH   3   4
HETATM    4  CA  UNL     1     -53.298  49.602  12.105  1.00  0.00     0.283 C 
BRANCH   4   5
HETATM    5  N   UNL     1     -53.028  48.352  12.816  1.00  0.00    -0.065 N 
HETATM    6  H   UNL     1     -52.181  47.924  12.441  1.00  0.00     0.275 HD
HETATM    7  H   UNL     1     -53.815  47.715  12.694  1.00  0.00     0.275 HD
HETATM    8  H   UNL     1     -52.899  48.548  13.809  1.00  0.00     0.275 HD
ENDBRANCH   4   5
BRANCH   4   9
HETATM    9  C   UNL     1     -54.355  49.439  11.002  1.00  0.00     0.045 C 
BRANCH   9  10
HETATM   10  C   UNL     1     -53.906  49.880   9.602  1.00  0.00     0.030 C 
BRANCH  10  11
HETATM   11  C   UNL     1     -54.039  51.394   9.437  1.00  0.00     0.230 C 
BRANCH  11  12
HETATM   12  N   UNL     1     -53.706  51.786   8.073  1.00  0.00    -0.079 N 
HETATM   13  H   UNL     1     -54.163  51.154   7.416  1.00  0.00     0.274 HD
HETATM   14  H   UNL     1     -52.695  51.738   7.942  1.00  0.00     0.274 HD
HETATM   15  H   UNL     1     -54.025  52.740   7.905  1.00  0.00     0.274 HD
ENDBRANCH  11  12
ENDBRANCH  10  11
ENDBRANCH   9  10
ENDBRANCH   4   9
ENDBRANCH   3   4
TORSDOF 6
ENDMDL
MODEL 4
REMARK VINA RESULT:     -11.3      3.065      4.602
REMARK  6 active torsions:
REMARK  status: ('A' for Active; 'I' for Inactive)
REMARK    1  A    between atoms: N_3  and  CA_7 
REMARK    2  A    between atoms: N_4  and  C_8 
REMARK    3  A    between atoms: C_5  and  C_6 
REMARK    4  A    between atoms: C_5  and  CA_7 
REMARK    5  A    between atoms: C_6  and  C_8 
REMARK    6  A    between atoms: CA_7  and  C_9 
ROOT
HETATM    1  O   UNL     1     -52.517  48.920   7.682  1.00  0.00    -0.646 OA
HETATM    2  OXT UNL     1     -54.652  48.416   8.255  1.00  0.00    -0.646 OA
HETATM    3  C   UNL     1     -53.682  49.157   8.343  1.00  0.00     0.204 C 
ENDROOT
BRANCH   3   4
HETATM    4  CA  UNL     1     -53.614  50.425   9.177  1.00  0.00     0.283 C 
BRANCH   4   5
HETATM    5  N   UNL     1     -54.096  51.535   8.355  1.00  0.00    -0.065 N 
HETATM    6  H   UNL     1     -53.744  52.415   8.733  1.00  0.00     0.275 HD
HETATM    7  H   UNL     1     -55.115  51.544   8.361  1.00  0.00     0.275 HD
HETATM    8  H   UNL     1     -53.762  51.419   7.397  1.00  0.00     0.275 HD
ENDBRANCH   4   5
BRANCH   4   9
HETATM    9  C   UNL     1     -54.380  50.294  10.502  1.00  0.00     0.045 C 
BRANCH   9  10
HETATM   10  C   UNL     1     -53.580  49.671  11.655  1.00  0.00     0.030 C 
BRANCH  10  11
HETATM   11  C   UNL     1     -53.692  50.521  12.920  1.00  0.00     0.230 C 
BRANCH  11  12
HETATM   12  N   UNL     1     -53.720  51.939  12.577  1.00  0.00    -0.079 N 
HETATM   13  H   UNL     1     -52.766  52.286  12.485  1.00  0.00     0.274 HD
HETATM   14  H   UNL     1     -54.201  52.457  13.312  1.00  0.00     0.274 HD
HETATM   15  H   UNL     1     -54.214  52.065  11.693  1.00  0.00     0.274 HD
ENDBRANCH  11  12
ENDBRANCH  10  11
ENDBRANCH   9  10
ENDBRANCH   4   9
ENDBRANCH   3   4
TORSDOF 6
ENDMDL
MODEL 5
REMARK VINA RESULT:     -11.2      2.712      4.598
REMARK  6 active torsions:
REMARK  status: ('A' for Active; 'I' for Inactive)
REMARK    1  A    between atoms: N_3  and  CA_7 
REMARK    2  A    between atoms: N_4  and  C_8 
REMARK    3  A    between atoms: C_5  and  C_6 
REMARK    4  A    between atoms: C_5  and  CA_7 
REMARK    5  A    between atoms: C_6  and  C_8 
REMARK    6  A    between atoms: CA_7  and  C_9 
ROOT
HETATM    1  O   UNL     1     -55.592  48.310   9.695  1.00  0.00    -0.646 OA
HETATM    2  OXT UNL     1     -54.691  48.254   7.615  1.00  0.00    -0.646 OA
HETATM    3  C   UNL     1     -54.714  48.727   8.744  1.00  0.00     0.204 C 
ENDROOT
BRANCH   3   4
HETATM    4  CA  UNL     1     -53.797  49.823   9.259  1.00  0.00     0.283 C 
BRANCH   4   5
HETATM    5  N   UNL     1     -53.747  50.883   8.252  1.00  0.00    -0.065 N 
HETATM    6  H   UNL     1     -52.780  51.032   7.963  1.00  0.00     0.275 HD
HETATM    7  H   UNL     1     -54.122  51.745   8.647  1.00  0.00     0.275 HD
HETATM    8  H   UNL     1     -54.305  50.609   7.443  1.00  0.00     0.275 HD
ENDBRANCH   4   5
BRANCH   4   9
HETATM    9  C   UNL     1     -54.224  50.340  10.641  1.00  0.00     0.045 C 
BRANCH   9  10
HETATM   10  C   UNL     1     -53.565  49.629  11.831  1.00  0.00     0.030 C 
BRANCH  10  11
HETATM   11  C   UNL     1     -53.609  50.505  13.084  1.00  0.00     0.230 C 
BRANCH  11  12
HETATM   12  N   UNL     1     -53.709  51.913  12.714  1.00  0.00    -0.079 N 
HETATM   13  H   UNL     1     -54.526  52.052  12.121  1.00  0.00     0.274 HD
HETATM   14  H   UNL     1     -52.869  52.191  12.205  1.00  0.00     0.274 HD
HETATM   15  H   UNL     1     -53.800  52.480  13.557  1.00  0.00     0.274 HD
ENDBRANCH  11  12
ENDBRANCH  10  11
ENDBRANCH   9  10
ENDBRANCH   4   9
ENDBRANCH   3   4
TORSDOF 6
ENDMDL
MODEL 6
REMARK VINA RESULT:     -10.9      1.976      2.202
REMARK  6 active torsions:
REMARK  status: ('A' for Active; 'I' for Inactive)
REMARK    1  A    between atoms: N_3  and  CA_7 
REMARK    2  A    between atoms: N_4  and  C_8 
REMARK    3  A    between atoms: C_5  and  C_6 
REMARK    4  A    between atoms: C_5  and  CA_7 
REMARK    5  A    between atoms: C_6  and  C_8 
REMARK    6  A    between atoms: CA_7  and  C_9 
ROOT
HETATM    1  O   UNL     1     -53.705  52.018  12.530  1.00  0.00    -0.646 OA
HETATM    2  OXT UNL     1     -54.070  50.417  14.094  1.00  0.00    -0.646 OA
HETATM    3  C   UNL     1     -53.758  50.726  12.951  1.00  0.00     0.204 C 
ENDROOT
BRANCH   3   4
HETATM    4  CA  UNL     1     -53.388  49.753  11.845  1.00  0.00     0.283 C 
BRANCH   4   5
HETATM    5  N   UNL     1     -53.140  48.446  12.455  1.00  0.00    -0.065 N 
HETATM    6  H   UNL     1     -53.945  47.839  12.297  1.00  0.00     0.275 HD
HETATM    7  H   UNL     1     -52.992  48.561  13.457  1.00  0.00     0.275 HD
HETATM    8  H   UNL     1     -52.311  48.027  12.034  1.00  0.00     0.275 HD
ENDBRANCH   4   5
BRANCH   4   9
HETATM    9  C   UNL     1     -54.451  49.697  10.737  1.00  0.00     0.045 C 
BRANCH   9  10
HETATM   10  C   UNL     1     -54.045  50.360   9.414  1.00  0.00     0.030 C 
BRANCH  10  11
HETATM   11  C   UNL     1     -53.399  49.346   8.470  1.00  0.00     0.230 C 
BRANCH  11  12
HETATM   12  N   UNL     1     -54.420  48.667   7.681  1.00  0.00    -0.079 N 
HETATM   13  H   UNL     1     -54.004  47.872   7.197  1.00  0.00     0.274 HD
HETATM   14  H   UNL     1     -54.808  49.316   6.996  1.00  0.00     0.274 HD
HETATM   15  H   UNL     1     -55.164  48.338   8.297  1.00  0.00     0.274 HD
ENDBRANCH  11  12
ENDBRANCH  10  11
ENDBRANCH   9  10
ENDBRANCH   4   9
ENDBRANCH   3   4
TORSDOF 6
ENDMDL
MODEL 7
REMARK VINA RESULT:     -10.6      2.380      3.357
REMARK  6 active torsions:
REMARK  status: ('A' for Active; 'I' for Inactive)
REMARK    1  A    between atoms: N_3  and  CA_7 
REMARK    2  A    between atoms: N_4  and  C_8 
REMARK    3  A    between atoms: C_5  and  C_6 
REMARK    4  A    between atoms: C_5  and  CA_7 
REMARK    5  A    between atoms: C_6  and  C_8 
REMARK    6  A    between atoms: CA_7  and  C_9 
ROOT
HETATM    1  O   UNL     1     -54.222  48.803  16.118  1.00  0.00    -0.646 OA
HETATM    2  OXT UNL     1     -52.731  47.133  16.471  1.00  0.00    -0.646 OA
HETATM    3  C   UNL     1     -53.141  48.052  15.775  1.00  0.00     0.204 C 
ENDROOT
BRANCH   3   4
HETATM    4  CA  UNL     1     -52.536  48.497  14.455  1.00  0.00     0.283 C 
BRANCH   4   5
HETATM    5  N   UNL     1     -52.452  47.329  13.578  1.00  0.00    -0.065 N 
HETATM    6  H   UNL     1     -53.344  46.833  13.586  1.00  0.00     0.275 HD
HETATM    7  H   UNL     1     -51.715  46.708  13.909  1.00  0.00     0.275 HD
HETATM    8  H   UNL     1     -52.240  47.633  12.627  1.00  0.00     0.275 HD
ENDBRANCH   4   5
BRANCH   4   9
HETATM    9  C   UNL     1     -53.313  49.660  13.819  1.00  0.00     0.045 C 
BRANCH   9  10
HETATM   10  C   UNL     1     -53.588  49.512  12.316  1.00  0.00     0.030 C 
BRANCH  10  11
HETATM   11  C   UNL     1     -53.732  50.880  11.650  1.00  0.00     0.230 C 
BRANCH  11  12
HETATM   12  N   UNL     1     -53.766  51.934  12.658  1.00  0.00    -0.079 N 
HETATM   13  H   UNL     1     -54.732  52.219  12.820  1.00  0.00     0.274 HD
HETATM   14  H   UNL     1     -53.226  52.735  12.330  1.00  0.00     0.274 HD
HETATM   15  H   UNL     1     -53.364  51.585  13.528  1.00  0.00     0.274 HD
ENDBRANCH  11  12
ENDBRANCH  10  11
ENDBRANCH   9  10
ENDBRANCH   4   9
ENDBRANCH   3   4
TORSDOF 6
ENDMDL
MODEL 8
REMARK VINA RESULT:     -10.5      2.963      5.079
REMARK  6 active torsions:
REMARK  status: ('A' for Active; 'I' for Inactive)
REMARK    1  A    between atoms: N_3  and  CA_7 
REMARK    2  A    between atoms: N_4  and  C_8 
REMARK    3  A    between atoms: C_5  and  C_6 
REMARK    4  A    between atoms: C_5  and  CA_7 
REMARK    5  A    between atoms: C_6  and  C_8 
REMARK    6  A    between atoms: CA_7  and  C_9 
ROOT
HETATM    1  O   UNL     1     -53.672  51.831  12.970  1.00  0.00    -0.646 OA
HETATM    2  OXT UNL     1     -53.656  50.701  11.004  1.00  0.00    -0.646 OA
HETATM    3  C   UNL     1     -53.654  50.690  12.228  1.00  0.00     0.204 C 
ENDROOT
BRANCH   3   4
HETATM    4  CA  UNL     1     -53.633  49.447  13.099  1.00  0.00     0.283 C 
BRANCH   4   5
HETATM    5  N   UNL     1     -52.996  48.371  12.339  1.00  0.00    -0.065 N 
HETATM    6  H   UNL     1     -52.064  48.194  12.715  1.00  0.00     0.275 HD
HETATM    7  H   UNL     1     -52.921  48.645  11.360  1.00  0.00     0.275 HD
HETATM    8  H   UNL     1     -53.559  47.524  12.413  1.00  0.00     0.275 HD
ENDBRANCH   4   5
BRANCH   4   9
HETATM    9  C   UNL     1     -52.954  49.695  14.455  1.00  0.00     0.045 C 
BRANCH   9  10
HETATM   10  C   UNL     1     -53.173  48.594  15.501  1.00  0.00     0.030 C 
BRANCH  10  11
HETATM   11  C   UNL     1     -51.879  47.822  15.762  1.00  0.00     0.230 C 
BRANCH  11  12
HETATM   12  N   UNL     1     -50.888  48.691  16.387  1.00  0.00    -0.079 N 
HETATM   13  H   UNL     1     -50.745  49.517  15.806  1.00  0.00     0.274 HD
HETATM   14  H   UNL     1     -50.006  48.187  16.483  1.00  0.00     0.274 HD
HETATM   15  H   UNL     1     -51.219  48.977  17.308  1.00  0.00     0.274 HD
ENDBRANCH  11  12
ENDBRANCH  10  11
ENDBRANCH   9  10
ENDBRANCH   4   9
ENDBRANCH   3   4
TORSDOF 6
ENDMDL
MODEL 9
REMARK VINA RESULT:     -10.5      4.650      5.966
REMARK  6 active torsions:
REMARK  status: ('A' for Active; 'I' for Inactive)
REMARK    1  A    between atoms: N_3  and  CA_7 
REMARK    2  A    between atoms: N_4  and  C_8 
REMARK    3  A    between atoms: C_5  and  C_6 
REMARK    4  A    between atoms: C_5  and  CA_7 
REMARK    5  A    between atoms: C_6  and  C_8 
REMARK    6  A    between atoms: CA_7  and  C_9 
ROOT
HETATM    1  O   UNL     1     -53.639  47.344   5.157  1.00  0.00    -0.646 OA
HETATM    2  OXT UNL     1     -54.347  46.324   7.054  1.00  0.00    -0.646 OA
HETATM    3  C   UNL     1     -53.595  47.113   6.497  1.00  0.00     0.204 C 
ENDROOT
BRANCH   3   4
HETATM    4  CA  UNL     1     -52.521  47.940   7.181  1.00  0.00     0.283 C 
BRANCH   4   5
HETATM    5  N   UNL     1     -52.151  49.035   6.284  1.00  0.00    -0.065 N 
HETATM    6  H   UNL     1     -51.650  49.751   6.810  1.00  0.00     0.275 HD
HETATM    7  H   UNL     1     -52.994  49.439   5.875  1.00  0.00     0.275 HD
HETATM    8  H   UNL     1     -51.551  48.676   5.541  1.00  0.00     0.275 HD
ENDBRANCH   4   5
BRANCH   4   9
HETATM    9  C   UNL     1     -52.961  48.435   8.568  1.00  0.00     0.045 C 
BRANCH   9  10
HETATM   10  C   UNL     1     -54.232  49.295   8.577  1.00  0.00     0.030 C 
BRANCH  10  11
HETATM   11  C   UNL     1     -53.950  50.682   9.157  1.00  0.00     0.230 C 
BRANCH  11  12
HETATM   12  N   UNL     1     -53.948  51.683   8.096  1.00  0.00    -0.079 N 
HETATM   13  H   UNL     1     -54.870  52.115   8.034  1.00  0.00     0.274 HD
HETATM   14  H   UNL     1     -53.722  51.237   7.208  1.00  0.00     0.274 HD
HETATM   15  H   UNL     1     -53.251  52.398   8.305  1.00  0.00     0.274 HD
ENDBRANCH  11  12
ENDBRANCH  10  11
ENDBRANCH   9  10
ENDBRANCH   4   9
ENDBRANCH   3   4
TORSDOF 6
ENDMDL
