MODEL 1
REMARK VINA RESULT:      -7.2      0.000      0.000
REMARK  6 active torsions:
REMARK  status: ('A' for Active; 'I' for Inactive)
REMARK    1  A    between atoms: N_3  and  CA_7 
REMARK    2  A    between atoms: N_4  and  C_8 
REMARK    3  A    between atoms: C_5  and  C_6 
REMARK    4  A    between atoms: C_5  and  CA_7 
REMARK    5  A    between atoms: C_6  and  C_8 
REMARK    6  A    between atoms: CA_7  and  C_9 
ROOT
HETATM    1  O   UNL     1     -53.897  51.247  10.549  1.00  0.00    -0.646 OA
HETATM    2  OXT UNL     1     -54.403  51.398   8.344  1.00  0.00    -0.646 OA
HETATM    3  C   UNL     1     -54.329  50.730   9.367  1.00  0.00     0.204 C 
ENDROOT
BRANCH   3   4
HETATM    4  CA  UNL     1     -54.695  49.262   9.488  1.00  0.00     0.283 C 
BRANCH   4   5
HETATM    5  N   UNL     1     -55.153  48.798   8.179  1.00  0.00    -0.065 N 
HETATM    6  H   UNL     1     -54.898  49.483   7.467  1.00  0.00     0.275 HD
HETATM    7  H   UNL     1     -56.166  48.684   8.194  1.00  0.00     0.275 HD
HETATM    8  H   UNL     1     -54.713  47.903   7.962  1.00  0.00     0.275 HD
ENDBRANCH   4   5
BRANCH   4   9
HETATM    9  C   UNL     1     -53.539  48.416  10.044  1.00  0.00     0.045 C 
BRANCH   9  10
HETATM   10  C   UNL     1     -53.105  47.244   9.153  1.00  0.00     0.030 C 
BRANCH  10  11
HETATM   11  C   UNL     1     -51.718  47.492   8.561  1.00  0.00     0.230 C 
BRANCH  11  12
HETATM   12  N   UNL     1     -51.802  48.433   7.449  1.00  0.00    -0.079 N 
HETATM   13  H   UNL     1     -51.652  49.381   7.794  1.00  0.00     0.274 HD
HETATM   14  H   UNL     1     -52.725  48.370   7.020  1.00  0.00     0.274 HD
HETATM   15  H   UNL     1     -51.088  48.206   6.757  1.00  0.00     0.274 HD
ENDBRANCH  11  12
ENDBRANCH  10  11
ENDBRANCH   9  10
ENDBRANCH   4   9
ENDBRANCH   3   4
TORSDOF 6
ENDMDL
MODEL 2
REMARK VINA RESULT:      -6.7      1.962      2.771
REMARK  6 active torsions:
REMARK  status: ('A' for Active; 'I' for Inactive)
REMARK    1  A    between atoms: N_3  and  CA_7 
REMARK    2  A    between atoms: N_4  and  C_8 
REMARK    3  A    between atoms: C_5  and  C_6 
REMARK    4  A    between atoms: C_5  and  CA_7 
REMARK    5  A    between atoms: C_6  and  C_8 
REMARK    6  A    between atoms: CA_7  and  C_9 
ROOT
HETATM    1  O   UNL     1     -54.426  51.538   8.486  1.00  0.00    -0.646 OA
HETATM    2  OXT UNL     1     -54.227  50.700  10.584  1.00  0.00    -0.646 OA
HETATM    3  C   UNL     1     -54.414  50.519   9.388  1.00  0.00     0.204 C 
ENDROOT
BRANCH   3   4
HETATM    4  CA  UNL     1     -54.656  49.174   8.727  1.00  0.00     0.283 C 
BRANCH   4   5
HETATM    5  N   UNL     1     -53.356  48.551   8.476  1.00  0.00    -0.065 N 
HETATM    6  H   UNL     1     -52.645  49.276   8.377  1.00  0.00     0.275 HD
HETATM    7  H   UNL     1     -53.403  48.001   7.618  1.00  0.00     0.275 HD
HETATM    8  H   UNL     1     -53.115  47.942   9.258  1.00  0.00     0.275 HD
ENDBRANCH   4   5
BRANCH   4   9
HETATM    9  C   UNL     1     -55.592  48.277   9.553  1.00  0.00     0.045 C 
BRANCH   9  10
HETATM   10  C   UNL     1     -56.251  47.133   8.771  1.00  0.00     0.030 C 
BRANCH  10  11
HETATM   11  C   UNL     1     -55.377  45.880   8.794  1.00  0.00     0.230 C 
BRANCH  11  12
HETATM   12  N   UNL     1     -55.494  45.156   7.533  1.00  0.00    -0.079 N 
HETATM   13  H   UNL     1     -54.898  45.594   6.832  1.00  0.00     0.274 HD
HETATM   14  H   UNL     1     -56.464  45.180   7.217  1.00  0.00     0.274 HD
HETATM   15  H   UNL     1     -55.204  44.187   7.669  1.00  0.00     0.274 HD
ENDBRANCH  11  12
ENDBRANCH  10  11
ENDBRANCH   9  10
ENDBRANCH   4   9
ENDBRANCH   3   4
TORSDOF 6
ENDMDL
MODEL 3
REMARK VINA RESULT:      -6.6      2.238      3.217
REMARK  6 active torsions:
REMARK  status: ('A' for Active; 'I' for Inactive)
REMARK    1  A    between atoms: N_3  and  CA_7 
REMARK    2  A    between atoms: N_4  and  C_8 
REMARK    3  A    between atoms: C_5  and  C_6 
REMARK    4  A    between atoms: C_5  and  CA_7 
REMARK    5  A    between atoms: C_6  and  C_8 
REMARK    6  A    between atoms: CA_7  and  C_9 
ROOT
HETATM    1  O   UNL     1     -53.976  51.301  10.622  1.00  0.00    -0.646 OA
HETATM    2  OXT UNL     1     -54.335  51.486   8.391  1.00  0.00    -0.646 OA
HETATM    3  C   UNL     1     -54.192  50.783   9.382  1.00  0.00     0.204 C 
ENDROOT
BRANCH   3   4
HETATM    4  CA  UNL     1     -54.228  49.265   9.400  1.00  0.00     0.283 C 
BRANCH   4   5
HETATM    5  N   UNL     1     -53.493  48.808  10.579  1.00  0.00    -0.065 N 
HETATM    6  H   UNL     1     -52.493  48.947  10.432  1.00  0.00     0.275 HD
HETATM    7  H   UNL     1     -53.679  47.817  10.733  1.00  0.00     0.275 HD
HETATM    8  H   UNL     1     -53.794  49.341  11.396  1.00  0.00     0.275 HD
ENDBRANCH   4   5
BRANCH   4   9
HETATM    9  C   UNL     1     -55.661  48.715   9.346  1.00  0.00     0.045 C 
BRANCH   9  10
HETATM   10  C   UNL     1     -55.786  47.280   8.816  1.00  0.00     0.030 C 
BRANCH  10  11
HETATM   11  C   UNL     1     -57.228  46.783   8.916  1.00  0.00     0.230 C 
BRANCH  11  12
HETATM   12  N   UNL     1     -57.298  45.362   8.596  1.00  0.00    -0.079 N 
HETATM   13  H   UNL     1     -57.629  44.845   9.410  1.00  0.00     0.274 HD
HETATM   14  H   UNL     1     -56.370  45.026   8.335  1.00  0.00     0.274 HD
HETATM   15  H   UNL     1     -57.942  45.220   7.818  1.00  0.00     0.274 HD
ENDBRANCH  11  12
ENDBRANCH  10  11
ENDBRANCH   9  10
ENDBRANCH   4   9
ENDBRANCH   3   4
TORSDOF 6
ENDMDL
MODEL 4
REMARK VINA RESULT:      -6.5      1.173      1.206
REMARK  6 active torsions:
REMARK  status: ('A' for Active; 'I' for Inactive)
REMARK    1  A    between atoms: N_3  and  CA_7 
REMARK    2  A    between atoms: N_4  and  C_8 
REMARK    3  A    between atoms: C_5  and  C_6 
REMARK    4  A    between atoms: C_5  and  CA_7 
REMARK    5  A    between atoms: C_6  and  C_8 
REMARK    6  A    between atoms: CA_7  and  C_9 
ROOT
HETATM    1  O   UNL     1     -53.937  51.266  10.573  1.00  0.00    -0.646 OA
HETATM    2  OXT UNL     1     -54.469  51.397   8.372  1.00  0.00    -0.646 OA
HETATM    3  C   UNL     1     -54.330  50.727   9.387  1.00  0.00     0.204 C 
ENDROOT
BRANCH   3   4
HETATM    4  CA  UNL     1     -54.564  49.231   9.494  1.00  0.00     0.283 C 
BRANCH   4   5
HETATM    5  N   UNL     1     -55.067  48.757   8.204  1.00  0.00    -0.065 N 
HETATM    6  H   UNL     1     -56.033  48.444   8.310  1.00  0.00     0.275 HD
HETATM    7  H   UNL     1     -54.492  47.980   7.879  1.00  0.00     0.275 HD
HETATM    8  H   UNL     1     -55.028  49.517   7.525  1.00  0.00     0.275 HD
ENDBRANCH   4   5
BRANCH   4   9
HETATM    9  C   UNL     1     -53.308  48.474   9.952  1.00  0.00     0.045 C 
BRANCH   9  10
HETATM   10  C   UNL     1     -52.465  47.870   8.821  1.00  0.00     0.030 C 
BRANCH  10  11
HETATM   11  C   UNL     1     -52.396  46.348   8.944  1.00  0.00     0.230 C 
BRANCH  11  12
HETATM   12  N   UNL     1     -53.369  45.723   8.055  1.00  0.00    -0.079 N 
HETATM   13  H   UNL     1     -53.425  44.725   8.258  1.00  0.00     0.274 HD
HETATM   14  H   UNL     1     -53.079  45.856   7.086  1.00  0.00     0.274 HD
HETATM   15  H   UNL     1     -54.284  46.150   8.198  1.00  0.00     0.274 HD
ENDBRANCH  11  12
ENDBRANCH  10  11
ENDBRANCH   9  10
ENDBRANCH   4   9
ENDBRANCH   3   4
TORSDOF 6
ENDMDL
MODEL 5
REMARK VINA RESULT:      -6.5      1.888      2.007
REMARK  6 active torsions:
REMARK  status: ('A' for Active; 'I' for Inactive)
REMARK    1  A    between atoms: N_3  and  CA_7 
REMARK    2  A    between atoms: N_4  and  C_8 
REMARK    3  A    between atoms: C_5  and  C_6 
REMARK    4  A    between atoms: C_5  and  CA_7 
REMARK    5  A    between atoms: C_6  and  C_8 
REMARK    6  A    between atoms: CA_7  and  C_9 
ROOT
HETATM    1  O   UNL     1     -53.850  51.228  10.483  1.00  0.00    -0.646 OA
HETATM    2  OXT UNL     1     -54.503  51.513   8.331  1.00  0.00    -0.646 OA
HETATM    3  C   UNL     1     -54.452  50.815   9.335  1.00  0.00     0.204 C 
ENDROOT
BRANCH   3   4
HETATM    4  CA  UNL     1     -55.032  49.418   9.469  1.00  0.00     0.283 C 
BRANCH   4   5
HETATM    5  N   UNL     1     -54.992  48.783   8.151  1.00  0.00    -0.065 N 
HETATM    6  H   UNL     1     -55.366  49.425   7.452  1.00  0.00     0.275 HD
HETATM    7  H   UNL     1     -55.555  47.932   8.167  1.00  0.00     0.275 HD
HETATM    8  H   UNL     1     -54.027  48.548   7.917  1.00  0.00     0.275 HD
ENDBRANCH   4   5
BRANCH   4   9
HETATM    9  C   UNL     1     -54.317  48.590  10.547  1.00  0.00     0.045 C 
BRANCH   9  10
HETATM   10  C   UNL     1     -53.082  47.819  10.061  1.00  0.00     0.030 C 
BRANCH  10  11
HETATM   11  C   UNL     1     -52.640  46.785  11.097  1.00  0.00     0.230 C 
BRANCH  11  12
HETATM   12  N   UNL     1     -52.521  47.405  12.412  1.00  0.00    -0.079 N 
HETATM   13  H   UNL     1     -52.297  46.692  13.105  1.00  0.00     0.274 HD
HETATM   14  H   UNL     1     -53.405  47.852  12.658  1.00  0.00     0.274 HD
HETATM   15  H   UNL     1     -51.780  48.105  12.392  1.00  0.00     0.274 HD
ENDBRANCH  11  12
ENDBRANCH  10  11
ENDBRANCH   9  10
ENDBRANCH   4   9
ENDBRANCH   3   4
TORSDOF 6
ENDMDL
MODEL 6
REMARK VINA RESULT:      -6.3      3.549      4.434
REMARK  6 active torsions:
REMARK  status: ('A' for Active; 'I' for Inactive)
REMARK    1  A    between atoms: N_3  and  CA_7 
REMARK    2  A    between atoms: N_4  and  C_8 
REMARK    3  A    between atoms: C_5  and  C_6 
REMARK    4  A    between atoms: C_5  and  CA_7 
REMARK    5  A    between atoms: C_6  and  C_8 
REMARK    6  A    between atoms: CA_7  and  C_9 
ROOT
HETATM    1  O   UNL     1     -55.120  45.209   7.239  1.00  0.00    -0.646 OA
HETATM    2  OXT UNL     1     -56.805  45.490   8.730  1.00  0.00    -0.646 OA
HETATM    3  C   UNL     1     -55.664  45.744   8.365  1.00  0.00     0.204 C 
ENDROOT
BRANCH   3   4
HETATM    4  CA  UNL     1     -54.694  46.666   9.082  1.00  0.00     0.283 C 
BRANCH   4   5
HETATM    5  N   UNL     1     -53.365  46.463   8.506  1.00  0.00    -0.065 N 
HETATM    6  H   UNL     1     -52.860  47.350   8.495  1.00  0.00     0.275 HD
HETATM    7  H   UNL     1     -53.458  46.113   7.552  1.00  0.00     0.275 HD
HETATM    8  H   UNL     1     -52.851  45.785   9.068  1.00  0.00     0.275 HD
ENDBRANCH   4   5
BRANCH   4   9
HETATM    9  C   UNL     1     -55.142  48.135   9.034  1.00  0.00     0.045 C 
BRANCH   9  10
HETATM   10  C   UNL     1     -54.026  49.161   9.276  1.00  0.00     0.030 C 
BRANCH  10  11
HETATM   11  C   UNL     1     -54.610  50.539   9.589  1.00  0.00     0.230 C 
BRANCH  11  12
HETATM   12  N   UNL     1     -54.462  51.425   8.440  1.00  0.00    -0.079 N 
HETATM   13  H   UNL     1     -55.305  51.385   7.868  1.00  0.00     0.274 HD
HETATM   14  H   UNL     1     -53.660  51.129   7.883  1.00  0.00     0.274 HD
HETATM   15  H   UNL     1     -54.316  52.381   8.764  1.00  0.00     0.274 HD
ENDBRANCH  11  12
ENDBRANCH  10  11
ENDBRANCH   9  10
ENDBRANCH   4   9
ENDBRANCH   3   4
TORSDOF 6
ENDMDL
MODEL 7
REMARK VINA RESULT:      -6.1      2.710      3.818
REMARK  6 active torsions:
REMARK  status: ('A' for Active; 'I' for Inactive)
REMARK    1  A    between atoms: N_3  and  CA_7 
REMARK    2  A    between atoms: N_4  and  C_8 
REMARK    3  A    between atoms: C_5  and  C_6 
REMARK    4  A    between atoms: C_5  and  CA_7 
REMARK    5  A    between atoms: C_6  and  C_8 
REMARK    6  A    between atoms: CA_7  and  C_9 
ROOT
HETATM    1  O   UNL     1     -52.241  48.445   7.730  1.00  0.00    -0.646 OA
HETATM    2  OXT UNL     1     -51.163  46.927   9.024  1.00  0.00    -0.646 OA
HETATM    3  C   UNL     1     -52.153  47.612   8.802  1.00  0.00     0.204 C 
ENDROOT
BRANCH   3   4
HETATM    4  CA  UNL     1     -53.408  47.650   9.655  1.00  0.00     0.283 C 
BRANCH   4   5
HETATM    5  N   UNL     1     -53.014  47.956  11.030  1.00  0.00    -0.065 N 
HETATM    6  H   UNL     1     -52.341  47.260  11.354  1.00  0.00     0.275 HD
HETATM    7  H   UNL     1     -53.837  47.940  11.632  1.00  0.00     0.275 HD
HETATM    8  H   UNL     1     -52.587  48.883  11.063  1.00  0.00     0.275 HD
ENDBRANCH   4   5
BRANCH   4   9
HETATM    9  C   UNL     1     -54.457  48.631   9.108  1.00  0.00     0.045 C 
BRANCH   9  10
HETATM   10  C   UNL     1     -54.777  49.817  10.028  1.00  0.00     0.030 C 
BRANCH  10  11
HETATM   11  C   UNL     1     -54.004  51.065   9.600  1.00  0.00     0.230 C 
BRANCH  11  12
HETATM   12  N   UNL     1     -54.536  51.586   8.346  1.00  0.00    -0.079 N 
HETATM   13  H   UNL     1     -53.795  51.609   7.646  1.00  0.00     0.274 HD
HETATM   14  H   UNL     1     -54.892  52.530   8.494  1.00  0.00     0.274 HD
HETATM   15  H   UNL     1     -55.292  50.984   8.021  1.00  0.00     0.274 HD
ENDBRANCH  11  12
ENDBRANCH  10  11
ENDBRANCH   9  10
ENDBRANCH   4   9
ENDBRANCH   3   4
TORSDOF 6
ENDMDL
MODEL 8
REMARK VINA RESULT:      -6.0      3.668      4.183
REMARK  6 active torsions:
REMARK  status: ('A' for Active; 'I' for Inactive)
REMARK    1  A    between atoms: N_3  and  CA_7 
REMARK    2  A    between atoms: N_4  and  C_8 
REMARK    3  A    between atoms: C_5  and  C_6 
REMARK    4  A    between atoms: C_5  and  CA_7 
REMARK    5  A    between atoms: C_6  and  C_8 
REMARK    6  A    between atoms: CA_7  and  C_9 
ROOT
HETATM    1  O   UNL     1     -54.861  44.616   9.669  1.00  0.00    -0.646 OA
HETATM    2  OXT UNL     1     -53.671  45.523   7.966  1.00  0.00    -0.646 OA
HETATM    3  C   UNL     1     -54.712  45.450   8.605  1.00  0.00     0.204 C 
ENDROOT
BRANCH   3   4
HETATM    4  CA  UNL     1     -55.973  46.250   8.330  1.00  0.00     0.283 C 
BRANCH   4   5
HETATM    5  N   UNL     1     -57.123  45.433   8.718  1.00  0.00    -0.065 N 
HETATM    6  H   UNL     1     -57.869  45.549   8.032  1.00  0.00     0.275 HD
HETATM    7  H   UNL     1     -57.455  45.728   9.636  1.00  0.00     0.275 HD
HETATM    8  H   UNL     1     -56.845  44.452   8.756  1.00  0.00     0.275 HD
ENDBRANCH   4   5
BRANCH   4   9
HETATM    9  C   UNL     1     -55.959  47.620   9.026  1.00  0.00     0.045 C 
BRANCH   9  10
HETATM   10  C   UNL     1     -54.690  47.924   9.834  1.00  0.00     0.030 C 
BRANCH  10  11
HETATM   11  C   UNL     1     -53.893  49.061   9.193  1.00  0.00     0.230 C 
BRANCH  11  12
HETATM   12  N   UNL     1     -52.878  48.525   8.294  1.00  0.00    -0.079 N 
HETATM   13  H   UNL     1     -53.219  48.562   7.334  1.00  0.00     0.274 HD
HETATM   14  H   UNL     1     -52.678  47.556   8.546  1.00  0.00     0.274 HD
HETATM   15  H   UNL     1     -52.026  49.079   8.373  1.00  0.00     0.274 HD
ENDBRANCH  11  12
ENDBRANCH  10  11
ENDBRANCH   9  10
ENDBRANCH   4   9
ENDBRANCH   3   4
TORSDOF 6
ENDMDL
MODEL 9
REMARK VINA RESULT:      -6.0      3.133      4.290
REMARK  6 active torsions:
REMARK  status: ('A' for Active; 'I' for Inactive)
REMARK    1  A    between atoms: N_3  and  CA_7 
REMARK    2  A    between atoms: N_4  and  C_8 
REMARK    3  A    between atoms: C_5  and  C_6 
REMARK    4  A    between atoms: C_5  and  CA_7 
REMARK    5  A    between atoms: C_6  and  C_8 
REMARK    6  A    between atoms: CA_7  and  C_9 
ROOT
HETATM    1  O   UNL     1     -51.161  45.705   9.159  1.00  0.00    -0.646 OA
HETATM    2  OXT UNL     1     -53.009  45.600   7.850  1.00  0.00    -0.646 OA
HETATM    3  C   UNL     1     -52.222  46.261   8.514  1.00  0.00     0.204 C 
ENDROOT
BRANCH   3   4
HETATM    4  CA  UNL     1     -52.291  47.763   8.725  1.00  0.00     0.283 C 
BRANCH   4   5
HETATM    5  N   UNL     1     -51.811  48.415   7.507  1.00  0.00    -0.065 N 
HETATM    6  H   UNL     1     -50.791  48.392   7.488  1.00  0.00     0.275 HD
HETATM    7  H   UNL     1     -52.131  49.383   7.491  1.00  0.00     0.275 HD
HETATM    8  H   UNL     1     -52.178  47.923   6.691  1.00  0.00     0.275 HD
ENDBRANCH   4   5
BRANCH   4   9
HETATM    9  C   UNL     1     -53.697  48.231   9.132  1.00  0.00     0.045 C 
BRANCH   9  10
HETATM   10  C   UNL     1     -53.751  49.607   9.812  1.00  0.00     0.030 C 
BRANCH  10  11
HETATM   11  C   UNL     1     -54.937  50.424   9.298  1.00  0.00     0.230 C 
BRANCH  11  12
HETATM   12  N   UNL     1     -54.475  51.482   8.407  1.00  0.00    -0.079 N 
HETATM   13  H   UNL     1     -55.019  51.462   7.545  1.00  0.00     0.274 HD
HETATM   14  H   UNL     1     -53.489  51.337   8.190  1.00  0.00     0.274 HD
HETATM   15  H   UNL     1     -54.594  52.387   8.863  1.00  0.00     0.274 HD
ENDBRANCH  11  12
ENDBRANCH  10  11
ENDBRANCH   9  10
ENDBRANCH   4   9
ENDBRANCH   3   4
TORSDOF 6
ENDMDL
