MODEL 1
REMARK VINA RESULT:     -12.1      0.000      0.000
REMARK  6 active torsions:
REMARK  status: ('A' for Active; 'I' for Inactive)
REMARK    1  A    between atoms: N_3  and  CA_7 
REMARK    2  A    between atoms: N_4  and  C_8 
REMARK    3  A    between atoms: C_5  and  C_6 
REMARK    4  A    between atoms: C_5  and  CA_7 
REMARK    5  A    between atoms: C_6  and  C_8 
REMARK    6  A    between atoms: CA_7  and  C_9 
ROOT
HETATM    1  O   UNL     1     -52.948  48.618  13.600  1.00  0.00    -0.646 OA
HETATM    2  OXT UNL     1     -52.980  50.461  14.921  1.00  0.00    -0.646 OA
HETATM    3  C   UNL     1     -53.253  49.918  13.858  1.00  0.00     0.204 C 
ENDROOT
BRANCH   3   4
HETATM    4  CA  UNL     1     -53.957  50.580  12.686  1.00  0.00     0.283 C 
BRANCH   4   5
HETATM    5  N   UNL     1     -53.599  51.998  12.684  1.00  0.00    -0.065 N 
HETATM    6  H   UNL     1     -53.559  52.337  11.723  1.00  0.00     0.275 HD
HETATM    7  H   UNL     1     -52.688  52.120  13.126  1.00  0.00     0.275 HD
HETATM    8  H   UNL     1     -54.301  52.526  13.203  1.00  0.00     0.275 HD
ENDBRANCH   4   5
BRANCH   4   9
HETATM    9  C   UNL     1     -53.642  49.888  11.351  1.00  0.00     0.045 C 
BRANCH   9  10
HETATM   10  C   UNL     1     -54.501  50.347  10.165  1.00  0.00     0.030 C 
BRANCH  10  11
HETATM   11  C   UNL     1     -53.665  50.444   8.889  1.00  0.00     0.230 C 
BRANCH  11  12
HETATM   12  N   UNL     1     -53.979  51.673   8.169  1.00  0.00    -0.079 N 
HETATM   13  H   UNL     1     -54.069  51.470   7.173  1.00  0.00     0.274 HD
HETATM   14  H   UNL     1     -53.230  52.351   8.311  1.00  0.00     0.274 HD
HETATM   15  H   UNL     1     -54.857  52.057   8.518  1.00  0.00     0.274 HD
ENDBRANCH  11  12
ENDBRANCH  10  11
ENDBRANCH   9  10
ENDBRANCH   4   9
ENDBRANCH   3   4
TORSDOF 6
ENDMDL
MODEL 2
REMARK VINA RESULT:     -11.8      1.720      1.912
REMARK  6 active torsions:
REMARK  status: ('A' for Active; 'I' for Inactive)
REMARK    1  A    between atoms: N_3  and  CA_7 
REMARK    2  A    between atoms: N_4  and  C_8 
REMARK    3  A    between atoms: C_5  and  C_6 
REMARK    4  A    between atoms: C_5  and  CA_7 
REMARK    5  A    between atoms: C_6  and  C_8 
REMARK    6  A    between atoms: CA_7  and  C_9 
ROOT
HETATM    1  O   UNL     1     -53.699  51.783  12.936  1.00  0.00    -0.646 OA
HETATM    2  OXT UNL     1     -54.117  50.081  14.374  1.00  0.00    -0.646 OA
HETATM    3  C   UNL     1     -53.754  50.465  13.271  1.00  0.00     0.204 C 
ENDROOT
BRANCH   3   4
HETATM    4  CA  UNL     1     -53.316  49.570  12.125  1.00  0.00     0.283 C 
BRANCH   4   5
HETATM    5  N   UNL     1     -52.978  48.258  12.678  1.00  0.00    -0.065 N 
HETATM    6  H   UNL     1     -53.021  48.297  13.697  1.00  0.00     0.275 HD
HETATM    7  H   UNL     1     -52.035  47.999  12.387  1.00  0.00     0.275 HD
HETATM    8  H   UNL     1     -53.642  47.564  12.336  1.00  0.00     0.275 HD
ENDBRANCH   4   5
BRANCH   4   9
HETATM    9  C   UNL     1     -54.371  49.488  11.011  1.00  0.00     0.045 C 
BRANCH   9  10
HETATM   10  C   UNL     1     -53.870  49.876   9.613  1.00  0.00     0.030 C 
BRANCH  10  11
HETATM   11  C   UNL     1     -54.020  51.379   9.377  1.00  0.00     0.230 C 
BRANCH  11  12
HETATM   12  N   UNL     1     -53.606  51.722   8.021  1.00  0.00    -0.079 N 
HETATM   13  H   UNL     1     -54.411  52.060   7.495  1.00  0.00     0.274 HD
HETATM   14  H   UNL     1     -53.224  50.895   7.562  1.00  0.00     0.274 HD
HETATM   15  H   UNL     1     -52.893  52.451   8.057  1.00  0.00     0.274 HD
ENDBRANCH  11  12
ENDBRANCH  10  11
ENDBRANCH   9  10
ENDBRANCH   4   9
ENDBRANCH   3   4
TORSDOF 6
ENDMDL
MODEL 3
REMARK VINA RESULT:     -11.2      2.928      4.529
REMARK  6 active torsions:
REMARK  status: ('A' for Active; 'I' for Inactive)
REMARK    1  A    between atoms: N_3  and  CA_7 
REMARK    2  A    between atoms: N_4  and  C_8 
REMARK    3  A    between atoms: C_5  and  C_6 
REMARK    4  A    between atoms: C_5  and  CA_7 
REMARK    5  A    between atoms: C_6  and  C_8 
REMARK    6  A    between atoms: CA_7  and  C_9 
ROOT
HETATM    1  O   UNL     1     -54.718  48.492   8.603  1.00  0.00    -0.646 OA
HETATM    2  OXT UNL     1     -52.659  48.840   7.719  1.00  0.00    -0.646 OA
HETATM    3  C   UNL     1     -53.573  49.210   8.444  1.00  0.00     0.204 C 
ENDROOT
BRANCH   3   4
HETATM    4  CA  UNL     1     -53.587  50.489   9.262  1.00  0.00     0.283 C 
BRANCH   4   5
HETATM    5  N   UNL     1     -54.104  51.564   8.415  1.00  0.00    -0.065 N 
HETATM    6  H   UNL     1     -53.811  52.466   8.793  1.00  0.00     0.275 HD
HETATM    7  H   UNL     1     -55.122  51.519   8.393  1.00  0.00     0.275 HD
HETATM    8  H   UNL     1     -53.737  51.457   7.469  1.00  0.00     0.275 HD
ENDBRANCH   4   5
BRANCH   4   9
HETATM    9  C   UNL     1     -54.376  50.336  10.572  1.00  0.00     0.045 C 
BRANCH   9  10
HETATM   10  C   UNL     1     -53.590  49.713  11.734  1.00  0.00     0.030 C 
BRANCH  10  11
HETATM   11  C   UNL     1     -53.650  50.605  12.974  1.00  0.00     0.230 C 
BRANCH  11  12
HETATM   12  N   UNL     1     -53.749  52.007  12.586  1.00  0.00    -0.079 N 
HETATM   13  H   UNL     1     -53.840  52.074  11.573  1.00  0.00     0.274 HD
HETATM   14  H   UNL     1     -52.909  52.502  12.886  1.00  0.00     0.274 HD
HETATM   15  H   UNL     1     -54.567  52.426  13.029  1.00  0.00     0.274 HD
ENDBRANCH  11  12
ENDBRANCH  10  11
ENDBRANCH   9  10
ENDBRANCH   4   9
ENDBRANCH   3   4
TORSDOF 6
ENDMDL
MODEL 4
REMARK VINA RESULT:     -11.0      3.194      5.000
REMARK  6 active torsions:
REMARK  status: ('A' for Active; 'I' for Inactive)
REMARK    1  A    between atoms: N_3  and  CA_7 
REMARK    2  A    between atoms: N_4  and  C_8 
REMARK    3  A    between atoms: C_5  and  C_6 
REMARK    4  A    between atoms: C_5  and  CA_7 
REMARK    5  A    between atoms: C_6  and  C_8 
REMARK    6  A    between atoms: CA_7  and  C_9 
ROOT
HETATM    1  O   UNL     1     -55.458  47.583   8.742  1.00  0.00    -0.646 OA
HETATM    2  OXT UNL     1     -54.155  47.651   6.887  1.00  0.00    -0.646 OA
HETATM    3  C   UNL     1     -54.419  48.066   8.008  1.00  0.00     0.204 C 
ENDROOT
BRANCH   3   4
HETATM    4  CA  UNL     1     -53.658  49.153   8.747  1.00  0.00     0.283 C 
BRANCH   4   5
HETATM    5  N   UNL     1     -54.107  50.448   8.236  1.00  0.00    -0.065 N 
HETATM    6  H   UNL     1     -54.662  50.307   7.391  1.00  0.00     0.275 HD
HETATM    7  H   UNL     1     -53.296  51.026   8.017  1.00  0.00     0.275 HD
HETATM    8  H   UNL     1     -54.676  50.914   8.943  1.00  0.00     0.275 HD
ENDBRANCH   4   5
BRANCH   4   9
HETATM    9  C   UNL     1     -53.806  49.035  10.272  1.00  0.00     0.045 C 
BRANCH   9  10
HETATM   10  C   UNL     1     -53.932  50.372  11.016  1.00  0.00     0.030 C 
BRANCH  10  11
HETATM   11  C   UNL     1     -53.557  50.214  12.490  1.00  0.00     0.230 C 
BRANCH  11  12
HETATM   12  N   UNL     1     -53.589  51.507  13.163  1.00  0.00    -0.079 N 
HETATM   13  H   UNL     1     -53.480  52.252  12.474  1.00  0.00     0.274 HD
HETATM   14  H   UNL     1     -52.828  51.557  13.840  1.00  0.00     0.274 HD
HETATM   15  H   UNL     1     -54.481  51.618  13.645  1.00  0.00     0.274 HD
ENDBRANCH  11  12
ENDBRANCH  10  11
ENDBRANCH   9  10
ENDBRANCH   4   9
ENDBRANCH   3   4
TORSDOF 6
ENDMDL
MODEL 5
REMARK VINA RESULT:     -10.9      1.984      2.198
REMARK  6 active torsions:
REMARK  status: ('A' for Active; 'I' for Inactive)
REMARK    1  A    between atoms: N_3  and  CA_7 
REMARK    2  A    between atoms: N_4  and  C_8 
REMARK    3  A    between atoms: C_5  and  C_6 
REMARK    4  A    between atoms: C_5  and  CA_7 
REMARK    5  A    between atoms: C_6  and  C_8 
REMARK    6  A    between atoms: CA_7  and  C_9 
ROOT
HETATM    1  O   UNL     1     -53.714  51.957  12.806  1.00  0.00    -0.646 OA
HETATM    2  OXT UNL     1     -54.047  50.213  14.216  1.00  0.00    -0.646 OA
HETATM    3  C   UNL     1     -53.752  50.630  13.104  1.00  0.00     0.204 C 
ENDROOT
BRANCH   3   4
HETATM    4  CA  UNL     1     -53.389  49.769  11.907  1.00  0.00     0.283 C 
BRANCH   4   5
HETATM    5  N   UNL     1     -53.108  48.417  12.390  1.00  0.00    -0.065 N 
HETATM    6  H   UNL     1     -52.760  48.463  13.348  1.00  0.00     0.275 HD
HETATM    7  H   UNL     1     -52.404  47.982  11.793  1.00  0.00     0.275 HD
HETATM    8  H   UNL     1     -53.964  47.862  12.365  1.00  0.00     0.275 HD
ENDBRANCH   4   5
BRANCH   4   9
HETATM    9  C   UNL     1     -54.473  49.795  10.819  1.00  0.00     0.045 C 
BRANCH   9  10
HETATM   10  C   UNL     1     -53.989  50.238   9.431  1.00  0.00     0.030 C 
BRANCH  10  11
HETATM   11  C   UNL     1     -53.434  49.052   8.642  1.00  0.00     0.230 C 
BRANCH  11  12
HETATM   12  N   UNL     1     -54.359  48.672   7.580  1.00  0.00    -0.079 N 
HETATM   13  H   UNL     1     -55.001  47.960   7.926  1.00  0.00     0.274 HD
HETATM   14  H   UNL     1     -53.833  48.300   6.789  1.00  0.00     0.274 HD
HETATM   15  H   UNL     1     -54.888  49.491   7.281  1.00  0.00     0.274 HD
ENDBRANCH  11  12
ENDBRANCH  10  11
ENDBRANCH   9  10
ENDBRANCH   4   9
ENDBRANCH   3   4
TORSDOF 6
ENDMDL
MODEL 6
REMARK VINA RESULT:     -10.8      3.272      4.666
REMARK  6 active torsions:
REMARK  status: ('A' for Active; 'I' for Inactive)
REMARK    1  A    between atoms: N_3  and  CA_7 
REMARK    2  A    between atoms: N_4  and  C_8 
REMARK    3  A    between atoms: C_5  and  C_6 
REMARK    4  A    between atoms: C_5  and  CA_7 
REMARK    5  A    between atoms: C_6  and  C_8 
REMARK    6  A    between atoms: CA_7  and  C_9 
ROOT
HETATM    1  O   UNL     1     -53.256  49.667   8.253  1.00  0.00    -0.646 OA
HETATM    2  OXT UNL     1     -54.168  51.641   8.895  1.00  0.00    -0.646 OA
HETATM    3  C   UNL     1     -54.021  50.439   9.072  1.00  0.00     0.204 C 
ENDROOT
BRANCH   3   4
HETATM    4  CA  UNL     1     -54.644  49.630  10.195  1.00  0.00     0.283 C 
BRANCH   4   5
HETATM    5  N   UNL     1     -55.066  48.342   9.647  1.00  0.00    -0.065 N 
HETATM    6  H   UNL     1     -54.665  48.220   8.717  1.00  0.00     0.275 HD
HETATM    7  H   UNL     1     -56.084  48.316   9.584  1.00  0.00     0.275 HD
HETATM    8  H   UNL     1     -54.744  47.590  10.258  1.00  0.00     0.275 HD
ENDBRANCH   4   5
BRANCH   4   9
HETATM    9  C   UNL     1     -53.700  49.480  11.399  1.00  0.00     0.045 C 
BRANCH   9  10
HETATM   10  C   UNL     1     -53.692  50.670  12.369  1.00  0.00     0.030 C 
BRANCH  10  11
HETATM   11  C   UNL     1     -53.404  50.208  13.798  1.00  0.00     0.230 C 
BRANCH  11  12
HETATM   12  N   UNL     1     -53.010  48.804  13.806  1.00  0.00    -0.079 N 
HETATM   13  H   UNL     1     -52.639  48.548  12.891  1.00  0.00     0.274 HD
HETATM   14  H   UNL     1     -53.822  48.224  14.017  1.00  0.00     0.274 HD
HETATM   15  H   UNL     1     -52.293  48.656  14.517  1.00  0.00     0.274 HD
ENDBRANCH  11  12
ENDBRANCH  10  11
ENDBRANCH   9  10
ENDBRANCH   4   9
ENDBRANCH   3   4
TORSDOF 6
ENDMDL
MODEL 7
REMARK VINA RESULT:     -10.5     11.496     12.120
REMARK  6 active torsions:
REMARK  status: ('A' for Active; 'I' for Inactive)
REMARK    1  A    between atoms: N_3  and  CA_7 
REMARK    2  A    between atoms: N_4  and  C_8 
REMARK    3  A    between atoms: C_5  and  C_6 
REMARK    4  A    between atoms: C_5  and  CA_7 
REMARK    5  A    between atoms: C_6  and  C_8 
REMARK    6  A    between atoms: CA_7  and  C_9 
ROOT
HETATM    1  O   UNL     1     -52.382  41.143   7.007  1.00  0.00    -0.646 OA
HETATM    2  OXT UNL     1     -51.753  39.866   8.772  1.00  0.00    -0.646 OA
HETATM    3  C   UNL     1     -51.488  40.728   7.945  1.00  0.00     0.204 C 
ENDROOT
BRANCH   3   4
HETATM    4  CA  UNL     1     -50.162  41.459   7.827  1.00  0.00     0.283 C 
BRANCH   4   5
HETATM    5  N   UNL     1     -49.595  41.588   9.170  1.00  0.00    -0.065 N 
HETATM    6  H   UNL     1     -49.440  40.660   9.565  1.00  0.00     0.275 HD
HETATM    7  H   UNL     1     -50.242  42.107   9.763  1.00  0.00     0.275 HD
HETATM    8  H   UNL     1     -48.707  42.088   9.116  1.00  0.00     0.275 HD
ENDBRANCH   4   5
BRANCH   4   9
HETATM    9  C   UNL     1     -49.202  40.772   6.843  1.00  0.00     0.045 C 
BRANCH   9  10
HETATM   10  C   UNL     1     -48.920  39.292   7.138  1.00  0.00     0.030 C 
BRANCH  10  11
HETATM   11  C   UNL     1     -48.687  38.512   5.844  1.00  0.00     0.230 C 
BRANCH  11  12
HETATM   12  N   UNL     1     -47.258  38.390   5.577  1.00  0.00    -0.079 N 
HETATM   13  H   UNL     1     -47.078  38.578   4.591  1.00  0.00     0.274 HD
HETATM   14  H   UNL     1     -46.950  37.444   5.804  1.00  0.00     0.274 HD
HETATM   15  H   UNL     1     -46.746  39.061   6.150  1.00  0.00     0.274 HD
ENDBRANCH  11  12
ENDBRANCH  10  11
ENDBRANCH   9  10
ENDBRANCH   4   9
ENDBRANCH   3   4
TORSDOF 6
ENDMDL
MODEL 8
REMARK VINA RESULT:     -10.5      3.022      4.995
REMARK  6 active torsions:
REMARK  status: ('A' for Active; 'I' for Inactive)
REMARK    1  A    between atoms: N_3  and  CA_7 
REMARK    2  A    between atoms: N_4  and  C_8 
REMARK    3  A    between atoms: C_5  and  C_6 
REMARK    4  A    between atoms: C_5  and  CA_7 
REMARK    5  A    between atoms: C_6  and  C_8 
REMARK    6  A    between atoms: CA_7  and  C_9 
ROOT
HETATM    1  O   UNL     1     -53.669  50.869  10.978  1.00  0.00    -0.646 OA
HETATM    2  OXT UNL     1     -53.623  51.964  12.962  1.00  0.00    -0.646 OA
HETATM    3  C   UNL     1     -53.666  50.913  12.337  1.00  0.00     0.204 C 
ENDROOT
BRANCH   3   4
HETATM    4  CA  UNL     1     -53.721  49.525  12.951  1.00  0.00     0.283 C 
BRANCH   4   5
HETATM    5  N   UNL     1     -53.195  48.574  11.971  1.00  0.00    -0.065 N 
HETATM    6  H   UNL     1     -53.163  49.016  11.051  1.00  0.00     0.275 HD
HETATM    7  H   UNL     1     -53.800  47.754  11.934  1.00  0.00     0.275 HD
HETATM    8  H   UNL     1     -52.254  48.291  12.244  1.00  0.00     0.275 HD
ENDBRANCH   4   5
BRANCH   4   9
HETATM    9  C   UNL     1     -52.986  49.452  14.298  1.00  0.00     0.045 C 
BRANCH   9  10
HETATM   10  C   UNL     1     -52.335  48.098  14.610  1.00  0.00     0.030 C 
BRANCH  10  11
HETATM   11  C   UNL     1     -52.100  47.937  16.112  1.00  0.00     0.230 C 
BRANCH  11  12
HETATM   12  N   UNL     1     -50.853  48.587  16.502  1.00  0.00    -0.079 N 
HETATM   13  H   UNL     1     -50.653  49.353  15.860  1.00  0.00     0.274 HD
HETATM   14  H   UNL     1     -50.092  47.908  16.469  1.00  0.00     0.274 HD
HETATM   15  H   UNL     1     -50.942  48.952  17.450  1.00  0.00     0.274 HD
ENDBRANCH  11  12
ENDBRANCH  10  11
ENDBRANCH   9  10
ENDBRANCH   4   9
ENDBRANCH   3   4
TORSDOF 6
ENDMDL
MODEL 9
REMARK VINA RESULT:     -10.3      4.026      5.004
REMARK  6 active torsions:
REMARK  status: ('A' for Active; 'I' for Inactive)
REMARK    1  A    between atoms: N_3  and  CA_7 
REMARK    2  A    between atoms: N_4  and  C_8 
REMARK    3  A    between atoms: C_5  and  C_6 
REMARK    4  A    between atoms: C_5  and  CA_7 
REMARK    5  A    between atoms: C_6  and  C_8 
REMARK    6  A    between atoms: CA_7  and  C_9 
ROOT
HETATM    1  O   UNL     1     -54.728  45.649   7.942  1.00  0.00    -0.646 OA
HETATM    2  OXT UNL     1     -56.433  46.714   8.991  1.00  0.00    -0.646 OA
HETATM    3  C   UNL     1     -55.298  46.734   8.532  1.00  0.00     0.204 C 
ENDROOT
BRANCH   3   4
HETATM    4  CA  UNL     1     -54.364  47.931   8.544  1.00  0.00     0.283 C 
BRANCH   4   5
HETATM    5  N   UNL     1     -54.054  48.277   7.156  1.00  0.00    -0.065 N 
HETATM    6  H   UNL     1     -54.201  49.277   7.015  1.00  0.00     0.275 HD
HETATM    7  H   UNL     1     -54.664  47.752   6.530  1.00  0.00     0.275 HD
HETATM    8  H   UNL     1     -53.081  48.045   6.958  1.00  0.00     0.275 HD
ENDBRANCH   4   5
BRANCH   4   9
HETATM    9  C   UNL     1     -54.942  49.115   9.334  1.00  0.00     0.045 C 
BRANCH   9  10
HETATM   10  C   UNL     1     -53.898  50.016  10.008  1.00  0.00     0.030 C 
BRANCH  10  11
HETATM   11  C   UNL     1     -54.069  51.471   9.573  1.00  0.00     0.230 C 
BRANCH  11  12
HETATM   12  N   UNL     1     -53.961  51.582   8.122  1.00  0.00    -0.079 N 
HETATM   13  H   UNL     1     -54.242  52.518   7.830  1.00  0.00     0.274 HD
HETATM   14  H   UNL     1     -54.570  50.892   7.683  1.00  0.00     0.274 HD
HETATM   15  H   UNL     1     -52.996  51.413   7.839  1.00  0.00     0.274 HD
ENDBRANCH  11  12
ENDBRANCH  10  11
ENDBRANCH   9  10
ENDBRANCH   4   9
ENDBRANCH   3   4
TORSDOF 6
ENDMDL
