MODEL 1
REMARK VINA RESULT:      -8.6      0.000      0.000
REMARK  4 active torsions:
REMARK  status: ('A' for Active; 'I' for Inactive)
REMARK    1  A    between atoms: O_1  and  C_8 
REMARK    2  A    between atoms: O_2  and  C_9 
REMARK    3  A    between atoms: C_5  and  C_11 
REMARK    4  A    between atoms: C_12  and  C_13 
ROOT
ATOM      1  O   UNL A   1     -56.906  45.258   8.217  1.00  0.00    -0.358 OA
ATOM      2  H   UNL A   1     -57.022  44.385   8.539  1.00  0.00     0.217 HD
ENDROOT
BRANCH   1   3
ATOM      3  C   UNL A   1     -55.783  45.958   8.539  1.00  0.00     0.099 A 
ATOM      4  C   UNL A   1     -55.889  47.307   8.879  1.00  0.00     0.050 A 
ATOM      5  C   UNL A   1     -54.746  48.034   9.213  1.00  0.00    -0.033 A 
ATOM      6  C   UNL A   1     -53.498  47.412   9.208  1.00  0.00     0.014 A 
ATOM      7  C   UNL A   1     -53.392  46.063   8.869  1.00  0.00     0.040 A 
ATOM      8  C   UNL A   1     -54.535  45.337   8.535  1.00  0.00     0.098 A 
BRANCH   5   9
ATOM      9  C   UNL A   1     -54.857  49.441   9.566  1.00  0.00     0.018 C 
ATOM     10  C   UNL A   1     -53.818  50.271   9.555  1.00  0.00     0.085 C 
BRANCH  10  11
ATOM     11  C   UNL A   1     -54.035  51.678   9.947  1.00  0.00     0.198 C 
ATOM     12  O   UNL A   1     -54.491  52.363   8.871  1.00  0.00    -0.645 OA
ATOM     13  O   UNL A   1     -53.841  52.162  11.049  1.00  0.00    -0.645 OA
ENDBRANCH  10  11
ENDBRANCH   5   9
BRANCH   8  14
ATOM     14  O   UNL A   1     -54.419  44.020   8.207  1.00  0.00    -0.358 OA
ATOM     15  H   UNL A   1     -55.101  43.595   7.724  1.00  0.00     0.217 HD
ENDBRANCH   8  14
ENDBRANCH   1   3
TORSDOF 4
ENDMDL
MODEL 2
REMARK VINA RESULT:      -8.2      0.674      1.112
REMARK  4 active torsions:
REMARK  status: ('A' for Active; 'I' for Inactive)
REMARK    1  A    between atoms: O_1  and  C_8 
REMARK    2  A    between atoms: O_2  and  C_9 
REMARK    3  A    between atoms: C_5  and  C_11 
REMARK    4  A    between atoms: C_12  and  C_13 
ROOT
ATOM      1  O   UNL A   1     -56.243  45.259   8.077  1.00  0.00    -0.358 OA
ATOM      2  H   UNL A   1     -56.002  44.523   7.550  1.00  0.00     0.217 HD
ENDROOT
BRANCH   1   3
ATOM      3  C   UNL A   1     -55.292  45.927   8.788  1.00  0.00     0.099 A 
ATOM      4  C   UNL A   1     -55.439  47.296   9.014  1.00  0.00     0.050 A 
ATOM      5  C   UNL A   1     -54.472  47.991   9.742  1.00  0.00    -0.033 A 
ATOM      6  C   UNL A   1     -53.360  47.316  10.245  1.00  0.00     0.014 A 
ATOM      7  C   UNL A   1     -53.214  45.947  10.019  1.00  0.00     0.040 A 
ATOM      8  C   UNL A   1     -54.180  45.253   9.290  1.00  0.00     0.098 A 
BRANCH   5   9
ATOM      9  C   UNL A   1     -54.625  49.417   9.976  1.00  0.00     0.018 C 
ATOM     10  C   UNL A   1     -53.877  50.332   9.366  1.00  0.00     0.085 C 
BRANCH  10  11
ATOM     11  C   UNL A   1     -54.101  51.756   9.688  1.00  0.00     0.198 C 
ATOM     12  O   UNL A   1     -53.849  51.948  11.004  1.00  0.00    -0.645 OA
ATOM     13  O   UNL A   1     -54.454  52.629   8.912  1.00  0.00    -0.645 OA
ENDBRANCH  10  11
ENDBRANCH   5   9
BRANCH   8  14
ATOM     14  O   UNL A   1     -54.026  43.917   9.078  1.00  0.00    -0.358 OA
ATOM     15  H   UNL A   1     -54.478  43.301   9.621  1.00  0.00     0.217 HD
ENDBRANCH   8  14
ENDBRANCH   1   3
TORSDOF 4
ENDMDL
MODEL 3
REMARK VINA RESULT:      -8.2      1.006      2.265
REMARK  4 active torsions:
REMARK  status: ('A' for Active; 'I' for Inactive)
REMARK    1  A    between atoms: O_1  and  C_8 
REMARK    2  A    between atoms: O_2  and  C_9 
REMARK    3  A    between atoms: C_5  and  C_11 
REMARK    4  A    between atoms: C_12  and  C_13 
ROOT
ATOM      1  O   UNL A   1     -54.737  44.943   8.499  1.00  0.00    -0.358 OA
ATOM      2  H   UNL A   1     -53.851  45.041   8.212  1.00  0.00     0.217 HD
ENDROOT
BRANCH   1   3
ATOM      3  C   UNL A   1     -55.475  46.042   8.819  1.00  0.00     0.099 A 
ATOM      4  C   UNL A   1     -54.830  47.201   9.252  1.00  0.00     0.050 A 
ATOM      5  C   UNL A   1     -55.576  48.334   9.580  1.00  0.00    -0.033 A 
ATOM      6  C   UNL A   1     -56.966  48.307   9.473  1.00  0.00     0.014 A 
ATOM      7  C   UNL A   1     -57.611  47.149   9.040  1.00  0.00     0.040 A 
ATOM      8  C   UNL A   1     -56.865  46.017   8.712  1.00  0.00     0.098 A 
BRANCH   5   9
ATOM      9  C   UNL A   1     -54.903  49.540  10.033  1.00  0.00     0.018 C 
ATOM     10  C   UNL A   1     -54.787  50.628   9.276  1.00  0.00     0.085 C 
BRANCH  10  11
ATOM     11  C   UNL A   1     -54.069  51.796   9.825  1.00  0.00     0.198 C 
ATOM     12  O   UNL A   1     -53.940  51.636  11.164  1.00  0.00    -0.645 OA
ATOM     13  O   UNL A   1     -53.653  52.754   9.196  1.00  0.00    -0.645 OA
ENDBRANCH  10  11
ENDBRANCH   5   9
BRANCH   8  14
ATOM     14  O   UNL A   1     -57.507  44.892   8.289  1.00  0.00    -0.358 OA
ATOM     15  H   UNL A   1     -58.402  44.747   8.524  1.00  0.00     0.217 HD
ENDBRANCH   8  14
ENDBRANCH   1   3
TORSDOF 4
ENDMDL
MODEL 4
REMARK VINA RESULT:      -7.7      1.394      2.384
REMARK  4 active torsions:
REMARK  status: ('A' for Active; 'I' for Inactive)
REMARK    1  A    between atoms: O_1  and  C_8 
REMARK    2  A    between atoms: O_2  and  C_9 
REMARK    3  A    between atoms: C_5  and  C_11 
REMARK    4  A    between atoms: C_12  and  C_13 
ROOT
ATOM      1  O   UNL A   1     -51.211  44.482   8.639  1.00  0.00    -0.358 OA
ATOM      2  H   UNL A   1     -51.222  43.709   8.109  1.00  0.00     0.217 HD
ENDROOT
BRANCH   1   3
ATOM      3  C   UNL A   1     -52.347  45.218   8.794  1.00  0.00     0.099 A 
ATOM      4  C   UNL A   1     -52.252  46.596   8.987  1.00  0.00     0.050 A 
ATOM      5  C   UNL A   1     -53.408  47.360   9.146  1.00  0.00    -0.033 A 
ATOM      6  C   UNL A   1     -54.660  46.745   9.109  1.00  0.00     0.014 A 
ATOM      7  C   UNL A   1     -54.755  45.367   8.914  1.00  0.00     0.040 A 
ATOM      8  C   UNL A   1     -53.598  44.604   8.757  1.00  0.00     0.098 A 
BRANCH   5   9
ATOM      9  C   UNL A   1     -53.309  48.796   9.349  1.00  0.00     0.018 C 
ATOM     10  C   UNL A   1     -54.371  49.595   9.380  1.00  0.00     0.085 C 
BRANCH  10  11
ATOM     11  C   UNL A   1     -54.160  51.044   9.575  1.00  0.00     0.198 C 
ATOM     12  O   UNL A   1     -54.418  51.682   8.409  1.00  0.00    -0.645 OA
ATOM     13  O   UNL A   1     -53.810  51.593  10.606  1.00  0.00    -0.645 OA
ENDBRANCH  10  11
ENDBRANCH   5   9
BRANCH   8  14
ATOM     14  O   UNL A   1     -53.704  43.259   8.567  1.00  0.00    -0.358 OA
ATOM     15  H   UNL A   1     -54.373  42.775   9.009  1.00  0.00     0.217 HD
ENDBRANCH   8  14
ENDBRANCH   1   3
TORSDOF 4
ENDMDL
MODEL 5
REMARK VINA RESULT:      -6.9      2.523      5.867
REMARK  4 active torsions:
REMARK  status: ('A' for Active; 'I' for Inactive)
REMARK    1  A    between atoms: O_1  and  C_8 
REMARK    2  A    between atoms: O_2  and  C_9 
REMARK    3  A    between atoms: C_5  and  C_11 
REMARK    4  A    between atoms: C_12  and  C_13 
ROOT
ATOM      1  O   UNL A   1     -53.434  49.111  10.715  1.00  0.00    -0.358 OA
ATOM      2  H   UNL A   1     -53.082  49.655  10.038  1.00  0.00     0.217 HD
ENDROOT
BRANCH   1   3
ATOM      3  C   UNL A   1     -53.399  47.756  10.586  1.00  0.00     0.099 A 
ATOM      4  C   UNL A   1     -54.026  47.152   9.496  1.00  0.00     0.050 A 
ATOM      5  C   UNL A   1     -53.994  45.765   9.353  1.00  0.00    -0.033 A 
ATOM      6  C   UNL A   1     -53.333  44.982  10.299  1.00  0.00     0.014 A 
ATOM      7  C   UNL A   1     -52.705  45.586  11.388  1.00  0.00     0.040 A 
ATOM      8  C   UNL A   1     -52.738  46.972  11.531  1.00  0.00     0.098 A 
BRANCH   5   9
ATOM      9  C   UNL A   1     -54.650  45.136   8.218  1.00  0.00     0.018 C 
ATOM     10  C   UNL A   1     -54.000  44.380   7.338  1.00  0.00     0.085 C 
BRANCH  10  11
ATOM     11  C   UNL A   1     -54.758  43.801   6.210  1.00  0.00     0.198 C 
ATOM     12  O   UNL A   1     -54.376  44.421   5.068  1.00  0.00    -0.645 OA
ATOM     13  O   UNL A   1     -55.591  42.913   6.275  1.00  0.00    -0.645 OA
ENDBRANCH  10  11
ENDBRANCH   5   9
BRANCH   8  14
ATOM     14  O   UNL A   1     -52.119  47.550  12.598  1.00  0.00    -0.358 OA
ATOM     15  H   UNL A   1     -51.202  47.415  12.738  1.00  0.00     0.217 HD
ENDBRANCH   8  14
ENDBRANCH   1   3
TORSDOF 4
ENDMDL
MODEL 6
REMARK VINA RESULT:      -6.8      3.921      4.693
REMARK  4 active torsions:
REMARK  status: ('A' for Active; 'I' for Inactive)
REMARK    1  A    between atoms: O_1  and  C_8 
REMARK    2  A    between atoms: O_2  and  C_9 
REMARK    3  A    between atoms: C_5  and  C_11 
REMARK    4  A    between atoms: C_12  and  C_13 
ROOT
ATOM      1  O   UNL A   1     -54.235  48.474   8.394  1.00  0.00    -0.358 OA
ATOM      2  H   UNL A   1     -54.587  48.294   7.544  1.00  0.00     0.217 HD
ENDROOT
BRANCH   1   3
ATOM      3  C   UNL A   1     -53.933  47.449   9.237  1.00  0.00     0.099 A 
ATOM      4  C   UNL A   1     -53.129  47.689  10.351  1.00  0.00     0.050 A 
ATOM      5  C   UNL A   1     -52.815  46.646  11.223  1.00  0.00    -0.033 A 
ATOM      6  C   UNL A   1     -53.306  45.363  10.981  1.00  0.00     0.014 A 
ATOM      7  C   UNL A   1     -54.110  45.123   9.867  1.00  0.00     0.040 A 
ATOM      8  C   UNL A   1     -54.424  46.166   8.996  1.00  0.00     0.098 A 
BRANCH   5   9
ATOM      9  C   UNL A   1     -51.976  46.897  12.384  1.00  0.00     0.018 C 
ATOM     10  C   UNL A   1     -52.414  46.766  13.633  1.00  0.00     0.085 C 
BRANCH  10  11
ATOM     11  C   UNL A   1     -51.485  47.062  14.742  1.00  0.00     0.198 C 
ATOM     12  O   UNL A   1     -51.119  48.364  14.665  1.00  0.00    -0.645 OA
ATOM     13  O   UNL A   1     -51.100  46.280  15.594  1.00  0.00    -0.645 OA
ENDBRANCH  10  11
ENDBRANCH   5   9
BRANCH   8  14
ATOM     14  O   UNL A   1     -55.211  45.919   7.912  1.00  0.00    -0.358 OA
ATOM     15  H   UNL A   1     -55.099  46.419   7.128  1.00  0.00     0.217 HD
ENDBRANCH   8  14
ENDBRANCH   1   3
TORSDOF 4
ENDMDL
MODEL 7
REMARK VINA RESULT:      -6.5      2.883      3.969
REMARK  4 active torsions:
REMARK  status: ('A' for Active; 'I' for Inactive)
REMARK    1  A    between atoms: O_1  and  C_8 
REMARK    2  A    between atoms: O_2  and  C_9 
REMARK    3  A    between atoms: C_5  and  C_11 
REMARK    4  A    between atoms: C_12  and  C_13 
ROOT
ATOM      1  O   UNL A   1     -54.443  42.156   6.768  1.00  0.00    -0.358 OA
ATOM      2  H   UNL A   1     -54.706  41.313   7.078  1.00  0.00     0.217 HD
ENDROOT
BRANCH   1   3
ATOM      3  C   UNL A   1     -53.378  42.789   7.335  1.00  0.00     0.099 A 
ATOM      4  C   UNL A   1     -53.477  44.141   7.663  1.00  0.00     0.050 A 
ATOM      5  C   UNL A   1     -52.393  44.798   8.246  1.00  0.00    -0.033 A 
ATOM      6  C   UNL A   1     -51.212  44.102   8.502  1.00  0.00     0.014 A 
ATOM      7  C   UNL A   1     -51.114  42.750   8.175  1.00  0.00     0.040 A 
ATOM      8  C   UNL A   1     -52.197  42.093   7.592  1.00  0.00     0.098 A 
BRANCH   5   9
ATOM      9  C   UNL A   1     -52.495  46.208   8.586  1.00  0.00     0.018 C 
ATOM     10  C   UNL A   1     -53.501  46.707   9.299  1.00  0.00     0.085 C 
BRANCH  10  11
ATOM     11  C   UNL A   1     -53.520  48.157   9.575  1.00  0.00     0.198 C 
ATOM     12  O   UNL A   1     -53.728  48.818   8.411  1.00  0.00    -0.645 OA
ATOM     13  O   UNL A   1     -53.375  48.691  10.662  1.00  0.00    -0.645 OA
ENDBRANCH  10  11
ENDBRANCH   5   9
BRANCH   8  14
ATOM     14  O   UNL A   1     -52.089  40.772   7.278  1.00  0.00    -0.358 OA
ATOM     15  H   UNL A   1     -51.859  40.515   6.407  1.00  0.00     0.217 HD
ENDBRANCH   8  14
ENDBRANCH   1   3
TORSDOF 4
ENDMDL
MODEL 8
REMARK VINA RESULT:      -6.5      4.206      5.196
REMARK  4 active torsions:
REMARK  status: ('A' for Active; 'I' for Inactive)
REMARK    1  A    between atoms: O_1  and  C_8 
REMARK    2  A    between atoms: O_2  and  C_9 
REMARK    3  A    between atoms: C_5  and  C_11 
REMARK    4  A    between atoms: C_12  and  C_13 
ROOT
ATOM      1  O   UNL A   1     -54.138  48.830   8.419  1.00  0.00    -0.358 OA
ATOM      2  H   UNL A   1     -54.952  49.017   8.844  1.00  0.00     0.217 HD
ENDROOT
BRANCH   1   3
ATOM      3  C   UNL A   1     -53.173  48.128   9.075  1.00  0.00     0.099 A 
ATOM      4  C   UNL A   1     -53.378  47.755  10.403  1.00  0.00     0.050 A 
ATOM      5  C   UNL A   1     -52.397  47.034  11.086  1.00  0.00    -0.033 A 
ATOM      6  C   UNL A   1     -51.212  46.686  10.438  1.00  0.00     0.014 A 
ATOM      7  C   UNL A   1     -51.007  47.059   9.110  1.00  0.00     0.040 A 
ATOM      8  C   UNL A   1     -51.988  47.780   8.429  1.00  0.00     0.098 A 
BRANCH   5   9
ATOM      9  C   UNL A   1     -52.611  46.647  12.470  1.00  0.00     0.018 C 
ATOM     10  C   UNL A   1     -51.717  46.875  13.429  1.00  0.00     0.085 C 
BRANCH  10  11
ATOM     11  C   UNL A   1     -52.025  46.425  14.802  1.00  0.00     0.198 C 
ATOM     12  O   UNL A   1     -52.351  47.507  15.549  1.00  0.00    -0.645 OA
ATOM     13  O   UNL A   1     -51.997  45.278  15.213  1.00  0.00    -0.645 OA
ENDBRANCH  10  11
ENDBRANCH   5   9
BRANCH   8  14
ATOM     14  O   UNL A   1     -51.776  48.136   7.131  1.00  0.00    -0.358 OA
ATOM     15  H   UNL A   1     -52.499  48.392   6.592  1.00  0.00     0.217 HD
ENDBRANCH   8  14
ENDBRANCH   1   3
TORSDOF 4
ENDMDL
MODEL 9
REMARK VINA RESULT:      -6.5      4.030      6.118
REMARK  4 active torsions:
REMARK  status: ('A' for Active; 'I' for Inactive)
REMARK    1  A    between atoms: O_1  and  C_8 
REMARK    2  A    between atoms: O_2  and  C_9 
REMARK    3  A    between atoms: C_5  and  C_11 
REMARK    4  A    between atoms: C_12  and  C_13 
ROOT
ATOM      1  O   UNL A   1     -50.237  42.523   4.337  1.00  0.00    -0.358 OA
ATOM      2  H   UNL A   1     -50.274  41.647   4.008  1.00  0.00     0.217 HD
ENDROOT
BRANCH   1   3
ATOM      3  C   UNL A   1     -50.619  42.786   5.617  1.00  0.00     0.099 A 
ATOM      4  C   UNL A   1     -51.838  43.421   5.854  1.00  0.00     0.050 A 
ATOM      5  C   UNL A   1     -52.241  43.694   7.161  1.00  0.00    -0.033 A 
ATOM      6  C   UNL A   1     -51.426  43.329   8.232  1.00  0.00     0.014 A 
ATOM      7  C   UNL A   1     -50.207  42.692   7.996  1.00  0.00     0.040 A 
ATOM      8  C   UNL A   1     -49.804  42.421   6.689  1.00  0.00     0.098 A 
BRANCH   5   9
ATOM      9  C   UNL A   1     -53.511  44.358   7.407  1.00  0.00     0.018 C 
ATOM     10  C   UNL A   1     -53.720  45.148   8.456  1.00  0.00     0.085 C 
BRANCH  10  11
ATOM     11  C   UNL A   1     -55.054  45.761   8.623  1.00  0.00     0.198 C 
ATOM     12  O   UNL A   1     -54.946  47.096   8.420  1.00  0.00    -0.645 OA
ATOM     13  O   UNL A   1     -56.090  45.181   8.897  1.00  0.00    -0.645 OA
ENDBRANCH  10  11
ENDBRANCH   5   9
BRANCH   8  14
ATOM     14  O   UNL A   1     -48.613  41.798   6.471  1.00  0.00    -0.358 OA
ATOM     15  H   UNL A   1     -48.048  42.095   5.784  1.00  0.00     0.217 HD
ENDBRANCH   8  14
ENDBRANCH   1   3
TORSDOF 4
ENDMDL
