MODEL 1
REMARK VINA RESULT:      -8.6      0.000      0.000
REMARK  4 active torsions:
REMARK  status: ('A' for Active; 'I' for Inactive)
REMARK    1  A    between atoms: O_1  and  C_8 
REMARK    2  A    between atoms: O_2  and  C_9 
REMARK    3  A    between atoms: C_5  and  C_11 
REMARK    4  A    between atoms: C_12  and  C_13 
ROOT
ATOM      1  O   UNL A   1     -56.945  45.345   8.424  1.00  0.00    -0.358 OA
ATOM      2  H   UNL A   1     -56.962  44.741   7.709  1.00  0.00     0.217 HD
ENDROOT
BRANCH   1   3
ATOM      3  C   UNL A   1     -55.826  46.081   8.667  1.00  0.00     0.099 A 
ATOM      4  C   UNL A   1     -55.936  47.460   8.851  1.00  0.00     0.050 A 
ATOM      5  C   UNL A   1     -54.795  48.223   9.103  1.00  0.00    -0.033 A 
ATOM      6  C   UNL A   1     -53.546  47.608   9.173  1.00  0.00     0.014 A 
ATOM      7  C   UNL A   1     -53.436  46.229   8.990  1.00  0.00     0.040 A 
ATOM      8  C   UNL A   1     -54.576  45.466   8.738  1.00  0.00     0.098 A 
BRANCH   5   9
ATOM      9  C   UNL A   1     -54.910  49.660   9.292  1.00  0.00     0.018 C 
ATOM     10  C   UNL A   1     -53.879  50.427   9.637  1.00  0.00     0.085 C 
BRANCH  10  11
ATOM     11  C   UNL A   1     -54.107  51.874   9.821  1.00  0.00     0.198 C 
ATOM     12  O   UNL A   1     -53.844  52.194  11.110  1.00  0.00    -0.645 OA
ATOM     13  O   UNL A   1     -54.470  52.666   8.968  1.00  0.00    -0.645 OA
ENDBRANCH  10  11
ENDBRANCH   5   9
BRANCH   8  14
ATOM     14  O   UNL A   1     -54.456  44.121   8.562  1.00  0.00    -0.358 OA
ATOM     15  H   UNL A   1     -55.091  43.656   8.053  1.00  0.00     0.217 HD
ENDBRANCH   8  14
ENDBRANCH   1   3
TORSDOF 4
ENDMDL
MODEL 2
REMARK VINA RESULT:      -8.2      0.948      2.059
REMARK  4 active torsions:
REMARK  status: ('A' for Active; 'I' for Inactive)
REMARK    1  A    between atoms: O_1  and  C_8 
REMARK    2  A    between atoms: O_2  and  C_9 
REMARK    3  A    between atoms: C_5  and  C_11 
REMARK    4  A    between atoms: C_12  and  C_13 
ROOT
ATOM      1  O   UNL A   1     -54.695  44.916   8.394  1.00  0.00    -0.358 OA
ATOM      2  H   UNL A   1     -55.106  44.076   8.335  1.00  0.00     0.217 HD
ENDROOT
BRANCH   1   3
ATOM      3  C   UNL A   1     -55.430  46.011   8.734  1.00  0.00     0.099 A 
ATOM      4  C   UNL A   1     -54.780  47.162   9.180  1.00  0.00     0.050 A 
ATOM      5  C   UNL A   1     -55.523  48.291   9.530  1.00  0.00    -0.033 A 
ATOM      6  C   UNL A   1     -56.914  48.268   9.432  1.00  0.00     0.014 A 
ATOM      7  C   UNL A   1     -57.563  47.117   8.985  1.00  0.00     0.040 A 
ATOM      8  C   UNL A   1     -56.820  45.989   8.636  1.00  0.00     0.098 A 
BRANCH   5   9
ATOM      9  C   UNL A   1     -54.846  49.490   9.997  1.00  0.00     0.018 C 
ATOM     10  C   UNL A   1     -54.771  50.604   9.274  1.00  0.00     0.085 C 
BRANCH  10  11
ATOM     11  C   UNL A   1     -54.045  51.761   9.833  1.00  0.00     0.198 C 
ATOM     12  O   UNL A   1     -53.999  51.635  11.181  1.00  0.00    -0.645 OA
ATOM     13  O   UNL A   1     -53.560  52.687   9.204  1.00  0.00    -0.645 OA
ENDBRANCH  10  11
ENDBRANCH   5   9
BRANCH   8  14
ATOM     14  O   UNL A   1     -57.466  44.872   8.199  1.00  0.00    -0.358 OA
ATOM     15  H   UNL A   1     -57.080  44.027   8.329  1.00  0.00     0.217 HD
ENDBRANCH   8  14
ENDBRANCH   1   3
TORSDOF 4
ENDMDL
MODEL 3
REMARK VINA RESULT:      -7.8      0.853      1.928
REMARK  4 active torsions:
REMARK  status: ('A' for Active; 'I' for Inactive)
REMARK    1  A    between atoms: O_1  and  C_8 
REMARK    2  A    between atoms: O_2  and  C_9 
REMARK    3  A    between atoms: C_5  and  C_11 
REMARK    4  A    between atoms: C_12  and  C_13 
ROOT
ATOM      1  O   UNL A   1     -52.052  45.560   9.104  1.00  0.00    -0.358 OA
ATOM      2  H   UNL A   1     -51.818  44.864   8.522  1.00  0.00     0.217 HD
ENDROOT
BRANCH   1   3
ATOM      3  C   UNL A   1     -53.285  46.133   9.019  1.00  0.00     0.099 A 
ATOM      4  C   UNL A   1     -53.432  47.491   9.301  1.00  0.00     0.050 A 
ATOM      5  C   UNL A   1     -54.689  48.089   9.214  1.00  0.00    -0.033 A 
ATOM      6  C   UNL A   1     -55.799  47.329   8.844  1.00  0.00     0.014 A 
ATOM      7  C   UNL A   1     -55.651  45.972   8.561  1.00  0.00     0.040 A 
ATOM      8  C   UNL A   1     -54.394  45.374   8.648  1.00  0.00     0.098 A 
BRANCH   5   9
ATOM      9  C   UNL A   1     -54.843  49.505   9.510  1.00  0.00     0.018 C 
ATOM     10  C   UNL A   1     -53.853  50.382   9.366  1.00  0.00     0.085 C 
BRANCH  10  11
ATOM     11  C   UNL A   1     -54.108  51.796   9.711  1.00  0.00     0.198 C 
ATOM     12  O   UNL A   1     -53.869  51.970  11.032  1.00  0.00    -0.645 OA
ATOM     13  O   UNL A   1     -54.474  52.674   8.948  1.00  0.00    -0.645 OA
ENDBRANCH  10  11
ENDBRANCH   5   9
BRANCH   8  14
ATOM     14  O   UNL A   1     -54.263  44.047   8.368  1.00  0.00    -0.358 OA
ATOM     15  H   UNL A   1     -54.002  43.773   7.511  1.00  0.00     0.217 HD
ENDBRANCH   8  14
ENDBRANCH   1   3
TORSDOF 4
ENDMDL
MODEL 4
REMARK VINA RESULT:      -7.4      1.670      2.695
REMARK  4 active torsions:
REMARK  status: ('A' for Active; 'I' for Inactive)
REMARK    1  A    between atoms: O_1  and  C_8 
REMARK    2  A    between atoms: O_2  and  C_9 
REMARK    3  A    between atoms: C_5  and  C_11 
REMARK    4  A    between atoms: C_12  and  C_13 
ROOT
ATOM      1  O   UNL A   1     -51.834  44.482  11.357  1.00  0.00    -0.358 OA
ATOM      2  H   UNL A   1     -52.051  43.609  11.617  1.00  0.00     0.217 HD
ENDROOT
BRANCH   1   3
ATOM      3  C   UNL A   1     -52.738  45.234  10.670  1.00  0.00     0.099 A 
ATOM      4  C   UNL A   1     -52.608  46.622  10.655  1.00  0.00     0.050 A 
ATOM      5  C   UNL A   1     -53.528  47.402   9.953  1.00  0.00    -0.033 A 
ATOM      6  C   UNL A   1     -54.577  46.793   9.266  1.00  0.00     0.014 A 
ATOM      7  C   UNL A   1     -54.707  45.404   9.280  1.00  0.00     0.040 A 
ATOM      8  C   UNL A   1     -53.787  44.625   9.982  1.00  0.00     0.098 A 
BRANCH   5   9
ATOM      9  C   UNL A   1     -53.393  48.850   9.940  1.00  0.00     0.018 C 
ATOM     10  C   UNL A   1     -54.412  49.667   9.688  1.00  0.00     0.085 C 
BRANCH  10  11
ATOM     11  C   UNL A   1     -54.164  51.123   9.681  1.00  0.00     0.198 C 
ATOM     12  O   UNL A   1     -54.358  51.590   8.425  1.00  0.00    -0.645 OA
ATOM     13  O   UNL A   1     -53.838  51.808  10.636  1.00  0.00    -0.645 OA
ENDBRANCH  10  11
ENDBRANCH   5   9
BRANCH   8  14
ATOM     14  O   UNL A   1     -53.924  43.270   9.987  1.00  0.00    -0.358 OA
ATOM     15  H   UNL A   1     -53.626  42.766   9.255  1.00  0.00     0.217 HD
ENDBRANCH   8  14
ENDBRANCH   1   3
TORSDOF 4
ENDMDL
MODEL 5
REMARK VINA RESULT:      -7.2      1.677      2.175
REMARK  4 active torsions:
REMARK  status: ('A' for Active; 'I' for Inactive)
REMARK    1  A    between atoms: O_1  and  C_8 
REMARK    2  A    between atoms: O_2  and  C_9 
REMARK    3  A    between atoms: C_5  and  C_11 
REMARK    4  A    between atoms: C_12  and  C_13 
ROOT
ATOM      1  O   UNL A   1     -54.669  44.179  10.337  1.00  0.00    -0.358 OA
ATOM      2  H   UNL A   1     -54.935  44.263  11.231  1.00  0.00     0.217 HD
ENDROOT
BRANCH   1   3
ATOM      3  C   UNL A   1     -53.679  44.974   9.844  1.00  0.00     0.099 A 
ATOM      4  C   UNL A   1     -53.918  46.335   9.659  1.00  0.00     0.050 A 
ATOM      5  C   UNL A   1     -52.910  47.159   9.157  1.00  0.00    -0.033 A 
ATOM      6  C   UNL A   1     -51.662  46.620   8.841  1.00  0.00     0.014 A 
ATOM      7  C   UNL A   1     -51.423  45.259   9.027  1.00  0.00     0.040 A 
ATOM      8  C   UNL A   1     -52.431  44.436   9.528  1.00  0.00     0.098 A 
BRANCH   5   9
ATOM      9  C   UNL A   1     -53.160  48.578   8.963  1.00  0.00     0.018 C 
ATOM     10  C   UNL A   1     -53.736  49.342   9.887  1.00  0.00     0.085 C 
BRANCH  10  11
ATOM     11  C   UNL A   1     -53.961  50.769   9.583  1.00  0.00     0.198 C 
ATOM     12  O   UNL A   1     -54.008  51.459  10.748  1.00  0.00    -0.645 OA
ATOM     13  O   UNL A   1     -54.086  51.264   8.476  1.00  0.00    -0.645 OA
ENDBRANCH  10  11
ENDBRANCH   5   9
BRANCH   8  14
ATOM     14  O   UNL A   1     -52.185  43.108   9.707  1.00  0.00    -0.358 OA
ATOM     15  H   UNL A   1     -51.926  42.788  10.549  1.00  0.00     0.217 HD
ENDBRANCH   8  14
ENDBRANCH   1   3
TORSDOF 4
ENDMDL
MODEL 6
REMARK VINA RESULT:      -7.0      2.684      5.961
REMARK  4 active torsions:
REMARK  status: ('A' for Active; 'I' for Inactive)
REMARK    1  A    between atoms: O_1  and  C_8 
REMARK    2  A    between atoms: O_2  and  C_9 
REMARK    3  A    between atoms: C_5  and  C_11 
REMARK    4  A    between atoms: C_12  and  C_13 
ROOT
ATOM      1  O   UNL A   1     -53.489  49.070  10.763  1.00  0.00    -0.358 OA
ATOM      2  H   UNL A   1     -52.776  49.614  10.491  1.00  0.00     0.217 HD
ENDROOT
BRANCH   1   3
ATOM      3  C   UNL A   1     -53.417  47.720  10.597  1.00  0.00     0.099 A 
ATOM      4  C   UNL A   1     -54.037  47.129   9.496  1.00  0.00     0.050 A 
ATOM      5  C   UNL A   1     -53.968  45.747   9.315  1.00  0.00    -0.033 A 
ATOM      6  C   UNL A   1     -53.277  44.958  10.235  1.00  0.00     0.014 A 
ATOM      7  C   UNL A   1     -52.657  45.549  11.335  1.00  0.00     0.040 A 
ATOM      8  C   UNL A   1     -52.727  46.930  11.516  1.00  0.00     0.098 A 
BRANCH   5   9
ATOM      9  C   UNL A   1     -54.616  45.132   8.169  1.00  0.00     0.018 C 
ATOM     10  C   UNL A   1     -53.981  44.311   7.337  1.00  0.00     0.085 C 
BRANCH  10  11
ATOM     11  C   UNL A   1     -54.726  43.751   6.191  1.00  0.00     0.198 C 
ATOM     12  O   UNL A   1     -54.487  44.518   5.101  1.00  0.00    -0.645 OA
ATOM     13  O   UNL A   1     -55.444  42.765   6.204  1.00  0.00    -0.645 OA
ENDBRANCH  10  11
ENDBRANCH   5   9
BRANCH   8  14
ATOM     14  O   UNL A   1     -52.115  47.496  12.594  1.00  0.00    -0.358 OA
ATOM     15  H   UNL A   1     -52.609  48.027  13.187  1.00  0.00     0.217 HD
ENDBRANCH   8  14
ENDBRANCH   1   3
TORSDOF 4
ENDMDL
MODEL 7
REMARK VINA RESULT:      -6.8      3.909      4.782
REMARK  4 active torsions:
REMARK  status: ('A' for Active; 'I' for Inactive)
REMARK    1  A    between atoms: O_1  and  C_8 
REMARK    2  A    between atoms: O_2  and  C_9 
REMARK    3  A    between atoms: C_5  and  C_11 
REMARK    4  A    between atoms: C_12  and  C_13 
ROOT
ATOM      1  O   UNL A   1     -54.300  48.497   8.379  1.00  0.00    -0.358 OA
ATOM      2  H   UNL A   1     -53.741  48.741   7.668  1.00  0.00     0.217 HD
ENDROOT
BRANCH   1   3
ATOM      3  C   UNL A   1     -53.950  47.466   9.197  1.00  0.00     0.099 A 
ATOM      4  C   UNL A   1     -53.086  47.700  10.266  1.00  0.00     0.050 A 
ATOM      5  C   UNL A   1     -52.722  46.652  11.113  1.00  0.00    -0.033 A 
ATOM      6  C   UNL A   1     -53.224  45.370  10.890  1.00  0.00     0.014 A 
ATOM      7  C   UNL A   1     -54.090  45.136   9.821  1.00  0.00     0.040 A 
ATOM      8  C   UNL A   1     -54.452  46.184   8.975  1.00  0.00     0.098 A 
BRANCH   5   9
ATOM      9  C   UNL A   1     -51.819  46.896  12.226  1.00  0.00     0.018 C 
ATOM     10  C   UNL A   1     -52.208  46.834  13.496  1.00  0.00     0.085 C 
BRANCH  10  11
ATOM     11  C   UNL A   1     -51.216  47.117  14.553  1.00  0.00     0.198 C 
ATOM     12  O   UNL A   1     -51.302  48.425  14.890  1.00  0.00    -0.645 OA
ATOM     13  O   UNL A   1     -50.439  46.319  15.051  1.00  0.00    -0.645 OA
ENDBRANCH  10  11
ENDBRANCH   5   9
BRANCH   8  14
ATOM     14  O   UNL A   1     -55.299  45.943   7.936  1.00  0.00    -0.358 OA
ATOM     15  H   UNL A   1     -55.215  45.155   7.436  1.00  0.00     0.217 HD
ENDBRANCH   8  14
ENDBRANCH   1   3
TORSDOF 4
ENDMDL
MODEL 8
REMARK VINA RESULT:      -6.5      2.859      3.987
REMARK  4 active torsions:
REMARK  status: ('A' for Active; 'I' for Inactive)
REMARK    1  A    between atoms: O_1  and  C_8 
REMARK    2  A    between atoms: O_2  and  C_9 
REMARK    3  A    between atoms: C_5  and  C_11 
REMARK    4  A    between atoms: C_12  and  C_13 
ROOT
ATOM      1  O   UNL A   1     -54.654  42.610   6.653  1.00  0.00    -0.358 OA
ATOM      2  H   UNL A   1     -55.392  43.156   6.466  1.00  0.00     0.217 HD
ENDROOT
BRANCH   1   3
ATOM      3  C   UNL A   1     -53.545  43.142   7.239  1.00  0.00     0.099 A 
ATOM      4  C   UNL A   1     -53.562  44.470   7.663  1.00  0.00     0.050 A 
ATOM      5  C   UNL A   1     -52.433  45.025   8.266  1.00  0.00    -0.033 A 
ATOM      6  C   UNL A   1     -51.288  44.250   8.446  1.00  0.00     0.014 A 
ATOM      7  C   UNL A   1     -51.271  42.921   8.023  1.00  0.00     0.040 A 
ATOM      8  C   UNL A   1     -52.399  42.368   7.419  1.00  0.00     0.098 A 
BRANCH   5   9
ATOM      9  C   UNL A   1     -52.451  46.411   8.707  1.00  0.00     0.018 C 
ATOM     10  C   UNL A   1     -53.516  46.974   9.271  1.00  0.00     0.085 C 
BRANCH  10  11
ATOM     11  C   UNL A   1     -53.436  48.395   9.667  1.00  0.00     0.198 C 
ATOM     12  O   UNL A   1     -53.260  49.146   8.554  1.00  0.00    -0.645 OA
ATOM     13  O   UNL A   1     -53.513  48.837  10.801  1.00  0.00    -0.645 OA
ENDBRANCH  10  11
ENDBRANCH   5   9
BRANCH   8  14
ATOM     14  O   UNL A   1     -52.371  41.068   7.011  1.00  0.00    -0.358 OA
ATOM     15  H   UNL A   1     -52.770  40.823   6.200  1.00  0.00     0.217 HD
ENDBRANCH   8  14
ENDBRANCH   1   3
TORSDOF 4
ENDMDL
MODEL 9
REMARK VINA RESULT:      -6.5      4.411      6.506
REMARK  4 active torsions:
REMARK  status: ('A' for Active; 'I' for Inactive)
REMARK    1  A    between atoms: O_1  and  C_8 
REMARK    2  A    between atoms: O_2  and  C_9 
REMARK    3  A    between atoms: C_5  and  C_11 
REMARK    4  A    between atoms: C_12  and  C_13 
ROOT
ATOM      1  O   UNL A   1     -49.984  42.173   4.382  1.00  0.00    -0.358 OA
ATOM      2  H   UNL A   1     -49.220  41.652   4.236  1.00  0.00     0.217 HD
ENDROOT
BRANCH   1   3
ATOM      3  C   UNL A   1     -50.340  42.520   5.649  1.00  0.00     0.099 A 
ATOM      4  C   UNL A   1     -51.459  43.329   5.852  1.00  0.00     0.050 A 
ATOM      5  C   UNL A   1     -51.834  43.689   7.147  1.00  0.00    -0.033 A 
ATOM      6  C   UNL A   1     -51.092  43.239   8.238  1.00  0.00     0.014 A 
ATOM      7  C   UNL A   1     -49.974  42.430   8.035  1.00  0.00     0.040 A 
ATOM      8  C   UNL A   1     -49.598  42.071   6.741  1.00  0.00     0.098 A 
BRANCH   5   9
ATOM      9  C   UNL A   1     -52.999  44.533   7.358  1.00  0.00     0.018 C 
ATOM     10  C   UNL A   1     -53.571  44.688   8.549  1.00  0.00     0.085 C 
BRANCH  10  11
ATOM     11  C   UNL A   1     -54.762  45.555   8.652  1.00  0.00     0.198 C 
ATOM     12  O   UNL A   1     -54.371  46.846   8.528  1.00  0.00    -0.645 OA
ATOM     13  O   UNL A   1     -55.913  45.190   8.820  1.00  0.00    -0.645 OA
ENDBRANCH  10  11
ENDBRANCH   5   9
BRANCH   8  14
ATOM     14  O   UNL A   1     -48.505  41.279   6.556  1.00  0.00    -0.358 OA
ATOM     15  H   UNL A   1     -48.484  40.668   5.846  1.00  0.00     0.217 HD
ENDBRANCH   8  14
ENDBRANCH   1   3
TORSDOF 4
ENDMDL
