MODEL 1
REMARK VINA RESULT:     -19.4      0.000      0.000
REMARK  4 active torsions:
REMARK  status: ('A' for Active; 'I' for Inactive)
REMARK    1  A    between atoms: O_1  and  C_8 
REMARK    2  A    between atoms: O_2  and  C_9 
REMARK    3  A    between atoms: C_5  and  C_11 
REMARK    4  A    between atoms: C_12  and  C_13 
ROOT
ATOM      1  O   UNL A   1     -54.103  49.166   8.059  1.00  0.00    -0.358 OA
ATOM      2  H   UNL A   1     -54.372  49.573   7.259  1.00  0.00     0.217 HD
ENDROOT
BRANCH   1   3
ATOM      3  C   UNL A   1     -53.962  49.913   9.189  1.00  0.00     0.099 A 
ATOM      4  C   UNL A   1     -53.756  49.277  10.413  1.00  0.00     0.050 A 
ATOM      5  C   UNL A   1     -53.608  50.032  11.576  1.00  0.00    -0.033 A 
ATOM      6  C   UNL A   1     -53.665  51.424  11.515  1.00  0.00     0.014 A 
ATOM      7  C   UNL A   1     -53.870  52.061  10.291  1.00  0.00     0.040 A 
ATOM      8  C   UNL A   1     -54.019  51.305   9.128  1.00  0.00     0.098 A 
BRANCH   5   9
ATOM      9  C   UNL A   1     -53.395  49.368  12.852  1.00  0.00     0.018 C 
ATOM     10  C   UNL A   1     -53.213  50.033  13.990  1.00  0.00     0.085 C 
BRANCH  10  11
ATOM     11  C   UNL A   1     -52.987  49.262  15.229  1.00  0.00     0.198 C 
ATOM     12  O   UNL A   1     -54.186  49.001  15.802  1.00  0.00    -0.645 OA
ATOM     13  O   UNL A   1     -51.909  48.910  15.678  1.00  0.00    -0.645 OA
ENDBRANCH  10  11
ENDBRANCH   5   9
BRANCH   8  14
ATOM     14  O   UNL A   1     -54.218  51.939   7.939  1.00  0.00    -0.358 OA
ATOM     15  H   UNL A   1     -53.565  52.522   7.604  1.00  0.00     0.217 HD
ENDBRANCH   8  14
ENDBRANCH   1   3
TORSDOF 4
ENDMDL
MODEL 2
REMARK VINA RESULT:     -18.6      2.009      5.596
REMARK  4 active torsions:
REMARK  status: ('A' for Active; 'I' for Inactive)
REMARK    1  A    between atoms: O_1  and  C_8 
REMARK    2  A    between atoms: O_2  and  C_9 
REMARK    3  A    between atoms: C_5  and  C_11 
REMARK    4  A    between atoms: C_12  and  C_13 
ROOT
ATOM      1  O   UNL A   1     -53.842  52.046  13.061  1.00  0.00    -0.358 OA
ATOM      2  H   UNL A   1     -54.733  52.334  13.069  1.00  0.00     0.217 HD
ENDROOT
BRANCH   1   3
ATOM      3  C   UNL A   1     -53.554  50.723  12.917  1.00  0.00     0.099 A 
ATOM      4  C   UNL A   1     -53.713  50.116  11.671  1.00  0.00     0.050 A 
ATOM      5  C   UNL A   1     -53.419  48.761  11.512  1.00  0.00    -0.033 A 
ATOM      6  C   UNL A   1     -52.965  48.015  12.599  1.00  0.00     0.014 A 
ATOM      7  C   UNL A   1     -52.805  48.622  13.845  1.00  0.00     0.040 A 
ATOM      8  C   UNL A   1     -53.099  49.976  14.003  1.00  0.00     0.098 A 
BRANCH   5   9
ATOM      9  C   UNL A   1     -53.587  48.129  10.214  1.00  0.00     0.018 C 
ATOM     10  C   UNL A   1     -54.722  48.190   9.523  1.00  0.00     0.085 C 
BRANCH  10  11
ATOM     11  C   UNL A   1     -54.794  47.498   8.221  1.00  0.00     0.198 C 
ATOM     12  O   UNL A   1     -55.352  46.279   8.407  1.00  0.00    -0.645 OA
ATOM     13  O   UNL A   1     -54.418  47.935   7.146  1.00  0.00    -0.645 OA
ENDBRANCH  10  11
ENDBRANCH   5   9
BRANCH   8  14
ATOM     14  O   UNL A   1     -52.938  50.558  15.225  1.00  0.00    -0.358 OA
ATOM     15  H   UNL A   1     -52.984  50.036  16.002  1.00  0.00     0.217 HD
ENDBRANCH   8  14
ENDBRANCH   1   3
TORSDOF 4
ENDMDL
MODEL 3
REMARK VINA RESULT:     -18.6      0.828      1.853
REMARK  4 active torsions:
REMARK  status: ('A' for Active; 'I' for Inactive)
REMARK    1  A    between atoms: O_1  and  C_8 
REMARK    2  A    between atoms: O_2  and  C_9 
REMARK    3  A    between atoms: C_5  and  C_11 
REMARK    4  A    between atoms: C_12  and  C_13 
ROOT
ATOM      1  O   UNL A   1     -54.062  52.657   9.466  1.00  0.00    -0.358 OA
ATOM      2  H   UNL A   1     -53.765  52.803   8.590  1.00  0.00     0.217 HD
ENDROOT
BRANCH   1   3
ATOM      3  C   UNL A   1     -53.951  51.420  10.025  1.00  0.00     0.099 A 
ATOM      4  C   UNL A   1     -53.773  51.302  11.403  1.00  0.00     0.050 A 
ATOM      5  C   UNL A   1     -53.660  50.040  11.987  1.00  0.00    -0.033 A 
ATOM      6  C   UNL A   1     -53.727  48.896  11.192  1.00  0.00     0.014 A 
ATOM      7  C   UNL A   1     -53.906  49.014   9.814  1.00  0.00     0.040 A 
ATOM      8  C   UNL A   1     -54.018  50.275   9.231  1.00  0.00     0.098 A 
BRANCH   5   9
ATOM      9  C   UNL A   1     -53.473  49.917  13.424  1.00  0.00     0.018 C 
ATOM     10  C   UNL A   1     -52.926  48.846  13.991  1.00  0.00     0.085 C 
BRANCH  10  11
ATOM     11  C   UNL A   1     -52.797  48.814  15.462  1.00  0.00     0.198 C 
ATOM     12  O   UNL A   1     -54.030  48.935  16.009  1.00  0.00    -0.645 OA
ATOM     13  O   UNL A   1     -51.762  48.700  16.097  1.00  0.00    -0.645 OA
ENDBRANCH  10  11
ENDBRANCH   5   9
BRANCH   8  14
ATOM     14  O   UNL A   1     -54.194  50.377   7.884  1.00  0.00    -0.358 OA
ATOM     15  H   UNL A   1     -54.136  49.613   7.345  1.00  0.00     0.217 HD
ENDBRANCH   8  14
ENDBRANCH   1   3
TORSDOF 4
ENDMDL
MODEL 4
REMARK VINA RESULT:     -18.5      1.013      2.131
REMARK  4 active torsions:
REMARK  status: ('A' for Active; 'I' for Inactive)
REMARK    1  A    between atoms: O_1  and  C_8 
REMARK    2  A    between atoms: O_2  and  C_9 
REMARK    3  A    between atoms: C_5  and  C_11 
REMARK    4  A    between atoms: C_12  and  C_13 
ROOT
ATOM      1  O   UNL A   1     -54.204  51.466   8.237  1.00  0.00    -0.358 OA
ATOM      2  H   UNL A   1     -54.897  52.066   8.430  1.00  0.00     0.217 HD
ENDROOT
BRANCH   1   3
ATOM      3  C   UNL A   1     -53.943  50.432   9.083  1.00  0.00     0.099 A 
ATOM      4  C   UNL A   1     -53.936  50.656  10.460  1.00  0.00     0.050 A 
ATOM      5  C   UNL A   1     -53.672  49.603  11.337  1.00  0.00    -0.033 A 
ATOM      6  C   UNL A   1     -53.415  48.327  10.837  1.00  0.00     0.014 A 
ATOM      7  C   UNL A   1     -53.422  48.103   9.460  1.00  0.00     0.040 A 
ATOM      8  C   UNL A   1     -53.686  49.156   8.584  1.00  0.00     0.098 A 
BRANCH   5   9
ATOM      9  C   UNL A   1     -53.664  49.837  12.772  1.00  0.00     0.018 C 
ATOM     10  C   UNL A   1     -53.245  48.929  13.649  1.00  0.00     0.085 C 
BRANCH  10  11
ATOM     11  C   UNL A   1     -53.294  49.260  15.087  1.00  0.00     0.198 C 
ATOM     12  O   UNL A   1     -52.801  50.509  15.261  1.00  0.00    -0.645 OA
ATOM     13  O   UNL A   1     -53.706  48.544  15.983  1.00  0.00    -0.645 OA
ENDBRANCH  10  11
ENDBRANCH   5   9
BRANCH   8  14
ATOM     14  O   UNL A   1     -53.691  48.924   7.241  1.00  0.00    -0.358 OA
ATOM     15  H   UNL A   1     -54.435  48.520   6.839  1.00  0.00     0.217 HD
ENDBRANCH   8  14
ENDBRANCH   1   3
TORSDOF 4
ENDMDL
MODEL 5
REMARK VINA RESULT:     -18.0      1.747      5.623
REMARK  4 active torsions:
REMARK  status: ('A' for Active; 'I' for Inactive)
REMARK    1  A    between atoms: O_1  and  C_8 
REMARK    2  A    between atoms: O_2  and  C_9 
REMARK    3  A    between atoms: C_5  and  C_11 
REMARK    4  A    between atoms: C_12  and  C_13 
ROOT
ATOM      1  O   UNL A   1     -52.736  47.865  14.252  1.00  0.00    -0.358 OA
ATOM      2  H   UNL A   1     -53.145  47.026  14.178  1.00  0.00     0.217 HD
ENDROOT
BRANCH   1   3
ATOM      3  C   UNL A   1     -53.081  48.869  13.400  1.00  0.00     0.099 A 
ATOM      4  C   UNL A   1     -53.289  48.583  12.050  1.00  0.00     0.050 A 
ATOM      5  C   UNL A   1     -53.645  49.604  11.168  1.00  0.00    -0.033 A 
ATOM      6  C   UNL A   1     -53.794  50.909  11.636  1.00  0.00     0.014 A 
ATOM      7  C   UNL A   1     -53.587  51.194  12.985  1.00  0.00     0.040 A 
ATOM      8  C   UNL A   1     -53.231  50.174  13.867  1.00  0.00     0.098 A 
BRANCH   5   9
ATOM      9  C   UNL A   1     -53.860  49.306   9.761  1.00  0.00     0.018 C 
ATOM     10  C   UNL A   1     -53.146  48.399   9.099  1.00  0.00     0.085 C 
BRANCH  10  11
ATOM     11  C   UNL A   1     -53.433  48.184   7.666  1.00  0.00     0.198 C 
ATOM     12  O   UNL A   1     -52.326  48.496   6.951  1.00  0.00    -0.645 OA
ATOM     13  O   UNL A   1     -54.484  47.793   7.187  1.00  0.00    -0.645 OA
ENDBRANCH  10  11
ENDBRANCH   5   9
BRANCH   8  14
ATOM     14  O   UNL A   1     -53.032  50.465  15.183  1.00  0.00    -0.358 OA
ATOM     15  H   UNL A   1     -53.691  50.251  15.814  1.00  0.00     0.217 HD
ENDBRANCH   8  14
ENDBRANCH   1   3
TORSDOF 4
ENDMDL
MODEL 6
REMARK VINA RESULT:     -18.0      2.580      3.695
REMARK  4 active torsions:
REMARK  status: ('A' for Active; 'I' for Inactive)
REMARK    1  A    between atoms: O_1  and  C_8 
REMARK    2  A    between atoms: O_2  and  C_9 
REMARK    3  A    between atoms: C_5  and  C_11 
REMARK    4  A    between atoms: C_12  and  C_13 
ROOT
ATOM      1  O   UNL A   1     -56.107  46.185   8.780  1.00  0.00    -0.358 OA
ATOM      2  H   UNL A   1     -56.974  46.368   8.477  1.00  0.00     0.217 HD
ENDROOT
BRANCH   1   3
ATOM      3  C   UNL A   1     -55.138  47.137   8.689  1.00  0.00     0.099 A 
ATOM      4  C   UNL A   1     -55.080  48.151   9.644  1.00  0.00     0.050 A 
ATOM      5  C   UNL A   1     -54.090  49.132   9.562  1.00  0.00    -0.033 A 
ATOM      6  C   UNL A   1     -53.158  49.095   8.525  1.00  0.00     0.014 A 
ATOM      7  C   UNL A   1     -53.215  48.080   7.570  1.00  0.00     0.040 A 
ATOM      8  C   UNL A   1     -54.205  47.101   7.652  1.00  0.00     0.098 A 
BRANCH   5   9
ATOM      9  C   UNL A   1     -54.031  50.190  10.557  1.00  0.00     0.018 C 
ATOM     10  C   UNL A   1     -53.693  49.969  11.825  1.00  0.00     0.085 C 
BRANCH  10  11
ATOM     11  C   UNL A   1     -53.680  51.112  12.761  1.00  0.00     0.198 C 
ATOM     12  O   UNL A   1     -53.631  50.635  14.027  1.00  0.00    -0.645 OA
ATOM     13  O   UNL A   1     -53.709  52.294  12.463  1.00  0.00    -0.645 OA
ENDBRANCH  10  11
ENDBRANCH   5   9
BRANCH   8  14
ATOM     14  O   UNL A   1     -54.251  46.115   6.714  1.00  0.00    -0.358 OA
ATOM     15  H   UNL A   1     -53.599  46.077   6.042  1.00  0.00     0.217 HD
ENDBRANCH   8  14
ENDBRANCH   1   3
TORSDOF 4
ENDMDL
MODEL 7
REMARK VINA RESULT:     -17.8      2.365      3.519
REMARK  4 active torsions:
REMARK  status: ('A' for Active; 'I' for Inactive)
REMARK    1  A    between atoms: O_1  and  C_8 
REMARK    2  A    between atoms: O_2  and  C_9 
REMARK    3  A    between atoms: C_5  and  C_11 
REMARK    4  A    between atoms: C_12  and  C_13 
ROOT
ATOM      1  O   UNL A   1     -52.404  48.608   6.374  1.00  0.00    -0.358 OA
ATOM      2  H   UNL A   1     -52.719  49.031   5.600  1.00  0.00     0.217 HD
ENDROOT
BRANCH   1   3
ATOM      3  C   UNL A   1     -53.228  48.447   7.446  1.00  0.00     0.099 A 
ATOM      4  C   UNL A   1     -53.205  49.384   8.478  1.00  0.00     0.050 A 
ATOM      5  C   UNL A   1     -54.047  49.230   9.580  1.00  0.00    -0.033 A 
ATOM      6  C   UNL A   1     -54.913  48.139   9.648  1.00  0.00     0.014 A 
ATOM      7  C   UNL A   1     -54.937  47.202   8.615  1.00  0.00     0.040 A 
ATOM      8  C   UNL A   1     -54.095  47.356   7.514  1.00  0.00     0.098 A 
BRANCH   5   9
ATOM      9  C   UNL A   1     -54.020  50.207  10.657  1.00  0.00     0.018 C 
ATOM     10  C   UNL A   1     -53.663  49.899  11.901  1.00  0.00     0.085 C 
BRANCH  10  11
ATOM     11  C   UNL A   1     -53.687  50.962  12.926  1.00  0.00     0.198 C 
ATOM     12  O   UNL A   1     -53.752  50.385  14.149  1.00  0.00    -0.645 OA
ATOM     13  O   UNL A   1     -53.655  52.165  12.724  1.00  0.00    -0.645 OA
ENDBRANCH  10  11
ENDBRANCH   5   9
BRANCH   8  14
ATOM     14  O   UNL A   1     -54.129  46.435   6.511  1.00  0.00    -0.358 OA
ATOM     15  H   UNL A   1     -53.342  46.209   6.056  1.00  0.00     0.217 HD
ENDBRANCH   8  14
ENDBRANCH   1   3
TORSDOF 4
ENDMDL
MODEL 8
REMARK VINA RESULT:     -17.7      2.477      5.068
REMARK  4 active torsions:
REMARK  status: ('A' for Active; 'I' for Inactive)
REMARK    1  A    between atoms: O_1  and  C_8 
REMARK    2  A    between atoms: O_2  and  C_9 
REMARK    3  A    between atoms: C_5  and  C_11 
REMARK    4  A    between atoms: C_12  and  C_13 
ROOT
ATOM      1  O   UNL A   1     -53.472  50.823  13.830  1.00  0.00    -0.358 OA
ATOM      2  H   UNL A   1     -53.910  51.491  14.320  1.00  0.00     0.217 HD
ENDROOT
BRANCH   1   3
ATOM      3  C   UNL A   1     -53.667  50.725  12.486  1.00  0.00     0.099 A 
ATOM      4  C   UNL A   1     -53.794  49.466  11.899  1.00  0.00     0.050 A 
ATOM      5  C   UNL A   1     -53.996  49.354  10.523  1.00  0.00    -0.033 A 
ATOM      6  C   UNL A   1     -54.074  50.503   9.735  1.00  0.00     0.014 A 
ATOM      7  C   UNL A   1     -53.948  51.762  10.322  1.00  0.00     0.040 A 
ATOM      8  C   UNL A   1     -53.745  51.873  11.697  1.00  0.00     0.098 A 
BRANCH   5   9
ATOM      9  C   UNL A   1     -54.126  48.042   9.912  1.00  0.00     0.018 C 
ATOM     10  C   UNL A   1     -55.153  47.706   9.136  1.00  0.00     0.085 C 
BRANCH  10  11
ATOM     11  C   UNL A   1     -55.199  46.340   8.578  1.00  0.00     0.198 C 
ATOM     12  O   UNL A   1     -54.306  46.256   7.562  1.00  0.00    -0.645 OA
ATOM     13  O   UNL A   1     -55.913  45.426   8.953  1.00  0.00    -0.645 OA
ENDBRANCH  10  11
ENDBRANCH   5   9
BRANCH   8  14
ATOM     14  O   UNL A   1     -53.625  53.108  12.258  1.00  0.00    -0.358 OA
ATOM     15  H   UNL A   1     -52.828  53.353  12.686  1.00  0.00     0.217 HD
ENDBRANCH   8  14
ENDBRANCH   1   3
TORSDOF 4
ENDMDL
MODEL 9
REMARK VINA RESULT:     -17.6      2.777      4.732
REMARK  4 active torsions:
REMARK  status: ('A' for Active; 'I' for Inactive)
REMARK    1  A    between atoms: O_1  and  C_8 
REMARK    2  A    between atoms: O_2  and  C_9 
REMARK    3  A    between atoms: C_5  and  C_11 
REMARK    4  A    between atoms: C_12  and  C_13 
ROOT
ATOM      1  O   UNL A   1     -54.058  52.727   9.282  1.00  0.00    -0.358 OA
ATOM      2  H   UNL A   1     -53.397  53.391   9.276  1.00  0.00     0.217 HD
ENDROOT
BRANCH   1   3
ATOM      3  C   UNL A   1     -53.950  51.666  10.128  1.00  0.00     0.099 A 
ATOM      4  C   UNL A   1     -54.002  50.370   9.616  1.00  0.00     0.050 A 
ATOM      5  C   UNL A   1     -53.890  49.275  10.473  1.00  0.00    -0.033 A 
ATOM      6  C   UNL A   1     -53.724  49.477  11.843  1.00  0.00     0.014 A 
ATOM      7  C   UNL A   1     -53.671  50.773  12.356  1.00  0.00     0.040 A 
ATOM      8  C   UNL A   1     -53.784  51.867  11.498  1.00  0.00     0.098 A 
BRANCH   5   9
ATOM      9  C   UNL A   1     -53.947  47.924   9.938  1.00  0.00     0.018 C 
ATOM     10  C   UNL A   1     -54.952  47.489   9.183  1.00  0.00     0.085 C 
BRANCH  10  11
ATOM     11  C   UNL A   1     -54.922  46.093   8.704  1.00  0.00     0.198 C 
ATOM     12  O   UNL A   1     -56.179  45.591   8.749  1.00  0.00    -0.645 OA
ATOM     13  O   UNL A   1     -53.939  45.476   8.326  1.00  0.00    -0.645 OA
ENDBRANCH  10  11
ENDBRANCH   5   9
BRANCH   8  14
ATOM     14  O   UNL A   1     -53.728  53.128  12.011  1.00  0.00    -0.358 OA
ATOM     15  H   UNL A   1     -52.911  53.478  12.306  1.00  0.00     0.217 HD
ENDBRANCH   8  14
ENDBRANCH   1   3
TORSDOF 4
ENDMDL
