MODEL 1
REMARK VINA RESULT:      -8.6      0.000      0.000
REMARK  4 active torsions:
REMARK  status: ('A' for Active; 'I' for Inactive)
REMARK    1  A    between atoms: O_1  and  C_8 
REMARK    2  A    between atoms: O_2  and  C_9 
REMARK    3  A    between atoms: C_5  and  C_11 
REMARK    4  A    between atoms: C_12  and  C_13 
ROOT
ATOM      1  O   UNL A   1     -56.894  45.226   8.212  1.00  0.00    -0.358 OA
ATOM      2  H   UNL A   1     -56.871  44.611   7.505  1.00  0.00     0.217 HD
ENDROOT
BRANCH   1   3
ATOM      3  C   UNL A   1     -55.774  45.928   8.540  1.00  0.00     0.099 A 
ATOM      4  C   UNL A   1     -55.884  47.275   8.883  1.00  0.00     0.050 A 
ATOM      5  C   UNL A   1     -54.744  48.004   9.224  1.00  0.00    -0.033 A 
ATOM      6  C   UNL A   1     -53.495  47.384   9.223  1.00  0.00     0.014 A 
ATOM      7  C   UNL A   1     -53.385  46.036   8.881  1.00  0.00     0.040 A 
ATOM      8  C   UNL A   1     -54.525  45.309   8.540  1.00  0.00     0.098 A 
BRANCH   5   9
ATOM      9  C   UNL A   1     -54.859  49.409   9.579  1.00  0.00     0.018 C 
ATOM     10  C   UNL A   1     -53.834  50.255   9.517  1.00  0.00     0.085 C 
BRANCH  10  11
ATOM     11  C   UNL A   1     -54.053  51.660   9.917  1.00  0.00     0.198 C 
ATOM     12  O   UNL A   1     -54.518  52.348   8.848  1.00  0.00    -0.645 OA
ATOM     13  O   UNL A   1     -53.855  52.139  11.021  1.00  0.00    -0.645 OA
ENDBRANCH  10  11
ENDBRANCH   5   9
BRANCH   8  14
ATOM     14  O   UNL A   1     -54.405  43.993   8.209  1.00  0.00    -0.358 OA
ATOM     15  H   UNL A   1     -53.965  43.747   7.419  1.00  0.00     0.217 HD
ENDBRANCH   8  14
ENDBRANCH   1   3
TORSDOF 4
ENDMDL
MODEL 2
REMARK VINA RESULT:      -8.1      1.314      1.501
REMARK  4 active torsions:
REMARK  status: ('A' for Active; 'I' for Inactive)
REMARK    1  A    between atoms: O_1  and  C_8 
REMARK    2  A    between atoms: O_2  and  C_9 
REMARK    3  A    between atoms: C_5  and  C_11 
REMARK    4  A    between atoms: C_12  and  C_13 
ROOT
ATOM      1  O   UNL A   1     -55.160  44.759   7.857  1.00  0.00    -0.358 OA
ATOM      2  H   UNL A   1     -55.149  45.144   7.003  1.00  0.00     0.217 HD
ENDROOT
BRANCH   1   3
ATOM      3  C   UNL A   1     -54.434  45.318   8.864  1.00  0.00     0.099 A 
ATOM      4  C   UNL A   1     -54.442  46.702   9.032  1.00  0.00     0.050 A 
ATOM      5  C   UNL A   1     -53.703  47.286  10.062  1.00  0.00    -0.033 A 
ATOM      6  C   UNL A   1     -52.958  46.483  10.925  1.00  0.00     0.014 A 
ATOM      7  C   UNL A   1     -52.950  45.098  10.758  1.00  0.00     0.040 A 
ATOM      8  C   UNL A   1     -53.688  44.516   9.728  1.00  0.00     0.098 A 
BRANCH   5   9
ATOM      9  C   UNL A   1     -53.711  48.729  10.235  1.00  0.00     0.018 C 
ATOM     10  C   UNL A   1     -54.162  49.564   9.303  1.00  0.00     0.085 C 
BRANCH  10  11
ATOM     11  C   UNL A   1     -54.110  51.016   9.571  1.00  0.00     0.198 C 
ATOM     12  O   UNL A   1     -54.398  51.679   8.426  1.00  0.00    -0.645 OA
ATOM     13  O   UNL A   1     -53.853  51.548  10.638  1.00  0.00    -0.645 OA
ENDBRANCH  10  11
ENDBRANCH   5   9
BRANCH   8  14
ATOM     14  O   UNL A   1     -53.673  43.162   9.576  1.00  0.00    -0.358 OA
ATOM     15  H   UNL A   1     -54.389  42.648   9.894  1.00  0.00     0.217 HD
ENDBRANCH   8  14
ENDBRANCH   1   3
TORSDOF 4
ENDMDL
MODEL 3
REMARK VINA RESULT:      -8.1      1.006      2.257
REMARK  4 active torsions:
REMARK  status: ('A' for Active; 'I' for Inactive)
REMARK    1  A    between atoms: O_1  and  C_8 
REMARK    2  A    between atoms: O_2  and  C_9 
REMARK    3  A    between atoms: C_5  and  C_11 
REMARK    4  A    between atoms: C_12  and  C_13 
ROOT
ATOM      1  O   UNL A   1     -54.775  44.989   8.091  1.00  0.00    -0.358 OA
ATOM      2  H   UNL A   1     -53.858  44.927   8.273  1.00  0.00     0.217 HD
ENDROOT
BRANCH   1   3
ATOM      3  C   UNL A   1     -55.497  46.036   8.578  1.00  0.00     0.099 A 
ATOM      4  C   UNL A   1     -54.834  47.182   9.016  1.00  0.00     0.050 A 
ATOM      5  C   UNL A   1     -55.563  48.262   9.516  1.00  0.00    -0.033 A 
ATOM      6  C   UNL A   1     -56.955  48.195   9.575  1.00  0.00     0.014 A 
ATOM      7  C   UNL A   1     -57.618  47.049   9.136  1.00  0.00     0.040 A 
ATOM      8  C   UNL A   1     -56.888  45.970   8.638  1.00  0.00     0.098 A 
BRANCH   5   9
ATOM      9  C   UNL A   1     -54.872  49.456   9.974  1.00  0.00     0.018 C 
ATOM     10  C   UNL A   1     -54.844  50.587   9.273  1.00  0.00     0.085 C 
BRANCH  10  11
ATOM     11  C   UNL A   1     -54.098  51.738   9.821  1.00  0.00     0.198 C 
ATOM     12  O   UNL A   1     -54.026  51.608  11.167  1.00  0.00    -0.645 OA
ATOM     13  O   UNL A   1     -53.619  52.661   9.185  1.00  0.00    -0.645 OA
ENDBRANCH  10  11
ENDBRANCH   5   9
BRANCH   8  14
ATOM     14  O   UNL A   1     -57.547  44.856   8.211  1.00  0.00    -0.358 OA
ATOM     15  H   UNL A   1     -58.452  44.909   7.974  1.00  0.00     0.217 HD
ENDBRANCH   8  14
ENDBRANCH   1   3
TORSDOF 4
ENDMDL
MODEL 4
REMARK VINA RESULT:      -7.7      0.829      2.099
REMARK  4 active torsions:
REMARK  status: ('A' for Active; 'I' for Inactive)
REMARK    1  A    between atoms: O_1  and  C_8 
REMARK    2  A    between atoms: O_2  and  C_9 
REMARK    3  A    between atoms: C_5  and  C_11 
REMARK    4  A    between atoms: C_12  and  C_13 
ROOT
ATOM      1  O   UNL A   1     -52.180  45.496   9.270  1.00  0.00    -0.358 OA
ATOM      2  H   UNL A   1     -51.868  44.912   8.607  1.00  0.00     0.217 HD
ENDROOT
BRANCH   1   3
ATOM      3  C   UNL A   1     -53.383  46.116   9.119  1.00  0.00     0.099 A 
ATOM      4  C   UNL A   1     -53.502  47.470   9.433  1.00  0.00     0.050 A 
ATOM      5  C   UNL A   1     -54.729  48.116   9.281  1.00  0.00    -0.033 A 
ATOM      6  C   UNL A   1     -55.836  47.409   8.814  1.00  0.00     0.014 A 
ATOM      7  C   UNL A   1     -55.717  46.055   8.500  1.00  0.00     0.040 A 
ATOM      8  C   UNL A   1     -54.491  45.409   8.653  1.00  0.00     0.098 A 
BRANCH   5   9
ATOM      9  C   UNL A   1     -54.852  49.527   9.609  1.00  0.00     0.018 C 
ATOM     10  C   UNL A   1     -53.918  50.424   9.302  1.00  0.00     0.085 C 
BRANCH  10  11
ATOM     11  C   UNL A   1     -54.134  51.830   9.696  1.00  0.00     0.198 C 
ATOM     12  O   UNL A   1     -53.821  51.967  11.007  1.00  0.00    -0.645 OA
ATOM     13  O   UNL A   1     -54.528  52.733   8.977  1.00  0.00    -0.645 OA
ENDBRANCH  10  11
ENDBRANCH   5   9
BRANCH   8  14
ATOM     14  O   UNL A   1     -54.387  44.087   8.341  1.00  0.00    -0.358 OA
ATOM     15  H   UNL A   1     -54.668  43.437   8.956  1.00  0.00     0.217 HD
ENDBRANCH   8  14
ENDBRANCH   1   3
TORSDOF 4
ENDMDL
MODEL 5
REMARK VINA RESULT:      -7.6      1.835      2.689
REMARK  4 active torsions:
REMARK  status: ('A' for Active; 'I' for Inactive)
REMARK    1  A    between atoms: O_1  and  C_8 
REMARK    2  A    between atoms: O_2  and  C_9 
REMARK    3  A    between atoms: C_5  and  C_11 
REMARK    4  A    between atoms: C_12  and  C_13 
ROOT
ATOM      1  O   UNL A   1     -52.216  44.719  11.937  1.00  0.00    -0.358 OA
ATOM      2  H   UNL A   1     -51.332  44.494  11.725  1.00  0.00     0.217 HD
ENDROOT
BRANCH   1   3
ATOM      3  C   UNL A   1     -52.992  45.368  11.025  1.00  0.00     0.099 A 
ATOM      4  C   UNL A   1     -52.842  46.744  10.852  1.00  0.00     0.050 A 
ATOM      5  C   UNL A   1     -53.629  47.420   9.919  1.00  0.00    -0.033 A 
ATOM      6  C   UNL A   1     -54.565  46.719   9.159  1.00  0.00     0.014 A 
ATOM      7  C   UNL A   1     -54.714  45.343   9.332  1.00  0.00     0.040 A 
ATOM      8  C   UNL A   1     -53.927  44.668  10.265  1.00  0.00     0.098 A 
BRANCH   5   9
ATOM      9  C   UNL A   1     -53.474  48.854   9.740  1.00  0.00     0.018 C 
ATOM     10  C   UNL A   1     -54.508  49.683   9.626  1.00  0.00     0.085 C 
BRANCH  10  11
ATOM     11  C   UNL A   1     -54.241  51.122   9.430  1.00  0.00     0.198 C 
ATOM     12  O   UNL A   1     -53.813  51.648  10.602  1.00  0.00    -0.645 OA
ATOM     13  O   UNL A   1     -54.377  51.751   8.394  1.00  0.00    -0.645 OA
ENDBRANCH  10  11
ENDBRANCH   5   9
BRANCH   8  14
ATOM     14  O   UNL A   1     -54.082  43.324  10.423  1.00  0.00    -0.358 OA
ATOM     15  H   UNL A   1     -54.868  42.984  10.803  1.00  0.00     0.217 HD
ENDBRANCH   8  14
ENDBRANCH   1   3
TORSDOF 4
ENDMDL
MODEL 6
REMARK VINA RESULT:      -6.8      3.853      4.655
REMARK  4 active torsions:
REMARK  status: ('A' for Active; 'I' for Inactive)
REMARK    1  A    between atoms: O_1  and  C_8 
REMARK    2  A    between atoms: O_2  and  C_9 
REMARK    3  A    between atoms: C_5  and  C_11 
REMARK    4  A    between atoms: C_12  and  C_13 
ROOT
ATOM      1  O   UNL A   1     -54.338  48.493   8.396  1.00  0.00    -0.358 OA
ATOM      2  H   UNL A   1     -53.763  49.229   8.325  1.00  0.00     0.217 HD
ENDROOT
BRANCH   1   3
ATOM      3  C   UNL A   1     -54.008  47.445   9.200  1.00  0.00     0.099 A 
ATOM      4  C   UNL A   1     -53.162  47.655  10.289  1.00  0.00     0.050 A 
ATOM      5  C   UNL A   1     -52.818  46.589  11.121  1.00  0.00    -0.033 A 
ATOM      6  C   UNL A   1     -53.323  45.314  10.866  1.00  0.00     0.014 A 
ATOM      7  C   UNL A   1     -54.171  45.105   9.778  1.00  0.00     0.040 A 
ATOM      8  C   UNL A   1     -54.513  46.170   8.946  1.00  0.00     0.098 A 
BRANCH   5   9
ATOM      9  C   UNL A   1     -51.934  46.808  12.255  1.00  0.00     0.018 C 
ATOM     10  C   UNL A   1     -52.369  46.848  13.511  1.00  0.00     0.085 C 
BRANCH  10  11
ATOM     11  C   UNL A   1     -51.390  47.093  14.589  1.00  0.00     0.198 C 
ATOM     12  O   UNL A   1     -51.244  48.431  14.747  1.00  0.00    -0.645 OA
ATOM     13  O   UNL A   1     -50.800  46.248  15.240  1.00  0.00    -0.645 OA
ENDBRANCH  10  11
ENDBRANCH   5   9
BRANCH   8  14
ATOM     14  O   UNL A   1     -55.342  45.953   7.887  1.00  0.00    -0.358 OA
ATOM     15  H   UNL A   1     -56.240  46.220   7.933  1.00  0.00     0.217 HD
ENDBRANCH   8  14
ENDBRANCH   1   3
TORSDOF 4
ENDMDL
MODEL 7
REMARK VINA RESULT:      -6.5      4.210      6.263
REMARK  4 active torsions:
REMARK  status: ('A' for Active; 'I' for Inactive)
REMARK    1  A    between atoms: O_1  and  C_8 
REMARK    2  A    between atoms: O_2  and  C_9 
REMARK    3  A    between atoms: C_5  and  C_11 
REMARK    4  A    between atoms: C_12  and  C_13 
ROOT
ATOM      1  O   UNL A   1     -50.027  42.243   4.366  1.00  0.00    -0.358 OA
ATOM      2  H   UNL A   1     -49.164  41.915   4.204  1.00  0.00     0.217 HD
ENDROOT
BRANCH   1   3
ATOM      3  C   UNL A   1     -50.406  42.564   5.633  1.00  0.00     0.099 A 
ATOM      4  C   UNL A   1     -51.564  43.316   5.834  1.00  0.00     0.050 A 
ATOM      5  C   UNL A   1     -51.964  43.650   7.129  1.00  0.00    -0.033 A 
ATOM      6  C   UNL A   1     -51.207  43.229   8.222  1.00  0.00     0.014 A 
ATOM      7  C   UNL A   1     -50.050  42.476   8.021  1.00  0.00     0.040 A 
ATOM      8  C   UNL A   1     -49.650  42.144   6.727  1.00  0.00     0.098 A 
BRANCH   5   9
ATOM      9  C   UNL A   1     -53.169  44.436   7.337  1.00  0.00     0.018 C 
ATOM     10  C   UNL A   1     -53.533  44.894   8.532  1.00  0.00     0.085 C 
BRANCH  10  11
ATOM     11  C   UNL A   1     -54.786  45.669   8.638  1.00  0.00     0.198 C 
ATOM     12  O   UNL A   1     -54.489  46.988   8.561  1.00  0.00    -0.645 OA
ATOM     13  O   UNL A   1     -55.910  45.215   8.773  1.00  0.00    -0.645 OA
ENDBRANCH  10  11
ENDBRANCH   5   9
BRANCH   8  14
ATOM     14  O   UNL A   1     -48.519  41.407   6.544  1.00  0.00    -0.358 OA
ATOM     15  H   UNL A   1     -48.535  40.655   5.985  1.00  0.00     0.217 HD
ENDBRANCH   8  14
ENDBRANCH   1   3
TORSDOF 4
ENDMDL
MODEL 8
REMARK VINA RESULT:      -6.5      2.659      3.675
REMARK  4 active torsions:
REMARK  status: ('A' for Active; 'I' for Inactive)
REMARK    1  A    between atoms: O_1  and  C_8 
REMARK    2  A    between atoms: O_2  and  C_9 
REMARK    3  A    between atoms: C_5  and  C_11 
REMARK    4  A    between atoms: C_12  and  C_13 
ROOT
ATOM      1  O   UNL A   1     -54.648  42.660   6.671  1.00  0.00    -0.358 OA
ATOM      2  H   UNL A   1     -54.627  41.794   6.314  1.00  0.00     0.217 HD
ENDROOT
BRANCH   1   3
ATOM      3  C   UNL A   1     -53.532  43.186   7.247  1.00  0.00     0.099 A 
ATOM      4  C   UNL A   1     -53.547  44.508   7.693  1.00  0.00     0.050 A 
ATOM      5  C   UNL A   1     -52.409  45.057   8.286  1.00  0.00    -0.033 A 
ATOM      6  C   UNL A   1     -51.258  44.283   8.434  1.00  0.00     0.014 A 
ATOM      7  C   UNL A   1     -51.244  42.962   7.989  1.00  0.00     0.040 A 
ATOM      8  C   UNL A   1     -52.381  42.413   7.395  1.00  0.00     0.098 A 
BRANCH   5   9
ATOM      9  C   UNL A   1     -52.425  46.435   8.750  1.00  0.00     0.018 C 
ATOM     10  C   UNL A   1     -53.521  47.026   9.217  1.00  0.00     0.085 C 
BRANCH  10  11
ATOM     11  C   UNL A   1     -53.434  48.436   9.646  1.00  0.00     0.198 C 
ATOM     12  O   UNL A   1     -53.233  49.211   8.554  1.00  0.00    -0.645 OA
ATOM     13  O   UNL A   1     -53.524  48.854  10.789  1.00  0.00    -0.645 OA
ENDBRANCH  10  11
ENDBRANCH   5   9
BRANCH   8  14
ATOM     14  O   UNL A   1     -52.354  41.121   6.966  1.00  0.00    -0.358 OA
ATOM     15  H   UNL A   1     -52.971  40.502   7.304  1.00  0.00     0.217 HD
ENDBRANCH   8  14
ENDBRANCH   1   3
TORSDOF 4
ENDMDL
MODEL 9
REMARK VINA RESULT:      -6.4      1.980      6.049
REMARK  4 active torsions:
REMARK  status: ('A' for Active; 'I' for Inactive)
REMARK    1  A    between atoms: O_1  and  C_8 
REMARK    2  A    between atoms: O_2  and  C_9 
REMARK    3  A    between atoms: C_5  and  C_11 
REMARK    4  A    between atoms: C_12  and  C_13 
ROOT
ATOM      1  O   UNL A   1     -52.519  47.993  11.517  1.00  0.00    -0.358 OA
ATOM      2  H   UNL A   1     -52.717  47.978  12.433  1.00  0.00     0.217 HD
ENDROOT
BRANCH   1   3
ATOM      3  C   UNL A   1     -53.507  47.784  10.604  1.00  0.00     0.099 A 
ATOM      4  C   UNL A   1     -53.576  46.561   9.935  1.00  0.00     0.050 A 
ATOM      5  C   UNL A   1     -54.585  46.335   8.998  1.00  0.00    -0.033 A 
ATOM      6  C   UNL A   1     -55.525  47.330   8.731  1.00  0.00     0.014 A 
ATOM      7  C   UNL A   1     -55.456  48.552   9.401  1.00  0.00     0.040 A 
ATOM      8  C   UNL A   1     -54.447  48.778  10.336  1.00  0.00     0.098 A 
BRANCH   5   9
ATOM      9  C   UNL A   1     -54.656  45.061   8.300  1.00  0.00     0.018 C 
ATOM     10  C   UNL A   1     -53.598  44.494   7.726  1.00  0.00     0.085 C 
BRANCH  10  11
ATOM     11  C   UNL A   1     -53.782  43.206   7.027  1.00  0.00     0.198 C 
ATOM     12  O   UNL A   1     -55.041  43.156   6.532  1.00  0.00    -0.645 OA
ATOM     13  O   UNL A   1     -52.950  42.322   6.905  1.00  0.00    -0.645 OA
ENDBRANCH  10  11
ENDBRANCH   5   9
BRANCH   8  14
ATOM     14  O   UNL A   1     -54.391  49.975  10.984  1.00  0.00    -0.358 OA
ATOM     15  H   UNL A   1     -53.905  50.054  11.782  1.00  0.00     0.217 HD
ENDBRANCH   8  14
ENDBRANCH   1   3
TORSDOF 4
ENDMDL
