MODEL 1
REMARK VINA RESULT:      -6.4      0.000      0.000
REMARK  7 active torsions:
REMARK  status: ('A' for Active; 'I' for Inactive)
REMARK    1  A    between atoms: O_1  and  C_2 
REMARK    2  A    between atoms: C_2  and  C_3 
REMARK    3  A    between atoms: C_2  and  C_8 
REMARK    4  A    between atoms: C_3  and  C_4 
REMARK    5  A    between atoms: C_4  and  C_5 
REMARK    6  A    between atoms: C_8  and  C_9 
REMARK    7  A    between atoms: C_11  and  O_15 
ROOT
HETATM    1  O   UNL     1     -56.032  46.187   8.959  1.00  0.00    -0.395 OA
HETATM    2  H   UNL     1     -56.262  46.268   8.020  1.00  0.00     0.210 HD
ENDROOT
BRANCH   1   3
HETATM    3  C   UNL     1     -54.714  45.654   9.082  1.00  0.00     0.122 C 
BRANCH   3   4
HETATM    4  C   UNL     1     -54.601  44.351   8.274  1.00  0.00     0.042 C 
BRANCH   4   5
HETATM    5  C   UNL     1     -55.090  43.118   9.038  1.00  0.00     0.116 C 
BRANCH   5   6
HETATM    6  C   UNL     1     -56.432  42.573   8.621  1.00  0.00     0.172 C 
HETATM    7  O   UNL     1     -56.886  42.610   7.488  1.00  0.00    -0.648 OA
HETATM    8  O   UNL     1     -57.186  42.097   9.631  1.00  0.00    -0.648 OA
ENDBRANCH   5   6
ENDBRANCH   4   5
ENDBRANCH   3   4
BRANCH   3   9
HETATM    9  C   UNL     1     -53.685  46.691   8.590  1.00  0.00     0.070 C 
BRANCH   9  10
HETATM   10  C   UNL     1     -53.640  47.937   9.448  1.00  0.00    -0.053 A 
HETATM   11  C   UNL     1     -53.663  49.210   8.857  1.00  0.00     0.043 A 
HETATM   12  C   UNL     1     -53.623  50.350   9.659  1.00  0.00     0.066 A 
HETATM   13  C   UNL     1     -53.560  50.248  11.043  1.00  0.00     0.036 A 
HETATM   14  C   UNL     1     -53.536  48.989  11.639  1.00  0.00     0.003 A 
HETATM   15  C   UNL     1     -53.576  47.840  10.846  1.00  0.00     0.007 A 
BRANCH  12  16
HETATM   16  O   UNL     1     -53.645  51.601   9.116  1.00  0.00    -0.361 OA
HETATM   17  H   UNL     1     -53.524  52.351   9.664  1.00  0.00     0.217 HD
ENDBRANCH  12  16
ENDBRANCH   9  10
ENDBRANCH   3   9
ENDBRANCH   1   3
TORSDOF 7
ENDMDL
MODEL 2
REMARK VINA RESULT:      -6.4      4.710      7.080
REMARK  7 active torsions:
REMARK  status: ('A' for Active; 'I' for Inactive)
REMARK    1  A    between atoms: O_1  and  C_2 
REMARK    2  A    between atoms: C_2  and  C_3 
REMARK    3  A    between atoms: C_2  and  C_8 
REMARK    4  A    between atoms: C_3  and  C_4 
REMARK    5  A    between atoms: C_4  and  C_5 
REMARK    6  A    between atoms: C_8  and  C_9 
REMARK    7  A    between atoms: C_11  and  O_15 
ROOT
HETATM    1  O   UNL     1     -52.618  49.892  15.588  1.00  0.00    -0.395 OA
HETATM    2  H   UNL     1     -52.467  49.318  16.355  1.00  0.00     0.210 HD
ENDROOT
BRANCH   1   3
HETATM    3  C   UNL     1     -52.303  49.180  14.392  1.00  0.00     0.122 C 
BRANCH   3   4
HETATM    4  C   UNL     1     -51.498  47.916  14.734  1.00  0.00     0.042 C 
BRANCH   4   5
HETATM    5  C   UNL     1     -50.436  48.145  15.812  1.00  0.00     0.116 C 
BRANCH   5   6
HETATM    6  C   UNL     1     -49.024  47.775  15.436  1.00  0.00     0.172 C 
HETATM    7  O   UNL     1     -48.018  48.339  15.835  1.00  0.00    -0.648 OA
HETATM    8  O   UNL     1     -48.924  46.794  14.516  1.00  0.00    -0.648 OA
ENDBRANCH   5   6
ENDBRANCH   4   5
ENDBRANCH   3   4
BRANCH   3   9
HETATM    9  C   UNL     1     -53.602  48.815  13.646  1.00  0.00     0.070 C 
BRANCH   9  10
HETATM   10  C   UNL     1     -53.488  48.966  12.145  1.00  0.00    -0.053 A 
HETATM   11  C   UNL     1     -53.725  50.208  11.534  1.00  0.00     0.043 A 
HETATM   12  C   UNL     1     -53.614  50.335  10.150  1.00  0.00     0.066 A 
HETATM   13  C   UNL     1     -53.273  49.245   9.359  1.00  0.00     0.036 A 
HETATM   14  C   UNL     1     -53.037  48.009   9.955  1.00  0.00     0.003 A 
HETATM   15  C   UNL     1     -53.143  47.870  11.341  1.00  0.00     0.007 A 
BRANCH  12  16
HETATM   16  O   UNL     1     -53.836  51.526   9.526  1.00  0.00    -0.361 OA
HETATM   17  H   UNL     1     -54.601  51.644   8.999  1.00  0.00     0.217 HD
ENDBRANCH  12  16
ENDBRANCH   9  10
ENDBRANCH   3   9
ENDBRANCH   1   3
TORSDOF 7
ENDMDL
MODEL 3
REMARK VINA RESULT:      -6.1      2.020      2.324
REMARK  7 active torsions:
REMARK  status: ('A' for Active; 'I' for Inactive)
REMARK    1  A    between atoms: O_1  and  C_2 
REMARK    2  A    between atoms: C_2  and  C_3 
REMARK    3  A    between atoms: C_2  and  C_8 
REMARK    4  A    between atoms: C_3  and  C_4 
REMARK    5  A    between atoms: C_4  and  C_5 
REMARK    6  A    between atoms: C_8  and  C_9 
REMARK    7  A    between atoms: C_11  and  O_15 
ROOT
HETATM    1  O   UNL     1     -53.784  46.541   7.038  1.00  0.00    -0.395 OA
HETATM    2  H   UNL     1     -53.755  47.407   6.602  1.00  0.00     0.210 HD
ENDROOT
BRANCH   1   3
HETATM    3  C   UNL     1     -54.143  46.711   8.409  1.00  0.00     0.122 C 
BRANCH   3   4
HETATM    4  C   UNL     1     -54.688  45.389   8.973  1.00  0.00     0.042 C 
BRANCH   4   5
HETATM    5  C   UNL     1     -53.595  44.461   9.508  1.00  0.00     0.116 C 
BRANCH   5   6
HETATM    6  C   UNL     1     -53.048  43.454   8.529  1.00  0.00     0.172 C 
HETATM    7  O   UNL     1     -53.237  42.249   8.578  1.00  0.00    -0.648 OA
HETATM    8  O   UNL     1     -52.220  43.966   7.597  1.00  0.00    -0.648 OA
ENDBRANCH   5   6
ENDBRANCH   4   5
ENDBRANCH   3   4
BRANCH   3   9
HETATM    9  C   UNL     1     -52.917  47.184   9.214  1.00  0.00     0.070 C 
BRANCH   9  10
HETATM   10  C   UNL     1     -53.148  48.495   9.935  1.00  0.00    -0.053 A 
HETATM   11  C   UNL     1     -53.400  49.671   9.211  1.00  0.00     0.043 A 
HETATM   12  C   UNL     1     -53.613  50.871   9.887  1.00  0.00     0.066 A 
HETATM   13  C   UNL     1     -53.580  50.925  11.275  1.00  0.00     0.036 A 
HETATM   14  C   UNL     1     -53.330  49.763  12.002  1.00  0.00     0.003 A 
HETATM   15  C   UNL     1     -53.116  48.554  11.336  1.00  0.00     0.007 A 
BRANCH  12  16
HETATM   16  O   UNL     1     -53.861  52.031   9.215  1.00  0.00    -0.361 OA
HETATM   17  H   UNL     1     -53.781  52.058   8.282  1.00  0.00     0.217 HD
ENDBRANCH  12  16
ENDBRANCH   9  10
ENDBRANCH   3   9
ENDBRANCH   1   3
TORSDOF 7
ENDMDL
MODEL 4
REMARK VINA RESULT:      -6.1      3.042      3.694
REMARK  7 active torsions:
REMARK  status: ('A' for Active; 'I' for Inactive)
REMARK    1  A    between atoms: O_1  and  C_2 
REMARK    2  A    between atoms: C_2  and  C_3 
REMARK    3  A    between atoms: C_2  and  C_8 
REMARK    4  A    between atoms: C_3  and  C_4 
REMARK    5  A    between atoms: C_4  and  C_5 
REMARK    6  A    between atoms: C_8  and  C_9 
REMARK    7  A    between atoms: C_11  and  O_15 
ROOT
HETATM    1  O   UNL     1     -52.215  45.029   8.971  1.00  0.00    -0.395 OA
HETATM    2  H   UNL     1     -52.847  44.719   9.639  1.00  0.00     0.210 HD
ENDROOT
BRANCH   1   3
HETATM    3  C   UNL     1     -52.045  46.440   9.095  1.00  0.00     0.122 C 
BRANCH   3   4
HETATM    4  C   UNL     1     -51.156  46.961   7.954  1.00  0.00     0.042 C 
BRANCH   4   5
HETATM    5  C   UNL     1     -51.932  47.271   6.672  1.00  0.00     0.116 C 
BRANCH   5   6
HETATM    6  C   UNL     1     -52.157  46.108   5.740  1.00  0.00     0.172 C 
HETATM    7  O   UNL     1     -51.435  45.807   4.802  1.00  0.00    -0.648 OA
HETATM    8  O   UNL     1     -53.304  45.432   5.947  1.00  0.00    -0.648 OA
ENDBRANCH   5   6
ENDBRANCH   4   5
ENDBRANCH   3   4
BRANCH   3   9
HETATM    9  C   UNL     1     -53.421  47.134   9.074  1.00  0.00     0.070 C 
BRANCH   9  10
HETATM   10  C   UNL     1     -53.442  48.438   9.843  1.00  0.00    -0.053 A 
HETATM   11  C   UNL     1     -53.603  49.659   9.171  1.00  0.00     0.043 A 
HETATM   12  C   UNL     1     -53.623  50.852   9.892  1.00  0.00     0.066 A 
HETATM   13  C   UNL     1     -53.484  50.854  11.274  1.00  0.00     0.036 A 
HETATM   14  C   UNL     1     -53.323  49.647  11.950  1.00  0.00     0.003 A 
HETATM   15  C   UNL     1     -53.302  48.445  11.239  1.00  0.00     0.007 A 
BRANCH  12  16
HETATM   16  O   UNL     1     -53.779  52.055   9.269  1.00  0.00    -0.361 OA
HETATM   17  H   UNL     1     -53.035  52.501   8.917  1.00  0.00     0.217 HD
ENDBRANCH  12  16
ENDBRANCH   9  10
ENDBRANCH   3   9
ENDBRANCH   1   3
TORSDOF 7
ENDMDL
MODEL 5
REMARK VINA RESULT:      -6.1      2.286      2.918
REMARK  7 active torsions:
REMARK  status: ('A' for Active; 'I' for Inactive)
REMARK    1  A    between atoms: O_1  and  C_2 
REMARK    2  A    between atoms: C_2  and  C_3 
REMARK    3  A    between atoms: C_2  and  C_8 
REMARK    4  A    between atoms: C_3  and  C_4 
REMARK    5  A    between atoms: C_4  and  C_5 
REMARK    6  A    between atoms: C_8  and  C_9 
REMARK    7  A    between atoms: C_11  and  O_15 
ROOT
HETATM    1  O   UNL     1     -55.403  46.639   8.814  1.00  0.00    -0.395 OA
HETATM    2  H   UNL     1     -55.466  47.578   9.049  1.00  0.00     0.210 HD
ENDROOT
BRANCH   1   3
HETATM    3  C   UNL     1     -54.076  46.176   9.063  1.00  0.00     0.122 C 
BRANCH   3   4
HETATM    4  C   UNL     1     -53.790  44.930   8.210  1.00  0.00     0.042 C 
BRANCH   4   5
HETATM    5  C   UNL     1     -52.453  44.995   7.469  1.00  0.00     0.116 C 
BRANCH   5   6
HETATM    6  C   UNL     1     -52.532  45.023   5.965  1.00  0.00     0.172 C 
HETATM    7  O   UNL     1     -53.443  45.513   5.316  1.00  0.00    -0.648 OA
HETATM    8  O   UNL     1     -51.537  44.367   5.335  1.00  0.00    -0.648 OA
ENDBRANCH   5   6
ENDBRANCH   4   5
ENDBRANCH   3   4
BRANCH   3   9
HETATM    9  C   UNL     1     -53.065  47.296   8.748  1.00  0.00     0.070 C 
BRANCH   9  10
HETATM   10  C   UNL     1     -53.236  48.516   9.628  1.00  0.00    -0.053 A 
HETATM   11  C   UNL     1     -53.460  49.779   9.059  1.00  0.00     0.043 A 
HETATM   12  C   UNL     1     -53.619  50.894   9.880  1.00  0.00     0.066 A 
HETATM   13  C   UNL     1     -53.556  50.777  11.263  1.00  0.00     0.036 A 
HETATM   14  C   UNL     1     -53.333  49.528  11.838  1.00  0.00     0.003 A 
HETATM   15  C   UNL     1     -53.174  48.403  11.025  1.00  0.00     0.007 A 
BRANCH  12  16
HETATM   16  O   UNL     1     -53.839  52.135   9.359  1.00  0.00    -0.361 OA
HETATM   17  H   UNL     1     -53.985  52.238   8.439  1.00  0.00     0.217 HD
ENDBRANCH  12  16
ENDBRANCH   9  10
ENDBRANCH   3   9
ENDBRANCH   1   3
TORSDOF 7
ENDMDL
MODEL 6
REMARK VINA RESULT:      -6.0      2.190      2.808
REMARK  7 active torsions:
REMARK  status: ('A' for Active; 'I' for Inactive)
REMARK    1  A    between atoms: O_1  and  C_2 
REMARK    2  A    between atoms: C_2  and  C_3 
REMARK    3  A    between atoms: C_2  and  C_8 
REMARK    4  A    between atoms: C_3  and  C_4 
REMARK    5  A    between atoms: C_4  and  C_5 
REMARK    6  A    between atoms: C_8  and  C_9 
REMARK    7  A    between atoms: C_11  and  O_15 
ROOT
HETATM    1  O   UNL     1     -50.325  45.617  10.674  1.00  0.00    -0.395 OA
HETATM    2  H   UNL     1     -50.391  45.150  11.521  1.00  0.00     0.210 HD
ENDROOT
BRANCH   1   3
HETATM    3  C   UNL     1     -51.631  45.801  10.129  1.00  0.00     0.122 C 
BRANCH   3   4
HETATM    4  C   UNL     1     -52.186  44.453   9.641  1.00  0.00     0.042 C 
BRANCH   4   5
HETATM    5  C   UNL     1     -53.714  44.378   9.674  1.00  0.00     0.116 C 
BRANCH   5   6
HETATM    6  C   UNL     1     -54.430  44.978   8.491  1.00  0.00     0.172 C 
HETATM    7  O   UNL     1     -54.034  44.948   7.337  1.00  0.00    -0.648 OA
HETATM    8  O   UNL     1     -55.548  45.667   8.799  1.00  0.00    -0.648 OA
ENDBRANCH   5   6
ENDBRANCH   4   5
ENDBRANCH   3   4
BRANCH   3   9
HETATM    9  C   UNL     1     -52.558  46.418  11.195  1.00  0.00     0.070 C 
BRANCH   9  10
HETATM   10  C   UNL     1     -52.949  47.848  10.887  1.00  0.00    -0.053 A 
HETATM   11  C   UNL     1     -53.076  48.281   9.558  1.00  0.00     0.043 A 
HETATM   12  C   UNL     1     -53.439  49.599   9.288  1.00  0.00     0.066 A 
HETATM   13  C   UNL     1     -53.680  50.499  10.318  1.00  0.00     0.036 A 
HETATM   14  C   UNL     1     -53.556  50.079  11.641  1.00  0.00     0.003 A 
HETATM   15  C   UNL     1     -53.194  48.760  11.923  1.00  0.00     0.007 A 
BRANCH  12  16
HETATM   16  O   UNL     1     -53.572  50.051   8.008  1.00  0.00    -0.361 OA
HETATM   17  H   UNL     1     -54.413  50.311   7.688  1.00  0.00     0.217 HD
ENDBRANCH  12  16
ENDBRANCH   9  10
ENDBRANCH   3   9
ENDBRANCH   1   3
TORSDOF 7
ENDMDL
MODEL 7
REMARK VINA RESULT:      -5.8      3.436      4.568
REMARK  7 active torsions:
REMARK  status: ('A' for Active; 'I' for Inactive)
REMARK    1  A    between atoms: O_1  and  C_2 
REMARK    2  A    between atoms: C_2  and  C_3 
REMARK    3  A    between atoms: C_2  and  C_8 
REMARK    4  A    between atoms: C_3  and  C_4 
REMARK    5  A    between atoms: C_4  and  C_5 
REMARK    6  A    between atoms: C_8  and  C_9 
REMARK    7  A    between atoms: C_11  and  O_15 
ROOT
HETATM    1  O   UNL     1     -54.628  47.225   8.866  1.00  0.00    -0.395 OA
HETATM    2  H   UNL     1     -55.132  47.926   8.425  1.00  0.00     0.210 HD
ENDROOT
BRANCH   1   3
HETATM    3  C   UNL     1     -53.374  47.746   9.305  1.00  0.00     0.122 C 
BRANCH   3   4
HETATM    4  C   UNL     1     -52.615  48.353   8.114  1.00  0.00     0.042 C 
BRANCH   4   5
HETATM    5  C   UNL     1     -51.574  47.407   7.511  1.00  0.00     0.116 C 
BRANCH   5   6
HETATM    6  C   UNL     1     -52.094  46.398   6.520  1.00  0.00     0.172 C 
HETATM    7  O   UNL     1     -51.440  45.494   6.025  1.00  0.00    -0.648 OA
HETATM    8  O   UNL     1     -53.363  46.607   6.116  1.00  0.00    -0.648 OA
ENDBRANCH   5   6
ENDBRANCH   4   5
ENDBRANCH   3   4
BRANCH   3   9
HETATM    9  C   UNL     1     -53.605  48.805  10.400  1.00  0.00     0.070 C 
BRANCH   9  10
HETATM   10  C   UNL     1     -53.043  48.402  11.747  1.00  0.00    -0.053 A 
HETATM   11  C   UNL     1     -53.084  49.292  12.831  1.00  0.00     0.043 A 
HETATM   12  C   UNL     1     -52.565  48.907  14.067  1.00  0.00     0.066 A 
HETATM   13  C   UNL     1     -52.002  47.649  14.244  1.00  0.00     0.036 A 
HETATM   14  C   UNL     1     -51.955  46.759  13.173  1.00  0.00     0.003 A 
HETATM   15  C   UNL     1     -52.474  47.133  11.931  1.00  0.00     0.007 A 
BRANCH  12  16
HETATM   16  O   UNL     1     -52.591  49.746  15.141  1.00  0.00    -0.361 OA
HETATM   17  H   UNL     1     -53.346  50.276  15.303  1.00  0.00     0.217 HD
ENDBRANCH  12  16
ENDBRANCH   9  10
ENDBRANCH   3   9
ENDBRANCH   1   3
TORSDOF 7
ENDMDL
MODEL 8
REMARK VINA RESULT:      -5.8      4.237      6.358
REMARK  7 active torsions:
REMARK  status: ('A' for Active; 'I' for Inactive)
REMARK    1  A    between atoms: O_1  and  C_2 
REMARK    2  A    between atoms: C_2  and  C_3 
REMARK    3  A    between atoms: C_2  and  C_8 
REMARK    4  A    between atoms: C_3  and  C_4 
REMARK    5  A    between atoms: C_4  and  C_5 
REMARK    6  A    between atoms: C_8  and  C_9 
REMARK    7  A    between atoms: C_11  and  O_15 
ROOT
HETATM    1  O   UNL     1     -52.389  45.005  13.603  1.00  0.00    -0.395 OA
HETATM    2  H   UNL     1     -52.667  44.452  12.856  1.00  0.00     0.210 HD
ENDROOT
BRANCH   1   3
HETATM    3  C   UNL     1     -51.961  46.277  13.119  1.00  0.00     0.122 C 
BRANCH   3   4
HETATM    4  C   UNL     1     -50.464  46.469  13.411  1.00  0.00     0.042 C 
BRANCH   4   5
HETATM    5  C   UNL     1     -50.142  46.549  14.905  1.00  0.00     0.116 C 
BRANCH   5   6
HETATM    6  C   UNL     1     -49.990  47.937  15.474  1.00  0.00     0.172 C 
HETATM    7  O   UNL     1     -48.934  48.446  15.816  1.00  0.00    -0.648 OA
HETATM    8  O   UNL     1     -51.149  48.592  15.680  1.00  0.00    -0.648 OA
ENDBRANCH   5   6
ENDBRANCH   4   5
ENDBRANCH   3   4
BRANCH   3   9
HETATM    9  C   UNL     1     -52.239  46.380  11.606  1.00  0.00     0.070 C 
BRANCH   9  10
HETATM   10  C   UNL     1     -52.763  47.737  11.188  1.00  0.00    -0.053 A 
HETATM   11  C   UNL     1     -52.971  48.033   9.832  1.00  0.00     0.043 A 
HETATM   12  C   UNL     1     -53.457  49.286   9.460  1.00  0.00     0.066 A 
HETATM   13  C   UNL     1     -53.740  50.254  10.416  1.00  0.00     0.036 A 
HETATM   14  C   UNL     1     -53.536  49.970  11.764  1.00  0.00     0.003 A 
HETATM   15  C   UNL     1     -53.051  48.718  12.148  1.00  0.00     0.007 A 
BRANCH  12  16
HETATM   16  O   UNL     1     -53.671  49.605   8.152  1.00  0.00    -0.361 OA
HETATM   17  H   UNL     1     -53.755  48.927   7.512  1.00  0.00     0.217 HD
ENDBRANCH  12  16
ENDBRANCH   9  10
ENDBRANCH   3   9
ENDBRANCH   1   3
TORSDOF 7
ENDMDL
MODEL 9
REMARK VINA RESULT:      -5.8      3.370      4.009
REMARK  7 active torsions:
REMARK  status: ('A' for Active; 'I' for Inactive)
REMARK    1  A    between atoms: O_1  and  C_2 
REMARK    2  A    between atoms: C_2  and  C_3 
REMARK    3  A    between atoms: C_2  and  C_8 
REMARK    4  A    between atoms: C_3  and  C_4 
REMARK    5  A    between atoms: C_4  and  C_5 
REMARK    6  A    between atoms: C_8  and  C_9 
REMARK    7  A    between atoms: C_11  and  O_15 
ROOT
HETATM    1  O   UNL     1     -51.652  45.038   8.957  1.00  0.00    -0.395 OA
HETATM    2  H   UNL     1     -52.505  44.671   9.237  1.00  0.00     0.210 HD
ENDROOT
BRANCH   1   3
HETATM    3  C   UNL     1     -51.717  46.464   8.980  1.00  0.00     0.122 C 
BRANCH   3   4
HETATM    4  C   UNL     1     -51.158  47.033   7.666  1.00  0.00     0.042 C 
BRANCH   4   5
HETATM    5  C   UNL     1     -52.185  47.066   6.532  1.00  0.00     0.116 C 
BRANCH   5   6
HETATM    6  C   UNL     1     -52.445  45.754   5.838  1.00  0.00     0.172 C 
HETATM    7  O   UNL     1     -53.512  45.413   5.351  1.00  0.00    -0.648 OA
HETATM    8  O   UNL     1     -51.411  44.889   5.861  1.00  0.00    -0.648 OA
ENDBRANCH   5   6
ENDBRANCH   4   5
ENDBRANCH   3   4
BRANCH   3   9
HETATM    9  C   UNL     1     -53.176  46.915   9.192  1.00  0.00     0.070 C 
BRANCH   9  10
HETATM   10  C   UNL     1     -53.290  48.223   9.945  1.00  0.00    -0.053 A 
HETATM   11  C   UNL     1     -53.056  48.271  11.329  1.00  0.00     0.043 A 
HETATM   12  C   UNL     1     -53.162  49.482  12.010  1.00  0.00     0.066 A 
HETATM   13  C   UNL     1     -53.499  50.652  11.340  1.00  0.00     0.036 A 
HETATM   14  C   UNL     1     -53.734  50.614   9.967  1.00  0.00     0.003 A 
HETATM   15  C   UNL     1     -53.630  49.406   9.273  1.00  0.00     0.007 A 
BRANCH  12  16
HETATM   16  O   UNL     1     -52.941  49.564  13.353  1.00  0.00    -0.361 OA
HETATM   17  H   UNL     1     -53.643  49.414  13.954  1.00  0.00     0.217 HD
ENDBRANCH  12  16
ENDBRANCH   9  10
ENDBRANCH   3   9
ENDBRANCH   1   3
TORSDOF 7
ENDMDL
