MODEL 1
REMARK VINA RESULT:      -6.4      0.000      0.000
REMARK  7 active torsions:
REMARK  status: ('A' for Active; 'I' for Inactive)
REMARK    1  A    between atoms: O_1  and  C_2 
REMARK    2  A    between atoms: C_2  and  C_3 
REMARK    3  A    between atoms: C_2  and  C_8 
REMARK    4  A    between atoms: C_3  and  C_4 
REMARK    5  A    between atoms: C_4  and  C_5 
REMARK    6  A    between atoms: C_8  and  C_9 
REMARK    7  A    between atoms: C_11  and  O_15 
ROOT
HETATM    1  O   UNL     1     -56.139  46.066   9.030  1.00  0.00    -0.395 OA
HETATM    2  H   UNL     1     -56.536  45.708   8.221  1.00  0.00     0.210 HD
ENDROOT
BRANCH   1   3
HETATM    3  C   UNL     1     -54.774  45.657   9.109  1.00  0.00     0.122 C 
BRANCH   3   4
HETATM    4  C   UNL     1     -54.569  44.364   8.303  1.00  0.00     0.042 C 
BRANCH   4   5
HETATM    5  C   UNL     1     -55.035  43.107   9.041  1.00  0.00     0.116 C 
BRANCH   5   6
HETATM    6  C   UNL     1     -56.391  42.577   8.649  1.00  0.00     0.172 C 
HETATM    7  O   UNL     1     -56.892  42.675   7.540  1.00  0.00    -0.648 OA
HETATM    8  O   UNL     1     -57.100  42.038   9.661  1.00  0.00    -0.648 OA
ENDBRANCH   5   6
ENDBRANCH   4   5
ENDBRANCH   3   4
BRANCH   3   9
HETATM    9  C   UNL     1     -53.862  46.781   8.579  1.00  0.00     0.070 C 
BRANCH   9  10
HETATM   10  C   UNL     1     -53.713  47.934   9.548  1.00  0.00    -0.053 A 
HETATM   11  C   UNL     1     -53.872  49.258   9.109  1.00  0.00     0.043 A 
HETATM   12  C   UNL     1     -53.736  50.311  10.013  1.00  0.00     0.066 A 
HETATM   13  C   UNL     1     -53.442  50.071  11.349  1.00  0.00     0.036 A 
HETATM   14  C   UNL     1     -53.281  48.761  11.794  1.00  0.00     0.003 A 
HETATM   15  C   UNL     1     -53.417  47.698  10.899  1.00  0.00     0.007 A 
BRANCH  12  16
HETATM   16  O   UNL     1     -53.885  51.608   9.619  1.00  0.00    -0.361 OA
HETATM   17  H   UNL     1     -53.531  52.300  10.142  1.00  0.00     0.217 HD
ENDBRANCH  12  16
ENDBRANCH   9  10
ENDBRANCH   3   9
ENDBRANCH   1   3
TORSDOF 7
ENDMDL
MODEL 2
REMARK VINA RESULT:      -6.3      4.672      7.050
REMARK  7 active torsions:
REMARK  status: ('A' for Active; 'I' for Inactive)
REMARK    1  A    between atoms: O_1  and  C_2 
REMARK    2  A    between atoms: C_2  and  C_3 
REMARK    3  A    between atoms: C_2  and  C_8 
REMARK    4  A    between atoms: C_3  and  C_4 
REMARK    5  A    between atoms: C_4  and  C_5 
REMARK    6  A    between atoms: C_8  and  C_9 
REMARK    7  A    between atoms: C_11  and  O_15 
ROOT
HETATM    1  O   UNL     1     -52.662  49.868  15.638  1.00  0.00    -0.395 OA
HETATM    2  H   UNL     1     -52.905  49.222  16.319  1.00  0.00     0.210 HD
ENDROOT
BRANCH   1   3
HETATM    3  C   UNL     1     -52.319  49.184  14.434  1.00  0.00     0.122 C 
BRANCH   3   4
HETATM    4  C   UNL     1     -51.467  47.947  14.761  1.00  0.00     0.042 C 
BRANCH   4   5
HETATM    5  C   UNL     1     -50.434  48.195  15.862  1.00  0.00     0.116 C 
BRANCH   5   6
HETATM    6  C   UNL     1     -49.064  47.612  15.624  1.00  0.00     0.172 C 
HETATM    7  O   UNL     1     -48.055  48.257  15.389  1.00  0.00    -0.648 OA
HETATM    8  O   UNL     1     -49.022  46.265  15.595  1.00  0.00    -0.648 OA
ENDBRANCH   5   6
ENDBRANCH   4   5
ENDBRANCH   3   4
BRANCH   3   9
HETATM    9  C   UNL     1     -53.603  48.779  13.682  1.00  0.00     0.070 C 
BRANCH   9  10
HETATM   10  C   UNL     1     -53.480  48.914  12.179  1.00  0.00    -0.053 A 
HETATM   11  C   UNL     1     -53.724  50.146  11.553  1.00  0.00     0.043 A 
HETATM   12  C   UNL     1     -53.605  50.258  10.169  1.00  0.00     0.066 A 
HETATM   13  C   UNL     1     -53.247  49.164   9.392  1.00  0.00     0.036 A 
HETATM   14  C   UNL     1     -53.004  47.936  10.004  1.00  0.00     0.003 A 
HETATM   15  C   UNL     1     -53.118  47.813  11.391  1.00  0.00     0.007 A 
BRANCH  12  16
HETATM   16  O   UNL     1     -53.834  51.441   9.529  1.00  0.00    -0.361 OA
HETATM   17  H   UNL     1     -53.123  52.026   9.358  1.00  0.00     0.217 HD
ENDBRANCH  12  16
ENDBRANCH   9  10
ENDBRANCH   3   9
ENDBRANCH   1   3
TORSDOF 7
ENDMDL
MODEL 3
REMARK VINA RESULT:      -6.3      2.804      6.440
REMARK  7 active torsions:
REMARK  status: ('A' for Active; 'I' for Inactive)
REMARK    1  A    between atoms: O_1  and  C_2 
REMARK    2  A    between atoms: C_2  and  C_3 
REMARK    3  A    between atoms: C_2  and  C_8 
REMARK    4  A    between atoms: C_3  and  C_4 
REMARK    5  A    between atoms: C_4  and  C_5 
REMARK    6  A    between atoms: C_8  and  C_9 
REMARK    7  A    between atoms: C_11  and  O_15 
ROOT
HETATM    1  O   UNL     1     -53.115  51.139  12.170  1.00  0.00    -0.395 OA
HETATM    2  H   UNL     1     -53.248  51.143  13.130  1.00  0.00     0.210 HD
ENDROOT
BRANCH   1   3
HETATM    3  C   UNL     1     -53.143  49.795  11.691  1.00  0.00     0.122 C 
BRANCH   3   4
HETATM    4  C   UNL     1     -53.699  48.865  12.781  1.00  0.00     0.042 C 
BRANCH   4   5
HETATM    5  C   UNL     1     -52.610  48.155  13.589  1.00  0.00     0.116 C 
BRANCH   5   6
HETATM    6  C   UNL     1     -52.075  48.908  14.779  1.00  0.00     0.172 C 
HETATM    7  O   UNL     1     -52.499  49.979  15.184  1.00  0.00    -0.648 OA
HETATM    8  O   UNL     1     -50.988  48.356  15.354  1.00  0.00    -0.648 OA
ENDBRANCH   5   6
ENDBRANCH   4   5
ENDBRANCH   3   4
BRANCH   3   9
HETATM    9  C   UNL     1     -54.003  49.714  10.414  1.00  0.00     0.070 C 
BRANCH   9  10
HETATM   10  C   UNL     1     -54.143  48.305   9.879  1.00  0.00    -0.053 A 
HETATM   11  C   UNL     1     -55.410  47.717   9.745  1.00  0.00     0.043 A 
HETATM   12  C   UNL     1     -55.525  46.420   9.248  1.00  0.00     0.066 A 
HETATM   13  C   UNL     1     -54.399  45.692   8.883  1.00  0.00     0.036 A 
HETATM   14  C   UNL     1     -53.137  46.267   9.014  1.00  0.00     0.003 A 
HETATM   15  C   UNL     1     -53.010  47.566   9.509  1.00  0.00     0.007 A 
BRANCH  12  16
HETATM   16  O   UNL     1     -56.741  45.820   9.103  1.00  0.00    -0.361 OA
HETATM   17  H   UNL     1     -57.077  45.271   9.784  1.00  0.00     0.217 HD
ENDBRANCH  12  16
ENDBRANCH   9  10
ENDBRANCH   3   9
ENDBRANCH   1   3
TORSDOF 7
ENDMDL
MODEL 4
REMARK VINA RESULT:      -6.1      1.482      1.930
REMARK  7 active torsions:
REMARK  status: ('A' for Active; 'I' for Inactive)
REMARK    1  A    between atoms: O_1  and  C_2 
REMARK    2  A    between atoms: C_2  and  C_3 
REMARK    3  A    between atoms: C_2  and  C_8 
REMARK    4  A    between atoms: C_3  and  C_4 
REMARK    5  A    between atoms: C_4  and  C_5 
REMARK    6  A    between atoms: C_8  and  C_9 
REMARK    7  A    between atoms: C_11  and  O_15 
ROOT
HETATM    1  O   UNL     1     -53.845  45.663   7.410  1.00  0.00    -0.395 OA
HETATM    2  H   UNL     1     -53.016  45.221   7.653  1.00  0.00     0.210 HD
ENDROOT
BRANCH   1   3
HETATM    3  C   UNL     1     -54.510  46.108   8.591  1.00  0.00     0.122 C 
BRANCH   3   4
HETATM    4  C   UNL     1     -55.555  45.068   9.025  1.00  0.00     0.042 C 
BRANCH   4   5
HETATM    5  C   UNL     1     -55.232  43.649   8.554  1.00  0.00     0.116 C 
BRANCH   5   6
HETATM    6  C   UNL     1     -56.408  42.716   8.416  1.00  0.00     0.172 C 
HETATM    7  O   UNL     1     -57.045  42.532   7.391  1.00  0.00    -0.648 OA
HETATM    8  O   UNL     1     -56.799  42.128   9.564  1.00  0.00    -0.648 OA
ENDBRANCH   5   6
ENDBRANCH   4   5
ENDBRANCH   3   4
BRANCH   3   9
HETATM    9  C   UNL     1     -53.478  46.345   9.712  1.00  0.00     0.070 C 
BRANCH   9  10
HETATM   10  C   UNL     1     -53.499  47.760  10.250  1.00  0.00    -0.053 A 
HETATM   11  C   UNL     1     -53.139  48.021  11.582  1.00  0.00     0.043 A 
HETATM   12  C   UNL     1     -53.159  49.328  12.064  1.00  0.00     0.066 A 
HETATM   13  C   UNL     1     -53.534  50.386  11.245  1.00  0.00     0.036 A 
HETATM   14  C   UNL     1     -53.894  50.137   9.922  1.00  0.00     0.003 A 
HETATM   15  C   UNL     1     -53.875  48.831   9.427  1.00  0.00     0.007 A 
BRANCH  12  16
HETATM   16  O   UNL     1     -52.814  49.616  13.352  1.00  0.00    -0.361 OA
HETATM   17  H   UNL     1     -53.203  49.139  14.058  1.00  0.00     0.217 HD
ENDBRANCH  12  16
ENDBRANCH   9  10
ENDBRANCH   3   9
ENDBRANCH   1   3
TORSDOF 7
ENDMDL
MODEL 5
REMARK VINA RESULT:      -6.1      3.090      3.801
REMARK  7 active torsions:
REMARK  status: ('A' for Active; 'I' for Inactive)
REMARK    1  A    between atoms: O_1  and  C_2 
REMARK    2  A    between atoms: C_2  and  C_3 
REMARK    3  A    between atoms: C_2  and  C_8 
REMARK    4  A    between atoms: C_3  and  C_4 
REMARK    5  A    between atoms: C_4  and  C_5 
REMARK    6  A    between atoms: C_8  and  C_9 
REMARK    7  A    between atoms: C_11  and  O_15 
ROOT
HETATM    1  O   UNL     1     -52.149  45.057   8.852  1.00  0.00    -0.395 OA
HETATM    2  H   UNL     1     -53.008  44.794   9.217  1.00  0.00     0.210 HD
ENDROOT
BRANCH   1   3
HETATM    3  C   UNL     1     -51.984  46.467   8.997  1.00  0.00     0.122 C 
BRANCH   3   4
HETATM    4  C   UNL     1     -51.077  47.003   7.877  1.00  0.00     0.042 C 
BRANCH   4   5
HETATM    5  C   UNL     1     -51.839  47.367   6.600  1.00  0.00     0.116 C 
BRANCH   5   6
HETATM    6  C   UNL     1     -52.056  46.244   5.619  1.00  0.00     0.172 C 
HETATM    7  O   UNL     1     -51.340  45.996   4.662  1.00  0.00    -0.648 OA
HETATM    8  O   UNL     1     -53.191  45.541   5.807  1.00  0.00    -0.648 OA
ENDBRANCH   5   6
ENDBRANCH   4   5
ENDBRANCH   3   4
BRANCH   3   9
HETATM    9  C   UNL     1     -53.360  47.160   8.962  1.00  0.00     0.070 C 
BRANCH   9  10
HETATM   10  C   UNL     1     -53.403  48.440   9.768  1.00  0.00    -0.053 A 
HETATM   11  C   UNL     1     -53.566  49.679   9.128  1.00  0.00     0.043 A 
HETATM   12  C   UNL     1     -53.606  50.851   9.882  1.00  0.00     0.066 A 
HETATM   13  C   UNL     1     -53.486  50.814  11.266  1.00  0.00     0.036 A 
HETATM   14  C   UNL     1     -53.323  49.590  11.909  1.00  0.00     0.003 A 
HETATM   15  C   UNL     1     -53.282  48.409  11.164  1.00  0.00     0.007 A 
BRANCH  12  16
HETATM   16  O   UNL     1     -53.765  52.070   9.292  1.00  0.00    -0.361 OA
HETATM   17  H   UNL     1     -53.136  52.748   9.441  1.00  0.00     0.217 HD
ENDBRANCH  12  16
ENDBRANCH   9  10
ENDBRANCH   3   9
ENDBRANCH   1   3
TORSDOF 7
ENDMDL
MODEL 6
REMARK VINA RESULT:      -6.1      1.769      2.093
REMARK  7 active torsions:
REMARK  status: ('A' for Active; 'I' for Inactive)
REMARK    1  A    between atoms: O_1  and  C_2 
REMARK    2  A    between atoms: C_2  and  C_3 
REMARK    3  A    between atoms: C_2  and  C_8 
REMARK    4  A    between atoms: C_3  and  C_4 
REMARK    5  A    between atoms: C_4  and  C_5 
REMARK    6  A    between atoms: C_8  and  C_9 
REMARK    7  A    between atoms: C_11  and  O_15 
ROOT
HETATM    1  O   UNL     1     -53.643  46.010   7.157  1.00  0.00    -0.395 OA
HETATM    2  H   UNL     1     -52.818  45.540   7.353  1.00  0.00     0.210 HD
ENDROOT
BRANCH   1   3
HETATM    3  C   UNL     1     -54.146  46.605   8.353  1.00  0.00     0.122 C 
BRANCH   3   4
HETATM    4  C   UNL     1     -55.108  45.634   9.055  1.00  0.00     0.042 C 
BRANCH   4   5
HETATM    5  C   UNL     1     -55.002  44.196   8.541  1.00  0.00     0.116 C 
BRANCH   5   6
HETATM    6  C   UNL     1     -53.883  43.369   9.121  1.00  0.00     0.172 C 
HETATM    7  O   UNL     1     -53.882  42.865  10.233  1.00  0.00    -0.648 OA
HETATM    8  O   UNL     1     -52.785  43.282   8.343  1.00  0.00    -0.648 OA
ENDBRANCH   5   6
ENDBRANCH   4   5
ENDBRANCH   3   4
BRANCH   3   9
HETATM    9  C   UNL     1     -52.973  46.978   9.282  1.00  0.00     0.070 C 
BRANCH   9  10
HETATM   10  C   UNL     1     -53.163  48.310   9.974  1.00  0.00    -0.053 A 
HETATM   11  C   UNL     1     -53.426  49.470   9.228  1.00  0.00     0.043 A 
HETATM   12  C   UNL     1     -53.601  50.690   9.879  1.00  0.00     0.066 A 
HETATM   13  C   UNL     1     -53.518  50.780  11.263  1.00  0.00     0.036 A 
HETATM   14  C   UNL     1     -53.256  49.635  12.012  1.00  0.00     0.003 A 
HETATM   15  C   UNL     1     -53.080  48.407  11.371  1.00  0.00     0.007 A 
BRANCH  12  16
HETATM   16  O   UNL     1     -53.860  51.834   9.184  1.00  0.00    -0.361 OA
HETATM   17  H   UNL     1     -53.915  51.813   8.249  1.00  0.00     0.217 HD
ENDBRANCH  12  16
ENDBRANCH   9  10
ENDBRANCH   3   9
ENDBRANCH   1   3
TORSDOF 7
ENDMDL
MODEL 7
REMARK VINA RESULT:      -6.0      2.312      2.912
REMARK  7 active torsions:
REMARK  status: ('A' for Active; 'I' for Inactive)
REMARK    1  A    between atoms: O_1  and  C_2 
REMARK    2  A    between atoms: C_2  and  C_3 
REMARK    3  A    between atoms: C_2  and  C_8 
REMARK    4  A    between atoms: C_3  and  C_4 
REMARK    5  A    between atoms: C_4  and  C_5 
REMARK    6  A    between atoms: C_8  and  C_9 
REMARK    7  A    between atoms: C_11  and  O_15 
ROOT
HETATM    1  O   UNL     1     -55.562  46.299   8.817  1.00  0.00    -0.395 OA
HETATM    2  H   UNL     1     -55.819  45.869   7.986  1.00  0.00     0.210 HD
ENDROOT
BRANCH   1   3
HETATM    3  C   UNL     1     -54.153  46.169   9.003  1.00  0.00     0.122 C 
BRANCH   3   4
HETATM    4  C   UNL     1     -53.647  44.905   8.289  1.00  0.00     0.042 C 
BRANCH   4   5
HETATM    5  C   UNL     1     -52.364  45.134   7.486  1.00  0.00     0.116 C 
BRANCH   5   6
HETATM    6  C   UNL     1     -52.493  45.016   5.989  1.00  0.00     0.172 C 
HETATM    7  O   UNL     1     -53.431  45.432   5.328  1.00  0.00    -0.648 OA
HETATM    8  O   UNL     1     -51.511  44.311   5.392  1.00  0.00    -0.648 OA
ENDBRANCH   5   6
ENDBRANCH   4   5
ENDBRANCH   3   4
BRANCH   3   9
HETATM    9  C   UNL     1     -53.439  47.424   8.462  1.00  0.00     0.070 C 
BRANCH   9  10
HETATM   10  C   UNL     1     -53.471  48.589   9.427  1.00  0.00    -0.053 A 
HETATM   11  C   UNL     1     -53.584  49.905   8.951  1.00  0.00     0.043 A 
HETATM   12  C   UNL     1     -53.616  50.969   9.851  1.00  0.00     0.066 A 
HETATM   13  C   UNL     1     -53.535  50.749  11.220  1.00  0.00     0.036 A 
HETATM   14  C   UNL     1     -53.422  49.447  11.702  1.00  0.00     0.003 A 
HETATM   15  C   UNL     1     -53.391  48.373  10.810  1.00  0.00     0.007 A 
BRANCH  12  16
HETATM   16  O   UNL     1     -53.726  52.259   9.422  1.00  0.00    -0.361 OA
HETATM   17  H   UNL     1     -54.003  52.928  10.016  1.00  0.00     0.217 HD
ENDBRANCH  12  16
ENDBRANCH   9  10
ENDBRANCH   3   9
ENDBRANCH   1   3
TORSDOF 7
ENDMDL
MODEL 8
REMARK VINA RESULT:      -6.0      1.882      2.501
REMARK  7 active torsions:
REMARK  status: ('A' for Active; 'I' for Inactive)
REMARK    1  A    between atoms: O_1  and  C_2 
REMARK    2  A    between atoms: C_2  and  C_3 
REMARK    3  A    between atoms: C_2  and  C_8 
REMARK    4  A    between atoms: C_3  and  C_4 
REMARK    5  A    between atoms: C_4  and  C_5 
REMARK    6  A    between atoms: C_8  and  C_9 
REMARK    7  A    between atoms: C_11  and  O_15 
ROOT
HETATM    1  O   UNL     1     -50.697  45.758   9.676  1.00  0.00    -0.395 OA
HETATM    2  H   UNL     1     -50.257  46.550   9.331  1.00  0.00     0.210 HD
ENDROOT
BRANCH   1   3
HETATM    3  C   UNL     1     -52.112  45.925   9.591  1.00  0.00     0.122 C 
BRANCH   3   4
HETATM    4  C   UNL     1     -52.791  44.554   9.441  1.00  0.00     0.042 C 
BRANCH   4   5
HETATM    5  C   UNL     1     -53.801  44.499   8.293  1.00  0.00     0.116 C 
BRANCH   5   6
HETATM    6  C   UNL     1     -55.253  44.584   8.688  1.00  0.00     0.172 C 
HETATM    7  O   UNL     1     -56.029  43.642   8.730  1.00  0.00    -0.648 OA
HETATM    8  O   UNL     1     -55.702  45.834   8.920  1.00  0.00    -0.648 OA
ENDBRANCH   5   6
ENDBRANCH   4   5
ENDBRANCH   3   4
BRANCH   3   9
HETATM    9  C   UNL     1     -52.627  46.654  10.847  1.00  0.00     0.070 C 
BRANCH   9  10
HETATM   10  C   UNL     1     -52.988  48.101  10.589  1.00  0.00    -0.053 A 
HETATM   11  C   UNL     1     -53.047  48.598   9.277  1.00  0.00     0.043 A 
HETATM   12  C   UNL     1     -53.384  49.932   9.053  1.00  0.00     0.066 A 
HETATM   13  C   UNL     1     -53.662  50.786  10.113  1.00  0.00     0.036 A 
HETATM   14  C   UNL     1     -53.605  50.303  11.418  1.00  0.00     0.003 A 
HETATM   15  C   UNL     1     -53.271  48.968  11.655  1.00  0.00     0.007 A 
BRANCH  12  16
HETATM   16  O   UNL     1     -53.452  50.445   7.792  1.00  0.00    -0.361 OA
HETATM   17  H   UNL     1     -52.665  50.663   7.332  1.00  0.00     0.217 HD
ENDBRANCH  12  16
ENDBRANCH   9  10
ENDBRANCH   3   9
ENDBRANCH   1   3
TORSDOF 7
ENDMDL
MODEL 9
REMARK VINA RESULT:      -5.9      3.311      4.478
REMARK  7 active torsions:
REMARK  status: ('A' for Active; 'I' for Inactive)
REMARK    1  A    between atoms: O_1  and  C_2 
REMARK    2  A    between atoms: C_2  and  C_3 
REMARK    3  A    between atoms: C_2  and  C_8 
REMARK    4  A    between atoms: C_3  and  C_4 
REMARK    5  A    between atoms: C_4  and  C_5 
REMARK    6  A    between atoms: C_8  and  C_9 
REMARK    7  A    between atoms: C_11  and  O_15 
ROOT
HETATM    1  O   UNL     1     -54.712  47.088   8.368  1.00  0.00    -0.395 OA
HETATM    2  H   UNL     1     -55.422  46.883   8.997  1.00  0.00     0.210 HD
ENDROOT
BRANCH   1   3
HETATM    3  C   UNL     1     -53.547  47.497   9.084  1.00  0.00     0.122 C 
BRANCH   3   4
HETATM    4  C   UNL     1     -52.543  48.148   8.118  1.00  0.00     0.042 C 
BRANCH   4   5
HETATM    5  C   UNL     1     -51.692  47.133   7.353  1.00  0.00     0.116 C 
BRANCH   5   6
HETATM    6  C   UNL     1     -52.228  46.698   6.013  1.00  0.00     0.172 C 
HETATM    7  O   UNL     1     -53.299  46.142   5.829  1.00  0.00    -0.648 OA
HETATM    8  O   UNL     1     -51.381  46.882   4.980  1.00  0.00    -0.648 OA
ENDBRANCH   5   6
ENDBRANCH   4   5
ENDBRANCH   3   4
BRANCH   3   9
HETATM    9  C   UNL     1     -53.942  48.481  10.203  1.00  0.00     0.070 C 
BRANCH   9  10
HETATM   10  C   UNL     1     -53.266  48.182  11.524  1.00  0.00    -0.053 A 
HETATM   11  C   UNL     1     -53.363  49.084  12.595  1.00  0.00     0.043 A 
HETATM   12  C   UNL     1     -52.738  48.796  13.807  1.00  0.00     0.066 A 
HETATM   13  C   UNL     1     -52.014  47.622  13.975  1.00  0.00     0.036 A 
HETATM   14  C   UNL     1     -51.910  46.721  12.918  1.00  0.00     0.003 A 
HETATM   15  C   UNL     1     -52.534  46.998  11.699  1.00  0.00     0.007 A 
BRANCH  12  16
HETATM   16  O   UNL     1     -52.814  49.650  14.866  1.00  0.00    -0.361 OA
HETATM   17  H   UNL     1     -53.500  49.555  15.497  1.00  0.00     0.217 HD
ENDBRANCH  12  16
ENDBRANCH   9  10
ENDBRANCH   3   9
ENDBRANCH   1   3
TORSDOF 7
ENDMDL
