MODEL 1
REMARK VINA RESULT:      -6.3      0.000      0.000
REMARK  5 active torsions:
REMARK  status: ('A' for Active; 'I' for Inactive)
REMARK    1  A    between atoms: O_1  and  C_10 
REMARK    2  A    between atoms: O_2  and  C_12 
REMARK    3  A    between atoms: C_5  and  C_6 
REMARK    4  A    between atoms: C_5  and  C_7 
REMARK    5  A    between atoms: C_7  and  C_13 
ROOT
HETATM    1  O   UNL     1       5.301  -9.544  58.487  1.00  0.00    -0.358 OA
HETATM    2  H   UNL     1       6.220  -9.724  58.507  1.00  0.00     0.217 HD
ENDROOT
BRANCH   1   3
HETATM    3  C   UNL     1       4.654  -9.436  57.293  1.00  0.00     0.099 A 
HETATM    4  C   UNL     1       3.598 -10.299  57.004  1.00  0.00     0.046 A 
HETATM    5  C   UNL     1       2.929 -10.200  55.785  1.00  0.00    -0.055 A 
HETATM    6  C   UNL     1       3.316  -9.235  54.854  1.00  0.00     0.010 A 
HETATM    7  C   UNL     1       4.372  -8.372  55.142  1.00  0.00     0.040 A 
HETATM    8  C   UNL     1       5.041  -8.472  56.362  1.00  0.00     0.098 A 
BRANCH   5   9
HETATM    9  C   UNL     1       1.799 -11.123  55.477  1.00  0.00     0.049 C 
BRANCH   9  10
HETATM   10  C   UNL     1       0.598 -10.431  54.821  1.00  0.00     0.117 C 
BRANCH  10  11
HETATM   11  C   UNL     1      -0.584 -10.358  55.758  1.00  0.00     0.172 C 
HETATM   12  O   UNL     1      -1.738 -10.779  55.185  1.00  0.00    -0.648 OA
HETATM   13  O   UNL     1      -0.508  -9.983  56.921  1.00  0.00    -0.648 OA
ENDBRANCH  10  11
ENDBRANCH   9  10
ENDBRANCH   5   9
BRANCH   8  14
HETATM   14  O   UNL     1       6.072  -7.624  56.632  1.00  0.00    -0.358 OA
HETATM   15  H   UNL     1       5.944  -6.697  56.576  1.00  0.00     0.217 HD
ENDBRANCH   8  14
ENDBRANCH   1   3
TORSDOF 5
ENDMDL
MODEL 2
REMARK VINA RESULT:      -6.1      1.705      2.246
REMARK  5 active torsions:
REMARK  status: ('A' for Active; 'I' for Inactive)
REMARK    1  A    between atoms: O_1  and  C_10 
REMARK    2  A    between atoms: O_2  and  C_12 
REMARK    3  A    between atoms: C_5  and  C_6 
REMARK    4  A    between atoms: C_5  and  C_7 
REMARK    5  A    between atoms: C_7  and  C_13 
ROOT
HETATM    1  O   UNL     1       6.305  -7.557  56.675  1.00  0.00    -0.358 OA
HETATM    2  H   UNL     1       6.705  -8.198  57.230  1.00  0.00     0.217 HD
ENDROOT
BRANCH   1   3
HETATM    3  C   UNL     1       5.012  -7.714  56.276  1.00  0.00     0.099 A 
HETATM    4  C   UNL     1       4.451  -8.991  56.253  1.00  0.00     0.046 A 
HETATM    5  C   UNL     1       3.129  -9.165  55.845  1.00  0.00    -0.055 A 
HETATM    6  C   UNL     1       2.367  -8.061  55.461  1.00  0.00     0.010 A 
HETATM    7  C   UNL     1       2.927  -6.785  55.485  1.00  0.00     0.040 A 
HETATM    8  C   UNL     1       4.250  -6.611  55.893  1.00  0.00     0.098 A 
BRANCH   5   9
HETATM    9  C   UNL     1       2.530 -10.530  55.821  1.00  0.00     0.049 C 
BRANCH   9  10
HETATM   10  C   UNL     1       1.759 -10.843  54.532  1.00  0.00     0.117 C 
BRANCH  10  11
HETATM   11  C   UNL     1       0.681 -11.874  54.764  1.00  0.00     0.172 C 
HETATM   12  O   UNL     1       0.282 -11.937  56.058  1.00  0.00    -0.648 OA
HETATM   13  O   UNL     1       0.196 -12.564  53.876  1.00  0.00    -0.648 OA
ENDBRANCH  10  11
ENDBRANCH   9  10
ENDBRANCH   5   9
BRANCH   8  14
HETATM   14  O   UNL     1       4.787  -5.359  55.910  1.00  0.00    -0.358 OA
HETATM   15  H   UNL     1       5.656  -5.227  56.236  1.00  0.00     0.217 HD
ENDBRANCH   8  14
ENDBRANCH   1   3
TORSDOF 5
ENDMDL
MODEL 3
REMARK VINA RESULT:      -6.1      3.031      4.852
REMARK  5 active torsions:
REMARK  status: ('A' for Active; 'I' for Inactive)
REMARK    1  A    between atoms: O_1  and  C_10 
REMARK    2  A    between atoms: O_2  and  C_12 
REMARK    3  A    between atoms: C_5  and  C_6 
REMARK    4  A    between atoms: C_5  and  C_7 
REMARK    5  A    between atoms: C_7  and  C_13 
ROOT
HETATM    1  O   UNL     1       5.423  -6.383  52.453  1.00  0.00    -0.358 OA
HETATM    2  H   UNL     1       5.096  -6.197  51.596  1.00  0.00     0.217 HD
ENDROOT
BRANCH   1   3
HETATM    3  C   UNL     1       4.629  -6.183  53.543  1.00  0.00     0.099 A 
HETATM    4  C   UNL     1       4.117  -7.283  54.229  1.00  0.00     0.046 A 
HETATM    5  C   UNL     1       3.302  -7.092  55.344  1.00  0.00    -0.055 A 
HETATM    6  C   UNL     1       3.001  -5.799  55.774  1.00  0.00     0.010 A 
HETATM    7  C   UNL     1       3.514  -4.699  55.088  1.00  0.00     0.040 A 
HETATM    8  C   UNL     1       4.328  -4.891  53.972  1.00  0.00     0.098 A 
BRANCH   5   9
HETATM    9  C   UNL     1       2.754  -8.269  56.078  1.00  0.00     0.049 C 
BRANCH   9  10
HETATM   10  C   UNL     1       3.652  -9.510  56.012  1.00  0.00     0.117 C 
BRANCH  10  11
HETATM   11  C   UNL     1       4.626  -9.557  57.165  1.00  0.00     0.172 C 
HETATM   12  O   UNL     1       4.575 -10.725  57.851  1.00  0.00    -0.648 OA
HETATM   13  O   UNL     1       5.399  -8.649  57.439  1.00  0.00    -0.648 OA
ENDBRANCH  10  11
ENDBRANCH   9  10
ENDBRANCH   5   9
BRANCH   8  14
HETATM   14  O   UNL     1       4.822  -3.809  53.309  1.00  0.00    -0.358 OA
HETATM   15  H   UNL     1       4.252  -3.103  53.073  1.00  0.00     0.217 HD
ENDBRANCH   8  14
ENDBRANCH   1   3
TORSDOF 5
ENDMDL
MODEL 4
REMARK VINA RESULT:      -6.0      0.862      1.937
REMARK  5 active torsions:
REMARK  status: ('A' for Active; 'I' for Inactive)
REMARK    1  A    between atoms: O_1  and  C_10 
REMARK    2  A    between atoms: O_2  and  C_12 
REMARK    3  A    between atoms: C_5  and  C_6 
REMARK    4  A    between atoms: C_5  and  C_7 
REMARK    5  A    between atoms: C_7  and  C_13 
ROOT
HETATM    1  O   UNL     1       6.115  -7.555  56.568  1.00  0.00    -0.358 OA
HETATM    2  H   UNL     1       6.904  -7.715  57.047  1.00  0.00     0.217 HD
ENDROOT
BRANCH   1   3
HETATM    3  C   UNL     1       5.115  -8.481  56.575  1.00  0.00     0.099 A 
HETATM    4  C   UNL     1       4.026  -8.320  55.720  1.00  0.00     0.046 A 
HETATM    5  C   UNL     1       2.996  -9.260  55.718  1.00  0.00    -0.055 A 
HETATM    6  C   UNL     1       3.055 -10.361  56.572  1.00  0.00     0.010 A 
HETATM    7  C   UNL     1       4.145 -10.522  57.427  1.00  0.00     0.040 A 
HETATM    8  C   UNL     1       5.175  -9.582  57.429  1.00  0.00     0.098 A 
BRANCH   5   9
HETATM    9  C   UNL     1       1.831  -9.087  54.803  1.00  0.00     0.049 C 
BRANCH   9  10
HETATM   10  C   UNL     1       1.160 -10.407  54.402  1.00  0.00     0.117 C 
BRANCH  10  11
HETATM   11  C   UNL     1      -0.222 -10.533  54.998  1.00  0.00     0.172 C 
HETATM   12  O   UNL     1      -1.200 -10.550  54.060  1.00  0.00    -0.648 OA
HETATM   13  O   UNL     1      -0.439 -10.635  56.198  1.00  0.00    -0.648 OA
ENDBRANCH  10  11
ENDBRANCH   9  10
ENDBRANCH   5   9
BRANCH   8  14
HETATM   14  O   UNL     1       6.234  -9.749  58.269  1.00  0.00    -0.358 OA
HETATM   15  H   UNL     1       6.909 -10.363  58.057  1.00  0.00     0.217 HD
ENDBRANCH   8  14
ENDBRANCH   1   3
TORSDOF 5
ENDMDL
MODEL 5
REMARK VINA RESULT:      -6.0      3.151      4.510
REMARK  5 active torsions:
REMARK  status: ('A' for Active; 'I' for Inactive)
REMARK    1  A    between atoms: O_1  and  C_10 
REMARK    2  A    between atoms: O_2  and  C_12 
REMARK    3  A    between atoms: C_5  and  C_6 
REMARK    4  A    between atoms: C_5  and  C_7 
REMARK    5  A    between atoms: C_7  and  C_13 
ROOT
HETATM    1  O   UNL     1       4.797  -6.142  51.990  1.00  0.00    -0.358 OA
HETATM    2  H   UNL     1       4.329  -5.895  51.217  1.00  0.00     0.217 HD
ENDROOT
BRANCH   1   3
HETATM    3  C   UNL     1       4.219  -5.988  53.215  1.00  0.00     0.099 A 
HETATM    4  C   UNL     1       3.730  -7.106  53.888  1.00  0.00     0.046 A 
HETATM    5  C   UNL     1       3.135  -6.961  55.141  1.00  0.00    -0.055 A 
HETATM    6  C   UNL     1       3.032  -5.697  55.721  1.00  0.00     0.010 A 
HETATM    7  C   UNL     1       3.521  -4.578  55.048  1.00  0.00     0.040 A 
HETATM    8  C   UNL     1       4.116  -4.723  53.795  1.00  0.00     0.098 A 
BRANCH   5   9
HETATM    9  C   UNL     1       2.612  -8.158  55.861  1.00  0.00     0.049 C 
BRANCH   9  10
HETATM   10  C   UNL     1       3.262  -9.475  55.422  1.00  0.00     0.117 C 
BRANCH  10  11
HETATM   11  C   UNL     1       3.186 -10.523  56.506  1.00  0.00     0.172 C 
HETATM   12  O   UNL     1       2.195 -11.425  56.299  1.00  0.00    -0.648 OA
HETATM   13  O   UNL     1       3.951 -10.572  57.460  1.00  0.00    -0.648 OA
ENDBRANCH  10  11
ENDBRANCH   9  10
ENDBRANCH   5   9
BRANCH   8  14
HETATM   14  O   UNL     1       4.589  -3.624  53.145  1.00  0.00    -0.358 OA
HETATM   15  H   UNL     1       4.148  -2.802  53.233  1.00  0.00     0.217 HD
ENDBRANCH   8  14
ENDBRANCH   1   3
TORSDOF 5
ENDMDL
MODEL 6
REMARK VINA RESULT:      -6.0      1.917      2.427
REMARK  5 active torsions:
REMARK  status: ('A' for Active; 'I' for Inactive)
REMARK    1  A    between atoms: O_1  and  C_10 
REMARK    2  A    between atoms: O_2  and  C_12 
REMARK    3  A    between atoms: C_5  and  C_6 
REMARK    4  A    between atoms: C_5  and  C_7 
REMARK    5  A    between atoms: C_7  and  C_13 
ROOT
HETATM    1  O   UNL     1       5.139  -6.238  56.836  1.00  0.00    -0.358 OA
HETATM    2  H   UNL     1       4.599  -5.958  57.548  1.00  0.00     0.217 HD
ENDROOT
BRANCH   1   3
HETATM    3  C   UNL     1       4.609  -6.995  55.836  1.00  0.00     0.099 A 
HETATM    4  C   UNL     1       3.952  -8.184  56.151  1.00  0.00     0.046 A 
HETATM    5  C   UNL     1       3.406  -8.969  55.135  1.00  0.00    -0.055 A 
HETATM    6  C   UNL     1       3.517  -8.564  53.805  1.00  0.00     0.010 A 
HETATM    7  C   UNL     1       4.174  -7.376  53.490  1.00  0.00     0.040 A 
HETATM    8  C   UNL     1       4.720  -6.590  54.505  1.00  0.00     0.098 A 
BRANCH   5   9
HETATM    9  C   UNL     1       2.702 -10.240  55.472  1.00  0.00     0.049 C 
BRANCH   9  10
HETATM   10  C   UNL     1       1.701 -10.694  54.403  1.00  0.00     0.117 C 
BRANCH  10  11
HETATM   11  C   UNL     1       0.836 -11.829  54.895  1.00  0.00     0.172 C 
HETATM   12  O   UNL     1       0.354 -12.599  53.890  1.00  0.00    -0.648 OA
HETATM   13  O   UNL     1       0.612 -12.050  56.079  1.00  0.00    -0.648 OA
ENDBRANCH  10  11
ENDBRANCH   9  10
ENDBRANCH   5   9
BRANCH   8  14
HETATM   14  O   UNL     1       5.361  -5.432  54.186  1.00  0.00    -0.358 OA
HETATM   15  H   UNL     1       4.883  -4.721  53.807  1.00  0.00     0.217 HD
ENDBRANCH   8  14
ENDBRANCH   1   3
TORSDOF 5
ENDMDL
MODEL 7
REMARK VINA RESULT:      -6.0      1.034      1.350
REMARK  5 active torsions:
REMARK  status: ('A' for Active; 'I' for Inactive)
REMARK    1  A    between atoms: O_1  and  C_10 
REMARK    2  A    between atoms: O_2  and  C_12 
REMARK    3  A    between atoms: C_5  and  C_6 
REMARK    4  A    between atoms: C_5  and  C_7 
REMARK    5  A    between atoms: C_7  and  C_13 
ROOT
HETATM    1  O   UNL     1       5.354  -9.568  58.436  1.00  0.00    -0.358 OA
HETATM    2  H   UNL     1       5.852 -10.344  58.602  1.00  0.00     0.217 HD
ENDROOT
BRANCH   1   3
HETATM    3  C   UNL     1       4.701  -9.419  57.250  1.00  0.00     0.099 A 
HETATM    4  C   UNL     1       3.605 -10.232  56.963  1.00  0.00     0.046 A 
HETATM    5  C   UNL     1       2.929 -10.090  55.752  1.00  0.00    -0.055 A 
HETATM    6  C   UNL     1       3.349  -9.134  54.827  1.00  0.00     0.010 A 
HETATM    7  C   UNL     1       4.444  -8.321  55.113  1.00  0.00     0.040 A 
HETATM    8  C   UNL     1       5.121  -8.463  56.325  1.00  0.00     0.098 A 
BRANCH   5   9
HETATM    9  C   UNL     1       1.756 -10.960  55.446  1.00  0.00     0.049 C 
BRANCH   9  10
HETATM   10  C   UNL     1       1.363 -10.967  53.964  1.00  0.00     0.117 C 
BRANCH  10  11
HETATM   11  C   UNL     1       0.036 -10.284  53.736  1.00  0.00     0.172 C 
HETATM   12  O   UNL     1      -0.944 -10.753  54.546  1.00  0.00    -0.648 OA
HETATM   13  O   UNL     1      -0.136  -9.383  52.925  1.00  0.00    -0.648 OA
ENDBRANCH  10  11
ENDBRANCH   9  10
ENDBRANCH   5   9
BRANCH   8  14
HETATM   14  O   UNL     1       6.191  -7.665  56.593  1.00  0.00    -0.358 OA
HETATM   15  H   UNL     1       6.994  -8.043  56.893  1.00  0.00     0.217 HD
ENDBRANCH   8  14
ENDBRANCH   1   3
TORSDOF 5
ENDMDL
MODEL 8
REMARK VINA RESULT:      -6.0      0.853      2.106
REMARK  5 active torsions:
REMARK  status: ('A' for Active; 'I' for Inactive)
REMARK    1  A    between atoms: O_1  and  C_10 
REMARK    2  A    between atoms: O_2  and  C_12 
REMARK    3  A    between atoms: C_5  and  C_6 
REMARK    4  A    between atoms: C_5  and  C_7 
REMARK    5  A    between atoms: C_7  and  C_13 
ROOT
HETATM    1  O   UNL     1       4.835  -7.353  54.265  1.00  0.00    -0.358 OA
HETATM    2  H   UNL     1       4.333  -6.566  54.190  1.00  0.00     0.217 HD
ENDROOT
BRANCH   1   3
HETATM    3  C   UNL     1       4.482  -8.302  55.177  1.00  0.00     0.099 A 
HETATM    4  C   UNL     1       3.398  -9.138  54.913  1.00  0.00     0.046 A 
HETATM    5  C   UNL     1       3.026 -10.112  55.840  1.00  0.00    -0.055 A 
HETATM    6  C   UNL     1       3.741 -10.250  57.031  1.00  0.00     0.010 A 
HETATM    7  C   UNL     1       4.825  -9.414  57.294  1.00  0.00     0.040 A 
HETATM    8  C   UNL     1       5.196  -8.440  56.368  1.00  0.00     0.098 A 
BRANCH   5   9
HETATM    9  C   UNL     1       1.867 -11.006  55.558  1.00  0.00     0.049 C 
BRANCH   9  10
HETATM   10  C   UNL     1       0.788 -10.359  54.681  1.00  0.00     0.117 C 
BRANCH  10  11
HETATM   11  C   UNL     1      -0.598 -10.614  55.223  1.00  0.00     0.172 C 
HETATM   12  O   UNL     1      -0.691 -10.395  56.557  1.00  0.00    -0.648 OA
HETATM   13  O   UNL     1      -1.547 -10.958  54.530  1.00  0.00    -0.648 OA
ENDBRANCH  10  11
ENDBRANCH   9  10
ENDBRANCH   5   9
BRANCH   8  14
HETATM   14  O   UNL     1       6.256  -7.628  56.636  1.00  0.00    -0.358 OA
HETATM   15  H   UNL     1       7.130  -7.932  56.485  1.00  0.00     0.217 HD
ENDBRANCH   8  14
ENDBRANCH   1   3
TORSDOF 5
ENDMDL
MODEL 9
REMARK VINA RESULT:      -5.9      1.698      2.726
REMARK  5 active torsions:
REMARK  status: ('A' for Active; 'I' for Inactive)
REMARK    1  A    between atoms: O_1  and  C_10 
REMARK    2  A    between atoms: O_2  and  C_12 
REMARK    3  A    between atoms: C_5  and  C_6 
REMARK    4  A    between atoms: C_5  and  C_7 
REMARK    5  A    between atoms: C_7  and  C_13 
ROOT
HETATM    1  O   UNL     1       6.237  -7.680  56.552  1.00  0.00    -0.358 OA
HETATM    2  H   UNL     1       6.541  -7.198  55.809  1.00  0.00     0.217 HD
ENDROOT
BRANCH   1   3
HETATM    3  C   UNL     1       5.180  -8.531  56.426  1.00  0.00     0.099 A 
HETATM    4  C   UNL     1       4.348  -8.431  55.311  1.00  0.00     0.046 A 
HETATM    5  C   UNL     1       3.262  -9.295  55.171  1.00  0.00    -0.055 A 
HETATM    6  C   UNL     1       3.010 -10.260  56.146  1.00  0.00     0.010 A 
HETATM    7  C   UNL     1       3.842 -10.361  57.261  1.00  0.00     0.040 A 
HETATM    8  C   UNL     1       4.927  -9.497  57.401  1.00  0.00     0.098 A 
BRANCH   5   9
HETATM    9  C   UNL     1       2.373  -9.188  53.979  1.00  0.00     0.049 C 
BRANCH   9  10
HETATM   10  C   UNL     1       1.082 -10.007  54.096  1.00  0.00     0.117 C 
BRANCH  10  11
HETATM   11  C   UNL     1       1.086 -11.191  53.159  1.00  0.00     0.172 C 
HETATM   12  O   UNL     1       0.699 -12.341  53.761  1.00  0.00    -0.648 OA
HETATM   13  O   UNL     1       1.382 -11.118  51.973  1.00  0.00    -0.648 OA
ENDBRANCH  10  11
ENDBRANCH   9  10
ENDBRANCH   5   9
BRANCH   8  14
HETATM   14  O   UNL     1       5.732  -9.602  58.494  1.00  0.00    -0.358 OA
HETATM   15  H   UNL     1       5.971  -8.835  58.976  1.00  0.00     0.217 HD
ENDBRANCH   8  14
ENDBRANCH   1   3
TORSDOF 5
ENDMDL
