MODEL 1
REMARK VINA RESULT:      -6.3      0.000      0.000
REMARK  5 active torsions:
REMARK  status: ('A' for Active; 'I' for Inactive)
REMARK    1  A    between atoms: O_1  and  C_10 
REMARK    2  A    between atoms: O_2  and  C_12 
REMARK    3  A    between atoms: C_5  and  C_6 
REMARK    4  A    between atoms: C_5  and  C_7 
REMARK    5  A    between atoms: C_7  and  C_13 
ROOT
HETATM    1  O   UNL     1       5.421  -9.613  58.467  1.00  0.00    -0.358 OA
HETATM    2  H   UNL     1       5.871  -8.885  58.848  1.00  0.00     0.217 HD
ENDROOT
BRANCH   1   3
HETATM    3  C   UNL     1       4.744  -9.458  57.295  1.00  0.00     0.099 A 
HETATM    4  C   UNL     1       3.656 -10.285  57.017  1.00  0.00     0.046 A 
HETATM    5  C   UNL     1       2.956 -10.138  55.820  1.00  0.00    -0.055 A 
HETATM    6  C   UNL     1       3.344  -9.162  54.901  1.00  0.00     0.010 A 
HETATM    7  C   UNL     1       4.431  -8.335  55.179  1.00  0.00     0.040 A 
HETATM    8  C   UNL     1       5.131  -8.483  56.376  1.00  0.00     0.098 A 
BRANCH   5   9
HETATM    9  C   UNL     1       1.792 -11.022  55.523  1.00  0.00     0.049 C 
BRANCH   9  10
HETATM   10  C   UNL     1       0.701 -10.346  54.684  1.00  0.00     0.117 C 
BRANCH  10  11
HETATM   11  C   UNL     1      -0.677 -10.615  55.240  1.00  0.00     0.172 C 
HETATM   12  O   UNL     1      -0.774 -10.339  56.563  1.00  0.00    -0.648 OA
HETATM   13  O   UNL     1      -1.616 -11.017  54.565  1.00  0.00    -0.648 OA
ENDBRANCH  10  11
ENDBRANCH   9  10
ENDBRANCH   5   9
BRANCH   8  14
HETATM   14  O   UNL     1       6.193  -7.671  56.637  1.00  0.00    -0.358 OA
HETATM   15  H   UNL     1       6.051  -6.794  56.935  1.00  0.00     0.217 HD
ENDBRANCH   8  14
ENDBRANCH   1   3
TORSDOF 5
ENDMDL
MODEL 2
REMARK VINA RESULT:      -6.2      3.100      4.963
REMARK  5 active torsions:
REMARK  status: ('A' for Active; 'I' for Inactive)
REMARK    1  A    between atoms: O_1  and  C_10 
REMARK    2  A    between atoms: O_2  and  C_12 
REMARK    3  A    between atoms: C_5  and  C_6 
REMARK    4  A    between atoms: C_5  and  C_7 
REMARK    5  A    between atoms: C_7  and  C_13 
ROOT
HETATM    1  O   UNL     1       5.258  -6.353  52.322  1.00  0.00    -0.358 OA
HETATM    2  H   UNL     1       4.878  -6.797  51.591  1.00  0.00     0.217 HD
ENDROOT
BRANCH   1   3
HETATM    3  C   UNL     1       4.531  -6.166  53.459  1.00  0.00     0.099 A 
HETATM    4  C   UNL     1       4.021  -7.272  54.137  1.00  0.00     0.046 A 
HETATM    5  C   UNL     1       3.275  -7.094  55.301  1.00  0.00    -0.055 A 
HETATM    6  C   UNL     1       3.039  -5.808  55.788  1.00  0.00     0.010 A 
HETATM    7  C   UNL     1       3.549  -4.702  55.111  1.00  0.00     0.040 A 
HETATM    8  C   UNL     1       4.296  -4.880  53.946  1.00  0.00     0.098 A 
BRANCH   5   9
HETATM    9  C   UNL     1       2.729  -8.278  56.026  1.00  0.00     0.049 C 
BRANCH   9  10
HETATM   10  C   UNL     1       3.643  -9.509  55.973  1.00  0.00     0.117 C 
BRANCH  10  11
HETATM   11  C   UNL     1       4.608  -9.536  57.134  1.00  0.00     0.172 C 
HETATM   12  O   UNL     1       4.539 -10.685  57.850  1.00  0.00    -0.648 OA
HETATM   13  O   UNL     1       5.391  -8.630  57.390  1.00  0.00    -0.648 OA
ENDBRANCH  10  11
ENDBRANCH   9  10
ENDBRANCH   5   9
BRANCH   8  14
HETATM   14  O   UNL     1       4.787  -3.792  53.292  1.00  0.00    -0.358 OA
HETATM   15  H   UNL     1       4.200  -3.164  52.919  1.00  0.00     0.217 HD
ENDBRANCH   8  14
ENDBRANCH   1   3
TORSDOF 5
ENDMDL
MODEL 3
REMARK VINA RESULT:      -6.1      0.732      2.056
REMARK  5 active torsions:
REMARK  status: ('A' for Active; 'I' for Inactive)
REMARK    1  A    between atoms: O_1  and  C_10 
REMARK    2  A    between atoms: O_2  and  C_12 
REMARK    3  A    between atoms: C_5  and  C_6 
REMARK    4  A    between atoms: C_5  and  C_7 
REMARK    5  A    between atoms: C_7  and  C_13 
ROOT
HETATM    1  O   UNL     1       6.043  -7.636  56.488  1.00  0.00    -0.358 OA
HETATM    2  H   UNL     1       6.910  -7.843  56.200  1.00  0.00     0.217 HD
ENDROOT
BRANCH   1   3
HETATM    3  C   UNL     1       5.075  -8.595  56.481  1.00  0.00     0.099 A 
HETATM    4  C   UNL     1       4.092  -8.569  55.492  1.00  0.00     0.046 A 
HETATM    5  C   UNL     1       3.095  -9.545  55.475  1.00  0.00    -0.055 A 
HETATM    6  C   UNL     1       3.083 -10.546  56.446  1.00  0.00     0.010 A 
HETATM    7  C   UNL     1       4.066 -10.572  57.434  1.00  0.00     0.040 A 
HETATM    8  C   UNL     1       5.062  -9.596  57.452  1.00  0.00     0.098 A 
BRANCH   5   9
HETATM    9  C   UNL     1       2.044  -9.517  54.417  1.00  0.00     0.049 C 
BRANCH   9  10
HETATM   10  C   UNL     1       1.212 -10.803  54.340  1.00  0.00     0.117 C 
BRANCH  10  11
HETATM   11  C   UNL     1      -0.175 -10.605  54.901  1.00  0.00     0.172 C 
HETATM   12  O   UNL     1      -1.092 -10.310  53.948  1.00  0.00    -0.648 OA
HETATM   13  O   UNL     1      -0.452 -10.722  56.088  1.00  0.00    -0.648 OA
ENDBRANCH  10  11
ENDBRANCH   9  10
ENDBRANCH   5   9
BRANCH   8  14
HETATM   14  O   UNL     1       6.017  -9.630  58.423  1.00  0.00    -0.358 OA
HETATM   15  H   UNL     1       5.766  -9.684  59.325  1.00  0.00     0.217 HD
ENDBRANCH   8  14
ENDBRANCH   1   3
TORSDOF 5
ENDMDL
MODEL 4
REMARK VINA RESULT:      -6.1      1.411      1.418
REMARK  5 active torsions:
REMARK  status: ('A' for Active; 'I' for Inactive)
REMARK    1  A    between atoms: O_1  and  C_10 
REMARK    2  A    between atoms: O_2  and  C_12 
REMARK    3  A    between atoms: C_5  and  C_6 
REMARK    4  A    between atoms: C_5  and  C_7 
REMARK    5  A    between atoms: C_7  and  C_13 
ROOT
HETATM    1  O   UNL     1       5.970  -9.500  57.991  1.00  0.00    -0.358 OA
HETATM    2  H   UNL     1       5.759 -10.268  58.483  1.00  0.00     0.217 HD
ENDROOT
BRANCH   1   3
HETATM    3  C   UNL     1       5.184  -9.124  56.944  1.00  0.00     0.099 A 
HETATM    4  C   UNL     1       3.856  -9.545  56.898  1.00  0.00     0.046 A 
HETATM    5  C   UNL     1       3.041  -9.168  55.831  1.00  0.00    -0.055 A 
HETATM    6  C   UNL     1       3.555  -8.369  54.809  1.00  0.00     0.010 A 
HETATM    7  C   UNL     1       4.884  -7.949  54.854  1.00  0.00     0.040 A 
HETATM    8  C   UNL     1       5.699  -8.326  55.922  1.00  0.00     0.098 A 
BRANCH   5   9
HETATM    9  C   UNL     1       1.620  -9.617  55.783  1.00  0.00     0.049 C 
BRANCH   9  10
HETATM   10  C   UNL     1       1.247 -10.349  54.487  1.00  0.00     0.117 C 
BRANCH  10  11
HETATM   11  C   UNL     1       0.897 -11.795  54.744  1.00  0.00     0.172 C 
HETATM   12  O   UNL     1       0.737 -12.072  56.061  1.00  0.00    -0.648 OA
HETATM   13  O   UNL     1       0.748 -12.627  53.858  1.00  0.00    -0.648 OA
ENDBRANCH  10  11
ENDBRANCH   9  10
ENDBRANCH   5   9
BRANCH   8  14
HETATM   14  O   UNL     1       6.995  -7.911  55.955  1.00  0.00    -0.358 OA
HETATM   15  H   UNL     1       7.373  -7.618  56.761  1.00  0.00     0.217 HD
ENDBRANCH   8  14
ENDBRANCH   1   3
TORSDOF 5
ENDMDL
MODEL 5
REMARK VINA RESULT:      -6.0      1.385      1.954
REMARK  5 active torsions:
REMARK  status: ('A' for Active; 'I' for Inactive)
REMARK    1  A    between atoms: O_1  and  C_10 
REMARK    2  A    between atoms: O_2  and  C_12 
REMARK    3  A    between atoms: C_5  and  C_6 
REMARK    4  A    between atoms: C_5  and  C_7 
REMARK    5  A    between atoms: C_7  and  C_13 
ROOT
HETATM    1  O   UNL     1       6.278  -7.658  56.644  1.00  0.00    -0.358 OA
HETATM    2  H   UNL     1       6.836  -7.073  56.170  1.00  0.00     0.217 HD
ENDROOT
BRANCH   1   3
HETATM    3  C   UNL     1       4.982  -7.825  56.260  1.00  0.00     0.099 A 
HETATM    4  C   UNL     1       4.418  -9.100  56.285  1.00  0.00     0.046 A 
HETATM    5  C   UNL     1       3.092  -9.284  55.893  1.00  0.00    -0.055 A 
HETATM    6  C   UNL     1       2.331  -8.192  55.476  1.00  0.00     0.010 A 
HETATM    7  C   UNL     1       2.895  -6.917  55.451  1.00  0.00     0.040 A 
HETATM    8  C   UNL     1       4.220  -6.733  55.843  1.00  0.00     0.098 A 
BRANCH   5   9
HETATM    9  C   UNL     1       2.489 -10.647  55.920  1.00  0.00     0.049 C 
BRANCH   9  10
HETATM   10  C   UNL     1       1.620 -10.963  54.696  1.00  0.00     0.117 C 
BRANCH  10  11
HETATM   11  C   UNL     1       0.201 -11.292  55.090  1.00  0.00     0.172 C 
HETATM   12  O   UNL     1      -0.580 -11.613  54.030  1.00  0.00    -0.648 OA
HETATM   13  O   UNL     1      -0.201 -11.296  56.247  1.00  0.00    -0.648 OA
ENDBRANCH  10  11
ENDBRANCH   9  10
ENDBRANCH   5   9
BRANCH   8  14
HETATM   14  O   UNL     1       4.762  -5.484  55.813  1.00  0.00    -0.358 OA
HETATM   15  H   UNL     1       5.118  -5.108  56.594  1.00  0.00     0.217 HD
ENDBRANCH   8  14
ENDBRANCH   1   3
TORSDOF 5
ENDMDL
MODEL 6
REMARK VINA RESULT:      -6.0      1.030      2.120
REMARK  5 active torsions:
REMARK  status: ('A' for Active; 'I' for Inactive)
REMARK    1  A    between atoms: O_1  and  C_10 
REMARK    2  A    between atoms: O_2  and  C_12 
REMARK    3  A    between atoms: C_5  and  C_6 
REMARK    4  A    between atoms: C_5  and  C_7 
REMARK    5  A    between atoms: C_7  and  C_13 
ROOT
HETATM    1  O   UNL     1       5.619  -6.822  54.195  1.00  0.00    -0.358 OA
HETATM    2  H   UNL     1       6.176  -7.047  53.476  1.00  0.00     0.217 HD
ENDROOT
BRANCH   1   3
HETATM    3  C   UNL     1       4.913  -7.794  54.839  1.00  0.00     0.099 A 
HETATM    4  C   UNL     1       3.859  -8.426  54.181  1.00  0.00     0.046 A 
HETATM    5  C   UNL     1       3.129  -9.421  54.830  1.00  0.00    -0.055 A 
HETATM    6  C   UNL     1       3.453  -9.784  56.137  1.00  0.00     0.010 A 
HETATM    7  C   UNL     1       4.507  -9.152  56.795  1.00  0.00     0.040 A 
HETATM    8  C   UNL     1       5.238  -8.156  56.146  1.00  0.00     0.098 A 
BRANCH   5   9
HETATM    9  C   UNL     1       2.002 -10.098  54.125  1.00  0.00     0.049 C 
BRANCH   9  10
HETATM   10  C   UNL     1       1.326 -11.197  54.955  1.00  0.00     0.117 C 
BRANCH  10  11
HETATM   11  C   UNL     1      -0.125 -10.878  55.225  1.00  0.00     0.172 C 
HETATM   12  O   UNL     1      -0.327 -10.337  56.451  1.00  0.00    -0.648 OA
HETATM   13  O   UNL     1      -1.025 -11.063  54.415  1.00  0.00    -0.648 OA
ENDBRANCH  10  11
ENDBRANCH   9  10
ENDBRANCH   5   9
BRANCH   8  14
HETATM   14  O   UNL     1       6.264  -7.544  56.799  1.00  0.00    -0.358 OA
HETATM   15  H   UNL     1       7.086  -7.984  56.897  1.00  0.00     0.217 HD
ENDBRANCH   8  14
ENDBRANCH   1   3
TORSDOF 5
ENDMDL
MODEL 7
REMARK VINA RESULT:      -5.9      3.193      4.430
REMARK  5 active torsions:
REMARK  status: ('A' for Active; 'I' for Inactive)
REMARK    1  A    between atoms: O_1  and  C_10 
REMARK    2  A    between atoms: O_2  and  C_12 
REMARK    3  A    between atoms: C_5  and  C_6 
REMARK    4  A    between atoms: C_5  and  C_7 
REMARK    5  A    between atoms: C_7  and  C_13 
ROOT
HETATM    1  O   UNL     1       4.239  -6.039  51.846  1.00  0.00    -0.358 OA
HETATM    2  H   UNL     1       3.642  -5.716  51.201  1.00  0.00     0.217 HD
ENDROOT
BRANCH   1   3
HETATM    3  C   UNL     1       3.922  -5.958  53.169  1.00  0.00     0.099 A 
HETATM    4  C   UNL     1       3.327  -7.050  53.799  1.00  0.00     0.046 A 
HETATM    5  C   UNL     1       2.996  -6.979  55.152  1.00  0.00    -0.055 A 
HETATM    6  C   UNL     1       3.262  -5.815  55.875  1.00  0.00     0.010 A 
HETATM    7  C   UNL     1       3.857  -4.723  55.244  1.00  0.00     0.040 A 
HETATM    8  C   UNL     1       4.187  -4.795  53.891  1.00  0.00     0.098 A 
BRANCH   5   9
HETATM    9  C   UNL     1       2.360  -8.147  55.827  1.00  0.00     0.049 C 
BRANCH   9  10
HETATM   10  C   UNL     1       2.819  -9.503  55.277  1.00  0.00     0.117 C 
BRANCH  10  11
HETATM   11  C   UNL     1       2.693 -10.596  56.311  1.00  0.00     0.172 C 
HETATM   12  O   UNL     1       3.319 -10.295  57.475  1.00  0.00    -0.648 OA
HETATM   13  O   UNL     1       2.071 -11.634  56.131  1.00  0.00    -0.648 OA
ENDBRANCH  10  11
ENDBRANCH   9  10
ENDBRANCH   5   9
BRANCH   8  14
HETATM   14  O   UNL     1       4.767  -3.721  53.285  1.00  0.00    -0.358 OA
HETATM   15  H   UNL     1       5.457  -3.850  52.664  1.00  0.00     0.217 HD
ENDBRANCH   8  14
ENDBRANCH   1   3
TORSDOF 5
ENDMDL
MODEL 8
REMARK VINA RESULT:      -5.8      2.776      4.748
REMARK  5 active torsions:
REMARK  status: ('A' for Active; 'I' for Inactive)
REMARK    1  A    between atoms: O_1  and  C_10 
REMARK    2  A    between atoms: O_2  and  C_12 
REMARK    3  A    between atoms: C_5  and  C_6 
REMARK    4  A    between atoms: C_5  and  C_7 
REMARK    5  A    between atoms: C_7  and  C_13 
ROOT
HETATM    1  O   UNL     1       2.515 -11.701  56.755  1.00  0.00    -0.358 OA
HETATM    2  H   UNL     1       1.614 -11.621  56.995  1.00  0.00     0.217 HD
ENDROOT
BRANCH   1   3
HETATM    3  C   UNL     1       3.328 -10.608  56.788  1.00  0.00     0.099 A 
HETATM    4  C   UNL     1       2.987  -9.477  56.048  1.00  0.00     0.046 A 
HETATM    5  C   UNL     1       3.811  -8.352  56.072  1.00  0.00    -0.055 A 
HETATM    6  C   UNL     1       4.976  -8.358  56.839  1.00  0.00     0.010 A 
HETATM    7  C   UNL     1       5.318  -9.489  57.580  1.00  0.00     0.040 A 
HETATM    8  C   UNL     1       4.493 -10.614  57.555  1.00  0.00     0.098 A 
BRANCH   5   9
HETATM    9  C   UNL     1       3.445  -7.142  55.280  1.00  0.00     0.049 C 
BRANCH   9  10
HETATM   10  C   UNL     1       3.588  -5.829  56.058  1.00  0.00     0.117 C 
BRANCH  10  11
HETATM   11  C   UNL     1       3.117  -4.646  55.246  1.00  0.00     0.172 C 
HETATM   12  O   UNL     1       3.901  -4.401  54.168  1.00  0.00    -0.648 OA
HETATM   13  O   UNL     1       2.119  -3.990  55.515  1.00  0.00    -0.648 OA
ENDBRANCH  10  11
ENDBRANCH   9  10
ENDBRANCH   5   9
BRANCH   8  14
HETATM   14  O   UNL     1       4.837 -11.714  58.281  1.00  0.00    -0.358 OA
HETATM   15  H   UNL     1       5.684 -12.100  58.173  1.00  0.00     0.217 HD
ENDBRANCH   8  14
ENDBRANCH   1   3
TORSDOF 5
ENDMDL
MODEL 9
REMARK VINA RESULT:      -5.7      1.890      5.477
REMARK  5 active torsions:
REMARK  status: ('A' for Active; 'I' for Inactive)
REMARK    1  A    between atoms: O_1  and  C_10 
REMARK    2  A    between atoms: O_2  and  C_12 
REMARK    3  A    between atoms: C_5  and  C_6 
REMARK    4  A    between atoms: C_5  and  C_7 
REMARK    5  A    between atoms: C_7  and  C_13 
ROOT
HETATM    1  O   UNL     1       1.021 -12.522  56.248  1.00  0.00    -0.358 OA
HETATM    2  H   UNL     1       1.664 -13.107  56.597  1.00  0.00     0.217 HD
ENDROOT
BRANCH   1   3
HETATM    3  C   UNL     1       1.342 -11.694  55.215  1.00  0.00     0.099 A 
HETATM    4  C   UNL     1       2.195 -10.614  55.442  1.00  0.00     0.046 A 
HETATM    5  C   UNL     1       2.530  -9.759  54.393  1.00  0.00    -0.055 A 
HETATM    6  C   UNL     1       2.013  -9.984  53.117  1.00  0.00     0.010 A 
HETATM    7  C   UNL     1       1.160 -11.063  52.891  1.00  0.00     0.040 A 
HETATM    8  C   UNL     1       0.825 -11.919  53.940  1.00  0.00     0.098 A 
BRANCH   5   9
HETATM    9  C   UNL     1       3.442  -8.604  54.635  1.00  0.00     0.049 C 
BRANCH   9  10
HETATM   10  C   UNL     1       3.656  -8.287  56.120  1.00  0.00     0.117 C 
BRANCH  10  11
HETATM   11  C   UNL     1       4.967  -7.575  56.355  1.00  0.00     0.172 C 
HETATM   12  O   UNL     1       6.013  -8.181  55.742  1.00  0.00    -0.648 OA
HETATM   13  O   UNL     1       5.074  -6.546  57.009  1.00  0.00    -0.648 OA
ENDBRANCH  10  11
ENDBRANCH   9  10
ENDBRANCH   5   9
BRANCH   8  14
HETATM   14  O   UNL     1      -0.010 -12.970  53.707  1.00  0.00    -0.358 OA
HETATM   15  H   UNL     1       0.265 -13.674  53.154  1.00  0.00     0.217 HD
ENDBRANCH   8  14
ENDBRANCH   1   3
TORSDOF 5
ENDMDL
