MODEL 1
REMARK VINA RESULT:      -6.4      0.000      0.000
REMARK  7 active torsions:
REMARK  status: ('A' for Active; 'I' for Inactive)
REMARK    1  A    between atoms: O_1  and  C_2 
REMARK    2  A    between atoms: C_2  and  C_3 
REMARK    3  A    between atoms: C_2  and  C_8 
REMARK    4  A    between atoms: C_3  and  C_4 
REMARK    5  A    between atoms: C_4  and  C_5 
REMARK    6  A    between atoms: C_8  and  C_9 
REMARK    7  A    between atoms: C_11  and  O_15 
ROOT
HETATM    1  O   UNL     1      11.941   7.651  15.438  1.00  0.00    -0.395 OA
HETATM    2  H   UNL     1      11.029   7.950  15.577  1.00  0.00     0.210 HD
ENDROOT
BRANCH   1   3
HETATM    3  C   UNL     1      12.207   7.570  14.039  1.00  0.00     0.122 C 
BRANCH   3   4
HETATM    4  C   UNL     1      11.981   8.942  13.384  1.00  0.00     0.042 C 
BRANCH   4   5
HETATM    5  C   UNL     1      12.689  10.087  14.113  1.00  0.00     0.116 C 
BRANCH   5   6
HETATM    6  C   UNL     1      12.413  11.473  13.589  1.00  0.00     0.172 C 
HETATM    7  O   UNL     1      13.028  12.480  13.902  1.00  0.00    -0.648 OA
HETATM    8  O   UNL     1      11.337  11.567  12.782  1.00  0.00    -0.648 OA
ENDBRANCH   5   6
ENDBRANCH   4   5
ENDBRANCH   3   4
BRANCH   3   9
HETATM    9  C   UNL     1      13.654   7.089  13.811  1.00  0.00     0.070 C 
BRANCH   9  10
HETATM   10  C   UNL     1      13.846   6.391  12.481  1.00  0.00    -0.053 A 
HETATM   11  C   UNL     1      12.863   5.521  11.984  1.00  0.00     0.043 A 
HETATM   12  C   UNL     1      13.051   4.886  10.758  1.00  0.00     0.066 A 
HETATM   13  C   UNL     1      14.204   5.100  10.013  1.00  0.00     0.036 A 
HETATM   14  C   UNL     1      15.187   5.961  10.498  1.00  0.00     0.003 A 
HETATM   15  C   UNL     1      15.008   6.603  11.725  1.00  0.00     0.007 A 
BRANCH  12  16
HETATM   16  O   UNL     1      12.115   4.037  10.246  1.00  0.00    -0.361 OA
HETATM   17  H   UNL     1      11.942   3.220  10.670  1.00  0.00     0.217 HD
ENDBRANCH  12  16
ENDBRANCH   9  10
ENDBRANCH   3   9
ENDBRANCH   1   3
TORSDOF 7
ENDMDL
MODEL 2
REMARK VINA RESULT:      -6.3      2.627      6.234
REMARK  7 active torsions:
REMARK  status: ('A' for Active; 'I' for Inactive)
REMARK    1  A    between atoms: O_1  and  C_2 
REMARK    2  A    between atoms: C_2  and  C_3 
REMARK    3  A    between atoms: C_2  and  C_8 
REMARK    4  A    between atoms: C_3  and  C_4 
REMARK    5  A    between atoms: C_4  and  C_5 
REMARK    6  A    between atoms: C_8  and  C_9 
REMARK    7  A    between atoms: C_11  and  O_15 
ROOT
HETATM    1  O   UNL     1      16.424   5.389  12.228  1.00  0.00    -0.395 OA
HETATM    2  H   UNL     1      16.374   5.414  13.196  1.00  0.00     0.210 HD
ENDROOT
BRANCH   1   3
HETATM    3  C   UNL     1      15.140   5.681  11.678  1.00  0.00     0.122 C 
BRANCH   3   4
HETATM    4  C   UNL     1      15.035   5.097  10.260  1.00  0.00     0.042 C 
BRANCH   4   5
HETATM    5  C   UNL     1      13.595   4.817   9.824  1.00  0.00     0.116 C 
BRANCH   5   6
HETATM    6  C   UNL     1      13.366   3.517   9.096  1.00  0.00     0.172 C 
HETATM    7  O   UNL     1      12.783   2.547   9.553  1.00  0.00    -0.648 OA
HETATM    8  O   UNL     1      13.947   3.441   7.882  1.00  0.00    -0.648 OA
ENDBRANCH   5   6
ENDBRANCH   4   5
ENDBRANCH   3   4
BRANCH   3   9
HETATM    9  C   UNL     1      14.040   5.103  12.590  1.00  0.00     0.070 C 
BRANCH   9  10
HETATM   10  C   UNL     1      13.182   6.170  13.236  1.00  0.00    -0.053 A 
HETATM   11  C   UNL     1      12.769   6.039  14.571  1.00  0.00     0.043 A 
HETATM   12  C   UNL     1      11.981   7.030  15.156  1.00  0.00     0.066 A 
HETATM   13  C   UNL     1      11.594   8.152  14.434  1.00  0.00     0.036 A 
HETATM   14  C   UNL     1      11.997   8.290  13.108  1.00  0.00     0.003 A 
HETATM   15  C   UNL     1      12.788   7.305  12.513  1.00  0.00     0.007 A 
BRANCH  12  16
HETATM   16  O   UNL     1      11.565   6.934  16.451  1.00  0.00    -0.361 OA
HETATM   17  H   UNL     1      11.663   6.127  16.916  1.00  0.00     0.217 HD
ENDBRANCH  12  16
ENDBRANCH   9  10
ENDBRANCH   3   9
ENDBRANCH   1   3
TORSDOF 7
ENDMDL
MODEL 3
REMARK VINA RESULT:      -6.2      3.977      5.880
REMARK  7 active torsions:
REMARK  status: ('A' for Active; 'I' for Inactive)
REMARK    1  A    between atoms: O_1  and  C_2 
REMARK    2  A    between atoms: C_2  and  C_3 
REMARK    3  A    between atoms: C_2  and  C_8 
REMARK    4  A    between atoms: C_3  and  C_4 
REMARK    5  A    between atoms: C_4  and  C_5 
REMARK    6  A    between atoms: C_8  and  C_9 
REMARK    7  A    between atoms: C_11  and  O_15 
ROOT
HETATM    1  O   UNL     1      12.251   4.336  13.233  1.00  0.00    -0.395 OA
HETATM    2  H   UNL     1      11.658   3.579  13.106  1.00  0.00     0.210 HD
ENDROOT
BRANCH   1   3
HETATM    3  C   UNL     1      13.105   4.465  12.097  1.00  0.00     0.122 C 
BRANCH   3   4
HETATM    4  C   UNL     1      12.302   4.217  10.809  1.00  0.00     0.042 C 
BRANCH   4   5
HETATM    5  C   UNL     1      12.985   3.245   9.845  1.00  0.00     0.116 C 
BRANCH   5   6
HETATM    6  C   UNL     1      13.392   3.815   8.511  1.00  0.00     0.172 C 
HETATM    7  O   UNL     1      13.033   4.894   8.067  1.00  0.00    -0.648 OA
HETATM    8  O   UNL     1      14.143   2.993   7.751  1.00  0.00    -0.648 OA
ENDBRANCH   5   6
ENDBRANCH   4   5
ENDBRANCH   3   4
BRANCH   3   9
HETATM    9  C   UNL     1      13.741   5.869  12.080  1.00  0.00     0.070 C 
BRANCH   9  10
HETATM   10  C   UNL     1      15.254   5.836  12.040  1.00  0.00    -0.053 A 
HETATM   11  C   UNL     1      15.934   5.834  10.812  1.00  0.00     0.043 A 
HETATM   12  C   UNL     1      17.328   5.806  10.788  1.00  0.00     0.066 A 
HETATM   13  C   UNL     1      18.061   5.779  11.968  1.00  0.00     0.036 A 
HETATM   14  C   UNL     1      17.395   5.779  13.191  1.00  0.00     0.003 A 
HETATM   15  C   UNL     1      16.000   5.809  13.227  1.00  0.00     0.007 A 
BRANCH  12  16
HETATM   16  O   UNL     1      18.018   5.804   9.613  1.00  0.00    -0.361 OA
HETATM   17  H   UNL     1      18.606   5.102   9.416  1.00  0.00     0.217 HD
ENDBRANCH  12  16
ENDBRANCH   9  10
ENDBRANCH   3   9
ENDBRANCH   1   3
TORSDOF 7
ENDMDL
MODEL 4
REMARK VINA RESULT:      -6.2      2.231      3.325
REMARK  7 active torsions:
REMARK  status: ('A' for Active; 'I' for Inactive)
REMARK    1  A    between atoms: O_1  and  C_2 
REMARK    2  A    between atoms: C_2  and  C_3 
REMARK    3  A    between atoms: C_2  and  C_8 
REMARK    4  A    between atoms: C_3  and  C_4 
REMARK    5  A    between atoms: C_4  and  C_5 
REMARK    6  A    between atoms: C_8  and  C_9 
REMARK    7  A    between atoms: C_11  and  O_15 
ROOT
HETATM    1  O   UNL     1      11.138   5.208  11.563  1.00  0.00    -0.395 OA
HETATM    2  H   UNL     1      10.953   4.383  12.038  1.00  0.00     0.210 HD
ENDROOT
BRANCH   1   3
HETATM    3  C   UNL     1      12.332   5.795  12.079  1.00  0.00     0.122 C 
BRANCH   3   4
HETATM    4  C   UNL     1      12.000   6.668  13.300  1.00  0.00     0.042 C 
BRANCH   4   5
HETATM    5  C   UNL     1      12.009   8.168  12.996  1.00  0.00     0.116 C 
BRANCH   5   6
HETATM    6  C   UNL     1      12.855   9.020  13.907  1.00  0.00     0.172 C 
HETATM    7  O   UNL     1      12.732  10.225  14.059  1.00  0.00    -0.648 OA
HETATM    8  O   UNL     1      13.866   8.367  14.513  1.00  0.00    -0.648 OA
ENDBRANCH   5   6
ENDBRANCH   4   5
ENDBRANCH   3   4
BRANCH   3   9
HETATM    9  C   UNL     1      13.336   4.689  12.456  1.00  0.00     0.070 C 
BRANCH   9  10
HETATM   10  C   UNL     1      14.779   5.140  12.373  1.00  0.00    -0.053 A 
HETATM   11  C   UNL     1      15.412   5.274  11.127  1.00  0.00     0.043 A 
HETATM   12  C   UNL     1      16.740   5.693  11.063  1.00  0.00     0.066 A 
HETATM   13  C   UNL     1      17.454   5.981  12.220  1.00  0.00     0.036 A 
HETATM   14  C   UNL     1      16.835   5.849  13.461  1.00  0.00     0.003 A 
HETATM   15  C   UNL     1      15.504   5.432  13.537  1.00  0.00     0.007 A 
BRANCH  12  16
HETATM   16  O   UNL     1      17.383   5.835   9.870  1.00  0.00    -0.361 OA
HETATM   17  H   UNL     1      18.064   5.238   9.630  1.00  0.00     0.217 HD
ENDBRANCH  12  16
ENDBRANCH   9  10
ENDBRANCH   3   9
ENDBRANCH   1   3
TORSDOF 7
ENDMDL
MODEL 5
REMARK VINA RESULT:      -6.2      1.581      2.148
REMARK  7 active torsions:
REMARK  status: ('A' for Active; 'I' for Inactive)
REMARK    1  A    between atoms: O_1  and  C_2 
REMARK    2  A    between atoms: C_2  and  C_3 
REMARK    3  A    between atoms: C_2  and  C_8 
REMARK    4  A    between atoms: C_3  and  C_4 
REMARK    5  A    between atoms: C_4  and  C_5 
REMARK    6  A    between atoms: C_8  and  C_9 
REMARK    7  A    between atoms: C_11  and  O_15 
ROOT
HETATM    1  O   UNL     1      11.496   6.243  15.013  1.00  0.00    -0.395 OA
HETATM    2  H   UNL     1      11.581   5.330  15.329  1.00  0.00     0.210 HD
ENDROOT
BRANCH   1   3
HETATM    3  C   UNL     1      12.133   6.366  13.741  1.00  0.00     0.122 C 
BRANCH   3   4
HETATM    4  C   UNL     1      12.749   7.768  13.601  1.00  0.00     0.042 C 
BRANCH   4   5
HETATM    5  C   UNL     1      11.710   8.869  13.380  1.00  0.00     0.116 C 
BRANCH   5   6
HETATM    6  C   UNL     1      12.163  10.274  13.685  1.00  0.00     0.172 C 
HETATM    7  O   UNL     1      13.033  10.575  14.486  1.00  0.00    -0.648 OA
HETATM    8  O   UNL     1      11.460  11.241  13.062  1.00  0.00    -0.648 OA
ENDBRANCH   5   6
ENDBRANCH   4   5
ENDBRANCH   3   4
BRANCH   3   9
HETATM    9  C   UNL     1      13.214   5.278  13.592  1.00  0.00     0.070 C 
BRANCH   9  10
HETATM   10  C   UNL     1      13.524   4.942  12.149  1.00  0.00    -0.053 A 
HETATM   11  C   UNL     1      14.774   5.262  11.596  1.00  0.00     0.043 A 
HETATM   12  C   UNL     1      15.048   4.944  10.267  1.00  0.00     0.066 A 
HETATM   13  C   UNL     1      14.098   4.313   9.473  1.00  0.00     0.036 A 
HETATM   14  C   UNL     1      12.855   3.992  10.012  1.00  0.00     0.003 A 
HETATM   15  C   UNL     1      12.569   4.304  11.343  1.00  0.00     0.007 A 
BRANCH  12  16
HETATM   16  O   UNL     1      16.252   5.240   9.700  1.00  0.00    -0.361 OA
HETATM   17  H   UNL     1      16.286   5.712   8.891  1.00  0.00     0.217 HD
ENDBRANCH  12  16
ENDBRANCH   9  10
ENDBRANCH   3   9
ENDBRANCH   1   3
TORSDOF 7
ENDMDL
MODEL 6
REMARK VINA RESULT:      -6.0      1.861      2.581
REMARK  7 active torsions:
REMARK  status: ('A' for Active; 'I' for Inactive)
REMARK    1  A    between atoms: O_1  and  C_2 
REMARK    2  A    between atoms: C_2  and  C_3 
REMARK    3  A    between atoms: C_2  and  C_8 
REMARK    4  A    between atoms: C_3  and  C_4 
REMARK    5  A    between atoms: C_4  and  C_5 
REMARK    6  A    between atoms: C_8  and  C_9 
REMARK    7  A    between atoms: C_11  and  O_15 
ROOT
HETATM    1  O   UNL     1      13.069   4.083  15.890  1.00  0.00    -0.395 OA
HETATM    2  H   UNL     1      13.678   4.257  16.625  1.00  0.00     0.210 HD
ENDROOT
BRANCH   1   3
HETATM    3  C   UNL     1      13.162   5.139  14.935  1.00  0.00     0.122 C 
BRANCH   3   4
HETATM    4  C   UNL     1      12.893   6.488  15.622  1.00  0.00     0.042 C 
BRANCH   4   5
HETATM    5  C   UNL     1      11.738   7.270  14.993  1.00  0.00     0.116 C 
BRANCH   5   6
HETATM    6  C   UNL     1      12.085   8.104  13.786  1.00  0.00     0.172 C 
HETATM    7  O   UNL     1      11.815   7.817  12.631  1.00  0.00    -0.648 OA
HETATM    8  O   UNL     1      12.826   9.198  14.050  1.00  0.00    -0.648 OA
ENDBRANCH   5   6
ENDBRANCH   4   5
ENDBRANCH   3   4
BRANCH   3   9
HETATM    9  C   UNL     1      14.558   5.129  14.282  1.00  0.00     0.070 C 
BRANCH   9  10
HETATM   10  C   UNL     1      14.507   5.068  12.770  1.00  0.00    -0.053 A 
HETATM   11  C   UNL     1      13.330   4.680  12.112  1.00  0.00     0.043 A 
HETATM   12  C   UNL     1      13.295   4.630  10.720  1.00  0.00     0.066 A 
HETATM   13  C   UNL     1      14.414   4.960   9.966  1.00  0.00     0.036 A 
HETATM   14  C   UNL     1      15.588   5.346  10.609  1.00  0.00     0.003 A 
HETATM   15  C   UNL     1      15.634   5.400  12.004  1.00  0.00     0.007 A 
BRANCH  12  16
HETATM   16  O   UNL     1      12.167   4.259  10.050  1.00  0.00    -0.361 OA
HETATM   17  H   UNL     1      11.620   4.909   9.657  1.00  0.00     0.217 HD
ENDBRANCH  12  16
ENDBRANCH   9  10
ENDBRANCH   3   9
ENDBRANCH   1   3
TORSDOF 7
ENDMDL
MODEL 7
REMARK VINA RESULT:      -5.9      3.270      6.096
REMARK  7 active torsions:
REMARK  status: ('A' for Active; 'I' for Inactive)
REMARK    1  A    between atoms: O_1  and  C_2 
REMARK    2  A    between atoms: C_2  and  C_3 
REMARK    3  A    between atoms: C_2  and  C_8 
REMARK    4  A    between atoms: C_3  and  C_4 
REMARK    5  A    between atoms: C_4  and  C_5 
REMARK    6  A    between atoms: C_8  and  C_9 
REMARK    7  A    between atoms: C_11  and  O_15 
ROOT
HETATM    1  O   UNL     1      17.166   6.703  10.346  1.00  0.00    -0.395 OA
HETATM    2  H   UNL     1      17.853   6.100  10.670  1.00  0.00     0.210 HD
ENDROOT
BRANCH   1   3
HETATM    3  C   UNL     1      15.885   6.235  10.768  1.00  0.00     0.122 C 
BRANCH   3   4
HETATM    4  C   UNL     1      15.513   4.961   9.993  1.00  0.00     0.042 C 
BRANCH   4   5
HETATM    5  C   UNL     1      14.022   4.864   9.663  1.00  0.00     0.116 C 
BRANCH   5   6
HETATM    6  C   UNL     1      13.586   3.615   8.940  1.00  0.00     0.172 C 
HETATM    7  O   UNL     1      13.869   3.334   7.786  1.00  0.00    -0.648 OA
HETATM    8  O   UNL     1      12.749   2.822   9.639  1.00  0.00    -0.648 OA
ENDBRANCH   5   6
ENDBRANCH   4   5
ENDBRANCH   3   4
BRANCH   3   9
HETATM    9  C   UNL     1      15.904   5.965  12.285  1.00  0.00     0.070 C 
BRANCH   9  10
HETATM   10  C   UNL     1      14.581   6.263  12.959  1.00  0.00    -0.053 A 
HETATM   11  C   UNL     1      13.859   5.241  13.595  1.00  0.00     0.043 A 
HETATM   12  C   UNL     1      12.644   5.529  14.214  1.00  0.00     0.066 A 
HETATM   13  C   UNL     1      12.131   6.820  14.212  1.00  0.00     0.036 A 
HETATM   14  C   UNL     1      12.839   7.841  13.583  1.00  0.00     0.003 A 
HETATM   15  C   UNL     1      14.059   7.564  12.961  1.00  0.00     0.007 A 
BRANCH  12  16
HETATM   16  O   UNL     1      11.919   4.560  14.841  1.00  0.00    -0.361 OA
HETATM   17  H   UNL     1      11.283   4.794  15.487  1.00  0.00     0.217 HD
ENDBRANCH  12  16
ENDBRANCH   9  10
ENDBRANCH   3   9
ENDBRANCH   1   3
TORSDOF 7
ENDMDL
MODEL 8
REMARK VINA RESULT:      -5.9      2.868      5.541
REMARK  7 active torsions:
REMARK  status: ('A' for Active; 'I' for Inactive)
REMARK    1  A    between atoms: O_1  and  C_2 
REMARK    2  A    between atoms: C_2  and  C_3 
REMARK    3  A    between atoms: C_2  and  C_8 
REMARK    4  A    between atoms: C_3  and  C_4 
REMARK    5  A    between atoms: C_4  and  C_5 
REMARK    6  A    between atoms: C_8  and  C_9 
REMARK    7  A    between atoms: C_11  and  O_15 
ROOT
HETATM    1  O   UNL     1      15.800   7.228  10.096  1.00  0.00    -0.395 OA
HETATM    2  H   UNL     1      15.350   7.846   9.499  1.00  0.00     0.210 HD
ENDROOT
BRANCH   1   3
HETATM    3  C   UNL     1      14.869   6.737  11.060  1.00  0.00     0.122 C 
BRANCH   3   4
HETATM    4  C   UNL     1      14.944   5.202  11.123  1.00  0.00     0.042 C 
BRANCH   4   5
HETATM    5  C   UNL     1      13.667   4.511  10.642  1.00  0.00     0.116 C 
BRANCH   5   6
HETATM    6  C   UNL     1      12.469   4.634  11.548  1.00  0.00     0.172 C 
HETATM    7  O   UNL     1      11.523   5.384  11.369  1.00  0.00    -0.648 OA
HETATM    8  O   UNL     1      12.538   3.899  12.676  1.00  0.00    -0.648 OA
ENDBRANCH   5   6
ENDBRANCH   4   5
ENDBRANCH   3   4
BRANCH   3   9
HETATM    9  C   UNL     1      15.174   7.354  12.440  1.00  0.00     0.070 C 
BRANCH   9  10
HETATM   10  C   UNL     1      13.978   7.355  13.368  1.00  0.00    -0.053 A 
HETATM   11  C   UNL     1      14.005   6.624  14.566  1.00  0.00     0.043 A 
HETATM   12  C   UNL     1      12.899   6.635  15.413  1.00  0.00     0.066 A 
HETATM   13  C   UNL     1      11.760   7.363  15.090  1.00  0.00     0.036 A 
HETATM   14  C   UNL     1      11.722   8.091  13.903  1.00  0.00     0.003 A 
HETATM   15  C   UNL     1      12.826   8.088  13.047  1.00  0.00     0.007 A 
BRANCH  12  16
HETATM   16  O   UNL     1      12.893   5.937  16.584  1.00  0.00    -0.361 OA
HETATM   17  H   UNL     1      12.496   6.306  17.348  1.00  0.00     0.217 HD
ENDBRANCH  12  16
ENDBRANCH   9  10
ENDBRANCH   3   9
ENDBRANCH   1   3
TORSDOF 7
ENDMDL
MODEL 9
REMARK VINA RESULT:      -5.8      3.181      5.978
REMARK  7 active torsions:
REMARK  status: ('A' for Active; 'I' for Inactive)
REMARK    1  A    between atoms: O_1  and  C_2 
REMARK    2  A    between atoms: C_2  and  C_3 
REMARK    3  A    between atoms: C_2  and  C_8 
REMARK    4  A    between atoms: C_3  and  C_4 
REMARK    5  A    between atoms: C_4  and  C_5 
REMARK    6  A    between atoms: C_8  and  C_9 
REMARK    7  A    between atoms: C_11  and  O_15 
ROOT
HETATM    1  O   UNL     1      16.015   5.626   9.844  1.00  0.00    -0.395 OA
HETATM    2  H   UNL     1      15.950   4.959   9.143  1.00  0.00     0.210 HD
ENDROOT
BRANCH   1   3
HETATM    3  C   UNL     1      14.711   5.914  10.348  1.00  0.00     0.122 C 
BRANCH   3   4
HETATM    4  C   UNL     1      14.020   4.612  10.781  1.00  0.00     0.042 C 
BRANCH   4   5
HETATM    5  C   UNL     1      12.849   4.216   9.878  1.00  0.00     0.116 C 
BRANCH   5   6
HETATM    6  C   UNL     1      13.161   4.090   8.410  1.00  0.00     0.172 C 
HETATM    7  O   UNL     1      13.862   3.225   7.910  1.00  0.00    -0.648 OA
HETATM    8  O   UNL     1      12.676   5.087   7.642  1.00  0.00    -0.648 OA
ENDBRANCH   5   6
ENDBRANCH   4   5
ENDBRANCH   3   4
BRANCH   3   9
HETATM    9  C   UNL     1      14.816   6.896  11.532  1.00  0.00     0.070 C 
BRANCH   9  10
HETATM   10  C   UNL     1      14.411   6.279  12.854  1.00  0.00    -0.053 A 
HETATM   11  C   UNL     1      13.097   6.411  13.329  1.00  0.00     0.043 A 
HETATM   12  C   UNL     1      12.736   5.835  14.546  1.00  0.00     0.066 A 
HETATM   13  C   UNL     1      13.662   5.129  15.304  1.00  0.00     0.036 A 
HETATM   14  C   UNL     1      14.969   4.994  14.842  1.00  0.00     0.003 A 
HETATM   15  C   UNL     1      15.342   5.565  13.623  1.00  0.00     0.007 A 
BRANCH  12  16
HETATM   16  O   UNL     1      11.468   5.944  15.035  1.00  0.00    -0.361 OA
HETATM   17  H   UNL     1      10.739   5.685  14.508  1.00  0.00     0.217 HD
ENDBRANCH  12  16
ENDBRANCH   9  10
ENDBRANCH   3   9
ENDBRANCH   1   3
TORSDOF 7
ENDMDL
