MODEL 1
REMARK VINA RESULT:      -6.7      0.000      0.000
REMARK  7 active torsions:
REMARK  status: ('A' for Active; 'I' for Inactive)
REMARK    1  A    between atoms: O_1  and  C_2 
REMARK    2  A    between atoms: C_2  and  C_3 
REMARK    3  A    between atoms: C_2  and  C_8 
REMARK    4  A    between atoms: C_3  and  C_4 
REMARK    5  A    between atoms: C_4  and  C_5 
REMARK    6  A    between atoms: C_8  and  C_9 
REMARK    7  A    between atoms: C_11  and  O_15 
ROOT
HETATM    1  O   UNL     1       9.296   6.831   9.577  1.00  0.00    -0.395 OA
HETATM    2  H   UNL     1       9.254   7.774   9.352  1.00  0.00     0.210 HD
ENDROOT
BRANCH   1   3
HETATM    3  C   UNL     1      10.473   6.259   9.008  1.00  0.00     0.122 C 
BRANCH   3   4
HETATM    4  C   UNL     1      10.669   6.784   7.576  1.00  0.00     0.042 C 
BRANCH   4   5
HETATM    5  C   UNL     1      10.401   5.729   6.501  1.00  0.00     0.116 C 
BRANCH   5   6
HETATM    6  C   UNL     1      11.509   5.510   5.502  1.00  0.00     0.172 C 
HETATM    7  O   UNL     1      11.420   4.834   4.489  1.00  0.00    -0.648 OA
HETATM    8  O   UNL     1      12.694   6.053   5.845  1.00  0.00    -0.648 OA
ENDBRANCH   5   6
ENDBRANCH   4   5
ENDBRANCH   3   4
BRANCH   3   9
HETATM    9  C   UNL     1      11.694   6.599   9.885  1.00  0.00     0.070 C 
BRANCH   9  10
HETATM   10  C   UNL     1      11.414   7.689  10.898  1.00  0.00    -0.053 A 
HETATM   11  C   UNL     1      11.107   7.362  12.228  1.00  0.00     0.043 A 
HETATM   12  C   UNL     1      10.853   8.375  13.152  1.00  0.00     0.066 A 
HETATM   13  C   UNL     1      10.899   9.712  12.776  1.00  0.00     0.036 A 
HETATM   14  C   UNL     1      11.202  10.046  11.458  1.00  0.00     0.003 A 
HETATM   15  C   UNL     1      11.459   9.040  10.524  1.00  0.00     0.007 A 
BRANCH  12  16
HETATM   16  O   UNL     1      10.553   8.092  14.452  1.00  0.00    -0.361 OA
HETATM   17  H   UNL     1      10.774   7.256  14.812  1.00  0.00     0.217 HD
ENDBRANCH  12  16
ENDBRANCH   9  10
ENDBRANCH   3   9
ENDBRANCH   1   3
TORSDOF 7
ENDMDL
MODEL 2
REMARK VINA RESULT:      -6.5      2.680      6.677
REMARK  7 active torsions:
REMARK  status: ('A' for Active; 'I' for Inactive)
REMARK    1  A    between atoms: O_1  and  C_2 
REMARK    2  A    between atoms: C_2  and  C_3 
REMARK    3  A    between atoms: C_2  and  C_8 
REMARK    4  A    between atoms: C_3  and  C_4 
REMARK    5  A    between atoms: C_4  and  C_5 
REMARK    6  A    between atoms: C_8  and  C_9 
REMARK    7  A    between atoms: C_11  and  O_15 
ROOT
HETATM    1  O   UNL     1      11.145   8.864  13.556  1.00  0.00    -0.395 OA
HETATM    2  H   UNL     1      11.795   9.464  13.952  1.00  0.00     0.210 HD
ENDROOT
BRANCH   1   3
HETATM    3  C   UNL     1      11.096   9.079  12.146  1.00  0.00     0.122 C 
BRANCH   3   4
HETATM    4  C   UNL     1      11.026  10.586  11.850  1.00  0.00     0.042 C 
BRANCH   4   5
HETATM    5  C   UNL     1      12.102  11.398  12.576  1.00  0.00     0.116 C 
BRANCH   5   6
HETATM    6  C   UNL     1      12.062  12.888  12.359  1.00  0.00     0.172 C 
HETATM    7  O   UNL     1      12.912  13.679  12.736  1.00  0.00    -0.648 OA
HETATM    8  O   UNL     1      10.935  13.343  11.774  1.00  0.00    -0.648 OA
ENDBRANCH   5   6
ENDBRANCH   4   5
ENDBRANCH   3   4
BRANCH   3   9
HETATM    9  C   UNL     1      12.336   8.449  11.480  1.00  0.00     0.070 C 
BRANCH   9  10
HETATM   10  C   UNL     1      12.036   7.825  10.134  1.00  0.00    -0.053 A 
HETATM   11  C   UNL     1      13.011   7.807   9.124  1.00  0.00     0.043 A 
HETATM   12  C   UNL     1      12.722   7.226   7.890  1.00  0.00     0.066 A 
HETATM   13  C   UNL     1      11.477   6.663   7.639  1.00  0.00     0.036 A 
HETATM   14  C   UNL     1      10.503   6.678   8.635  1.00  0.00     0.003 A 
HETATM   15  C   UNL     1      10.781   7.255   9.876  1.00  0.00     0.007 A 
BRANCH  12  16
HETATM   16  O   UNL     1      13.647   7.190   6.889  1.00  0.00    -0.361 OA
HETATM   17  H   UNL     1      14.147   6.412   6.741  1.00  0.00     0.217 HD
ENDBRANCH  12  16
ENDBRANCH   9  10
ENDBRANCH   3   9
ENDBRANCH   1   3
TORSDOF 7
ENDMDL
MODEL 3
REMARK VINA RESULT:      -6.5      2.715      4.467
REMARK  7 active torsions:
REMARK  status: ('A' for Active; 'I' for Inactive)
REMARK    1  A    between atoms: O_1  and  C_2 
REMARK    2  A    between atoms: C_2  and  C_3 
REMARK    3  A    between atoms: C_2  and  C_8 
REMARK    4  A    between atoms: C_3  and  C_4 
REMARK    5  A    between atoms: C_4  and  C_5 
REMARK    6  A    between atoms: C_8  and  C_9 
REMARK    7  A    between atoms: C_11  and  O_15 
ROOT
HETATM    1  O   UNL     1      10.542   6.030  10.735  1.00  0.00    -0.395 OA
HETATM    2  H   UNL     1       9.779   6.627  10.784  1.00  0.00     0.210 HD
ENDROOT
BRANCH   1   3
HETATM    3  C   UNL     1      11.334   6.364   9.595  1.00  0.00     0.122 C 
BRANCH   3   4
HETATM    4  C   UNL     1      10.421   6.754   8.422  1.00  0.00     0.042 C 
BRANCH   4   5
HETATM    5  C   UNL     1      10.394   5.713   7.301  1.00  0.00     0.116 C 
BRANCH   5   6
HETATM    6  C   UNL     1      10.718   6.222   5.920  1.00  0.00     0.172 C 
HETATM    7  O   UNL     1      11.279   5.580   5.046  1.00  0.00    -0.648 OA
HETATM    8  O   UNL     1      10.422   7.521   5.713  1.00  0.00    -0.648 OA
ENDBRANCH   5   6
ENDBRANCH   4   5
ENDBRANCH   3   4
BRANCH   3   9
HETATM    9  C   UNL     1      12.293   7.519   9.947  1.00  0.00     0.070 C 
BRANCH   9  10
HETATM   10  C   UNL     1      13.719   7.262   9.510  1.00  0.00    -0.053 A 
HETATM   11  C   UNL     1      14.086   7.399   8.162  1.00  0.00     0.043 A 
HETATM   12  C   UNL     1      15.404   7.162   7.773  1.00  0.00     0.066 A 
HETATM   13  C   UNL     1      16.367   6.789   8.702  1.00  0.00     0.036 A 
HETATM   14  C   UNL     1      16.012   6.650  10.042  1.00  0.00     0.003 A 
HETATM   15  C   UNL     1      14.695   6.886  10.444  1.00  0.00     0.007 A 
BRANCH  12  16
HETATM   16  O   UNL     1      15.794   7.288   6.472  1.00  0.00    -0.361 OA
HETATM   17  H   UNL     1      15.311   6.857   5.795  1.00  0.00     0.217 HD
ENDBRANCH  12  16
ENDBRANCH   9  10
ENDBRANCH   3   9
ENDBRANCH   1   3
TORSDOF 7
ENDMDL
MODEL 4
REMARK VINA RESULT:      -6.5      2.626      6.395
REMARK  7 active torsions:
REMARK  status: ('A' for Active; 'I' for Inactive)
REMARK    1  A    between atoms: O_1  and  C_2 
REMARK    2  A    between atoms: C_2  and  C_3 
REMARK    3  A    between atoms: C_2  and  C_8 
REMARK    4  A    between atoms: C_3  and  C_4 
REMARK    5  A    between atoms: C_4  and  C_5 
REMARK    6  A    between atoms: C_8  and  C_9 
REMARK    7  A    between atoms: C_11  and  O_15 
ROOT
HETATM    1  O   UNL     1      10.510   8.778  13.437  1.00  0.00    -0.395 OA
HETATM    2  H   UNL     1      10.250   9.644  13.788  1.00  0.00     0.210 HD
ENDROOT
BRANCH   1   3
HETATM    3  C   UNL     1      10.761   8.890  12.036  1.00  0.00     0.122 C 
BRANCH   3   4
HETATM    4  C   UNL     1      10.840  10.372  11.637  1.00  0.00     0.042 C 
BRANCH   4   5
HETATM    5  C   UNL     1      11.916  11.150  12.398  1.00  0.00     0.116 C 
BRANCH   5   6
HETATM    6  C   UNL     1      11.812  12.652  12.336  1.00  0.00     0.172 C 
HETATM    7  O   UNL     1      10.864  13.275  11.885  1.00  0.00    -0.648 OA
HETATM    8  O   UNL     1      12.916  13.311  12.744  1.00  0.00    -0.648 OA
ENDBRANCH   5   6
ENDBRANCH   4   5
ENDBRANCH   3   4
BRANCH   3   9
HETATM    9  C   UNL     1      12.071   8.159  11.682  1.00  0.00     0.070 C 
BRANCH   9  10
HETATM   10  C   UNL     1      12.119   7.685  10.245  1.00  0.00    -0.053 A 
HETATM   11  C   UNL     1      10.947   7.272   9.592  1.00  0.00     0.043 A 
HETATM   12  C   UNL     1      11.005   6.841   8.268  1.00  0.00     0.066 A 
HETATM   13  C   UNL     1      12.210   6.811   7.578  1.00  0.00     0.036 A 
HETATM   14  C   UNL     1      13.379   7.218   8.218  1.00  0.00     0.003 A 
HETATM   15  C   UNL     1      13.333   7.654   9.544  1.00  0.00     0.007 A 
BRANCH  12  16
HETATM   16  O   UNL     1       9.885   6.434   7.605  1.00  0.00    -0.361 OA
HETATM   17  H   UNL     1       9.363   5.738   7.950  1.00  0.00     0.217 HD
ENDBRANCH  12  16
ENDBRANCH   9  10
ENDBRANCH   3   9
ENDBRANCH   1   3
TORSDOF 7
ENDMDL
MODEL 5
REMARK VINA RESULT:      -6.5      1.541      1.998
REMARK  7 active torsions:
REMARK  status: ('A' for Active; 'I' for Inactive)
REMARK    1  A    between atoms: O_1  and  C_2 
REMARK    2  A    between atoms: C_2  and  C_3 
REMARK    3  A    between atoms: C_2  and  C_8 
REMARK    4  A    between atoms: C_3  and  C_4 
REMARK    5  A    between atoms: C_4  and  C_5 
REMARK    6  A    between atoms: C_8  and  C_9 
REMARK    7  A    between atoms: C_11  and  O_15 
ROOT
HETATM    1  O   UNL     1      14.700   6.706   9.123  1.00  0.00    -0.395 OA
HETATM    2  H   UNL     1      15.341   7.189   8.578  1.00  0.00     0.210 HD
ENDROOT
BRANCH   1   3
HETATM    3  C   UNL     1      13.398   7.255   8.926  1.00  0.00     0.122 C 
BRANCH   3   4
HETATM    4  C   UNL     1      12.938   7.002   7.481  1.00  0.00     0.042 C 
BRANCH   4   5
HETATM    5  C   UNL     1      11.417   7.017   7.317  1.00  0.00     0.116 C 
BRANCH   5   6
HETATM    6  C   UNL     1      10.838   5.941   6.435  1.00  0.00     0.172 C 
HETATM    7  O   UNL     1      10.107   5.038   6.812  1.00  0.00    -0.648 OA
HETATM    8  O   UNL     1      11.261   5.972   5.155  1.00  0.00    -0.648 OA
ENDBRANCH   5   6
ENDBRANCH   4   5
ENDBRANCH   3   4
BRANCH   3   9
HETATM    9  C   UNL     1      12.411   6.629   9.930  1.00  0.00     0.070 C 
BRANCH   9  10
HETATM   10  C   UNL     1      11.816   7.638  10.889  1.00  0.00    -0.053 A 
HETATM   11  C   UNL     1      11.482   7.264  12.200  1.00  0.00     0.043 A 
HETATM   12  C   UNL     1      10.938   8.204  13.074  1.00  0.00     0.066 A 
HETATM   13  C   UNL     1      10.716   9.514  12.666  1.00  0.00     0.036 A 
HETATM   14  C   UNL     1      11.042   9.894  11.366  1.00  0.00     0.003 A 
HETATM   15  C   UNL     1      11.590   8.961  10.483  1.00  0.00     0.007 A 
BRANCH  12  16
HETATM   16  O   UNL     1      10.604   7.874  14.354  1.00  0.00    -0.361 OA
HETATM   17  H   UNL     1      11.072   7.196  14.800  1.00  0.00     0.217 HD
ENDBRANCH  12  16
ENDBRANCH   9  10
ENDBRANCH   3   9
ENDBRANCH   1   3
TORSDOF 7
ENDMDL
MODEL 6
REMARK VINA RESULT:      -6.3      2.556      5.906
REMARK  7 active torsions:
REMARK  status: ('A' for Active; 'I' for Inactive)
REMARK    1  A    between atoms: O_1  and  C_2 
REMARK    2  A    between atoms: C_2  and  C_3 
REMARK    3  A    between atoms: C_2  and  C_8 
REMARK    4  A    between atoms: C_3  and  C_4 
REMARK    5  A    between atoms: C_4  and  C_5 
REMARK    6  A    between atoms: C_8  and  C_9 
REMARK    7  A    between atoms: C_11  and  O_15 
ROOT
HETATM    1  O   UNL     1       9.210   7.476   9.608  1.00  0.00    -0.395 OA
HETATM    2  H   UNL     1       9.106   6.572   9.274  1.00  0.00     0.210 HD
ENDROOT
BRANCH   1   3
HETATM    3  C   UNL     1      10.591   7.732   9.865  1.00  0.00     0.122 C 
BRANCH   3   4
HETATM    4  C   UNL     1      10.760   8.309  11.280  1.00  0.00     0.042 C 
BRANCH   4   5
HETATM    5  C   UNL     1      10.893   9.833  11.302  1.00  0.00     0.116 C 
BRANCH   5   6
HETATM    6  C   UNL     1      12.019  10.385  12.139  1.00  0.00     0.172 C 
HETATM    7  O   UNL     1      12.192  11.566  12.396  1.00  0.00    -0.648 OA
HETATM    8  O   UNL     1      12.926   9.471  12.537  1.00  0.00    -0.648 OA
ENDBRANCH   5   6
ENDBRANCH   4   5
ENDBRANCH   3   4
BRANCH   3   9
HETATM    9  C   UNL     1      11.400   6.429   9.707  1.00  0.00     0.070 C 
BRANCH   9  10
HETATM   10  C   UNL     1      12.881   6.670   9.507  1.00  0.00    -0.053 A 
HETATM   11  C   UNL     1      13.393   6.930   8.226  1.00  0.00     0.043 A 
HETATM   12  C   UNL     1      14.759   7.152   8.055  1.00  0.00     0.066 A 
HETATM   13  C   UNL     1      15.628   7.119   9.138  1.00  0.00     0.036 A 
HETATM   14  C   UNL     1      15.130   6.861  10.413  1.00  0.00     0.003 A 
HETATM   15  C   UNL     1      13.763   6.638  10.596  1.00  0.00     0.007 A 
BRANCH  12  16
HETATM   16  O   UNL     1      15.288   7.409   6.825  1.00  0.00    -0.361 OA
HETATM   17  H   UNL     1      16.032   7.972   6.744  1.00  0.00     0.217 HD
ENDBRANCH  12  16
ENDBRANCH   9  10
ENDBRANCH   3   9
ENDBRANCH   1   3
TORSDOF 7
ENDMDL
MODEL 7
REMARK VINA RESULT:      -6.3      2.891      5.735
REMARK  7 active torsions:
REMARK  status: ('A' for Active; 'I' for Inactive)
REMARK    1  A    between atoms: O_1  and  C_2 
REMARK    2  A    between atoms: C_2  and  C_3 
REMARK    3  A    between atoms: C_2  and  C_8 
REMARK    4  A    between atoms: C_3  and  C_4 
REMARK    5  A    between atoms: C_4  and  C_5 
REMARK    6  A    between atoms: C_8  and  C_9 
REMARK    7  A    between atoms: C_11  and  O_15 
ROOT
HETATM    1  O   UNL     1       9.291   7.390   9.621  1.00  0.00    -0.395 OA
HETATM    2  H   UNL     1       8.931   6.748  10.253  1.00  0.00     0.210 HD
ENDROOT
BRANCH   1   3
HETATM    3  C   UNL     1      10.621   7.737  10.001  1.00  0.00     0.122 C 
BRANCH   3   4
HETATM    4  C   UNL     1      10.610   8.405  11.386  1.00  0.00     0.042 C 
BRANCH   4   5
HETATM    5  C   UNL     1      10.910   9.905  11.339  1.00  0.00     0.116 C 
BRANCH   5   6
HETATM    6  C   UNL     1      12.084  10.370  12.163  1.00  0.00     0.172 C 
HETATM    7  O   UNL     1      12.263  11.513  12.551  1.00  0.00    -0.648 OA
HETATM    8  O   UNL     1      13.023   9.429  12.388  1.00  0.00    -0.648 OA
ENDBRANCH   5   6
ENDBRANCH   4   5
ENDBRANCH   3   4
BRANCH   3   9
HETATM    9  C   UNL     1      11.506   6.475  10.012  1.00  0.00     0.070 C 
BRANCH   9  10
HETATM   10  C   UNL     1      12.876   6.704   9.410  1.00  0.00    -0.053 A 
HETATM   11  C   UNL     1      14.023   6.682  10.219  1.00  0.00     0.043 A 
HETATM   12  C   UNL     1      15.279   6.891   9.651  1.00  0.00     0.066 A 
HETATM   13  C   UNL     1      15.417   7.124   8.289  1.00  0.00     0.036 A 
HETATM   14  C   UNL     1      14.284   7.149   7.477  1.00  0.00     0.003 A 
HETATM   15  C   UNL     1      13.021   6.939   8.035  1.00  0.00     0.007 A 
BRANCH  12  16
HETATM   16  O   UNL     1      16.412   6.875  10.409  1.00  0.00    -0.361 OA
HETATM   17  H   UNL     1      16.678   7.645  10.871  1.00  0.00     0.217 HD
ENDBRANCH  12  16
ENDBRANCH   9  10
ENDBRANCH   3   9
ENDBRANCH   1   3
TORSDOF 7
ENDMDL
MODEL 8
REMARK VINA RESULT:      -6.1      2.009      5.697
REMARK  7 active torsions:
REMARK  status: ('A' for Active; 'I' for Inactive)
REMARK    1  A    between atoms: O_1  and  C_2 
REMARK    2  A    between atoms: C_2  and  C_3 
REMARK    3  A    between atoms: C_2  and  C_8 
REMARK    4  A    between atoms: C_3  and  C_4 
REMARK    5  A    between atoms: C_4  and  C_5 
REMARK    6  A    between atoms: C_8  and  C_9 
REMARK    7  A    between atoms: C_11  and  O_15 
ROOT
HETATM    1  O   UNL     1      12.188   6.524  13.776  1.00  0.00    -0.395 OA
HETATM    2  H   UNL     1      12.860   5.833  13.879  1.00  0.00     0.210 HD
ENDROOT
BRANCH   1   3
HETATM    3  C   UNL     1      12.341   7.149  12.502  1.00  0.00     0.122 C 
BRANCH   3   4
HETATM    4  C   UNL     1      13.165   8.439  12.650  1.00  0.00     0.042 C 
BRANCH   4   5
HETATM    5  C   UNL     1      12.413   9.695  12.206  1.00  0.00     0.116 C 
BRANCH   5   6
HETATM    6  C   UNL     1      10.943   9.519  11.922  1.00  0.00     0.172 C 
HETATM    7  O   UNL     1      10.436   9.506  10.812  1.00  0.00    -0.648 OA
HETATM    8  O   UNL     1      10.160   9.461  13.019  1.00  0.00    -0.648 OA
ENDBRANCH   5   6
ENDBRANCH   4   5
ENDBRANCH   3   4
BRANCH   3   9
HETATM    9  C   UNL     1      13.024   6.175  11.522  1.00  0.00     0.070 C 
BRANCH   9  10
HETATM   10  C   UNL     1      12.723   6.483  10.070  1.00  0.00    -0.053 A 
HETATM   11  C   UNL     1      11.408   6.408   9.584  1.00  0.00     0.043 A 
HETATM   12  C   UNL     1      11.144   6.697   8.247  1.00  0.00     0.066 A 
HETATM   13  C   UNL     1      12.167   7.058   7.379  1.00  0.00     0.036 A 
HETATM   14  C   UNL     1      13.475   7.134   7.851  1.00  0.00     0.003 A 
HETATM   15  C   UNL     1      13.751   6.849   9.190  1.00  0.00     0.007 A 
BRANCH  12  16
HETATM   16  O   UNL     1       9.878   6.635   7.743  1.00  0.00    -0.361 OA
HETATM   17  H   UNL     1       9.439   5.810   7.679  1.00  0.00     0.217 HD
ENDBRANCH  12  16
ENDBRANCH   9  10
ENDBRANCH   3   9
ENDBRANCH   1   3
TORSDOF 7
ENDMDL
MODEL 9
REMARK VINA RESULT:      -6.1      3.754      5.341
REMARK  7 active torsions:
REMARK  status: ('A' for Active; 'I' for Inactive)
REMARK    1  A    between atoms: O_1  and  C_2 
REMARK    2  A    between atoms: C_2  and  C_3 
REMARK    3  A    between atoms: C_2  and  C_8 
REMARK    4  A    between atoms: C_3  and  C_4 
REMARK    5  A    between atoms: C_4  and  C_5 
REMARK    6  A    between atoms: C_8  and  C_9 
REMARK    7  A    between atoms: C_11  and  O_15 
ROOT
HETATM    1  O   UNL     1      13.623   6.767   6.591  1.00  0.00    -0.395 OA
HETATM    2  H   UNL     1      14.569   6.950   6.700  1.00  0.00     0.210 HD
ENDROOT
BRANCH   1   3
HETATM    3  C   UNL     1      12.873   7.600   7.474  1.00  0.00     0.122 C 
BRANCH   3   4
HETATM    4  C   UNL     1      11.933   6.738   8.332  1.00  0.00     0.042 C 
BRANCH   4   5
HETATM    5  C   UNL     1      10.688   6.262   7.579  1.00  0.00     0.116 C 
BRANCH   5   6
HETATM    6  C   UNL     1      10.561   6.730   6.153  1.00  0.00     0.172 C 
HETATM    7  O   UNL     1      10.021   7.765   5.796  1.00  0.00    -0.648 OA
HETATM    8  O   UNL     1      11.018   5.860   5.230  1.00  0.00    -0.648 OA
ENDBRANCH   5   6
ENDBRANCH   4   5
ENDBRANCH   3   4
BRANCH   3   9
HETATM    9  C   UNL     1      13.833   8.413   8.365  1.00  0.00     0.070 C 
BRANCH   9  10
HETATM   10  C   UNL     1      15.043   7.621   8.813  1.00  0.00    -0.053 A 
HETATM   11  C   UNL     1      16.144   7.458   7.957  1.00  0.00     0.043 A 
HETATM   12  C   UNL     1      17.253   6.729   8.382  1.00  0.00     0.066 A 
HETATM   13  C   UNL     1      17.288   6.155   9.647  1.00  0.00     0.036 A 
HETATM   14  C   UNL     1      16.200   6.310  10.503  1.00  0.00     0.003 A 
HETATM   15  C   UNL     1      15.083   7.040  10.088  1.00  0.00     0.007 A 
BRANCH  12  16
HETATM   16  O   UNL     1      18.339   6.553   7.577  1.00  0.00    -0.361 OA
HETATM   17  H   UNL     1      18.660   7.266   7.061  1.00  0.00     0.217 HD
ENDBRANCH  12  16
ENDBRANCH   9  10
ENDBRANCH   3   9
ENDBRANCH   1   3
TORSDOF 7
ENDMDL
