MODEL 1
REMARK VINA RESULT:      -6.8      0.000      0.000
REMARK  7 active torsions:
REMARK  status: ('A' for Active; 'I' for Inactive)
REMARK    1  A    between atoms: O_1  and  C_2 
REMARK    2  A    between atoms: C_2  and  C_3 
REMARK    3  A    between atoms: C_2  and  C_8 
REMARK    4  A    between atoms: C_3  and  C_4 
REMARK    5  A    between atoms: C_4  and  C_5 
REMARK    6  A    between atoms: C_8  and  C_9 
REMARK    7  A    between atoms: C_11  and  O_15 
ROOT
HETATM    1  O   UNL     1      11.267   4.541  11.707  1.00  0.00    -0.395 OA
HETATM    2  H   UNL     1      11.209   5.467  11.988  1.00  0.00     0.210 HD
ENDROOT
BRANCH   1   3
HETATM    3  C   UNL     1      12.639   4.172  11.566  1.00  0.00     0.122 C 
BRANCH   3   4
HETATM    4  C   UNL     1      13.177   4.674  10.215  1.00  0.00     0.042 C 
BRANCH   4   5
HETATM    5  C   UNL     1      13.010   3.660   9.081  1.00  0.00     0.116 C 
BRANCH   5   6
HETATM    6  C   UNL     1      14.283   3.184   8.429  1.00  0.00     0.172 C 
HETATM    7  O   UNL     1      14.385   2.194   7.722  1.00  0.00    -0.648 OA
HETATM    8  O   UNL     1      15.383   3.893   8.755  1.00  0.00    -0.648 OA
ENDBRANCH   5   6
ENDBRANCH   4   5
ENDBRANCH   3   4
BRANCH   3   9
HETATM    9  C   UNL     1      13.459   4.759  12.731  1.00  0.00     0.070 C 
BRANCH   9  10
HETATM   10  C   UNL     1      12.851   6.018  13.312  1.00  0.00    -0.053 A 
HETATM   11  C   UNL     1      12.323   6.018  14.613  1.00  0.00     0.043 A 
HETATM   12  C   UNL     1      11.768   7.184  15.138  1.00  0.00     0.066 A 
HETATM   13  C   UNL     1      11.727   8.355  14.390  1.00  0.00     0.036 A 
HETATM   14  C   UNL     1      12.247   8.364  13.098  1.00  0.00     0.003 A 
HETATM   15  C   UNL     1      12.807   7.202  12.562  1.00  0.00     0.007 A 
BRANCH  12  16
HETATM   16  O   UNL     1      11.248   7.219  16.398  1.00  0.00    -0.361 OA
HETATM   17  H   UNL     1      10.596   6.597  16.653  1.00  0.00     0.217 HD
ENDBRANCH  12  16
ENDBRANCH   9  10
ENDBRANCH   3   9
ENDBRANCH   1   3
TORSDOF 7
ENDMDL
MODEL 2
REMARK VINA RESULT:      -6.6      2.585      6.401
REMARK  7 active torsions:
REMARK  status: ('A' for Active; 'I' for Inactive)
REMARK    1  A    between atoms: O_1  and  C_2 
REMARK    2  A    between atoms: C_2  and  C_3 
REMARK    3  A    between atoms: C_2  and  C_8 
REMARK    4  A    between atoms: C_3  and  C_4 
REMARK    5  A    between atoms: C_4  and  C_5 
REMARK    6  A    between atoms: C_8  and  C_9 
REMARK    7  A    between atoms: C_11  and  O_15 
ROOT
HETATM    1  O   UNL     1      11.122   7.609  15.067  1.00  0.00    -0.395 OA
HETATM    2  H   UNL     1      11.802   7.916  15.685  1.00  0.00     0.210 HD
ENDROOT
BRANCH   1   3
HETATM    3  C   UNL     1      11.697   7.445  13.771  1.00  0.00     0.122 C 
BRANCH   3   4
HETATM    4  C   UNL     1      11.884   8.818  13.106  1.00  0.00     0.042 C 
BRANCH   4   5
HETATM    5  C   UNL     1      12.520   9.859  14.030  1.00  0.00     0.116 C 
BRANCH   5   6
HETATM    6  C   UNL     1      12.374  11.297  13.604  1.00  0.00     0.172 C 
HETATM    7  O   UNL     1      13.076  12.220  13.985  1.00  0.00    -0.648 OA
HETATM    8  O   UNL     1      11.317  11.544  12.805  1.00  0.00    -0.648 OA
ENDBRANCH   5   6
ENDBRANCH   4   5
ENDBRANCH   3   4
BRANCH   3   9
HETATM    9  C   UNL     1      13.045   6.708  13.889  1.00  0.00     0.070 C 
BRANCH   9  10
HETATM   10  C   UNL     1      13.488   6.065  12.592  1.00  0.00    -0.053 A 
HETATM   11  C   UNL     1      12.624   5.209  11.890  1.00  0.00     0.043 A 
HETATM   12  C   UNL     1      13.043   4.626  10.695  1.00  0.00     0.066 A 
HETATM   13  C   UNL     1      14.310   4.877  10.184  1.00  0.00     0.036 A 
HETATM   14  C   UNL     1      15.174   5.724  10.873  1.00  0.00     0.003 A 
HETATM   15  C   UNL     1      14.765   6.315  12.070  1.00  0.00     0.007 A 
BRANCH  12  16
HETATM   16  O   UNL     1      12.228   3.791   9.989  1.00  0.00    -0.361 OA
HETATM   17  H   UNL     1      12.434   2.880   9.924  1.00  0.00     0.217 HD
ENDBRANCH  12  16
ENDBRANCH   9  10
ENDBRANCH   3   9
ENDBRANCH   1   3
TORSDOF 7
ENDMDL
MODEL 3
REMARK VINA RESULT:      -6.6      2.751      4.485
REMARK  7 active torsions:
REMARK  status: ('A' for Active; 'I' for Inactive)
REMARK    1  A    between atoms: O_1  and  C_2 
REMARK    2  A    between atoms: C_2  and  C_3 
REMARK    3  A    between atoms: C_2  and  C_8 
REMARK    4  A    between atoms: C_3  and  C_4 
REMARK    5  A    between atoms: C_4  and  C_5 
REMARK    6  A    between atoms: C_8  and  C_9 
REMARK    7  A    between atoms: C_11  and  O_15 
ROOT
HETATM    1  O   UNL     1      12.318   4.174  13.098  1.00  0.00    -0.395 OA
HETATM    2  H   UNL     1      11.840   3.365  12.856  1.00  0.00     0.210 HD
ENDROOT
BRANCH   1   3
HETATM    3  C   UNL     1      13.264   4.490  12.078  1.00  0.00     0.122 C 
BRANCH   3   4
HETATM    4  C   UNL     1      12.564   4.524  10.709  1.00  0.00     0.042 C 
BRANCH   4   5
HETATM    5  C   UNL     1      12.904   3.323   9.823  1.00  0.00     0.116 C 
BRANCH   5   6
HETATM    6  C   UNL     1      13.389   3.645   8.433  1.00  0.00     0.172 C 
HETATM    7  O   UNL     1      14.112   2.932   7.756  1.00  0.00    -0.648 OA
HETATM    8  O   UNL     1      13.040   4.867   7.983  1.00  0.00    -0.648 OA
ENDBRANCH   5   6
ENDBRANCH   4   5
ENDBRANCH   3   4
BRANCH   3   9
HETATM    9  C   UNL     1      13.927   5.847  12.384  1.00  0.00     0.070 C 
BRANCH   9  10
HETATM   10  C   UNL     1      15.433   5.821  12.235  1.00  0.00    -0.053 A 
HETATM   11  C   UNL     1      16.023   5.832  10.961  1.00  0.00     0.043 A 
HETATM   12  C   UNL     1      17.411   5.810  10.838  1.00  0.00     0.066 A 
HETATM   13  C   UNL     1      18.228   5.777  11.961  1.00  0.00     0.036 A 
HETATM   14  C   UNL     1      17.652   5.765  13.229  1.00  0.00     0.003 A 
HETATM   15  C   UNL     1      16.262   5.788  13.366  1.00  0.00     0.007 A 
BRANCH  12  16
HETATM   16  O   UNL     1      18.015   5.821   9.615  1.00  0.00    -0.361 OA
HETATM   17  H   UNL     1      17.540   5.551   8.855  1.00  0.00     0.217 HD
ENDBRANCH  12  16
ENDBRANCH   9  10
ENDBRANCH   3   9
ENDBRANCH   1   3
TORSDOF 7
ENDMDL
MODEL 4
REMARK VINA RESULT:      -6.5      2.167      6.298
REMARK  7 active torsions:
REMARK  status: ('A' for Active; 'I' for Inactive)
REMARK    1  A    between atoms: O_1  and  C_2 
REMARK    2  A    between atoms: C_2  and  C_3 
REMARK    3  A    between atoms: C_2  and  C_8 
REMARK    4  A    between atoms: C_3  and  C_4 
REMARK    5  A    between atoms: C_4  and  C_5 
REMARK    6  A    between atoms: C_8  and  C_9 
REMARK    7  A    between atoms: C_11  and  O_15 
ROOT
HETATM    1  O   UNL     1      11.437   6.100  15.116  1.00  0.00    -0.395 OA
HETATM    2  H   UNL     1      10.774   5.428  14.893  1.00  0.00     0.210 HD
ENDROOT
BRANCH   1   3
HETATM    3  C   UNL     1      12.184   6.436  13.947  1.00  0.00     0.122 C 
BRANCH   3   4
HETATM    4  C   UNL     1      12.732   7.867  14.072  1.00  0.00     0.042 C 
BRANCH   4   5
HETATM    5  C   UNL     1      11.903   8.903  13.309  1.00  0.00     0.116 C 
BRANCH   5   6
HETATM    6  C   UNL     1      12.210  10.347  13.612  1.00  0.00     0.172 C 
HETATM    7  O   UNL     1      13.039  10.737  14.419  1.00  0.00    -0.648 OA
HETATM    8  O   UNL     1      11.419  11.237  12.979  1.00  0.00    -0.648 OA
ENDBRANCH   5   6
ENDBRANCH   4   5
ENDBRANCH   3   4
BRANCH   3   9
HETATM    9  C   UNL     1      13.334   5.428  13.757  1.00  0.00     0.070 C 
BRANCH   9  10
HETATM   10  C   UNL     1      13.586   5.079  12.306  1.00  0.00    -0.053 A 
HETATM   11  C   UNL     1      14.814   5.391  11.701  1.00  0.00     0.043 A 
HETATM   12  C   UNL     1      15.034   5.062  10.365  1.00  0.00     0.066 A 
HETATM   13  C   UNL     1      14.052   4.428   9.614  1.00  0.00     0.036 A 
HETATM   14  C   UNL     1      12.830   4.115  10.205  1.00  0.00     0.003 A 
HETATM   15  C   UNL     1      12.599   4.438  11.544  1.00  0.00     0.007 A 
BRANCH  12  16
HETATM   16  O   UNL     1      16.216   5.350   9.748  1.00  0.00    -0.361 OA
HETATM   17  H   UNL     1      16.506   4.831   9.025  1.00  0.00     0.217 HD
ENDBRANCH  12  16
ENDBRANCH   9  10
ENDBRANCH   3   9
ENDBRANCH   1   3
TORSDOF 7
ENDMDL
MODEL 5
REMARK VINA RESULT:      -6.4      1.653      2.041
REMARK  7 active torsions:
REMARK  status: ('A' for Active; 'I' for Inactive)
REMARK    1  A    between atoms: O_1  and  C_2 
REMARK    2  A    between atoms: C_2  and  C_3 
REMARK    3  A    between atoms: C_2  and  C_8 
REMARK    4  A    between atoms: C_3  and  C_4 
REMARK    5  A    between atoms: C_4  and  C_5 
REMARK    6  A    between atoms: C_8  and  C_9 
REMARK    7  A    between atoms: C_11  and  O_15 
ROOT
HETATM    1  O   UNL     1      16.651   5.704  12.198  1.00  0.00    -0.395 OA
HETATM    2  H   UNL     1      16.695   5.221  13.038  1.00  0.00     0.210 HD
ENDROOT
BRANCH   1   3
HETATM    3  C   UNL     1      15.296   5.763  11.754  1.00  0.00     0.122 C 
BRANCH   3   4
HETATM    4  C   UNL     1      15.143   4.983  10.438  1.00  0.00     0.042 C 
BRANCH   4   5
HETATM    5  C   UNL     1      13.716   4.494  10.184  1.00  0.00     0.116 C 
BRANCH   5   6
HETATM    6  C   UNL     1      13.399   4.091   8.766  1.00  0.00     0.172 C 
HETATM    7  O   UNL     1      14.099   3.381   8.062  1.00  0.00    -0.648 OA
HETATM    8  O   UNL     1      12.288   4.658   8.254  1.00  0.00    -0.648 OA
ENDBRANCH   5   6
ENDBRANCH   4   5
ENDBRANCH   3   4
BRANCH   3   9
HETATM    9  C   UNL     1      14.366   5.186  12.840  1.00  0.00     0.070 C 
BRANCH   9  10
HETATM   10  C   UNL     1      13.371   6.196  13.370  1.00  0.00    -0.053 A 
HETATM   11  C   UNL     1      12.903   6.110  14.690  1.00  0.00     0.043 A 
HETATM   12  C   UNL     1      11.988   7.048  15.166  1.00  0.00     0.066 A 
HETATM   13  C   UNL     1      11.528   8.074  14.351  1.00  0.00     0.036 A 
HETATM   14  C   UNL     1      11.986   8.167  13.038  1.00  0.00     0.003 A 
HETATM   15  C   UNL     1      12.903   7.234  12.551  1.00  0.00     0.007 A 
BRANCH  12  16
HETATM   16  O   UNL     1      11.515   6.994  16.444  1.00  0.00    -0.361 OA
HETATM   17  H   UNL     1      11.293   7.784  16.896  1.00  0.00     0.217 HD
ENDBRANCH  12  16
ENDBRANCH   9  10
ENDBRANCH   3   9
ENDBRANCH   1   3
TORSDOF 7
ENDMDL
MODEL 6
REMARK VINA RESULT:      -6.4      2.205      6.104
REMARK  7 active torsions:
REMARK  status: ('A' for Active; 'I' for Inactive)
REMARK    1  A    between atoms: O_1  and  C_2 
REMARK    2  A    between atoms: C_2  and  C_3 
REMARK    3  A    between atoms: C_2  and  C_8 
REMARK    4  A    between atoms: C_3  and  C_4 
REMARK    5  A    between atoms: C_4  and  C_5 
REMARK    6  A    between atoms: C_8  and  C_9 
REMARK    7  A    between atoms: C_11  and  O_15 
ROOT
HETATM    1  O   UNL     1      11.583   5.555  15.150  1.00  0.00    -0.395 OA
HETATM    2  H   UNL     1      11.791   4.609  15.105  1.00  0.00     0.210 HD
ENDROOT
BRANCH   1   3
HETATM    3  C   UNL     1      12.263   6.242  14.099  1.00  0.00     0.122 C 
BRANCH   3   4
HETATM    4  C   UNL     1      12.397   7.732  14.451  1.00  0.00     0.042 C 
BRANCH   4   5
HETATM    5  C   UNL     1      11.837   8.663  13.373  1.00  0.00     0.116 C 
BRANCH   5   6
HETATM    6  C   UNL     1      12.071  10.136  13.587  1.00  0.00     0.172 C 
HETATM    7  O   UNL     1      11.493  11.035  12.997  1.00  0.00    -0.648 OA
HETATM    8  O   UNL     1      13.069  10.430  14.445  1.00  0.00    -0.648 OA
ENDBRANCH   5   6
ENDBRANCH   4   5
ENDBRANCH   3   4
BRANCH   3   9
HETATM    9  C   UNL     1      13.650   5.608  13.875  1.00  0.00     0.070 C 
BRANCH   9  10
HETATM   10  C   UNL     1      13.916   5.255  12.427  1.00  0.00    -0.053 A 
HETATM   11  C   UNL     1      12.944   4.585  11.667  1.00  0.00     0.043 A 
HETATM   12  C   UNL     1      13.201   4.269  10.334  1.00  0.00     0.066 A 
HETATM   13  C   UNL     1      14.411   4.606   9.740  1.00  0.00     0.036 A 
HETATM   14  C   UNL     1      15.382   5.269  10.487  1.00  0.00     0.003 A 
HETATM   15  C   UNL     1      15.136   5.593  11.823  1.00  0.00     0.007 A 
BRANCH  12  16
HETATM   16  O   UNL     1      12.278   3.620   9.568  1.00  0.00    -0.361 OA
HETATM   17  H   UNL     1      11.645   3.059   9.971  1.00  0.00     0.217 HD
ENDBRANCH  12  16
ENDBRANCH   9  10
ENDBRANCH   3   9
ENDBRANCH   1   3
TORSDOF 7
ENDMDL
MODEL 7
REMARK VINA RESULT:      -6.4      2.609      5.876
REMARK  7 active torsions:
REMARK  status: ('A' for Active; 'I' for Inactive)
REMARK    1  A    between atoms: O_1  and  C_2 
REMARK    2  A    between atoms: C_2  and  C_3 
REMARK    3  A    between atoms: C_2  and  C_8 
REMARK    4  A    between atoms: C_3  and  C_4 
REMARK    5  A    between atoms: C_4  and  C_5 
REMARK    6  A    between atoms: C_8  and  C_9 
REMARK    7  A    between atoms: C_11  and  O_15 
ROOT
HETATM    1  O   UNL     1      11.417   4.979  11.443  1.00  0.00    -0.395 OA
HETATM    2  H   UNL     1      10.797   4.627  12.101  1.00  0.00     0.210 HD
ENDROOT
BRANCH   1   3
HETATM    3  C   UNL     1      12.436   5.728  12.104  1.00  0.00     0.122 C 
BRANCH   3   4
HETATM    4  C   UNL     1      11.805   6.650  13.160  1.00  0.00     0.042 C 
BRANCH   4   5
HETATM    5  C   UNL     1      12.001   8.138  12.862  1.00  0.00     0.116 C 
BRANCH   5   6
HETATM    6  C   UNL     1      12.802   8.914  13.876  1.00  0.00     0.172 C 
HETATM    7  O   UNL     1      12.672  10.104  14.116  1.00  0.00    -0.648 OA
HETATM    8  O   UNL     1      13.783   8.211  14.476  1.00  0.00    -0.648 OA
ENDBRANCH   5   6
ENDBRANCH   4   5
ENDBRANCH   3   4
BRANCH   3   9
HETATM    9  C   UNL     1      13.450   4.767  12.756  1.00  0.00     0.070 C 
BRANCH   9  10
HETATM   10  C   UNL     1      14.889   5.178  12.530  1.00  0.00    -0.053 A 
HETATM   11  C   UNL     1      15.406   5.275  11.228  1.00  0.00     0.043 A 
HETATM   12  C   UNL     1      16.733   5.657  11.034  1.00  0.00     0.066 A 
HETATM   13  C   UNL     1      17.559   5.944  12.114  1.00  0.00     0.036 A 
HETATM   14  C   UNL     1      17.055   5.848  13.409  1.00  0.00     0.003 A 
HETATM   15  C   UNL     1      15.727   5.468  13.616  1.00  0.00     0.007 A 
BRANCH  12  16
HETATM   16  O   UNL     1      17.265   5.763   9.783  1.00  0.00    -0.361 OA
HETATM   17  H   UNL     1      17.657   6.567   9.507  1.00  0.00     0.217 HD
ENDBRANCH  12  16
ENDBRANCH   9  10
ENDBRANCH   3   9
ENDBRANCH   1   3
TORSDOF 7
ENDMDL
MODEL 8
REMARK VINA RESULT:      -6.3      2.868      3.526
REMARK  7 active torsions:
REMARK  status: ('A' for Active; 'I' for Inactive)
REMARK    1  A    between atoms: O_1  and  C_2 
REMARK    2  A    between atoms: C_2  and  C_3 
REMARK    3  A    between atoms: C_2  and  C_8 
REMARK    4  A    between atoms: C_3  and  C_4 
REMARK    5  A    between atoms: C_4  and  C_5 
REMARK    6  A    between atoms: C_8  and  C_9 
REMARK    7  A    between atoms: C_11  and  O_15 
ROOT
HETATM    1  O   UNL     1      11.603   4.533  11.418  1.00  0.00    -0.395 OA
HETATM    2  H   UNL     1      11.125   4.959  10.690  1.00  0.00     0.210 HD
ENDROOT
BRANCH   1   3
HETATM    3  C   UNL     1      12.873   4.079  10.952  1.00  0.00     0.122 C 
BRANCH   3   4
HETATM    4  C   UNL     1      12.678   3.049   9.827  1.00  0.00     0.042 C 
BRANCH   4   5
HETATM    5  C   UNL     1      13.370   3.439   8.519  1.00  0.00     0.116 C 
BRANCH   5   6
HETATM    6  C   UNL     1      14.538   2.579   8.109  1.00  0.00     0.172 C 
HETATM    7  O   UNL     1      14.532   1.359   8.061  1.00  0.00    -0.648 OA
HETATM    8  O   UNL     1      15.680   3.254   7.871  1.00  0.00    -0.648 OA
ENDBRANCH   5   6
ENDBRANCH   4   5
ENDBRANCH   3   4
BRANCH   3   9
HETATM    9  C   UNL     1      13.704   5.278  10.454  1.00  0.00     0.070 C 
BRANCH   9  10
HETATM   10  C   UNL     1      15.001   5.460  11.214  1.00  0.00    -0.053 A 
HETATM   11  C   UNL     1      15.019   5.401  12.616  1.00  0.00     0.043 A 
HETATM   12  C   UNL     1      16.220   5.567  13.303  1.00  0.00     0.066 A 
HETATM   13  C   UNL     1      17.408   5.794  12.620  1.00  0.00     0.036 A 
HETATM   14  C   UNL     1      17.400   5.856  11.228  1.00  0.00     0.003 A 
HETATM   15  C   UNL     1      16.203   5.689  10.529  1.00  0.00     0.007 A 
BRANCH  12  16
HETATM   16  O   UNL     1      16.272   5.514  14.665  1.00  0.00    -0.361 OA
HETATM   17  H   UNL     1      16.869   6.063  15.132  1.00  0.00     0.217 HD
ENDBRANCH  12  16
ENDBRANCH   9  10
ENDBRANCH   3   9
ENDBRANCH   1   3
TORSDOF 7
ENDMDL
MODEL 9
REMARK VINA RESULT:      -6.1      2.297      2.913
REMARK  7 active torsions:
REMARK  status: ('A' for Active; 'I' for Inactive)
REMARK    1  A    between atoms: O_1  and  C_2 
REMARK    2  A    between atoms: C_2  and  C_3 
REMARK    3  A    between atoms: C_2  and  C_8 
REMARK    4  A    between atoms: C_3  and  C_4 
REMARK    5  A    between atoms: C_4  and  C_5 
REMARK    6  A    between atoms: C_8  and  C_9 
REMARK    7  A    between atoms: C_11  and  O_15 
ROOT
HETATM    1  O   UNL     1      11.124   5.836  11.768  1.00  0.00    -0.395 OA
HETATM    2  H   UNL     1      11.036   6.727  12.140  1.00  0.00     0.210 HD
ENDROOT
BRANCH   1   3
HETATM    3  C   UNL     1      12.420   5.321  12.072  1.00  0.00     0.122 C 
BRANCH   3   4
HETATM    4  C   UNL     1      12.709   4.088  11.200  1.00  0.00     0.042 C 
BRANCH   4   5
HETATM    5  C   UNL     1      12.803   4.408   9.707  1.00  0.00     0.116 C 
BRANCH   5   6
HETATM    6  C   UNL     1      14.120   4.093   9.046  1.00  0.00     0.172 C 
HETATM    7  O   UNL     1      15.198   4.572   9.360  1.00  0.00    -0.648 OA
HETATM    8  O   UNL     1      14.033   3.280   7.974  1.00  0.00    -0.648 OA
ENDBRANCH   5   6
ENDBRANCH   4   5
ENDBRANCH   3   4
BRANCH   3   9
HETATM    9  C   UNL     1      13.482   6.413  11.841  1.00  0.00     0.070 C 
BRANCH   9  10
HETATM   10  C   UNL     1      14.562   6.427  12.903  1.00  0.00    -0.053 A 
HETATM   11  C   UNL     1      14.397   7.181  14.075  1.00  0.00     0.043 A 
HETATM   12  C   UNL     1      15.397   7.184  15.046  1.00  0.00     0.066 A 
HETATM   13  C   UNL     1      16.564   6.449  14.872  1.00  0.00     0.036 A 
HETATM   14  C   UNL     1      16.737   5.699  13.711  1.00  0.00     0.003 A 
HETATM   15  C   UNL     1      15.741   5.687  12.732  1.00  0.00     0.007 A 
BRANCH  12  16
HETATM   16  O   UNL     1      15.268   7.904  16.197  1.00  0.00    -0.361 OA
HETATM   17  H   UNL     1      14.737   8.675  16.210  1.00  0.00     0.217 HD
ENDBRANCH  12  16
ENDBRANCH   9  10
ENDBRANCH   3   9
ENDBRANCH   1   3
TORSDOF 7
ENDMDL
