MODEL 1
REMARK VINA RESULT:      -6.8      0.000      0.000
REMARK  7 active torsions:
REMARK  status: ('A' for Active; 'I' for Inactive)
REMARK    1  A    between atoms: O_1  and  C_2 
REMARK    2  A    between atoms: C_2  and  C_3 
REMARK    3  A    between atoms: C_2  and  C_8 
REMARK    4  A    between atoms: C_3  and  C_4 
REMARK    5  A    between atoms: C_4  and  C_5 
REMARK    6  A    between atoms: C_8  and  C_9 
REMARK    7  A    between atoms: C_11  and  O_15 
ROOT
HETATM    1  O   UNL     1       9.332   6.719   9.615  1.00  0.00    -0.395 OA
HETATM    2  H   UNL     1       9.043   6.189  10.373  1.00  0.00     0.210 HD
ENDROOT
BRANCH   1   3
HETATM    3  C   UNL     1      10.561   6.196   9.111  1.00  0.00     0.122 C 
BRANCH   3   4
HETATM    4  C   UNL     1      10.889   6.848   7.757  1.00  0.00     0.042 C 
BRANCH   4   5
HETATM    5  C   UNL     1      10.418   6.024   6.557  1.00  0.00     0.116 C 
BRANCH   5   6
HETATM    6  C   UNL     1      11.492   5.582   5.597  1.00  0.00     0.172 C 
HETATM    7  O   UNL     1      11.339   4.783   4.687  1.00  0.00    -0.648 OA
HETATM    8  O   UNL     1      12.720   6.072   5.861  1.00  0.00    -0.648 OA
ENDBRANCH   5   6
ENDBRANCH   4   5
ENDBRANCH   3   4
BRANCH   3   9
HETATM    9  C   UNL     1      11.692   6.453  10.127  1.00  0.00     0.070 C 
BRANCH   9  10
HETATM   10  C   UNL     1      11.422   7.636  11.031  1.00  0.00    -0.053 A 
HETATM   11  C   UNL     1      11.099   7.440  12.383  1.00  0.00     0.043 A 
HETATM   12  C   UNL     1      10.855   8.538  13.206  1.00  0.00     0.066 A 
HETATM   13  C   UNL     1      10.926   9.833  12.708  1.00  0.00     0.036 A 
HETATM   14  C   UNL     1      11.244  10.038  11.368  1.00  0.00     0.003 A 
HETATM   15  C   UNL     1      11.492   8.945  10.534  1.00  0.00     0.007 A 
BRANCH  12  16
HETATM   16  O   UNL     1      10.541   8.382  14.524  1.00  0.00    -0.361 OA
HETATM   17  H   UNL     1      10.918   7.680  15.016  1.00  0.00     0.217 HD
ENDBRANCH  12  16
ENDBRANCH   9  10
ENDBRANCH   3   9
ENDBRANCH   1   3
TORSDOF 7
ENDMDL
MODEL 2
REMARK VINA RESULT:      -6.6      2.790      6.592
REMARK  7 active torsions:
REMARK  status: ('A' for Active; 'I' for Inactive)
REMARK    1  A    between atoms: O_1  and  C_2 
REMARK    2  A    between atoms: C_2  and  C_3 
REMARK    3  A    between atoms: C_2  and  C_8 
REMARK    4  A    between atoms: C_3  and  C_4 
REMARK    5  A    between atoms: C_4  and  C_5 
REMARK    6  A    between atoms: C_8  and  C_9 
REMARK    7  A    between atoms: C_11  and  O_15 
ROOT
HETATM    1  O   UNL     1      12.007   8.709  13.124  1.00  0.00    -0.395 OA
HETATM    2  H   UNL     1      11.345   8.072  13.434  1.00  0.00     0.210 HD
ENDROOT
BRANCH   1   3
HETATM    3  C   UNL     1      11.704   9.093  11.783  1.00  0.00     0.122 C 
BRANCH   3   4
HETATM    4  C   UNL     1      11.250  10.562  11.750  1.00  0.00     0.042 C 
BRANCH   4   5
HETATM    5  C   UNL     1      12.045  11.464  12.697  1.00  0.00     0.116 C 
BRANCH   5   6
HETATM    6  C   UNL     1      12.042  12.934  12.364  1.00  0.00     0.172 C 
HETATM    7  O   UNL     1      12.913  13.729  12.680  1.00  0.00    -0.648 OA
HETATM    8  O   UNL     1      10.928  13.370  11.743  1.00  0.00    -0.648 OA
ENDBRANCH   5   6
ENDBRANCH   4   5
ENDBRANCH   3   4
BRANCH   3   9
HETATM    9  C   UNL     1      12.943   8.886  10.889  1.00  0.00     0.070 C 
BRANCH   9  10
HETATM   10  C   UNL     1      12.639   8.120   9.619  1.00  0.00    -0.053 A 
HETATM   11  C   UNL     1      11.345   7.637   9.371  1.00  0.00     0.043 A 
HETATM   12  C   UNL     1      11.077   6.936   8.196  1.00  0.00     0.066 A 
HETATM   13  C   UNL     1      12.077   6.705   7.260  1.00  0.00     0.036 A 
HETATM   14  C   UNL     1      13.365   7.180   7.497  1.00  0.00     0.003 A 
HETATM   15  C   UNL     1      13.644   7.885   8.670  1.00  0.00     0.007 A 
BRANCH  12  16
HETATM   16  O   UNL     1       9.831   6.454   7.925  1.00  0.00    -0.361 OA
HETATM   17  H   UNL     1       9.236   6.272   8.625  1.00  0.00     0.217 HD
ENDBRANCH  12  16
ENDBRANCH   9  10
ENDBRANCH   3   9
ENDBRANCH   1   3
TORSDOF 7
ENDMDL
MODEL 3
REMARK VINA RESULT:      -6.5      2.698      4.436
REMARK  7 active torsions:
REMARK  status: ('A' for Active; 'I' for Inactive)
REMARK    1  A    between atoms: O_1  and  C_2 
REMARK    2  A    between atoms: C_2  and  C_3 
REMARK    3  A    between atoms: C_2  and  C_8 
REMARK    4  A    between atoms: C_3  and  C_4 
REMARK    5  A    between atoms: C_4  and  C_5 
REMARK    6  A    between atoms: C_8  and  C_9 
REMARK    7  A    between atoms: C_11  and  O_15 
ROOT
HETATM    1  O   UNL     1      10.429   6.030  10.668  1.00  0.00    -0.395 OA
HETATM    2  H   UNL     1      10.587   6.686  11.364  1.00  0.00     0.210 HD
ENDROOT
BRANCH   1   3
HETATM    3  C   UNL     1      11.237   6.337   9.533  1.00  0.00     0.122 C 
BRANCH   3   4
HETATM    4  C   UNL     1      10.342   6.676   8.331  1.00  0.00     0.042 C 
BRANCH   4   5
HETATM    5  C   UNL     1      10.420   5.644   7.204  1.00  0.00     0.116 C 
BRANCH   5   6
HETATM    6  C   UNL     1      10.718   6.189   5.830  1.00  0.00     0.172 C 
HETATM    7  O   UNL     1      11.151   5.538   4.892  1.00  0.00    -0.648 OA
HETATM    8  O   UNL     1      10.561   7.522   5.706  1.00  0.00    -0.648 OA
ENDBRANCH   5   6
ENDBRANCH   4   5
ENDBRANCH   3   4
BRANCH   3   9
HETATM    9  C   UNL     1      12.175   7.514   9.864  1.00  0.00     0.070 C 
BRANCH   9  10
HETATM   10  C   UNL     1      13.615   7.257   9.472  1.00  0.00    -0.053 A 
HETATM   11  C   UNL     1      14.027   7.406   8.139  1.00  0.00     0.043 A 
HETATM   12  C   UNL     1      15.356   7.170   7.791  1.00  0.00     0.066 A 
HETATM   13  C   UNL     1      16.286   6.784   8.748  1.00  0.00     0.036 A 
HETATM   14  C   UNL     1      15.886   6.633  10.074  1.00  0.00     0.003 A 
HETATM   15  C   UNL     1      14.558   6.869  10.434  1.00  0.00     0.007 A 
BRANCH  12  16
HETATM   16  O   UNL     1      15.789   7.307   6.506  1.00  0.00    -0.361 OA
HETATM   17  H   UNL     1      16.614   7.713   6.330  1.00  0.00     0.217 HD
ENDBRANCH  12  16
ENDBRANCH   9  10
ENDBRANCH   3   9
ENDBRANCH   1   3
TORSDOF 7
ENDMDL
MODEL 4
REMARK VINA RESULT:      -6.5      1.518      1.811
REMARK  7 active torsions:
REMARK  status: ('A' for Active; 'I' for Inactive)
REMARK    1  A    between atoms: O_1  and  C_2 
REMARK    2  A    between atoms: C_2  and  C_3 
REMARK    3  A    between atoms: C_2  and  C_8 
REMARK    4  A    between atoms: C_3  and  C_4 
REMARK    5  A    between atoms: C_4  and  C_5 
REMARK    6  A    between atoms: C_8  and  C_9 
REMARK    7  A    between atoms: C_11  and  O_15 
ROOT
HETATM    1  O   UNL     1      14.277   6.498   9.486  1.00  0.00    -0.395 OA
HETATM    2  H   UNL     1      14.258   6.314  10.438  1.00  0.00     0.210 HD
ENDROOT
BRANCH   1   3
HETATM    3  C   UNL     1      13.070   7.156   9.104  1.00  0.00     0.122 C 
BRANCH   3   4
HETATM    4  C   UNL     1      12.739   6.830   7.639  1.00  0.00     0.042 C 
BRANCH   4   5
HETATM    5  C   UNL     1      11.267   6.478   7.412  1.00  0.00     0.116 C 
BRANCH   5   6
HETATM    6  C   UNL     1      10.787   6.538   5.985  1.00  0.00     0.172 C 
HETATM    7  O   UNL     1      10.984   5.680   5.138  1.00  0.00    -0.648 OA
HETATM    8  O   UNL     1      10.172   7.688   5.644  1.00  0.00    -0.648 OA
ENDBRANCH   5   6
ENDBRANCH   4   5
ENDBRANCH   3   4
BRANCH   3   9
HETATM    9  C   UNL     1      11.921   6.717  10.033  1.00  0.00     0.070 C 
BRANCH   9  10
HETATM   10  C   UNL     1      11.509   7.789  11.019  1.00  0.00    -0.053 A 
HETATM   11  C   UNL     1      11.304   7.473  12.371  1.00  0.00     0.043 A 
HETATM   12  C   UNL     1      10.928   8.471  13.269  1.00  0.00     0.066 A 
HETATM   13  C   UNL     1      10.749   9.782  12.845  1.00  0.00     0.036 A 
HETATM   14  C   UNL     1      10.948  10.105  11.505  1.00  0.00     0.003 A 
HETATM   15  C   UNL     1      11.327   9.114  10.597  1.00  0.00     0.007 A 
BRANCH  12  16
HETATM   16  O   UNL     1      10.722   8.198  14.588  1.00  0.00    -0.361 OA
HETATM   17  H   UNL     1      10.703   7.310  14.886  1.00  0.00     0.217 HD
ENDBRANCH  12  16
ENDBRANCH   9  10
ENDBRANCH   3   9
ENDBRANCH   1   3
TORSDOF 7
ENDMDL
MODEL 5
REMARK VINA RESULT:      -6.5      2.096      6.236
REMARK  7 active torsions:
REMARK  status: ('A' for Active; 'I' for Inactive)
REMARK    1  A    between atoms: O_1  and  C_2 
REMARK    2  A    between atoms: C_2  and  C_3 
REMARK    3  A    between atoms: C_2  and  C_8 
REMARK    4  A    between atoms: C_3  and  C_4 
REMARK    5  A    between atoms: C_4  and  C_5 
REMARK    6  A    between atoms: C_8  and  C_9 
REMARK    7  A    between atoms: C_11  and  O_15 
ROOT
HETATM    1  O   UNL     1      10.460   7.571  13.061  1.00  0.00    -0.395 OA
HETATM    2  H   UNL     1      10.227   8.392  13.523  1.00  0.00     0.210 HD
ENDROOT
BRANCH   1   3
HETATM    3  C   UNL     1      10.875   7.876  11.730  1.00  0.00     0.122 C 
BRANCH   3   4
HETATM    4  C   UNL     1      11.697   9.175  11.725  1.00  0.00     0.042 C 
BRANCH   4   5
HETATM    5  C   UNL     1      10.839  10.436  11.594  1.00  0.00     0.116 C 
BRANCH   5   6
HETATM    6  C   UNL     1      11.440  11.703  12.146  1.00  0.00     0.172 C 
HETATM    7  O   UNL     1      11.033  12.832  11.923  1.00  0.00    -0.648 OA
HETATM    8  O   UNL     1      12.566  11.526  12.867  1.00  0.00    -0.648 OA
ENDBRANCH   5   6
ENDBRANCH   4   5
ENDBRANCH   3   4
BRANCH   3   9
HETATM    9  C   UNL     1      11.702   6.706  11.162  1.00  0.00     0.070 C 
BRANCH   9  10
HETATM   10  C   UNL     1      11.705   6.660   9.649  1.00  0.00    -0.053 A 
HETATM   11  C   UNL     1      12.883   6.918   8.931  1.00  0.00     0.043 A 
HETATM   12  C   UNL     1      12.873   6.870   7.538  1.00  0.00     0.066 A 
HETATM   13  C   UNL     1      11.709   6.569   6.842  1.00  0.00     0.036 A 
HETATM   14  C   UNL     1      10.534   6.312   7.546  1.00  0.00     0.003 A 
HETATM   15  C   UNL     1      10.533   6.356   8.941  1.00  0.00     0.007 A 
BRANCH  12  16
HETATM   16  O   UNL     1      14.000   7.114   6.810  1.00  0.00    -0.361 OA
HETATM   17  H   UNL     1      14.829   6.794   7.108  1.00  0.00     0.217 HD
ENDBRANCH  12  16
ENDBRANCH   9  10
ENDBRANCH   3   9
ENDBRANCH   1   3
TORSDOF 7
ENDMDL
MODEL 6
REMARK VINA RESULT:      -6.4      2.532      5.868
REMARK  7 active torsions:
REMARK  status: ('A' for Active; 'I' for Inactive)
REMARK    1  A    between atoms: O_1  and  C_2 
REMARK    2  A    between atoms: C_2  and  C_3 
REMARK    3  A    between atoms: C_2  and  C_8 
REMARK    4  A    between atoms: C_3  and  C_4 
REMARK    5  A    between atoms: C_4  and  C_5 
REMARK    6  A    between atoms: C_8  and  C_9 
REMARK    7  A    between atoms: C_11  and  O_15 
ROOT
HETATM    1  O   UNL     1       9.284   7.342   9.619  1.00  0.00    -0.395 OA
HETATM    2  H   UNL     1       9.278   7.102   8.680  1.00  0.00     0.210 HD
ENDROOT
BRANCH   1   3
HETATM    3  C   UNL     1      10.612   7.680  10.015  1.00  0.00     0.122 C 
BRANCH   3   4
HETATM    4  C   UNL     1      10.582   8.430  11.357  1.00  0.00     0.042 C 
BRANCH   4   5
HETATM    5  C   UNL     1      10.961   9.908  11.236  1.00  0.00     0.116 C 
BRANCH   5   6
HETATM    6  C   UNL     1      12.052  10.387  12.159  1.00  0.00     0.172 C 
HETATM    7  O   UNL     1      12.164  11.525  12.587  1.00  0.00    -0.648 OA
HETATM    8  O   UNL     1      13.001   9.470  12.435  1.00  0.00    -0.648 OA
ENDBRANCH   5   6
ENDBRANCH   4   5
ENDBRANCH   3   4
BRANCH   3   9
HETATM    9  C   UNL     1      11.465   6.401  10.125  1.00  0.00     0.070 C 
BRANCH   9  10
HETATM   10  C   UNL     1      12.918   6.621   9.762  1.00  0.00    -0.053 A 
HETATM   11  C   UNL     1      13.291   6.867   8.432  1.00  0.00     0.043 A 
HETATM   12  C   UNL     1      14.632   7.071   8.112  1.00  0.00     0.066 A 
HETATM   13  C   UNL     1      15.614   7.034   9.094  1.00  0.00     0.036 A 
HETATM   14  C   UNL     1      15.254   6.790  10.417  1.00  0.00     0.003 A 
HETATM   15  C   UNL     1      13.913   6.585  10.750  1.00  0.00     0.007 A 
BRANCH  12  16
HETATM   16  O   UNL     1      15.028   7.313   6.829  1.00  0.00    -0.361 OA
HETATM   17  H   UNL     1      15.064   8.192   6.508  1.00  0.00     0.217 HD
ENDBRANCH  12  16
ENDBRANCH   9  10
ENDBRANCH   3   9
ENDBRANCH   1   3
TORSDOF 7
ENDMDL
MODEL 7
REMARK VINA RESULT:      -6.3      2.849      5.535
REMARK  7 active torsions:
REMARK  status: ('A' for Active; 'I' for Inactive)
REMARK    1  A    between atoms: O_1  and  C_2 
REMARK    2  A    between atoms: C_2  and  C_3 
REMARK    3  A    between atoms: C_2  and  C_8 
REMARK    4  A    between atoms: C_3  and  C_4 
REMARK    5  A    between atoms: C_4  and  C_5 
REMARK    6  A    between atoms: C_8  and  C_9 
REMARK    7  A    between atoms: C_11  and  O_15 
ROOT
HETATM    1  O   UNL     1       9.504   7.651   9.663  1.00  0.00    -0.395 OA
HETATM    2  H   UNL     1       9.366   7.997   8.768  1.00  0.00     0.210 HD
ENDROOT
BRANCH   1   3
HETATM    3  C   UNL     1      10.601   6.739   9.657  1.00  0.00     0.122 C 
BRANCH   3   4
HETATM    4  C   UNL     1      10.089   5.306   9.879  1.00  0.00     0.042 C 
BRANCH   4   5
HETATM    5  C   UNL     1      10.202   4.839  11.331  1.00  0.00     0.116 C 
BRANCH   5   6
HETATM    6  C   UNL     1      11.121   5.644  12.214  1.00  0.00     0.172 C 
HETATM    7  O   UNL     1      10.936   6.803  12.552  1.00  0.00    -0.648 OA
HETATM    8  O   UNL     1      12.263   5.018  12.559  1.00  0.00    -0.648 OA
ENDBRANCH   5   6
ENDBRANCH   4   5
ENDBRANCH   3   4
BRANCH   3   9
HETATM    9  C   UNL     1      11.359   6.846   8.319  1.00  0.00     0.070 C 
BRANCH   9  10
HETATM   10  C   UNL     1      12.862   6.912   8.490  1.00  0.00    -0.053 A 
HETATM   11  C   UNL     1      13.696   7.126   7.382  1.00  0.00     0.043 A 
HETATM   12  C   UNL     1      15.078   7.188   7.554  1.00  0.00     0.066 A 
HETATM   13  C   UNL     1      15.649   7.040   8.812  1.00  0.00     0.036 A 
HETATM   14  C   UNL     1      14.829   6.826   9.918  1.00  0.00     0.003 A 
HETATM   15  C   UNL     1      13.443   6.763   9.758  1.00  0.00     0.007 A 
BRANCH  12  16
HETATM   16  O   UNL     1      15.917   7.396   6.499  1.00  0.00    -0.361 OA
HETATM   17  H   UNL     1      16.136   6.687   5.928  1.00  0.00     0.217 HD
ENDBRANCH  12  16
ENDBRANCH   9  10
ENDBRANCH   3   9
ENDBRANCH   1   3
TORSDOF 7
ENDMDL
MODEL 8
REMARK VINA RESULT:      -6.3      2.840      5.661
REMARK  7 active torsions:
REMARK  status: ('A' for Active; 'I' for Inactive)
REMARK    1  A    between atoms: O_1  and  C_2 
REMARK    2  A    between atoms: C_2  and  C_3 
REMARK    3  A    between atoms: C_2  and  C_8 
REMARK    4  A    between atoms: C_3  and  C_4 
REMARK    5  A    between atoms: C_4  and  C_5 
REMARK    6  A    between atoms: C_8  and  C_9 
REMARK    7  A    between atoms: C_11  and  O_15 
ROOT
HETATM    1  O   UNL     1       9.372   7.060   9.506  1.00  0.00    -0.395 OA
HETATM    2  H   UNL     1       9.154   6.303  10.072  1.00  0.00     0.210 HD
ENDROOT
BRANCH   1   3
HETATM    3  C   UNL     1      10.604   7.637   9.937  1.00  0.00     0.122 C 
BRANCH   3   4
HETATM    4  C   UNL     1      10.373   8.467  11.210  1.00  0.00     0.042 C 
BRANCH   4   5
HETATM    5  C   UNL     1      11.004   9.860  11.150  1.00  0.00     0.116 C 
BRANCH   5   6
HETATM    6  C   UNL     1      12.176  10.094  12.068  1.00  0.00     0.172 C 
HETATM    7  O   UNL     1      12.983   9.244  12.411  1.00  0.00    -0.648 OA
HETATM    8  O   UNL     1      12.243  11.334  12.592  1.00  0.00    -0.648 OA
ENDBRANCH   5   6
ENDBRANCH   4   5
ENDBRANCH   3   4
BRANCH   3   9
HETATM    9  C   UNL     1      11.639   6.524  10.193  1.00  0.00     0.070 C 
BRANCH   9  10
HETATM   10  C   UNL     1      12.941   6.741   9.452  1.00  0.00    -0.053 A 
HETATM   11  C   UNL     1      14.162   6.748  10.145  1.00  0.00     0.043 A 
HETATM   12  C   UNL     1      15.355   6.946   9.451  1.00  0.00     0.066 A 
HETATM   13  C   UNL     1      15.356   7.141   8.075  1.00  0.00     0.036 A 
HETATM   14  C   UNL     1      14.149   7.137   7.379  1.00  0.00     0.003 A 
HETATM   15  C   UNL     1      12.949   6.937   8.063  1.00  0.00     0.007 A 
BRANCH  12  16
HETATM   16  O   UNL     1      16.557   6.957  10.093  1.00  0.00    -0.361 OA
HETATM   17  H   UNL     1      16.805   6.236  10.636  1.00  0.00     0.217 HD
ENDBRANCH  12  16
ENDBRANCH   9  10
ENDBRANCH   3   9
ENDBRANCH   1   3
TORSDOF 7
ENDMDL
MODEL 9
REMARK VINA RESULT:      -6.2      2.092      5.543
REMARK  7 active torsions:
REMARK  status: ('A' for Active; 'I' for Inactive)
REMARK    1  A    between atoms: O_1  and  C_2 
REMARK    2  A    between atoms: C_2  and  C_3 
REMARK    3  A    between atoms: C_2  and  C_8 
REMARK    4  A    between atoms: C_3  and  C_4 
REMARK    5  A    between atoms: C_4  and  C_5 
REMARK    6  A    between atoms: C_8  and  C_9 
REMARK    7  A    between atoms: C_11  and  O_15 
ROOT
HETATM    1  O   UNL     1      11.913   5.177  13.435  1.00  0.00    -0.395 OA
HETATM    2  H   UNL     1      11.826   4.375  12.897  1.00  0.00     0.210 HD
ENDROOT
BRANCH   1   3
HETATM    3  C   UNL     1      11.929   6.322  12.583  1.00  0.00     0.122 C 
BRANCH   3   4
HETATM    4  C   UNL     1      11.956   7.603  13.431  1.00  0.00     0.042 C 
BRANCH   4   5
HETATM    5  C   UNL     1      10.842   8.590  13.076  1.00  0.00     0.116 C 
BRANCH   5   6
HETATM    6  C   UNL     1      11.145   9.554  11.958  1.00  0.00     0.172 C 
HETATM    7  O   UNL     1      10.541   9.617  10.899  1.00  0.00    -0.648 OA
HETATM    8  O   UNL     1      12.233  10.326  12.158  1.00  0.00    -0.648 OA
ENDBRANCH   5   6
ENDBRANCH   4   5
ENDBRANCH   3   4
BRANCH   3   9
HETATM    9  C   UNL     1      13.155   6.259  11.650  1.00  0.00     0.070 C 
BRANCH   9  10
HETATM   10  C   UNL     1      12.812   6.516  10.198  1.00  0.00    -0.053 A 
HETATM   11  C   UNL     1      11.478   6.470   9.763  1.00  0.00     0.043 A 
HETATM   12  C   UNL     1      11.175   6.711   8.424  1.00  0.00     0.066 A 
HETATM   13  C   UNL     1      12.178   6.998   7.505  1.00  0.00     0.036 A 
HETATM   14  C   UNL     1      13.504   7.045   7.928  1.00  0.00     0.003 A 
HETATM   15  C   UNL     1      13.820   6.806   9.267  1.00  0.00     0.007 A 
BRANCH  12  16
HETATM   16  O   UNL     1       9.891   6.675   7.969  1.00  0.00    -0.361 OA
HETATM   17  H   UNL     1       9.718   6.481   7.069  1.00  0.00     0.217 HD
ENDBRANCH  12  16
ENDBRANCH   9  10
ENDBRANCH   3   9
ENDBRANCH   1   3
TORSDOF 7
ENDMDL
