MODEL 1
REMARK VINA RESULT:      -6.8      0.000      0.000
REMARK  7 active torsions:
REMARK  status: ('A' for Active; 'I' for Inactive)
REMARK    1  A    between atoms: O_1  and  C_2 
REMARK    2  A    between atoms: C_2  and  C_3 
REMARK    3  A    between atoms: C_2  and  C_8 
REMARK    4  A    between atoms: C_3  and  C_4 
REMARK    5  A    between atoms: C_4  and  C_5 
REMARK    6  A    between atoms: C_8  and  C_9 
REMARK    7  A    between atoms: C_11  and  O_15 
ROOT
HETATM    1  O   UNL     1      11.194   4.770  11.646  1.00  0.00    -0.395 OA
HETATM    2  H   UNL     1      11.221   5.615  12.122  1.00  0.00     0.210 HD
ENDROOT
BRANCH   1   3
HETATM    3  C   UNL     1      12.511   4.227  11.568  1.00  0.00     0.122 C 
BRANCH   3   4
HETATM    4  C   UNL     1      13.123   4.540  10.193  1.00  0.00     0.042 C 
BRANCH   4   5
HETATM    5  C   UNL     1      13.040   3.370   9.210  1.00  0.00     0.116 C 
BRANCH   5   6
HETATM    6  C   UNL     1      14.276   3.108   8.389  1.00  0.00     0.172 C 
HETATM    7  O   UNL     1      14.386   2.241   7.537  1.00  0.00    -0.648 OA
HETATM    8  O   UNL     1      15.344   3.861   8.722  1.00  0.00    -0.648 OA
ENDBRANCH   5   6
ENDBRANCH   4   5
ENDBRANCH   3   4
BRANCH   3   9
HETATM    9  C   UNL     1      13.383   4.808  12.698  1.00  0.00     0.070 C 
BRANCH   9  10
HETATM   10  C   UNL     1      12.804   6.067  13.308  1.00  0.00    -0.053 A 
HETATM   11  C   UNL     1      12.280   6.051  14.610  1.00  0.00     0.043 A 
HETATM   12  C   UNL     1      11.753   7.218  15.162  1.00  0.00     0.066 A 
HETATM   13  C   UNL     1      11.734   8.404  14.439  1.00  0.00     0.036 A 
HETATM   14  C   UNL     1      12.250   8.429  13.146  1.00  0.00     0.003 A 
HETATM   15  C   UNL     1      12.783   7.267  12.583  1.00  0.00     0.007 A 
BRANCH  12  16
HETATM   16  O   UNL     1      11.238   7.237  16.424  1.00  0.00    -0.361 OA
HETATM   17  H   UNL     1      11.812   7.270  17.164  1.00  0.00     0.217 HD
ENDBRANCH  12  16
ENDBRANCH   9  10
ENDBRANCH   3   9
ENDBRANCH   1   3
TORSDOF 7
ENDMDL
MODEL 2
REMARK VINA RESULT:      -6.7      2.673      6.505
REMARK  7 active torsions:
REMARK  status: ('A' for Active; 'I' for Inactive)
REMARK    1  A    between atoms: O_1  and  C_2 
REMARK    2  A    between atoms: C_2  and  C_3 
REMARK    3  A    between atoms: C_2  and  C_8 
REMARK    4  A    between atoms: C_3  and  C_4 
REMARK    5  A    between atoms: C_4  and  C_5 
REMARK    6  A    between atoms: C_8  and  C_9 
REMARK    7  A    between atoms: C_11  and  O_15 
ROOT
HETATM    1  O   UNL     1      11.705   7.687  15.369  1.00  0.00    -0.395 OA
HETATM    2  H   UNL     1      10.799   7.371  15.510  1.00  0.00     0.210 HD
ENDROOT
BRANCH   1   3
HETATM    3  C   UNL     1      12.035   7.584  13.984  1.00  0.00     0.122 C 
BRANCH   3   4
HETATM    4  C   UNL     1      11.915   8.963  13.316  1.00  0.00     0.042 C 
BRANCH   4   5
HETATM    5  C   UNL     1      12.656  10.070  14.069  1.00  0.00     0.116 C 
BRANCH   5   6
HETATM    6  C   UNL     1      12.404  11.477  13.591  1.00  0.00     0.172 C 
HETATM    7  O   UNL     1      13.036  12.462  13.937  1.00  0.00    -0.648 OA
HETATM    8  O   UNL     1      11.332  11.615  12.786  1.00  0.00    -0.648 OA
ENDBRANCH   5   6
ENDBRANCH   4   5
ENDBRANCH   3   4
BRANCH   3   9
HETATM    9  C   UNL     1      13.463   7.025  13.829  1.00  0.00     0.070 C 
BRANCH   9  10
HETATM   10  C   UNL     1      13.707   6.384  12.479  1.00  0.00    -0.053 A 
HETATM   11  C   UNL     1      12.804   5.442  11.964  1.00  0.00     0.043 A 
HETATM   12  C   UNL     1      13.039   4.861  10.719  1.00  0.00     0.066 A 
HETATM   13  C   UNL     1      14.162   5.200   9.974  1.00  0.00     0.036 A 
HETATM   14  C   UNL     1      15.065   6.133  10.477  1.00  0.00     0.003 A 
HETATM   15  C   UNL     1      14.839   6.723  11.723  1.00  0.00     0.007 A 
BRANCH  12  16
HETATM   16  O   UNL     1      12.181   3.944  10.190  1.00  0.00    -0.361 OA
HETATM   17  H   UNL     1      12.341   3.028  10.309  1.00  0.00     0.217 HD
ENDBRANCH  12  16
ENDBRANCH   9  10
ENDBRANCH   3   9
ENDBRANCH   1   3
TORSDOF 7
ENDMDL
MODEL 3
REMARK VINA RESULT:      -6.6      2.785      4.490
REMARK  7 active torsions:
REMARK  status: ('A' for Active; 'I' for Inactive)
REMARK    1  A    between atoms: O_1  and  C_2 
REMARK    2  A    between atoms: C_2  and  C_3 
REMARK    3  A    between atoms: C_2  and  C_8 
REMARK    4  A    between atoms: C_3  and  C_4 
REMARK    5  A    between atoms: C_4  and  C_5 
REMARK    6  A    between atoms: C_8  and  C_9 
REMARK    7  A    between atoms: C_11  and  O_15 
ROOT
HETATM    1  O   UNL     1      12.220   4.270  13.087  1.00  0.00    -0.395 OA
HETATM    2  H   UNL     1      11.360   4.579  12.763  1.00  0.00     0.210 HD
ENDROOT
BRANCH   1   3
HETATM    3  C   UNL     1      13.223   4.544  12.110  1.00  0.00     0.122 C 
BRANCH   3   4
HETATM    4  C   UNL     1      12.590   4.579  10.709  1.00  0.00     0.042 C 
BRANCH   4   5
HETATM    5  C   UNL     1      12.932   3.354   9.857  1.00  0.00     0.116 C 
BRANCH   5   6
HETATM    6  C   UNL     1      13.365   3.635   8.442  1.00  0.00     0.172 C 
HETATM    7  O   UNL     1      14.082   2.912   7.768  1.00  0.00    -0.648 OA
HETATM    8  O   UNL     1      12.975   4.831   7.959  1.00  0.00    -0.648 OA
ENDBRANCH   5   6
ENDBRANCH   4   5
ENDBRANCH   3   4
BRANCH   3   9
HETATM    9  C   UNL     1      13.910   5.886  12.431  1.00  0.00     0.070 C 
BRANCH   9  10
HETATM   10  C   UNL     1      15.415   5.837  12.270  1.00  0.00    -0.053 A 
HETATM   11  C   UNL     1      15.995   5.863  10.992  1.00  0.00     0.043 A 
HETATM   12  C   UNL     1      17.382   5.821  10.857  1.00  0.00     0.066 A 
HETATM   13  C   UNL     1      18.206   5.751  11.974  1.00  0.00     0.036 A 
HETATM   14  C   UNL     1      17.639   5.723  13.246  1.00  0.00     0.003 A 
HETATM   15  C   UNL     1      16.251   5.767  13.393  1.00  0.00     0.007 A 
BRANCH  12  16
HETATM   16  O   UNL     1      17.978   5.846   9.631  1.00  0.00    -0.361 OA
HETATM   17  H   UNL     1      17.456   5.790   8.856  1.00  0.00     0.217 HD
ENDBRANCH  12  16
ENDBRANCH   9  10
ENDBRANCH   3   9
ENDBRANCH   1   3
TORSDOF 7
ENDMDL
MODEL 4
REMARK VINA RESULT:      -6.5      2.130      6.282
REMARK  7 active torsions:
REMARK  status: ('A' for Active; 'I' for Inactive)
REMARK    1  A    between atoms: O_1  and  C_2 
REMARK    2  A    between atoms: C_2  and  C_3 
REMARK    3  A    between atoms: C_2  and  C_8 
REMARK    4  A    between atoms: C_3  and  C_4 
REMARK    5  A    between atoms: C_4  and  C_5 
REMARK    6  A    between atoms: C_8  and  C_9 
REMARK    7  A    between atoms: C_11  and  O_15 
ROOT
HETATM    1  O   UNL     1      11.496   6.053  15.171  1.00  0.00    -0.395 OA
HETATM    2  H   UNL     1      12.035   5.445  15.700  1.00  0.00     0.210 HD
ENDROOT
BRANCH   1   3
HETATM    3  C   UNL     1      12.181   6.363  13.958  1.00  0.00     0.122 C 
BRANCH   3   4
HETATM    4  C   UNL     1      12.706   7.807  14.010  1.00  0.00     0.042 C 
BRANCH   4   5
HETATM    5  C   UNL     1      11.860   8.790  13.197  1.00  0.00     0.116 C 
BRANCH   5   6
HETATM    6  C   UNL     1      12.048  10.249  13.524  1.00  0.00     0.172 C 
HETATM    7  O   UNL     1      11.437  11.171  13.008  1.00  0.00    -0.648 OA
HETATM    8  O   UNL     1      13.040  10.508  14.399  1.00  0.00    -0.648 OA
ENDBRANCH   5   6
ENDBRANCH   4   5
ENDBRANCH   3   4
BRANCH   3   9
HETATM    9  C   UNL     1      13.341   5.369  13.747  1.00  0.00     0.070 C 
BRANCH   9  10
HETATM   10  C   UNL     1      13.590   5.048  12.288  1.00  0.00    -0.053 A 
HETATM   11  C   UNL     1      14.820   5.362  11.690  1.00  0.00     0.043 A 
HETATM   12  C   UNL     1      15.038   5.058  10.347  1.00  0.00     0.066 A 
HETATM   13  C   UNL     1      14.051   4.447   9.584  1.00  0.00     0.036 A 
HETATM   14  C   UNL     1      12.827   4.132  10.169  1.00  0.00     0.003 A 
HETATM   15  C   UNL     1      12.597   4.431  11.514  1.00  0.00     0.007 A 
BRANCH  12  16
HETATM   16  O   UNL     1      16.222   5.349   9.737  1.00  0.00    -0.361 OA
HETATM   17  H   UNL     1      16.769   4.657   9.421  1.00  0.00     0.217 HD
ENDBRANCH  12  16
ENDBRANCH   9  10
ENDBRANCH   3   9
ENDBRANCH   1   3
TORSDOF 7
ENDMDL
MODEL 5
REMARK VINA RESULT:      -6.5      1.562      1.970
REMARK  7 active torsions:
REMARK  status: ('A' for Active; 'I' for Inactive)
REMARK    1  A    between atoms: O_1  and  C_2 
REMARK    2  A    between atoms: C_2  and  C_3 
REMARK    3  A    between atoms: C_2  and  C_8 
REMARK    4  A    between atoms: C_3  and  C_4 
REMARK    5  A    between atoms: C_4  and  C_5 
REMARK    6  A    between atoms: C_8  and  C_9 
REMARK    7  A    between atoms: C_11  and  O_15 
ROOT
HETATM    1  O   UNL     1      16.508   5.450  12.278  1.00  0.00    -0.395 OA
HETATM    2  H   UNL     1      17.176   5.859  11.706  1.00  0.00     0.210 HD
ENDROOT
BRANCH   1   3
HETATM    3  C   UNL     1      15.209   5.694  11.741  1.00  0.00     0.122 C 
BRANCH   3   4
HETATM    4  C   UNL     1      15.097   5.070  10.340  1.00  0.00     0.042 C 
BRANCH   4   5
HETATM    5  C   UNL     1      13.652   4.836   9.893  1.00  0.00     0.116 C 
BRANCH   5   6
HETATM    6  C   UNL     1      13.397   3.564   9.125  1.00  0.00     0.172 C 
HETATM    7  O   UNL     1      12.791   2.594   9.549  1.00  0.00    -0.648 OA
HETATM    8  O   UNL     1      13.981   3.513   7.910  1.00  0.00    -0.648 OA
ENDBRANCH   5   6
ENDBRANCH   4   5
ENDBRANCH   3   4
BRANCH   3   9
HETATM    9  C   UNL     1      14.137   5.112  12.684  1.00  0.00     0.070 C 
BRANCH   9  10
HETATM   10  C   UNL     1      13.242   6.170  13.292  1.00  0.00    -0.053 A 
HETATM   11  C   UNL     1      12.801   6.053  14.619  1.00  0.00     0.043 A 
HETATM   12  C   UNL     1      11.979   7.036  15.168  1.00  0.00     0.066 A 
HETATM   13  C   UNL     1      11.584   8.137  14.418  1.00  0.00     0.036 A 
HETATM   14  C   UNL     1      12.015   8.262  13.100  1.00  0.00     0.003 A 
HETATM   15  C   UNL     1      12.840   7.284  12.540  1.00  0.00     0.007 A 
BRANCH  12  16
HETATM   16  O   UNL     1      11.534   6.953  16.455  1.00  0.00    -0.361 OA
HETATM   17  H   UNL     1      10.761   6.463  16.653  1.00  0.00     0.217 HD
ENDBRANCH  12  16
ENDBRANCH   9  10
ENDBRANCH   3   9
ENDBRANCH   1   3
TORSDOF 7
ENDMDL
MODEL 6
REMARK VINA RESULT:      -6.4      2.458      5.992
REMARK  7 active torsions:
REMARK  status: ('A' for Active; 'I' for Inactive)
REMARK    1  A    between atoms: O_1  and  C_2 
REMARK    2  A    between atoms: C_2  and  C_3 
REMARK    3  A    between atoms: C_2  and  C_8 
REMARK    4  A    between atoms: C_3  and  C_4 
REMARK    5  A    between atoms: C_4  and  C_5 
REMARK    6  A    between atoms: C_8  and  C_9 
REMARK    7  A    between atoms: C_11  and  O_15 
ROOT
HETATM    1  O   UNL     1      11.487   4.436  11.442  1.00  0.00    -0.395 OA
HETATM    2  H   UNL     1      11.971   3.697  11.041  1.00  0.00     0.210 HD
ENDROOT
BRANCH   1   3
HETATM    3  C   UNL     1      12.407   5.458  11.821  1.00  0.00     0.122 C 
BRANCH   3   4
HETATM    4  C   UNL     1      11.647   6.640  12.445  1.00  0.00     0.042 C 
BRANCH   4   5
HETATM    5  C   UNL     1      12.557   7.800  12.853  1.00  0.00     0.116 C 
BRANCH   5   6
HETATM    6  C   UNL     1      12.031   8.700  13.942  1.00  0.00     0.172 C 
HETATM    7  O   UNL     1      12.285   9.888  14.058  1.00  0.00    -0.648 OA
HETATM    8  O   UNL     1      11.297   8.074  14.884  1.00  0.00    -0.648 OA
ENDBRANCH   5   6
ENDBRANCH   4   5
ENDBRANCH   3   4
BRANCH   3   9
HETATM    9  C   UNL     1      13.438   4.888  12.815  1.00  0.00     0.070 C 
BRANCH   9  10
HETATM   10  C   UNL     1      14.867   5.233  12.453  1.00  0.00    -0.053 A 
HETATM   11  C   UNL     1      15.294   5.190  11.117  1.00  0.00     0.043 A 
HETATM   12  C   UNL     1      16.612   5.513  10.797  1.00  0.00     0.066 A 
HETATM   13  C   UNL     1      17.518   5.877  11.785  1.00  0.00     0.036 A 
HETATM   14  C   UNL     1      17.104   5.921  13.115  1.00  0.00     0.003 A 
HETATM   15  C   UNL     1      15.786   5.601  13.447  1.00  0.00     0.007 A 
BRANCH  12  16
HETATM   16  O   UNL     1      17.057   5.483   9.509  1.00  0.00    -0.361 OA
HETATM   17  H   UNL     1      16.452   5.354   8.806  1.00  0.00     0.217 HD
ENDBRANCH  12  16
ENDBRANCH   9  10
ENDBRANCH   3   9
ENDBRANCH   1   3
TORSDOF 7
ENDMDL
MODEL 7
REMARK VINA RESULT:      -6.4      2.390      6.195
REMARK  7 active torsions:
REMARK  status: ('A' for Active; 'I' for Inactive)
REMARK    1  A    between atoms: O_1  and  C_2 
REMARK    2  A    between atoms: C_2  and  C_3 
REMARK    3  A    between atoms: C_2  and  C_8 
REMARK    4  A    between atoms: C_3  and  C_4 
REMARK    5  A    between atoms: C_4  and  C_5 
REMARK    6  A    between atoms: C_8  and  C_9 
REMARK    7  A    between atoms: C_11  and  O_15 
ROOT
HETATM    1  O   UNL     1      11.450   5.994  15.126  1.00  0.00    -0.395 OA
HETATM    2  H   UNL     1      11.327   5.043  15.268  1.00  0.00     0.210 HD
ENDROOT
BRANCH   1   3
HETATM    3  C   UNL     1      12.247   6.202  13.961  1.00  0.00     0.122 C 
BRANCH   3   4
HETATM    4  C   UNL     1      12.828   7.626  13.973  1.00  0.00     0.042 C 
BRANCH   4   5
HETATM    5  C   UNL     1      11.931   8.654  13.281  1.00  0.00     0.116 C 
BRANCH   5   6
HETATM    6  C   UNL     1      12.222  10.100  13.592  1.00  0.00     0.172 C 
HETATM    7  O   UNL     1      13.033  10.494  14.415  1.00  0.00    -0.648 OA
HETATM    8  O   UNL     1      11.437  10.985  12.947  1.00  0.00    -0.648 OA
ENDBRANCH   5   6
ENDBRANCH   4   5
ENDBRANCH   3   4
BRANCH   3   9
HETATM    9  C   UNL     1      13.376   5.154  13.908  1.00  0.00     0.070 C 
BRANCH   9  10
HETATM   10  C   UNL     1      14.197   5.227  12.638  1.00  0.00    -0.053 A 
HETATM   11  C   UNL     1      13.589   5.050  11.385  1.00  0.00     0.043 A 
HETATM   12  C   UNL     1      14.356   5.123  10.224  1.00  0.00     0.066 A 
HETATM   13  C   UNL     1      15.722   5.368  10.284  1.00  0.00     0.036 A 
HETATM   14  C   UNL     1      16.335   5.543  11.523  1.00  0.00     0.003 A 
HETATM   15  C   UNL     1      15.576   5.474  12.693  1.00  0.00     0.007 A 
BRANCH  12  16
HETATM   16  O   UNL     1      13.796   4.957   8.991  1.00  0.00    -0.361 OA
HETATM   17  H   UNL     1      12.938   5.290   8.818  1.00  0.00     0.217 HD
ENDBRANCH  12  16
ENDBRANCH   9  10
ENDBRANCH   3   9
ENDBRANCH   1   3
TORSDOF 7
ENDMDL
MODEL 8
REMARK VINA RESULT:      -6.2      2.032      2.602
REMARK  7 active torsions:
REMARK  status: ('A' for Active; 'I' for Inactive)
REMARK    1  A    between atoms: O_1  and  C_2 
REMARK    2  A    between atoms: C_2  and  C_3 
REMARK    3  A    between atoms: C_2  and  C_8 
REMARK    4  A    between atoms: C_3  and  C_4 
REMARK    5  A    between atoms: C_4  and  C_5 
REMARK    6  A    between atoms: C_8  and  C_9 
REMARK    7  A    between atoms: C_11  and  O_15 
ROOT
HETATM    1  O   UNL     1      17.423   6.035  10.983  1.00  0.00    -0.395 OA
HETATM    2  H   UNL     1      17.841   5.160  10.966  1.00  0.00     0.210 HD
ENDROOT
BRANCH   1   3
HETATM    3  C   UNL     1      16.006   5.882  11.062  1.00  0.00     0.122 C 
BRANCH   3   4
HETATM    4  C   UNL     1      15.521   4.933   9.954  1.00  0.00     0.042 C 
BRANCH   4   5
HETATM    5  C   UNL     1      13.998   4.897   9.808  1.00  0.00     0.116 C 
BRANCH   5   6
HETATM    6  C   UNL     1      13.430   3.682   9.122  1.00  0.00     0.172 C 
HETATM    7  O   UNL     1      12.716   2.844   9.650  1.00  0.00    -0.648 OA
HETATM    8  O   UNL     1      13.842   3.508   7.850  1.00  0.00    -0.648 OA
ENDBRANCH   5   6
ENDBRANCH   4   5
ENDBRANCH   3   4
BRANCH   3   9
HETATM    9  C   UNL     1      15.617   5.341  12.452  1.00  0.00     0.070 C 
BRANCH   9  10
HETATM   10  C   UNL     1      14.505   6.132  13.108  1.00  0.00    -0.053 A 
HETATM   11  C   UNL     1      13.463   5.473  13.779  1.00  0.00     0.043 A 
HETATM   12  C   UNL     1      12.446   6.212  14.381  1.00  0.00     0.066 A 
HETATM   13  C   UNL     1      12.445   7.600  14.328  1.00  0.00     0.036 A 
HETATM   14  C   UNL     1      13.474   8.263  13.663  1.00  0.00     0.003 A 
HETATM   15  C   UNL     1      14.499   7.533  13.057  1.00  0.00     0.007 A 
BRANCH  12  16
HETATM   16  O   UNL     1      11.421   5.603  15.041  1.00  0.00    -0.361 OA
HETATM   17  H   UNL     1      10.553   5.636  14.691  1.00  0.00     0.217 HD
ENDBRANCH  12  16
ENDBRANCH   9  10
ENDBRANCH   3   9
ENDBRANCH   1   3
TORSDOF 7
ENDMDL
MODEL 9
REMARK VINA RESULT:      -6.1      2.473      2.988
REMARK  7 active torsions:
REMARK  status: ('A' for Active; 'I' for Inactive)
REMARK    1  A    between atoms: O_1  and  C_2 
REMARK    2  A    between atoms: C_2  and  C_3 
REMARK    3  A    between atoms: C_2  and  C_8 
REMARK    4  A    between atoms: C_3  and  C_4 
REMARK    5  A    between atoms: C_4  and  C_5 
REMARK    6  A    between atoms: C_8  and  C_9 
REMARK    7  A    between atoms: C_11  and  O_15 
ROOT
HETATM    1  O   UNL     1      11.202   6.002  11.825  1.00  0.00    -0.395 OA
HETATM    2  H   UNL     1      10.701   5.468  11.189  1.00  0.00     0.210 HD
ENDROOT
BRANCH   1   3
HETATM    3  C   UNL     1      12.469   5.389  12.064  1.00  0.00     0.122 C 
BRANCH   3   4
HETATM    4  C   UNL     1      12.636   4.162  11.153  1.00  0.00     0.042 C 
BRANCH   4   5
HETATM    5  C   UNL     1      13.715   4.342  10.083  1.00  0.00     0.116 C 
BRANCH   5   6
HETATM    6  C   UNL     1      13.252   4.230   8.653  1.00  0.00     0.172 C 
HETATM    7  O   UNL     1      12.309   4.834   8.168  1.00  0.00    -0.648 OA
HETATM    8  O   UNL     1      13.911   3.311   7.918  1.00  0.00    -0.648 OA
ENDBRANCH   5   6
ENDBRANCH   4   5
ENDBRANCH   3   4
BRANCH   3   9
HETATM    9  C   UNL     1      13.597   6.410  11.816  1.00  0.00     0.070 C 
BRANCH   9  10
HETATM   10  C   UNL     1      14.633   6.432  12.920  1.00  0.00    -0.053 A 
HETATM   11  C   UNL     1      14.434   7.216  14.067  1.00  0.00     0.043 A 
HETATM   12  C   UNL     1      15.395   7.226  15.077  1.00  0.00     0.066 A 
HETATM   13  C   UNL     1      16.554   6.468  14.967  1.00  0.00     0.036 A 
HETATM   14  C   UNL     1      16.761   5.688  13.832  1.00  0.00     0.003 A 
HETATM   15  C   UNL     1      15.805   5.669  12.814  1.00  0.00     0.007 A 
BRANCH  12  16
HETATM   16  O   UNL     1      15.232   7.975  16.205  1.00  0.00    -0.361 OA
HETATM   17  H   UNL     1      15.978   8.226  16.712  1.00  0.00     0.217 HD
ENDBRANCH  12  16
ENDBRANCH   9  10
ENDBRANCH   3   9
ENDBRANCH   1   3
TORSDOF 7
ENDMDL
