MODEL 1
REMARK VINA RESULT:      -6.8      0.000      0.000
REMARK  7 active torsions:
REMARK  status: ('A' for Active; 'I' for Inactive)
REMARK    1  A    between atoms: O_1  and  C_2 
REMARK    2  A    between atoms: C_2  and  C_3 
REMARK    3  A    between atoms: C_2  and  C_8 
REMARK    4  A    between atoms: C_3  and  C_4 
REMARK    5  A    between atoms: C_4  and  C_5 
REMARK    6  A    between atoms: C_8  and  C_9 
REMARK    7  A    between atoms: C_11  and  O_15 
ROOT
HETATM    1  O   UNL     1       9.260   7.221   9.606  1.00  0.00    -0.395 OA
HETATM    2  H   UNL     1       8.918   6.859  10.437  1.00  0.00     0.210 HD
ENDROOT
BRANCH   1   3
HETATM    3  C   UNL     1      10.355   6.424   9.155  1.00  0.00     0.122 C 
BRANCH   3   4
HETATM    4  C   UNL     1      10.765   6.854   7.737  1.00  0.00     0.042 C 
BRANCH   4   5
HETATM    5  C   UNL     1      10.395   5.829   6.662  1.00  0.00     0.116 C 
BRANCH   5   6
HETATM    6  C   UNL     1      11.448   5.561   5.617  1.00  0.00     0.172 C 
HETATM    7  O   UNL     1      11.301   4.852   4.635  1.00  0.00    -0.648 OA
HETATM    8  O   UNL     1      12.655   6.099   5.882  1.00  0.00    -0.648 OA
ENDBRANCH   5   6
ENDBRANCH   4   5
ENDBRANCH   3   4
BRANCH   3   9
HETATM    9  C   UNL     1      11.540   6.567  10.132  1.00  0.00     0.070 C 
BRANCH   9  10
HETATM   10  C   UNL     1      11.390   7.736  11.082  1.00  0.00    -0.053 A 
HETATM   11  C   UNL     1      11.021   7.524  12.419  1.00  0.00     0.043 A 
HETATM   12  C   UNL     1      10.889   8.608  13.285  1.00  0.00     0.066 A 
HETATM   13  C   UNL     1      11.117   9.906  12.843  1.00  0.00     0.036 A 
HETATM   14  C   UNL     1      11.482  10.127  11.517  1.00  0.00     0.003 A 
HETATM   15  C   UNL     1      11.619   9.048  10.641  1.00  0.00     0.007 A 
BRANCH  12  16
HETATM   16  O   UNL     1      10.533   8.437  14.590  1.00  0.00    -0.361 OA
HETATM   17  H   UNL     1       9.654   8.199  14.809  1.00  0.00     0.217 HD
ENDBRANCH  12  16
ENDBRANCH   9  10
ENDBRANCH   3   9
ENDBRANCH   1   3
TORSDOF 7
ENDMDL
MODEL 2
REMARK VINA RESULT:      -6.6      2.591      6.593
REMARK  7 active torsions:
REMARK  status: ('A' for Active; 'I' for Inactive)
REMARK    1  A    between atoms: O_1  and  C_2 
REMARK    2  A    between atoms: C_2  and  C_3 
REMARK    3  A    between atoms: C_2  and  C_8 
REMARK    4  A    between atoms: C_3  and  C_4 
REMARK    5  A    between atoms: C_4  and  C_5 
REMARK    6  A    between atoms: C_8  and  C_9 
REMARK    7  A    between atoms: C_11  and  O_15 
ROOT
HETATM    1  O   UNL     1      11.208   8.896  13.628  1.00  0.00    -0.395 OA
HETATM    2  H   UNL     1      10.740   9.635  14.046  1.00  0.00     0.210 HD
ENDROOT
BRANCH   1   3
HETATM    3  C   UNL     1      11.118   9.018  12.209  1.00  0.00     0.122 C 
BRANCH   3   4
HETATM    4  C   UNL     1      11.006  10.500  11.819  1.00  0.00     0.042 C 
BRANCH   4   5
HETATM    5  C   UNL     1      12.066  11.384  12.479  1.00  0.00     0.116 C 
BRANCH   5   6
HETATM    6  C   UNL     1      11.887  12.871  12.308  1.00  0.00     0.172 C 
HETATM    7  O   UNL     1      10.936  13.407  11.761  1.00  0.00    -0.648 OA
HETATM    8  O   UNL     1      12.926  13.617  12.731  1.00  0.00    -0.648 OA
ENDBRANCH   5   6
ENDBRANCH   4   5
ENDBRANCH   3   4
BRANCH   3   9
HETATM    9  C   UNL     1      12.354   8.373  11.551  1.00  0.00     0.070 C 
BRANCH   9  10
HETATM   10  C   UNL     1      12.066   7.794  10.182  1.00  0.00    -0.053 A 
HETATM   11  C   UNL     1      13.041   7.831   9.174  1.00  0.00     0.043 A 
HETATM   12  C   UNL     1      12.764   7.292   7.918  1.00  0.00     0.066 A 
HETATM   13  C   UNL     1      11.529   6.716   7.645  1.00  0.00     0.036 A 
HETATM   14  C   UNL     1      10.554   6.677   8.639  1.00  0.00     0.003 A 
HETATM   15  C   UNL     1      10.821   7.212   9.901  1.00  0.00     0.007 A 
BRANCH  12  16
HETATM   16  O   UNL     1      13.690   7.310   6.917  1.00  0.00    -0.361 OA
HETATM   17  H   UNL     1      14.406   6.706   6.930  1.00  0.00     0.217 HD
ENDBRANCH  12  16
ENDBRANCH   9  10
ENDBRANCH   3   9
ENDBRANCH   1   3
TORSDOF 7
ENDMDL
MODEL 3
REMARK VINA RESULT:      -6.5      2.787      4.460
REMARK  7 active torsions:
REMARK  status: ('A' for Active; 'I' for Inactive)
REMARK    1  A    between atoms: O_1  and  C_2 
REMARK    2  A    between atoms: C_2  and  C_3 
REMARK    3  A    between atoms: C_2  and  C_8 
REMARK    4  A    between atoms: C_3  and  C_4 
REMARK    5  A    between atoms: C_4  and  C_5 
REMARK    6  A    between atoms: C_8  and  C_9 
REMARK    7  A    between atoms: C_11  and  O_15 
ROOT
HETATM    1  O   UNL     1      10.385   6.073  10.642  1.00  0.00    -0.395 OA
HETATM    2  H   UNL     1      10.057   5.165  10.546  1.00  0.00     0.210 HD
ENDROOT
BRANCH   1   3
HETATM    3  C   UNL     1      11.270   6.375   9.564  1.00  0.00     0.122 C 
BRANCH   3   4
HETATM    4  C   UNL     1      10.460   6.801   8.329  1.00  0.00     0.042 C 
BRANCH   4   5
HETATM    5  C   UNL     1      10.426   5.739   7.228  1.00  0.00     0.116 C 
BRANCH   5   6
HETATM    6  C   UNL     1      10.693   6.229   5.829  1.00  0.00     0.172 C 
HETATM    7  O   UNL     1      11.156   5.556   4.922  1.00  0.00    -0.648 OA
HETATM    8  O   UNL     1      10.467   7.545   5.639  1.00  0.00    -0.648 OA
ENDBRANCH   5   6
ENDBRANCH   4   5
ENDBRANCH   3   4
BRANCH   3   9
HETATM    9  C   UNL     1      12.245   7.491   9.988  1.00  0.00     0.070 C 
BRANCH   9  10
HETATM   10  C   UNL     1      13.670   7.235   9.546  1.00  0.00    -0.053 A 
HETATM   11  C   UNL     1      14.036   7.391   8.200  1.00  0.00     0.043 A 
HETATM   12  C   UNL     1      15.352   7.155   7.806  1.00  0.00     0.066 A 
HETATM   13  C   UNL     1      16.315   6.764   8.728  1.00  0.00     0.036 A 
HETATM   14  C   UNL     1      15.961   6.606  10.066  1.00  0.00     0.003 A 
HETATM   15  C   UNL     1      14.645   6.841  10.473  1.00  0.00     0.007 A 
BRANCH  12  16
HETATM   16  O   UNL     1      15.741   7.299   6.507  1.00  0.00    -0.361 OA
HETATM   17  H   UNL     1      16.639   7.176   6.270  1.00  0.00     0.217 HD
ENDBRANCH  12  16
ENDBRANCH   9  10
ENDBRANCH   3   9
ENDBRANCH   1   3
TORSDOF 7
ENDMDL
MODEL 4
REMARK VINA RESULT:      -6.5      2.079      6.236
REMARK  7 active torsions:
REMARK  status: ('A' for Active; 'I' for Inactive)
REMARK    1  A    between atoms: O_1  and  C_2 
REMARK    2  A    between atoms: C_2  and  C_3 
REMARK    3  A    between atoms: C_2  and  C_8 
REMARK    4  A    between atoms: C_3  and  C_4 
REMARK    5  A    between atoms: C_4  and  C_5 
REMARK    6  A    between atoms: C_8  and  C_9 
REMARK    7  A    between atoms: C_11  and  O_15 
ROOT
HETATM    1  O   UNL     1      10.395   7.323  13.064  1.00  0.00    -0.395 OA
HETATM    2  H   UNL     1      10.625   8.006  13.714  1.00  0.00     0.210 HD
ENDROOT
BRANCH   1   3
HETATM    3  C   UNL     1      10.866   7.717  11.775  1.00  0.00     0.122 C 
BRANCH   3   4
HETATM    4  C   UNL     1      11.688   9.010  11.893  1.00  0.00     0.042 C 
BRANCH   4   5
HETATM    5  C   UNL     1      10.883  10.272  11.575  1.00  0.00     0.116 C 
BRANCH   5   6
HETATM    6  C   UNL     1      11.426  11.561  12.137  1.00  0.00     0.172 C 
HETATM    7  O   UNL     1      10.978  12.673  11.909  1.00  0.00    -0.648 OA
HETATM    8  O   UNL     1      12.548  11.426  12.872  1.00  0.00    -0.648 OA
ENDBRANCH   5   6
ENDBRANCH   4   5
ENDBRANCH   3   4
BRANCH   3   9
HETATM    9  C   UNL     1      11.715   6.585  11.163  1.00  0.00     0.070 C 
BRANCH   9  10
HETATM   10  C   UNL     1      11.716   6.595   9.649  1.00  0.00    -0.053 A 
HETATM   11  C   UNL     1      12.899   6.857   8.940  1.00  0.00     0.043 A 
HETATM   12  C   UNL     1      12.887   6.860   7.546  1.00  0.00     0.066 A 
HETATM   13  C   UNL     1      11.717   6.607   6.841  1.00  0.00     0.036 A 
HETATM   14  C   UNL     1      10.538   6.347   7.536  1.00  0.00     0.003 A 
HETATM   15  C   UNL     1      10.538   6.340   8.933  1.00  0.00     0.007 A 
BRANCH  12  16
HETATM   16  O   UNL     1      14.018   7.110   6.826  1.00  0.00    -0.361 OA
HETATM   17  H   UNL     1      14.386   6.441   6.285  1.00  0.00     0.217 HD
ENDBRANCH  12  16
ENDBRANCH   9  10
ENDBRANCH   3   9
ENDBRANCH   1   3
TORSDOF 7
ENDMDL
MODEL 5
REMARK VINA RESULT:      -6.5      1.556      1.944
REMARK  7 active torsions:
REMARK  status: ('A' for Active; 'I' for Inactive)
REMARK    1  A    between atoms: O_1  and  C_2 
REMARK    2  A    between atoms: C_2  and  C_3 
REMARK    3  A    between atoms: C_2  and  C_8 
REMARK    4  A    between atoms: C_3  and  C_4 
REMARK    5  A    between atoms: C_4  and  C_5 
REMARK    6  A    between atoms: C_8  and  C_9 
REMARK    7  A    between atoms: C_11  and  O_15 
ROOT
HETATM    1  O   UNL     1      14.464   6.540   9.519  1.00  0.00    -0.395 OA
HETATM    2  H   UNL     1      14.799   6.021   8.771  1.00  0.00     0.210 HD
ENDROOT
BRANCH   1   3
HETATM    3  C   UNL     1      13.257   7.200   9.136  1.00  0.00     0.122 C 
BRANCH   3   4
HETATM    4  C   UNL     1      12.949   6.907   7.658  1.00  0.00     0.042 C 
BRANCH   4   5
HETATM    5  C   UNL     1      11.467   7.049   7.307  1.00  0.00     0.116 C 
BRANCH   5   6
HETATM    6  C   UNL     1      10.912   6.019   6.357  1.00  0.00     0.172 C 
HETATM    7  O   UNL     1      11.083   6.011   5.149  1.00  0.00    -0.648 OA
HETATM    8  O   UNL     1      10.099   5.107   6.927  1.00  0.00    -0.648 OA
ENDBRANCH   5   6
ENDBRANCH   4   5
ENDBRANCH   3   4
BRANCH   3   9
HETATM    9  C   UNL     1      12.099   6.731  10.037  1.00  0.00     0.070 C 
BRANCH   9  10
HETATM   10  C   UNL     1      11.610   7.805  10.986  1.00  0.00    -0.053 A 
HETATM   11  C   UNL     1      11.217   7.476  12.293  1.00  0.00     0.043 A 
HETATM   12  C   UNL     1      10.772   8.475  13.157  1.00  0.00     0.066 A 
HETATM   13  C   UNL     1      10.708   9.800  12.744  1.00  0.00     0.036 A 
HETATM   14  C   UNL     1      11.095  10.136  11.449  1.00  0.00     0.003 A 
HETATM   15  C   UNL     1      11.544   9.144  10.574  1.00  0.00     0.007 A 
BRANCH  12  16
HETATM   16  O   UNL     1      10.385   8.189  14.433  1.00  0.00    -0.361 OA
HETATM   17  H   UNL     1      10.170   7.310  14.671  1.00  0.00     0.217 HD
ENDBRANCH  12  16
ENDBRANCH   9  10
ENDBRANCH   3   9
ENDBRANCH   1   3
TORSDOF 7
ENDMDL
MODEL 6
REMARK VINA RESULT:      -6.5      2.155      6.106
REMARK  7 active torsions:
REMARK  status: ('A' for Active; 'I' for Inactive)
REMARK    1  A    between atoms: O_1  and  C_2 
REMARK    2  A    between atoms: C_2  and  C_3 
REMARK    3  A    between atoms: C_2  and  C_8 
REMARK    4  A    between atoms: C_3  and  C_4 
REMARK    5  A    between atoms: C_4  and  C_5 
REMARK    6  A    between atoms: C_8  and  C_9 
REMARK    7  A    between atoms: C_11  and  O_15 
ROOT
HETATM    1  O   UNL     1      10.436   8.221  14.126  1.00  0.00    -0.395 OA
HETATM    2  H   UNL     1      11.046   8.811  14.595  1.00  0.00     0.210 HD
ENDROOT
BRANCH   1   3
HETATM    3  C   UNL     1      10.720   8.258  12.728  1.00  0.00     0.122 C 
BRANCH   3   4
HETATM    4  C   UNL     1      11.690   9.410  12.422  1.00  0.00     0.042 C 
BRANCH   4   5
HETATM    5  C   UNL     1      11.018  10.609  11.751  1.00  0.00     0.116 C 
BRANCH   5   6
HETATM    6  C   UNL     1      11.487  11.968  12.205  1.00  0.00     0.172 C 
HETATM    7  O   UNL     1      10.953  13.028  11.921  1.00  0.00    -0.648 OA
HETATM    8  O   UNL     1      12.639  11.962  12.904  1.00  0.00    -0.648 OA
ENDBRANCH   5   6
ENDBRANCH   4   5
ENDBRANCH   3   4
BRANCH   3   9
HETATM    9  C   UNL     1      11.317   6.908  12.282  1.00  0.00     0.070 C 
BRANCH   9  10
HETATM   10  C   UNL     1      11.626   6.855  10.801  1.00  0.00    -0.053 A 
HETATM   11  C   UNL     1      10.588   6.840   9.857  1.00  0.00     0.043 A 
HETATM   12  C   UNL     1      10.887   6.793   8.496  1.00  0.00     0.066 A 
HETATM   13  C   UNL     1      12.203   6.759   8.055  1.00  0.00     0.036 A 
HETATM   14  C   UNL     1      13.241   6.772   8.984  1.00  0.00     0.003 A 
HETATM   15  C   UNL     1      12.954   6.820  10.350  1.00  0.00     0.007 A 
BRANCH  12  16
HETATM   16  O   UNL     1       9.902   6.779   7.553  1.00  0.00    -0.361 OA
HETATM   17  H   UNL     1       9.703   7.557   7.071  1.00  0.00     0.217 HD
ENDBRANCH  12  16
ENDBRANCH   9  10
ENDBRANCH   3   9
ENDBRANCH   1   3
TORSDOF 7
ENDMDL
MODEL 7
REMARK VINA RESULT:      -6.5      2.551      4.336
REMARK  7 active torsions:
REMARK  status: ('A' for Active; 'I' for Inactive)
REMARK    1  A    between atoms: O_1  and  C_2 
REMARK    2  A    between atoms: C_2  and  C_3 
REMARK    3  A    between atoms: C_2  and  C_8 
REMARK    4  A    between atoms: C_3  and  C_4 
REMARK    5  A    between atoms: C_4  and  C_5 
REMARK    6  A    between atoms: C_8  and  C_9 
REMARK    7  A    between atoms: C_11  and  O_15 
ROOT
HETATM    1  O   UNL     1       9.392   7.335   9.512  1.00  0.00    -0.395 OA
HETATM    2  H   UNL     1       8.793   6.583   9.637  1.00  0.00     0.210 HD
ENDROOT
BRANCH   1   3
HETATM    3  C   UNL     1      10.744   6.877   9.544  1.00  0.00     0.122 C 
BRANCH   3   4
HETATM    4  C   UNL     1      10.941   5.763   8.503  1.00  0.00     0.042 C 
BRANCH   4   5
HETATM    5  C   UNL     1      10.033   5.907   7.280  1.00  0.00     0.116 C 
BRANCH   5   6
HETATM    6  C   UNL     1      10.667   6.518   6.056  1.00  0.00     0.172 C 
HETATM    7  O   UNL     1      10.730   7.713   5.817  1.00  0.00    -0.648 OA
HETATM    8  O   UNL     1      11.105   5.627   5.144  1.00  0.00    -0.648 OA
ENDBRANCH   5   6
ENDBRANCH   4   5
ENDBRANCH   3   4
BRANCH   3   9
HETATM    9  C   UNL     1      11.700   8.055   9.271  1.00  0.00     0.070 C 
BRANCH   9  10
HETATM   10  C   UNL     1      13.145   7.627   9.129  1.00  0.00    -0.053 A 
HETATM   11  C   UNL     1      13.781   7.671   7.878  1.00  0.00     0.043 A 
HETATM   12  C   UNL     1      15.113   7.277   7.761  1.00  0.00     0.066 A 
HETATM   13  C   UNL     1      15.827   6.837   8.868  1.00  0.00     0.036 A 
HETATM   14  C   UNL     1      15.204   6.788  10.113  1.00  0.00     0.003 A 
HETATM   15  C   UNL     1      13.871   7.182  10.243  1.00  0.00     0.007 A 
BRANCH  12  16
HETATM   16  O   UNL     1      15.760   7.310   6.562  1.00  0.00    -0.361 OA
HETATM   17  H   UNL     1      16.611   6.927   6.478  1.00  0.00     0.217 HD
ENDBRANCH  12  16
ENDBRANCH   9  10
ENDBRANCH   3   9
ENDBRANCH   1   3
TORSDOF 7
ENDMDL
MODEL 8
REMARK VINA RESULT:      -6.4      2.624      5.825
REMARK  7 active torsions:
REMARK  status: ('A' for Active; 'I' for Inactive)
REMARK    1  A    between atoms: O_1  and  C_2 
REMARK    2  A    between atoms: C_2  and  C_3 
REMARK    3  A    between atoms: C_2  and  C_8 
REMARK    4  A    between atoms: C_3  and  C_4 
REMARK    5  A    between atoms: C_4  and  C_5 
REMARK    6  A    between atoms: C_8  and  C_9 
REMARK    7  A    between atoms: C_11  and  O_15 
ROOT
HETATM    1  O   UNL     1       9.546   7.033   9.412  1.00  0.00    -0.395 OA
HETATM    2  H   UNL     1       9.618   7.034   8.445  1.00  0.00     0.210 HD
ENDROOT
BRANCH   1   3
HETATM    3  C   UNL     1      10.731   7.592   9.978  1.00  0.00     0.122 C 
BRANCH   3   4
HETATM    4  C   UNL     1      10.365   8.496  11.166  1.00  0.00     0.042 C 
BRANCH   4   5
HETATM    5  C   UNL     1      11.013   9.881  11.098  1.00  0.00     0.116 C 
BRANCH   5   6
HETATM    6  C   UNL     1      12.144  10.128  12.063  1.00  0.00     0.172 C 
HETATM    7  O   UNL     1      12.929   9.281  12.461  1.00  0.00    -0.648 OA
HETATM    8  O   UNL     1      12.197  11.379  12.562  1.00  0.00    -0.648 OA
ENDBRANCH   5   6
ENDBRANCH   4   5
ENDBRANCH   3   4
BRANCH   3   9
HETATM    9  C   UNL     1      11.678   6.462  10.424  1.00  0.00     0.070 C 
BRANCH   9  10
HETATM   10  C   UNL     1      13.098   6.646   9.933  1.00  0.00    -0.053 A 
HETATM   11  C   UNL     1      13.356   6.886   8.574  1.00  0.00     0.043 A 
HETATM   12  C   UNL     1      14.668   7.057   8.135  1.00  0.00     0.066 A 
HETATM   13  C   UNL     1      15.733   6.992   9.024  1.00  0.00     0.036 A 
HETATM   14  C   UNL     1      15.487   6.753  10.375  1.00  0.00     0.003 A 
HETATM   15  C   UNL     1      14.177   6.582  10.827  1.00  0.00     0.007 A 
BRANCH  12  16
HETATM   16  O   UNL     1      14.952   7.292   6.822  1.00  0.00    -0.361 OA
HETATM   17  H   UNL     1      15.627   6.804   6.394  1.00  0.00     0.217 HD
ENDBRANCH  12  16
ENDBRANCH   9  10
ENDBRANCH   3   9
ENDBRANCH   1   3
TORSDOF 7
ENDMDL
MODEL 9
REMARK VINA RESULT:      -6.3      2.087      2.703
REMARK  7 active torsions:
REMARK  status: ('A' for Active; 'I' for Inactive)
REMARK    1  A    between atoms: O_1  and  C_2 
REMARK    2  A    between atoms: C_2  and  C_3 
REMARK    3  A    between atoms: C_2  and  C_8 
REMARK    4  A    between atoms: C_3  and  C_4 
REMARK    5  A    between atoms: C_4  and  C_5 
REMARK    6  A    between atoms: C_8  and  C_9 
REMARK    7  A    between atoms: C_11  and  O_15 
ROOT
HETATM    1  O   UNL     1      15.020   8.320   7.797  1.00  0.00    -0.395 OA
HETATM    2  H   UNL     1      15.208   9.263   7.923  1.00  0.00     0.210 HD
ENDROOT
BRANCH   1   3
HETATM    3  C   UNL     1      13.666   8.053   8.160  1.00  0.00     0.122 C 
BRANCH   3   4
HETATM    4  C   UNL     1      13.091   6.949   7.258  1.00  0.00     0.042 C 
BRANCH   4   5
HETATM    5  C   UNL     1      11.570   7.020   7.104  1.00  0.00     0.116 C 
BRANCH   5   6
HETATM    6  C   UNL     1      10.934   5.905   6.316  1.00  0.00     0.172 C 
HETATM    7  O   UNL     1      10.120   5.107   6.755  1.00  0.00    -0.648 OA
HETATM    8  O   UNL     1      11.398   5.766   5.058  1.00  0.00    -0.648 OA
ENDBRANCH   5   6
ENDBRANCH   4   5
ENDBRANCH   3   4
BRANCH   3   9
HETATM    9  C   UNL     1      13.597   7.636   9.643  1.00  0.00     0.070 C 
BRANCH   9  10
HETATM   10  C   UNL     1      12.601   8.448  10.444  1.00  0.00    -0.053 A 
HETATM   11  C   UNL     1      13.044   9.379  11.396  1.00  0.00     0.043 A 
HETATM   12  C   UNL     1      12.117  10.122  12.125  1.00  0.00     0.066 A 
HETATM   13  C   UNL     1      10.752   9.955  11.925  1.00  0.00     0.036 A 
HETATM   14  C   UNL     1      10.303   9.032  10.983  1.00  0.00     0.003 A 
HETATM   15  C   UNL     1      11.223   8.283  10.245  1.00  0.00     0.007 A 
BRANCH  12  16
HETATM   16  O   UNL     1      12.513  11.036  13.056  1.00  0.00    -0.361 OA
HETATM   17  H   UNL     1      12.886  11.851  12.784  1.00  0.00     0.217 HD
ENDBRANCH  12  16
ENDBRANCH   9  10
ENDBRANCH   3   9
ENDBRANCH   1   3
TORSDOF 7
ENDMDL
