MODEL 1
REMARK VINA RESULT:      -8.7      0.000      0.000
REMARK  6 active torsions:
REMARK  status: ('A' for Active; 'I' for Inactive)
REMARK    1  A    between atoms: O_1  and  C_8 
REMARK    2  A    between atoms: O_2  and  C_11 
REMARK    3  A    between atoms: O_3  and  C_13 
REMARK    4  A    between atoms: C_6  and  C_7 
REMARK    5  A    between atoms: C_6  and  C_8 
REMARK    6  A    between atoms: C_8  and  C_14 
ROOT
HETATM    1  O   UNL     1     -54.458  51.286   8.141  1.00  0.00    -0.385 OA
HETATM    2  H   UNL     1     -54.137  52.196   8.044  1.00  0.00     0.210 HD
ENDROOT
BRANCH   1   3
HETATM    3  C   UNL     1     -54.670  51.003   9.518  1.00  0.00     0.223 C 
BRANCH   3   4
HETATM    4  C   UNL     1     -54.020  49.648   9.844  1.00  0.00     0.081 C 
BRANCH   4   5
HETATM    5  C   UNL     1     -54.894  48.492   9.496  1.00  0.00    -0.052 A 
HETATM    6  C   UNL     1     -54.329  47.247   9.221  1.00  0.00     0.046 A 
HETATM    7  C   UNL     1     -55.147  46.165   8.895  1.00  0.00     0.099 A 
HETATM    8  C   UNL     1     -56.531  46.329   8.844  1.00  0.00     0.098 A 
HETATM    9  C   UNL     1     -57.097  47.575   9.119  1.00  0.00     0.040 A 
HETATM   10  C   UNL     1     -56.279  48.656   9.445  1.00  0.00     0.010 A 
BRANCH   7  11
HETATM   11  O   UNL     1     -54.583  44.955   8.629  1.00  0.00    -0.358 OA
HETATM   12  H   UNL     1     -55.035  44.336   8.092  1.00  0.00     0.217 HD
ENDBRANCH   7  11
BRANCH   8  13
HETATM   13  O   UNL     1     -57.341  45.280   8.528  1.00  0.00    -0.358 OA
HETATM   14  H   UNL     1     -58.166  45.433   8.111  1.00  0.00     0.217 HD
ENDBRANCH   8  13
ENDBRANCH   4   5
ENDBRANCH   3   4
BRANCH   3  15
HETATM   15  C   UNL     1     -54.040  52.125  10.318  1.00  0.00     0.203 C 
HETATM   16  O   UNL     1     -53.625  53.147   9.526  1.00  0.00    -0.646 OA
HETATM   17  O   UNL     1     -53.896  52.122  11.533  1.00  0.00    -0.646 OA
ENDBRANCH   3  15
ENDBRANCH   1   3
TORSDOF 6
ENDMDL
MODEL 2
REMARK VINA RESULT:      -8.5      0.869      2.309
REMARK  6 active torsions:
REMARK  status: ('A' for Active; 'I' for Inactive)
REMARK    1  A    between atoms: O_1  and  C_8 
REMARK    2  A    between atoms: O_2  and  C_11 
REMARK    3  A    between atoms: O_3  and  C_13 
REMARK    4  A    between atoms: C_6  and  C_7 
REMARK    5  A    between atoms: C_6  and  C_8 
REMARK    6  A    between atoms: C_8  and  C_14 
ROOT
HETATM    1  O   UNL     1     -54.567  50.924  11.294  1.00  0.00    -0.385 OA
HETATM    2  H   UNL     1     -54.530  50.194  11.931  1.00  0.00     0.210 HD
ENDROOT
BRANCH   1   3
HETATM    3  C   UNL     1     -54.428  50.409   9.975  1.00  0.00     0.223 C 
BRANCH   3   4
HETATM    4  C   UNL     1     -55.669  49.562   9.648  1.00  0.00     0.081 C 
BRANCH   4   5
HETATM    5  C   UNL     1     -55.329  48.154   9.297  1.00  0.00    -0.052 A 
HETATM    6  C   UNL     1     -56.327  47.283   8.861  1.00  0.00     0.046 A 
HETATM    7  C   UNL     1     -56.008  45.964   8.534  1.00  0.00     0.099 A 
HETATM    8  C   UNL     1     -54.692  45.518   8.643  1.00  0.00     0.098 A 
HETATM    9  C   UNL     1     -53.693  46.389   9.080  1.00  0.00     0.040 A 
HETATM   10  C   UNL     1     -54.012  47.707   9.407  1.00  0.00     0.010 A 
BRANCH   7  11
HETATM   11  O   UNL     1     -56.991  45.124   8.109  1.00  0.00    -0.358 OA
HETATM   12  H   UNL     1     -56.831  44.539   7.396  1.00  0.00     0.217 HD
ENDBRANCH   7  11
BRANCH   8  13
HETATM   13  O   UNL     1     -54.368  44.233   8.325  1.00  0.00    -0.358 OA
HETATM   14  H   UNL     1     -54.658  43.528   8.870  1.00  0.00     0.217 HD
ENDBRANCH   8  13
ENDBRANCH   4   5
ENDBRANCH   3   4
BRANCH   3  15
HETATM   15  C   UNL     1     -54.301  51.589   9.034  1.00  0.00     0.203 C 
HETATM   16  O   UNL     1     -53.757  52.674   9.645  1.00  0.00    -0.646 OA
HETATM   17  O   UNL     1     -54.656  51.592   7.864  1.00  0.00    -0.646 OA
ENDBRANCH   3  15
ENDBRANCH   1   3
TORSDOF 6
ENDMDL
MODEL 3
REMARK VINA RESULT:      -8.3      1.810      3.123
REMARK  6 active torsions:
REMARK  status: ('A' for Active; 'I' for Inactive)
REMARK    1  A    between atoms: O_1  and  C_8 
REMARK    2  A    between atoms: O_2  and  C_11 
REMARK    3  A    between atoms: O_3  and  C_13 
REMARK    4  A    between atoms: C_6  and  C_7 
REMARK    5  A    between atoms: C_6  and  C_8 
REMARK    6  A    between atoms: C_8  and  C_14 
ROOT
HETATM    1  O   UNL     1     -55.172  48.906   8.002  1.00  0.00    -0.385 OA
HETATM    2  H   UNL     1     -56.021  48.475   7.820  1.00  0.00     0.210 HD
ENDROOT
BRANCH   1   3
HETATM    3  C   UNL     1     -55.187  49.445   9.319  1.00  0.00     0.223 C 
BRANCH   3   4
HETATM    4  C   UNL     1     -54.460  48.467  10.256  1.00  0.00     0.081 C 
BRANCH   4   5
HETATM    5  C   UNL     1     -53.736  47.394   9.517  1.00  0.00    -0.052 A 
HETATM    6  C   UNL     1     -54.377  46.187   9.233  1.00  0.00     0.046 A 
HETATM    7  C   UNL     1     -53.699  45.183   8.542  1.00  0.00     0.099 A 
HETATM    8  C   UNL     1     -52.381  45.385   8.135  1.00  0.00     0.098 A 
HETATM    9  C   UNL     1     -51.739  46.591   8.419  1.00  0.00     0.040 A 
HETATM   10  C   UNL     1     -52.417  47.595   9.110  1.00  0.00     0.010 A 
BRANCH   7  11
HETATM   11  O   UNL     1     -54.335  44.010   8.271  1.00  0.00    -0.358 OA
HETATM   12  H   UNL     1     -54.728  43.874   7.432  1.00  0.00     0.217 HD
ENDBRANCH   7  11
BRANCH   8  13
HETATM   13  O   UNL     1     -51.709  44.412   7.458  1.00  0.00    -0.358 OA
HETATM   14  H   UNL     1     -51.690  44.420   6.521  1.00  0.00     0.217 HD
ENDBRANCH   8  13
ENDBRANCH   4   5
ENDBRANCH   3   4
BRANCH   3  15
HETATM   15  C   UNL     1     -54.487  50.788   9.271  1.00  0.00     0.203 C 
HETATM   16  O   UNL     1     -53.863  51.082  10.440  1.00  0.00    -0.646 OA
HETATM   17  O   UNL     1     -54.487  51.543   8.307  1.00  0.00    -0.646 OA
ENDBRANCH   3  15
ENDBRANCH   1   3
TORSDOF 6
ENDMDL
MODEL 4
REMARK VINA RESULT:      -8.0      2.068      3.135
REMARK  6 active torsions:
REMARK  status: ('A' for Active; 'I' for Inactive)
REMARK    1  A    between atoms: O_1  and  C_8 
REMARK    2  A    between atoms: O_2  and  C_11 
REMARK    3  A    between atoms: O_3  and  C_13 
REMARK    4  A    between atoms: C_6  and  C_7 
REMARK    5  A    between atoms: C_6  and  C_8 
REMARK    6  A    between atoms: C_8  and  C_14 
ROOT
HETATM    1  O   UNL     1     -55.171  48.819   8.046  1.00  0.00    -0.385 OA
HETATM    2  H   UNL     1     -55.820  48.122   8.226  1.00  0.00     0.210 HD
ENDROOT
BRANCH   1   3
HETATM    3  C   UNL     1     -54.440  49.103   9.233  1.00  0.00     0.223 C 
BRANCH   3   4
HETATM    4  C   UNL     1     -53.087  48.375   9.160  1.00  0.00     0.081 C 
BRANCH   4   5
HETATM    5  C   UNL     1     -53.165  46.968   9.643  1.00  0.00    -0.052 A 
HETATM    6  C   UNL     1     -53.539  45.948   8.767  1.00  0.00     0.046 A 
HETATM    7  C   UNL     1     -53.612  44.631   9.220  1.00  0.00     0.099 A 
HETATM    8  C   UNL     1     -53.312  44.333  10.549  1.00  0.00     0.098 A 
HETATM    9  C   UNL     1     -52.939  45.352  11.426  1.00  0.00     0.040 A 
HETATM   10  C   UNL     1     -52.865  46.669  10.973  1.00  0.00     0.010 A 
BRANCH   7  11
HETATM   11  O   UNL     1     -53.977  43.645   8.355  1.00  0.00    -0.358 OA
HETATM   12  H   UNL     1     -53.498  42.841   8.332  1.00  0.00     0.217 HD
ENDBRANCH   7  11
BRANCH   8  13
HETATM   13  O   UNL     1     -53.378  43.050  11.003  1.00  0.00    -0.358 OA
HETATM   14  H   UNL     1     -53.633  42.360  10.421  1.00  0.00     0.217 HD
ENDBRANCH   8  13
ENDBRANCH   4   5
ENDBRANCH   3   4
BRANCH   3  15
HETATM   15  C   UNL     1     -54.256  50.605   9.308  1.00  0.00     0.203 C 
HETATM   16  O   UNL     1     -53.910  51.017  10.554  1.00  0.00    -0.646 OA
HETATM   17  O   UNL     1     -54.413  51.376   8.371  1.00  0.00    -0.646 OA
ENDBRANCH   3  15
ENDBRANCH   1   3
TORSDOF 6
ENDMDL
MODEL 5
REMARK VINA RESULT:      -7.8      1.827      2.706
REMARK  6 active torsions:
REMARK  status: ('A' for Active; 'I' for Inactive)
REMARK    1  A    between atoms: O_1  and  C_8 
REMARK    2  A    between atoms: O_2  and  C_11 
REMARK    3  A    between atoms: O_3  and  C_13 
REMARK    4  A    between atoms: C_6  and  C_7 
REMARK    5  A    between atoms: C_6  and  C_8 
REMARK    6  A    between atoms: C_8  and  C_14 
ROOT
HETATM    1  O   UNL     1     -55.036  49.057   8.037  1.00  0.00    -0.385 OA
HETATM    2  H   UNL     1     -54.288  48.713   7.524  1.00  0.00     0.210 HD
ENDROOT
BRANCH   1   3
HETATM    3  C   UNL     1     -54.592  49.415   9.340  1.00  0.00     0.223 C 
BRANCH   3   4
HETATM    4  C   UNL     1     -53.339  48.588   9.674  1.00  0.00     0.081 C 
BRANCH   4   5
HETATM    5  C   UNL     1     -53.455  47.168   9.236  1.00  0.00    -0.052 A 
HETATM    6  C   UNL     1     -52.327  46.483   8.783  1.00  0.00     0.046 A 
HETATM    7  C   UNL     1     -52.436  45.154   8.372  1.00  0.00     0.099 A 
HETATM    8  C   UNL     1     -53.672  44.510   8.416  1.00  0.00     0.098 A 
HETATM    9  C   UNL     1     -54.800  45.195   8.868  1.00  0.00     0.040 A 
HETATM   10  C   UNL     1     -54.691  46.523   9.279  1.00  0.00     0.010 A 
BRANCH   7  11
HETATM   11  O   UNL     1     -51.328  44.497   7.933  1.00  0.00    -0.358 OA
HETATM   12  H   UNL     1     -51.147  44.445   7.015  1.00  0.00     0.217 HD
ENDBRANCH   7  11
BRANCH   8  13
HETATM   13  O   UNL     1     -53.790  43.212   8.019  1.00  0.00    -0.358 OA
HETATM   14  H   UNL     1     -54.524  42.945   7.500  1.00  0.00     0.217 HD
ENDBRANCH   8  13
ENDBRANCH   4   5
ENDBRANCH   3   4
BRANCH   3  15
HETATM   15  C   UNL     1     -54.287  50.899   9.327  1.00  0.00     0.203 C 
HETATM   16  O   UNL     1     -53.849  51.342  10.533  1.00  0.00    -0.646 OA
HETATM   17  O   UNL     1     -54.428  51.633   8.358  1.00  0.00    -0.646 OA
ENDBRANCH   3  15
ENDBRANCH   1   3
TORSDOF 6
ENDMDL
MODEL 6
REMARK VINA RESULT:      -7.3      2.943      6.426
REMARK  6 active torsions:
REMARK  status: ('A' for Active; 'I' for Inactive)
REMARK    1  A    between atoms: O_1  and  C_8 
REMARK    2  A    between atoms: O_2  and  C_11 
REMARK    3  A    between atoms: O_3  and  C_13 
REMARK    4  A    between atoms: C_6  and  C_7 
REMARK    5  A    between atoms: C_6  and  C_8 
REMARK    6  A    between atoms: C_8  and  C_14 
ROOT
HETATM    1  O   UNL     1     -52.866  45.021   6.867  1.00  0.00    -0.385 OA
HETATM    2  H   UNL     1     -52.043  44.584   7.136  1.00  0.00     0.210 HD
ENDROOT
BRANCH   1   3
HETATM    3  C   UNL     1     -53.977  44.279   7.355  1.00  0.00     0.223 C 
BRANCH   3   4
HETATM    4  C   UNL     1     -54.863  45.219   8.190  1.00  0.00     0.081 C 
BRANCH   4   5
HETATM    5  C   UNL     1     -54.129  45.843   9.327  1.00  0.00    -0.052 A 
HETATM    6  C   UNL     1     -54.061  47.232   9.437  1.00  0.00     0.046 A 
HETATM    7  C   UNL     1     -53.373  47.815  10.501  1.00  0.00     0.099 A 
HETATM    8  C   UNL     1     -52.752  47.009  11.455  1.00  0.00     0.098 A 
HETATM    9  C   UNL     1     -52.819  45.620  11.345  1.00  0.00     0.040 A 
HETATM   10  C   UNL     1     -53.507  45.037  10.281  1.00  0.00     0.010 A 
BRANCH   7  11
HETATM   11  O   UNL     1     -53.315  49.172  10.597  1.00  0.00    -0.358 OA
HETATM   12  H   UNL     1     -52.813  49.572  11.279  1.00  0.00     0.217 HD
ENDBRANCH   7  11
BRANCH   8  13
HETATM   13  O   UNL     1     -52.078  47.567  12.499  1.00  0.00    -0.358 OA
HETATM   14  H   UNL     1     -51.405  48.199  12.338  1.00  0.00     0.217 HD
ENDBRANCH   8  13
ENDBRANCH   4   5
ENDBRANCH   3   4
BRANCH   3  15
HETATM   15  C   UNL     1     -54.726  43.735   6.156  1.00  0.00     0.203 C 
HETATM   16  O   UNL     1     -54.554  44.507   5.052  1.00  0.00    -0.646 OA
HETATM   17  O   UNL     1     -55.424  42.730   6.164  1.00  0.00    -0.646 OA
ENDBRANCH   3  15
ENDBRANCH   1   3
TORSDOF 6
ENDMDL
MODEL 7
REMARK VINA RESULT:      -7.2      2.909      3.954
REMARK  6 active torsions:
REMARK  status: ('A' for Active; 'I' for Inactive)
REMARK    1  A    between atoms: O_1  and  C_8 
REMARK    2  A    between atoms: O_2  and  C_11 
REMARK    3  A    between atoms: O_3  and  C_13 
REMARK    4  A    between atoms: C_6  and  C_7 
REMARK    5  A    between atoms: C_6  and  C_8 
REMARK    6  A    between atoms: C_8  and  C_14 
ROOT
HETATM    1  O   UNL     1     -55.118  48.869   8.068  1.00  0.00    -0.385 OA
HETATM    2  H   UNL     1     -54.762  49.371   7.319  1.00  0.00     0.210 HD
ENDROOT
BRANCH   1   3
HETATM    3  C   UNL     1     -54.280  49.053   9.203  1.00  0.00     0.223 C 
BRANCH   3   4
HETATM    4  C   UNL     1     -52.904  48.438   8.899  1.00  0.00     0.081 C 
BRANCH   4   5
HETATM    5  C   UNL     1     -52.581  47.285   9.786  1.00  0.00    -0.052 A 
HETATM    6  C   UNL     1     -52.792  47.382  11.162  1.00  0.00     0.046 A 
HETATM    7  C   UNL     1     -52.489  46.303  11.993  1.00  0.00     0.099 A 
HETATM    8  C   UNL     1     -51.976  45.126  11.447  1.00  0.00     0.098 A 
HETATM    9  C   UNL     1     -51.765  45.029  10.072  1.00  0.00     0.040 A 
HETATM   10  C   UNL     1     -52.068  46.107   9.242  1.00  0.00     0.010 A 
BRANCH   7  11
HETATM   11  O   UNL     1     -52.700  46.410  13.333  1.00  0.00    -0.358 OA
HETATM   12  H   UNL     1     -52.485  47.205  13.779  1.00  0.00     0.217 HD
ENDBRANCH   7  11
BRANCH   8  13
HETATM   13  O   UNL     1     -51.678  44.065  12.248  1.00  0.00    -0.358 OA
HETATM   14  H   UNL     1     -52.364  43.606  12.693  1.00  0.00     0.217 HD
ENDBRANCH   8  13
ENDBRANCH   4   5
ENDBRANCH   3   4
BRANCH   3  15
HETATM   15  C   UNL     1     -54.175  50.543   9.456  1.00  0.00     0.203 C 
HETATM   16  O   UNL     1     -54.451  51.272   8.344  1.00  0.00    -0.646 OA
HETATM   17  O   UNL     1     -53.862  51.050  10.525  1.00  0.00    -0.646 OA
ENDBRANCH   3  15
ENDBRANCH   1   3
TORSDOF 6
ENDMDL
MODEL 8
REMARK VINA RESULT:      -7.1      1.383      2.148
REMARK  6 active torsions:
REMARK  status: ('A' for Active; 'I' for Inactive)
REMARK    1  A    between atoms: O_1  and  C_8 
REMARK    2  A    between atoms: O_2  and  C_11 
REMARK    3  A    between atoms: O_3  and  C_13 
REMARK    4  A    between atoms: C_6  and  C_7 
REMARK    5  A    between atoms: C_6  and  C_8 
REMARK    6  A    between atoms: C_8  and  C_14 
ROOT
HETATM    1  O   UNL     1     -54.220  51.292  11.133  1.00  0.00    -0.385 OA
HETATM    2  H   UNL     1     -53.414  51.830  11.170  1.00  0.00     0.210 HD
ENDROOT
BRANCH   1   3
HETATM    3  C   UNL     1     -54.092  50.317  10.105  1.00  0.00     0.223 C 
BRANCH   3   4
HETATM    4  C   UNL     1     -55.353  49.437  10.106  1.00  0.00     0.081 C 
BRANCH   4   5
HETATM    5  C   UNL     1     -55.096  48.065   9.586  1.00  0.00    -0.052 A 
HETATM    6  C   UNL     1     -53.838  47.483   9.742  1.00  0.00     0.046 A 
HETATM    7  C   UNL     1     -53.598  46.198   9.255  1.00  0.00     0.099 A 
HETATM    8  C   UNL     1     -54.616  45.495   8.611  1.00  0.00     0.098 A 
HETATM    9  C   UNL     1     -55.874  46.077   8.454  1.00  0.00     0.040 A 
HETATM   10  C   UNL     1     -56.114  47.361   8.942  1.00  0.00     0.010 A 
BRANCH   7  11
HETATM   11  O   UNL     1     -52.366  45.641   9.414  1.00  0.00    -0.358 OA
HETATM   12  H   UNL     1     -51.801  45.942  10.098  1.00  0.00     0.217 HD
ENDBRANCH   7  11
BRANCH   8  13
HETATM   13  O   UNL     1     -54.394  44.239   8.132  1.00  0.00    -0.358 OA
HETATM   14  H   UNL     1     -53.886  43.630   8.632  1.00  0.00     0.217 HD
ENDBRANCH   8  13
ENDBRANCH   4   5
ENDBRANCH   3   4
BRANCH   3  15
HETATM   15  C   UNL     1     -53.935  51.056   8.791  1.00  0.00     0.203 C 
HETATM   16  O   UNL     1     -52.707  50.870   8.243  1.00  0.00    -0.646 OA
HETATM   17  O   UNL     1     -54.796  51.758   8.277  1.00  0.00    -0.646 OA
ENDBRANCH   3  15
ENDBRANCH   1   3
TORSDOF 6
ENDMDL
MODEL 9
REMARK VINA RESULT:      -7.1      2.624      5.950
REMARK  6 active torsions:
REMARK  status: ('A' for Active; 'I' for Inactive)
REMARK    1  A    between atoms: O_1  and  C_8 
REMARK    2  A    between atoms: O_2  and  C_11 
REMARK    3  A    between atoms: O_3  and  C_13 
REMARK    4  A    between atoms: C_6  and  C_7 
REMARK    5  A    between atoms: C_6  and  C_8 
REMARK    6  A    between atoms: C_8  and  C_14 
ROOT
HETATM    1  O   UNL     1     -52.434  45.377   6.903  1.00  0.00    -0.385 OA
HETATM    2  H   UNL     1     -52.948  46.122   7.251  1.00  0.00     0.210 HD
ENDROOT
BRANCH   1   3
HETATM    3  C   UNL     1     -53.063  44.155   7.271  1.00  0.00     0.223 C 
BRANCH   3   4
HETATM    4  C   UNL     1     -53.636  44.308   8.690  1.00  0.00     0.081 C 
BRANCH   4   5
HETATM    5  C   UNL     1     -54.214  45.660   8.933  1.00  0.00    -0.052 A 
HETATM    6  C   UNL     1     -53.468  46.627   9.607  1.00  0.00     0.046 A 
HETATM    7  C   UNL     1     -54.009  47.892   9.836  1.00  0.00     0.099 A 
HETATM    8  C   UNL     1     -55.297  48.190   9.390  1.00  0.00     0.098 A 
HETATM    9  C   UNL     1     -56.043  47.223   8.716  1.00  0.00     0.040 A 
HETATM   10  C   UNL     1     -55.502  45.959   8.488  1.00  0.00     0.010 A 
BRANCH   7  11
HETATM   11  O   UNL     1     -53.271  48.827  10.494  1.00  0.00    -0.358 OA
HETATM   12  H   UNL     1     -53.500  49.075  11.368  1.00  0.00     0.217 HD
ENDBRANCH   7  11
BRANCH   8  13
HETATM   13  O   UNL     1     -55.835  49.423   9.606  1.00  0.00    -0.358 OA
HETATM   14  H   UNL     1     -55.532  49.948  10.320  1.00  0.00     0.217 HD
ENDBRANCH   8  13
ENDBRANCH   4   5
ENDBRANCH   3   4
BRANCH   3  15
HETATM   15  C   UNL     1     -54.157  43.881   6.259  1.00  0.00     0.203 C 
HETATM   16  O   UNL     1     -54.927  42.820   6.612  1.00  0.00    -0.646 OA
HETATM   17  O   UNL     1     -54.332  44.518   5.229  1.00  0.00    -0.646 OA
ENDBRANCH   3  15
ENDBRANCH   1   3
TORSDOF 6
ENDMDL
