MODEL 1
REMARK VINA RESULT:     -18.0      0.000      0.000
REMARK  6 active torsions:
REMARK  status: ('A' for Active; 'I' for Inactive)
REMARK    1  A    between atoms: O_1  and  C_8 
REMARK    2  A    between atoms: O_2  and  C_11 
REMARK    3  A    between atoms: O_3  and  C_13 
REMARK    4  A    between atoms: C_6  and  C_7 
REMARK    5  A    between atoms: C_6  and  C_8 
REMARK    6  A    between atoms: C_8  and  C_14 
ROOT
HETATM    1  O   UNL     1     -52.712  48.921   7.175  1.00  0.00    -0.385 OA
HETATM    2  H   UNL     1     -51.818  48.548   7.215  1.00  0.00     0.210 HD
ENDROOT
BRANCH   1   3
HETATM    3  C   UNL     1     -53.473  48.444   8.278  1.00  0.00     0.223 C 
BRANCH   3   4
HETATM    4  C   UNL     1     -54.328  49.602   8.819  1.00  0.00     0.081 C 
BRANCH   4   5
HETATM    5  C   UNL     1     -54.040  49.910  10.248  1.00  0.00    -0.052 A 
HETATM    6  C   UNL     1     -53.975  51.236  10.677  1.00  0.00     0.046 A 
HETATM    7  C   UNL     1     -53.704  51.524  12.015  1.00  0.00     0.099 A 
HETATM    8  C   UNL     1     -53.500  50.487  12.924  1.00  0.00     0.098 A 
HETATM    9  C   UNL     1     -53.564  49.161  12.495  1.00  0.00     0.040 A 
HETATM   10  C   UNL     1     -53.834  48.872  11.158  1.00  0.00     0.010 A 
BRANCH   7  11
HETATM   11  O   UNL     1     -53.644  52.822  12.421  1.00  0.00    -0.358 OA
HETATM   12  H   UNL     1     -54.260  53.446  12.090  1.00  0.00     0.217 HD
ENDBRANCH   7  11
BRANCH   8  13
HETATM   13  O   UNL     1     -53.236  50.756  14.233  1.00  0.00    -0.358 OA
HETATM   14  H   UNL     1     -52.365  50.660  14.566  1.00  0.00     0.217 HD
ENDBRANCH   8  13
ENDBRANCH   4   5
ENDBRANCH   3   4
BRANCH   3  15
HETATM   15  C   UNL     1     -54.338  47.305   7.778  1.00  0.00     0.203 C 
HETATM   16  O   UNL     1     -55.471  47.161   8.512  1.00  0.00    -0.646 OA
HETATM   17  O   UNL     1     -54.059  46.576   6.835  1.00  0.00    -0.646 OA
ENDBRANCH   3  15
ENDBRANCH   1   3
TORSDOF 6
ENDMDL
MODEL 2
REMARK VINA RESULT:     -17.9      1.021      1.923
REMARK  6 active torsions:
REMARK  status: ('A' for Active; 'I' for Inactive)
REMARK    1  A    between atoms: O_1  and  C_8 
REMARK    2  A    between atoms: O_2  and  C_11 
REMARK    3  A    between atoms: O_3  and  C_13 
REMARK    4  A    between atoms: C_6  and  C_7 
REMARK    5  A    between atoms: C_6  and  C_8 
REMARK    6  A    between atoms: C_8  and  C_14 
ROOT
HETATM    1  O   UNL     1     -52.720  49.228   7.465  1.00  0.00    -0.385 OA
HETATM    2  H   UNL     1     -53.319  49.338   6.711  1.00  0.00     0.210 HD
ENDROOT
BRANCH   1   3
HETATM    3  C   UNL     1     -53.446  48.718   8.577  1.00  0.00     0.223 C 
BRANCH   3   4
HETATM    4  C   UNL     1     -54.216  49.877   9.231  1.00  0.00     0.081 C 
BRANCH   4   5
HETATM    5  C   UNL     1     -53.912  50.024  10.682  1.00  0.00    -0.052 A 
HETATM    6  C   UNL     1     -53.549  48.907  11.435  1.00  0.00     0.046 A 
HETATM    7  C   UNL     1     -53.264  49.044  12.794  1.00  0.00     0.099 A 
HETATM    8  C   UNL     1     -53.342  50.298  13.399  1.00  0.00     0.098 A 
HETATM    9  C   UNL     1     -53.706  51.415  12.646  1.00  0.00     0.040 A 
HETATM   10  C   UNL     1     -53.990  51.278  11.288  1.00  0.00     0.010 A 
BRANCH   7  11
HETATM   11  O   UNL     1     -52.911  47.947  13.518  1.00  0.00    -0.358 OA
HETATM   12  H   UNL     1     -53.570  47.435  13.944  1.00  0.00     0.217 HD
ENDBRANCH   7  11
BRANCH   8  13
HETATM   13  O   UNL     1     -53.065  50.445  14.725  1.00  0.00    -0.358 OA
HETATM   14  H   UNL     1     -53.633  50.065  15.367  1.00  0.00     0.217 HD
ENDBRANCH   8  13
ENDBRANCH   4   5
ENDBRANCH   3   4
BRANCH   3  15
HETATM   15  C   UNL     1     -54.389  47.652   8.056  1.00  0.00     0.203 C 
HETATM   16  O   UNL     1     -55.438  47.444   8.893  1.00  0.00    -0.646 OA
HETATM   17  O   UNL     1     -54.232  47.027   7.016  1.00  0.00    -0.646 OA
ENDBRANCH   3  15
ENDBRANCH   1   3
TORSDOF 6
ENDMDL
MODEL 3
REMARK VINA RESULT:     -17.7      1.800      5.641
REMARK  6 active torsions:
REMARK  status: ('A' for Active; 'I' for Inactive)
REMARK    1  A    between atoms: O_1  and  C_8 
REMARK    2  A    between atoms: O_2  and  C_11 
REMARK    3  A    between atoms: O_3  and  C_13 
REMARK    4  A    between atoms: C_6  and  C_7 
REMARK    5  A    between atoms: C_6  and  C_8 
REMARK    6  A    between atoms: C_8  and  C_14 
ROOT
HETATM    1  O   UNL     1     -53.290  51.002  14.097  1.00  0.00    -0.385 OA
HETATM    2  H   UNL     1     -53.919  51.609  13.676  1.00  0.00     0.210 HD
ENDROOT
BRANCH   1   3
HETATM    3  C   UNL     1     -53.828  49.686  14.095  1.00  0.00     0.223 C 
BRANCH   3   4
HETATM    4  C   UNL     1     -53.311  48.948  12.849  1.00  0.00     0.081 C 
BRANCH   4   5
HETATM    5  C   UNL     1     -53.566  49.700  11.588  1.00  0.00    -0.052 A 
HETATM    6  C   UNL     1     -53.673  49.017  10.377  1.00  0.00     0.046 A 
HETATM    7  C   UNL     1     -53.912  49.721   9.196  1.00  0.00     0.099 A 
HETATM    8  C   UNL     1     -54.043  51.109   9.228  1.00  0.00     0.098 A 
HETATM    9  C   UNL     1     -53.934  51.793  10.439  1.00  0.00     0.040 A 
HETATM   10  C   UNL     1     -53.696  51.089  11.619  1.00  0.00     0.010 A 
BRANCH   7  11
HETATM   11  O   UNL     1     -54.016  49.043   8.021  1.00  0.00    -0.358 OA
HETATM   12  H   UNL     1     -54.844  48.699   7.750  1.00  0.00     0.217 HD
ENDBRANCH   7  11
BRANCH   8  13
HETATM   13  O   UNL     1     -54.277  51.808   8.082  1.00  0.00    -0.358 OA
HETATM   14  H   UNL     1     -54.697  52.645   8.121  1.00  0.00     0.217 HD
ENDBRANCH   8  13
ENDBRANCH   4   5
ENDBRANCH   3   4
BRANCH   3  15
HETATM   15  C   UNL     1     -53.373  49.004  15.369  1.00  0.00     0.203 C 
HETATM   16  O   UNL     1     -52.020  48.959  15.471  1.00  0.00    -0.646 OA
HETATM   17  O   UNL     1     -54.120  48.527  16.213  1.00  0.00    -0.646 OA
ENDBRANCH   3  15
ENDBRANCH   1   3
TORSDOF 6
ENDMDL
MODEL 4
REMARK VINA RESULT:     -17.4      1.019      1.036
REMARK  6 active torsions:
REMARK  status: ('A' for Active; 'I' for Inactive)
REMARK    1  A    between atoms: O_1  and  C_8 
REMARK    2  A    between atoms: O_2  and  C_11 
REMARK    3  A    between atoms: O_3  and  C_13 
REMARK    4  A    between atoms: C_6  and  C_7 
REMARK    5  A    between atoms: C_6  and  C_8 
REMARK    6  A    between atoms: C_8  and  C_14 
ROOT
HETATM    1  O   UNL     1     -52.327  47.090   8.658  1.00  0.00    -0.385 OA
HETATM    2  H   UNL     1     -52.407  46.637   7.804  1.00  0.00     0.210 HD
ENDROOT
BRANCH   1   3
HETATM    3  C   UNL     1     -53.623  47.301   9.206  1.00  0.00     0.223 C 
BRANCH   3   4
HETATM    4  C   UNL     1     -53.842  48.814   9.374  1.00  0.00     0.081 C 
BRANCH   4   5
HETATM    5  C   UNL     1     -53.662  49.268  10.782  1.00  0.00    -0.052 A 
HETATM    6  C   UNL     1     -53.818  50.616  11.105  1.00  0.00     0.046 A 
HETATM    7  C   UNL     1     -53.648  51.042  12.423  1.00  0.00     0.099 A 
HETATM    8  C   UNL     1     -53.324  50.119  13.417  1.00  0.00     0.098 A 
HETATM    9  C   UNL     1     -53.167  48.771  13.093  1.00  0.00     0.040 A 
HETATM   10  C   UNL     1     -53.337  48.346  11.776  1.00  0.00     0.010 A 
BRANCH   7  11
HETATM   11  O   UNL     1     -53.804  52.360  12.726  1.00  0.00    -0.358 OA
HETATM   12  H   UNL     1     -54.245  52.929  12.128  1.00  0.00     0.217 HD
ENDBRANCH   7  11
BRANCH   8  13
HETATM   13  O   UNL     1     -53.157  50.522  14.708  1.00  0.00    -0.358 OA
HETATM   14  H   UNL     1     -53.413  51.386  14.966  1.00  0.00     0.217 HD
ENDBRANCH   8  13
ENDBRANCH   4   5
ENDBRANCH   3   4
BRANCH   3  15
HETATM   15  C   UNL     1     -54.629  46.700   8.246  1.00  0.00     0.203 C 
HETATM   16  O   UNL     1     -55.838  46.499   8.830  1.00  0.00    -0.646 OA
HETATM   17  O   UNL     1     -54.394  46.405   7.081  1.00  0.00    -0.646 OA
ENDBRANCH   3  15
ENDBRANCH   1   3
TORSDOF 6
ENDMDL
MODEL 5
REMARK VINA RESULT:     -17.4      2.054      5.367
REMARK  6 active torsions:
REMARK  status: ('A' for Active; 'I' for Inactive)
REMARK    1  A    between atoms: O_1  and  C_8 
REMARK    2  A    between atoms: O_2  and  C_11 
REMARK    3  A    between atoms: O_3  and  C_13 
REMARK    4  A    between atoms: C_6  and  C_7 
REMARK    5  A    between atoms: C_6  and  C_8 
REMARK    6  A    between atoms: C_8  and  C_14 
ROOT
HETATM    1  O   UNL     1     -54.426  49.446  15.500  1.00  0.00    -0.385 OA
HETATM    2  H   UNL     1     -54.664  48.616  15.941  1.00  0.00     0.210 HD
ENDROOT
BRANCH   1   3
HETATM    3  C   UNL     1     -53.631  49.162  14.355  1.00  0.00     0.223 C 
BRANCH   3   4
HETATM    4  C   UNL     1     -53.378  50.477  13.598  1.00  0.00     0.081 C 
BRANCH   4   5
HETATM    5  C   UNL     1     -53.611  50.350  12.132  1.00  0.00    -0.052 A 
HETATM    6  C   UNL     1     -53.770  51.493  11.349  1.00  0.00     0.046 A 
HETATM    7  C   UNL     1     -53.989  51.374   9.976  1.00  0.00     0.099 A 
HETATM    8  C   UNL     1     -54.048  50.111   9.387  1.00  0.00     0.098 A 
HETATM    9  C   UNL     1     -53.890  48.967  10.170  1.00  0.00     0.040 A 
HETATM   10  C   UNL     1     -53.671  49.087  11.542  1.00  0.00     0.010 A 
BRANCH   7  11
HETATM   11  O   UNL     1     -54.142  52.497   9.222  1.00  0.00    -0.358 OA
HETATM   12  H   UNL     1     -54.637  52.464   8.428  1.00  0.00     0.217 HD
ENDBRANCH   7  11
BRANCH   8  13
HETATM   13  O   UNL     1     -54.260  49.982   8.047  1.00  0.00    -0.358 OA
HETATM   14  H   UNL     1     -53.884  50.601   7.451  1.00  0.00     0.217 HD
ENDBRANCH   8  13
ENDBRANCH   4   5
ENDBRANCH   3   4
BRANCH   3  15
HETATM   15  C   UNL     1     -52.335  48.545  14.840  1.00  0.00     0.203 C 
HETATM   16  O   UNL     1     -51.866  47.601  13.984  1.00  0.00    -0.646 OA
HETATM   17  O   UNL     1     -51.770  48.837  15.886  1.00  0.00    -0.646 OA
ENDBRANCH   3  15
ENDBRANCH   1   3
TORSDOF 6
ENDMDL
MODEL 6
REMARK VINA RESULT:     -17.2      0.678      2.283
REMARK  6 active torsions:
REMARK  status: ('A' for Active; 'I' for Inactive)
REMARK    1  A    between atoms: O_1  and  C_8 
REMARK    2  A    between atoms: O_2  and  C_11 
REMARK    3  A    between atoms: O_3  and  C_13 
REMARK    4  A    between atoms: C_6  and  C_7 
REMARK    5  A    between atoms: C_6  and  C_8 
REMARK    6  A    between atoms: C_8  and  C_14 
ROOT
HETATM    1  O   UNL     1     -55.873  46.998   8.878  1.00  0.00    -0.385 OA
HETATM    2  H   UNL     1     -56.602  47.446   9.335  1.00  0.00     0.210 HD
ENDROOT
BRANCH   1   3
HETATM    3  C   UNL     1     -54.780  47.897   8.734  1.00  0.00     0.223 C 
BRANCH   3   4
HETATM    4  C   UNL     1     -53.974  47.901  10.043  1.00  0.00     0.081 C 
BRANCH   4   5
HETATM    5  C   UNL     1     -53.890  49.254  10.663  1.00  0.00    -0.052 A 
HETATM    6  C   UNL     1     -53.687  49.381  12.037  1.00  0.00     0.046 A 
HETATM    7  C   UNL     1     -53.609  50.648  12.617  1.00  0.00     0.099 A 
HETATM    8  C   UNL     1     -53.734  51.786  11.822  1.00  0.00     0.098 A 
HETATM    9  C   UNL     1     -53.937  51.660  10.448  1.00  0.00     0.040 A 
HETATM   10  C   UNL     1     -54.015  50.394   9.868  1.00  0.00     0.010 A 
BRANCH   7  11
HETATM   11  O   UNL     1     -53.410  50.758  13.959  1.00  0.00    -0.358 OA
HETATM   12  H   UNL     1     -52.860  50.144  14.403  1.00  0.00     0.217 HD
ENDBRANCH   7  11
BRANCH   8  13
HETATM   13  O   UNL     1     -53.657  53.029  12.376  1.00  0.00    -0.358 OA
HETATM   14  H   UNL     1     -53.963  53.171  13.251  1.00  0.00     0.217 HD
ENDBRANCH   8  13
ENDBRANCH   4   5
ENDBRANCH   3   4
BRANCH   3  15
HETATM   15  C   UNL     1     -53.941  47.413   7.570  1.00  0.00     0.203 C 
HETATM   16  O   UNL     1     -52.896  48.241   7.312  1.00  0.00    -0.646 OA
HETATM   17  O   UNL     1     -54.170  46.406   6.913  1.00  0.00    -0.646 OA
ENDBRANCH   3  15
ENDBRANCH   1   3
TORSDOF 6
ENDMDL
MODEL 7
REMARK VINA RESULT:     -17.1      1.283      2.200
REMARK  6 active torsions:
REMARK  status: ('A' for Active; 'I' for Inactive)
REMARK    1  A    between atoms: O_1  and  C_8 
REMARK    2  A    between atoms: O_2  and  C_11 
REMARK    3  A    between atoms: O_3  and  C_13 
REMARK    4  A    between atoms: C_6  and  C_7 
REMARK    5  A    between atoms: C_6  and  C_8 
REMARK    6  A    between atoms: C_8  and  C_14 
ROOT
HETATM    1  O   UNL     1     -55.388  47.074   9.254  1.00  0.00    -0.385 OA
HETATM    2  H   UNL     1     -56.227  47.157   9.733  1.00  0.00     0.210 HD
ENDROOT
BRANCH   1   3
HETATM    3  C   UNL     1     -54.544  48.171   9.583  1.00  0.00     0.223 C 
BRANCH   3   4
HETATM    4  C   UNL     1     -53.402  47.658  10.476  1.00  0.00     0.081 C 
BRANCH   4   5
HETATM    5  C   UNL     1     -53.275  48.428  11.745  1.00  0.00    -0.052 A 
HETATM    6  C   UNL     1     -53.658  49.769  11.789  1.00  0.00     0.046 A 
HETATM    7  C   UNL     1     -53.538  50.490  12.978  1.00  0.00     0.099 A 
HETATM    8  C   UNL     1     -53.035  49.870  14.121  1.00  0.00     0.098 A 
HETATM    9  C   UNL     1     -52.651  48.530  14.077  1.00  0.00     0.040 A 
HETATM   10  C   UNL     1     -52.771  47.809  12.889  1.00  0.00     0.010 A 
BRANCH   7  11
HETATM   11  O   UNL     1     -53.916  51.798  13.009  1.00  0.00    -0.358 OA
HETATM   12  H   UNL     1     -53.270  52.470  13.092  1.00  0.00     0.217 HD
ENDBRANCH   7  11
BRANCH   8  13
HETATM   13  O   UNL     1     -52.915  50.564  15.288  1.00  0.00    -0.358 OA
HETATM   14  H   UNL     1     -52.163  51.104  15.437  1.00  0.00     0.217 HD
ENDBRANCH   8  13
ENDBRANCH   4   5
ENDBRANCH   3   4
BRANCH   3  15
HETATM   15  C   UNL     1     -54.015  48.746   8.285  1.00  0.00     0.203 C 
HETATM   16  O   UNL     1     -54.454  48.054   7.202  1.00  0.00    -0.646 OA
HETATM   17  O   UNL     1     -53.265  49.710   8.201  1.00  0.00    -0.646 OA
ENDBRANCH   3  15
ENDBRANCH   1   3
TORSDOF 6
ENDMDL
MODEL 8
REMARK VINA RESULT:     -17.1      1.092      2.119
REMARK  6 active torsions:
REMARK  status: ('A' for Active; 'I' for Inactive)
REMARK    1  A    between atoms: O_1  and  C_8 
REMARK    2  A    between atoms: O_2  and  C_11 
REMARK    3  A    between atoms: O_3  and  C_13 
REMARK    4  A    between atoms: C_6  and  C_7 
REMARK    5  A    between atoms: C_6  and  C_8 
REMARK    6  A    between atoms: C_8  and  C_14 
ROOT
HETATM    1  O   UNL     1     -55.920  46.927   8.869  1.00  0.00    -0.385 OA
HETATM    2  H   UNL     1     -56.721  47.464   8.974  1.00  0.00     0.210 HD
ENDROOT
BRANCH   1   3
HETATM    3  C   UNL     1     -54.800  47.781   8.667  1.00  0.00     0.223 C 
BRANCH   3   4
HETATM    4  C   UNL     1     -53.974  47.818   9.963  1.00  0.00     0.081 C 
BRANCH   4   5
HETATM    5  C   UNL     1     -53.898  49.182  10.558  1.00  0.00    -0.052 A 
HETATM    6  C   UNL     1     -54.013  50.307   9.740  1.00  0.00     0.046 A 
HETATM    7  C   UNL     1     -53.941  51.584  10.297  1.00  0.00     0.099 A 
HETATM    8  C   UNL     1     -53.754  51.736  11.670  1.00  0.00     0.098 A 
HETATM    9  C   UNL     1     -53.637  50.612  12.488  1.00  0.00     0.040 A 
HETATM   10  C   UNL     1     -53.710  49.335  11.931  1.00  0.00     0.010 A 
BRANCH   7  11
HETATM   11  O   UNL     1     -54.055  52.674   9.489  1.00  0.00    -0.358 OA
HETATM   12  H   UNL     1     -54.106  52.565   8.560  1.00  0.00     0.217 HD
ENDBRANCH   7  11
BRANCH   8  13
HETATM   13  O   UNL     1     -53.683  52.979  12.225  1.00  0.00    -0.358 OA
HETATM   14  H   UNL     1     -53.510  53.074  13.142  1.00  0.00     0.217 HD
ENDBRANCH   8  13
ENDBRANCH   4   5
ENDBRANCH   3   4
BRANCH   3  15
HETATM   15  C   UNL     1     -53.995  47.214   7.515  1.00  0.00     0.203 C 
HETATM   16  O   UNL     1     -52.881  47.947   7.259  1.00  0.00    -0.646 OA
HETATM   17  O   UNL     1     -54.305  46.224   6.866  1.00  0.00    -0.646 OA
ENDBRANCH   3  15
ENDBRANCH   1   3
TORSDOF 6
ENDMDL
MODEL 9
REMARK VINA RESULT:     -16.8      2.734      5.779
REMARK  6 active torsions:
REMARK  status: ('A' for Active; 'I' for Inactive)
REMARK    1  A    between atoms: O_1  and  C_8 
REMARK    2  A    between atoms: O_2  and  C_11 
REMARK    3  A    between atoms: O_3  and  C_13 
REMARK    4  A    between atoms: C_6  and  C_7 
REMARK    5  A    between atoms: C_6  and  C_8 
REMARK    6  A    between atoms: C_8  and  C_14 
ROOT
HETATM    1  O   UNL     1     -51.579  49.158  15.678  1.00  0.00    -0.385 OA
HETATM    2  H   UNL     1     -50.936  48.711  15.107  1.00  0.00     0.210 HD
ENDROOT
BRANCH   1   3
HETATM    3  C   UNL     1     -52.879  48.636  15.427  1.00  0.00     0.223 C 
BRANCH   3   4
HETATM    4  C   UNL     1     -52.876  47.966  14.043  1.00  0.00     0.081 C 
BRANCH   4   5
HETATM    5  C   UNL     1     -53.204  48.916  12.943  1.00  0.00    -0.052 A 
HETATM    6  C   UNL     1     -53.402  50.268  13.225  1.00  0.00     0.046 A 
HETATM    7  C   UNL     1     -53.709  51.158  12.195  1.00  0.00     0.099 A 
HETATM    8  C   UNL     1     -53.818  50.695  10.884  1.00  0.00     0.098 A 
HETATM    9  C   UNL     1     -53.620  49.343  10.602  1.00  0.00     0.040 A 
HETATM   10  C   UNL     1     -53.313  48.454  11.631  1.00  0.00     0.010 A 
BRANCH   7  11
HETATM   11  O   UNL     1     -53.900  52.475  12.482  1.00  0.00    -0.358 OA
HETATM   12  H   UNL     1     -53.864  52.770  13.370  1.00  0.00     0.217 HD
ENDBRANCH   7  11
BRANCH   8  13
HETATM   13  O   UNL     1     -54.116  51.554   9.869  1.00  0.00    -0.358 OA
HETATM   14  H   UNL     1     -54.988  51.883   9.775  1.00  0.00     0.217 HD
ENDBRANCH   8  13
ENDBRANCH   4   5
ENDBRANCH   3   4
BRANCH   3  15
HETATM   15  C   UNL     1     -53.190  47.639  16.524  1.00  0.00     0.203 C 
HETATM   16  O   UNL     1     -52.103  46.904  16.871  1.00  0.00    -0.646 OA
HETATM   17  O   UNL     1     -54.291  47.486  17.038  1.00  0.00    -0.646 OA
ENDBRANCH   3  15
ENDBRANCH   1   3
TORSDOF 6
ENDMDL
