MODEL 1
REMARK VINA RESULT:     -18.1      0.000      0.000
REMARK  6 active torsions:
REMARK  status: ('A' for Active; 'I' for Inactive)
REMARK    1  A    between atoms: O_1  and  C_8 
REMARK    2  A    between atoms: O_2  and  C_11 
REMARK    3  A    between atoms: O_3  and  C_13 
REMARK    4  A    between atoms: C_6  and  C_7 
REMARK    5  A    between atoms: C_6  and  C_8 
REMARK    6  A    between atoms: C_8  and  C_14 
ROOT
HETATM    1  O   UNL     1     -52.478  48.926   7.221  1.00  0.00    -0.385 OA
HETATM    2  H   UNL     1     -51.673  48.387   7.261  1.00  0.00     0.210 HD
ENDROOT
BRANCH   1   3
HETATM    3  C   UNL     1     -53.362  48.537   8.265  1.00  0.00     0.223 C 
BRANCH   3   4
HETATM    4  C   UNL     1     -54.122  49.782   8.751  1.00  0.00     0.081 C 
BRANCH   4   5
HETATM    5  C   UNL     1     -53.917  50.050  10.203  1.00  0.00    -0.052 A 
HETATM    6  C   UNL     1     -53.894  51.363  10.673  1.00  0.00     0.046 A 
HETATM    7  C   UNL     1     -53.701  51.614  12.032  1.00  0.00     0.099 A 
HETATM    8  C   UNL     1     -53.531  50.552  12.920  1.00  0.00     0.098 A 
HETATM    9  C   UNL     1     -53.553  49.239  12.449  1.00  0.00     0.040 A 
HETATM   10  C   UNL     1     -53.746  48.988  11.091  1.00  0.00     0.010 A 
BRANCH   7  11
HETATM   11  O   UNL     1     -53.682  52.900  12.479  1.00  0.00    -0.358 OA
HETATM   12  H   UNL     1     -54.130  53.569  12.001  1.00  0.00     0.217 HD
ENDBRANCH   7  11
BRANCH   8  13
HETATM   13  O   UNL     1     -53.343  50.785  14.249  1.00  0.00    -0.358 OA
HETATM   14  H   UNL     1     -53.648  50.164  14.882  1.00  0.00     0.217 HD
ENDBRANCH   8  13
ENDBRANCH   4   5
ENDBRANCH   3   4
BRANCH   3  15
HETATM   15  C   UNL     1     -54.308  47.498   7.700  1.00  0.00     0.203 C 
HETATM   16  O   UNL     1     -53.976  47.138   6.433  1.00  0.00    -0.646 OA
HETATM   17  O   UNL     1     -55.275  47.036   8.291  1.00  0.00    -0.646 OA
ENDBRANCH   3  15
ENDBRANCH   1   3
TORSDOF 6
ENDMDL
MODEL 2
REMARK VINA RESULT:     -17.8      1.068      1.956
REMARK  6 active torsions:
REMARK  status: ('A' for Active; 'I' for Inactive)
REMARK    1  A    between atoms: O_1  and  C_8 
REMARK    2  A    between atoms: O_2  and  C_11 
REMARK    3  A    between atoms: O_3  and  C_13 
REMARK    4  A    between atoms: C_6  and  C_7 
REMARK    5  A    between atoms: C_6  and  C_8 
REMARK    6  A    between atoms: C_8  and  C_14 
ROOT
HETATM    1  O   UNL     1     -52.798  49.470   7.503  1.00  0.00    -0.385 OA
HETATM    2  H   UNL     1     -52.845  48.905   6.716  1.00  0.00     0.210 HD
ENDROOT
BRANCH   1   3
HETATM    3  C   UNL     1     -53.516  48.860   8.569  1.00  0.00     0.223 C 
BRANCH   3   4
HETATM    4  C   UNL     1     -54.333  49.943   9.292  1.00  0.00     0.081 C 
BRANCH   4   5
HETATM    5  C   UNL     1     -53.979  50.063  10.735  1.00  0.00    -0.052 A 
HETATM    6  C   UNL     1     -53.636  48.925  11.466  1.00  0.00     0.046 A 
HETATM    7  C   UNL     1     -53.306  49.037  12.817  1.00  0.00     0.099 A 
HETATM    8  C   UNL     1     -53.319  50.286  13.436  1.00  0.00     0.098 A 
HETATM    9  C   UNL     1     -53.663  51.424  12.706  1.00  0.00     0.040 A 
HETATM   10  C   UNL     1     -53.993  51.312  11.355  1.00  0.00     0.010 A 
BRANCH   7  11
HETATM   11  O   UNL     1     -52.972  47.919  13.519  1.00  0.00    -0.358 OA
HETATM   12  H   UNL     1     -52.099  47.812  13.840  1.00  0.00     0.217 HD
ENDBRANCH   7  11
BRANCH   8  13
HETATM   13  O   UNL     1     -52.997  50.408  14.754  1.00  0.00    -0.358 OA
HETATM   14  H   UNL     1     -52.316  50.995  15.018  1.00  0.00     0.217 HD
ENDBRANCH   8  13
ENDBRANCH   4   5
ENDBRANCH   3   4
BRANCH   3  15
HETATM   15  C   UNL     1     -54.416  47.800   7.965  1.00  0.00     0.203 C 
HETATM   16  O   UNL     1     -54.065  47.498   6.689  1.00  0.00    -0.646 OA
HETATM   17  O   UNL     1     -55.363  47.279   8.538  1.00  0.00    -0.646 OA
ENDBRANCH   3  15
ENDBRANCH   1   3
TORSDOF 6
ENDMDL
MODEL 3
REMARK VINA RESULT:     -17.7      1.823      5.709
REMARK  6 active torsions:
REMARK  status: ('A' for Active; 'I' for Inactive)
REMARK    1  A    between atoms: O_1  and  C_8 
REMARK    2  A    between atoms: O_2  and  C_11 
REMARK    3  A    between atoms: O_3  and  C_13 
REMARK    4  A    between atoms: C_6  and  C_7 
REMARK    5  A    between atoms: C_6  and  C_8 
REMARK    6  A    between atoms: C_8  and  C_14 
ROOT
HETATM    1  O   UNL     1     -53.291  51.012  14.033  1.00  0.00    -0.385 OA
HETATM    2  H   UNL     1     -53.959  51.612  14.399  1.00  0.00     0.210 HD
ENDROOT
BRANCH   1   3
HETATM    3  C   UNL     1     -53.774  49.675  14.089  1.00  0.00     0.223 C 
BRANCH   3   4
HETATM    4  C   UNL     1     -53.289  48.927  12.835  1.00  0.00     0.081 C 
BRANCH   4   5
HETATM    5  C   UNL     1     -53.550  49.685  11.578  1.00  0.00    -0.052 A 
HETATM    6  C   UNL     1     -53.654  49.006  10.364  1.00  0.00     0.046 A 
HETATM    7  C   UNL     1     -53.897  49.716   9.187  1.00  0.00     0.099 A 
HETATM    8  C   UNL     1     -54.035  51.103   9.225  1.00  0.00     0.098 A 
HETATM    9  C   UNL     1     -53.930  51.781  10.440  1.00  0.00     0.040 A 
HETATM   10  C   UNL     1     -53.687  51.072  11.616  1.00  0.00     0.010 A 
BRANCH   7  11
HETATM   11  O   UNL     1     -53.998  49.042   8.008  1.00  0.00    -0.358 OA
HETATM   12  H   UNL     1     -54.548  49.372   7.326  1.00  0.00     0.217 HD
ENDBRANCH   7  11
BRANCH   8  13
HETATM   13  O   UNL     1     -54.274  51.806   8.083  1.00  0.00    -0.358 OA
HETATM   14  H   UNL     1     -53.572  51.987   7.489  1.00  0.00     0.217 HD
ENDBRANCH   8  13
ENDBRANCH   4   5
ENDBRANCH   3   4
BRANCH   3  15
HETATM   15  C   UNL     1     -53.227  49.044  15.354  1.00  0.00     0.203 C 
HETATM   16  O   UNL     1     -54.215  48.631  16.188  1.00  0.00    -0.646 OA
HETATM   17  O   UNL     1     -52.038  48.928  15.620  1.00  0.00    -0.646 OA
ENDBRANCH   3  15
ENDBRANCH   1   3
TORSDOF 6
ENDMDL
MODEL 4
REMARK VINA RESULT:     -17.4      2.023      5.369
REMARK  6 active torsions:
REMARK  status: ('A' for Active; 'I' for Inactive)
REMARK    1  A    between atoms: O_1  and  C_8 
REMARK    2  A    between atoms: O_2  and  C_11 
REMARK    3  A    between atoms: O_3  and  C_13 
REMARK    4  A    between atoms: C_6  and  C_7 
REMARK    5  A    between atoms: C_6  and  C_8 
REMARK    6  A    between atoms: C_8  and  C_14 
ROOT
HETATM    1  O   UNL     1     -54.423  49.406  15.494  1.00  0.00    -0.385 OA
HETATM    2  H   UNL     1     -53.982  50.084  16.030  1.00  0.00     0.210 HD
ENDROOT
BRANCH   1   3
HETATM    3  C   UNL     1     -53.634  49.124  14.344  1.00  0.00     0.223 C 
BRANCH   3   4
HETATM    4  C   UNL     1     -53.397  50.437  13.580  1.00  0.00     0.081 C 
BRANCH   4   5
HETATM    5  C   UNL     1     -53.629  50.299  12.114  1.00  0.00    -0.052 A 
HETATM    6  C   UNL     1     -53.783  51.436  11.322  1.00  0.00     0.046 A 
HETATM    7  C   UNL     1     -54.001  51.306   9.950  1.00  0.00     0.099 A 
HETATM    8  C   UNL     1     -54.064  50.039   9.371  1.00  0.00     0.098 A 
HETATM    9  C   UNL     1     -53.910  48.902  10.163  1.00  0.00     0.040 A 
HETATM   10  C   UNL     1     -53.693  49.031  11.535  1.00  0.00     0.010 A 
BRANCH   7  11
HETATM   11  O   UNL     1     -54.149  52.424   9.187  1.00  0.00    -0.358 OA
HETATM   12  H   UNL     1     -54.949  52.571   8.722  1.00  0.00     0.217 HD
ENDBRANCH   7  11
BRANCH   8  13
HETATM   13  O   UNL     1     -54.274  49.900   8.032  1.00  0.00    -0.358 OA
HETATM   14  H   UNL     1     -55.146  49.802   7.702  1.00  0.00     0.217 HD
ENDBRANCH   8  13
ENDBRANCH   4   5
ENDBRANCH   3   4
BRANCH   3  15
HETATM   15  C   UNL     1     -52.329  48.520  14.822  1.00  0.00     0.203 C 
HETATM   16  O   UNL     1     -51.902  47.518  14.012  1.00  0.00    -0.646 OA
HETATM   17  O   UNL     1     -51.725  48.867  15.828  1.00  0.00    -0.646 OA
ENDBRANCH   3  15
ENDBRANCH   1   3
TORSDOF 6
ENDMDL
MODEL 5
REMARK VINA RESULT:     -17.3      1.291      1.589
REMARK  6 active torsions:
REMARK  status: ('A' for Active; 'I' for Inactive)
REMARK    1  A    between atoms: O_1  and  C_8 
REMARK    2  A    between atoms: O_2  and  C_11 
REMARK    3  A    between atoms: O_3  and  C_13 
REMARK    4  A    between atoms: C_6  and  C_7 
REMARK    5  A    between atoms: C_6  and  C_8 
REMARK    6  A    between atoms: C_8  and  C_14 
ROOT
HETATM    1  O   UNL     1     -52.401  46.667   8.879  1.00  0.00    -0.385 OA
HETATM    2  H   UNL     1     -52.535  46.014   8.175  1.00  0.00     0.210 HD
ENDROOT
BRANCH   1   3
HETATM    3  C   UNL     1     -53.663  47.084   9.385  1.00  0.00     0.223 C 
BRANCH   3   4
HETATM    4  C   UNL     1     -53.669  48.618   9.482  1.00  0.00     0.081 C 
BRANCH   4   5
HETATM    5  C   UNL     1     -53.549  49.107  10.885  1.00  0.00    -0.052 A 
HETATM    6  C   UNL     1     -53.758  50.455  11.175  1.00  0.00     0.046 A 
HETATM    7  C   UNL     1     -53.646  50.912  12.488  1.00  0.00     0.099 A 
HETATM    8  C   UNL     1     -53.324  50.020  13.511  1.00  0.00     0.098 A 
HETATM    9  C   UNL     1     -53.114  48.672  13.221  1.00  0.00     0.040 A 
HETATM   10  C   UNL     1     -53.227  48.215  11.908  1.00  0.00     0.010 A 
BRANCH   7  11
HETATM   11  O   UNL     1     -53.853  52.230  12.759  1.00  0.00    -0.358 OA
HETATM   12  H   UNL     1     -53.190  52.859  12.556  1.00  0.00     0.217 HD
ENDBRANCH   7  11
BRANCH   8  13
HETATM   13  O   UNL     1     -53.213  50.454  14.798  1.00  0.00    -0.358 OA
HETATM   14  H   UNL     1     -52.555  50.093  15.359  1.00  0.00     0.217 HD
ENDBRANCH   8  13
ENDBRANCH   4   5
ENDBRANCH   3   4
BRANCH   3  15
HETATM   15  C   UNL     1     -54.727  46.587   8.427  1.00  0.00     0.203 C 
HETATM   16  O   UNL     1     -55.980  46.745   8.925  1.00  0.00    -0.646 OA
HETATM   17  O   UNL     1     -54.503  46.082   7.335  1.00  0.00    -0.646 OA
ENDBRANCH   3  15
ENDBRANCH   1   3
TORSDOF 6
ENDMDL
MODEL 6
REMARK VINA RESULT:     -17.2      0.738      2.309
REMARK  6 active torsions:
REMARK  status: ('A' for Active; 'I' for Inactive)
REMARK    1  A    between atoms: O_1  and  C_8 
REMARK    2  A    between atoms: O_2  and  C_11 
REMARK    3  A    between atoms: O_3  and  C_13 
REMARK    4  A    between atoms: C_6  and  C_7 
REMARK    5  A    between atoms: C_6  and  C_8 
REMARK    6  A    between atoms: C_8  and  C_14 
ROOT
HETATM    1  O   UNL     1     -55.821  46.928   8.821  1.00  0.00    -0.385 OA
HETATM    2  H   UNL     1     -55.529  46.204   9.395  1.00  0.00     0.210 HD
ENDROOT
BRANCH   1   3
HETATM    3  C   UNL     1     -54.790  47.905   8.730  1.00  0.00     0.223 C 
BRANCH   3   4
HETATM    4  C   UNL     1     -53.999  47.904  10.048  1.00  0.00     0.081 C 
BRANCH   4   5
HETATM    5  C   UNL     1     -53.904  49.259  10.662  1.00  0.00    -0.052 A 
HETATM    6  C   UNL     1     -53.703  49.390  12.036  1.00  0.00     0.046 A 
HETATM    7  C   UNL     1     -53.615  50.658  12.611  1.00  0.00     0.099 A 
HETATM    8  C   UNL     1     -53.728  51.795  11.811  1.00  0.00     0.098 A 
HETATM    9  C   UNL     1     -53.931  51.664  10.437  1.00  0.00     0.040 A 
HETATM   10  C   UNL     1     -54.018  50.397   9.863  1.00  0.00     0.010 A 
BRANCH   7  11
HETATM   11  O   UNL     1     -53.417  50.773  13.953  1.00  0.00    -0.358 OA
HETATM   12  H   UNL     1     -52.798  50.218  14.384  1.00  0.00     0.217 HD
ENDBRANCH   7  11
BRANCH   8  13
HETATM   13  O   UNL     1     -53.643  53.039  12.361  1.00  0.00    -0.358 OA
HETATM   14  H   UNL     1     -54.291  53.686  12.161  1.00  0.00     0.217 HD
ENDBRANCH   8  13
ENDBRANCH   4   5
ENDBRANCH   3   4
BRANCH   3  15
HETATM   15  C   UNL     1     -53.909  47.530   7.556  1.00  0.00     0.203 C 
HETATM   16  O   UNL     1     -54.252  46.331   7.020  1.00  0.00    -0.646 OA
HETATM   17  O   UNL     1     -52.980  48.206   7.135  1.00  0.00    -0.646 OA
ENDBRANCH   3  15
ENDBRANCH   1   3
TORSDOF 6
ENDMDL
MODEL 7
REMARK VINA RESULT:     -17.1      1.378      2.373
REMARK  6 active torsions:
REMARK  status: ('A' for Active; 'I' for Inactive)
REMARK    1  A    between atoms: O_1  and  C_8 
REMARK    2  A    between atoms: O_2  and  C_11 
REMARK    3  A    between atoms: O_3  and  C_13 
REMARK    4  A    between atoms: C_6  and  C_7 
REMARK    5  A    between atoms: C_6  and  C_8 
REMARK    6  A    between atoms: C_8  and  C_14 
ROOT
HETATM    1  O   UNL     1     -55.033  47.509   8.629  1.00  0.00    -0.385 OA
HETATM    2  H   UNL     1     -55.891  47.844   8.327  1.00  0.00     0.210 HD
ENDROOT
BRANCH   1   3
HETATM    3  C   UNL     1     -54.400  48.491   9.442  1.00  0.00     0.223 C 
BRANCH   3   4
HETATM    4  C   UNL     1     -53.450  47.778  10.418  1.00  0.00     0.081 C 
BRANCH   4   5
HETATM    5  C   UNL     1     -53.311  48.499  11.715  1.00  0.00    -0.052 A 
HETATM    6  C   UNL     1     -53.691  49.838  11.813  1.00  0.00     0.046 A 
HETATM    7  C   UNL     1     -53.560  50.513  13.027  1.00  0.00     0.099 A 
HETATM    8  C   UNL     1     -53.050  49.849  14.142  1.00  0.00     0.098 A 
HETATM    9  C   UNL     1     -52.669  48.511  14.044  1.00  0.00     0.040 A 
HETATM   10  C   UNL     1     -52.800  47.836  12.831  1.00  0.00     0.010 A 
BRANCH   7  11
HETATM   11  O   UNL     1     -53.935  51.819  13.110  1.00  0.00    -0.358 OA
HETATM   12  H   UNL     1     -54.385  52.130  13.871  1.00  0.00     0.217 HD
ENDBRANCH   7  11
BRANCH   8  13
HETATM   13  O   UNL     1     -52.919  50.498  15.333  1.00  0.00    -0.358 OA
HETATM   14  H   UNL     1     -53.660  50.595  15.898  1.00  0.00     0.217 HD
ENDBRANCH   8  13
ENDBRANCH   4   5
ENDBRANCH   3   4
BRANCH   3  15
HETATM   15  C   UNL     1     -53.646  49.429   8.522  1.00  0.00     0.203 C 
HETATM   16  O   UNL     1     -54.087  50.709   8.622  1.00  0.00    -0.646 OA
HETATM   17  O   UNL     1     -52.754  49.090   7.756  1.00  0.00    -0.646 OA
ENDBRANCH   3  15
ENDBRANCH   1   3
TORSDOF 6
ENDMDL
MODEL 8
REMARK VINA RESULT:     -17.1      1.165      2.192
REMARK  6 active torsions:
REMARK  status: ('A' for Active; 'I' for Inactive)
REMARK    1  A    between atoms: O_1  and  C_8 
REMARK    2  A    between atoms: O_2  and  C_11 
REMARK    3  A    between atoms: O_3  and  C_13 
REMARK    4  A    between atoms: C_6  and  C_7 
REMARK    5  A    between atoms: C_6  and  C_8 
REMARK    6  A    between atoms: C_8  and  C_14 
ROOT
HETATM    1  O   UNL     1     -55.896  46.895   8.821  1.00  0.00    -0.385 OA
HETATM    2  H   UNL     1     -56.218  46.919   9.736  1.00  0.00     0.210 HD
ENDROOT
BRANCH   1   3
HETATM    3  C   UNL     1     -54.833  47.828   8.669  1.00  0.00     0.223 C 
BRANCH   3   4
HETATM    4  C   UNL     1     -54.033  47.876   9.982  1.00  0.00     0.081 C 
BRANCH   4   5
HETATM    5  C   UNL     1     -53.943  49.251  10.549  1.00  0.00    -0.052 A 
HETATM    6  C   UNL     1     -54.046  50.361   9.710  1.00  0.00     0.046 A 
HETATM    7  C   UNL     1     -53.960  51.648  10.242  1.00  0.00     0.099 A 
HETATM    8  C   UNL     1     -53.772  51.825  11.612  1.00  0.00     0.098 A 
HETATM    9  C   UNL     1     -53.667  50.716  12.451  1.00  0.00     0.040 A 
HETATM   10  C   UNL     1     -53.753  49.429  11.920  1.00  0.00     0.010 A 
BRANCH   7  11
HETATM   11  O   UNL     1     -54.064  52.723   9.412  1.00  0.00    -0.358 OA
HETATM   12  H   UNL     1     -53.311  53.030   8.948  1.00  0.00     0.217 HD
ENDBRANCH   7  11
BRANCH   8  13
HETATM   13  O   UNL     1     -53.688  53.077  12.143  1.00  0.00    -0.358 OA
HETATM   14  H   UNL     1     -54.232  53.317  12.867  1.00  0.00     0.217 HD
ENDBRANCH   8  13
ENDBRANCH   4   5
ENDBRANCH   3   4
BRANCH   3  15
HETATM   15  C   UNL     1     -53.972  47.356   7.515  1.00  0.00     0.203 C 
HETATM   16  O   UNL     1     -54.415  46.183   6.992  1.00  0.00    -0.646 OA
HETATM   17  O   UNL     1     -52.980  47.938   7.099  1.00  0.00    -0.646 OA
ENDBRANCH   3  15
ENDBRANCH   1   3
TORSDOF 6
ENDMDL
MODEL 9
REMARK VINA RESULT:     -17.0      2.874      5.523
REMARK  6 active torsions:
REMARK  status: ('A' for Active; 'I' for Inactive)
REMARK    1  A    between atoms: O_1  and  C_8 
REMARK    2  A    between atoms: O_2  and  C_11 
REMARK    3  A    between atoms: O_3  and  C_13 
REMARK    4  A    between atoms: C_6  and  C_7 
REMARK    5  A    between atoms: C_6  and  C_8 
REMARK    6  A    between atoms: C_8  and  C_14 
ROOT
HETATM    1  O   UNL     1     -52.920  50.606  14.901  1.00  0.00    -0.385 OA
HETATM    2  H   UNL     1     -53.024  51.126  14.089  1.00  0.00     0.210 HD
ENDROOT
BRANCH   1   3
HETATM    3  C   UNL     1     -53.582  49.356  14.751  1.00  0.00     0.223 C 
BRANCH   3   4
HETATM    4  C   UNL     1     -53.276  48.807  13.348  1.00  0.00     0.081 C 
BRANCH   4   5
HETATM    5  C   UNL     1     -53.527  49.807  12.272  1.00  0.00    -0.052 A 
HETATM    6  C   UNL     1     -53.583  51.166  12.581  1.00  0.00     0.046 A 
HETATM    7  C   UNL     1     -53.818  52.102  11.573  1.00  0.00     0.099 A 
HETATM    8  C   UNL     1     -53.998  51.678  10.257  1.00  0.00     0.098 A 
HETATM    9  C   UNL     1     -53.943  50.319   9.947  1.00  0.00     0.040 A 
HETATM   10  C   UNL     1     -53.708  49.384  10.954  1.00  0.00     0.010 A 
BRANCH   7  11
HETATM   11  O   UNL     1     -53.869  53.425  11.888  1.00  0.00    -0.358 OA
HETATM   12  H   UNL     1     -54.198  53.696  12.722  1.00  0.00     0.217 HD
ENDBRANCH   7  11
BRANCH   8  13
HETATM   13  O   UNL     1     -54.228  52.583   9.265  1.00  0.00    -0.358 OA
HETATM   14  H   UNL     1     -54.595  53.421   9.469  1.00  0.00     0.217 HD
ENDBRANCH   8  13
ENDBRANCH   4   5
ENDBRANCH   3   4
BRANCH   3  15
HETATM   15  C   UNL     1     -53.061  48.431  15.832  1.00  0.00     0.203 C 
HETATM   16  O   UNL     1     -54.063  47.900  16.578  1.00  0.00    -0.646 OA
HETATM   17  O   UNL     1     -51.878  48.191  16.037  1.00  0.00    -0.646 OA
ENDBRANCH   3  15
ENDBRANCH   1   3
TORSDOF 6
ENDMDL
