MODEL 1
REMARK VINA RESULT:      -8.8      0.000      0.000
REMARK  6 active torsions:
REMARK  status: ('A' for Active; 'I' for Inactive)
REMARK    1  A    between atoms: O_1  and  C_8 
REMARK    2  A    between atoms: O_2  and  C_11 
REMARK    3  A    between atoms: O_3  and  C_13 
REMARK    4  A    between atoms: C_6  and  C_7 
REMARK    5  A    between atoms: C_6  and  C_8 
REMARK    6  A    between atoms: C_8  and  C_14 
ROOT
HETATM    1  O   UNL     1     -54.561  51.295   8.100  1.00  0.00    -0.385 OA
HETATM    2  H   UNL     1     -54.636  50.479   7.580  1.00  0.00     0.210 HD
ENDROOT
BRANCH   1   3
HETATM    3  C   UNL     1     -54.710  50.991   9.482  1.00  0.00     0.223 C 
BRANCH   3   4
HETATM    4  C   UNL     1     -54.024  49.644   9.762  1.00  0.00     0.081 C 
BRANCH   4   5
HETATM    5  C   UNL     1     -54.898  48.478   9.448  1.00  0.00    -0.052 A 
HETATM    6  C   UNL     1     -54.331  47.228   9.198  1.00  0.00     0.046 A 
HETATM    7  C   UNL     1     -55.149  46.137   8.903  1.00  0.00     0.099 A 
HETATM    8  C   UNL     1     -56.533  46.296   8.859  1.00  0.00     0.098 A 
HETATM    9  C   UNL     1     -57.101  47.546   9.108  1.00  0.00     0.040 A 
HETATM   10  C   UNL     1     -56.283  48.636   9.403  1.00  0.00     0.010 A 
BRANCH   7  11
HETATM   11  O   UNL     1     -54.583  44.922   8.662  1.00  0.00    -0.358 OA
HETATM   12  H   UNL     1     -53.694  44.869   8.373  1.00  0.00     0.217 HD
ENDBRANCH   7  11
BRANCH   8  13
HETATM   13  O   UNL     1     -57.342  45.237   8.573  1.00  0.00    -0.358 OA
HETATM   14  H   UNL     1     -58.248  45.261   8.814  1.00  0.00     0.217 HD
ENDBRANCH   8  13
ENDBRANCH   4   5
ENDBRANCH   3   4
BRANCH   3  15
HETATM   15  C   UNL     1     -54.065  52.114  10.268  1.00  0.00     0.203 C 
HETATM   16  O   UNL     1     -53.681  53.143   9.470  1.00  0.00    -0.646 OA
HETATM   17  O   UNL     1     -53.885  52.106  11.479  1.00  0.00    -0.646 OA
ENDBRANCH   3  15
ENDBRANCH   1   3
TORSDOF 6
ENDMDL
MODEL 2
REMARK VINA RESULT:      -8.6      0.848      2.227
REMARK  6 active torsions:
REMARK  status: ('A' for Active; 'I' for Inactive)
REMARK    1  A    between atoms: O_1  and  C_8 
REMARK    2  A    between atoms: O_2  and  C_11 
REMARK    3  A    between atoms: O_3  and  C_13 
REMARK    4  A    between atoms: C_6  and  C_7 
REMARK    5  A    between atoms: C_6  and  C_8 
REMARK    6  A    between atoms: C_8  and  C_14 
ROOT
HETATM    1  O   UNL     1     -54.658  50.823  11.347  1.00  0.00    -0.385 OA
HETATM    2  H   UNL     1     -54.714  50.036  11.911  1.00  0.00     0.210 HD
ENDROOT
BRANCH   1   3
HETATM    3  C   UNL     1     -54.409  50.427  10.004  1.00  0.00     0.223 C 
BRANCH   3   4
HETATM    4  C   UNL     1     -55.622  49.630   9.496  1.00  0.00     0.081 C 
BRANCH   4   5
HETATM    5  C   UNL     1     -55.295  48.204   9.213  1.00  0.00    -0.052 A 
HETATM    6  C   UNL     1     -56.304  47.320   8.830  1.00  0.00     0.046 A 
HETATM    7  C   UNL     1     -55.998  45.984   8.566  1.00  0.00     0.099 A 
HETATM    8  C   UNL     1     -54.684  45.533   8.686  1.00  0.00     0.098 A 
HETATM    9  C   UNL     1     -53.675  46.417   9.070  1.00  0.00     0.040 A 
HETATM   10  C   UNL     1     -53.981  47.752   9.334  1.00  0.00     0.010 A 
BRANCH   7  11
HETATM   11  O   UNL     1     -56.991  45.131   8.191  1.00  0.00    -0.358 OA
HETATM   12  H   UNL     1     -57.874  45.438   8.132  1.00  0.00     0.217 HD
ENDBRANCH   7  11
BRANCH   8  13
HETATM   13  O   UNL     1     -54.373  44.232   8.429  1.00  0.00    -0.358 OA
HETATM   14  H   UNL     1     -54.154  43.654   9.135  1.00  0.00     0.217 HD
ENDBRANCH   8  13
ENDBRANCH   4   5
ENDBRANCH   3   4
BRANCH   3  15
HETATM   15  C   UNL     1     -54.193  51.685   9.189  1.00  0.00     0.203 C 
HETATM   16  O   UNL     1     -54.637  51.551   7.912  1.00  0.00    -0.646 OA
HETATM   17  O   UNL     1     -53.667  52.708   9.607  1.00  0.00    -0.646 OA
ENDBRANCH   3  15
ENDBRANCH   1   3
TORSDOF 6
ENDMDL
MODEL 3
REMARK VINA RESULT:      -8.3      1.816      3.126
REMARK  6 active torsions:
REMARK  status: ('A' for Active; 'I' for Inactive)
REMARK    1  A    between atoms: O_1  and  C_8 
REMARK    2  A    between atoms: O_2  and  C_11 
REMARK    3  A    between atoms: O_3  and  C_13 
REMARK    4  A    between atoms: C_6  and  C_7 
REMARK    5  A    between atoms: C_6  and  C_8 
REMARK    6  A    between atoms: C_8  and  C_14 
ROOT
HETATM    1  O   UNL     1     -55.160  48.898   8.007  1.00  0.00    -0.385 OA
HETATM    2  H   UNL     1     -55.997  49.109   7.566  1.00  0.00     0.210 HD
ENDROOT
BRANCH   1   3
HETATM    3  C   UNL     1     -55.172  49.432   9.326  1.00  0.00     0.223 C 
BRANCH   3   4
HETATM    4  C   UNL     1     -54.442  48.451  10.257  1.00  0.00     0.081 C 
BRANCH   4   5
HETATM    5  C   UNL     1     -53.718  47.382   9.513  1.00  0.00    -0.052 A 
HETATM    6  C   UNL     1     -54.358  46.176   9.226  1.00  0.00     0.046 A 
HETATM    7  C   UNL     1     -53.679  45.175   8.529  1.00  0.00     0.099 A 
HETATM    8  C   UNL     1     -52.362  45.381   8.120  1.00  0.00     0.098 A 
HETATM    9  C   UNL     1     -51.722  46.586   8.409  1.00  0.00     0.040 A 
HETATM   10  C   UNL     1     -52.400  47.586   9.105  1.00  0.00     0.010 A 
BRANCH   7  11
HETATM   11  O   UNL     1     -54.315  44.003   8.254  1.00  0.00    -0.358 OA
HETATM   12  H   UNL     1     -54.514  43.405   8.946  1.00  0.00     0.217 HD
ENDBRANCH   7  11
BRANCH   8  13
HETATM   13  O   UNL     1     -51.690  44.411   7.439  1.00  0.00    -0.358 OA
HETATM   14  H   UNL     1     -51.292  44.608   6.613  1.00  0.00     0.217 HD
ENDBRANCH   8  13
ENDBRANCH   4   5
ENDBRANCH   3   4
BRANCH   3  15
HETATM   15  C   UNL     1     -54.472  50.776   9.280  1.00  0.00     0.203 C 
HETATM   16  O   UNL     1     -53.848  51.067  10.450  1.00  0.00    -0.646 OA
HETATM   17  O   UNL     1     -54.473  51.532   8.319  1.00  0.00    -0.646 OA
ENDBRANCH   3  15
ENDBRANCH   1   3
TORSDOF 6
ENDMDL
MODEL 4
REMARK VINA RESULT:      -8.1      1.412      2.501
REMARK  6 active torsions:
REMARK  status: ('A' for Active; 'I' for Inactive)
REMARK    1  A    between atoms: O_1  and  C_8 
REMARK    2  A    between atoms: O_2  and  C_11 
REMARK    3  A    between atoms: O_3  and  C_13 
REMARK    4  A    between atoms: C_6  and  C_7 
REMARK    5  A    between atoms: C_6  and  C_8 
REMARK    6  A    between atoms: C_8  and  C_14 
ROOT
HETATM    1  O   UNL     1     -54.853  49.294   8.177  1.00  0.00    -0.385 OA
HETATM    2  H   UNL     1     -55.230  48.408   8.059  1.00  0.00     0.210 HD
ENDROOT
BRANCH   1   3
HETATM    3  C   UNL     1     -54.669  49.548   9.565  1.00  0.00     0.223 C 
BRANCH   3   4
HETATM    4  C   UNL     1     -53.742  48.465  10.141  1.00  0.00     0.081 C 
BRANCH   4   5
HETATM    5  C   UNL     1     -53.866  47.163   9.426  1.00  0.00    -0.052 A 
HETATM    6  C   UNL     1     -55.119  46.707   9.018  1.00  0.00     0.046 A 
HETATM    7  C   UNL     1     -55.235  45.488   8.349  1.00  0.00     0.099 A 
HETATM    8  C   UNL     1     -54.097  44.725   8.090  1.00  0.00     0.098 A 
HETATM    9  C   UNL     1     -52.843  45.180   8.499  1.00  0.00     0.040 A 
HETATM   10  C   UNL     1     -52.728  46.399   9.167  1.00  0.00     0.010 A 
BRANCH   7  11
HETATM   11  O   UNL     1     -56.464  45.055   7.955  1.00  0.00    -0.358 OA
HETATM   12  H   UNL     1     -56.998  44.562   8.546  1.00  0.00     0.217 HD
ENDBRANCH   7  11
BRANCH   8  13
HETATM   13  O   UNL     1     -54.198  43.534   7.436  1.00  0.00    -0.358 OA
HETATM   14  H   UNL     1     -54.353  42.746   7.920  1.00  0.00     0.217 HD
ENDBRANCH   8  13
ENDBRANCH   4   5
ENDBRANCH   3   4
BRANCH   3  15
HETATM   15  C   UNL     1     -54.056  50.928   9.699  1.00  0.00     0.203 C 
HETATM   16  O   UNL     1     -53.739  51.466   8.493  1.00  0.00    -0.646 OA
HETATM   17  O   UNL     1     -53.847  51.500  10.760  1.00  0.00    -0.646 OA
ENDBRANCH   3  15
ENDBRANCH   1   3
TORSDOF 6
ENDMDL
MODEL 5
REMARK VINA RESULT:      -7.8      2.112      3.061
REMARK  6 active torsions:
REMARK  status: ('A' for Active; 'I' for Inactive)
REMARK    1  A    between atoms: O_1  and  C_8 
REMARK    2  A    between atoms: O_2  and  C_11 
REMARK    3  A    between atoms: O_3  and  C_13 
REMARK    4  A    between atoms: C_6  and  C_7 
REMARK    5  A    between atoms: C_6  and  C_8 
REMARK    6  A    between atoms: C_8  and  C_14 
ROOT
HETATM    1  O   UNL     1     -55.040  48.923   8.084  1.00  0.00    -0.385 OA
HETATM    2  H   UNL     1     -54.568  49.420   7.398  1.00  0.00     0.210 HD
ENDROOT
BRANCH   1   3
HETATM    3  C   UNL     1     -54.327  49.016   9.311  1.00  0.00     0.223 C 
BRANCH   3   4
HETATM    4  C   UNL     1     -53.005  48.244   9.169  1.00  0.00     0.081 C 
BRANCH   4   5
HETATM    5  C   UNL     1     -53.108  46.836   9.646  1.00  0.00    -0.052 A 
HETATM    6  C   UNL     1     -53.470  45.822   8.758  1.00  0.00     0.046 A 
HETATM    7  C   UNL     1     -53.567  44.504   9.205  1.00  0.00     0.099 A 
HETATM    8  C   UNL     1     -53.302  44.200  10.540  1.00  0.00     0.098 A 
HETATM    9  C   UNL     1     -52.941  45.214  11.429  1.00  0.00     0.040 A 
HETATM   10  C   UNL     1     -52.844  46.531  10.981  1.00  0.00     0.010 A 
BRANCH   7  11
HETATM   11  O   UNL     1     -53.920  43.524   8.329  1.00  0.00    -0.358 OA
HETATM   12  H   UNL     1     -53.370  43.331   7.596  1.00  0.00     0.217 HD
ENDBRANCH   7  11
BRANCH   8  13
HETATM   13  O   UNL     1     -53.392  42.917  10.988  1.00  0.00    -0.358 OA
HETATM   14  H   UNL     1     -53.319  42.734  11.905  1.00  0.00     0.217 HD
ENDBRANCH   8  13
ENDBRANCH   4   5
ENDBRANCH   3   4
BRANCH   3  15
HETATM   15  C   UNL     1     -54.082  50.486   9.586  1.00  0.00     0.203 C 
HETATM   16  O   UNL     1     -53.880  51.193   8.445  1.00  0.00    -0.646 OA
HETATM   17  O   UNL     1     -54.047  50.992  10.700  1.00  0.00    -0.646 OA
ENDBRANCH   3  15
ENDBRANCH   1   3
TORSDOF 6
ENDMDL
MODEL 6
REMARK VINA RESULT:      -7.8      1.799      2.663
REMARK  6 active torsions:
REMARK  status: ('A' for Active; 'I' for Inactive)
REMARK    1  A    between atoms: O_1  and  C_8 
REMARK    2  A    between atoms: O_2  and  C_11 
REMARK    3  A    between atoms: O_3  and  C_13 
REMARK    4  A    between atoms: C_6  and  C_7 
REMARK    5  A    between atoms: C_6  and  C_8 
REMARK    6  A    between atoms: C_8  and  C_14 
ROOT
HETATM    1  O   UNL     1     -55.041  49.097   8.016  1.00  0.00    -0.385 OA
HETATM    2  H   UNL     1     -55.181  49.903   7.496  1.00  0.00     0.210 HD
ENDROOT
BRANCH   1   3
HETATM    3  C   UNL     1     -54.597  49.446   9.321  1.00  0.00     0.223 C 
BRANCH   3   4
HETATM    4  C   UNL     1     -53.348  48.612   9.652  1.00  0.00     0.081 C 
BRANCH   4   5
HETATM    5  C   UNL     1     -53.473  47.193   9.215  1.00  0.00    -0.052 A 
HETATM    6  C   UNL     1     -52.357  46.512   8.728  1.00  0.00     0.046 A 
HETATM    7  C   UNL     1     -52.474  45.184   8.317  1.00  0.00     0.099 A 
HETATM    8  C   UNL     1     -53.707  44.537   8.394  1.00  0.00     0.098 A 
HETATM    9  C   UNL     1     -54.823  45.217   8.881  1.00  0.00     0.040 A 
HETATM   10  C   UNL     1     -54.706  46.545   9.291  1.00  0.00     0.010 A 
BRANCH   7  11
HETATM   11  O   UNL     1     -51.377  44.530   7.845  1.00  0.00    -0.358 OA
HETATM   12  H   UNL     1     -51.244  44.446   6.922  1.00  0.00     0.217 HD
ENDBRANCH   7  11
BRANCH   8  13
HETATM   13  O   UNL     1     -53.833  43.239   7.998  1.00  0.00    -0.358 OA
HETATM   14  H   UNL     1     -53.952  43.036   7.091  1.00  0.00     0.217 HD
ENDBRANCH   8  13
ENDBRANCH   4   5
ENDBRANCH   3   4
BRANCH   3  15
HETATM   15  C   UNL     1     -54.285  50.929   9.316  1.00  0.00     0.203 C 
HETATM   16  O   UNL     1     -53.828  51.361  10.519  1.00  0.00    -0.646 OA
HETATM   17  O   UNL     1     -54.438  51.672   8.356  1.00  0.00    -0.646 OA
ENDBRANCH   3  15
ENDBRANCH   1   3
TORSDOF 6
ENDMDL
MODEL 7
REMARK VINA RESULT:      -7.3      2.949      6.400
REMARK  6 active torsions:
REMARK  status: ('A' for Active; 'I' for Inactive)
REMARK    1  A    between atoms: O_1  and  C_8 
REMARK    2  A    between atoms: O_2  and  C_11 
REMARK    3  A    between atoms: O_3  and  C_13 
REMARK    4  A    between atoms: C_6  and  C_7 
REMARK    5  A    between atoms: C_6  and  C_8 
REMARK    6  A    between atoms: C_8  and  C_14 
ROOT
HETATM    1  O   UNL     1     -52.868  45.043   6.892  1.00  0.00    -0.385 OA
HETATM    2  H   UNL     1     -52.134  44.439   6.704  1.00  0.00     0.210 HD
ENDROOT
BRANCH   1   3
HETATM    3  C   UNL     1     -53.983  44.300   7.370  1.00  0.00     0.223 C 
BRANCH   3   4
HETATM    4  C   UNL     1     -54.868  45.234   8.213  1.00  0.00     0.081 C 
BRANCH   4   5
HETATM    5  C   UNL     1     -54.131  45.849   9.353  1.00  0.00    -0.052 A 
HETATM    6  C   UNL     1     -54.051  47.237   9.465  1.00  0.00     0.046 A 
HETATM    7  C   UNL     1     -53.360  47.813  10.532  1.00  0.00     0.099 A 
HETATM    8  C   UNL     1     -52.751  47.000  11.487  1.00  0.00     0.098 A 
HETATM    9  C   UNL     1     -52.831  45.612  11.375  1.00  0.00     0.040 A 
HETATM   10  C   UNL     1     -53.521  45.037  10.309  1.00  0.00     0.010 A 
BRANCH   7  11
HETATM   11  O   UNL     1     -53.290  49.169  10.630  1.00  0.00    -0.358 OA
HETATM   12  H   UNL     1     -52.616  49.637  10.178  1.00  0.00     0.217 HD
ENDBRANCH   7  11
BRANCH   8  13
HETATM   13  O   UNL     1     -52.076  47.550  12.535  1.00  0.00    -0.358 OA
HETATM   14  H   UNL     1     -52.053  47.110  13.361  1.00  0.00     0.217 HD
ENDBRANCH   8  13
ENDBRANCH   4   5
ENDBRANCH   3   4
BRANCH   3  15
HETATM   15  C   UNL     1     -54.731  43.771   6.163  1.00  0.00     0.203 C 
HETATM   16  O   UNL     1     -54.492  44.509   5.049  1.00  0.00    -0.646 OA
HETATM   17  O   UNL     1     -55.481  42.804   6.175  1.00  0.00    -0.646 OA
ENDBRANCH   3  15
ENDBRANCH   1   3
TORSDOF 6
ENDMDL
MODEL 8
REMARK VINA RESULT:      -7.2      2.900      3.977
REMARK  6 active torsions:
REMARK  status: ('A' for Active; 'I' for Inactive)
REMARK    1  A    between atoms: O_1  and  C_8 
REMARK    2  A    between atoms: O_2  and  C_11 
REMARK    3  A    between atoms: O_3  and  C_13 
REMARK    4  A    between atoms: C_6  and  C_7 
REMARK    5  A    between atoms: C_6  and  C_8 
REMARK    6  A    between atoms: C_8  and  C_14 
ROOT
HETATM    1  O   UNL     1     -55.123  48.777   8.074  1.00  0.00    -0.385 OA
HETATM    2  H   UNL     1     -54.856  49.350   7.339  1.00  0.00     0.210 HD
ENDROOT
BRANCH   1   3
HETATM    3  C   UNL     1     -54.282  49.022   9.195  1.00  0.00     0.223 C 
BRANCH   3   4
HETATM    4  C   UNL     1     -52.920  48.357   8.940  1.00  0.00     0.081 C 
BRANCH   4   5
HETATM    5  C   UNL     1     -52.670  47.196   9.839  1.00  0.00    -0.052 A 
HETATM    6  C   UNL     1     -52.750  47.355  11.223  1.00  0.00     0.046 A 
HETATM    7  C   UNL     1     -52.515  46.267  12.065  1.00  0.00     0.099 A 
HETATM    8  C   UNL     1     -52.199  45.022  11.524  1.00  0.00     0.098 A 
HETATM    9  C   UNL     1     -52.117  44.863  10.140  1.00  0.00     0.040 A 
HETATM   10  C   UNL     1     -52.353  45.949   9.298  1.00  0.00     0.010 A 
BRANCH   7  11
HETATM   11  O   UNL     1     -52.598  46.435  13.414  1.00  0.00    -0.358 OA
HETATM   12  H   UNL     1     -51.896  46.845  13.879  1.00  0.00     0.217 HD
ENDBRANCH   7  11
BRANCH   8  13
HETATM   13  O   UNL     1     -51.969  43.953  12.336  1.00  0.00    -0.358 OA
HETATM   14  H   UNL     1     -52.445  43.862  13.138  1.00  0.00     0.217 HD
ENDBRANCH   8  13
ENDBRANCH   4   5
ENDBRANCH   3   4
BRANCH   3  15
HETATM   15  C   UNL     1     -54.145  50.524   9.343  1.00  0.00     0.203 C 
HETATM   16  O   UNL     1     -53.952  50.896  10.635  1.00  0.00    -0.646 OA
HETATM   17  O   UNL     1     -54.215  51.326   8.422  1.00  0.00    -0.646 OA
ENDBRANCH   3  15
ENDBRANCH   1   3
TORSDOF 6
ENDMDL
MODEL 9
REMARK VINA RESULT:      -7.1      2.584      5.883
REMARK  6 active torsions:
REMARK  status: ('A' for Active; 'I' for Inactive)
REMARK    1  A    between atoms: O_1  and  C_8 
REMARK    2  A    between atoms: O_2  and  C_11 
REMARK    3  A    between atoms: O_3  and  C_13 
REMARK    4  A    between atoms: C_6  and  C_7 
REMARK    5  A    between atoms: C_6  and  C_8 
REMARK    6  A    between atoms: C_8  and  C_14 
ROOT
HETATM    1  O   UNL     1     -52.504  45.351   6.921  1.00  0.00    -0.385 OA
HETATM    2  H   UNL     1     -52.214  45.275   5.999  1.00  0.00     0.210 HD
ENDROOT
BRANCH   1   3
HETATM    3  C   UNL     1     -53.085  44.122   7.339  1.00  0.00     0.223 C 
BRANCH   3   4
HETATM    4  C   UNL     1     -53.648  44.305   8.758  1.00  0.00     0.081 C 
BRANCH   4   5
HETATM    5  C   UNL     1     -54.219  45.663   8.980  1.00  0.00    -0.052 A 
HETATM    6  C   UNL     1     -53.472  46.634   9.647  1.00  0.00     0.046 A 
HETATM    7  C   UNL     1     -54.006  47.906   9.855  1.00  0.00     0.099 A 
HETATM    8  C   UNL     1     -55.288  48.206   9.395  1.00  0.00     0.098 A 
HETATM    9  C   UNL     1     -56.036  47.236   8.728  1.00  0.00     0.040 A 
HETATM   10  C   UNL     1     -55.501  45.965   8.520  1.00  0.00     0.010 A 
BRANCH   7  11
HETATM   11  O   UNL     1     -53.267  48.844  10.508  1.00  0.00    -0.358 OA
HETATM   12  H   UNL     1     -52.333  48.783  10.514  1.00  0.00     0.217 HD
ENDBRANCH   7  11
BRANCH   8  13
HETATM   13  O   UNL     1     -55.820  49.445   9.591  1.00  0.00    -0.358 OA
HETATM   14  H   UNL     1     -56.618  49.686   9.163  1.00  0.00     0.217 HD
ENDBRANCH   8  13
ENDBRANCH   4   5
ENDBRANCH   3   4
BRANCH   3  15
HETATM   15  C   UNL     1     -54.180  43.775   6.351  1.00  0.00     0.203 C 
HETATM   16  O   UNL     1     -54.094  44.510   5.212  1.00  0.00    -0.646 OA
HETATM   17  O   UNL     1     -55.060  42.946   6.544  1.00  0.00    -0.646 OA
ENDBRANCH   3  15
ENDBRANCH   1   3
TORSDOF 6
ENDMDL
