MODEL 1
REMARK VINA RESULT:      -8.8      0.000      0.000
REMARK  6 active torsions:
REMARK  status: ('A' for Active; 'I' for Inactive)
REMARK    1  A    between atoms: O_1  and  C_8 
REMARK    2  A    between atoms: O_2  and  C_11 
REMARK    3  A    between atoms: O_3  and  C_13 
REMARK    4  A    between atoms: C_6  and  C_7 
REMARK    5  A    between atoms: C_6  and  C_8 
REMARK    6  A    between atoms: C_8  and  C_14 
ROOT
HETATM    1  O   UNL     1     -54.577  51.291   8.097  1.00  0.00    -0.385 OA
HETATM    2  H   UNL     1     -55.064  50.643   7.564  1.00  0.00     0.210 HD
ENDROOT
BRANCH   1   3
HETATM    3  C   UNL     1     -54.720  50.973   9.476  1.00  0.00     0.223 C 
BRANCH   3   4
HETATM    4  C   UNL     1     -54.031  49.624   9.740  1.00  0.00     0.081 C 
BRANCH   4   5
HETATM    5  C   UNL     1     -54.907  48.460   9.429  1.00  0.00    -0.052 A 
HETATM    6  C   UNL     1     -54.343  47.213   9.161  1.00  0.00     0.046 A 
HETATM    7  C   UNL     1     -55.163  46.123   8.868  1.00  0.00     0.099 A 
HETATM    8  C   UNL     1     -56.549  46.281   8.845  1.00  0.00     0.098 A 
HETATM    9  C   UNL     1     -57.114  47.528   9.113  1.00  0.00     0.040 A 
HETATM   10  C   UNL     1     -56.294  48.617   9.405  1.00  0.00     0.010 A 
BRANCH   7  11
HETATM   11  O   UNL     1     -54.600  44.911   8.609  1.00  0.00    -0.358 OA
HETATM   12  H   UNL     1     -55.134  44.142   8.586  1.00  0.00     0.217 HD
ENDBRANCH   7  11
BRANCH   8  13
HETATM   13  O   UNL     1     -57.361  45.223   8.562  1.00  0.00    -0.358 OA
HETATM   14  H   UNL     1     -58.189  45.141   8.992  1.00  0.00     0.217 HD
ENDBRANCH   8  13
ENDBRANCH   4   5
ENDBRANCH   3   4
BRANCH   3  15
HETATM   15  C   UNL     1     -54.075  52.089  10.271  1.00  0.00     0.203 C 
HETATM   16  O   UNL     1     -53.689  53.124   9.481  1.00  0.00    -0.646 OA
HETATM   17  O   UNL     1     -53.895  52.071  11.482  1.00  0.00    -0.646 OA
ENDBRANCH   3  15
ENDBRANCH   1   3
TORSDOF 6
ENDMDL
MODEL 2
REMARK VINA RESULT:      -8.6      0.880      2.236
REMARK  6 active torsions:
REMARK  status: ('A' for Active; 'I' for Inactive)
REMARK    1  A    between atoms: O_1  and  C_8 
REMARK    2  A    between atoms: O_2  and  C_11 
REMARK    3  A    between atoms: O_3  and  C_13 
REMARK    4  A    between atoms: C_6  and  C_7 
REMARK    5  A    between atoms: C_6  and  C_8 
REMARK    6  A    between atoms: C_8  and  C_14 
ROOT
HETATM    1  O   UNL     1     -54.676  50.739  11.335  1.00  0.00    -0.385 OA
HETATM    2  H   UNL     1     -54.958  51.666  11.359  1.00  0.00     0.210 HD
ENDROOT
BRANCH   1   3
HETATM    3  C   UNL     1     -54.396  50.364   9.992  1.00  0.00     0.223 C 
BRANCH   3   4
HETATM    4  C   UNL     1     -55.597  49.577   9.443  1.00  0.00     0.081 C 
BRANCH   4   5
HETATM    5  C   UNL     1     -55.271  48.150   9.165  1.00  0.00    -0.052 A 
HETATM    6  C   UNL     1     -56.280  47.265   8.781  1.00  0.00     0.046 A 
HETATM    7  C   UNL     1     -55.974  45.929   8.522  1.00  0.00     0.099 A 
HETATM    8  C   UNL     1     -54.661  45.477   8.647  1.00  0.00     0.098 A 
HETATM    9  C   UNL     1     -53.652  46.361   9.031  1.00  0.00     0.040 A 
HETATM   10  C   UNL     1     -53.958  47.697   9.290  1.00  0.00     0.010 A 
BRANCH   7  11
HETATM   11  O   UNL     1     -56.967  45.076   8.148  1.00  0.00    -0.358 OA
HETATM   12  H   UNL     1     -56.774  44.348   7.590  1.00  0.00     0.217 HD
ENDBRANCH   7  11
BRANCH   8  13
HETATM   13  O   UNL     1     -54.350  44.175   8.395  1.00  0.00    -0.358 OA
HETATM   14  H   UNL     1     -54.614  43.505   8.996  1.00  0.00     0.217 HD
ENDBRANCH   8  13
ENDBRANCH   4   5
ENDBRANCH   3   4
BRANCH   3  15
HETATM   15  C   UNL     1     -54.160  51.635   9.202  1.00  0.00     0.203 C 
HETATM   16  O   UNL     1     -54.651  51.552   7.939  1.00  0.00    -0.646 OA
HETATM   17  O   UNL     1     -53.582  52.626   9.628  1.00  0.00    -0.646 OA
ENDBRANCH   3  15
ENDBRANCH   1   3
TORSDOF 6
ENDMDL
MODEL 3
REMARK VINA RESULT:      -8.3      1.814      3.123
REMARK  6 active torsions:
REMARK  status: ('A' for Active; 'I' for Inactive)
REMARK    1  A    between atoms: O_1  and  C_8 
REMARK    2  A    between atoms: O_2  and  C_11 
REMARK    3  A    between atoms: O_3  and  C_13 
REMARK    4  A    between atoms: C_6  and  C_7 
REMARK    5  A    between atoms: C_6  and  C_8 
REMARK    6  A    between atoms: C_8  and  C_14 
ROOT
HETATM    1  O   UNL     1     -55.152  48.897   8.016  1.00  0.00    -0.385 OA
HETATM    2  H   UNL     1     -55.735  49.426   7.450  1.00  0.00     0.210 HD
ENDROOT
BRANCH   1   3
HETATM    3  C   UNL     1     -55.157  49.432   9.334  1.00  0.00     0.223 C 
BRANCH   3   4
HETATM    4  C   UNL     1     -54.420  48.452  10.262  1.00  0.00     0.081 C 
BRANCH   4   5
HETATM    5  C   UNL     1     -53.708  47.378   9.514  1.00  0.00    -0.052 A 
HETATM    6  C   UNL     1     -54.356  46.174   9.235  1.00  0.00     0.046 A 
HETATM    7  C   UNL     1     -53.689  45.168   8.535  1.00  0.00     0.099 A 
HETATM    8  C   UNL     1     -52.374  45.366   8.116  1.00  0.00     0.098 A 
HETATM    9  C   UNL     1     -51.725  46.569   8.396  1.00  0.00     0.040 A 
HETATM   10  C   UNL     1     -52.392  47.574   9.095  1.00  0.00     0.010 A 
BRANCH   7  11
HETATM   11  O   UNL     1     -54.333  43.999   8.268  1.00  0.00    -0.358 OA
HETATM   12  H   UNL     1     -55.245  43.912   8.462  1.00  0.00     0.217 HD
ENDBRANCH   7  11
BRANCH   8  13
HETATM   13  O   UNL     1     -51.712  44.391   7.431  1.00  0.00    -0.358 OA
HETATM   14  H   UNL     1     -52.175  43.851   6.820  1.00  0.00     0.217 HD
ENDBRANCH   8  13
ENDBRANCH   4   5
ENDBRANCH   3   4
BRANCH   3  15
HETATM   15  C   UNL     1     -54.461  50.776   9.284  1.00  0.00     0.203 C 
HETATM   16  O   UNL     1     -53.845  51.078  10.456  1.00  0.00    -0.646 OA
HETATM   17  O   UNL     1     -54.456  51.526   8.317  1.00  0.00    -0.646 OA
ENDBRANCH   3  15
ENDBRANCH   1   3
TORSDOF 6
ENDMDL
MODEL 4
REMARK VINA RESULT:      -7.8      2.131      3.068
REMARK  6 active torsions:
REMARK  status: ('A' for Active; 'I' for Inactive)
REMARK    1  A    between atoms: O_1  and  C_8 
REMARK    2  A    between atoms: O_2  and  C_11 
REMARK    3  A    between atoms: O_3  and  C_13 
REMARK    4  A    between atoms: C_6  and  C_7 
REMARK    5  A    between atoms: C_6  and  C_8 
REMARK    6  A    between atoms: C_8  and  C_14 
ROOT
HETATM    1  O   UNL     1     -55.014  48.901   8.082  1.00  0.00    -0.385 OA
HETATM    2  H   UNL     1     -55.019  49.763   7.638  1.00  0.00     0.210 HD
ENDROOT
BRANCH   1   3
HETATM    3  C   UNL     1     -54.321  49.009   9.320  1.00  0.00     0.223 C 
BRANCH   3   4
HETATM    4  C   UNL     1     -52.991  48.247   9.203  1.00  0.00     0.081 C 
BRANCH   4   5
HETATM    5  C   UNL     1     -53.094  46.836   9.671  1.00  0.00    -0.052 A 
HETATM    6  C   UNL     1     -53.459  45.829   8.776  1.00  0.00     0.046 A 
HETATM    7  C   UNL     1     -53.557  44.508   9.214  1.00  0.00     0.099 A 
HETATM    8  C   UNL     1     -53.290  44.194  10.546  1.00  0.00     0.098 A 
HETATM    9  C   UNL     1     -52.926  45.200  11.441  1.00  0.00     0.040 A 
HETATM   10  C   UNL     1     -52.828  46.521  11.003  1.00  0.00     0.010 A 
BRANCH   7  11
HETATM   11  O   UNL     1     -53.913  43.535   8.331  1.00  0.00    -0.358 OA
HETATM   12  H   UNL     1     -53.339  43.308   7.627  1.00  0.00     0.217 HD
ENDBRANCH   7  11
BRANCH   8  13
HETATM   13  O   UNL     1     -53.380  42.907  10.985  1.00  0.00    -0.358 OA
HETATM   14  H   UNL     1     -53.054  42.677  11.833  1.00  0.00     0.217 HD
ENDBRANCH   8  13
ENDBRANCH   4   5
ENDBRANCH   3   4
BRANCH   3  15
HETATM   15  C   UNL     1     -54.092  50.483   9.587  1.00  0.00     0.203 C 
HETATM   16  O   UNL     1     -53.932  51.192   8.440  1.00  0.00    -0.646 OA
HETATM   17  O   UNL     1     -54.036  50.992  10.698  1.00  0.00    -0.646 OA
ENDBRANCH   3  15
ENDBRANCH   1   3
TORSDOF 6
ENDMDL
MODEL 5
REMARK VINA RESULT:      -7.8      1.807      2.674
REMARK  6 active torsions:
REMARK  status: ('A' for Active; 'I' for Inactive)
REMARK    1  A    between atoms: O_1  and  C_8 
REMARK    2  A    between atoms: O_2  and  C_11 
REMARK    3  A    between atoms: O_3  and  C_13 
REMARK    4  A    between atoms: C_6  and  C_7 
REMARK    5  A    between atoms: C_6  and  C_8 
REMARK    6  A    between atoms: C_8  and  C_14 
ROOT
HETATM    1  O   UNL     1     -55.037  49.068   8.028  1.00  0.00    -0.385 OA
HETATM    2  H   UNL     1     -55.855  49.543   7.814  1.00  0.00     0.210 HD
ENDROOT
BRANCH   1   3
HETATM    3  C   UNL     1     -54.607  49.429   9.335  1.00  0.00     0.223 C 
BRANCH   3   4
HETATM    4  C   UNL     1     -53.364  48.596   9.688  1.00  0.00     0.081 C 
BRANCH   4   5
HETATM    5  C   UNL     1     -53.476  47.178   9.242  1.00  0.00    -0.052 A 
HETATM    6  C   UNL     1     -52.349  46.502   8.776  1.00  0.00     0.046 A 
HETATM    7  C   UNL     1     -52.454  45.175   8.357  1.00  0.00     0.099 A 
HETATM    8  C   UNL     1     -53.687  44.525   8.406  1.00  0.00     0.098 A 
HETATM    9  C   UNL     1     -54.815  45.201   8.871  1.00  0.00     0.040 A 
HETATM   10  C   UNL     1     -54.709  46.528   9.289  1.00  0.00     0.010 A 
BRANCH   7  11
HETATM   11  O   UNL     1     -51.347  44.525   7.905  1.00  0.00    -0.358 OA
HETATM   12  H   UNL     1     -50.859  43.973   8.483  1.00  0.00     0.217 HD
ENDBRANCH   7  11
BRANCH   8  13
HETATM   13  O   UNL     1     -53.802  43.229   8.001  1.00  0.00    -0.358 OA
HETATM   14  H   UNL     1     -54.502  42.697   8.326  1.00  0.00     0.217 HD
ENDBRANCH   8  13
ENDBRANCH   4   5
ENDBRANCH   3   4
BRANCH   3  15
HETATM   15  C   UNL     1     -54.293  50.911   9.320  1.00  0.00     0.203 C 
HETATM   16  O   UNL     1     -53.851  51.353  10.525  1.00  0.00    -0.646 OA
HETATM   17  O   UNL     1     -54.432  51.645   8.350  1.00  0.00    -0.646 OA
ENDBRANCH   3  15
ENDBRANCH   1   3
TORSDOF 6
ENDMDL
MODEL 6
REMARK VINA RESULT:      -7.3      2.967      6.441
REMARK  6 active torsions:
REMARK  status: ('A' for Active; 'I' for Inactive)
REMARK    1  A    between atoms: O_1  and  C_8 
REMARK    2  A    between atoms: O_2  and  C_11 
REMARK    3  A    between atoms: O_3  and  C_13 
REMARK    4  A    between atoms: C_6  and  C_7 
REMARK    5  A    between atoms: C_6  and  C_8 
REMARK    6  A    between atoms: C_8  and  C_14 
ROOT
HETATM    1  O   UNL     1     -52.784  45.099   6.964  1.00  0.00    -0.385 OA
HETATM    2  H   UNL     1     -52.641  45.788   7.631  1.00  0.00     0.210 HD
ENDROOT
BRANCH   1   3
HETATM    3  C   UNL     1     -53.917  44.317   7.325  1.00  0.00     0.223 C 
BRANCH   3   4
HETATM    4  C   UNL     1     -54.837  45.172   8.212  1.00  0.00     0.081 C 
BRANCH   4   5
HETATM    5  C   UNL     1     -54.114  45.802   9.353  1.00  0.00    -0.052 A 
HETATM    6  C   UNL     1     -54.030  47.191   9.444  1.00  0.00     0.046 A 
HETATM    7  C   UNL     1     -53.351  47.781  10.512  1.00  0.00     0.099 A 
HETATM    8  C   UNL     1     -52.758  46.980  11.487  1.00  0.00     0.098 A 
HETATM    9  C   UNL     1     -52.841  45.591  11.395  1.00  0.00     0.040 A 
HETATM   10  C   UNL     1     -53.518  45.002  10.329  1.00  0.00     0.010 A 
BRANCH   7  11
HETATM   11  O   UNL     1     -53.277  49.138  10.590  1.00  0.00    -0.358 OA
HETATM   12  H   UNL     1     -53.183  49.554  11.424  1.00  0.00     0.217 HD
ENDBRANCH   7  11
BRANCH   8  13
HETATM   13  O   UNL     1     -52.094  47.545  12.535  1.00  0.00    -0.358 OA
HETATM   14  H   UNL     1     -51.174  47.712  12.472  1.00  0.00     0.217 HD
ENDBRANCH   8  13
ENDBRANCH   4   5
ENDBRANCH   3   4
BRANCH   3  15
HETATM   15  C   UNL     1     -54.613  43.903   6.045  1.00  0.00     0.203 C 
HETATM   16  O   UNL     1     -55.367  42.786   6.211  1.00  0.00    -0.646 OA
HETATM   17  O   UNL     1     -54.506  44.481   4.972  1.00  0.00    -0.646 OA
ENDBRANCH   3  15
ENDBRANCH   1   3
TORSDOF 6
ENDMDL
MODEL 7
REMARK VINA RESULT:      -7.1      2.441      3.308
REMARK  6 active torsions:
REMARK  status: ('A' for Active; 'I' for Inactive)
REMARK    1  A    between atoms: O_1  and  C_8 
REMARK    2  A    between atoms: O_2  and  C_11 
REMARK    3  A    between atoms: O_3  and  C_13 
REMARK    4  A    between atoms: C_6  and  C_7 
REMARK    5  A    between atoms: C_6  and  C_8 
REMARK    6  A    between atoms: C_8  and  C_14 
ROOT
HETATM    1  O   UNL     1     -55.083  48.918   8.055  1.00  0.00    -0.385 OA
HETATM    2  H   UNL     1     -54.914  49.709   7.521  1.00  0.00     0.210 HD
ENDROOT
BRANCH   1   3
HETATM    3  C   UNL     1     -54.348  49.001   9.271  1.00  0.00     0.223 C 
BRANCH   3   4
HETATM    4  C   UNL     1     -53.023  48.242   9.093  1.00  0.00     0.081 C 
BRANCH   4   5
HETATM    5  C   UNL     1     -53.087  46.846   9.610  1.00  0.00    -0.052 A 
HETATM    6  C   UNL     1     -52.607  46.552  10.887  1.00  0.00     0.046 A 
HETATM    7  C   UNL     1     -52.667  45.245  11.371  1.00  0.00     0.099 A 
HETATM    8  C   UNL     1     -53.204  44.232  10.578  1.00  0.00     0.098 A 
HETATM    9  C   UNL     1     -53.683  44.525   9.301  1.00  0.00     0.040 A 
HETATM   10  C   UNL     1     -53.624  45.831   8.817  1.00  0.00     0.010 A 
BRANCH   7  11
HETATM   11  O   UNL     1     -52.197  44.971  12.619  1.00  0.00    -0.358 OA
HETATM   12  H   UNL     1     -51.547  44.307  12.740  1.00  0.00     0.217 HD
ENDBRANCH   7  11
BRANCH   8  13
HETATM   13  O   UNL     1     -53.269  42.952  11.040  1.00  0.00    -0.358 OA
HETATM   14  H   UNL     1     -54.065  42.627  11.414  1.00  0.00     0.217 HD
ENDBRANCH   8  13
ENDBRANCH   4   5
ENDBRANCH   3   4
BRANCH   3  15
HETATM   15  C   UNL     1     -54.110  50.469   9.560  1.00  0.00     0.203 C 
HETATM   16  O   UNL     1     -53.950  51.195   8.425  1.00  0.00    -0.646 OA
HETATM   17  O   UNL     1     -54.047  50.959  10.680  1.00  0.00    -0.646 OA
ENDBRANCH   3  15
ENDBRANCH   1   3
TORSDOF 6
ENDMDL
MODEL 8
REMARK VINA RESULT:      -7.1      2.542      5.854
REMARK  6 active torsions:
REMARK  status: ('A' for Active; 'I' for Inactive)
REMARK    1  A    between atoms: O_1  and  C_8 
REMARK    2  A    between atoms: O_2  and  C_11 
REMARK    3  A    between atoms: O_3  and  C_13 
REMARK    4  A    between atoms: C_6  and  C_7 
REMARK    5  A    between atoms: C_6  and  C_8 
REMARK    6  A    between atoms: C_8  and  C_14 
ROOT
HETATM    1  O   UNL     1     -52.482  45.388   6.984  1.00  0.00    -0.385 OA
HETATM    2  H   UNL     1     -52.757  45.594   6.076  1.00  0.00     0.210 HD
ENDROOT
BRANCH   1   3
HETATM    3  C   UNL     1     -53.073  44.160   7.391  1.00  0.00     0.223 C 
BRANCH   3   4
HETATM    4  C   UNL     1     -53.665  44.345   8.798  1.00  0.00     0.081 C 
BRANCH   4   5
HETATM    5  C   UNL     1     -54.234  45.707   9.007  1.00  0.00    -0.052 A 
HETATM    6  C   UNL     1     -53.486  46.681   9.669  1.00  0.00     0.046 A 
HETATM    7  C   UNL     1     -54.019  47.956   9.865  1.00  0.00     0.099 A 
HETATM    8  C   UNL     1     -55.299  48.255   9.400  1.00  0.00     0.098 A 
HETATM    9  C   UNL     1     -56.047  47.281   8.739  1.00  0.00     0.040 A 
HETATM   10  C   UNL     1     -55.514  46.007   8.542  1.00  0.00     0.010 A 
BRANCH   7  11
HETATM   11  O   UNL     1     -53.279  48.898  10.512  1.00  0.00    -0.358 OA
HETATM   12  H   UNL     1     -52.447  49.156  10.170  1.00  0.00     0.217 HD
ENDBRANCH   7  11
BRANCH   8  13
HETATM   13  O   UNL     1     -55.829  49.497   9.585  1.00  0.00    -0.358 OA
HETATM   14  H   UNL     1     -56.222  49.951   8.865  1.00  0.00     0.217 HD
ENDBRANCH   8  13
ENDBRANCH   4   5
ENDBRANCH   3   4
BRANCH   3  15
HETATM   15  C   UNL     1     -54.147  43.812   6.380  1.00  0.00     0.203 C 
HETATM   16  O   UNL     1     -54.008  44.511   5.224  1.00  0.00    -0.646 OA
HETATM   17  O   UNL     1     -55.053  43.012   6.570  1.00  0.00    -0.646 OA
ENDBRANCH   3  15
ENDBRANCH   1   3
TORSDOF 6
ENDMDL
MODEL 9
REMARK VINA RESULT:      -6.9      3.425      4.726
REMARK  6 active torsions:
REMARK  status: ('A' for Active; 'I' for Inactive)
REMARK    1  A    between atoms: O_1  and  C_8 
REMARK    2  A    between atoms: O_2  and  C_11 
REMARK    3  A    between atoms: O_3  and  C_13 
REMARK    4  A    between atoms: C_6  and  C_7 
REMARK    5  A    between atoms: C_6  and  C_8 
REMARK    6  A    between atoms: C_8  and  C_14 
ROOT
HETATM    1  O   UNL     1     -52.908  48.269   8.076  1.00  0.00    -0.385 OA
HETATM    2  H   UNL     1     -53.748  48.434   7.620  1.00  0.00     0.210 HD
ENDROOT
BRANCH   1   3
HETATM    3  C   UNL     1     -53.133  47.414   9.190  1.00  0.00     0.223 C 
BRANCH   3   4
HETATM    4  C   UNL     1     -51.937  46.457   9.321  1.00  0.00     0.081 C 
BRANCH   4   5
HETATM    5  C   UNL     1     -52.167  45.153   8.636  1.00  0.00    -0.052 A 
HETATM    6  C   UNL     1     -53.406  44.876   8.060  1.00  0.00     0.046 A 
HETATM    7  C   UNL     1     -53.621  43.655   7.419  1.00  0.00     0.099 A 
HETATM    8  C   UNL     1     -52.596  42.711   7.357  1.00  0.00     0.098 A 
HETATM    9  C   UNL     1     -51.357  42.988   7.934  1.00  0.00     0.040 A 
HETATM   10  C   UNL     1     -51.142  44.208   8.574  1.00  0.00     0.010 A 
BRANCH   7  11
HETATM   11  O   UNL     1     -54.835  43.397   6.860  1.00  0.00    -0.358 OA
HETATM   12  H   UNL     1     -55.475  44.077   6.796  1.00  0.00     0.217 HD
ENDBRANCH   7  11
BRANCH   8  13
HETATM   13  O   UNL     1     -52.794  41.516   6.733  1.00  0.00    -0.358 OA
HETATM   14  H   UNL     1     -52.754  40.719   7.225  1.00  0.00     0.217 HD
ENDBRANCH   8  13
ENDBRANCH   4   5
ENDBRANCH   3   4
BRANCH   3  15
HETATM   15  C   UNL     1     -53.277  48.291  10.417  1.00  0.00     0.203 C 
HETATM   16  O   UNL     1     -52.847  47.668  11.544  1.00  0.00    -0.646 OA
HETATM   17  O   UNL     1     -53.740  49.423  10.417  1.00  0.00    -0.646 OA
ENDBRANCH   3  15
ENDBRANCH   1   3
TORSDOF 6
ENDMDL
