MODEL 1
REMARK VINA RESULT:     -18.5      0.000      0.000
REMARK  5 active torsions:
REMARK  status: ('A' for Active; 'I' for Inactive)
REMARK    1  A    between atoms: O_1  and  C_10 
REMARK    2  A    between atoms: O_2  and  C_12 
REMARK    3  A    between atoms: C_5  and  C_6 
REMARK    4  A    between atoms: C_5  and  C_7 
REMARK    5  A    between atoms: C_7  and  C_13 
ROOT
HETATM    1  O   UNL     1     -54.116  49.175   8.011  1.00  0.00    -0.358 OA
HETATM    2  H   UNL     1     -53.390  48.695   7.667  1.00  0.00     0.217 HD
ENDROOT
BRANCH   1   3
HETATM    3  C   UNL     1     -53.983  49.869   9.176  1.00  0.00     0.099 A 
HETATM    4  C   UNL     1     -53.775  49.175  10.367  1.00  0.00     0.046 A 
HETATM    5  C   UNL     1     -53.638  49.874  11.567  1.00  0.00    -0.055 A 
HETATM    6  C   UNL     1     -53.710  51.268  11.573  1.00  0.00     0.010 A 
HETATM    7  C   UNL     1     -53.918  51.961  10.382  1.00  0.00     0.040 A 
HETATM    8  C   UNL     1     -54.055  51.262   9.183  1.00  0.00     0.098 A 
BRANCH   5   9
HETATM    9  C   UNL     1     -53.415  49.132  12.841  1.00  0.00     0.049 C 
BRANCH   9  10
HETATM   10  C   UNL     1     -53.218  50.043  14.059  1.00  0.00     0.117 C 
BRANCH  10  11
HETATM   11  C   UNL     1     -53.033  49.245  15.327  1.00  0.00     0.172 C 
HETATM   12  O   UNL     1     -54.206  48.944  15.937  1.00  0.00    -0.648 OA
HETATM   13  O   UNL     1     -51.943  48.883  15.751  1.00  0.00    -0.648 OA
ENDBRANCH  10  11
ENDBRANCH   9  10
ENDBRANCH   5   9
BRANCH   8  14
HETATM   14  O   UNL     1     -54.260  51.950   8.025  1.00  0.00    -0.358 OA
HETATM   15  H   UNL     1     -54.978  52.547   7.956  1.00  0.00     0.217 HD
ENDBRANCH   8  14
ENDBRANCH   1   3
TORSDOF 5
ENDMDL
MODEL 2
REMARK VINA RESULT:     -17.9      2.121      5.598
REMARK  5 active torsions:
REMARK  status: ('A' for Active; 'I' for Inactive)
REMARK    1  A    between atoms: O_1  and  C_10 
REMARK    2  A    between atoms: O_2  and  C_12 
REMARK    3  A    between atoms: C_5  and  C_6 
REMARK    4  A    between atoms: C_5  and  C_7 
REMARK    5  A    between atoms: C_7  and  C_13 
ROOT
HETATM    1  O   UNL     1     -53.854  52.021  13.062  1.00  0.00    -0.358 OA
HETATM    2  H   UNL     1     -54.266  52.481  12.357  1.00  0.00     0.217 HD
ENDROOT
BRANCH   1   3
HETATM    3  C   UNL     1     -53.548  50.701  12.927  1.00  0.00     0.099 A 
HETATM    4  C   UNL     1     -53.688  50.087  11.683  1.00  0.00     0.046 A 
HETATM    5  C   UNL     1     -53.379  48.736  11.533  1.00  0.00    -0.055 A 
HETATM    6  C   UNL     1     -52.928  47.998  12.628  1.00  0.00     0.010 A 
HETATM    7  C   UNL     1     -52.787  48.611  13.872  1.00  0.00     0.040 A 
HETATM    8  C   UNL     1     -53.097  49.963  14.022  1.00  0.00     0.098 A 
BRANCH   5   9
HETATM    9  C   UNL     1     -53.529  48.080  10.202  1.00  0.00     0.049 C 
BRANCH   9  10
HETATM   10  C   UNL     1     -54.902  48.301   9.556  1.00  0.00     0.117 C 
BRANCH  10  11
HETATM   11  C   UNL     1     -55.242  47.202   8.579  1.00  0.00     0.172 C 
HETATM   12  O   UNL     1     -54.481  47.238   7.458  1.00  0.00    -0.648 OA
HETATM   13  O   UNL     1     -56.097  46.350   8.784  1.00  0.00    -0.648 OA
ENDBRANCH  10  11
ENDBRANCH   9  10
ENDBRANCH   5   9
BRANCH   8  14
HETATM   14  O   UNL     1     -52.958  50.551  15.242  1.00  0.00    -0.358 OA
HETATM   15  H   UNL     1     -52.566  51.400  15.312  1.00  0.00     0.217 HD
ENDBRANCH   8  14
ENDBRANCH   1   3
TORSDOF 5
ENDMDL
MODEL 3
REMARK VINA RESULT:     -17.8      1.733      5.416
REMARK  5 active torsions:
REMARK  status: ('A' for Active; 'I' for Inactive)
REMARK    1  A    between atoms: O_1  and  C_10 
REMARK    2  A    between atoms: O_2  and  C_12 
REMARK    3  A    between atoms: C_5  and  C_6 
REMARK    4  A    between atoms: C_5  and  C_7 
REMARK    5  A    between atoms: C_7  and  C_13 
ROOT
HETATM    1  O   UNL     1     -52.675  47.825  14.242  1.00  0.00    -0.358 OA
HETATM    2  H   UNL     1     -52.121  47.150  13.902  1.00  0.00     0.217 HD
ENDROOT
BRANCH   1   3
HETATM    3  C   UNL     1     -53.054  48.862  13.445  1.00  0.00     0.099 A 
HETATM    4  C   UNL     1     -53.318  48.630  12.096  1.00  0.00     0.046 A 
HETATM    5  C   UNL     1     -53.706  49.684  11.270  1.00  0.00    -0.055 A 
HETATM    6  C   UNL     1     -53.829  50.971  11.793  1.00  0.00     0.010 A 
HETATM    7  C   UNL     1     -53.564  51.204  13.142  1.00  0.00     0.040 A 
HETATM    8  C   UNL     1     -53.177  50.150  13.969  1.00  0.00     0.098 A 
BRANCH   5   9
HETATM    9  C   UNL     1     -53.989  49.435   9.827  1.00  0.00     0.049 C 
BRANCH   9  10
HETATM   10  C   UNL     1     -55.289  48.660   9.578  1.00  0.00     0.117 C 
BRANCH  10  11
HETATM   11  C   UNL     1     -55.111  47.598   8.519  1.00  0.00     0.172 C 
HETATM   12  O   UNL     1     -55.691  46.420   8.853  1.00  0.00    -0.648 OA
HETATM   13  O   UNL     1     -54.529  47.786   7.459  1.00  0.00    -0.648 OA
ENDBRANCH  10  11
ENDBRANCH   9  10
ENDBRANCH   5   9
BRANCH   8  14
HETATM   14  O   UNL     1     -52.919  50.389  15.284  1.00  0.00    -0.358 OA
HETATM   15  H   UNL     1     -52.340  49.825  15.758  1.00  0.00     0.217 HD
ENDBRANCH   8  14
ENDBRANCH   1   3
TORSDOF 5
ENDMDL
MODEL 4
REMARK VINA RESULT:     -17.8      0.799      2.124
REMARK  5 active torsions:
REMARK  status: ('A' for Active; 'I' for Inactive)
REMARK    1  A    between atoms: O_1  and  C_10 
REMARK    2  A    between atoms: O_2  and  C_12 
REMARK    3  A    between atoms: C_5  and  C_6 
REMARK    4  A    between atoms: C_5  and  C_7 
REMARK    5  A    between atoms: C_7  and  C_13 
ROOT
HETATM    1  O   UNL     1     -54.330  51.518   8.299  1.00  0.00    -0.358 OA
HETATM    2  H   UNL     1     -53.667  52.137   8.064  1.00  0.00     0.217 HD
ENDROOT
BRANCH   1   3
HETATM    3  C   UNL     1     -54.043  50.510   9.169  1.00  0.00     0.099 A 
HETATM    4  C   UNL     1     -53.976  50.781  10.535  1.00  0.00     0.046 A 
HETATM    5  C   UNL     1     -53.682  49.758  11.435  1.00  0.00    -0.055 A 
HETATM    6  C   UNL     1     -53.457  48.462  10.969  1.00  0.00     0.010 A 
HETATM    7  C   UNL     1     -53.524  48.191   9.603  1.00  0.00     0.040 A 
HETATM    8  C   UNL     1     -53.818  49.214   8.703  1.00  0.00     0.098 A 
BRANCH   5   9
HETATM    9  C   UNL     1     -53.610  50.048  12.896  1.00  0.00     0.049 C 
BRANCH   9  10
HETATM   10  C   UNL     1     -52.922  48.947  13.712  1.00  0.00     0.117 C 
BRANCH  10  11
HETATM   11  C   UNL     1     -53.180  49.103  15.191  1.00  0.00     0.172 C 
HETATM   12  O   UNL     1     -52.081  48.862  15.946  1.00  0.00    -0.648 OA
HETATM   13  O   UNL     1     -54.260  49.438  15.661  1.00  0.00    -0.648 OA
ENDBRANCH  10  11
ENDBRANCH   9  10
ENDBRANCH   5   9
BRANCH   8  14
HETATM   14  O   UNL     1     -53.880  48.938   7.370  1.00  0.00    -0.358 OA
HETATM   15  H   UNL     1     -54.429  48.245   7.060  1.00  0.00     0.217 HD
ENDBRANCH   8  14
ENDBRANCH   1   3
TORSDOF 5
ENDMDL
MODEL 5
REMARK VINA RESULT:     -17.2      1.504      5.860
REMARK  5 active torsions:
REMARK  status: ('A' for Active; 'I' for Inactive)
REMARK    1  A    between atoms: O_1  and  C_10 
REMARK    2  A    between atoms: O_2  and  C_12 
REMARK    3  A    between atoms: C_5  and  C_6 
REMARK    4  A    between atoms: C_5  and  C_7 
REMARK    5  A    between atoms: C_7  and  C_13 
ROOT
HETATM    1  O   UNL     1     -52.984  50.522  15.295  1.00  0.00    -0.358 OA
HETATM    2  H   UNL     1     -53.575  50.348  16.000  1.00  0.00     0.217 HD
ENDROOT
BRANCH   1   3
HETATM    3  C   UNL     1     -53.040  49.774  14.158  1.00  0.00     0.099 A 
HETATM    4  C   UNL     1     -53.523  50.347  12.982  1.00  0.00     0.046 A 
HETATM    5  C   UNL     1     -53.587  49.590  11.812  1.00  0.00    -0.055 A 
HETATM    6  C   UNL     1     -53.166  48.260  11.818  1.00  0.00     0.010 A 
HETATM    7  C   UNL     1     -52.682  47.687  12.994  1.00  0.00     0.040 A 
HETATM    8  C   UNL     1     -52.619  48.444  14.164  1.00  0.00     0.098 A 
BRANCH   5   9
HETATM    9  C   UNL     1     -54.104  50.204  10.555  1.00  0.00     0.049 C 
BRANCH   9  10
HETATM   10  C   UNL     1     -54.997  49.267   9.733  1.00  0.00     0.117 C 
BRANCH  10  11
HETATM   11  C   UNL     1     -54.302  48.792   8.479  1.00  0.00     0.172 C 
HETATM   12  O   UNL     1     -53.098  49.383   8.288  1.00  0.00    -0.648 OA
HETATM   13  O   UNL     1     -54.763  47.944   7.726  1.00  0.00    -0.648 OA
ENDBRANCH  10  11
ENDBRANCH   9  10
ENDBRANCH   5   9
BRANCH   8  14
HETATM   14  O   UNL     1     -52.146  47.873  15.306  1.00  0.00    -0.358 OA
HETATM   15  H   UNL     1     -52.743  47.607  15.979  1.00  0.00     0.217 HD
ENDBRANCH   8  14
ENDBRANCH   1   3
TORSDOF 5
ENDMDL
MODEL 6
REMARK VINA RESULT:     -17.2      2.390      3.545
REMARK  5 active torsions:
REMARK  status: ('A' for Active; 'I' for Inactive)
REMARK    1  A    between atoms: O_1  and  C_10 
REMARK    2  A    between atoms: O_2  and  C_12 
REMARK    3  A    between atoms: C_5  and  C_6 
REMARK    4  A    between atoms: C_5  and  C_7 
REMARK    5  A    between atoms: C_7  and  C_13 
ROOT
HETATM    1  O   UNL     1     -52.616  48.265   6.373  1.00  0.00    -0.358 OA
HETATM    2  H   UNL     1     -51.764  48.653   6.418  1.00  0.00     0.217 HD
ENDROOT
BRANCH   1   3
HETATM    3  C   UNL     1     -53.398  48.209   7.487  1.00  0.00     0.099 A 
HETATM    4  C   UNL     1     -53.302  49.219   8.444  1.00  0.00     0.046 A 
HETATM    5  C   UNL     1     -54.096  49.172   9.589  1.00  0.00    -0.055 A 
HETATM    6  C   UNL     1     -54.988  48.116   9.776  1.00  0.00     0.010 A 
HETATM    7  C   UNL     1     -55.085  47.106   8.819  1.00  0.00     0.040 A 
HETATM    8  C   UNL     1     -54.290  47.153   7.674  1.00  0.00     0.098 A 
BRANCH   5   9
HETATM    9  C   UNL     1     -53.993  50.252  10.613  1.00  0.00     0.049 C 
BRANCH   9  10
HETATM   10  C   UNL     1     -53.639  49.741  12.015  1.00  0.00     0.117 C 
BRANCH  10  11
HETATM   11  C   UNL     1     -53.642  50.858  13.032  1.00  0.00     0.172 C 
HETATM   12  O   UNL     1     -53.558  50.409  14.307  1.00  0.00    -0.648 OA
HETATM   13  O   UNL     1     -53.688  52.045  12.738  1.00  0.00    -0.648 OA
ENDBRANCH  10  11
ENDBRANCH   9  10
ENDBRANCH   5   9
BRANCH   8  14
HETATM   14  O   UNL     1     -54.391  46.161   6.746  1.00  0.00    -0.358 OA
HETATM   15  H   UNL     1     -55.163  46.089   6.220  1.00  0.00     0.217 HD
ENDBRANCH   8  14
ENDBRANCH   1   3
TORSDOF 5
ENDMDL
MODEL 7
REMARK VINA RESULT:     -17.1      2.514      3.592
REMARK  5 active torsions:
REMARK  status: ('A' for Active; 'I' for Inactive)
REMARK    1  A    between atoms: O_1  and  C_10 
REMARK    2  A    between atoms: O_2  and  C_12 
REMARK    3  A    between atoms: C_5  and  C_6 
REMARK    4  A    between atoms: C_5  and  C_7 
REMARK    5  A    between atoms: C_7  and  C_13 
ROOT
HETATM    1  O   UNL     1     -55.999  46.169   8.764  1.00  0.00    -0.358 OA
HETATM    2  H   UNL     1     -56.901  46.401   8.869  1.00  0.00     0.217 HD
ENDROOT
BRANCH   1   3
HETATM    3  C   UNL     1     -55.051  47.144   8.680  1.00  0.00     0.099 A 
HETATM    4  C   UNL     1     -55.005  48.141   9.653  1.00  0.00     0.046 A 
HETATM    5  C   UNL     1     -54.040  49.145   9.578  1.00  0.00    -0.055 A 
HETATM    6  C   UNL     1     -53.119  49.150   8.530  1.00  0.00     0.010 A 
HETATM    7  C   UNL     1     -53.165  48.152   7.557  1.00  0.00     0.040 A 
HETATM    8  C   UNL     1     -54.130  47.148   7.632  1.00  0.00     0.098 A 
BRANCH   5   9
HETATM    9  C   UNL     1     -53.991  50.212  10.619  1.00  0.00     0.049 C 
BRANCH   9  10
HETATM   10  C   UNL     1     -53.643  49.693  12.019  1.00  0.00     0.117 C 
BRANCH  10  11
HETATM   11  C   UNL     1     -53.622  50.807  13.038  1.00  0.00     0.172 C 
HETATM   12  O   UNL     1     -53.363  50.368  14.293  1.00  0.00    -0.648 OA
HETATM   13  O   UNL     1     -53.794  51.987  12.759  1.00  0.00    -0.648 OA
ENDBRANCH  10  11
ENDBRANCH   9  10
ENDBRANCH   5   9
BRANCH   8  14
HETATM   14  O   UNL     1     -54.167  46.180   6.675  1.00  0.00    -0.358 OA
HETATM   15  H   UNL     1     -54.657  45.394   6.822  1.00  0.00     0.217 HD
ENDBRANCH   8  14
ENDBRANCH   1   3
TORSDOF 5
ENDMDL
MODEL 8
REMARK VINA RESULT:     -17.0      2.463      5.149
REMARK  5 active torsions:
REMARK  status: ('A' for Active; 'I' for Inactive)
REMARK    1  A    between atoms: O_1  and  C_10 
REMARK    2  A    between atoms: O_2  and  C_12 
REMARK    3  A    between atoms: C_5  and  C_6 
REMARK    4  A    between atoms: C_5  and  C_7 
REMARK    5  A    between atoms: C_7  and  C_13 
ROOT
HETATM    1  O   UNL     1     -53.400  50.871  13.894  1.00  0.00    -0.358 OA
HETATM    2  H   UNL     1     -54.025  51.316  14.432  1.00  0.00     0.217 HD
ENDROOT
BRANCH   1   3
HETATM    3  C   UNL     1     -53.629  50.730  12.558  1.00  0.00     0.099 A 
HETATM    4  C   UNL     1     -53.722  49.451  12.010  1.00  0.00     0.046 A 
HETATM    5  C   UNL     1     -53.955  49.293  10.644  1.00  0.00    -0.055 A 
HETATM    6  C   UNL     1     -54.096  50.414   9.827  1.00  0.00     0.010 A 
HETATM    7  C   UNL     1     -54.003  51.693  10.375  1.00  0.00     0.040 A 
HETATM    8  C   UNL     1     -53.770  51.851  11.741  1.00  0.00     0.098 A 
BRANCH   5   9
HETATM    9  C   UNL     1     -54.054  47.925  10.058  1.00  0.00     0.049 C 
BRANCH   9  10
HETATM   10  C   UNL     1     -55.156  47.785   9.001  1.00  0.00     0.117 C 
BRANCH  10  11
HETATM   11  C   UNL     1     -55.205  46.388   8.429  1.00  0.00     0.172 C 
HETATM   12  O   UNL     1     -54.385  46.227   7.362  1.00  0.00    -0.648 OA
HETATM   13  O   UNL     1     -55.892  45.487   8.892  1.00  0.00    -0.648 OA
ENDBRANCH  10  11
ENDBRANCH   9  10
ENDBRANCH   5   9
BRANCH   8  14
HETATM   14  O   UNL     1     -53.680  53.105  12.265  1.00  0.00    -0.358 OA
HETATM   15  H   UNL     1     -53.475  53.831  11.710  1.00  0.00     0.217 HD
ENDBRANCH   8  14
ENDBRANCH   1   3
TORSDOF 5
ENDMDL
MODEL 9
REMARK VINA RESULT:     -16.8      2.801      4.778
REMARK  5 active torsions:
REMARK  status: ('A' for Active; 'I' for Inactive)
REMARK    1  A    between atoms: O_1  and  C_10 
REMARK    2  A    between atoms: O_2  and  C_12 
REMARK    3  A    between atoms: C_5  and  C_6 
REMARK    4  A    between atoms: C_5  and  C_7 
REMARK    5  A    between atoms: C_7  and  C_13 
ROOT
HETATM    1  O   UNL     1     -54.099  52.688   9.270  1.00  0.00    -0.358 OA
HETATM    2  H   UNL     1     -54.396  52.467   8.410  1.00  0.00     0.217 HD
ENDROOT
BRANCH   1   3
HETATM    3  C   UNL     1     -53.951  51.713  10.211  1.00  0.00     0.099 A 
HETATM    4  C   UNL     1     -53.949  50.376   9.818  1.00  0.00     0.046 A 
HETATM    5  C   UNL     1     -53.799  49.369  10.771  1.00  0.00    -0.055 A 
HETATM    6  C   UNL     1     -53.651  49.701  12.118  1.00  0.00     0.010 A 
HETATM    7  C   UNL     1     -53.653  51.038  12.511  1.00  0.00     0.040 A 
HETATM    8  C   UNL     1     -53.803  52.045  11.558  1.00  0.00     0.098 A 
BRANCH   5   9
HETATM    9  C   UNL     1     -53.796  47.938  10.351  1.00  0.00     0.049 C 
BRANCH   9  10
HETATM   10  C   UNL     1     -53.420  47.728   8.879  1.00  0.00     0.117 C 
BRANCH  10  11
HETATM   11  C   UNL     1     -54.475  46.939   8.141  1.00  0.00     0.172 C 
HETATM   12  O   UNL     1     -55.664  46.913   8.790  1.00  0.00    -0.648 OA
HETATM   13  O   UNL     1     -54.288  46.401   7.057  1.00  0.00    -0.648 OA
ENDBRANCH  10  11
ENDBRANCH   9  10
ENDBRANCH   5   9
BRANCH   8  14
HETATM   14  O   UNL     1     -53.806  53.348  11.953  1.00  0.00    -0.358 OA
HETATM   15  H   UNL     1     -53.143  53.933  11.643  1.00  0.00     0.217 HD
ENDBRANCH   8  14
ENDBRANCH   1   3
TORSDOF 5
ENDMDL
