MODEL 1
REMARK VINA RESULT:     -18.5      0.000      0.000
REMARK  5 active torsions:
REMARK  status: ('A' for Active; 'I' for Inactive)
REMARK    1  A    between atoms: O_1  and  C_10 
REMARK    2  A    between atoms: O_2  and  C_12 
REMARK    3  A    between atoms: C_5  and  C_6 
REMARK    4  A    between atoms: C_5  and  C_7 
REMARK    5  A    between atoms: C_7  and  C_13 
ROOT
HETATM    1  O   UNL     1     -54.125  49.180   8.016  1.00  0.00    -0.358 OA
HETATM    2  H   UNL     1     -54.804  49.408   7.413  1.00  0.00     0.217 HD
ENDROOT
BRANCH   1   3
HETATM    3  C   UNL     1     -53.984  49.875   9.180  1.00  0.00     0.099 A 
HETATM    4  C   UNL     1     -53.782  49.183  10.372  1.00  0.00     0.046 A 
HETATM    5  C   UNL     1     -53.639  49.883  11.570  1.00  0.00    -0.055 A 
HETATM    6  C   UNL     1     -53.697  51.277  11.574  1.00  0.00     0.010 A 
HETATM    7  C   UNL     1     -53.899  51.970  10.381  1.00  0.00     0.040 A 
HETATM    8  C   UNL     1     -54.043  51.269   9.183  1.00  0.00     0.098 A 
BRANCH   5   9
HETATM    9  C   UNL     1     -53.422  49.141  12.846  1.00  0.00     0.049 C 
BRANCH   9  10
HETATM   10  C   UNL     1     -53.239  50.052  14.066  1.00  0.00     0.117 C 
BRANCH  10  11
HETATM   11  C   UNL     1     -53.038  49.255  15.332  1.00  0.00     0.172 C 
HETATM   12  O   UNL     1     -54.204  48.939  15.946  1.00  0.00    -0.648 OA
HETATM   13  O   UNL     1     -51.941  48.906  15.750  1.00  0.00    -0.648 OA
ENDBRANCH  10  11
ENDBRANCH   9  10
ENDBRANCH   5   9
BRANCH   8  14
HETATM   14  O   UNL     1     -54.241  51.956   8.024  1.00  0.00    -0.358 OA
HETATM   15  H   UNL     1     -55.110  52.070   7.690  1.00  0.00     0.217 HD
ENDBRANCH   8  14
ENDBRANCH   1   3
TORSDOF 5
ENDMDL
MODEL 2
REMARK VINA RESULT:     -17.9      2.123      5.598
REMARK  5 active torsions:
REMARK  status: ('A' for Active; 'I' for Inactive)
REMARK    1  A    between atoms: O_1  and  C_10 
REMARK    2  A    between atoms: O_2  and  C_12 
REMARK    3  A    between atoms: C_5  and  C_6 
REMARK    4  A    between atoms: C_5  and  C_7 
REMARK    5  A    between atoms: C_7  and  C_13 
ROOT
HETATM    1  O   UNL     1     -53.853  52.043  13.059  1.00  0.00    -0.358 OA
HETATM    2  H   UNL     1     -54.725  52.344  12.896  1.00  0.00     0.217 HD
ENDROOT
BRANCH   1   3
HETATM    3  C   UNL     1     -53.551  50.722  12.915  1.00  0.00     0.099 A 
HETATM    4  C   UNL     1     -53.692  50.118  11.667  1.00  0.00     0.046 A 
HETATM    5  C   UNL     1     -53.387  48.766  11.507  1.00  0.00    -0.055 A 
HETATM    6  C   UNL     1     -52.940  48.019  12.597  1.00  0.00     0.010 A 
HETATM    7  C   UNL     1     -52.799  48.623  13.846  1.00  0.00     0.040 A 
HETATM    8  C   UNL     1     -53.104  49.975  14.005  1.00  0.00     0.098 A 
BRANCH   5   9
HETATM    9  C   UNL     1     -53.538  48.121  10.171  1.00  0.00     0.049 C 
BRANCH   9  10
HETATM   10  C   UNL     1     -54.934  48.288   9.559  1.00  0.00     0.117 C 
BRANCH  10  11
HETATM   11  C   UNL     1     -55.247  47.188   8.573  1.00  0.00     0.172 C 
HETATM   12  O   UNL     1     -54.486  47.252   7.454  1.00  0.00    -0.648 OA
HETATM   13  O   UNL     1     -56.080  46.313   8.772  1.00  0.00    -0.648 OA
ENDBRANCH  10  11
ENDBRANCH   9  10
ENDBRANCH   5   9
BRANCH   8  14
HETATM   14  O   UNL     1     -52.963  50.554  15.230  1.00  0.00    -0.358 OA
HETATM   15  H   UNL     1     -53.574  51.206  15.512  1.00  0.00     0.217 HD
ENDBRANCH   8  14
ENDBRANCH   1   3
TORSDOF 5
ENDMDL
MODEL 3
REMARK VINA RESULT:     -17.9      1.748      5.420
REMARK  5 active torsions:
REMARK  status: ('A' for Active; 'I' for Inactive)
REMARK    1  A    between atoms: O_1  and  C_10 
REMARK    2  A    between atoms: O_2  and  C_12 
REMARK    3  A    between atoms: C_5  and  C_6 
REMARK    4  A    between atoms: C_5  and  C_7 
REMARK    5  A    between atoms: C_7  and  C_13 
ROOT
HETATM    1  O   UNL     1     -52.673  47.853  14.235  1.00  0.00    -0.358 OA
HETATM    2  H   UNL     1     -53.133  47.038  14.207  1.00  0.00     0.217 HD
ENDROOT
BRANCH   1   3
HETATM    3  C   UNL     1     -53.057  48.881  13.427  1.00  0.00     0.099 A 
HETATM    4  C   UNL     1     -53.322  48.633  12.081  1.00  0.00     0.046 A 
HETATM    5  C   UNL     1     -53.714  49.676  11.243  1.00  0.00    -0.055 A 
HETATM    6  C   UNL     1     -53.843  50.969  11.753  1.00  0.00     0.010 A 
HETATM    7  C   UNL     1     -53.578  51.217  13.099  1.00  0.00     0.040 A 
HETATM    8  C   UNL     1     -53.185  50.173  13.937  1.00  0.00     0.098 A 
BRANCH   5   9
HETATM    9  C   UNL     1     -53.998  49.410   9.803  1.00  0.00     0.049 C 
BRANCH   9  10
HETATM   10  C   UNL     1     -55.297  48.633   9.564  1.00  0.00     0.117 C 
BRANCH  10  11
HETATM   11  C   UNL     1     -55.129  47.581   8.493  1.00  0.00     0.172 C 
HETATM   12  O   UNL     1     -55.706  46.400   8.820  1.00  0.00    -0.648 OA
HETATM   13  O   UNL     1     -54.554  47.778   7.430  1.00  0.00    -0.648 OA
ENDBRANCH  10  11
ENDBRANCH   9  10
ENDBRANCH   5   9
BRANCH   8  14
HETATM   14  O   UNL     1     -52.928  50.427  15.250  1.00  0.00    -0.358 OA
HETATM   15  H   UNL     1     -52.491  49.785  15.775  1.00  0.00     0.217 HD
ENDBRANCH   8  14
ENDBRANCH   1   3
TORSDOF 5
ENDMDL
MODEL 4
REMARK VINA RESULT:     -17.8      0.790      2.121
REMARK  5 active torsions:
REMARK  status: ('A' for Active; 'I' for Inactive)
REMARK    1  A    between atoms: O_1  and  C_10 
REMARK    2  A    between atoms: O_2  and  C_12 
REMARK    3  A    between atoms: C_5  and  C_6 
REMARK    4  A    between atoms: C_5  and  C_7 
REMARK    5  A    between atoms: C_7  and  C_13 
ROOT
HETATM    1  O   UNL     1     -54.342  51.551   8.328  1.00  0.00    -0.358 OA
HETATM    2  H   UNL     1     -55.165  51.580   7.882  1.00  0.00     0.217 HD
ENDROOT
BRANCH   1   3
HETATM    3  C   UNL     1     -54.072  50.535   9.195  1.00  0.00     0.099 A 
HETATM    4  C   UNL     1     -53.956  50.809  10.557  1.00  0.00     0.046 A 
HETATM    5  C   UNL     1     -53.678  49.777  11.454  1.00  0.00    -0.055 A 
HETATM    6  C   UNL     1     -53.517  48.472  10.988  1.00  0.00     0.010 A 
HETATM    7  C   UNL     1     -53.633  48.199   9.625  1.00  0.00     0.040 A 
HETATM    8  C   UNL     1     -53.911  49.230   8.728  1.00  0.00     0.098 A 
BRANCH   5   9
HETATM    9  C   UNL     1     -53.554  50.070  12.911  1.00  0.00     0.049 C 
BRANCH   9  10
HETATM   10  C   UNL     1     -52.926  48.928  13.719  1.00  0.00     0.117 C 
BRANCH  10  11
HETATM   11  C   UNL     1     -53.185  49.083  15.198  1.00  0.00     0.172 C 
HETATM   12  O   UNL     1     -52.081  48.859  15.952  1.00  0.00    -0.648 OA
HETATM   13  O   UNL     1     -54.268  49.403  15.670  1.00  0.00    -0.648 OA
ENDBRANCH  10  11
ENDBRANCH   9  10
ENDBRANCH   5   9
BRANCH   8  14
HETATM   14  O   UNL     1     -54.021  48.952   7.400  1.00  0.00    -0.358 OA
HETATM   15  H   UNL     1     -54.572  48.252   7.112  1.00  0.00     0.217 HD
ENDBRANCH   8  14
ENDBRANCH   1   3
TORSDOF 5
ENDMDL
MODEL 5
REMARK VINA RESULT:     -17.7      2.160      5.448
REMARK  5 active torsions:
REMARK  status: ('A' for Active; 'I' for Inactive)
REMARK    1  A    between atoms: O_1  and  C_10 
REMARK    2  A    between atoms: O_2  and  C_12 
REMARK    3  A    between atoms: C_5  and  C_6 
REMARK    4  A    between atoms: C_5  and  C_7 
REMARK    5  A    between atoms: C_7  and  C_13 
ROOT
HETATM    1  O   UNL     1     -53.694  52.707  12.476  1.00  0.00    -0.358 OA
HETATM    2  H   UNL     1     -54.309  53.001  13.119  1.00  0.00     0.217 HD
ENDROOT
BRANCH   1   3
HETATM    3  C   UNL     1     -53.684  51.400  12.091  1.00  0.00     0.099 A 
HETATM    4  C   UNL     1     -53.904  51.077  10.753  1.00  0.00     0.046 A 
HETATM    5  C   UNL     1     -53.897  49.743  10.347  1.00  0.00    -0.055 A 
HETATM    6  C   UNL     1     -53.669  48.731  11.280  1.00  0.00     0.010 A 
HETATM    7  C   UNL     1     -53.449  49.054  12.618  1.00  0.00     0.040 A 
HETATM    8  C   UNL     1     -53.456  50.388  13.025  1.00  0.00     0.098 A 
BRANCH   5   9
HETATM    9  C   UNL     1     -54.132  49.398   8.915  1.00  0.00     0.049 C 
BRANCH   9  10
HETATM   10  C   UNL     1     -53.414  48.122   8.461  1.00  0.00     0.117 C 
BRANCH  10  11
HETATM   11  C   UNL     1     -54.388  47.083   7.958  1.00  0.00     0.172 C 
HETATM   12  O   UNL     1     -55.525  47.027   8.693  1.00  0.00    -0.648 OA
HETATM   13  O   UNL     1     -54.187  46.381   6.976  1.00  0.00    -0.648 OA
ENDBRANCH  10  11
ENDBRANCH   9  10
ENDBRANCH   5   9
BRANCH   8  14
HETATM   14  O   UNL     1     -53.242  50.691  14.335  1.00  0.00    -0.358 OA
HETATM   15  H   UNL     1     -52.536  51.259  14.575  1.00  0.00     0.217 HD
ENDBRANCH   8  14
ENDBRANCH   1   3
TORSDOF 5
ENDMDL
MODEL 6
REMARK VINA RESULT:     -17.2      1.443      2.285
REMARK  5 active torsions:
REMARK  status: ('A' for Active; 'I' for Inactive)
REMARK    1  A    between atoms: O_1  and  C_10 
REMARK    2  A    between atoms: O_2  and  C_12 
REMARK    3  A    between atoms: C_5  and  C_6 
REMARK    4  A    between atoms: C_5  and  C_7 
REMARK    5  A    between atoms: C_7  and  C_13 
ROOT
HETATM    1  O   UNL     1     -53.804  53.450  11.893  1.00  0.00    -0.358 OA
HETATM    2  H   UNL     1     -54.062  53.704  12.756  1.00  0.00     0.217 HD
ENDROOT
BRANCH   1   3
HETATM    3  C   UNL     1     -53.786  52.133  11.547  1.00  0.00     0.099 A 
HETATM    4  C   UNL     1     -53.567  51.168  12.530  1.00  0.00     0.046 A 
HETATM    5  C   UNL     1     -53.545  49.816  12.188  1.00  0.00    -0.055 A 
HETATM    6  C   UNL     1     -53.742  49.429  10.862  1.00  0.00     0.010 A 
HETATM    7  C   UNL     1     -53.961  50.393   9.879  1.00  0.00     0.040 A 
HETATM    8  C   UNL     1     -53.983  51.745  10.221  1.00  0.00     0.098 A 
BRANCH   5   9
HETATM    9  C   UNL     1     -53.311  48.785  13.240  1.00  0.00     0.049 C 
BRANCH   9  10
HETATM   10  C   UNL     1     -53.324  49.346  14.667  1.00  0.00     0.117 C 
BRANCH  10  11
HETATM   11  C   UNL     1     -52.835  48.328  15.670  1.00  0.00     0.172 C 
HETATM   12  O   UNL     1     -53.820  47.874  16.483  1.00  0.00    -0.648 OA
HETATM   13  O   UNL     1     -51.678  47.933  15.729  1.00  0.00    -0.648 OA
ENDBRANCH  10  11
ENDBRANCH   9  10
ENDBRANCH   5   9
BRANCH   8  14
HETATM   14  O   UNL     1     -54.196  52.679   9.252  1.00  0.00    -0.358 OA
HETATM   15  H   UNL     1     -54.726  52.470   8.509  1.00  0.00     0.217 HD
ENDBRANCH   8  14
ENDBRANCH   1   3
TORSDOF 5
ENDMDL
MODEL 7
REMARK VINA RESULT:     -17.2      1.496      5.812
REMARK  5 active torsions:
REMARK  status: ('A' for Active; 'I' for Inactive)
REMARK    1  A    between atoms: O_1  and  C_10 
REMARK    2  A    between atoms: O_2  and  C_12 
REMARK    3  A    between atoms: C_5  and  C_6 
REMARK    4  A    between atoms: C_5  and  C_7 
REMARK    5  A    between atoms: C_7  and  C_13 
ROOT
HETATM    1  O   UNL     1     -52.981  50.499  15.325  1.00  0.00    -0.358 OA
HETATM    2  H   UNL     1     -53.358  50.158  16.111  1.00  0.00     0.217 HD
ENDROOT
BRANCH   1   3
HETATM    3  C   UNL     1     -53.044  49.778  14.170  1.00  0.00     0.099 A 
HETATM    4  C   UNL     1     -53.529  50.382  13.011  1.00  0.00     0.046 A 
HETATM    5  C   UNL     1     -53.600  49.654  11.823  1.00  0.00    -0.055 A 
HETATM    6  C   UNL     1     -53.185  48.323  11.795  1.00  0.00     0.010 A 
HETATM    7  C   UNL     1     -52.700  47.719  12.955  1.00  0.00     0.040 A 
HETATM    8  C   UNL     1     -52.629  48.447  14.143  1.00  0.00     0.098 A 
BRANCH   5   9
HETATM    9  C   UNL     1     -54.118  50.300  10.583  1.00  0.00     0.049 C 
BRANCH   9  10
HETATM   10  C   UNL     1     -54.945  49.361   9.697  1.00  0.00     0.117 C 
BRANCH  10  11
HETATM   11  C   UNL     1     -54.165  48.904   8.488  1.00  0.00     0.172 C 
HETATM   12  O   UNL     1     -54.824  47.973   7.756  1.00  0.00    -0.648 OA
HETATM   13  O   UNL     1     -53.064  49.343   8.183  1.00  0.00    -0.648 OA
ENDBRANCH  10  11
ENDBRANCH   9  10
ENDBRANCH   5   9
BRANCH   8  14
HETATM   14  O   UNL     1     -52.155  47.847  15.270  1.00  0.00    -0.358 OA
HETATM   15  H   UNL     1     -52.295  46.930  15.407  1.00  0.00     0.217 HD
ENDBRANCH   8  14
ENDBRANCH   1   3
TORSDOF 5
ENDMDL
MODEL 8
REMARK VINA RESULT:     -17.1      2.553      3.636
REMARK  5 active torsions:
REMARK  status: ('A' for Active; 'I' for Inactive)
REMARK    1  A    between atoms: O_1  and  C_10 
REMARK    2  A    between atoms: O_2  and  C_12 
REMARK    3  A    between atoms: C_5  and  C_6 
REMARK    4  A    between atoms: C_5  and  C_7 
REMARK    5  A    between atoms: C_7  and  C_13 
ROOT
HETATM    1  O   UNL     1     -55.988  46.117   8.812  1.00  0.00    -0.358 OA
HETATM    2  H   UNL     1     -56.515  46.057   9.584  1.00  0.00     0.217 HD
ENDROOT
BRANCH   1   3
HETATM    3  C   UNL     1     -55.051  47.101   8.703  1.00  0.00     0.099 A 
HETATM    4  C   UNL     1     -55.005  48.114   9.659  1.00  0.00     0.046 A 
HETATM    5  C   UNL     1     -54.052  49.127   9.557  1.00  0.00    -0.055 A 
HETATM    6  C   UNL     1     -53.144  49.126   8.498  1.00  0.00     0.010 A 
HETATM    7  C   UNL     1     -53.189  48.112   7.542  1.00  0.00     0.040 A 
HETATM    8  C   UNL     1     -54.143  47.099   7.644  1.00  0.00     0.098 A 
BRANCH   5   9
HETATM    9  C   UNL     1     -54.003  50.211  10.581  1.00  0.00     0.049 C 
BRANCH   9  10
HETATM   10  C   UNL     1     -53.647  49.716  11.987  1.00  0.00     0.117 C 
BRANCH  10  11
HETATM   11  C   UNL     1     -53.634  50.845  12.990  1.00  0.00     0.172 C 
HETATM   12  O   UNL     1     -53.380  50.426  14.253  1.00  0.00    -0.648 OA
HETATM   13  O   UNL     1     -53.808  52.020  12.693  1.00  0.00    -0.648 OA
ENDBRANCH  10  11
ENDBRANCH   9  10
ENDBRANCH   5   9
BRANCH   8  14
HETATM   14  O   UNL     1     -54.179  46.115   6.703  1.00  0.00    -0.358 OA
HETATM   15  H   UNL     1     -53.405  45.899   6.221  1.00  0.00     0.217 HD
ENDBRANCH   8  14
ENDBRANCH   1   3
TORSDOF 5
ENDMDL
MODEL 9
REMARK VINA RESULT:     -17.1      2.460      5.130
REMARK  5 active torsions:
REMARK  status: ('A' for Active; 'I' for Inactive)
REMARK    1  A    between atoms: O_1  and  C_10 
REMARK    2  A    between atoms: O_2  and  C_12 
REMARK    3  A    between atoms: C_5  and  C_6 
REMARK    4  A    between atoms: C_5  and  C_7 
REMARK    5  A    between atoms: C_7  and  C_13 
ROOT
HETATM    1  O   UNL     1     -53.472  50.876  13.888  1.00  0.00    -0.358 OA
HETATM    2  H   UNL     1     -53.188  51.695  14.243  1.00  0.00     0.217 HD
ENDROOT
BRANCH   1   3
HETATM    3  C   UNL     1     -53.664  50.744  12.546  1.00  0.00     0.099 A 
HETATM    4  C   UNL     1     -53.755  49.469  11.989  1.00  0.00     0.046 A 
HETATM    5  C   UNL     1     -53.950  49.321  10.616  1.00  0.00    -0.055 A 
HETATM    6  C   UNL     1     -54.056  50.448   9.801  1.00  0.00     0.010 A 
HETATM    7  C   UNL     1     -53.965  51.723  10.358  1.00  0.00     0.040 A 
HETATM    8  C   UNL     1     -53.770  51.871  11.731  1.00  0.00     0.098 A 
BRANCH   5   9
HETATM    9  C   UNL     1     -54.047  47.957  10.019  1.00  0.00     0.049 C 
BRANCH   9  10
HETATM   10  C   UNL     1     -55.360  47.704   9.268  1.00  0.00     0.117 C 
BRANCH  10  11
HETATM   11  C   UNL     1     -55.329  46.395   8.517  1.00  0.00     0.172 C 
HETATM   12  O   UNL     1     -54.434  46.392   7.499  1.00  0.00    -0.648 OA
HETATM   13  O   UNL     1     -56.018  45.426   8.809  1.00  0.00    -0.648 OA
ENDBRANCH  10  11
ENDBRANCH   9  10
ENDBRANCH   5   9
BRANCH   8  14
HETATM   14  O   UNL     1     -53.681  53.121  12.265  1.00  0.00    -0.358 OA
HETATM   15  H   UNL     1     -53.971  53.863  11.771  1.00  0.00     0.217 HD
ENDBRANCH   8  14
ENDBRANCH   1   3
TORSDOF 5
ENDMDL
