REMARK  6 active torsions:
REMARK  status: ('A' for Active; 'I' for Inactive)
REMARK    1  A    between atoms: O_1  and  C_11 
REMARK    2  A    between atoms: O_3  and  C_14 
REMARK    3  A    between atoms: N_5  and  CA_7 
REMARK    4  A    between atoms: C_6  and  CA_7 
REMARK    5  A    between atoms: C_6  and  C_8 
REMARK    6  A    between atoms: CA_7  and  C_12 
ROOT
HETATM    1  O   UNL     1       2.519  -2.048   0.553  1.00  0.00    -0.358 OA
HETATM    2  H   UNL     1       1.996  -2.720   0.943  1.00  0.00     0.217 HD
ENDROOT
BRANCH   1   3
HETATM    3  C   UNL     1       1.989  -0.812   0.337  1.00  0.00     0.099 A 
HETATM    4  C   UNL     1       0.666  -0.559   0.699  1.00  0.00     0.046 A 
HETATM    5  C   UNL     1       0.132   0.699   0.477  1.00  0.00    -0.053 A 
HETATM    6  C   UNL     1       0.881   1.711  -0.098  1.00  0.00     0.010 A 
HETATM    7  C   UNL     1       2.204   1.459  -0.460  1.00  0.00     0.040 A 
HETATM    8  C   UNL     1       2.758   0.197  -0.243  1.00  0.00     0.098 A 
BRANCH   5   9
HETATM    9  C   UNL     1      -1.302   0.973   0.871  1.00  0.00     0.082 C 
BRANCH   9  10
HETATM   10  CA  UNL     1      -2.299   0.670  -0.259  1.00  0.00     0.287 C 
BRANCH  10  11
HETATM   11  N   UNL     1      -3.553   1.381  -0.014  1.00  0.00    -0.065 N 
HETATM   12  H   UNL     1      -3.370   2.383   0.046  1.00  0.00     0.275 HD
HETATM   13  H   UNL     1      -3.962   1.057   0.863  1.00  0.00     0.275 HD
HETATM   14  H   UNL     1      -4.202   1.199  -0.779  1.00  0.00     0.275 HD
ENDBRANCH  10  11
BRANCH  10  15
HETATM   15  C   UNL     1      -2.645  -0.807  -0.336  1.00  0.00     0.204 C 
HETATM   16  O   UNL     1      -1.853  -1.478  -1.211  1.00  0.00    -0.646 OA
HETATM   17  OXT UNL     1      -3.550  -1.347   0.288  1.00  0.00    -0.646 OA
ENDBRANCH  10  15
ENDBRANCH   9  10
ENDBRANCH   5   9
BRANCH   8  18
HETATM   18  O   UNL     1       4.051  -0.038  -0.603  1.00  0.00    -0.358 OA
HETATM   19  H   UNL     1       4.431  -0.883  -0.461  1.00  0.00     0.217 HD
ENDBRANCH   8  18
ENDBRANCH   1   3
TORSDOF 6
