MODEL 1
REMARK VINA RESULT:      -8.2      0.000      0.000
REMARK  4 active torsions:
REMARK  status: ('A' for Active; 'I' for Inactive)
REMARK    1  A    between atoms: O_1  and  C_5 
REMARK    2  A    between atoms: O_1  and  C_14 
REMARK    3  A    between atoms: O_2  and  C_18 
REMARK    4  A    between atoms: C_10  and  C_13 
ROOT
HETATM    1  O   UNL     1      31.087  77.555  18.894  1.00  0.00    -0.343 OA
ENDROOT
BRANCH   1   2
HETATM    2  C   UNL     1      31.733  77.059  17.728  1.00  0.00     0.129 C 
HETATM    3  C   UNL     1      32.147  78.224  16.843  1.00  0.00     0.032 C 
HETATM    4  C   UNL     1      30.867  78.622  16.111  1.00  0.00     0.002 C 
HETATM    5  C   UNL     1      29.955  77.396  16.146  1.00  0.00     0.002 C 
HETATM    6  C   UNL     1      30.745  76.300  16.857  1.00  0.00     0.032 C 
ENDBRANCH   1   2
BRANCH   1   7
HETATM    7  C   UNL     1      31.556  77.106  20.100  1.00  0.00     0.103 A 
HETATM    8  C   UNL     1      31.719  75.739  20.298  1.00  0.00     0.047 A 
HETATM    9  C   UNL     1      32.195  75.269  21.521  1.00  0.00    -0.049 A 
HETATM   10  C   UNL     1      32.506  76.168  22.541  1.00  0.00     0.010 A 
HETATM   11  C   UNL     1      32.342  77.538  22.335  1.00  0.00     0.040 A 
HETATM   12  C   UNL     1      31.865  78.008  21.112  1.00  0.00     0.101 A 
BRANCH   9  13
HETATM   13  C   UNL     1      32.374  73.783  21.743  1.00  0.00     0.045 C 
HETATM   14  C   UNL     1      31.339  73.114  22.650  1.00  0.00     0.132 C 
HETATM   15  N   UNL     1      32.002  71.926  23.108  1.00  0.00    -0.360 N 
HETATM   16  C   UNL     1      33.383  72.009  22.997  1.00  0.00     0.218 C 
HETATM   17  H   UNL     1      31.529  71.139  23.463  1.00  0.00     0.162 HD
HETATM   18  O   UNL     1      34.208  71.179  23.346  1.00  0.00    -0.274 OA
HETATM   19  C   UNL     1      33.700  73.360  22.404  1.00  0.00     0.113 C 
ENDBRANCH   9  13
BRANCH  12  20
HETATM   20  O   UNL     1      31.707  79.348  20.924  1.00  0.00    -0.353 OA
HETATM   21  C   UNL     1      31.849  80.184  22.072  1.00  0.00     0.210 C 
ENDBRANCH  12  20
ENDBRANCH   1   7
TORSDOF 4
ENDMDL
MODEL 2
REMARK VINA RESULT:      -7.7      1.301      4.020
REMARK  4 active torsions:
REMARK  status: ('A' for Active; 'I' for Inactive)
REMARK    1  A    between atoms: O_1  and  C_5 
REMARK    2  A    between atoms: O_1  and  C_14 
REMARK    3  A    between atoms: O_2  and  C_18 
REMARK    4  A    between atoms: C_10  and  C_13 
ROOT
HETATM    1  O   UNL     1      30.868  78.554  20.470  1.00  0.00    -0.343 OA
ENDROOT
BRANCH   1   2
HETATM    2  C   UNL     1      30.813  78.360  21.877  1.00  0.00     0.129 C 
HETATM    3  C   UNL     1      30.205  79.590  22.535  1.00  0.00     0.032 C 
HETATM    4  C   UNL     1      31.353  80.597  22.596  1.00  0.00     0.002 C 
HETATM    5  C   UNL     1      32.643  79.782  22.519  1.00  0.00     0.002 C 
HETATM    6  C   UNL     1      32.216  78.317  22.462  1.00  0.00     0.032 C 
ENDBRANCH   1   2
BRANCH   1   7
HETATM    7  C   UNL     1      31.066  77.439  19.700  1.00  0.00     0.103 A 
HETATM    8  C   UNL     1      31.513  76.268  20.304  1.00  0.00     0.047 A 
HETATM    9  C   UNL     1      31.720  75.127  19.531  1.00  0.00    -0.049 A 
HETATM   10  C   UNL     1      31.479  75.160  18.158  1.00  0.00     0.010 A 
HETATM   11  C   UNL     1      31.029  76.337  17.558  1.00  0.00     0.040 A 
HETATM   12  C   UNL     1      30.823  77.480  18.331  1.00  0.00     0.101 A 
BRANCH   9  13
HETATM   13  C   UNL     1      32.206  73.850  20.182  1.00  0.00     0.045 C 
HETATM   14  C   UNL     1      31.176  73.098  21.028  1.00  0.00     0.132 C 
HETATM   15  N   UNL     1      31.976  72.297  21.910  1.00  0.00    -0.360 N 
HETATM   16  C   UNL     1      33.271  72.780  22.041  1.00  0.00     0.218 C 
HETATM   17  H   UNL     1      31.643  71.494  22.372  1.00  0.00     0.162 HD
HETATM   18  O   UNL     1      34.160  72.337  22.752  1.00  0.00    -0.274 OA
HETATM   19  C   UNL     1      33.378  74.006  21.170  1.00  0.00     0.113 C 
ENDBRANCH   9  13
BRANCH  12  20
HETATM   20  O   UNL     1      30.386  78.623  17.733  1.00  0.00    -0.353 OA
HETATM   21  C   UNL     1      30.075  78.549  16.343  1.00  0.00     0.210 C 
ENDBRANCH  12  20
ENDBRANCH   1   7
TORSDOF 4
ENDMDL
MODEL 3
REMARK VINA RESULT:      -7.5      1.208      1.315
REMARK  4 active torsions:
REMARK  status: ('A' for Active; 'I' for Inactive)
REMARK    1  A    between atoms: O_1  and  C_5 
REMARK    2  A    between atoms: O_1  and  C_14 
REMARK    3  A    between atoms: O_2  and  C_18 
REMARK    4  A    between atoms: C_10  and  C_13 
ROOT
HETATM    1  O   UNL     1      31.365  77.919  18.730  1.00  0.00    -0.343 OA
ENDROOT
BRANCH   1   2
HETATM    2  C   UNL     1      31.801  77.334  17.509  1.00  0.00     0.129 C 
HETATM    3  C   UNL     1      32.184  78.431  16.529  1.00  0.00     0.032 C 
HETATM    4  C   UNL     1      30.852  78.918  15.960  1.00  0.00     0.002 C 
HETATM    5  C   UNL     1      29.855  77.779  16.169  1.00  0.00     0.002 C 
HETATM    6  C   UNL     1      30.642  76.639  16.811  1.00  0.00     0.032 C 
ENDBRANCH   1   2
BRANCH   1   7
HETATM    7  C   UNL     1      31.797  77.329  19.888  1.00  0.00     0.103 A 
HETATM    8  C   UNL     1      32.134  75.979  19.876  1.00  0.00     0.047 A 
HETATM    9  C   UNL     1      32.574  75.366  21.048  1.00  0.00    -0.049 A 
HETATM   10  C   UNL     1      32.674  76.105  22.227  1.00  0.00     0.010 A 
HETATM   11  C   UNL     1      32.336  77.458  22.232  1.00  0.00     0.040 A 
HETATM   12  C   UNL     1      31.895  78.071  21.059  1.00  0.00     0.101 A 
BRANCH   9  13
HETATM   13  C   UNL     1      32.942  73.898  21.042  1.00  0.00     0.045 C 
HETATM   14  C   UNL     1      33.285  73.291  22.403  1.00  0.00     0.132 C 
HETATM   15  N   UNL     1      34.074  72.137  22.076  1.00  0.00    -0.360 N 
HETATM   16  C   UNL     1      34.629  72.214  20.805  1.00  0.00     0.218 C 
HETATM   17  H   UNL     1      34.206  71.375  22.684  1.00  0.00     0.162 HD
HETATM   18  O   UNL     1      35.377  71.410  20.272  1.00  0.00    -0.274 OA
HETATM   19  C   UNL     1      34.179  73.522  20.203  1.00  0.00     0.113 C 
ENDBRANCH   9  13
BRANCH  12  20
HETATM   20  O   UNL     1      31.565  79.393  21.078  1.00  0.00    -0.353 OA
HETATM   21  C   UNL     1      31.897  80.127  22.255  1.00  0.00     0.210 C 
ENDBRANCH  12  20
ENDBRANCH   1   7
TORSDOF 4
ENDMDL
MODEL 4
REMARK VINA RESULT:      -7.2      2.971      5.025
REMARK  4 active torsions:
REMARK  status: ('A' for Active; 'I' for Inactive)
REMARK    1  A    between atoms: O_1  and  C_5 
REMARK    2  A    between atoms: O_1  and  C_14 
REMARK    3  A    between atoms: O_2  and  C_18 
REMARK    4  A    between atoms: C_10  and  C_13 
ROOT
HETATM    1  O   UNL     1      30.910  76.358  17.297  1.00  0.00    -0.343 OA
ENDROOT
BRANCH   1   2
HETATM    2  C   UNL     1      31.244  77.568  16.629  1.00  0.00     0.129 C 
HETATM    3  C   UNL     1      29.971  78.262  16.169  1.00  0.00     0.032 C 
HETATM    4  C   UNL     1      29.575  77.525  14.892  1.00  0.00     0.002 C 
HETATM    5  C   UNL     1      30.848  76.865  14.365  1.00  0.00     0.002 C 
HETATM    6  C   UNL     1      31.965  77.272  15.324  1.00  0.00     0.032 C 
ENDBRANCH   1   2
BRANCH   1   7
HETATM    7  C   UNL     1      31.407  76.192  18.562  1.00  0.00     0.103 A 
HETATM    8  C   UNL     1      31.116  77.143  19.535  1.00  0.00     0.047 A 
HETATM    9  C   UNL     1      31.617  76.987  20.827  1.00  0.00    -0.049 A 
HETATM   10  C   UNL     1      32.407  75.881  21.140  1.00  0.00     0.010 A 
HETATM   11  C   UNL     1      32.694  74.931  20.160  1.00  0.00     0.040 A 
HETATM   12  C   UNL     1      32.194  75.087  18.868  1.00  0.00     0.101 A 
BRANCH   9  13
HETATM   13  C   UNL     1      31.304  78.017  21.890  1.00  0.00     0.045 C 
HETATM   14  C   UNL     1      29.951  78.720  21.760  1.00  0.00     0.132 C 
HETATM   15  N   UNL     1      30.125  79.938  22.498  1.00  0.00    -0.360 N 
HETATM   16  C   UNL     1      31.461  80.283  22.651  1.00  0.00     0.218 C 
HETATM   17  H   UNL     1      29.379  80.471  22.857  1.00  0.00     0.162 HD
HETATM   18  O   UNL     1      31.913  81.281  23.190  1.00  0.00    -0.274 OA
HETATM   19  C   UNL     1      32.276  79.210  21.974  1.00  0.00     0.113 C 
ENDBRANCH   9  13
BRANCH  12  20
HETATM   20  O   UNL     1      32.483  74.153  17.919  1.00  0.00    -0.353 OA
HETATM   21  C   UNL     1      31.733  72.940  17.954  1.00  0.00     0.210 C 
ENDBRANCH  12  20
ENDBRANCH   1   7
TORSDOF 4
ENDMDL
MODEL 5
REMARK VINA RESULT:      -7.1      2.829      6.392
REMARK  4 active torsions:
REMARK  status: ('A' for Active; 'I' for Inactive)
REMARK    1  A    between atoms: O_1  and  C_5 
REMARK    2  A    between atoms: O_1  and  C_14 
REMARK    3  A    between atoms: O_2  and  C_18 
REMARK    4  A    between atoms: C_10  and  C_13 
ROOT
HETATM    1  O   UNL     1      32.441  73.393  20.808  1.00  0.00    -0.343 OA
ENDROOT
BRANCH   1   2
HETATM    2  C   UNL     1      33.703  73.336  21.460  1.00  0.00     0.129 C 
HETATM    3  C   UNL     1      34.799  73.126  20.426  1.00  0.00     0.032 C 
HETATM    4  C   UNL     1      34.754  71.631  20.119  1.00  0.00     0.002 C 
HETATM    5  C   UNL     1      34.085  70.966  21.321  1.00  0.00     0.002 C 
HETATM    6  C   UNL     1      33.800  72.085  22.320  1.00  0.00     0.032 C 
ENDBRANCH   1   2
BRANCH   1   7
HETATM    7  C   UNL     1      32.008  74.629  20.406  1.00  0.00     0.103 A 
HETATM    8  C   UNL     1      31.839  75.630  21.357  1.00  0.00     0.047 A 
HETATM    9  C   UNL     1      31.398  76.892  20.961  1.00  0.00    -0.049 A 
HETATM   10  C   UNL     1      31.128  77.147  19.617  1.00  0.00     0.010 A 
HETATM   11  C   UNL     1      31.301  76.140  18.668  1.00  0.00     0.040 A 
HETATM   12  C   UNL     1      31.741  74.877  19.064  1.00  0.00     0.101 A 
BRANCH   9  13
HETATM   13  C   UNL     1      31.212  77.986  21.991  1.00  0.00     0.045 C 
HETATM   14  C   UNL     1      29.855  78.693  21.975  1.00  0.00     0.132 C 
HETATM   15  N   UNL     1      30.117  79.951  22.615  1.00  0.00    -0.360 N 
HETATM   16  C   UNL     1      31.463  80.290  22.595  1.00  0.00     0.218 C 
HETATM   17  H   UNL     1      29.418  80.511  23.024  1.00  0.00     0.162 HD
HETATM   18  O   UNL     1      31.977  81.313  23.019  1.00  0.00    -0.274 OA
HETATM   19  C   UNL     1      32.192  79.171  21.893  1.00  0.00     0.113 C 
ENDBRANCH   9  13
BRANCH  12  20
HETATM   20  O   UNL     1      31.904  73.900  18.128  1.00  0.00    -0.353 OA
HETATM   21  C   UNL     1      30.870  73.756  17.156  1.00  0.00     0.210 C 
ENDBRANCH  12  20
ENDBRANCH   1   7
TORSDOF 4
ENDMDL
MODEL 6
REMARK VINA RESULT:      -6.9      2.513      3.771
REMARK  4 active torsions:
REMARK  status: ('A' for Active; 'I' for Inactive)
REMARK    1  A    between atoms: O_1  and  C_5 
REMARK    2  A    between atoms: O_1  and  C_14 
REMARK    3  A    between atoms: O_2  and  C_18 
REMARK    4  A    between atoms: C_10  and  C_13 
ROOT
HETATM    1  O   UNL     1      31.342  75.110  16.022  1.00  0.00    -0.343 OA
ENDROOT
BRANCH   1   2
HETATM    2  C   UNL     1      32.644  74.720  15.605  1.00  0.00     0.129 C 
HETATM    3  C   UNL     1      33.067  75.560  14.410  1.00  0.00     0.032 C 
HETATM    4  C   UNL     1      32.360  74.914  13.220  1.00  0.00     0.002 C 
HETATM    5  C   UNL     1      32.045  73.477  13.636  1.00  0.00     0.002 C 
HETATM    6  C   UNL     1      32.619  73.308  15.041  1.00  0.00     0.032 C 
ENDBRANCH   1   2
BRANCH   1   7
HETATM    7  C   UNL     1      31.254  75.815  17.194  1.00  0.00     0.103 A 
HETATM    8  C   UNL     1      31.563  75.180  18.392  1.00  0.00     0.047 A 
HETATM    9  C   UNL     1      31.476  75.885  19.591  1.00  0.00    -0.049 A 
HETATM   10  C   UNL     1      31.079  77.222  19.587  1.00  0.00     0.010 A 
HETATM   11  C   UNL     1      30.771  77.854  18.382  1.00  0.00     0.040 A 
HETATM   12  C   UNL     1      30.858  77.148  17.182  1.00  0.00     0.101 A 
BRANCH   9  13
HETATM   13  C   UNL     1      31.812  75.200  20.898  1.00  0.00     0.045 C 
HETATM   14  C   UNL     1      32.061  76.125  22.092  1.00  0.00     0.132 C 
HETATM   15  N   UNL     1      32.841  75.323  22.990  1.00  0.00    -0.360 N 
HETATM   16  C   UNL     1      33.472  74.265  22.350  1.00  0.00     0.218 C 
HETATM   17  H   UNL     1      32.921  75.503  23.955  1.00  0.00     0.162 HD
HETATM   18  O   UNL     1      34.232  73.446  22.842  1.00  0.00    -0.274 OA
HETATM   19  C   UNL     1      33.087  74.335  20.893  1.00  0.00     0.113 C 
ENDBRANCH   9  13
BRANCH  12  20
HETATM   20  O   UNL     1      30.552  77.775  16.012  1.00  0.00    -0.353 OA
HETATM   21  C   UNL     1      31.517  78.691  15.497  1.00  0.00     0.210 C 
ENDBRANCH  12  20
ENDBRANCH   1   7
TORSDOF 4
ENDMDL
MODEL 7
REMARK VINA RESULT:      -6.9      3.010      6.637
REMARK  4 active torsions:
REMARK  status: ('A' for Active; 'I' for Inactive)
REMARK    1  A    between atoms: O_1  and  C_5 
REMARK    2  A    between atoms: O_1  and  C_14 
REMARK    3  A    between atoms: O_2  and  C_18 
REMARK    4  A    between atoms: C_10  and  C_13 
ROOT
HETATM    1  O   UNL     1      33.237  74.629  21.041  1.00  0.00    -0.343 OA
ENDROOT
BRANCH   1   2
HETATM    2  C   UNL     1      32.982  73.311  20.574  1.00  0.00     0.129 C 
HETATM    3  C   UNL     1      31.634  72.839  21.100  1.00  0.00     0.032 C 
HETATM    4  C   UNL     1      31.916  72.406  22.537  1.00  0.00     0.002 C 
HETATM    5  C   UNL     1      33.412  72.106  22.610  1.00  0.00     0.002 C 
HETATM    6  C   UNL     1      33.958  72.328  21.201  1.00  0.00     0.032 C 
ENDBRANCH   1   2
BRANCH   1   7
HETATM    7  C   UNL     1      32.499  75.638  20.480  1.00  0.00     0.103 A 
HETATM    8  C   UNL     1      32.490  75.783  19.096  1.00  0.00     0.047 A 
HETATM    9  C   UNL     1      31.744  76.806  18.513  1.00  0.00    -0.049 A 
HETATM   10  C   UNL     1      31.010  77.679  19.316  1.00  0.00     0.010 A 
HETATM   11  C   UNL     1      31.022  77.528  20.702  1.00  0.00     0.040 A 
HETATM   12  C   UNL     1      31.770  76.505  21.286  1.00  0.00     0.101 A 
BRANCH   9  13
HETATM   13  C   UNL     1      31.729  76.969  17.009  1.00  0.00     0.045 C 
HETATM   14  C   UNL     1      32.205  78.323  16.480  1.00  0.00     0.132 C 
HETATM   15  N   UNL     1      31.614  78.409  15.175  1.00  0.00    -0.360 N 
HETATM   16  C   UNL     1      30.522  77.564  15.028  1.00  0.00     0.218 C 
HETATM   17  H   UNL     1      31.946  79.001  14.462  1.00  0.00     0.162 HD
HETATM   18  O   UNL     1      29.796  77.452  14.052  1.00  0.00    -0.274 OA
HETATM   19  C   UNL     1      30.352  76.827  16.333  1.00  0.00     0.113 C 
ENDBRANCH   9  13
BRANCH  12  20
HETATM   20  O   UNL     1      31.775  76.369  22.642  1.00  0.00    -0.353 OA
HETATM   21  C   UNL     1      30.621  75.779  23.238  1.00  0.00     0.210 C 
ENDBRANCH  12  20
ENDBRANCH   1   7
TORSDOF 4
ENDMDL
MODEL 8
REMARK VINA RESULT:      -6.8      3.303      4.497
REMARK  4 active torsions:
REMARK  status: ('A' for Active; 'I' for Inactive)
REMARK    1  A    between atoms: O_1  and  C_5 
REMARK    2  A    between atoms: O_1  and  C_14 
REMARK    3  A    between atoms: O_2  and  C_18 
REMARK    4  A    between atoms: C_10  and  C_13 
ROOT
HETATM    1  O   UNL     1      31.859  75.232  19.845  1.00  0.00    -0.343 OA
ENDROOT
BRANCH   1   2
HETATM    2  C   UNL     1      32.538  76.433  19.498  1.00  0.00     0.129 C 
HETATM    3  C   UNL     1      32.083  77.556  20.418  1.00  0.00     0.032 C 
HETATM    4  C   UNL     1      30.742  78.004  19.839  1.00  0.00     0.002 C 
HETATM    5  C   UNL     1      30.739  77.565  18.375  1.00  0.00     0.002 C 
HETATM    6  C   UNL     1      32.097  76.914  18.125  1.00  0.00     0.032 C 
ENDBRANCH   1   2
BRANCH   1   7
HETATM    7  C   UNL     1      32.614  74.235  20.404  1.00  0.00     0.103 A 
HETATM    8  C   UNL     1      33.613  73.634  19.645  1.00  0.00     0.047 A 
HETATM    9  C   UNL     1      34.387  72.617  20.201  1.00  0.00    -0.049 A 
HETATM   10  C   UNL     1      34.158  72.205  21.514  1.00  0.00     0.010 A 
HETATM   11  C   UNL     1      33.155  72.812  22.270  1.00  0.00     0.040 A 
HETATM   12  C   UNL     1      32.380  73.829  21.713  1.00  0.00     0.101 A 
BRANCH   9  13
HETATM   13  C   UNL     1      35.476  71.960  19.382  1.00  0.00     0.045 C 
HETATM   14  C   UNL     1      35.550  70.435  19.471  1.00  0.00     0.132 C 
HETATM   15  N   UNL     1      36.898  70.133  19.081  1.00  0.00    -0.360 N 
HETATM   16  C   UNL     1      37.749  71.222  19.218  1.00  0.00     0.218 C 
HETATM   17  H   UNL     1      37.188  69.251  18.753  1.00  0.00     0.162 HD
HETATM   18  O   UNL     1      38.952  71.255  19.008  1.00  0.00    -0.274 OA
HETATM   19  C   UNL     1      36.919  72.371  19.733  1.00  0.00     0.113 C 
ENDBRANCH   9  13
BRANCH  12  20
HETATM   20  O   UNL     1      31.402  74.412  22.461  1.00  0.00    -0.353 OA
HETATM   21  C   UNL     1      30.365  73.562  22.948  1.00  0.00     0.210 C 
ENDBRANCH  12  20
ENDBRANCH   1   7
TORSDOF 4
ENDMDL
MODEL 9
REMARK VINA RESULT:      -6.8      2.932      4.843
REMARK  4 active torsions:
REMARK  status: ('A' for Active; 'I' for Inactive)
REMARK    1  A    between atoms: O_1  and  C_5 
REMARK    2  A    between atoms: O_1  and  C_14 
REMARK    3  A    between atoms: O_2  and  C_18 
REMARK    4  A    between atoms: C_10  and  C_13 
ROOT
HETATM    1  O   UNL     1      31.274  74.692  15.473  1.00  0.00    -0.343 OA
ENDROOT
BRANCH   1   2
HETATM    2  C   UNL     1      32.594  74.257  15.170  1.00  0.00     0.129 C 
HETATM    3  C   UNL     1      33.287  75.303  14.310  1.00  0.00     0.032 C 
HETATM    4  C   UNL     1      32.751  75.055  12.901  1.00  0.00     0.002 C 
HETATM    5  C   UNL     1      32.253  73.611  12.879  1.00  0.00     0.002 C 
HETATM    6  C   UNL     1      32.555  73.038  14.262  1.00  0.00     0.032 C 
ENDBRANCH   1   2
BRANCH   1   7
HETATM    7  C   UNL     1      31.151  75.689  16.404  1.00  0.00     0.103 A 
HETATM    8  C   UNL     1      31.761  75.538  17.645  1.00  0.00     0.047 A 
HETATM    9  C   UNL     1      31.642  76.545  18.602  1.00  0.00    -0.049 A 
HETATM   10  C   UNL     1      30.913  77.699  18.314  1.00  0.00     0.010 A 
HETATM   11  C   UNL     1      30.305  77.845  17.067  1.00  0.00     0.040 A 
HETATM   12  C   UNL     1      30.423  76.837  16.110  1.00  0.00     0.101 A 
BRANCH   9  13
HETATM   13  C   UNL     1      32.304  76.387  19.954  1.00  0.00     0.045 C 
HETATM   14  C   UNL     1      32.646  74.954  20.365  1.00  0.00     0.132 C 
HETATM   15  N   UNL     1      32.741  75.021  21.796  1.00  0.00    -0.360 N 
HETATM   16  C   UNL     1      32.077  76.120  22.323  1.00  0.00     0.218 C 
HETATM   17  H   UNL     1      33.224  74.361  22.343  1.00  0.00     0.162 HD
HETATM   18  O   UNL     1      31.946  76.414  23.501  1.00  0.00    -0.274 OA
HETATM   19  C   UNL     1      31.484  76.879  21.162  1.00  0.00     0.113 C 
ENDBRANCH   9  13
BRANCH  12  20
HETATM   20  O   UNL     1      29.822  76.990  14.897  1.00  0.00    -0.353 OA
HETATM   21  C   UNL     1      28.413  76.778  14.841  1.00  0.00     0.210 C 
ENDBRANCH  12  20
ENDBRANCH   1   7
TORSDOF 4
ENDMDL
