MODEL 1
REMARK VINA RESULT:      -8.2      0.000      0.000
REMARK  4 active torsions:
REMARK  status: ('A' for Active; 'I' for Inactive)
REMARK    1  A    between atoms: O_1  and  C_5 
REMARK    2  A    between atoms: O_1  and  C_14 
REMARK    3  A    between atoms: O_2  and  C_18 
REMARK    4  A    between atoms: C_10  and  C_13 
ROOT
HETATM    1  O   UNL     1      31.082  77.547  18.891  1.00  0.00    -0.343 OA
ENDROOT
BRANCH   1   2
HETATM    2  C   UNL     1      31.728  77.056  17.724  1.00  0.00     0.129 C 
HETATM    3  C   UNL     1      32.138  78.225  16.841  1.00  0.00     0.032 C 
HETATM    4  C   UNL     1      30.856  78.622  16.112  1.00  0.00     0.002 C 
HETATM    5  C   UNL     1      29.947  77.394  16.144  1.00  0.00     0.002 C 
HETATM    6  C   UNL     1      30.741  76.297  16.851  1.00  0.00     0.032 C 
ENDBRANCH   1   2
BRANCH   1   7
HETATM    7  C   UNL     1      31.557  77.100  20.096  1.00  0.00     0.103 A 
HETATM    8  C   UNL     1      31.719  75.732  20.295  1.00  0.00     0.047 A 
HETATM    9  C   UNL     1      32.201  75.264  21.516  1.00  0.00    -0.049 A 
HETATM   10  C   UNL     1      32.518  76.164  22.533  1.00  0.00     0.010 A 
HETATM   11  C   UNL     1      32.355  77.534  22.327  1.00  0.00     0.040 A 
HETATM   12  C   UNL     1      31.872  78.003  21.105  1.00  0.00     0.101 A 
BRANCH   9  13
HETATM   13  C   UNL     1      32.380  73.778  21.739  1.00  0.00     0.045 C 
HETATM   14  C   UNL     1      31.348  73.111  22.651  1.00  0.00     0.132 C 
HETATM   15  N   UNL     1      32.011  71.923  23.109  1.00  0.00    -0.360 N 
HETATM   16  C   UNL     1      33.393  72.005  22.992  1.00  0.00     0.218 C 
HETATM   17  H   UNL     1      31.539  71.137  23.466  1.00  0.00     0.162 HD
HETATM   18  O   UNL     1      34.218  71.174  23.339  1.00  0.00    -0.274 OA
HETATM   19  C   UNL     1      33.708  73.354  22.396  1.00  0.00     0.113 C 
ENDBRANCH   9  13
BRANCH  12  20
HETATM   20  O   UNL     1      31.714  79.343  20.916  1.00  0.00    -0.353 OA
HETATM   21  C   UNL     1      31.845  80.178  22.065  1.00  0.00     0.210 C 
ENDBRANCH  12  20
ENDBRANCH   1   7
TORSDOF 4
ENDMDL
MODEL 2
REMARK VINA RESULT:      -7.7      1.319      4.028
REMARK  4 active torsions:
REMARK  status: ('A' for Active; 'I' for Inactive)
REMARK    1  A    between atoms: O_1  and  C_5 
REMARK    2  A    between atoms: O_1  and  C_14 
REMARK    3  A    between atoms: O_2  and  C_18 
REMARK    4  A    between atoms: C_10  and  C_13 
ROOT
HETATM    1  O   UNL     1      30.920  78.532  20.451  1.00  0.00    -0.343 OA
ENDROOT
BRANCH   1   2
HETATM    2  C   UNL     1      30.879  78.329  21.858  1.00  0.00     0.129 C 
HETATM    3  C   UNL     1      30.179  79.507  22.520  1.00  0.00     0.032 C 
HETATM    4  C   UNL     1      31.246  80.597  22.586  1.00  0.00     0.002 C 
HETATM    5  C   UNL     1      32.595  79.883  22.507  1.00  0.00     0.002 C 
HETATM    6  C   UNL     1      32.281  78.390  22.444  1.00  0.00     0.032 C 
ENDBRANCH   1   2
BRANCH   1   7
HETATM    7  C   UNL     1      31.091  77.418  19.672  1.00  0.00     0.103 A 
HETATM    8  C   UNL     1      31.536  76.239  20.261  1.00  0.00     0.047 A 
HETATM    9  C   UNL     1      31.715  75.100  19.478  1.00  0.00    -0.049 A 
HETATM   10  C   UNL     1      31.450  75.144  18.110  1.00  0.00     0.010 A 
HETATM   11  C   UNL     1      31.004  76.330  17.525  1.00  0.00     0.040 A 
HETATM   12  C   UNL     1      30.825  77.470  18.308  1.00  0.00     0.101 A 
BRANCH   9  13
HETATM   13  C   UNL     1      32.198  73.814  20.113  1.00  0.00     0.045 C 
HETATM   14  C   UNL     1      31.175  73.068  20.971  1.00  0.00     0.132 C 
HETATM   15  N   UNL     1      31.980  72.253  21.835  1.00  0.00    -0.360 N 
HETATM   16  C   UNL     1      33.283  72.721  21.948  1.00  0.00     0.218 C 
HETATM   17  H   UNL     1      31.646  71.451  22.298  1.00  0.00     0.162 HD
HETATM   18  O   UNL     1      34.178  72.264  22.642  1.00  0.00    -0.274 OA
HETATM   19  C   UNL     1      33.388  73.952  21.083  1.00  0.00     0.113 C 
ENDBRANCH   9  13
BRANCH  12  20
HETATM   20  O   UNL     1      30.390  78.622  17.724  1.00  0.00    -0.353 OA
HETATM   21  C   UNL     1      30.067  78.563  16.336  1.00  0.00     0.210 C 
ENDBRANCH  12  20
ENDBRANCH   1   7
TORSDOF 4
ENDMDL
MODEL 3
REMARK VINA RESULT:      -7.7      1.109      3.869
REMARK  4 active torsions:
REMARK  status: ('A' for Active; 'I' for Inactive)
REMARK    1  A    between atoms: O_1  and  C_5 
REMARK    2  A    between atoms: O_1  and  C_14 
REMARK    3  A    between atoms: O_2  and  C_18 
REMARK    4  A    between atoms: C_10  and  C_13 
ROOT
HETATM    1  O   UNL     1      31.948  78.151  20.741  1.00  0.00    -0.343 OA
ENDROOT
BRANCH   1   2
HETATM    2  C   UNL     1      31.919  78.154  22.162  1.00  0.00     0.129 C 
HETATM    3  C   UNL     1      30.492  78.374  22.640  1.00  0.00     0.032 C 
HETATM    4  C   UNL     1      30.273  79.880  22.511  1.00  0.00     0.002 C 
HETATM    5  C   UNL     1      31.662  80.518  22.522  1.00  0.00     0.002 C 
HETATM    6  C   UNL     1      32.654  79.370  22.704  1.00  0.00     0.032 C 
ENDBRANCH   1   2
BRANCH   1   7
HETATM    7  C   UNL     1      31.811  76.936  20.123  1.00  0.00     0.103 A 
HETATM    8  C   UNL     1      31.980  75.773  20.868  1.00  0.00     0.047 A 
HETATM    9  C   UNL     1      31.845  74.531  20.251  1.00  0.00    -0.049 A 
HETATM   10  C   UNL     1      31.543  74.456  18.891  1.00  0.00     0.010 A 
HETATM   11  C   UNL     1      31.375  75.625  18.150  1.00  0.00     0.040 A 
HETATM   12  C   UNL     1      31.510  76.868  18.767  1.00  0.00     0.101 A 
BRANCH   9  13
HETATM   13  C   UNL     1      32.027  73.262  21.056  1.00  0.00     0.045 C 
HETATM   14  C   UNL     1      31.135  73.122  22.291  1.00  0.00     0.132 C 
HETATM   15  N   UNL     1      31.837  72.181  23.116  1.00  0.00    -0.360 N 
HETATM   16  C   UNL     1      33.185  72.093  22.796  1.00  0.00     0.218 C 
HETATM   17  H   UNL     1      31.410  71.656  23.831  1.00  0.00     0.162 HD
HETATM   18  O   UNL     1      34.037  71.415  23.350  1.00  0.00    -0.274 OA
HETATM   19  C   UNL     1      33.432  73.041  21.649  1.00  0.00     0.113 C 
ENDBRANCH   9  13
BRANCH  12  20
HETATM   20  O   UNL     1      31.345  78.003  18.031  1.00  0.00    -0.353 OA
HETATM   21  C   UNL     1      30.362  77.968  16.999  1.00  0.00     0.210 C 
ENDBRANCH  12  20
ENDBRANCH   1   7
TORSDOF 4
ENDMDL
MODEL 4
REMARK VINA RESULT:      -7.0      2.859      6.358
REMARK  4 active torsions:
REMARK  status: ('A' for Active; 'I' for Inactive)
REMARK    1  A    between atoms: O_1  and  C_5 
REMARK    2  A    between atoms: O_1  and  C_14 
REMARK    3  A    between atoms: O_2  and  C_18 
REMARK    4  A    between atoms: C_10  and  C_13 
ROOT
HETATM    1  O   UNL     1      32.126  73.088  20.848  1.00  0.00    -0.343 OA
ENDROOT
BRANCH   1   2
HETATM    2  C   UNL     1      33.196  72.916  21.768  1.00  0.00     0.129 C 
HETATM    3  C   UNL     1      34.515  73.218  21.073  1.00  0.00     0.032 C 
HETATM    4  C   UNL     1      34.830  71.949  20.282  1.00  0.00     0.002 C 
HETATM    5  C   UNL     1      34.050  70.820  20.955  1.00  0.00     0.002 C 
HETATM    6  C   UNL     1      33.337  71.450  22.149  1.00  0.00     0.032 C 
ENDBRANCH   1   2
BRANCH   1   7
HETATM    7  C   UNL     1      31.916  74.356  20.374  1.00  0.00     0.103 A 
HETATM    8  C   UNL     1      31.634  75.378  21.275  1.00  0.00     0.047 A 
HETATM    9  C   UNL     1      31.417  76.673  20.805  1.00  0.00    -0.049 A 
HETATM   10  C   UNL     1      31.483  76.940  19.438  1.00  0.00     0.010 A 
HETATM   11  C   UNL     1      31.767  75.910  18.540  1.00  0.00     0.040 A 
HETATM   12  C   UNL     1      31.983  74.615  19.010  1.00  0.00     0.101 A 
BRANCH   9  13
HETATM   13  C   UNL     1      31.110  77.790  21.779  1.00  0.00     0.045 C 
HETATM   14  C   UNL     1      30.086  78.824  21.307  1.00  0.00     0.132 C 
HETATM   15  N   UNL     1      30.369  79.979  22.112  1.00  0.00    -0.360 N 
HETATM   16  C   UNL     1      31.653  79.958  22.642  1.00  0.00     0.218 C 
HETATM   17  H   UNL     1      29.725  80.706  22.270  1.00  0.00     0.162 HD
HETATM   18  O   UNL     1      32.189  80.818  23.323  1.00  0.00    -0.274 OA
HETATM   19  C   UNL     1      32.305  78.680  22.175  1.00  0.00     0.113 C 
ENDBRANCH   9  13
BRANCH  12  20
HETATM   20  O   UNL     1      32.258  73.618  18.123  1.00  0.00    -0.353 OA
HETATM   21  C   UNL     1      32.417  73.993  16.756  1.00  0.00     0.210 C 
ENDBRANCH  12  20
ENDBRANCH   1   7
TORSDOF 4
ENDMDL
MODEL 5
REMARK VINA RESULT:      -6.9      2.620      5.081
REMARK  4 active torsions:
REMARK  status: ('A' for Active; 'I' for Inactive)
REMARK    1  A    between atoms: O_1  and  C_5 
REMARK    2  A    between atoms: O_1  and  C_14 
REMARK    3  A    between atoms: O_2  and  C_18 
REMARK    4  A    between atoms: C_10  and  C_13 
ROOT
HETATM    1  O   UNL     1      32.492  75.553  18.150  1.00  0.00    -0.343 OA
ENDROOT
BRANCH   1   2
HETATM    2  C   UNL     1      31.220  75.300  17.568  1.00  0.00     0.129 C 
HETATM    3  C   UNL     1      31.374  74.309  16.424  1.00  0.00     0.032 C 
HETATM    4  C   UNL     1      31.878  75.150  15.254  1.00  0.00     0.002 C 
HETATM    5  C   UNL     1      31.471  76.592  15.555  1.00  0.00     0.002 C 
HETATM    6  C   UNL     1      30.699  76.548  16.872  1.00  0.00     0.032 C 
ENDBRANCH   1   2
BRANCH   1   7
HETATM    7  C   UNL     1      32.554  75.563  19.519  1.00  0.00     0.103 A 
HETATM    8  C   UNL     1      32.054  76.661  20.212  1.00  0.00     0.047 A 
HETATM    9  C   UNL     1      32.112  76.685  21.604  1.00  0.00    -0.049 A 
HETATM   10  C   UNL     1      32.671  75.611  22.298  1.00  0.00     0.010 A 
HETATM   11  C   UNL     1      33.170  74.513  21.597  1.00  0.00     0.040 A 
HETATM   12  C   UNL     1      33.112  74.490  20.204  1.00  0.00     0.101 A 
BRANCH   9  13
HETATM   13  C   UNL     1      31.570  77.875  22.364  1.00  0.00     0.045 C 
HETATM   14  C   UNL     1      30.243  78.443  21.856  1.00  0.00     0.132 C 
HETATM   15  N   UNL     1      30.234  79.790  22.352  1.00  0.00    -0.360 N 
HETATM   16  C   UNL     1      31.505  80.251  22.669  1.00  0.00     0.218 C 
HETATM   17  H   UNL     1      29.416  80.329  22.456  1.00  0.00     0.162 HD
HETATM   18  O   UNL     1      31.814  81.363  23.068  1.00  0.00    -0.274 OA
HETATM   19  C   UNL     1      32.469  79.127  22.379  1.00  0.00     0.113 C 
ENDBRANCH   9  13
BRANCH  12  20
HETATM   20  O   UNL     1      33.605  73.412  19.531  1.00  0.00    -0.353 OA
HETATM   21  C   UNL     1      33.841  72.228  20.289  1.00  0.00     0.210 C 
ENDBRANCH  12  20
ENDBRANCH   1   7
TORSDOF 4
ENDMDL
MODEL 6
REMARK VINA RESULT:      -6.9      2.851      5.002
REMARK  4 active torsions:
REMARK  status: ('A' for Active; 'I' for Inactive)
REMARK    1  A    between atoms: O_1  and  C_5 
REMARK    2  A    between atoms: O_1  and  C_14 
REMARK    3  A    between atoms: O_2  and  C_18 
REMARK    4  A    between atoms: C_10  and  C_13 
ROOT
HETATM    1  O   UNL     1      31.399  76.085  17.192  1.00  0.00    -0.343 OA
ENDROOT
BRANCH   1   2
HETATM    2  C   UNL     1      30.537  77.163  16.847  1.00  0.00     0.129 C 
HETATM    3  C   UNL     1      29.678  76.764  15.658  1.00  0.00     0.032 C 
HETATM    4  C   UNL     1      30.591  76.948  14.447  1.00  0.00     0.002 C 
HETATM    5  C   UNL     1      31.678  77.934  14.876  1.00  0.00     0.002 C 
HETATM    6  C   UNL     1      31.343  78.336  16.311  1.00  0.00     0.032 C 
ENDBRANCH   1   2
BRANCH   1   7
HETATM    7  C   UNL     1      31.646  75.894  18.525  1.00  0.00     0.103 A 
HETATM    8  C   UNL     1      31.301  76.894  19.430  1.00  0.00     0.047 A 
HETATM    9  C   UNL     1      31.549  76.712  20.789  1.00  0.00    -0.049 A 
HETATM   10  C   UNL     1      32.141  75.532  21.239  1.00  0.00     0.010 A 
HETATM   11  C   UNL     1      32.484  74.533  20.328  1.00  0.00     0.040 A 
HETATM   12  C   UNL     1      32.237  74.715  18.967  1.00  0.00     0.101 A 
BRANCH   9  13
HETATM   13  C   UNL     1      31.175  77.795  21.778  1.00  0.00     0.045 C 
HETATM   14  C   UNL     1      30.072  78.755  21.330  1.00  0.00     0.132 C 
HETATM   15  N   UNL     1      30.282  79.921  22.142  1.00  0.00    -0.360 N 
HETATM   16  C   UNL     1      31.571  79.989  22.654  1.00  0.00     0.218 C 
HETATM   17  H   UNL     1      29.588  80.597  22.315  1.00  0.00     0.162 HD
HETATM   18  O   UNL     1      32.052  80.879  23.337  1.00  0.00    -0.274 OA
HETATM   19  C   UNL     1      32.307  78.766  22.167  1.00  0.00     0.113 C 
ENDBRANCH   9  13
BRANCH  12  20
HETATM   20  O   UNL     1      32.579  73.733  18.087  1.00  0.00    -0.353 OA
HETATM   21  C   UNL     1      33.597  72.822  18.496  1.00  0.00     0.210 C 
ENDBRANCH  12  20
ENDBRANCH   1   7
TORSDOF 4
ENDMDL
MODEL 7
REMARK VINA RESULT:      -6.9      2.542      3.812
REMARK  4 active torsions:
REMARK  status: ('A' for Active; 'I' for Inactive)
REMARK    1  A    between atoms: O_1  and  C_5 
REMARK    2  A    between atoms: O_1  and  C_14 
REMARK    3  A    between atoms: O_2  and  C_18 
REMARK    4  A    between atoms: C_10  and  C_13 
ROOT
HETATM    1  O   UNL     1      31.328  75.044  15.987  1.00  0.00    -0.343 OA
ENDROOT
BRANCH   1   2
HETATM    2  C   UNL     1      32.621  74.596  15.599  1.00  0.00     0.129 C 
HETATM    3  C   UNL     1      33.143  75.473  14.471  1.00  0.00     0.032 C 
HETATM    4  C   UNL     1      32.448  74.939  13.219  1.00  0.00     0.002 C 
HETATM    5  C   UNL     1      32.031  73.504  13.539  1.00  0.00     0.002 C 
HETATM    6  C   UNL     1      32.534  73.222  14.953  1.00  0.00     0.032 C 
ENDBRANCH   1   2
BRANCH   1   7
HETATM    7  C   UNL     1      31.247  75.761  17.152  1.00  0.00     0.103 A 
HETATM    8  C   UNL     1      31.555  75.136  18.356  1.00  0.00     0.047 A 
HETATM    9  C   UNL     1      31.475  75.855  19.548  1.00  0.00    -0.049 A 
HETATM   10  C   UNL     1      31.086  77.194  19.531  1.00  0.00     0.010 A 
HETATM   11  C   UNL     1      30.779  77.815  18.320  1.00  0.00     0.040 A 
HETATM   12  C   UNL     1      30.858  77.096  17.128  1.00  0.00     0.101 A 
BRANCH   9  13
HETATM   13  C   UNL     1      31.810  75.181  20.861  1.00  0.00     0.045 C 
HETATM   14  C   UNL     1      32.032  76.115  22.052  1.00  0.00     0.132 C 
HETATM   15  N   UNL     1      32.818  75.330  22.962  1.00  0.00    -0.360 N 
HETATM   16  C   UNL     1      33.472  74.280  22.332  1.00  0.00     0.218 C 
HETATM   17  H   UNL     1      32.885  75.516  23.926  1.00  0.00     0.162 HD
HETATM   18  O   UNL     1      34.241  73.476  22.835  1.00  0.00    -0.274 OA
HETATM   19  C   UNL     1      33.100  74.338  20.871  1.00  0.00     0.113 C 
ENDBRANCH   9  13
BRANCH  12  20
HETATM   20  O   UNL     1      30.554  77.713  15.952  1.00  0.00    -0.353 OA
HETATM   21  C   UNL     1      31.526  78.611  15.421  1.00  0.00     0.210 C 
ENDBRANCH  12  20
ENDBRANCH   1   7
TORSDOF 4
ENDMDL
MODEL 8
REMARK VINA RESULT:      -6.8      3.092      6.557
REMARK  4 active torsions:
REMARK  status: ('A' for Active; 'I' for Inactive)
REMARK    1  A    between atoms: O_1  and  C_5 
REMARK    2  A    between atoms: O_1  and  C_14 
REMARK    3  A    between atoms: O_2  and  C_18 
REMARK    4  A    between atoms: C_10  and  C_13 
ROOT
HETATM    1  O   UNL     1      32.108  74.260  20.727  1.00  0.00    -0.343 OA
ENDROOT
BRANCH   1   2
HETATM    2  C   UNL     1      33.510  74.025  20.750  1.00  0.00     0.129 C 
HETATM    3  C   UNL     1      33.824  72.755  19.973  1.00  0.00     0.032 C 
HETATM    4  C   UNL     1      33.495  71.622  20.943  1.00  0.00     0.002 C 
HETATM    5  C   UNL     1      33.557  72.226  22.345  1.00  0.00     0.002 C 
HETATM    6  C   UNL     1      33.967  73.685  22.160  1.00  0.00     0.032 C 
ENDBRANCH   1   2
BRANCH   1   7
HETATM    7  C   UNL     1      31.695  75.485  20.273  1.00  0.00     0.103 A 
HETATM    8  C   UNL     1      31.498  75.672  18.909  1.00  0.00     0.047 A 
HETATM    9  C   UNL     1      31.079  76.913  18.434  1.00  0.00    -0.049 A 
HETATM   10  C   UNL     1      30.858  77.963  19.325  1.00  0.00     0.010 A 
HETATM   11  C   UNL     1      31.056  77.770  20.693  1.00  0.00     0.040 A 
HETATM   12  C   UNL     1      31.477  76.527  21.168  1.00  0.00     0.101 A 
BRANCH   9  13
HETATM   13  C   UNL     1      30.862  77.123  16.951  1.00  0.00     0.045 C 
HETATM   14  C   UNL     1      29.997  78.324  16.566  1.00  0.00     0.132 C 
HETATM   15  N   UNL     1      29.525  78.000  15.250  1.00  0.00    -0.360 N 
HETATM   16  C   UNL     1      29.587  76.639  14.982  1.00  0.00     0.218 C 
HETATM   17  H   UNL     1      29.194  78.669  14.608  1.00  0.00     0.162 HD
HETATM   18  O   UNL     1      29.216  76.064  13.970  1.00  0.00    -0.274 OA
HETATM   19  C   UNL     1      30.158  75.971  16.208  1.00  0.00     0.113 C 
ENDBRANCH   9  13
BRANCH  12  20
HETATM   20  O   UNL     1      31.669  76.351  22.505  1.00  0.00    -0.353 OA
HETATM   21  C   UNL     1      30.643  75.666  23.222  1.00  0.00     0.210 C 
ENDBRANCH  12  20
ENDBRANCH   1   7
TORSDOF 4
ENDMDL
MODEL 9
REMARK VINA RESULT:      -6.8      3.268      4.468
REMARK  4 active torsions:
REMARK  status: ('A' for Active; 'I' for Inactive)
REMARK    1  A    between atoms: O_1  and  C_5 
REMARK    2  A    between atoms: O_1  and  C_14 
REMARK    3  A    between atoms: O_2  and  C_18 
REMARK    4  A    between atoms: C_10  and  C_13 
ROOT
HETATM    1  O   UNL     1      31.851  75.300  19.939  1.00  0.00    -0.343 OA
ENDROOT
BRANCH   1   2
HETATM    2  C   UNL     1      32.522  76.516  19.635  1.00  0.00     0.129 C 
HETATM    3  C   UNL     1      32.041  77.610  20.577  1.00  0.00     0.032 C 
HETATM    4  C   UNL     1      30.704  78.059  19.989  1.00  0.00     0.002 C 
HETATM    5  C   UNL     1      30.728  77.659  18.515  1.00  0.00     0.002 C 
HETATM    6  C   UNL     1      32.097  77.029  18.268  1.00  0.00     0.032 C 
ENDBRANCH   1   2
BRANCH   1   7
HETATM    7  C   UNL     1      32.608  74.296  20.484  1.00  0.00     0.103 A 
HETATM    8  C   UNL     1      33.592  73.691  19.708  1.00  0.00     0.047 A 
HETATM    9  C   UNL     1      34.367  72.668  20.250  1.00  0.00    -0.049 A 
HETATM   10  C   UNL     1      34.156  72.253  21.565  1.00  0.00     0.010 A 
HETATM   11  C   UNL     1      33.169  72.864  22.338  1.00  0.00     0.040 A 
HETATM   12  C   UNL     1      32.392  73.888  21.796  1.00  0.00     0.101 A 
BRANCH   9  13
HETATM   13  C   UNL     1      35.439  72.005  19.412  1.00  0.00     0.045 C 
HETATM   14  C   UNL     1      35.471  70.477  19.455  1.00  0.00     0.132 C 
HETATM   15  N   UNL     1      36.811  70.150  19.058  1.00  0.00    -0.360 N 
HETATM   16  C   UNL     1      37.691  71.210  19.228  1.00  0.00     0.218 C 
HETATM   17  H   UNL     1      37.076  69.270  18.704  1.00  0.00     0.162 HD
HETATM   18  O   UNL     1      38.894  71.216  19.020  1.00  0.00    -0.274 OA
HETATM   19  C   UNL     1      36.892  72.366  19.777  1.00  0.00     0.113 C 
ENDBRANCH   9  13
BRANCH  12  20
HETATM   20  O   UNL     1      31.429  74.476  22.560  1.00  0.00    -0.353 OA
HETATM   21  C   UNL     1      30.312  73.669  22.927  1.00  0.00     0.210 C 
ENDBRANCH  12  20
ENDBRANCH   1   7
TORSDOF 4
ENDMDL
