MODEL 1
REMARK VINA RESULT:      -6.4      0.000      0.000
REMARK  6 active torsions:
REMARK  status: ('A' for Active; 'I' for Inactive)
REMARK    1  A    between atoms: O_1  and  C_8 
REMARK    2  A    between atoms: O_2  and  C_11 
REMARK    3  A    between atoms: O_3  and  C_13 
REMARK    4  A    between atoms: C_6  and  C_7 
REMARK    5  A    between atoms: C_6  and  C_8 
REMARK    6  A    between atoms: C_8  and  C_14 
ROOT
HETATM    1  O   UNL     1       0.518 -12.634  54.382  1.00  0.00    -0.385 OA
HETATM    2  H   UNL     1       0.126 -12.424  53.520  1.00  0.00     0.210 HD
ENDROOT
BRANCH   1   3
HETATM    3  C   UNL     1       0.662 -11.439  55.140  1.00  0.00     0.223 C 
BRANCH   3   4
HETATM    4  C   UNL     1       1.531 -10.454  54.341  1.00  0.00     0.081 C 
BRANCH   4   5
HETATM    5  C   UNL     1       2.673  -9.920  55.135  1.00  0.00    -0.052 A 
HETATM    6  C   UNL     1       2.942 -10.434  56.403  1.00  0.00     0.046 A 
HETATM    7  C   UNL     1       4.011  -9.933  57.147  1.00  0.00     0.099 A 
HETATM    8  C   UNL     1       4.810  -8.918  56.622  1.00  0.00     0.098 A 
HETATM    9  C   UNL     1       4.541  -8.403  55.354  1.00  0.00     0.040 A 
HETATM   10  C   UNL     1       3.472  -8.904  54.611  1.00  0.00     0.010 A 
BRANCH   7  11
HETATM   11  O   UNL     1       4.264 -10.444  58.383  1.00  0.00    -0.358 OA
HETATM   12  H   UNL     1       5.132 -10.415  58.734  1.00  0.00     0.217 HD
ENDBRANCH   7  11
BRANCH   8  13
HETATM   13  O   UNL     1       5.858  -8.422  57.339  1.00  0.00    -0.358 OA
HETATM   14  H   UNL     1       6.729  -8.482  56.998  1.00  0.00     0.217 HD
ENDBRANCH   8  13
ENDBRANCH   4   5
ENDBRANCH   3   4
BRANCH   3  15
HETATM   15  C   UNL     1      -0.726 -10.881  55.381  1.00  0.00     0.203 C 
HETATM   16  O   UNL     1      -0.855 -10.349  56.624  1.00  0.00    -0.646 OA
HETATM   17  O   UNL     1      -1.643 -10.912  54.571  1.00  0.00    -0.646 OA
ENDBRANCH   3  15
ENDBRANCH   1   3
TORSDOF 6
ENDMDL
MODEL 2
REMARK VINA RESULT:      -6.3      0.907      1.465
REMARK  6 active torsions:
REMARK  status: ('A' for Active; 'I' for Inactive)
REMARK    1  A    between atoms: O_1  and  C_8 
REMARK    2  A    between atoms: O_2  and  C_11 
REMARK    3  A    between atoms: O_3  and  C_13 
REMARK    4  A    between atoms: C_6  and  C_7 
REMARK    5  A    between atoms: C_6  and  C_8 
REMARK    6  A    between atoms: C_8  and  C_14 
ROOT
HETATM    1  O   UNL     1      -0.025  -9.926  56.629  1.00  0.00    -0.385 OA
HETATM    2  H   UNL     1       0.664 -10.077  57.296  1.00  0.00     0.210 HD
ENDROOT
BRANCH   1   3
HETATM    3  C   UNL     1       0.482 -10.257  55.342  1.00  0.00     0.223 C 
BRANCH   3   4
HETATM    4  C   UNL     1       1.798 -11.032  55.519  1.00  0.00     0.081 C 
BRANCH   4   5
HETATM    5  C   UNL     1       2.956 -10.139  55.808  1.00  0.00    -0.052 A 
HETATM    6  C   UNL     1       3.644 -10.257  57.016  1.00  0.00     0.046 A 
HETATM    7  C   UNL     1       4.728  -9.421  57.286  1.00  0.00     0.099 A 
HETATM    8  C   UNL     1       5.122  -8.467  56.349  1.00  0.00     0.098 A 
HETATM    9  C   UNL     1       4.434  -8.348  55.142  1.00  0.00     0.040 A 
HETATM   10  C   UNL     1       3.351  -9.184  54.871  1.00  0.00     0.010 A 
BRANCH   7  11
HETATM   11  O   UNL     1       5.391  -9.547  58.468  1.00  0.00    -0.358 OA
HETATM   12  H   UNL     1       6.155 -10.087  58.522  1.00  0.00     0.217 HD
ENDBRANCH   7  11
BRANCH   8  13
HETATM   13  O   UNL     1       6.180  -7.646  56.602  1.00  0.00    -0.358 OA
HETATM   14  H   UNL     1       6.614  -7.210  55.895  1.00  0.00     0.217 HD
ENDBRANCH   8  13
ENDBRANCH   4   5
ENDBRANCH   3   4
BRANCH   3  15
HETATM   15  C   UNL     1      -0.565 -11.100  54.642  1.00  0.00     0.203 C 
HETATM   16  O   UNL     1      -1.828 -10.720  54.966  1.00  0.00    -0.646 OA
HETATM   17  O   UNL     1      -0.323 -12.030  53.885  1.00  0.00    -0.646 OA
ENDBRANCH   3  15
ENDBRANCH   1   3
TORSDOF 6
ENDMDL
MODEL 3
REMARK VINA RESULT:      -6.1      1.091      2.194
REMARK  6 active torsions:
REMARK  status: ('A' for Active; 'I' for Inactive)
REMARK    1  A    between atoms: O_1  and  C_8 
REMARK    2  A    between atoms: O_2  and  C_11 
REMARK    3  A    between atoms: O_3  and  C_13 
REMARK    4  A    between atoms: C_6  and  C_7 
REMARK    5  A    between atoms: C_6  and  C_8 
REMARK    6  A    between atoms: C_8  and  C_14 
ROOT
HETATM    1  O   UNL     1       0.653 -12.581  54.467  1.00  0.00    -0.385 OA
HETATM    2  H   UNL     1       0.267 -12.374  53.601  1.00  0.00     0.210 HD
ENDROOT
BRANCH   1   3
HETATM    3  C   UNL     1       0.977 -11.372  55.142  1.00  0.00     0.223 C 
BRANCH   3   4
HETATM    4  C   UNL     1       1.776 -10.475  54.182  1.00  0.00     0.081 C 
BRANCH   4   5
HETATM    5  C   UNL     1       2.874  -9.735  54.867  1.00  0.00    -0.052 A 
HETATM    6  C   UNL     1       3.550  -8.714  54.199  1.00  0.00     0.046 A 
HETATM    7  C   UNL     1       4.578  -8.022  54.840  1.00  0.00     0.099 A 
HETATM    8  C   UNL     1       4.930  -8.351  56.148  1.00  0.00     0.098 A 
HETATM    9  C   UNL     1       4.255  -9.373  56.816  1.00  0.00     0.040 A 
HETATM   10  C   UNL     1       3.227 -10.065  56.176  1.00  0.00     0.010 A 
BRANCH   7  11
HETATM   11  O   UNL     1       5.229  -7.027  54.177  1.00  0.00    -0.358 OA
HETATM   12  H   UNL     1       6.042  -7.205  53.746  1.00  0.00     0.217 HD
ENDBRANCH   7  11
BRANCH   8  13
HETATM   13  O   UNL     1       5.931  -7.682  56.785  1.00  0.00    -0.358 OA
HETATM   14  H   UNL     1       6.726  -7.483  56.329  1.00  0.00     0.217 HD
ENDBRANCH   8  13
ENDBRANCH   4   5
ENDBRANCH   3   4
BRANCH   3  15
HETATM   15  C   UNL     1      -0.325 -10.716  55.555  1.00  0.00     0.203 C 
HETATM   16  O   UNL     1      -1.244 -10.729  54.556  1.00  0.00    -0.646 OA
HETATM   17  O   UNL     1      -0.538 -10.212  56.650  1.00  0.00    -0.646 OA
ENDBRANCH   3  15
ENDBRANCH   1   3
TORSDOF 6
ENDMDL
MODEL 4
REMARK VINA RESULT:      -6.1      1.130      1.601
REMARK  6 active torsions:
REMARK  status: ('A' for Active; 'I' for Inactive)
REMARK    1  A    between atoms: O_1  and  C_8 
REMARK    2  A    between atoms: O_2  and  C_11 
REMARK    3  A    between atoms: O_3  and  C_13 
REMARK    4  A    between atoms: C_6  and  C_7 
REMARK    5  A    between atoms: C_6  and  C_8 
REMARK    6  A    between atoms: C_8  and  C_14 
ROOT
HETATM    1  O   UNL     1       0.896 -12.438  54.861  1.00  0.00    -0.385 OA
HETATM    2  H   UNL     1       0.323 -12.936  55.464  1.00  0.00     0.210 HD
ENDROOT
BRANCH   1   3
HETATM    3  C   UNL     1       1.193 -11.168  55.430  1.00  0.00     0.223 C 
BRANCH   3   4
HETATM    4  C   UNL     1       2.045 -10.371  54.428  1.00  0.00     0.081 C 
BRANCH   4   5
HETATM    5  C   UNL     1       2.852  -9.303  55.083  1.00  0.00    -0.052 A 
HETATM    6  C   UNL     1       3.883  -9.645  55.958  1.00  0.00     0.046 A 
HETATM    7  C   UNL     1       4.639  -8.644  56.571  1.00  0.00     0.099 A 
HETATM    8  C   UNL     1       4.363  -7.303  56.308  1.00  0.00     0.098 A 
HETATM    9  C   UNL     1       3.331  -6.961  55.434  1.00  0.00     0.040 A 
HETATM   10  C   UNL     1       2.576  -7.960  54.821  1.00  0.00     0.010 A 
BRANCH   7  11
HETATM   11  O   UNL     1       5.643  -8.991  57.422  1.00  0.00    -0.358 OA
HETATM   12  H   UNL     1       6.536  -8.877  57.164  1.00  0.00     0.217 HD
ENDBRANCH   7  11
BRANCH   8  13
HETATM   13  O   UNL     1       5.094  -6.318  56.900  1.00  0.00    -0.358 OA
HETATM   14  H   UNL     1       6.030  -6.376  56.920  1.00  0.00     0.217 HD
ENDBRANCH   8  13
ENDBRANCH   4   5
ENDBRANCH   3   4
BRANCH   3  15
HETATM   15  C   UNL     1      -0.125 -10.474  55.710  1.00  0.00     0.203 C 
HETATM   16  O   UNL     1      -0.938 -10.462  54.623  1.00  0.00    -0.646 OA
HETATM   17  O   UNL     1      -0.432  -9.962  56.778  1.00  0.00    -0.646 OA
ENDBRANCH   3  15
ENDBRANCH   1   3
TORSDOF 6
ENDMDL
MODEL 5
REMARK VINA RESULT:      -6.1      3.053      5.018
REMARK  6 active torsions:
REMARK  status: ('A' for Active; 'I' for Inactive)
REMARK    1  A    between atoms: O_1  and  C_8 
REMARK    2  A    between atoms: O_2  and  C_11 
REMARK    3  A    between atoms: O_3  and  C_13 
REMARK    4  A    between atoms: C_6  and  C_7 
REMARK    5  A    between atoms: C_6  and  C_8 
REMARK    6  A    between atoms: C_8  and  C_14 
ROOT
HETATM    1  O   UNL     1       2.772 -10.663  56.291  1.00  0.00    -0.385 OA
HETATM    2  H   UNL     1       2.406 -10.970  55.447  1.00  0.00     0.210 HD
ENDROOT
BRANCH   1   3
HETATM    3  C   UNL     1       3.566  -9.504  56.068  1.00  0.00     0.223 C 
BRANCH   3   4
HETATM    4  C   UNL     1       2.651  -8.269  56.113  1.00  0.00     0.081 C 
BRANCH   4   5
HETATM    5  C   UNL     1       3.221  -7.104  55.378  1.00  0.00    -0.052 A 
HETATM    6  C   UNL     1       4.017  -7.312  54.251  1.00  0.00     0.046 A 
HETATM    7  C   UNL     1       4.551  -6.222  53.563  1.00  0.00     0.099 A 
HETATM    8  C   UNL     1       4.289  -4.924  54.003  1.00  0.00     0.098 A 
HETATM    9  C   UNL     1       3.495  -4.716  55.131  1.00  0.00     0.040 A 
HETATM   10  C   UNL     1       2.961  -5.806  55.818  1.00  0.00     0.010 A 
BRANCH   7  11
HETATM   11  O   UNL     1       5.325  -6.437  52.464  1.00  0.00    -0.358 OA
HETATM   12  H   UNL     1       6.206  -6.123  52.443  1.00  0.00     0.217 HD
ENDBRANCH   7  11
BRANCH   8  13
HETATM   13  O   UNL     1       4.804  -3.852  53.339  1.00  0.00    -0.358 OA
HETATM   14  H   UNL     1       4.828  -3.848  52.402  1.00  0.00     0.217 HD
ENDBRANCH   8  13
ENDBRANCH   4   5
ENDBRANCH   3   4
BRANCH   3  15
HETATM   15  C   UNL     1       4.616  -9.453  57.159  1.00  0.00     0.203 C 
HETATM   16  O   UNL     1       4.477 -10.468  58.051  1.00  0.00    -0.646 OA
HETATM   17  O   UNL     1       5.486  -8.597  57.254  1.00  0.00    -0.646 OA
ENDBRANCH   3  15
ENDBRANCH   1   3
TORSDOF 6
ENDMDL
MODEL 6
REMARK VINA RESULT:      -6.0      3.204      5.344
REMARK  6 active torsions:
REMARK  status: ('A' for Active; 'I' for Inactive)
REMARK    1  A    between atoms: O_1  and  C_8 
REMARK    2  A    between atoms: O_2  and  C_11 
REMARK    3  A    between atoms: O_3  and  C_13 
REMARK    4  A    between atoms: C_6  and  C_7 
REMARK    5  A    between atoms: C_6  and  C_8 
REMARK    6  A    between atoms: C_8  and  C_14 
ROOT
HETATM    1  O   UNL     1       4.807  -4.066  53.643  1.00  0.00    -0.385 OA
HETATM    2  H   UNL     1       4.386  -3.920  52.781  1.00  0.00     0.210 HD
ENDROOT
BRANCH   1   3
HETATM    3  C   UNL     1       4.714  -5.442  53.989  1.00  0.00     0.223 C 
BRANCH   3   4
HETATM    4  C   UNL     1       3.645  -5.600  55.083  1.00  0.00     0.081 C 
BRANCH   4   5
HETATM    5  C   UNL     1       3.639  -6.962  55.688  1.00  0.00    -0.052 A 
HETATM    6  C   UNL     1       4.786  -7.453  56.312  1.00  0.00     0.046 A 
HETATM    7  C   UNL     1       4.781  -8.729  56.878  1.00  0.00     0.099 A 
HETATM    8  C   UNL     1       3.628  -9.511  56.821  1.00  0.00     0.098 A 
HETATM    9  C   UNL     1       2.481  -9.020  56.197  1.00  0.00     0.040 A 
HETATM   10  C   UNL     1       2.487  -7.746  55.631  1.00  0.00     0.010 A 
BRANCH   7  11
HETATM   11  O   UNL     1       5.906  -9.197  57.484  1.00  0.00    -0.358 OA
HETATM   12  H   UNL     1       6.558  -8.597  57.790  1.00  0.00     0.217 HD
ENDBRANCH   7  11
BRANCH   8  13
HETATM   13  O   UNL     1       3.610 -10.757  57.371  1.00  0.00    -0.358 OA
HETATM   14  H   UNL     1       4.377 -11.296  57.338  1.00  0.00     0.217 HD
ENDBRANCH   8  13
ENDBRANCH   4   5
ENDBRANCH   3   4
BRANCH   3  15
HETATM   15  C   UNL     1       4.338  -6.204  52.735  1.00  0.00     0.203 C 
HETATM   16  O   UNL     1       5.191  -7.231  52.484  1.00  0.00    -0.646 OA
HETATM   17  O   UNL     1       3.391  -5.932  52.009  1.00  0.00    -0.646 OA
ENDBRANCH   3  15
ENDBRANCH   1   3
TORSDOF 6
ENDMDL
MODEL 7
REMARK VINA RESULT:      -5.9      2.539      5.032
REMARK  6 active torsions:
REMARK  status: ('A' for Active; 'I' for Inactive)
REMARK    1  A    between atoms: O_1  and  C_8 
REMARK    2  A    between atoms: O_2  and  C_11 
REMARK    3  A    between atoms: O_3  and  C_13 
REMARK    4  A    between atoms: C_6  and  C_7 
REMARK    5  A    between atoms: C_6  and  C_8 
REMARK    6  A    between atoms: C_8  and  C_14 
ROOT
HETATM    1  O   UNL     1       5.303  -5.130  53.724  1.00  0.00    -0.385 OA
HETATM    2  H   UNL     1       5.633  -4.579  54.452  1.00  0.00     0.210 HD
ENDROOT
BRANCH   1   3
HETATM    3  C   UNL     1       4.363  -6.070  54.229  1.00  0.00     0.223 C 
BRANCH   3   4
HETATM    4  C   UNL     1       5.126  -7.324  54.689  1.00  0.00     0.081 C 
BRANCH   4   5
HETATM    5  C   UNL     1       4.217  -8.445  55.060  1.00  0.00    -0.052 A 
HETATM    6  C   UNL     1       4.322  -9.041  56.317  1.00  0.00     0.046 A 
HETATM    7  C   UNL     1       3.471 -10.092  56.665  1.00  0.00     0.099 A 
HETATM    8  C   UNL     1       2.517 -10.546  55.754  1.00  0.00     0.098 A 
HETATM    9  C   UNL     1       2.413  -9.950  54.497  1.00  0.00     0.040 A 
HETATM   10  C   UNL     1       3.263  -8.901  54.150  1.00  0.00     0.010 A 
BRANCH   7  11
HETATM   11  O   UNL     1       3.583 -10.664  57.895  1.00  0.00    -0.358 OA
HETATM   12  H   UNL     1       3.623 -10.126  58.660  1.00  0.00     0.217 HD
ENDBRANCH   7  11
BRANCH   8  13
HETATM   13  O   UNL     1       1.680 -11.570  56.083  1.00  0.00    -0.358 OA
HETATM   14  H   UNL     1       1.456 -11.722  56.980  1.00  0.00     0.217 HD
ENDBRANCH   8  13
ENDBRANCH   4   5
ENDBRANCH   3   4
BRANCH   3  15
HETATM   15  C   UNL     1       3.634  -5.413  55.383  1.00  0.00     0.203 C 
HETATM   16  O   UNL     1       4.239  -5.654  56.575  1.00  0.00    -0.646 OA
HETATM   17  O   UNL     1       2.609  -4.753  55.277  1.00  0.00    -0.646 OA
ENDBRANCH   3  15
ENDBRANCH   1   3
TORSDOF 6
ENDMDL
MODEL 8
REMARK VINA RESULT:      -5.9      1.150      2.036
REMARK  6 active torsions:
REMARK  status: ('A' for Active; 'I' for Inactive)
REMARK    1  A    between atoms: O_1  and  C_8 
REMARK    2  A    between atoms: O_2  and  C_11 
REMARK    3  A    between atoms: O_3  and  C_13 
REMARK    4  A    between atoms: C_6  and  C_7 
REMARK    5  A    between atoms: C_6  and  C_8 
REMARK    6  A    between atoms: C_8  and  C_14 
ROOT
HETATM    1  O   UNL     1       1.361 -10.798  52.828  1.00  0.00    -0.385 OA
HETATM    2  H   UNL     1       0.547 -11.245  52.548  1.00  0.00     0.210 HD
ENDROOT
BRANCH   1   3
HETATM    3  C   UNL     1       1.340 -10.614  54.238  1.00  0.00     0.223 C 
BRANCH   3   4
HETATM    4  C   UNL     1       1.991  -9.259  54.564  1.00  0.00     0.081 C 
BRANCH   4   5
HETATM    5  C   UNL     1       3.089  -9.375  55.564  1.00  0.00    -0.052 A 
HETATM    6  C   UNL     1       4.137  -8.454  55.560  1.00  0.00     0.046 A 
HETATM    7  C   UNL     1       5.166  -8.562  56.497  1.00  0.00     0.099 A 
HETATM    8  C   UNL     1       5.146  -9.593  57.437  1.00  0.00     0.098 A 
HETATM    9  C   UNL     1       4.099 -10.514  57.440  1.00  0.00     0.040 A 
HETATM   10  C   UNL     1       3.071 -10.405  56.504  1.00  0.00     0.010 A 
BRANCH   7  11
HETATM   11  O   UNL     1       6.182  -7.657  56.483  1.00  0.00    -0.358 OA
HETATM   12  H   UNL     1       6.026  -6.773  56.752  1.00  0.00     0.217 HD
ENDBRANCH   7  11
BRANCH   8  13
HETATM   13  O   UNL     1       6.144  -9.708  58.357  1.00  0.00    -0.358 OA
HETATM   14  H   UNL     1       6.784 -10.388  58.272  1.00  0.00     0.217 HD
ENDBRANCH   8  13
ENDBRANCH   4   5
ENDBRANCH   3   4
BRANCH   3  15
HETATM   15  C   UNL     1      -0.108 -10.652  54.682  1.00  0.00     0.203 C 
HETATM   16  O   UNL     1      -0.245 -11.156  55.936  1.00  0.00    -0.646 OA
HETATM   17  O   UNL     1      -1.058 -10.293  54.000  1.00  0.00    -0.646 OA
ENDBRANCH   3  15
ENDBRANCH   1   3
TORSDOF 6
ENDMDL
MODEL 9
REMARK VINA RESULT:      -5.9      1.711      2.553
REMARK  6 active torsions:
REMARK  status: ('A' for Active; 'I' for Inactive)
REMARK    1  A    between atoms: O_1  and  C_8 
REMARK    2  A    between atoms: O_2  and  C_11 
REMARK    3  A    between atoms: O_3  and  C_13 
REMARK    4  A    between atoms: C_6  and  C_7 
REMARK    5  A    between atoms: C_6  and  C_8 
REMARK    6  A    between atoms: C_8  and  C_14 
ROOT
HETATM    1  O   UNL     1       0.065  -9.814  53.713  1.00  0.00    -0.385 OA
HETATM    2  H   UNL     1      -0.721  -9.720  54.273  1.00  0.00     0.210 HD
ENDROOT
BRANCH   1   3
HETATM    3  C   UNL     1       1.133 -10.355  54.483  1.00  0.00     0.223 C 
BRANCH   3   4
HETATM    4  C   UNL     1       1.242  -9.557  55.793  1.00  0.00     0.081 C 
BRANCH   4   5
HETATM    5  C   UNL     1       2.610  -9.012  56.021  1.00  0.00    -0.052 A 
HETATM    6  C   UNL     1       2.950  -7.750  55.531  1.00  0.00     0.046 A 
HETATM    7  C   UNL     1       4.231  -7.240  55.745  1.00  0.00     0.099 A 
HETATM    8  C   UNL     1       5.172  -7.992  56.448  1.00  0.00     0.098 A 
HETATM    9  C   UNL     1       4.833  -9.253  56.937  1.00  0.00     0.040 A 
HETATM   10  C   UNL     1       3.553  -9.763  56.724  1.00  0.00     0.010 A 
BRANCH   7  11
HETATM   11  O   UNL     1       4.549  -6.008  55.262  1.00  0.00    -0.358 OA
HETATM   12  H   UNL     1       4.881  -5.917  54.391  1.00  0.00     0.217 HD
ENDBRANCH   7  11
BRANCH   8  13
HETATM   13  O   UNL     1       6.426  -7.503  56.663  1.00  0.00    -0.358 OA
HETATM   14  H   UNL     1       6.580  -6.900  57.363  1.00  0.00     0.217 HD
ENDBRANCH   8  13
ENDBRANCH   4   5
ENDBRANCH   3   4
BRANCH   3  15
HETATM   15  C   UNL     1       0.813 -11.812  54.748  1.00  0.00     0.203 C 
HETATM   16  O   UNL     1       0.921 -12.128  56.064  1.00  0.00    -0.646 OA
HETATM   17  O   UNL     1       0.509 -12.628  53.889  1.00  0.00    -0.646 OA
ENDBRANCH   3  15
ENDBRANCH   1   3
TORSDOF 6
ENDMDL
