MODEL 1
REMARK VINA RESULT:      -6.5      0.000      0.000
REMARK  6 active torsions:
REMARK  status: ('A' for Active; 'I' for Inactive)
REMARK    1  A    between atoms: O_1  and  C_8 
REMARK    2  A    between atoms: O_2  and  C_11 
REMARK    3  A    between atoms: O_3  and  C_13 
REMARK    4  A    between atoms: C_6  and  C_7 
REMARK    5  A    between atoms: C_6  and  C_8 
REMARK    6  A    between atoms: C_8  and  C_14 
ROOT
HETATM    1  O   UNL     1       2.921  -7.598  57.922  1.00  0.00    -0.385 OA
HETATM    2  H   UNL     1       2.772  -8.175  58.688  1.00  0.00     0.210 HD
ENDROOT
BRANCH   1   3
HETATM    3  C   UNL     1       3.255  -6.291  58.373  1.00  0.00     0.223 C 
BRANCH   3   4
HETATM    4  C   UNL     1       4.037  -5.575  57.259  1.00  0.00     0.081 C 
BRANCH   4   5
HETATM    5  C   UNL     1       5.185  -4.781  57.782  1.00  0.00    -0.052 A 
HETATM    6  C   UNL     1       5.568  -4.903  59.118  1.00  0.00     0.046 A 
HETATM    7  C   UNL     1       6.642  -4.159  59.607  1.00  0.00     0.099 A 
HETATM    8  C   UNL     1       7.332  -3.293  58.760  1.00  0.00     0.098 A 
HETATM    9  C   UNL     1       6.949  -3.169  57.424  1.00  0.00     0.040 A 
HETATM   10  C   UNL     1       5.876  -3.913  56.936  1.00  0.00     0.010 A 
BRANCH   7  11
HETATM   11  O   UNL     1       7.006  -4.288  60.912  1.00  0.00    -0.358 OA
HETATM   12  H   UNL     1       7.014  -5.134  61.315  1.00  0.00     0.217 HD
ENDBRANCH   7  11
BRANCH   8  13
HETATM   13  O   UNL     1       8.384  -2.562  59.226  1.00  0.00    -0.358 OA
HETATM   14  H   UNL     1       8.945  -2.917  59.888  1.00  0.00     0.217 HD
ENDBRANCH   8  13
ENDBRANCH   4   5
ENDBRANCH   3   4
BRANCH   3  15
HETATM   15  C   UNL     1       1.960  -5.571  58.689  1.00  0.00     0.203 C 
HETATM   16  O   UNL     1       2.107  -4.667  59.691  1.00  0.00    -0.646 OA
HETATM   17  O   UNL     1       0.891  -5.778  58.130  1.00  0.00    -0.646 OA
ENDBRANCH   3  15
ENDBRANCH   1   3
TORSDOF 6
ENDMDL
MODEL 2
REMARK VINA RESULT:      -6.3      1.204      1.412
REMARK  6 active torsions:
REMARK  status: ('A' for Active; 'I' for Inactive)
REMARK    1  A    between atoms: O_1  and  C_8 
REMARK    2  A    between atoms: O_2  and  C_11 
REMARK    3  A    between atoms: O_3  and  C_13 
REMARK    4  A    between atoms: C_6  and  C_7 
REMARK    5  A    between atoms: C_6  and  C_8 
REMARK    6  A    between atoms: C_8  and  C_14 
ROOT
HETATM    1  O   UNL     1       3.989  -6.556  59.579  1.00  0.00    -0.385 OA
HETATM    2  H   UNL     1       3.202  -7.113  59.681  1.00  0.00     0.210 HD
ENDROOT
BRANCH   1   3
HETATM    3  C   UNL     1       3.632  -5.344  58.926  1.00  0.00     0.223 C 
BRANCH   3   4
HETATM    4  C   UNL     1       4.519  -5.181  57.680  1.00  0.00     0.081 C 
BRANCH   4   5
HETATM    5  C   UNL     1       5.489  -4.057  57.809  1.00  0.00    -0.052 A 
HETATM    6  C   UNL     1       6.546  -4.147  58.715  1.00  0.00     0.046 A 
HETATM    7  C   UNL     1       7.454  -3.094  58.836  1.00  0.00     0.099 A 
HETATM    8  C   UNL     1       7.303  -1.951  58.051  1.00  0.00     0.098 A 
HETATM    9  C   UNL     1       6.246  -1.860  57.145  1.00  0.00     0.040 A 
HETATM   10  C   UNL     1       5.339  -2.913  57.025  1.00  0.00     0.010 A 
BRANCH   7  11
HETATM   11  O   UNL     1       8.481  -3.194  59.723  1.00  0.00    -0.358 OA
HETATM   12  H   UNL     1       8.972  -2.432  59.960  1.00  0.00     0.217 HD
ENDBRANCH   7  11
BRANCH   8  13
HETATM   13  O   UNL     1       8.184  -0.917  58.159  1.00  0.00    -0.358 OA
HETATM   14  H   UNL     1       7.908  -0.103  58.533  1.00  0.00     0.217 HD
ENDBRANCH   8  13
ENDBRANCH   4   5
ENDBRANCH   3   4
BRANCH   3  15
HETATM   15  C   UNL     1       2.167  -5.442  58.551  1.00  0.00     0.203 C 
HETATM   16  O   UNL     1       1.366  -4.814  59.450  1.00  0.00    -0.646 OA
HETATM   17  O   UNL     1       1.734  -6.029  57.568  1.00  0.00    -0.646 OA
ENDBRANCH   3  15
ENDBRANCH   1   3
TORSDOF 6
ENDMDL
MODEL 3
REMARK VINA RESULT:      -6.3      0.775      1.837
REMARK  6 active torsions:
REMARK  status: ('A' for Active; 'I' for Inactive)
REMARK    1  A    between atoms: O_1  and  C_8 
REMARK    2  A    between atoms: O_2  and  C_11 
REMARK    3  A    between atoms: O_3  and  C_13 
REMARK    4  A    between atoms: C_6  and  C_7 
REMARK    5  A    between atoms: C_6  and  C_8 
REMARK    6  A    between atoms: C_8  and  C_14 
ROOT
HETATM    1  O   UNL     1       3.025  -7.580  57.971  1.00  0.00    -0.385 OA
HETATM    2  H   UNL     1       2.855  -7.588  57.016  1.00  0.00     0.210 HD
ENDROOT
BRANCH   1   3
HETATM    3  C   UNL     1       3.318  -6.252  58.390  1.00  0.00     0.223 C 
BRANCH   3   4
HETATM    4  C   UNL     1       4.076  -5.539  57.258  1.00  0.00     0.081 C 
BRANCH   4   5
HETATM    5  C   UNL     1       5.230  -4.738  57.756  1.00  0.00    -0.052 A 
HETATM    6  C   UNL     1       5.896  -3.864  56.895  1.00  0.00     0.046 A 
HETATM    7  C   UNL     1       6.976  -3.114  57.361  1.00  0.00     0.099 A 
HETATM    8  C   UNL     1       7.391  -3.239  58.687  1.00  0.00     0.098 A 
HETATM    9  C   UNL     1       6.726  -4.113  59.547  1.00  0.00     0.040 A 
HETATM   10  C   UNL     1       5.646  -4.862  59.081  1.00  0.00     0.010 A 
BRANCH   7  11
HETATM   11  O   UNL     1       7.617  -2.265  56.512  1.00  0.00    -0.358 OA
HETATM   12  H   UNL     1       7.432  -2.292  55.594  1.00  0.00     0.217 HD
ENDBRANCH   7  11
BRANCH   8  13
HETATM   13  O   UNL     1       8.444  -2.511  59.153  1.00  0.00    -0.358 OA
HETATM   14  H   UNL     1       8.328  -1.607  59.375  1.00  0.00     0.217 HD
ENDBRANCH   8  13
ENDBRANCH   4   5
ENDBRANCH   3   4
BRANCH   3  15
HETATM   15  C   UNL     1       2.000  -5.567  58.690  1.00  0.00     0.203 C 
HETATM   16  O   UNL     1       2.110  -4.665  59.699  1.00  0.00    -0.646 OA
HETATM   17  O   UNL     1       0.945  -5.797  58.114  1.00  0.00    -0.646 OA
ENDBRANCH   3  15
ENDBRANCH   1   3
TORSDOF 6
ENDMDL
MODEL 4
REMARK VINA RESULT:      -5.9      1.881      5.230
REMARK  6 active torsions:
REMARK  status: ('A' for Active; 'I' for Inactive)
REMARK    1  A    between atoms: O_1  and  C_8 
REMARK    2  A    between atoms: O_2  and  C_11 
REMARK    3  A    between atoms: O_3  and  C_13 
REMARK    4  A    between atoms: C_6  and  C_7 
REMARK    5  A    between atoms: C_6  and  C_8 
REMARK    6  A    between atoms: C_8  and  C_14 
ROOT
HETATM    1  O   UNL     1       7.752  -2.047  55.926  1.00  0.00    -0.385 OA
HETATM    2  H   UNL     1       7.715  -2.834  55.360  1.00  0.00     0.210 HD
ENDROOT
BRANCH   1   3
HETATM    3  C   UNL     1       6.678  -2.083  56.857  1.00  0.00     0.223 C 
BRANCH   3   4
HETATM    4  C   UNL     1       6.846  -3.324  57.750  1.00  0.00     0.081 C 
BRANCH   4   5
HETATM    5  C   UNL     1       5.705  -4.275  57.634  1.00  0.00    -0.052 A 
HETATM    6  C   UNL     1       5.290  -5.005  58.748  1.00  0.00     0.046 A 
HETATM    7  C   UNL     1       4.221  -5.896  58.640  1.00  0.00     0.099 A 
HETATM    8  C   UNL     1       3.568  -6.055  57.418  1.00  0.00     0.098 A 
HETATM    9  C   UNL     1       3.983  -5.325  56.304  1.00  0.00     0.040 A 
HETATM   10  C   UNL     1       5.051  -4.435  56.412  1.00  0.00     0.010 A 
BRANCH   7  11
HETATM   11  O   UNL     1       3.825  -6.602  59.734  1.00  0.00    -0.358 OA
HETATM   12  H   UNL     1       4.067  -7.502  59.823  1.00  0.00     0.217 HD
ENDBRANCH   7  11
BRANCH   8  13
HETATM   13  O   UNL     1       2.522  -6.921  57.300  1.00  0.00    -0.358 OA
HETATM   14  H   UNL     1       2.475  -7.502  56.566  1.00  0.00     0.217 HD
ENDBRANCH   8  13
ENDBRANCH   4   5
ENDBRANCH   3   4
BRANCH   3  15
HETATM   15  C   UNL     1       6.735  -0.806  57.670  1.00  0.00     0.203 C 
HETATM   16  O   UNL     1       7.864  -0.726  58.420  1.00  0.00    -0.646 OA
HETATM   17  O   UNL     1       5.867   0.057  57.679  1.00  0.00    -0.646 OA
ENDBRANCH   3  15
ENDBRANCH   1   3
TORSDOF 6
ENDMDL
MODEL 5
REMARK VINA RESULT:      -5.8      2.577      5.030
REMARK  6 active torsions:
REMARK  status: ('A' for Active; 'I' for Inactive)
REMARK    1  A    between atoms: O_1  and  C_8 
REMARK    2  A    between atoms: O_2  and  C_11 
REMARK    3  A    between atoms: O_3  and  C_13 
REMARK    4  A    between atoms: C_6  and  C_7 
REMARK    5  A    between atoms: C_6  and  C_8 
REMARK    6  A    between atoms: C_8  and  C_14 
ROOT
HETATM    1  O   UNL     1       6.892  -0.381  54.799  1.00  0.00    -0.385 OA
HETATM    2  H   UNL     1       7.725  -0.817  54.564  1.00  0.00     0.210 HD
ENDROOT
BRANCH   1   3
HETATM    3  C   UNL     1       6.237  -1.127  55.818  1.00  0.00     0.223 C 
BRANCH   3   4
HETATM    4  C   UNL     1       7.108  -2.346  56.168  1.00  0.00     0.081 C 
BRANCH   4   5
HETATM    5  C   UNL     1       6.399  -3.329  57.035  1.00  0.00    -0.052 A 
HETATM    6  C   UNL     1       6.810  -3.519  58.354  1.00  0.00     0.046 A 
HETATM    7  C   UNL     1       6.147  -4.440  59.166  1.00  0.00     0.099 A 
HETATM    8  C   UNL     1       5.073  -5.170  58.658  1.00  0.00     0.098 A 
HETATM    9  C   UNL     1       4.663  -4.981  57.338  1.00  0.00     0.040 A 
HETATM   10  C   UNL     1       5.326  -4.061  56.527  1.00  0.00     0.010 A 
BRANCH   7  11
HETATM   11  O   UNL     1       6.557  -4.615  60.452  1.00  0.00    -0.358 OA
HETATM   12  H   UNL     1       7.284  -5.174  60.640  1.00  0.00     0.217 HD
ENDBRANCH   7  11
BRANCH   8  13
HETATM   13  O   UNL     1       4.417  -6.072  59.441  1.00  0.00    -0.358 OA
HETATM   14  H   UNL     1       4.660  -6.175  60.341  1.00  0.00     0.217 HD
ENDBRANCH   8  13
ENDBRANCH   4   5
ENDBRANCH   3   4
BRANCH   3  15
HETATM   15  C   UNL     1       6.062  -0.213  57.013  1.00  0.00     0.203 C 
HETATM   16  O   UNL     1       4.952   0.562  56.907  1.00  0.00    -0.646 OA
HETATM   17  O   UNL     1       6.829  -0.150  57.965  1.00  0.00    -0.646 OA
ENDBRANCH   3  15
ENDBRANCH   1   3
TORSDOF 6
ENDMDL
MODEL 6
REMARK VINA RESULT:      -5.8      1.097      1.956
REMARK  6 active torsions:
REMARK  status: ('A' for Active; 'I' for Inactive)
REMARK    1  A    between atoms: O_1  and  C_8 
REMARK    2  A    between atoms: O_2  and  C_11 
REMARK    3  A    between atoms: O_3  and  C_13 
REMARK    4  A    between atoms: C_6  and  C_7 
REMARK    5  A    between atoms: C_6  and  C_8 
REMARK    6  A    between atoms: C_8  and  C_14 
ROOT
HETATM    1  O   UNL     1       3.472  -6.599  56.255  1.00  0.00    -0.385 OA
HETATM    2  H   UNL     1       4.309  -7.006  55.980  1.00  0.00     0.210 HD
ENDROOT
BRANCH   1   3
HETATM    3  C   UNL     1       3.667  -5.889  57.472  1.00  0.00     0.223 C 
BRANCH   3   4
HETATM    4  C   UNL     1       4.211  -4.490  57.140  1.00  0.00     0.081 C 
BRANCH   4   5
HETATM    5  C   UNL     1       5.467  -4.171  57.876  1.00  0.00    -0.052 A 
HETATM    6  C   UNL     1       6.403  -3.301  57.317  1.00  0.00     0.046 A 
HETATM    7  C   UNL     1       7.579  -3.004  58.006  1.00  0.00     0.099 A 
HETATM    8  C   UNL     1       7.819  -3.577  59.254  1.00  0.00     0.098 A 
HETATM    9  C   UNL     1       6.884  -4.449  59.814  1.00  0.00     0.040 A 
HETATM   10  C   UNL     1       5.708  -4.745  59.125  1.00  0.00     0.010 A 
BRANCH   7  11
HETATM   11  O   UNL     1       8.484  -2.152  57.450  1.00  0.00    -0.358 OA
HETATM   12  H   UNL     1       9.289  -1.971  57.892  1.00  0.00     0.217 HD
ENDBRANCH   7  11
BRANCH   8  13
HETATM   13  O   UNL     1       8.963  -3.294  59.937  1.00  0.00    -0.358 OA
HETATM   14  H   UNL     1       9.306  -3.910  60.555  1.00  0.00     0.217 HD
ENDBRANCH   8  13
ENDBRANCH   4   5
ENDBRANCH   3   4
BRANCH   3  15
HETATM   15  C   UNL     1       2.327  -5.808  58.174  1.00  0.00     0.203 C 
HETATM   16  O   UNL     1       2.459  -5.566  59.503  1.00  0.00    -0.646 OA
HETATM   17  O   UNL     1       1.242  -5.959  57.628  1.00  0.00    -0.646 OA
ENDBRANCH   3  15
ENDBRANCH   1   3
TORSDOF 6
ENDMDL
MODEL 7
REMARK VINA RESULT:      -5.8      1.916      2.831
REMARK  6 active torsions:
REMARK  status: ('A' for Active; 'I' for Inactive)
REMARK    1  A    between atoms: O_1  and  C_8 
REMARK    2  A    between atoms: O_2  and  C_11 
REMARK    3  A    between atoms: O_3  and  C_13 
REMARK    4  A    between atoms: C_6  and  C_7 
REMARK    5  A    between atoms: C_6  and  C_8 
REMARK    6  A    between atoms: C_8  and  C_14 
ROOT
HETATM    1  O   UNL     1       5.532  -5.634  59.789  1.00  0.00    -0.385 OA
HETATM    2  H   UNL     1       5.256  -5.412  60.692  1.00  0.00     0.210 HD
ENDROOT
BRANCH   1   3
HETATM    3  C   UNL     1       4.625  -5.053  58.860  1.00  0.00     0.223 C 
BRANCH   3   4
HETATM    4  C   UNL     1       5.348  -4.881  57.514  1.00  0.00     0.081 C 
BRANCH   4   5
HETATM    5  C   UNL     1       5.711  -3.463  57.234  1.00  0.00    -0.052 A 
HETATM    6  C   UNL     1       6.793  -2.877  57.891  1.00  0.00     0.046 A 
HETATM    7  C   UNL     1       7.133  -1.549  57.628  1.00  0.00     0.099 A 
HETATM    8  C   UNL     1       6.390  -0.809  56.709  1.00  0.00     0.098 A 
HETATM    9  C   UNL     1       5.308  -1.394  56.053  1.00  0.00     0.040 A 
HETATM   10  C   UNL     1       4.969  -2.721  56.315  1.00  0.00     0.010 A 
BRANCH   7  11
HETATM   11  O   UNL     1       8.192  -0.989  58.275  1.00  0.00    -0.358 OA
HETATM   12  H   UNL     1       8.598  -0.220  57.929  1.00  0.00     0.217 HD
ENDBRANCH   7  11
BRANCH   8  13
HETATM   13  O   UNL     1       6.713   0.488  56.444  1.00  0.00    -0.358 OA
HETATM   14  H   UNL     1       6.931   0.748  55.570  1.00  0.00     0.217 HD
ENDBRANCH   8  13
ENDBRANCH   4   5
ENDBRANCH   3   4
BRANCH   3  15
HETATM   15  C   UNL     1       3.439  -5.986  58.735  1.00  0.00     0.203 C 
HETATM   16  O   UNL     1       2.432  -5.651  59.582  1.00  0.00    -0.646 OA
HETATM   17  O   UNL     1       3.381  -6.947  57.978  1.00  0.00    -0.646 OA
ENDBRANCH   3  15
ENDBRANCH   1   3
TORSDOF 6
ENDMDL
MODEL 8
REMARK VINA RESULT:      -5.7      3.375      5.103
REMARK  6 active torsions:
REMARK  status: ('A' for Active; 'I' for Inactive)
REMARK    1  A    between atoms: O_1  and  C_8 
REMARK    2  A    between atoms: O_2  and  C_11 
REMARK    3  A    between atoms: O_3  and  C_13 
REMARK    4  A    between atoms: C_6  and  C_7 
REMARK    5  A    between atoms: C_6  and  C_8 
REMARK    6  A    between atoms: C_8  and  C_14 
ROOT
HETATM    1  O   UNL     1       6.901   0.202  54.870  1.00  0.00    -0.385 OA
HETATM    2  H   UNL     1       7.493   0.025  54.123  1.00  0.00     0.210 HD
ENDROOT
BRANCH   1   3
HETATM    3  C   UNL     1       6.298  -1.014  55.295  1.00  0.00     0.223 C 
BRANCH   3   4
HETATM    4  C   UNL     1       5.662  -0.788  56.676  1.00  0.00     0.081 C 
BRANCH   4   5
HETATM    5  C   UNL     1       5.930  -1.906  57.623  1.00  0.00    -0.052 A 
HETATM    6  C   UNL     1       7.219  -2.111  58.115  1.00  0.00     0.046 A 
HETATM    7  C   UNL     1       7.470  -3.159  59.001  1.00  0.00     0.099 A 
HETATM    8  C   UNL     1       6.432  -4.002  59.395  1.00  0.00     0.098 A 
HETATM    9  C   UNL     1       5.142  -3.798  58.903  1.00  0.00     0.040 A 
HETATM   10  C   UNL     1       4.892  -2.751  58.017  1.00  0.00     0.010 A 
BRANCH   7  11
HETATM   11  O   UNL     1       8.733  -3.348  59.474  1.00  0.00    -0.358 OA
HETATM   12  H   UNL     1       9.175  -4.159  59.319  1.00  0.00     0.217 HD
ENDBRANCH   7  11
BRANCH   8  13
HETATM   13  O   UNL     1       6.665  -5.028  60.261  1.00  0.00    -0.358 OA
HETATM   14  H   UNL     1       6.421  -4.946  61.162  1.00  0.00     0.217 HD
ENDBRANCH   8  13
ENDBRANCH   4   5
ENDBRANCH   3   4
BRANCH   3  15
HETATM   15  C   UNL     1       5.256  -1.393  54.262  1.00  0.00     0.203 C 
HETATM   16  O   UNL     1       5.477  -0.789  53.066  1.00  0.00    -0.646 OA
HETATM   17  O   UNL     1       4.308  -2.139  54.466  1.00  0.00    -0.646 OA
ENDBRANCH   3  15
ENDBRANCH   1   3
TORSDOF 6
ENDMDL
MODEL 9
REMARK VINA RESULT:      -5.7      1.636      2.426
REMARK  6 active torsions:
REMARK  status: ('A' for Active; 'I' for Inactive)
REMARK    1  A    between atoms: O_1  and  C_8 
REMARK    2  A    between atoms: O_2  and  C_11 
REMARK    3  A    between atoms: O_3  and  C_13 
REMARK    4  A    between atoms: C_6  and  C_7 
REMARK    5  A    between atoms: C_6  and  C_8 
REMARK    6  A    between atoms: C_8  and  C_14 
ROOT
HETATM    1  O   UNL     1       2.106  -5.377  57.876  1.00  0.00    -0.385 OA
HETATM    2  H   UNL     1       1.862  -4.885  58.676  1.00  0.00     0.210 HD
ENDROOT
BRANCH   1   3
HETATM    3  C   UNL     1       3.327  -4.862  57.358  1.00  0.00     0.223 C 
BRANCH   3   4
HETATM    4  C   UNL     1       4.415  -5.010  58.434  1.00  0.00     0.081 C 
BRANCH   4   5
HETATM    5  C   UNL     1       5.443  -3.933  58.364  1.00  0.00    -0.052 A 
HETATM    6  C   UNL     1       6.671  -4.097  59.006  1.00  0.00     0.046 A 
HETATM    7  C   UNL     1       7.632  -3.088  58.940  1.00  0.00     0.099 A 
HETATM    8  C   UNL     1       7.366  -1.916  58.233  1.00  0.00     0.098 A 
HETATM    9  C   UNL     1       6.138  -1.751  57.592  1.00  0.00     0.040 A 
HETATM   10  C   UNL     1       5.177  -2.760  57.657  1.00  0.00     0.010 A 
BRANCH   7  11
HETATM   11  O   UNL     1       8.827  -3.260  59.570  1.00  0.00    -0.358 OA
HETATM   12  H   UNL     1       9.044  -2.734  60.314  1.00  0.00     0.217 HD
ENDBRANCH   7  11
BRANCH   8  13
HETATM   13  O   UNL     1       8.298  -0.924  58.161  1.00  0.00    -0.358 OA
HETATM   14  H   UNL     1       9.184  -1.130  57.939  1.00  0.00     0.217 HD
ENDBRANCH   8  13
ENDBRANCH   4   5
ENDBRANCH   3   4
BRANCH   3  15
HETATM   15  C   UNL     1       3.667  -5.658  56.115  1.00  0.00     0.203 C 
HETATM   16  O   UNL     1       3.142  -6.910  56.149  1.00  0.00    -0.646 OA
HETATM   17  O   UNL     1       4.349  -5.247  55.185  1.00  0.00    -0.646 OA
ENDBRANCH   3  15
ENDBRANCH   1   3
TORSDOF 6
ENDMDL
