MODEL 1
REMARK VINA RESULT:      -6.4      0.000      0.000
REMARK  6 active torsions:
REMARK  status: ('A' for Active; 'I' for Inactive)
REMARK    1  A    between atoms: O_1  and  C_8 
REMARK    2  A    between atoms: O_2  and  C_11 
REMARK    3  A    between atoms: O_3  and  C_13 
REMARK    4  A    between atoms: C_6  and  C_7 
REMARK    5  A    between atoms: C_6  and  C_8 
REMARK    6  A    between atoms: C_8  and  C_14 
ROOT
HETATM    1  O   UNL     1       0.557 -12.635  54.369  1.00  0.00    -0.385 OA
HETATM    2  H   UNL     1       0.089 -13.296  54.902  1.00  0.00     0.210 HD
ENDROOT
BRANCH   1   3
HETATM    3  C   UNL     1       0.699 -11.435  55.120  1.00  0.00     0.223 C 
BRANCH   3   4
HETATM    4  C   UNL     1       1.558 -10.450  54.310  1.00  0.00     0.081 C 
BRANCH   4   5
HETATM    5  C   UNL     1       2.701  -9.904  55.096  1.00  0.00    -0.052 A 
HETATM    6  C   UNL     1       2.961 -10.388  56.378  1.00  0.00     0.046 A 
HETATM    7  C   UNL     1       4.031  -9.876  57.113  1.00  0.00     0.099 A 
HETATM    8  C   UNL     1       4.839  -8.881  56.566  1.00  0.00     0.098 A 
HETATM    9  C   UNL     1       4.579  -8.396  55.284  1.00  0.00     0.040 A 
HETATM   10  C   UNL     1       3.510  -8.907  54.549  1.00  0.00     0.010 A 
BRANCH   7  11
HETATM   11  O   UNL     1       4.275 -10.358  58.363  1.00  0.00    -0.358 OA
HETATM   12  H   UNL     1       3.900 -11.173  58.632  1.00  0.00     0.217 HD
ENDBRANCH   7  11
BRANCH   8  13
HETATM   13  O   UNL     1       5.887  -8.374  57.274  1.00  0.00    -0.358 OA
HETATM   14  H   UNL     1       6.762  -8.469  56.950  1.00  0.00     0.217 HD
ENDBRANCH   8  13
ENDBRANCH   4   5
ENDBRANCH   3   4
BRANCH   3  15
HETATM   15  C   UNL     1      -0.691 -10.883  55.366  1.00  0.00     0.203 C 
HETATM   16  O   UNL     1      -0.787 -10.254  56.565  1.00  0.00    -0.646 OA
HETATM   17  O   UNL     1      -1.634 -10.995  54.595  1.00  0.00    -0.646 OA
ENDBRANCH   3  15
ENDBRANCH   1   3
TORSDOF 6
ENDMDL
MODEL 2
REMARK VINA RESULT:      -6.1      1.043      1.645
REMARK  6 active torsions:
REMARK  status: ('A' for Active; 'I' for Inactive)
REMARK    1  A    between atoms: O_1  and  C_8 
REMARK    2  A    between atoms: O_2  and  C_11 
REMARK    3  A    between atoms: O_3  and  C_13 
REMARK    4  A    between atoms: C_6  and  C_7 
REMARK    5  A    between atoms: C_6  and  C_8 
REMARK    6  A    between atoms: C_8  and  C_14 
ROOT
HETATM    1  O   UNL     1      -0.483 -10.543  56.255  1.00  0.00    -0.385 OA
HETATM    2  H   UNL     1      -1.013 -11.307  55.980  1.00  0.00     0.210 HD
ENDROOT
BRANCH   1   3
HETATM    3  C   UNL     1       0.492 -10.260  55.259  1.00  0.00     0.223 C 
BRANCH   3   4
HETATM    4  C   UNL     1       1.773 -11.041  55.593  1.00  0.00     0.081 C 
BRANCH   4   5
HETATM    5  C   UNL     1       2.937 -10.149  55.859  1.00  0.00    -0.052 A 
HETATM    6  C   UNL     1       3.645 -10.264  57.056  1.00  0.00     0.046 A 
HETATM    7  C   UNL     1       4.735  -9.428  57.305  1.00  0.00     0.099 A 
HETATM    8  C   UNL     1       5.115  -8.478  56.358  1.00  0.00     0.098 A 
HETATM    9  C   UNL     1       4.407  -8.363  55.162  1.00  0.00     0.040 A 
HETATM   10  C   UNL     1       3.318  -9.198  54.913  1.00  0.00     0.010 A 
BRANCH   7  11
HETATM   11  O   UNL     1       5.418  -9.551  58.476  1.00  0.00    -0.358 OA
HETATM   12  H   UNL     1       5.738  -8.788  58.914  1.00  0.00     0.217 HD
ENDBRANCH   7  11
BRANCH   8  13
HETATM   13  O   UNL     1       6.178  -7.658  56.590  1.00  0.00    -0.358 OA
HETATM   14  H   UNL     1       6.334  -6.923  56.029  1.00  0.00     0.217 HD
ENDBRANCH   8  13
ENDBRANCH   4   5
ENDBRANCH   3   4
BRANCH   3  15
HETATM   15  C   UNL     1      -0.083 -10.686  53.923  1.00  0.00     0.203 C 
HETATM   16  O   UNL     1       0.769 -11.486  53.232  1.00  0.00    -0.646 OA
HETATM   17  O   UNL     1      -1.176 -10.346  53.492  1.00  0.00    -0.646 OA
ENDBRANCH   3  15
ENDBRANCH   1   3
TORSDOF 6
ENDMDL
MODEL 3
REMARK VINA RESULT:      -6.1      1.046      2.167
REMARK  6 active torsions:
REMARK  status: ('A' for Active; 'I' for Inactive)
REMARK    1  A    between atoms: O_1  and  C_8 
REMARK    2  A    between atoms: O_2  and  C_11 
REMARK    3  A    between atoms: O_3  and  C_13 
REMARK    4  A    between atoms: C_6  and  C_7 
REMARK    5  A    between atoms: C_6  and  C_8 
REMARK    6  A    between atoms: C_8  and  C_14 
ROOT
HETATM    1  O   UNL     1       0.646 -12.543  54.465  1.00  0.00    -0.385 OA
HETATM    2  H   UNL     1       0.619 -13.265  55.112  1.00  0.00     0.210 HD
ENDROOT
BRANCH   1   3
HETATM    3  C   UNL     1       0.939 -11.320  55.131  1.00  0.00     0.223 C 
BRANCH   3   4
HETATM    4  C   UNL     1       1.747 -10.426  54.176  1.00  0.00     0.081 C 
BRANCH   4   5
HETATM    5  C   UNL     1       2.857  -9.706  54.863  1.00  0.00    -0.052 A 
HETATM    6  C   UNL     1       3.525  -8.669  54.212  1.00  0.00     0.046 A 
HETATM    7  C   UNL     1       4.564  -7.996  54.855  1.00  0.00     0.099 A 
HETATM    8  C   UNL     1       4.934  -8.360  56.149  1.00  0.00     0.098 A 
HETATM    9  C   UNL     1       4.267  -9.398  56.801  1.00  0.00     0.040 A 
HETATM   10  C   UNL     1       3.228 -10.070  56.158  1.00  0.00     0.010 A 
BRANCH   7  11
HETATM   11  O   UNL     1       5.208  -6.985  54.209  1.00  0.00    -0.358 OA
HETATM   12  H   UNL     1       5.304  -6.151  54.623  1.00  0.00     0.217 HD
ENDBRANCH   7  11
BRANCH   8  13
HETATM   13  O   UNL     1       5.946  -7.709  56.788  1.00  0.00    -0.358 OA
HETATM   14  H   UNL     1       6.616  -8.198  57.225  1.00  0.00     0.217 HD
ENDBRANCH   8  13
ENDBRANCH   4   5
ENDBRANCH   3   4
BRANCH   3  15
HETATM   15  C   UNL     1      -0.380 -10.677  55.507  1.00  0.00     0.203 C 
HETATM   16  O   UNL     1      -1.231 -10.599  54.452  1.00  0.00    -0.646 OA
HETATM   17  O   UNL     1      -0.659 -10.255  56.621  1.00  0.00    -0.646 OA
ENDBRANCH   3  15
ENDBRANCH   1   3
TORSDOF 6
ENDMDL
MODEL 4
REMARK VINA RESULT:      -6.1      2.995      5.008
REMARK  6 active torsions:
REMARK  status: ('A' for Active; 'I' for Inactive)
REMARK    1  A    between atoms: O_1  and  C_8 
REMARK    2  A    between atoms: O_2  and  C_11 
REMARK    3  A    between atoms: O_3  and  C_13 
REMARK    4  A    between atoms: C_6  and  C_7 
REMARK    5  A    between atoms: C_6  and  C_8 
REMARK    6  A    between atoms: C_8  and  C_14 
ROOT
HETATM    1  O   UNL     1       2.881 -10.700  56.487  1.00  0.00    -0.385 OA
HETATM    2  H   UNL     1       3.291 -11.475  56.073  1.00  0.00     0.210 HD
ENDROOT
BRANCH   1   3
HETATM    3  C   UNL     1       3.624  -9.535  56.148  1.00  0.00     0.223 C 
BRANCH   3   4
HETATM    4  C   UNL     1       2.662  -8.336  56.110  1.00  0.00     0.081 C 
BRANCH   4   5
HETATM    5  C   UNL     1       3.236  -7.161  55.395  1.00  0.00    -0.052 A 
HETATM    6  C   UNL     1       3.966  -7.347  54.222  1.00  0.00     0.046 A 
HETATM    7  C   UNL     1       4.504  -6.246  53.553  1.00  0.00     0.099 A 
HETATM    8  C   UNL     1       4.311  -4.961  54.058  1.00  0.00     0.098 A 
HETATM    9  C   UNL     1       3.581  -4.775  55.232  1.00  0.00     0.040 A 
HETATM   10  C   UNL     1       3.043  -5.875  55.900  1.00  0.00     0.010 A 
BRANCH   7  11
HETATM   11  O   UNL     1       5.215  -6.441  52.408  1.00  0.00    -0.358 OA
HETATM   12  H   UNL     1       5.338  -5.733  51.808  1.00  0.00     0.217 HD
ENDBRANCH   7  11
BRANCH   8  13
HETATM   13  O   UNL     1       4.830  -3.879  53.413  1.00  0.00    -0.358 OA
HETATM   14  H   UNL     1       4.440  -3.577  52.616  1.00  0.00     0.217 HD
ENDBRANCH   8  13
ENDBRANCH   4   5
ENDBRANCH   3   4
BRANCH   3  15
HETATM   15  C   UNL     1       4.694  -9.352  57.205  1.00  0.00     0.203 C 
HETATM   16  O   UNL     1       4.669 -10.340  58.135  1.00  0.00    -0.646 OA
HETATM   17  O   UNL     1       5.486  -8.420  57.244  1.00  0.00    -0.646 OA
ENDBRANCH   3  15
ENDBRANCH   1   3
TORSDOF 6
ENDMDL
MODEL 5
REMARK VINA RESULT:      -6.1      2.285      5.086
REMARK  6 active torsions:
REMARK  status: ('A' for Active; 'I' for Inactive)
REMARK    1  A    between atoms: O_1  and  C_8 
REMARK    2  A    between atoms: O_2  and  C_11 
REMARK    3  A    between atoms: O_3  and  C_13 
REMARK    4  A    between atoms: C_6  and  C_7 
REMARK    5  A    between atoms: C_6  and  C_8 
REMARK    6  A    between atoms: C_8  and  C_14 
ROOT
HETATM    1  O   UNL     1       5.202  -5.151  54.090  1.00  0.00    -0.385 OA
HETATM    2  H   UNL     1       5.355  -4.457  54.750  1.00  0.00     0.210 HD
ENDROOT
BRANCH   1   3
HETATM    3  C   UNL     1       4.303  -6.118  54.620  1.00  0.00     0.223 C 
BRANCH   3   4
HETATM    4  C   UNL     1       4.952  -7.507  54.496  1.00  0.00     0.081 C 
BRANCH   4   5
HETATM    5  C   UNL     1       4.031  -8.609  54.895  1.00  0.00    -0.052 A 
HETATM    6  C   UNL     1       4.196  -9.244  56.126  1.00  0.00     0.046 A 
HETATM    7  C   UNL     1       3.335 -10.277  56.500  1.00  0.00     0.099 A 
HETATM    8  C   UNL     1       2.309 -10.672  55.642  1.00  0.00     0.098 A 
HETATM    9  C   UNL     1       2.144 -10.037  54.411  1.00  0.00     0.040 A 
HETATM   10  C   UNL     1       3.005  -9.006  54.038  1.00  0.00     0.010 A 
BRANCH   7  11
HETATM   11  O   UNL     1       3.505 -10.888  57.704  1.00  0.00    -0.358 OA
HETATM   12  H   UNL     1       3.178 -10.487  58.484  1.00  0.00     0.217 HD
ENDBRANCH   7  11
BRANCH   8  13
HETATM   13  O   UNL     1       1.460 -11.678  55.996  1.00  0.00    -0.358 OA
HETATM   14  H   UNL     1       0.760 -11.924  55.424  1.00  0.00     0.217 HD
ENDBRANCH   8  13
ENDBRANCH   4   5
ENDBRANCH   3   4
BRANCH   3  15
HETATM   15  C   UNL     1       4.045  -5.756  56.069  1.00  0.00     0.203 C 
HETATM   16  O   UNL     1       2.905  -5.035  56.221  1.00  0.00    -0.646 OA
HETATM   17  O   UNL     1       4.776  -6.054  57.005  1.00  0.00    -0.646 OA
ENDBRANCH   3  15
ENDBRANCH   1   3
TORSDOF 6
ENDMDL
MODEL 6
REMARK VINA RESULT:      -6.0      3.002      4.471
REMARK  6 active torsions:
REMARK  status: ('A' for Active; 'I' for Inactive)
REMARK    1  A    between atoms: O_1  and  C_8 
REMARK    2  A    between atoms: O_2  and  C_11 
REMARK    3  A    between atoms: O_3  and  C_13 
REMARK    4  A    between atoms: C_6  and  C_7 
REMARK    5  A    between atoms: C_6  and  C_8 
REMARK    6  A    between atoms: C_8  and  C_14 
ROOT
HETATM    1  O   UNL     1       3.246 -10.002  57.906  1.00  0.00    -0.385 OA
HETATM    2  H   UNL     1       2.463 -10.561  58.033  1.00  0.00     0.210 HD
ENDROOT
BRANCH   1   3
HETATM    3  C   UNL     1       3.156  -9.338  56.652  1.00  0.00     0.223 C 
BRANCH   3   4
HETATM    4  C   UNL     1       4.559  -8.849  56.256  1.00  0.00     0.081 C 
BRANCH   4   5
HETATM    5  C   UNL     1       4.528  -7.561  55.507  1.00  0.00    -0.052 A 
HETATM    6  C   UNL     1       4.929  -7.521  54.171  1.00  0.00     0.046 A 
HETATM    7  C   UNL     1       4.901  -6.315  53.470  1.00  0.00     0.099 A 
HETATM    8  C   UNL     1       4.472  -5.149  54.105  1.00  0.00     0.098 A 
HETATM    9  C   UNL     1       4.072  -5.189  55.441  1.00  0.00     0.040 A 
HETATM   10  C   UNL     1       4.100  -6.394  56.141  1.00  0.00     0.010 A 
BRANCH   7  11
HETATM   11  O   UNL     1       5.293  -6.289  52.167  1.00  0.00    -0.358 OA
HETATM   12  H   UNL     1       4.750  -6.670  51.506  1.00  0.00     0.217 HD
ENDBRANCH   7  11
BRANCH   8  13
HETATM   13  O   UNL     1       4.439  -3.966  53.430  1.00  0.00    -0.358 OA
HETATM   14  H   UNL     1       3.616  -3.570  53.218  1.00  0.00     0.217 HD
ENDBRANCH   8  13
ENDBRANCH   4   5
ENDBRANCH   3   4
BRANCH   3  15
HETATM   15  C   UNL     1       2.613 -10.333  55.646  1.00  0.00     0.203 C 
HETATM   16  O   UNL     1       2.174 -11.473  56.239  1.00  0.00    -0.646 OA
HETATM   17  O   UNL     1       2.581 -10.156  54.436  1.00  0.00    -0.646 OA
ENDBRANCH   3  15
ENDBRANCH   1   3
TORSDOF 6
ENDMDL
MODEL 7
REMARK VINA RESULT:      -6.0      3.208      5.142
REMARK  6 active torsions:
REMARK  status: ('A' for Active; 'I' for Inactive)
REMARK    1  A    between atoms: O_1  and  C_8 
REMARK    2  A    between atoms: O_2  and  C_11 
REMARK    3  A    between atoms: O_3  and  C_13 
REMARK    4  A    between atoms: C_6  and  C_7 
REMARK    5  A    between atoms: C_6  and  C_8 
REMARK    6  A    between atoms: C_8  and  C_14 
ROOT
HETATM    1  O   UNL     1       5.199  -4.651  53.939  1.00  0.00    -0.385 OA
HETATM    2  H   UNL     1       5.078  -4.216  53.080  1.00  0.00     0.210 HD
ENDROOT
BRANCH   1   3
HETATM    3  C   UNL     1       4.482  -5.879  53.953  1.00  0.00     0.223 C 
BRANCH   3   4
HETATM    4  C   UNL     1       3.679  -5.961  55.262  1.00  0.00     0.081 C 
BRANCH   4   5
HETATM    5  C   UNL     1       3.712  -7.320  55.872  1.00  0.00    -0.052 A 
HETATM    6  C   UNL     1       4.875  -7.780  56.490  1.00  0.00     0.046 A 
HETATM    7  C   UNL     1       4.906  -9.053  57.061  1.00  0.00     0.099 A 
HETATM    8  C   UNL     1       3.773  -9.866  57.013  1.00  0.00     0.098 A 
HETATM    9  C   UNL     1       2.610  -9.406  56.394  1.00  0.00     0.040 A 
HETATM   10  C   UNL     1       2.580  -8.134  55.824  1.00  0.00     0.010 A 
BRANCH   7  11
HETATM   11  O   UNL     1       6.046  -9.490  57.662  1.00  0.00    -0.358 OA
HETATM   12  H   UNL     1       6.804  -8.940  57.684  1.00  0.00     0.217 HD
ENDBRANCH   7  11
BRANCH   8  13
HETATM   13  O   UNL     1       3.791 -11.110  57.568  1.00  0.00    -0.358 OA
HETATM   14  H   UNL     1       3.023 -11.448  57.986  1.00  0.00     0.217 HD
ENDBRANCH   8  13
ENDBRANCH   4   5
ENDBRANCH   3   4
BRANCH   3  15
HETATM   15  C   UNL     1       3.569  -5.890  52.744  1.00  0.00     0.203 C 
HETATM   16  O   UNL     1       4.172  -5.372  51.643  1.00  0.00    -0.646 OA
HETATM   17  O   UNL     1       2.415  -6.296  52.743  1.00  0.00    -0.646 OA
ENDBRANCH   3  15
ENDBRANCH   1   3
TORSDOF 6
ENDMDL
MODEL 8
REMARK VINA RESULT:      -6.0      1.659      2.536
REMARK  6 active torsions:
REMARK  status: ('A' for Active; 'I' for Inactive)
REMARK    1  A    between atoms: O_1  and  C_8 
REMARK    2  A    between atoms: O_2  and  C_11 
REMARK    3  A    between atoms: O_3  and  C_13 
REMARK    4  A    between atoms: C_6  and  C_7 
REMARK    5  A    between atoms: C_6  and  C_8 
REMARK    6  A    between atoms: C_8  and  C_14 
ROOT
HETATM    1  O   UNL     1       0.187 -11.455  56.142  1.00  0.00    -0.385 OA
HETATM    2  H   UNL     1       0.178 -12.390  55.885  1.00  0.00     0.210 HD
ENDROOT
BRANCH   1   3
HETATM    3  C   UNL     1       1.050 -10.733  55.271  1.00  0.00     0.223 C 
BRANCH   3   4
HETATM    4  C   UNL     1       2.454 -10.693  55.898  1.00  0.00     0.081 C 
BRANCH   4   5
HETATM    5  C   UNL     1       3.046  -9.326  55.896  1.00  0.00    -0.052 A 
HETATM    6  C   UNL     1       4.360  -9.134  56.324  1.00  0.00     0.046 A 
HETATM    7  C   UNL     1       4.914  -7.853  56.323  1.00  0.00     0.099 A 
HETATM    8  C   UNL     1       4.154  -6.765  55.894  1.00  0.00     0.098 A 
HETATM    9  C   UNL     1       2.840  -6.957  55.467  1.00  0.00     0.040 A 
HETATM   10  C   UNL     1       2.286  -8.237  55.468  1.00  0.00     0.010 A 
BRANCH   7  11
HETATM   11  O   UNL     1       6.198  -7.679  56.741  1.00  0.00    -0.358 OA
HETATM   12  H   UNL     1       6.410  -6.975  57.322  1.00  0.00     0.217 HD
ENDBRANCH   7  11
BRANCH   8  13
HETATM   13  O   UNL     1       4.685  -5.511  55.887  1.00  0.00    -0.358 OA
HETATM   14  H   UNL     1       5.416  -5.308  56.437  1.00  0.00     0.217 HD
ENDBRANCH   8  13
ENDBRANCH   4   5
ENDBRANCH   3   4
BRANCH   3  15
HETATM   15  C   UNL     1       1.061 -11.452  53.938  1.00  0.00     0.203 C 
HETATM   16  O   UNL     1       1.484 -10.650  52.927  1.00  0.00    -0.646 OA
HETATM   17  O   UNL     1       0.714 -12.613  53.767  1.00  0.00    -0.646 OA
ENDBRANCH   3  15
ENDBRANCH   1   3
TORSDOF 6
ENDMDL
MODEL 9
REMARK VINA RESULT:      -5.9      1.211      2.077
REMARK  6 active torsions:
REMARK  status: ('A' for Active; 'I' for Inactive)
REMARK    1  A    between atoms: O_1  and  C_8 
REMARK    2  A    between atoms: O_2  and  C_11 
REMARK    3  A    between atoms: O_3  and  C_13 
REMARK    4  A    between atoms: C_6  and  C_7 
REMARK    5  A    between atoms: C_6  and  C_8 
REMARK    6  A    between atoms: C_8  and  C_14 
ROOT
HETATM    1  O   UNL     1       1.275 -10.301  52.905  1.00  0.00    -0.385 OA
HETATM    2  H   UNL     1       0.995 -11.158  52.548  1.00  0.00     0.210 HD
ENDROOT
BRANCH   1   3
HETATM    3  C   UNL     1       1.250 -10.348  54.326  1.00  0.00     0.223 C 
BRANCH   3   4
HETATM    4  C   UNL     1       1.808  -9.022  54.869  1.00  0.00     0.081 C 
BRANCH   4   5
HETATM    5  C   UNL     1       2.990  -9.216  55.756  1.00  0.00    -0.052 A 
HETATM    6  C   UNL     1       4.033  -8.290  55.742  1.00  0.00     0.046 A 
HETATM    7  C   UNL     1       5.139  -8.472  56.572  1.00  0.00     0.099 A 
HETATM    8  C   UNL     1       5.202  -9.580  57.416  1.00  0.00     0.098 A 
HETATM    9  C   UNL     1       4.159 -10.507  57.430  1.00  0.00     0.040 A 
HETATM   10  C   UNL     1       3.053 -10.325  56.600  1.00  0.00     0.010 A 
BRANCH   7  11
HETATM   11  O   UNL     1       6.150  -7.561  56.549  1.00  0.00    -0.358 OA
HETATM   12  H   UNL     1       6.994  -7.789  56.887  1.00  0.00     0.217 HD
ENDBRANCH   7  11
BRANCH   8  13
HETATM   13  O   UNL     1       6.276  -9.768  58.233  1.00  0.00    -0.358 OA
HETATM   14  H   UNL     1       6.147  -9.989  59.134  1.00  0.00     0.217 HD
ENDBRANCH   8  13
ENDBRANCH   4   5
ENDBRANCH   3   4
BRANCH   3  15
HETATM   15  C   UNL     1      -0.189 -10.557  54.751  1.00  0.00     0.203 C 
HETATM   16  O   UNL     1      -0.288 -10.974  56.039  1.00  0.00    -0.646 OA
HETATM   17  O   UNL     1      -1.163 -10.392  54.028  1.00  0.00    -0.646 OA
ENDBRANCH   3  15
ENDBRANCH   1   3
TORSDOF 6
ENDMDL
