MODEL 1
REMARK VINA RESULT:      -6.5      0.000      0.000
REMARK  6 active torsions:
REMARK  status: ('A' for Active; 'I' for Inactive)
REMARK    1  A    between atoms: O_1  and  C_8 
REMARK    2  A    between atoms: O_2  and  C_11 
REMARK    3  A    between atoms: O_3  and  C_13 
REMARK    4  A    between atoms: C_6  and  C_7 
REMARK    5  A    between atoms: C_6  and  C_8 
REMARK    6  A    between atoms: C_8  and  C_14 
ROOT
HETATM    1  O   UNL     1       2.876  -7.636  57.902  1.00  0.00    -0.385 OA
HETATM    2  H   UNL     1       2.908  -7.674  56.934  1.00  0.00     0.210 HD
ENDROOT
BRANCH   1   3
HETATM    3  C   UNL     1       3.214  -6.325  58.337  1.00  0.00     0.223 C 
BRANCH   3   4
HETATM    4  C   UNL     1       3.992  -5.623  57.212  1.00  0.00     0.081 C 
BRANCH   4   5
HETATM    5  C   UNL     1       5.132  -4.810  57.721  1.00  0.00    -0.052 A 
HETATM    6  C   UNL     1       5.512  -4.903  59.060  1.00  0.00     0.046 A 
HETATM    7  C   UNL     1       6.580  -4.142  59.537  1.00  0.00     0.099 A 
HETATM    8  C   UNL     1       7.267  -3.288  58.675  1.00  0.00     0.098 A 
HETATM    9  C   UNL     1       6.886  -3.194  57.336  1.00  0.00     0.040 A 
HETATM   10  C   UNL     1       5.820  -3.955  56.859  1.00  0.00     0.010 A 
BRANCH   7  11
HETATM   11  O   UNL     1       6.942  -4.243  60.846  1.00  0.00    -0.358 OA
HETATM   12  H   UNL     1       7.835  -4.410  61.073  1.00  0.00     0.217 HD
ENDBRANCH   7  11
BRANCH   8  13
HETATM   13  O   UNL     1       8.312  -2.541  59.129  1.00  0.00    -0.358 OA
HETATM   14  H   UNL     1       8.529  -2.544  60.041  1.00  0.00     0.217 HD
ENDBRANCH   8  13
ENDBRANCH   4   5
ENDBRANCH   3   4
BRANCH   3  15
HETATM   15  C   UNL     1       1.922  -5.600  58.652  1.00  0.00     0.203 C 
HETATM   16  O   UNL     1       2.063  -4.726  59.681  1.00  0.00    -0.646 OA
HETATM   17  O   UNL     1       0.860  -5.779  58.071  1.00  0.00    -0.646 OA
ENDBRANCH   3  15
ENDBRANCH   1   3
TORSDOF 6
ENDMDL
MODEL 2
REMARK VINA RESULT:      -6.3      1.177      1.400
REMARK  6 active torsions:
REMARK  status: ('A' for Active; 'I' for Inactive)
REMARK    1  A    between atoms: O_1  and  C_8 
REMARK    2  A    between atoms: O_2  and  C_11 
REMARK    3  A    between atoms: O_3  and  C_13 
REMARK    4  A    between atoms: C_6  and  C_7 
REMARK    5  A    between atoms: C_6  and  C_8 
REMARK    6  A    between atoms: C_8  and  C_14 
ROOT
HETATM    1  O   UNL     1       3.778  -6.890  58.970  1.00  0.00    -0.385 OA
HETATM    2  H   UNL     1       4.551  -7.274  58.529  1.00  0.00     0.210 HD
ENDROOT
BRANCH   1   3
HETATM    3  C   UNL     1       3.856  -5.471  58.911  1.00  0.00     0.223 C 
BRANCH   3   4
HETATM    4  C   UNL     1       4.527  -5.073  57.587  1.00  0.00     0.081 C 
BRANCH   4   5
HETATM    5  C   UNL     1       5.509  -3.964  57.751  1.00  0.00    -0.052 A 
HETATM    6  C   UNL     1       6.579  -4.103  58.636  1.00  0.00     0.046 A 
HETATM    7  C   UNL     1       7.497  -3.065  58.790  1.00  0.00     0.099 A 
HETATM    8  C   UNL     1       7.346  -1.887  58.059  1.00  0.00     0.098 A 
HETATM    9  C   UNL     1       6.277  -1.747  57.174  1.00  0.00     0.040 A 
HETATM   10  C   UNL     1       5.359  -2.785  57.020  1.00  0.00     0.010 A 
BRANCH   7  11
HETATM   11  O   UNL     1       8.537  -3.214  59.656  1.00  0.00    -0.358 OA
HETATM   12  H   UNL     1       9.080  -3.975  59.609  1.00  0.00     0.217 HD
ENDBRANCH   7  11
BRANCH   8  13
HETATM   13  O   UNL     1       8.238  -0.866  58.200  1.00  0.00    -0.358 OA
HETATM   14  H   UNL     1       9.046  -1.009  58.653  1.00  0.00     0.217 HD
ENDBRANCH   8  13
ENDBRANCH   4   5
ENDBRANCH   3   4
BRANCH   3  15
HETATM   15  C   UNL     1       2.442  -4.932  58.998  1.00  0.00     0.203 C 
HETATM   16  O   UNL     1       2.297  -4.035  60.006  1.00  0.00    -0.646 OA
HETATM   17  O   UNL     1       1.520  -5.266  58.266  1.00  0.00    -0.646 OA
ENDBRANCH   3  15
ENDBRANCH   1   3
TORSDOF 6
ENDMDL
MODEL 3
REMARK VINA RESULT:      -6.3      0.764      1.821
REMARK  6 active torsions:
REMARK  status: ('A' for Active; 'I' for Inactive)
REMARK    1  A    between atoms: O_1  and  C_8 
REMARK    2  A    between atoms: O_2  and  C_11 
REMARK    3  A    between atoms: O_3  and  C_13 
REMARK    4  A    between atoms: C_6  and  C_7 
REMARK    5  A    between atoms: C_6  and  C_8 
REMARK    6  A    between atoms: C_8  and  C_14 
ROOT
HETATM    1  O   UNL     1       3.081  -7.608  57.914  1.00  0.00    -0.385 OA
HETATM    2  H   UNL     1       3.904  -8.013  57.597  1.00  0.00     0.210 HD
ENDROOT
BRANCH   1   3
HETATM    3  C   UNL     1       3.344  -6.282  58.355  1.00  0.00     0.223 C 
BRANCH   3   4
HETATM    4  C   UNL     1       4.096  -5.536  57.240  1.00  0.00     0.081 C 
BRANCH   4   5
HETATM    5  C   UNL     1       5.244  -4.738  57.755  1.00  0.00    -0.052 A 
HETATM    6  C   UNL     1       5.914  -3.852  56.911  1.00  0.00     0.046 A 
HETATM    7  C   UNL     1       6.989  -3.105  57.393  1.00  0.00     0.099 A 
HETATM    8  C   UNL     1       7.394  -3.245  58.720  1.00  0.00     0.098 A 
HETATM    9  C   UNL     1       6.725  -4.131  59.565  1.00  0.00     0.040 A 
HETATM   10  C   UNL     1       5.651  -4.877  59.083  1.00  0.00     0.010 A 
BRANCH   7  11
HETATM   11  O   UNL     1       7.634  -2.244  56.559  1.00  0.00    -0.358 OA
HETATM   12  H   UNL     1       8.486  -1.926  56.782  1.00  0.00     0.217 HD
ENDBRANCH   7  11
BRANCH   8  13
HETATM   13  O   UNL     1       8.442  -2.520  59.203  1.00  0.00    -0.358 OA
HETATM   14  H   UNL     1       9.118  -2.943  59.694  1.00  0.00     0.217 HD
ENDBRANCH   8  13
ENDBRANCH   4   5
ENDBRANCH   3   4
BRANCH   3  15
HETATM   15  C   UNL     1       2.011  -5.628  58.656  1.00  0.00     0.203 C 
HETATM   16  O   UNL     1       2.102  -4.721  59.663  1.00  0.00    -0.646 OA
HETATM   17  O   UNL     1       0.961  -5.885  58.084  1.00  0.00    -0.646 OA
ENDBRANCH   3  15
ENDBRANCH   1   3
TORSDOF 6
ENDMDL
MODEL 4
REMARK VINA RESULT:      -6.1      1.265      2.287
REMARK  6 active torsions:
REMARK  status: ('A' for Active; 'I' for Inactive)
REMARK    1  A    between atoms: O_1  and  C_8 
REMARK    2  A    between atoms: O_2  and  C_11 
REMARK    3  A    between atoms: O_3  and  C_13 
REMARK    4  A    between atoms: C_6  and  C_7 
REMARK    5  A    between atoms: C_6  and  C_8 
REMARK    6  A    between atoms: C_8  and  C_14 
ROOT
HETATM    1  O   UNL     1       3.258  -7.351  58.270  1.00  0.00    -0.385 OA
HETATM    2  H   UNL     1       3.901  -7.970  58.648  1.00  0.00     0.210 HD
ENDROOT
BRANCH   1   3
HETATM    3  C   UNL     1       3.689  -6.016  58.506  1.00  0.00     0.223 C 
BRANCH   3   4
HETATM    4  C   UNL     1       4.294  -5.461  57.206  1.00  0.00     0.081 C 
BRANCH   4   5
HETATM    5  C   UNL     1       5.380  -4.471  57.455  1.00  0.00    -0.052 A 
HETATM    6  C   UNL     1       5.782  -3.606  56.438  1.00  0.00     0.046 A 
HETATM    7  C   UNL     1       6.800  -2.679  56.670  1.00  0.00     0.099 A 
HETATM    8  C   UNL     1       7.414  -2.619  57.921  1.00  0.00     0.098 A 
HETATM    9  C   UNL     1       7.013  -3.485  58.938  1.00  0.00     0.040 A 
HETATM   10  C   UNL     1       5.996  -4.411  58.705  1.00  0.00     0.010 A 
BRANCH   7  11
HETATM   11  O   UNL     1       7.183  -1.840  55.670  1.00  0.00    -0.358 OA
HETATM   12  H   UNL     1       7.941  -1.301  55.775  1.00  0.00     0.217 HD
ENDBRANCH   7  11
BRANCH   8  13
HETATM   13  O   UNL     1       8.408  -1.718  58.160  1.00  0.00    -0.358 OA
HETATM   14  H   UNL     1       9.179  -1.982  58.624  1.00  0.00     0.217 HD
ENDBRANCH   8  13
ENDBRANCH   4   5
ENDBRANCH   3   4
BRANCH   3  15
HETATM   15  C   UNL     1       2.478  -5.215  58.938  1.00  0.00     0.203 C 
HETATM   16  O   UNL     1       1.364  -5.552  58.238  1.00  0.00    -0.646 OA
HETATM   17  O   UNL     1       2.485  -4.348  59.802  1.00  0.00    -0.646 OA
ENDBRANCH   3  15
ENDBRANCH   1   3
TORSDOF 6
ENDMDL
MODEL 5
REMARK VINA RESULT:      -6.0      1.577      2.128
REMARK  6 active torsions:
REMARK  status: ('A' for Active; 'I' for Inactive)
REMARK    1  A    between atoms: O_1  and  C_8 
REMARK    2  A    between atoms: O_2  and  C_11 
REMARK    3  A    between atoms: O_3  and  C_13 
REMARK    4  A    between atoms: C_6  and  C_7 
REMARK    5  A    between atoms: C_6  and  C_8 
REMARK    6  A    between atoms: C_8  and  C_14 
ROOT
HETATM    1  O   UNL     1       2.635  -4.876  56.704  1.00  0.00    -0.385 OA
HETATM    2  H   UNL     1       1.857  -4.806  57.279  1.00  0.00     0.210 HD
ENDROOT
BRANCH   1   3
HETATM    3  C   UNL     1       3.783  -5.162  57.495  1.00  0.00     0.223 C 
BRANCH   3   4
HETATM    4  C   UNL     1       3.911  -4.078  58.579  1.00  0.00     0.081 C 
BRANCH   4   5
HETATM    5  C   UNL     1       5.155  -3.270  58.439  1.00  0.00    -0.052 A 
HETATM    6  C   UNL     1       6.338  -3.698  59.042  1.00  0.00     0.046 A 
HETATM    7  C   UNL     1       7.502  -2.941  58.911  1.00  0.00     0.099 A 
HETATM    8  C   UNL     1       7.483  -1.755  58.177  1.00  0.00     0.098 A 
HETATM    9  C   UNL     1       6.301  -1.326  57.575  1.00  0.00     0.040 A 
HETATM   10  C   UNL     1       5.137  -2.083  57.706  1.00  0.00     0.010 A 
BRANCH   7  11
HETATM   11  O   UNL     1       8.650  -3.370  59.503  1.00  0.00    -0.358 OA
HETATM   12  H   UNL     1       9.465  -3.309  59.046  1.00  0.00     0.217 HD
ENDBRANCH   7  11
BRANCH   8  13
HETATM   13  O   UNL     1       8.615  -1.008  58.042  1.00  0.00    -0.358 OA
HETATM   14  H   UNL     1       8.709  -0.208  58.521  1.00  0.00     0.217 HD
ENDBRANCH   8  13
ENDBRANCH   4   5
ENDBRANCH   3   4
BRANCH   3  15
HETATM   15  C   UNL     1       3.587  -6.534  58.106  1.00  0.00     0.203 C 
HETATM   16  O   UNL     1       3.845  -6.543  59.439  1.00  0.00    -0.646 OA
HETATM   17  O   UNL     1       3.254  -7.535  57.485  1.00  0.00    -0.646 OA
ENDBRANCH   3  15
ENDBRANCH   1   3
TORSDOF 6
ENDMDL
MODEL 6
REMARK VINA RESULT:      -5.9      1.462      2.594
REMARK  6 active torsions:
REMARK  status: ('A' for Active; 'I' for Inactive)
REMARK    1  A    between atoms: O_1  and  C_8 
REMARK    2  A    between atoms: O_2  and  C_11 
REMARK    3  A    between atoms: O_3  and  C_13 
REMARK    4  A    between atoms: C_6  and  C_7 
REMARK    5  A    between atoms: C_6  and  C_8 
REMARK    6  A    between atoms: C_8  and  C_14 
ROOT
HETATM    1  O   UNL     1       3.336  -4.060  59.583  1.00  0.00    -0.385 OA
HETATM    2  H   UNL     1       3.185  -4.728  60.270  1.00  0.00     0.210 HD
ENDROOT
BRANCH   1   3
HETATM    3  C   UNL     1       3.365  -4.691  58.308  1.00  0.00     0.223 C 
BRANCH   3   4
HETATM    4  C   UNL     1       4.796  -5.183  58.039  1.00  0.00     0.081 C 
BRANCH   4   5
HETATM    5  C   UNL     1       5.796  -4.077  58.047  1.00  0.00    -0.052 A 
HETATM    6  C   UNL     1       5.770  -3.105  57.047  1.00  0.00     0.046 A 
HETATM    7  C   UNL     1       6.706  -2.071  57.054  1.00  0.00     0.099 A 
HETATM    8  C   UNL     1       7.667  -2.009  58.062  1.00  0.00     0.098 A 
HETATM    9  C   UNL     1       7.694  -2.981  59.062  1.00  0.00     0.040 A 
HETATM   10  C   UNL     1       6.758  -4.015  59.055  1.00  0.00     0.010 A 
BRANCH   7  11
HETATM   11  O   UNL     1       6.669  -1.128  56.073  1.00  0.00    -0.358 OA
HETATM   12  H   UNL     1       7.018  -1.321  55.225  1.00  0.00     0.217 HD
ENDBRANCH   7  11
BRANCH   8  13
HETATM   13  O   UNL     1       8.586  -1.002  58.081  1.00  0.00    -0.358 OA
HETATM   14  H   UNL     1       8.941  -0.707  58.896  1.00  0.00     0.217 HD
ENDBRANCH   8  13
ENDBRANCH   4   5
ENDBRANCH   3   4
BRANCH   3  15
HETATM   15  C   UNL     1       2.382  -5.843  58.346  1.00  0.00     0.203 C 
HETATM   16  O   UNL     1       1.124  -5.433  58.653  1.00  0.00    -0.646 OA
HETATM   17  O   UNL     1       2.671  -7.015  58.145  1.00  0.00    -0.646 OA
ENDBRANCH   3  15
ENDBRANCH   1   3
TORSDOF 6
ENDMDL
MODEL 7
REMARK VINA RESULT:      -5.8      2.730      5.079
REMARK  6 active torsions:
REMARK  status: ('A' for Active; 'I' for Inactive)
REMARK    1  A    between atoms: O_1  and  C_8 
REMARK    2  A    between atoms: O_2  and  C_11 
REMARK    3  A    between atoms: O_3  and  C_13 
REMARK    4  A    between atoms: C_6  and  C_7 
REMARK    5  A    between atoms: C_6  and  C_8 
REMARK    6  A    between atoms: C_8  and  C_14 
ROOT
HETATM    1  O   UNL     1       7.119  -0.644  54.498  1.00  0.00    -0.385 OA
HETATM    2  H   UNL     1       7.879  -1.206  54.279  1.00  0.00     0.210 HD
ENDROOT
BRANCH   1   3
HETATM    3  C   UNL     1       6.373  -1.245  55.549  1.00  0.00     0.223 C 
BRANCH   3   4
HETATM    4  C   UNL     1       7.318  -2.136  56.372  1.00  0.00     0.081 C 
BRANCH   4   5
HETATM    5  C   UNL     1       6.590  -3.154  57.181  1.00  0.00    -0.052 A 
HETATM    6  C   UNL     1       6.920  -3.346  58.523  1.00  0.00     0.046 A 
HETATM    7  C   UNL     1       6.238  -4.299  59.280  1.00  0.00     0.099 A 
HETATM    8  C   UNL     1       5.226  -5.060  58.695  1.00  0.00     0.098 A 
HETATM    9  C   UNL     1       4.896  -4.868  57.353  1.00  0.00     0.040 A 
HETATM   10  C   UNL     1       5.577  -3.916  56.597  1.00  0.00     0.010 A 
BRANCH   7  11
HETATM   11  O   UNL     1       6.570  -4.476  60.588  1.00  0.00    -0.358 OA
HETATM   12  H   UNL     1       6.286  -3.858  61.232  1.00  0.00     0.217 HD
ENDBRANCH   7  11
BRANCH   8  13
HETATM   13  O   UNL     1       4.553  -5.992  59.425  1.00  0.00    -0.358 OA
HETATM   14  H   UNL     1       3.694  -5.803  59.750  1.00  0.00     0.217 HD
ENDBRANCH   8  13
ENDBRANCH   4   5
ENDBRANCH   3   4
BRANCH   3  15
HETATM   15  C   UNL     1       5.791  -0.129  56.393  1.00  0.00     0.203 C 
HETATM   16  O   UNL     1       4.847   0.581  55.723  1.00  0.00    -0.646 OA
HETATM   17  O   UNL     1       6.132   0.131  57.539  1.00  0.00    -0.646 OA
ENDBRANCH   3  15
ENDBRANCH   1   3
TORSDOF 6
ENDMDL
MODEL 8
REMARK VINA RESULT:      -5.7      3.668      6.136
REMARK  6 active torsions:
REMARK  status: ('A' for Active; 'I' for Inactive)
REMARK    1  A    between atoms: O_1  and  C_8 
REMARK    2  A    between atoms: O_2  and  C_11 
REMARK    3  A    between atoms: O_3  and  C_13 
REMARK    4  A    between atoms: C_6  and  C_7 
REMARK    5  A    between atoms: C_6  and  C_8 
REMARK    6  A    between atoms: C_8  and  C_14 
ROOT
HETATM    1  O   UNL     1       8.480  -1.637  58.086  1.00  0.00    -0.385 OA
HETATM    2  H   UNL     1       8.464  -0.832  58.626  1.00  0.00     0.210 HD
ENDROOT
BRANCH   1   3
HETATM    3  C   UNL     1       7.275  -2.366  58.286  1.00  0.00     0.223 C 
BRANCH   3   4
HETATM    4  C   UNL     1       6.820  -2.937  56.933  1.00  0.00     0.081 C 
BRANCH   4   5
HETATM    5  C   UNL     1       6.532  -1.875  55.928  1.00  0.00    -0.052 A 
HETATM    6  C   UNL     1       7.283  -1.803  54.754  1.00  0.00     0.046 A 
HETATM    7  C   UNL     1       7.013  -0.808  53.814  1.00  0.00     0.099 A 
HETATM    8  C   UNL     1       5.993   0.114  54.047  1.00  0.00     0.098 A 
HETATM    9  C   UNL     1       5.242   0.042  55.221  1.00  0.00     0.040 A 
HETATM   10  C   UNL     1       5.512  -0.953  56.161  1.00  0.00     0.010 A 
BRANCH   7  11
HETATM   11  O   UNL     1       7.752  -0.748  52.672  1.00  0.00    -0.358 OA
HETATM   12  H   UNL     1       8.047  -1.537  52.263  1.00  0.00     0.217 HD
ENDBRANCH   7  11
BRANCH   8  13
HETATM   13  O   UNL     1       5.719   1.089  53.135  1.00  0.00    -0.358 OA
HETATM   14  H   UNL     1       5.441   0.857  52.271  1.00  0.00     0.217 HD
ENDBRANCH   8  13
ENDBRANCH   4   5
ENDBRANCH   3   4
BRANCH   3  15
HETATM   15  C   UNL     1       7.568  -3.469  59.282  1.00  0.00     0.203 C 
HETATM   16  O   UNL     1       6.627  -4.448  59.253  1.00  0.00    -0.646 OA
HETATM   17  O   UNL     1       8.525  -3.487  60.044  1.00  0.00    -0.646 OA
ENDBRANCH   3  15
ENDBRANCH   1   3
TORSDOF 6
ENDMDL
MODEL 9
REMARK VINA RESULT:      -5.7      3.615      5.972
REMARK  6 active torsions:
REMARK  status: ('A' for Active; 'I' for Inactive)
REMARK    1  A    between atoms: O_1  and  C_8 
REMARK    2  A    between atoms: O_2  and  C_11 
REMARK    3  A    between atoms: O_3  and  C_13 
REMARK    4  A    between atoms: C_6  and  C_7 
REMARK    5  A    between atoms: C_6  and  C_8 
REMARK    6  A    between atoms: C_8  and  C_14 
ROOT
HETATM    1  O   UNL     1       8.462  -1.643  58.010  1.00  0.00    -0.385 OA
HETATM    2  H   UNL     1       8.661  -1.159  58.826  1.00  0.00     0.210 HD
ENDROOT
BRANCH   1   3
HETATM    3  C   UNL     1       7.285  -2.420  58.195  1.00  0.00     0.223 C 
BRANCH   3   4
HETATM    4  C   UNL     1       6.929  -3.095  56.860  1.00  0.00     0.081 C 
BRANCH   4   5
HETATM    5  C   UNL     1       6.647  -2.112  55.776  1.00  0.00    -0.052 A 
HETATM    6  C   UNL     1       5.664  -1.139  55.956  1.00  0.00     0.046 A 
HETATM    7  C   UNL     1       5.399  -0.219  54.941  1.00  0.00     0.099 A 
HETATM    8  C   UNL     1       6.118  -0.273  53.747  1.00  0.00     0.098 A 
HETATM    9  C   UNL     1       7.100  -1.246  53.567  1.00  0.00     0.040 A 
HETATM   10  C   UNL     1       7.365  -2.166  54.581  1.00  0.00     0.010 A 
BRANCH   7  11
HETATM   11  O   UNL     1       4.438   0.727  55.128  1.00  0.00    -0.358 OA
HETATM   12  H   UNL     1       3.837   0.928  54.438  1.00  0.00     0.217 HD
ENDBRANCH   7  11
BRANCH   8  13
HETATM   13  O   UNL     1       5.869   0.621  52.749  1.00  0.00    -0.358 OA
HETATM   14  H   UNL     1       5.728   0.319  51.873  1.00  0.00     0.217 HD
ENDBRANCH   8  13
ENDBRANCH   4   5
ENDBRANCH   3   4
BRANCH   3  15
HETATM   15  C   UNL     1       7.579  -3.445  59.271  1.00  0.00     0.203 C 
HETATM   16  O   UNL     1       6.563  -4.333  59.425  1.00  0.00    -0.646 OA
HETATM   17  O   UNL     1       8.599  -3.477  59.947  1.00  0.00    -0.646 OA
ENDBRANCH   3  15
ENDBRANCH   1   3
TORSDOF 6
ENDMDL
