MODEL 1
REMARK VINA RESULT:      -6.5      0.000      0.000
REMARK  6 active torsions:
REMARK  status: ('A' for Active; 'I' for Inactive)
REMARK    1  A    between atoms: O_1  and  C_8 
REMARK    2  A    between atoms: O_2  and  C_11 
REMARK    3  A    between atoms: O_3  and  C_13 
REMARK    4  A    between atoms: C_6  and  C_7 
REMARK    5  A    between atoms: C_6  and  C_8 
REMARK    6  A    between atoms: C_8  and  C_14 
ROOT
HETATM    1  O   UNL     1       2.918  -7.631  57.950  1.00  0.00    -0.385 OA
HETATM    2  H   UNL     1       2.005  -7.641  57.621  1.00  0.00     0.210 HD
ENDROOT
BRANCH   1   3
HETATM    3  C   UNL     1       3.252  -6.317  58.380  1.00  0.00     0.223 C 
BRANCH   3   4
HETATM    4  C   UNL     1       4.041  -5.621  57.258  1.00  0.00     0.081 C 
BRANCH   4   5
HETATM    5  C   UNL     1       5.179  -4.810  57.774  1.00  0.00    -0.052 A 
HETATM    6  C   UNL     1       5.564  -4.917  59.111  1.00  0.00     0.046 A 
HETATM    7  C   UNL     1       6.630  -4.157  59.593  1.00  0.00     0.099 A 
HETATM    8  C   UNL     1       7.310  -3.289  58.739  1.00  0.00     0.098 A 
HETATM    9  C   UNL     1       6.924  -3.180  57.403  1.00  0.00     0.040 A 
HETATM   10  C   UNL     1       5.859  -3.941  56.921  1.00  0.00     0.010 A 
BRANCH   7  11
HETATM   11  O   UNL     1       6.997  -4.272  60.899  1.00  0.00    -0.358 OA
HETATM   12  H   UNL     1       7.396  -3.548  61.339  1.00  0.00     0.217 HD
ENDBRANCH   7  11
BRANCH   8  13
HETATM   13  O   UNL     1       8.353  -2.542  59.199  1.00  0.00    -0.358 OA
HETATM   14  H   UNL     1       8.341  -1.610  59.101  1.00  0.00     0.217 HD
ENDBRANCH   8  13
ENDBRANCH   4   5
ENDBRANCH   3   4
BRANCH   3  15
HETATM   15  C   UNL     1       1.957  -5.590  58.678  1.00  0.00     0.203 C 
HETATM   16  O   UNL     1       2.096  -4.686  59.681  1.00  0.00    -0.646 OA
HETATM   17  O   UNL     1       0.894  -5.792  58.105  1.00  0.00    -0.646 OA
ENDBRANCH   3  15
ENDBRANCH   1   3
TORSDOF 6
ENDMDL
MODEL 2
REMARK VINA RESULT:      -6.3      1.229      1.447
REMARK  6 active torsions:
REMARK  status: ('A' for Active; 'I' for Inactive)
REMARK    1  A    between atoms: O_1  and  C_8 
REMARK    2  A    between atoms: O_2  and  C_11 
REMARK    3  A    between atoms: O_3  and  C_13 
REMARK    4  A    between atoms: C_6  and  C_7 
REMARK    5  A    between atoms: C_6  and  C_8 
REMARK    6  A    between atoms: C_8  and  C_14 
ROOT
HETATM    1  O   UNL     1       4.007  -6.656  59.500  1.00  0.00    -0.385 OA
HETATM    2  H   UNL     1       4.536  -7.157  58.860  1.00  0.00     0.210 HD
ENDROOT
BRANCH   1   3
HETATM    3  C   UNL     1       3.832  -5.325  59.030  1.00  0.00     0.223 C 
BRANCH   3   4
HETATM    4  C   UNL     1       4.662  -5.146  57.749  1.00  0.00     0.081 C 
BRANCH   4   5
HETATM    5  C   UNL     1       5.640  -4.025  57.849  1.00  0.00    -0.052 A 
HETATM    6  C   UNL     1       6.697  -4.101  58.757  1.00  0.00     0.046 A 
HETATM    7  C   UNL     1       7.612  -3.051  58.851  1.00  0.00     0.099 A 
HETATM    8  C   UNL     1       7.469  -1.927  58.038  1.00  0.00     0.098 A 
HETATM    9  C   UNL     1       6.411  -1.851  57.131  1.00  0.00     0.040 A 
HETATM   10  C   UNL     1       5.497  -2.900  57.037  1.00  0.00     0.010 A 
BRANCH   7  11
HETATM   11  O   UNL     1       8.639  -3.137  59.740  1.00  0.00    -0.358 OA
HETATM   12  H   UNL     1       8.511  -3.561  60.565  1.00  0.00     0.217 HD
ENDBRANCH   7  11
BRANCH   8  13
HETATM   13  O   UNL     1       8.357  -0.897  58.120  1.00  0.00    -0.358 OA
HETATM   14  H   UNL     1       9.274  -1.059  58.018  1.00  0.00     0.217 HD
ENDBRANCH   8  13
ENDBRANCH   4   5
ENDBRANCH   3   4
BRANCH   3  15
HETATM   15  C   UNL     1       2.354  -5.125  58.763  1.00  0.00     0.203 C 
HETATM   16  O   UNL     1       1.713  -4.566  59.822  1.00  0.00    -0.646 OA
HETATM   17  O   UNL     1       1.781  -5.441  57.729  1.00  0.00    -0.646 OA
ENDBRANCH   3  15
ENDBRANCH   1   3
TORSDOF 6
ENDMDL
MODEL 3
REMARK VINA RESULT:      -6.1      1.273      2.300
REMARK  6 active torsions:
REMARK  status: ('A' for Active; 'I' for Inactive)
REMARK    1  A    between atoms: O_1  and  C_8 
REMARK    2  A    between atoms: O_2  and  C_11 
REMARK    3  A    between atoms: O_3  and  C_13 
REMARK    4  A    between atoms: C_6  and  C_7 
REMARK    5  A    between atoms: C_6  and  C_8 
REMARK    6  A    between atoms: C_8  and  C_14 
ROOT
HETATM    1  O   UNL     1       3.249  -7.359  58.266  1.00  0.00    -0.385 OA
HETATM    2  H   UNL     1       2.943  -7.750  59.099  1.00  0.00     0.210 HD
ENDROOT
BRANCH   1   3
HETATM    3  C   UNL     1       3.685  -6.026  58.500  1.00  0.00     0.223 C 
BRANCH   3   4
HETATM    4  C   UNL     1       4.292  -5.475  57.199  1.00  0.00     0.081 C 
BRANCH   4   5
HETATM    5  C   UNL     1       5.378  -4.485  57.446  1.00  0.00    -0.052 A 
HETATM    6  C   UNL     1       5.788  -3.628  56.424  1.00  0.00     0.046 A 
HETATM    7  C   UNL     1       6.805  -2.702  56.655  1.00  0.00     0.099 A 
HETATM    8  C   UNL     1       7.413  -2.633  57.909  1.00  0.00     0.098 A 
HETATM    9  C   UNL     1       7.005  -3.490  58.931  1.00  0.00     0.040 A 
HETATM   10  C   UNL     1       5.988  -4.416  58.699  1.00  0.00     0.010 A 
BRANCH   7  11
HETATM   11  O   UNL     1       7.195  -1.871  55.650  1.00  0.00    -0.358 OA
HETATM   12  H   UNL     1       6.784  -1.036  55.547  1.00  0.00     0.217 HD
ENDBRANCH   7  11
BRANCH   8  13
HETATM   13  O   UNL     1       8.407  -1.732  58.146  1.00  0.00    -0.358 OA
HETATM   14  H   UNL     1       8.194  -0.850  58.383  1.00  0.00     0.217 HD
ENDBRANCH   8  13
ENDBRANCH   4   5
ENDBRANCH   3   4
BRANCH   3  15
HETATM   15  C   UNL     1       2.477  -5.219  58.931  1.00  0.00     0.203 C 
HETATM   16  O   UNL     1       1.360  -5.560  58.238  1.00  0.00    -0.646 OA
HETATM   17  O   UNL     1       2.489  -4.346  59.788  1.00  0.00    -0.646 OA
ENDBRANCH   3  15
ENDBRANCH   1   3
TORSDOF 6
ENDMDL
MODEL 4
REMARK VINA RESULT:      -6.0      1.627      2.087
REMARK  6 active torsions:
REMARK  status: ('A' for Active; 'I' for Inactive)
REMARK    1  A    between atoms: O_1  and  C_8 
REMARK    2  A    between atoms: O_2  and  C_11 
REMARK    3  A    between atoms: O_3  and  C_13 
REMARK    4  A    between atoms: C_6  and  C_7 
REMARK    5  A    between atoms: C_6  and  C_8 
REMARK    6  A    between atoms: C_8  and  C_14 
ROOT
HETATM    1  O   UNL     1       3.911  -5.939  56.095  1.00  0.00    -0.385 OA
HETATM    2  H   UNL     1       3.221  -6.615  56.176  1.00  0.00     0.210 HD
ENDROOT
BRANCH   1   3
HETATM    3  C   UNL     1       4.343  -5.544  57.392  1.00  0.00     0.223 C 
BRANCH   3   4
HETATM    4  C   UNL     1       3.987  -4.062  57.595  1.00  0.00     0.081 C 
BRANCH   4   5
HETATM    5  C   UNL     1       5.191  -3.198  57.753  1.00  0.00    -0.052 A 
HETATM    6  C   UNL     1       6.342  -3.709  58.353  1.00  0.00     0.046 A 
HETATM    7  C   UNL     1       7.470  -2.900  58.502  1.00  0.00     0.099 A 
HETATM    8  C   UNL     1       7.445  -1.581  58.049  1.00  0.00     0.098 A 
HETATM    9  C   UNL     1       6.294  -1.070  57.450  1.00  0.00     0.040 A 
HETATM   10  C   UNL     1       5.168  -1.879  57.302  1.00  0.00     0.010 A 
BRANCH   7  11
HETATM   11  O   UNL     1       8.587  -3.410  59.088  1.00  0.00    -0.358 OA
HETATM   12  H   UNL     1       8.656  -3.435  60.022  1.00  0.00     0.217 HD
ENDBRANCH   7  11
BRANCH   8  13
HETATM   13  O   UNL     1       8.540  -0.782  58.188  1.00  0.00    -0.358 OA
HETATM   14  H   UNL     1       8.977  -0.450  57.428  1.00  0.00     0.217 HD
ENDBRANCH   8  13
ENDBRANCH   4   5
ENDBRANCH   3   4
BRANCH   3  15
HETATM   15  C   UNL     1       3.631  -6.426  58.398  1.00  0.00     0.203 C 
HETATM   16  O   UNL     1       4.225  -6.392  59.619  1.00  0.00    -0.646 OA
HETATM   17  O   UNL     1       2.646  -7.110  58.155  1.00  0.00    -0.646 OA
ENDBRANCH   3  15
ENDBRANCH   1   3
TORSDOF 6
ENDMDL
MODEL 5
REMARK VINA RESULT:      -5.9      1.867      5.242
REMARK  6 active torsions:
REMARK  status: ('A' for Active; 'I' for Inactive)
REMARK    1  A    between atoms: O_1  and  C_8 
REMARK    2  A    between atoms: O_2  and  C_11 
REMARK    3  A    between atoms: O_3  and  C_13 
REMARK    4  A    between atoms: C_6  and  C_7 
REMARK    5  A    between atoms: C_6  and  C_8 
REMARK    6  A    between atoms: C_8  and  C_14 
ROOT
HETATM    1  O   UNL     1       7.735  -2.076  55.944  1.00  0.00    -0.385 OA
HETATM    2  H   UNL     1       8.226  -2.909  56.014  1.00  0.00     0.210 HD
ENDROOT
BRANCH   1   3
HETATM    3  C   UNL     1       6.675  -2.069  56.893  1.00  0.00     0.223 C 
BRANCH   3   4
HETATM    4  C   UNL     1       6.833  -3.293  57.810  1.00  0.00     0.081 C 
BRANCH   4   5
HETATM    5  C   UNL     1       5.707  -4.260  57.678  1.00  0.00    -0.052 A 
HETATM    6  C   UNL     1       5.293  -5.005  58.783  1.00  0.00     0.046 A 
HETATM    7  C   UNL     1       4.239  -5.910  58.659  1.00  0.00     0.099 A 
HETATM    8  C   UNL     1       3.599  -6.071  57.431  1.00  0.00     0.098 A 
HETATM    9  C   UNL     1       4.013  -5.327  56.326  1.00  0.00     0.040 A 
HETATM   10  C   UNL     1       5.066  -4.422  56.449  1.00  0.00     0.010 A 
BRANCH   7  11
HETATM   11  O   UNL     1       3.844  -6.630  59.745  1.00  0.00    -0.358 OA
HETATM   12  H   UNL     1       4.067  -7.538  59.811  1.00  0.00     0.217 HD
ENDBRANCH   7  11
BRANCH   8  13
HETATM   13  O   UNL     1       2.567  -6.951  57.298  1.00  0.00    -0.358 OA
HETATM   14  H   UNL     1       2.177  -7.334  58.059  1.00  0.00     0.217 HD
ENDBRANCH   8  13
ENDBRANCH   4   5
ENDBRANCH   3   4
BRANCH   3  15
HETATM   15  C   UNL     1       6.770  -0.776  57.675  1.00  0.00     0.203 C 
HETATM   16  O   UNL     1       7.876  -0.733  58.462  1.00  0.00    -0.646 OA
HETATM   17  O   UNL     1       5.948   0.130  57.632  1.00  0.00    -0.646 OA
ENDBRANCH   3  15
ENDBRANCH   1   3
TORSDOF 6
ENDMDL
MODEL 6
REMARK VINA RESULT:      -5.9      2.432      5.050
REMARK  6 active torsions:
REMARK  status: ('A' for Active; 'I' for Inactive)
REMARK    1  A    between atoms: O_1  and  C_8 
REMARK    2  A    between atoms: O_2  and  C_11 
REMARK    3  A    between atoms: O_3  and  C_13 
REMARK    4  A    between atoms: C_6  and  C_7 
REMARK    5  A    between atoms: C_6  and  C_8 
REMARK    6  A    between atoms: C_8  and  C_14 
ROOT
HETATM    1  O   UNL     1       6.859  -0.299  54.990  1.00  0.00    -0.385 OA
HETATM    2  H   UNL     1       7.155  -0.910  54.298  1.00  0.00     0.210 HD
ENDROOT
BRANCH   1   3
HETATM    3  C   UNL     1       6.267  -1.038  56.053  1.00  0.00     0.223 C 
BRANCH   3   4
HETATM    4  C   UNL     1       7.117  -2.294  56.307  1.00  0.00     0.081 C 
BRANCH   4   5
HETATM    5  C   UNL     1       6.411  -3.306  57.142  1.00  0.00    -0.052 A 
HETATM    6  C   UNL     1       6.820  -3.534  58.456  1.00  0.00     0.046 A 
HETATM    7  C   UNL     1       6.159  -4.483  59.238  1.00  0.00     0.099 A 
HETATM    8  C   UNL     1       5.090  -5.202  58.705  1.00  0.00     0.098 A 
HETATM    9  C   UNL     1       4.682  -4.975  57.390  1.00  0.00     0.040 A 
HETATM   10  C   UNL     1       5.342  -4.027  56.609  1.00  0.00     0.010 A 
BRANCH   7  11
HETATM   11  O   UNL     1       6.567  -4.696  60.519  1.00  0.00    -0.358 OA
HETATM   12  H   UNL     1       7.383  -5.123  60.686  1.00  0.00     0.217 HD
ENDBRANCH   7  11
BRANCH   8  13
HETATM   13  O   UNL     1       4.436  -6.130  59.459  1.00  0.00    -0.358 OA
HETATM   14  H   UNL     1       4.812  -6.430  60.263  1.00  0.00     0.217 HD
ENDBRANCH   8  13
ENDBRANCH   4   5
ENDBRANCH   3   4
BRANCH   3  15
HETATM   15  C   UNL     1       6.233  -0.138  57.271  1.00  0.00     0.203 C 
HETATM   16  O   UNL     1       7.324  -0.305  58.062  1.00  0.00    -0.646 OA
HETATM   17  O   UNL     1       5.329   0.642  57.539  1.00  0.00    -0.646 OA
ENDBRANCH   3  15
ENDBRANCH   1   3
TORSDOF 6
ENDMDL
MODEL 7
REMARK VINA RESULT:      -5.8      3.363      5.273
REMARK  6 active torsions:
REMARK  status: ('A' for Active; 'I' for Inactive)
REMARK    1  A    between atoms: O_1  and  C_8 
REMARK    2  A    between atoms: O_2  and  C_11 
REMARK    3  A    between atoms: O_3  and  C_13 
REMARK    4  A    between atoms: C_6  and  C_7 
REMARK    5  A    between atoms: C_6  and  C_8 
REMARK    6  A    between atoms: C_8  and  C_14 
ROOT
HETATM    1  O   UNL     1       6.873   0.612  55.630  1.00  0.00    -0.385 OA
HETATM    2  H   UNL     1       7.056   0.882  54.717  1.00  0.00     0.210 HD
ENDROOT
BRANCH   1   3
HETATM    3  C   UNL     1       6.273  -0.678  55.632  1.00  0.00     0.223 C 
BRANCH   3   4
HETATM    4  C   UNL     1       5.389  -0.803  56.884  1.00  0.00     0.081 C 
BRANCH   4   5
HETATM    5  C   UNL     1       5.792  -1.940  57.760  1.00  0.00    -0.052 A 
HETATM    6  C   UNL     1       7.124  -2.085  58.147  1.00  0.00     0.046 A 
HETATM    7  C   UNL     1       7.501  -3.149  58.966  1.00  0.00     0.099 A 
HETATM    8  C   UNL     1       6.545  -4.069  59.398  1.00  0.00     0.098 A 
HETATM    9  C   UNL     1       5.213  -3.924  59.010  1.00  0.00     0.040 A 
HETATM   10  C   UNL     1       4.836  -2.860  58.191  1.00  0.00     0.010 A 
BRANCH   7  11
HETATM   11  O   UNL     1       8.804  -3.279  59.338  1.00  0.00    -0.358 OA
HETATM   12  H   UNL     1       9.282  -4.050  59.106  1.00  0.00     0.217 HD
ENDBRANCH   7  11
BRANCH   8  13
HETATM   13  O   UNL     1       6.901  -5.111  60.200  1.00  0.00    -0.358 OA
HETATM   14  H   UNL     1       7.563  -5.713  59.920  1.00  0.00     0.217 HD
ENDBRANCH   8  13
ENDBRANCH   4   5
ENDBRANCH   3   4
BRANCH   3  15
HETATM   15  C   UNL     1       5.454  -0.802  54.363  1.00  0.00     0.203 C 
HETATM   16  O   UNL     1       6.054  -0.198  53.305  1.00  0.00    -0.646 OA
HETATM   17  O   UNL     1       4.369  -1.361  54.283  1.00  0.00    -0.646 OA
ENDBRANCH   3  15
ENDBRANCH   1   3
TORSDOF 6
ENDMDL
MODEL 8
REMARK VINA RESULT:      -5.7      1.735      2.791
REMARK  6 active torsions:
REMARK  status: ('A' for Active; 'I' for Inactive)
REMARK    1  A    between atoms: O_1  and  C_8 
REMARK    2  A    between atoms: O_2  and  C_11 
REMARK    3  A    between atoms: O_3  and  C_13 
REMARK    4  A    between atoms: C_6  and  C_7 
REMARK    5  A    between atoms: C_6  and  C_8 
REMARK    6  A    between atoms: C_8  and  C_14 
ROOT
HETATM    1  O   UNL     1       3.809  -4.071  59.144  1.00  0.00    -0.385 OA
HETATM    2  H   UNL     1       3.008  -3.708  59.553  1.00  0.00     0.210 HD
ENDROOT
BRANCH   1   3
HETATM    3  C   UNL     1       3.446  -4.895  58.043  1.00  0.00     0.223 C 
BRANCH   3   4
HETATM    4  C   UNL     1       4.478  -4.694  56.921  1.00  0.00     0.081 C 
BRANCH   4   5
HETATM    5  C   UNL     1       5.523  -3.691  57.274  1.00  0.00    -0.052 A 
HETATM    6  C   UNL     1       5.543  -2.450  56.638  1.00  0.00     0.046 A 
HETATM    7  C   UNL     1       6.522  -1.512  56.968  1.00  0.00     0.099 A 
HETATM    8  C   UNL     1       7.480  -1.816  57.934  1.00  0.00     0.098 A 
HETATM    9  C   UNL     1       7.461  -3.058  58.570  1.00  0.00     0.040 A 
HETATM   10  C   UNL     1       6.482  -3.995  58.240  1.00  0.00     0.010 A 
BRANCH   7  11
HETATM   11  O   UNL     1       6.530  -0.304  56.341  1.00  0.00    -0.358 OA
HETATM   12  H   UNL     1       5.737   0.043  55.982  1.00  0.00     0.217 HD
ENDBRANCH   7  11
BRANCH   8  13
HETATM   13  O   UNL     1       8.440  -0.908  58.266  1.00  0.00    -0.358 OA
HETATM   14  H   UNL     1       9.037  -1.091  58.965  1.00  0.00     0.217 HD
ENDBRANCH   8  13
ENDBRANCH   4   5
ENDBRANCH   3   4
BRANCH   3  15
HETATM   15  C   UNL     1       3.434  -6.330  58.531  1.00  0.00     0.203 C 
HETATM   16  O   UNL     1       4.063  -6.469  59.726  1.00  0.00    -0.646 OA
HETATM   17  O   UNL     1       2.936  -7.270  57.926  1.00  0.00    -0.646 OA
ENDBRANCH   3  15
ENDBRANCH   1   3
TORSDOF 6
ENDMDL
MODEL 9
REMARK VINA RESULT:      -5.7      1.648      5.203
REMARK  6 active torsions:
REMARK  status: ('A' for Active; 'I' for Inactive)
REMARK    1  A    between atoms: O_1  and  C_8 
REMARK    2  A    between atoms: O_2  and  C_11 
REMARK    3  A    between atoms: O_3  and  C_13 
REMARK    4  A    between atoms: C_6  and  C_7 
REMARK    5  A    between atoms: C_6  and  C_8 
REMARK    6  A    between atoms: C_8  and  C_14 
ROOT
HETATM    1  O   UNL     1       5.714  -1.059  57.202  1.00  0.00    -0.385 OA
HETATM    2  H   UNL     1       4.767  -0.887  57.317  1.00  0.00     0.210 HD
ENDROOT
BRANCH   1   3
HETATM    3  C   UNL     1       6.037  -2.325  57.765  1.00  0.00     0.223 C 
BRANCH   3   4
HETATM    4  C   UNL     1       6.005  -3.380  56.646  1.00  0.00     0.081 C 
BRANCH   4   5
HETATM    5  C   UNL     1       5.093  -4.518  56.955  1.00  0.00    -0.052 A 
HETATM    6  C   UNL     1       5.036  -5.034  58.250  1.00  0.00     0.046 A 
HETATM    7  C   UNL     1       4.183  -6.100  58.539  1.00  0.00     0.099 A 
HETATM    8  C   UNL     1       3.388  -6.648  57.533  1.00  0.00     0.098 A 
HETATM    9  C   UNL     1       3.446  -6.132  56.238  1.00  0.00     0.040 A 
HETATM   10  C   UNL     1       4.298  -5.067  55.950  1.00  0.00     0.010 A 
BRANCH   7  11
HETATM   11  O   UNL     1       4.135  -6.595  59.806  1.00  0.00    -0.358 OA
HETATM   12  H   UNL     1       3.739  -6.093  60.490  1.00  0.00     0.217 HD
ENDBRANCH   7  11
BRANCH   8  13
HETATM   13  O   UNL     1       2.550  -7.688  57.803  1.00  0.00    -0.358 OA
HETATM   14  H   UNL     1       2.496  -8.413  57.211  1.00  0.00     0.217 HD
ENDBRANCH   8  13
ENDBRANCH   4   5
ENDBRANCH   3   4
BRANCH   3  15
HETATM   15  C   UNL     1       7.418  -2.214  58.379  1.00  0.00     0.203 C 
HETATM   16  O   UNL     1       7.903  -0.947  58.321  1.00  0.00    -0.646 OA
HETATM   17  O   UNL     1       8.047  -3.147  58.861  1.00  0.00    -0.646 OA
ENDBRANCH   3  15
ENDBRANCH   1   3
TORSDOF 6
ENDMDL
