MODEL 1
REMARK VINA RESULT:      -7.4      0.000      0.000
REMARK  4 active torsions:
REMARK  status: ('A' for Active; 'I' for Inactive)
REMARK    1  A    between atoms: O_1  and  C_9 
REMARK    2  A    between atoms: O_2  and  C_10 
REMARK    3  A    between atoms: C_3  and  C_5 
REMARK    4  A    between atoms: C_4  and  C_8 
ROOT
HETATM    1  O   UNL     1      33.751  71.803  24.722  1.00  0.00    -0.358 OA
HETATM    2  H   UNL     1      34.358  72.444  25.036  1.00  0.00     0.217 HD
ENDROOT
BRANCH   1   3
HETATM    3  C   UNL     1      33.647  71.563  23.385  1.00  0.00     0.099 A 
HETATM    4  C   UNL     1      33.150  72.560  22.546  1.00  0.00     0.050 A 
HETATM    5  C   UNL     1      33.044  72.312  21.187  1.00  0.00    -0.033 A 
HETATM    6  C   UNL     1      33.421  71.094  20.644  1.00  0.00     0.014 A 
HETATM    7  C   UNL     1      33.918  70.096  21.484  1.00  0.00     0.040 A 
HETATM    8  C   UNL     1      34.030  70.332  22.854  1.00  0.00     0.098 A 
BRANCH   5   9
HETATM    9  C   UNL     1      32.521  73.365  20.299  1.00  0.00     0.012 C 
HETATM   10  C   UNL     1      32.183  74.617  20.689  1.00  0.00     0.012 C 
BRANCH  10  11
HETATM   11  C   UNL     1      31.684  75.664  19.809  1.00  0.00    -0.036 A 
HETATM   12  C   UNL     1      31.339  76.909  20.332  1.00  0.00     0.011 A 
HETATM   13  C   UNL     1      30.862  77.912  19.488  1.00  0.00     0.001 A 
HETATM   14  C   UNL     1      30.730  77.668  18.121  1.00  0.00     0.000 A 
HETATM   15  C   UNL     1      31.076  76.422  17.598  1.00  0.00     0.001 A 
HETATM   16  C   UNL     1      31.554  75.420  18.442  1.00  0.00     0.011 A 
ENDBRANCH  10  11
ENDBRANCH   5   9
BRANCH   8  17
HETATM   17  O   UNL     1      34.515  69.349  23.664  1.00  0.00    -0.358 OA
HETATM   18  H   UNL     1      34.083  69.153  24.472  1.00  0.00     0.217 HD
ENDBRANCH   8  17
ENDBRANCH   1   3
TORSDOF 4
ENDMDL
MODEL 2
REMARK VINA RESULT:      -7.3      3.788      5.578
REMARK  4 active torsions:
REMARK  status: ('A' for Active; 'I' for Inactive)
REMARK    1  A    between atoms: O_1  and  C_9 
REMARK    2  A    between atoms: O_2  and  C_10 
REMARK    3  A    between atoms: C_3  and  C_5 
REMARK    4  A    between atoms: C_4  and  C_8 
ROOT
HETATM    1  O   UNL     1      31.087  78.831  22.826  1.00  0.00    -0.358 OA
HETATM    2  H   UNL     1      31.751  79.488  22.900  1.00  0.00     0.217 HD
ENDROOT
BRANCH   1   3
HETATM    3  C   UNL     1      31.245  77.800  21.949  1.00  0.00     0.099 A 
HETATM    4  C   UNL     1      31.069  78.027  20.584  1.00  0.00     0.050 A 
HETATM    5  C   UNL     1      31.229  76.976  19.696  1.00  0.00    -0.033 A 
HETATM    6  C   UNL     1      31.560  75.705  20.134  1.00  0.00     0.014 A 
HETATM    7  C   UNL     1      31.736  75.477  21.500  1.00  0.00     0.040 A 
HETATM    8  C   UNL     1      31.578  76.525  22.406  1.00  0.00     0.098 A 
BRANCH   5   9
HETATM    9  C   UNL     1      31.045  77.216  18.253  1.00  0.00     0.012 C 
HETATM   10  C   UNL     1      30.777  76.261  17.332  1.00  0.00     0.012 C 
BRANCH  10  11
HETATM   11  C   UNL     1      30.575  76.501  15.911  1.00  0.00    -0.036 A 
HETATM   12  C   UNL     1      29.442  77.182  15.472  1.00  0.00     0.011 A 
HETATM   13  C   UNL     1      29.248  77.412  14.110  1.00  0.00     0.001 A 
HETATM   14  C   UNL     1      30.191  76.959  13.187  1.00  0.00     0.000 A 
HETATM   15  C   UNL     1      31.326  76.277  13.625  1.00  0.00     0.001 A 
HETATM   16  C   UNL     1      31.519  76.048  14.988  1.00  0.00     0.011 A 
ENDBRANCH  10  11
ENDBRANCH   5   9
BRANCH   8  17
HETATM   17  O   UNL     1      31.750  76.290  23.737  1.00  0.00    -0.358 OA
HETATM   18  H   UNL     1      32.614  76.249  24.098  1.00  0.00     0.217 HD
ENDBRANCH   8  17
ENDBRANCH   1   3
TORSDOF 4
ENDMDL
MODEL 3
REMARK VINA RESULT:      -7.2      1.304      1.807
REMARK  4 active torsions:
REMARK  status: ('A' for Active; 'I' for Inactive)
REMARK    1  A    between atoms: O_1  and  C_9 
REMARK    2  A    between atoms: O_2  and  C_10 
REMARK    3  A    between atoms: C_3  and  C_5 
REMARK    4  A    between atoms: C_4  and  C_8 
ROOT
HETATM    1  O   UNL     1      32.919  69.605  24.420  1.00  0.00    -0.358 OA
HETATM    2  H   UNL     1      32.134  69.094  24.462  1.00  0.00     0.217 HD
ENDROOT
BRANCH   1   3
HETATM    3  C   UNL     1      33.243  70.261  23.271  1.00  0.00     0.099 A 
HETATM    4  C   UNL     1      33.044  71.638  23.188  1.00  0.00     0.050 A 
HETATM    5  C   UNL     1      33.374  72.302  22.017  1.00  0.00    -0.033 A 
HETATM    6  C   UNL     1      33.897  71.626  20.928  1.00  0.00     0.014 A 
HETATM    7  C   UNL     1      34.097  70.247  21.010  1.00  0.00     0.040 A 
HETATM    8  C   UNL     1      33.770  69.565  22.182  1.00  0.00     0.098 A 
BRANCH   5   9
HETATM    9  C   UNL     1      33.164  73.758  21.929  1.00  0.00     0.012 C 
HETATM   10  C   UNL     1      32.268  74.370  21.119  1.00  0.00     0.012 C 
BRANCH  10  11
HETATM   11  C   UNL     1      32.047  75.806  21.047  1.00  0.00    -0.036 A 
HETATM   12  C   UNL     1      32.428  76.625  22.109  1.00  0.00     0.011 A 
HETATM   13  C   UNL     1      32.217  78.002  22.039  1.00  0.00     0.001 A 
HETATM   14  C   UNL     1      31.624  78.559  20.906  1.00  0.00     0.000 A 
HETATM   15  C   UNL     1      31.244  77.741  19.843  1.00  0.00     0.001 A 
HETATM   16  C   UNL     1      31.456  76.364  19.913  1.00  0.00     0.011 A 
ENDBRANCH  10  11
ENDBRANCH   5   9
BRANCH   8  17
HETATM   17  O   UNL     1      33.967  68.219  22.250  1.00  0.00    -0.358 OA
HETATM   18  H   UNL     1      33.838  67.767  23.061  1.00  0.00     0.217 HD
ENDBRANCH   8  17
ENDBRANCH   1   3
TORSDOF 4
ENDMDL
MODEL 4
REMARK VINA RESULT:      -7.1      3.561      6.984
REMARK  4 active torsions:
REMARK  status: ('A' for Active; 'I' for Inactive)
REMARK    1  A    between atoms: O_1  and  C_9 
REMARK    2  A    between atoms: O_2  and  C_10 
REMARK    3  A    between atoms: C_3  and  C_5 
REMARK    4  A    between atoms: C_4  and  C_8 
ROOT
HETATM    1  O   UNL     1      33.303  79.418  23.448  1.00  0.00    -0.358 OA
HETATM    2  H   UNL     1      32.949  80.227  23.763  1.00  0.00     0.217 HD
ENDROOT
BRANCH   1   3
HETATM    3  C   UNL     1      32.614  78.683  22.531  1.00  0.00     0.099 A 
HETATM    4  C   UNL     1      32.834  77.308  22.449  1.00  0.00     0.050 A 
HETATM    5  C   UNL     1      32.131  76.565  21.515  1.00  0.00    -0.033 A 
HETATM    6  C   UNL     1      31.215  77.157  20.661  1.00  0.00     0.014 A 
HETATM    7  C   UNL     1      30.995  78.533  20.744  1.00  0.00     0.040 A 
HETATM    8  C   UNL     1      31.695  79.295  21.679  1.00  0.00     0.098 A 
BRANCH   5   9
HETATM    9  C   UNL     1      32.362  75.111  21.428  1.00  0.00     0.012 C 
HETATM   10  C   UNL     1      33.340  74.437  22.079  1.00  0.00     0.012 C 
BRANCH  10  11
HETATM   11  C   UNL     1      33.556  72.999  22.008  1.00  0.00    -0.036 A 
HETATM   12  C   UNL     1      33.028  72.166  22.993  1.00  0.00     0.011 A 
HETATM   13  C   UNL     1      33.234  70.788  22.925  1.00  0.00     0.001 A 
HETATM   14  C   UNL     1      33.970  70.245  21.872  1.00  0.00     0.000 A 
HETATM   15  C   UNL     1      34.498  71.079  20.886  1.00  0.00     0.001 A 
HETATM   16  C   UNL     1      34.291  72.456  20.954  1.00  0.00     0.011 A 
ENDBRANCH  10  11
ENDBRANCH   5   9
BRANCH   8  17
HETATM   17  O   UNL     1      31.473  80.637  21.749  1.00  0.00    -0.358 OA
HETATM   18  H   UNL     1      31.544  81.082  22.571  1.00  0.00     0.217 HD
ENDBRANCH   8  17
ENDBRANCH   1   3
TORSDOF 4
ENDMDL
MODEL 5
REMARK VINA RESULT:      -7.1      3.196      6.129
REMARK  4 active torsions:
REMARK  status: ('A' for Active; 'I' for Inactive)
REMARK    1  A    between atoms: O_1  and  C_9 
REMARK    2  A    between atoms: O_2  and  C_10 
REMARK    3  A    between atoms: C_3  and  C_5 
REMARK    4  A    between atoms: C_4  and  C_8 
ROOT
HETATM    1  O   UNL     1      31.480  75.942  24.049  1.00  0.00    -0.358 OA
HETATM    2  H   UNL     1      31.374  76.649  24.656  1.00  0.00     0.217 HD
ENDROOT
BRANCH   1   3
HETATM    3  C   UNL     1      31.614  76.202  22.718  1.00  0.00     0.099 A 
HETATM    4  C   UNL     1      32.307  75.300  21.911  1.00  0.00     0.050 A 
HETATM    5  C   UNL     1      32.443  75.568  20.558  1.00  0.00    -0.033 A 
HETATM    6  C   UNL     1      31.905  76.711  19.991  1.00  0.00     0.014 A 
HETATM    7  C   UNL     1      31.211  77.613  20.799  1.00  0.00     0.040 A 
HETATM    8  C   UNL     1      31.066  77.358  22.162  1.00  0.00     0.098 A 
BRANCH   5   9
HETATM    9  C   UNL     1      33.174  74.615  19.704  1.00  0.00     0.012 C 
HETATM   10  C   UNL     1      34.039  73.673  20.149  1.00  0.00     0.012 C 
BRANCH  10  11
HETATM   11  C   UNL     1      34.746  72.719  19.307  1.00  0.00    -0.036 A 
HETATM   12  C   UNL     1      35.966  72.192  19.724  1.00  0.00     0.011 A 
HETATM   13  C   UNL     1      36.644  71.277  18.917  1.00  0.00     0.001 A 
HETATM   14  C   UNL     1      36.099  70.891  17.693  1.00  0.00     0.000 A 
HETATM   15  C   UNL     1      34.877  71.419  17.275  1.00  0.00     0.001 A 
HETATM   16  C   UNL     1      34.199  72.332  18.083  1.00  0.00     0.011 A 
ENDBRANCH  10  11
ENDBRANCH   5   9
BRANCH   8  17
HETATM   17  O   UNL     1      30.389  78.247  22.941  1.00  0.00    -0.358 OA
HETATM   18  H   UNL     1      30.833  78.992  23.296  1.00  0.00     0.217 HD
ENDBRANCH   8  17
ENDBRANCH   1   3
TORSDOF 4
ENDMDL
MODEL 6
REMARK VINA RESULT:      -7.0      3.465      5.434
REMARK  4 active torsions:
REMARK  status: ('A' for Active; 'I' for Inactive)
REMARK    1  A    between atoms: O_1  and  C_9 
REMARK    2  A    between atoms: O_2  and  C_10 
REMARK    3  A    between atoms: C_3  and  C_5 
REMARK    4  A    between atoms: C_4  and  C_8 
ROOT
HETATM    1  O   UNL     1      32.048  74.142  21.967  1.00  0.00    -0.358 OA
HETATM    2  H   UNL     1      31.490  73.420  21.754  1.00  0.00     0.217 HD
ENDROOT
BRANCH   1   3
HETATM    3  C   UNL     1      31.724  75.399  21.551  1.00  0.00     0.099 A 
HETATM    4  C   UNL     1      31.556  75.647  20.189  1.00  0.00     0.050 A 
HETATM    5  C   UNL     1      31.228  76.926  19.769  1.00  0.00    -0.033 A 
HETATM    6  C   UNL     1      31.062  77.962  20.673  1.00  0.00     0.014 A 
HETATM    7  C   UNL     1      31.230  77.713  22.036  1.00  0.00     0.040 A 
HETATM    8  C   UNL     1      31.560  76.431  22.474  1.00  0.00     0.098 A 
BRANCH   5   9
HETATM    9  C   UNL     1      31.049  77.190  18.330  1.00  0.00     0.012 C 
HETATM   10  C   UNL     1      30.899  76.241  17.376  1.00  0.00     0.012 C 
BRANCH  10  11
HETATM   11  C   UNL     1      30.703  76.502  15.957  1.00  0.00    -0.036 A 
HETATM   12  C   UNL     1      31.624  76.024  15.026  1.00  0.00     0.011 A 
HETATM   13  C   UNL     1      31.436  76.274  13.667  1.00  0.00     0.001 A 
HETATM   14  C   UNL     1      30.326  77.002  13.240  1.00  0.00     0.000 A 
HETATM   15  C   UNL     1      29.404  77.480  14.171  1.00  0.00     0.001 A 
HETATM   16  C   UNL     1      29.592  77.229  15.530  1.00  0.00     0.011 A 
ENDBRANCH  10  11
ENDBRANCH   5   9
BRANCH   8  17
HETATM   17  O   UNL     1      31.723  76.201  23.806  1.00  0.00    -0.358 OA
HETATM   18  H   UNL     1      32.288  75.511  24.097  1.00  0.00     0.217 HD
ENDBRANCH   8  17
ENDBRANCH   1   3
TORSDOF 4
ENDMDL
MODEL 7
REMARK VINA RESULT:      -6.9      1.753      2.700
REMARK  4 active torsions:
REMARK  status: ('A' for Active; 'I' for Inactive)
REMARK    1  A    between atoms: O_1  and  C_9 
REMARK    2  A    between atoms: O_2  and  C_10 
REMARK    3  A    between atoms: C_3  and  C_5 
REMARK    4  A    between atoms: C_4  and  C_8 
ROOT
HETATM    1  O   UNL     1      31.140  72.541  23.446  1.00  0.00    -0.358 OA
HETATM    2  H   UNL     1      30.233  72.361  23.292  1.00  0.00     0.217 HD
ENDROOT
BRANCH   1   3
HETATM    3  C   UNL     1      31.923  73.005  22.432  1.00  0.00     0.099 A 
HETATM    4  C   UNL     1      31.324  73.574  21.309  1.00  0.00     0.050 A 
HETATM    5  C   UNL     1      32.124  74.044  20.280  1.00  0.00    -0.033 A 
HETATM    6  C   UNL     1      33.505  73.960  20.343  1.00  0.00     0.014 A 
HETATM    7  C   UNL     1      34.104  73.390  21.467  1.00  0.00     0.040 A 
HETATM    8  C   UNL     1      33.313  72.913  22.511  1.00  0.00     0.098 A 
BRANCH   5   9
HETATM    9  C   UNL     1      31.492  74.647  19.092  1.00  0.00     0.012 C 
HETATM   10  C   UNL     1      31.489  75.968  18.797  1.00  0.00     0.012 C 
BRANCH  10  11
HETATM   11  C   UNL     1      30.882  76.561  17.614  1.00  0.00    -0.036 A 
HETATM   12  C   UNL     1      30.581  77.922  17.593  1.00  0.00     0.011 A 
HETATM   13  C   UNL     1      30.000  78.491  16.459  1.00  0.00     0.001 A 
HETATM   14  C   UNL     1      29.721  77.696  15.347  1.00  0.00     0.000 A 
HETATM   15  C   UNL     1      30.023  76.335  15.368  1.00  0.00     0.001 A 
HETATM   16  C   UNL     1      30.604  75.767  16.502  1.00  0.00     0.011 A 
ENDBRANCH  10  11
ENDBRANCH   5   9
BRANCH   8  17
HETATM   17  O   UNL     1      33.909  72.357  23.603  1.00  0.00    -0.358 OA
HETATM   18  H   UNL     1      33.643  72.614  24.464  1.00  0.00     0.217 HD
ENDBRANCH   8  17
ENDBRANCH   1   3
TORSDOF 4
ENDMDL
MODEL 8
REMARK VINA RESULT:      -6.9      3.913      7.192
REMARK  4 active torsions:
REMARK  status: ('A' for Active; 'I' for Inactive)
REMARK    1  A    between atoms: O_1  and  C_9 
REMARK    2  A    between atoms: O_2  and  C_10 
REMARK    3  A    between atoms: C_3  and  C_5 
REMARK    4  A    between atoms: C_4  and  C_8 
ROOT
HETATM    1  O   UNL     1      30.263  78.847  19.627  1.00  0.00    -0.358 OA
HETATM    2  H   UNL     1      30.619  79.310  18.894  1.00  0.00     0.217 HD
ENDROOT
BRANCH   1   3
HETATM    3  C   UNL     1      31.096  78.260  20.531  1.00  0.00     0.099 A 
HETATM    4  C   UNL     1      31.319  76.884  20.466  1.00  0.00     0.050 A 
HETATM    5  C   UNL     1      32.166  76.290  21.387  1.00  0.00    -0.033 A 
HETATM    6  C   UNL     1      32.797  77.033  22.371  1.00  0.00     0.014 A 
HETATM    7  C   UNL     1      32.574  78.409  22.437  1.00  0.00     0.040 A 
HETATM    8  C   UNL     1      31.724  79.021  21.517  1.00  0.00     0.098 A 
BRANCH   5   9
HETATM    9  C   UNL     1      32.403  74.837  21.317  1.00  0.00     0.012 C 
HETATM   10  C   UNL     1      33.210  74.138  22.150  1.00  0.00     0.012 C 
BRANCH  10  11
HETATM   11  C   UNL     1      33.428  72.700  22.094  1.00  0.00    -0.036 A 
HETATM   12  C   UNL     1      34.161  72.146  21.046  1.00  0.00     0.011 A 
HETATM   13  C   UNL     1      34.370  70.768  20.993  1.00  0.00     0.001 A 
HETATM   14  C   UNL     1      33.846  69.945  21.989  1.00  0.00     0.000 A 
HETATM   15  C   UNL     1      33.112  70.499  23.038  1.00  0.00     0.001 A 
HETATM   16  C   UNL     1      32.904  71.877  23.091  1.00  0.00     0.011 A 
ENDBRANCH  10  11
ENDBRANCH   5   9
BRANCH   8  17
HETATM   17  O   UNL     1      31.513  80.365  21.592  1.00  0.00    -0.358 OA
HETATM   18  H   UNL     1      32.237  80.957  21.531  1.00  0.00     0.217 HD
ENDBRANCH   8  17
ENDBRANCH   1   3
TORSDOF 4
ENDMDL
MODEL 9
REMARK VINA RESULT:      -6.8      1.539      2.616
REMARK  4 active torsions:
REMARK  status: ('A' for Active; 'I' for Inactive)
REMARK    1  A    between atoms: O_1  and  C_9 
REMARK    2  A    between atoms: O_2  and  C_10 
REMARK    3  A    between atoms: C_3  and  C_5 
REMARK    4  A    between atoms: C_4  and  C_8 
ROOT
HETATM    1  O   UNL     1      34.816  69.307  20.323  1.00  0.00    -0.358 OA
HETATM    2  H   UNL     1      34.682  69.385  19.399  1.00  0.00     0.217 HD
ENDROOT
BRANCH   1   3
HETATM    3  C   UNL     1      34.120  70.104  21.182  1.00  0.00     0.099 A 
HETATM    4  C   UNL     1      33.726  71.376  20.769  1.00  0.00     0.050 A 
HETATM    5  C   UNL     1      33.019  72.184  21.645  1.00  0.00    -0.033 A 
HETATM    6  C   UNL     1      32.696  71.755  22.922  1.00  0.00     0.014 A 
HETATM    7  C   UNL     1      33.091  70.482  23.335  1.00  0.00     0.040 A 
HETATM    8  C   UNL     1      33.803  69.657  22.464  1.00  0.00     0.098 A 
BRANCH   5   9
HETATM    9  C   UNL     1      32.601  73.529  21.209  1.00  0.00     0.012 C 
HETATM   10  C   UNL     1      32.617  74.640  21.983  1.00  0.00     0.012 C 
BRANCH  10  11
HETATM   11  C   UNL     1      32.223  75.971  21.547  1.00  0.00    -0.036 A 
HETATM   12  C   UNL     1      31.561  76.139  20.332  1.00  0.00     0.011 A 
HETATM   13  C   UNL     1      31.183  77.415  19.914  1.00  0.00     0.001 A 
HETATM   14  C   UNL     1      31.468  78.523  20.712  1.00  0.00     0.000 A 
HETATM   15  C   UNL     1      32.130  78.354  21.929  1.00  0.00     0.001 A 
HETATM   16  C   UNL     1      32.507  77.078  22.346  1.00  0.00     0.011 A 
ENDBRANCH  10  11
ENDBRANCH   5   9
BRANCH   8  17
HETATM   17  O   UNL     1      34.184  68.417  22.880  1.00  0.00    -0.358 OA
HETATM   18  H   UNL     1      33.990  67.666  22.353  1.00  0.00     0.217 HD
ENDBRANCH   8  17
ENDBRANCH   1   3
TORSDOF 4
ENDMDL
