MODEL 1
REMARK VINA RESULT:      -7.4      0.000      0.000
REMARK  4 active torsions:
REMARK  status: ('A' for Active; 'I' for Inactive)
REMARK    1  A    between atoms: O_1  and  C_9 
REMARK    2  A    between atoms: O_2  and  C_10 
REMARK    3  A    between atoms: C_3  and  C_5 
REMARK    4  A    between atoms: C_4  and  C_8 
ROOT
HETATM    1  O   UNL     1      33.739  71.786  24.709  1.00  0.00    -0.358 OA
HETATM    2  H   UNL     1      32.985  71.637  25.246  1.00  0.00     0.217 HD
ENDROOT
BRANCH   1   3
HETATM    3  C   UNL     1      33.674  71.562  23.366  1.00  0.00     0.099 A 
HETATM    4  C   UNL     1      33.246  72.585  22.520  1.00  0.00     0.050 A 
HETATM    5  C   UNL     1      33.180  72.353  21.156  1.00  0.00    -0.033 A 
HETATM    6  C   UNL     1      33.530  71.127  20.614  1.00  0.00     0.014 A 
HETATM    7  C   UNL     1      33.957  70.104  21.461  1.00  0.00     0.040 A 
HETATM    8  C   UNL     1      34.029  70.322  22.836  1.00  0.00     0.098 A 
BRANCH   5   9
HETATM    9  C   UNL     1      32.730  73.435  20.261  1.00  0.00     0.012 C 
HETATM   10  C   UNL     1      32.023  74.523  20.648  1.00  0.00     0.012 C 
BRANCH  10  11
HETATM   11  C   UNL     1      31.596  75.601  19.768  1.00  0.00    -0.036 A 
HETATM   12  C   UNL     1      31.434  75.365  18.404  1.00  0.00     0.011 A 
HETATM   13  C   UNL     1      31.024  76.397  17.560  1.00  0.00     0.001 A 
HETATM   14  C   UNL     1      30.776  77.666  18.083  1.00  0.00     0.000 A 
HETATM   15  C   UNL     1      30.937  77.903  19.448  1.00  0.00     0.001 A 
HETATM   16  C   UNL     1      31.346  76.870  20.291  1.00  0.00     0.011 A 
ENDBRANCH  10  11
ENDBRANCH   5   9
BRANCH   8  17
HETATM   17  O   UNL     1      34.446  69.314  23.653  1.00  0.00    -0.358 OA
HETATM   18  H   UNL     1      35.317  68.976  23.572  1.00  0.00     0.217 HD
ENDBRANCH   8  17
ENDBRANCH   1   3
TORSDOF 4
ENDMDL
MODEL 2
REMARK VINA RESULT:      -7.3      1.480      2.279
REMARK  4 active torsions:
REMARK  status: ('A' for Active; 'I' for Inactive)
REMARK    1  A    between atoms: O_1  and  C_9 
REMARK    2  A    between atoms: O_2  and  C_10 
REMARK    3  A    between atoms: C_3  and  C_5 
REMARK    4  A    between atoms: C_4  and  C_8 
ROOT
HETATM    1  O   UNL     1      32.947  69.710  24.137  1.00  0.00    -0.358 OA
HETATM    2  H   UNL     1      32.124  69.841  24.568  1.00  0.00     0.217 HD
ENDROOT
BRANCH   1   3
HETATM    3  C   UNL     1      33.298  70.504  23.086  1.00  0.00     0.099 A 
HETATM    4  C   UNL     1      33.017  71.869  23.134  1.00  0.00     0.050 A 
HETATM    5  C   UNL     1      33.375  72.672  22.063  1.00  0.00    -0.033 A 
HETATM    6  C   UNL     1      34.006  72.148  20.947  1.00  0.00     0.014 A 
HETATM    7  C   UNL     1      34.287  70.782  20.900  1.00  0.00     0.040 A 
HETATM    8  C   UNL     1      33.933  69.961  21.970  1.00  0.00     0.098 A 
BRANCH   5   9
HETATM    9  C   UNL     1      33.079  74.115  22.113  1.00  0.00     0.012 C 
HETATM   10  C   UNL     1      32.406  74.807  21.163  1.00  0.00     0.012 C 
BRANCH  10  11
HETATM   11  C   UNL     1      32.097  76.227  21.221  1.00  0.00    -0.036 A 
HETATM   12  C   UNL     1      32.599  77.008  22.260  1.00  0.00     0.011 A 
HETATM   13  C   UNL     1      32.303  78.371  22.317  1.00  0.00     0.001 A 
HETATM   14  C   UNL     1      31.503  78.950  21.332  1.00  0.00     0.000 A 
HETATM   15  C   UNL     1      31.000  78.169  20.291  1.00  0.00     0.001 A 
HETATM   16  C   UNL     1      31.297  76.807  20.236  1.00  0.00     0.011 A 
ENDBRANCH  10  11
ENDBRANCH   5   9
BRANCH   8  17
HETATM   17  O   UNL     1      34.211  68.628  21.911  1.00  0.00    -0.358 OA
HETATM   18  H   UNL     1      33.903  68.117  21.188  1.00  0.00     0.217 HD
ENDBRANCH   8  17
ENDBRANCH   1   3
TORSDOF 4
ENDMDL
MODEL 3
REMARK VINA RESULT:      -7.3      3.786      5.632
REMARK  4 active torsions:
REMARK  status: ('A' for Active; 'I' for Inactive)
REMARK    1  A    between atoms: O_1  and  C_9 
REMARK    2  A    between atoms: O_2  and  C_10 
REMARK    3  A    between atoms: C_3  and  C_5 
REMARK    4  A    between atoms: C_4  and  C_8 
ROOT
HETATM    1  O   UNL     1      30.979  78.799  22.828  1.00  0.00    -0.358 OA
HETATM    2  H   UNL     1      30.581  79.596  22.535  1.00  0.00     0.217 HD
ENDROOT
BRANCH   1   3
HETATM    3  C   UNL     1      31.190  77.780  21.948  1.00  0.00     0.099 A 
HETATM    4  C   UNL     1      31.019  78.007  20.583  1.00  0.00     0.050 A 
HETATM    5  C   UNL     1      31.234  76.968  19.691  1.00  0.00    -0.033 A 
HETATM    6  C   UNL     1      31.615  75.710  20.127  1.00  0.00     0.014 A 
HETATM    7  C   UNL     1      31.787  75.484  21.494  1.00  0.00     0.040 A 
HETATM    8  C   UNL     1      31.574  76.519  22.403  1.00  0.00     0.098 A 
BRANCH   5   9
HETATM    9  C   UNL     1      31.054  77.207  18.248  1.00  0.00     0.012 C 
HETATM   10  C   UNL     1      30.771  76.254  17.329  1.00  0.00     0.012 C 
BRANCH  10  11
HETATM   11  C   UNL     1      30.574  76.493  15.907  1.00  0.00    -0.036 A 
HETATM   12  C   UNL     1      29.447  77.182  15.465  1.00  0.00     0.011 A 
HETATM   13  C   UNL     1      29.258  77.411  14.102  1.00  0.00     0.001 A 
HETATM   14  C   UNL     1      30.199  76.950  13.182  1.00  0.00     0.000 A 
HETATM   15  C   UNL     1      31.328  76.260  13.623  1.00  0.00     0.001 A 
HETATM   16  C   UNL     1      31.516  76.032  14.987  1.00  0.00     0.011 A 
ENDBRANCH  10  11
ENDBRANCH   5   9
BRANCH   8  17
HETATM   17  O   UNL     1      31.743  76.285  23.735  1.00  0.00    -0.358 OA
HETATM   18  H   UNL     1      32.409  76.742  24.210  1.00  0.00     0.217 HD
ENDBRANCH   8  17
ENDBRANCH   1   3
TORSDOF 4
ENDMDL
MODEL 4
REMARK VINA RESULT:      -7.1      3.168      6.180
REMARK  4 active torsions:
REMARK  status: ('A' for Active; 'I' for Inactive)
REMARK    1  A    between atoms: O_1  and  C_9 
REMARK    2  A    between atoms: O_2  and  C_10 
REMARK    3  A    between atoms: C_3  and  C_5 
REMARK    4  A    between atoms: C_4  and  C_8 
ROOT
HETATM    1  O   UNL     1      31.476  75.938  24.053  1.00  0.00    -0.358 OA
HETATM    2  H   UNL     1      30.685  76.174  24.499  1.00  0.00     0.217 HD
ENDROOT
BRANCH   1   3
HETATM    3  C   UNL     1      31.615  76.206  22.725  1.00  0.00     0.099 A 
HETATM    4  C   UNL     1      32.333  75.323  21.919  1.00  0.00     0.050 A 
HETATM    5  C   UNL     1      32.472  75.599  20.568  1.00  0.00    -0.033 A 
HETATM    6  C   UNL     1      31.914  76.734  20.002  1.00  0.00     0.014 A 
HETATM    7  C   UNL     1      31.196  77.617  20.809  1.00  0.00     0.040 A 
HETATM    8  C   UNL     1      31.047  77.353  22.170  1.00  0.00     0.098 A 
BRANCH   5   9
HETATM    9  C   UNL     1      33.230  74.666  19.715  1.00  0.00     0.012 C 
HETATM   10  C   UNL     1      34.009  73.655  20.167  1.00  0.00     0.012 C 
BRANCH  10  11
HETATM   11  C   UNL     1      34.742  72.721  19.324  1.00  0.00    -0.036 A 
HETATM   12  C   UNL     1      35.988  72.246  19.729  1.00  0.00     0.011 A 
HETATM   13  C   UNL     1      36.690  71.351  18.921  1.00  0.00     0.001 A 
HETATM   14  C   UNL     1      36.143  70.931  17.709  1.00  0.00     0.000 A 
HETATM   15  C   UNL     1      34.896  71.406  17.304  1.00  0.00     0.001 A 
HETATM   16  C   UNL     1      34.194  72.301  18.112  1.00  0.00     0.011 A 
ENDBRANCH  10  11
ENDBRANCH   5   9
BRANCH   8  17
HETATM   17  O   UNL     1      30.345  78.224  22.947  1.00  0.00    -0.358 OA
HETATM   18  H   UNL     1      30.673  79.090  23.094  1.00  0.00     0.217 HD
ENDBRANCH   8  17
ENDBRANCH   1   3
TORSDOF 4
ENDMDL
MODEL 5
REMARK VINA RESULT:      -7.1      3.589      6.994
REMARK  4 active torsions:
REMARK  status: ('A' for Active; 'I' for Inactive)
REMARK    1  A    between atoms: O_1  and  C_9 
REMARK    2  A    between atoms: O_2  and  C_10 
REMARK    3  A    between atoms: C_3  and  C_5 
REMARK    4  A    between atoms: C_4  and  C_8 
ROOT
HETATM    1  O   UNL     1      33.305  79.443  23.460  1.00  0.00    -0.358 OA
HETATM    2  H   UNL     1      33.049  79.440  24.362  1.00  0.00     0.217 HD
ENDROOT
BRANCH   1   3
HETATM    3  C   UNL     1      32.610  78.702  22.552  1.00  0.00     0.099 A 
HETATM    4  C   UNL     1      32.804  77.322  22.501  1.00  0.00     0.050 A 
HETATM    5  C   UNL     1      32.096  76.572  21.576  1.00  0.00    -0.033 A 
HETATM    6  C   UNL     1      31.201  77.164  20.701  1.00  0.00     0.014 A 
HETATM    7  C   UNL     1      31.007  78.545  20.752  1.00  0.00     0.040 A 
HETATM    8  C   UNL     1      31.712  79.313  21.677  1.00  0.00     0.098 A 
BRANCH   5   9
HETATM    9  C   UNL     1      32.300  75.113  21.522  1.00  0.00     0.012 C 
HETATM   10  C   UNL     1      33.391  74.460  21.987  1.00  0.00     0.012 C 
BRANCH  10  11
HETATM   11  C   UNL     1      33.583  73.018  21.952  1.00  0.00    -0.036 A 
HETATM   12  C   UNL     1      34.321  72.437  20.923  1.00  0.00     0.011 A 
HETATM   13  C   UNL     1      34.506  71.055  20.889  1.00  0.00     0.001 A 
HETATM   14  C   UNL     1      33.951  70.254  21.887  1.00  0.00     0.000 A 
HETATM   15  C   UNL     1      33.212  70.835  22.918  1.00  0.00     0.001 A 
HETATM   16  C   UNL     1      33.029  72.217  22.951  1.00  0.00     0.011 A 
ENDBRANCH  10  11
ENDBRANCH   5   9
BRANCH   8  17
HETATM   17  O   UNL     1      31.516  80.661  21.716  1.00  0.00    -0.358 OA
HETATM   18  H   UNL     1      32.232  81.233  21.911  1.00  0.00     0.217 HD
ENDBRANCH   8  17
ENDBRANCH   1   3
TORSDOF 4
ENDMDL
MODEL 6
REMARK VINA RESULT:      -7.0      3.517      5.490
REMARK  4 active torsions:
REMARK  status: ('A' for Active; 'I' for Inactive)
REMARK    1  A    between atoms: O_1  and  C_9 
REMARK    2  A    between atoms: O_2  and  C_10 
REMARK    3  A    between atoms: C_3  and  C_5 
REMARK    4  A    between atoms: C_4  and  C_8 
ROOT
HETATM    1  O   UNL     1      32.138  74.229  21.861  1.00  0.00    -0.358 OA
HETATM    2  H   UNL     1      31.482  73.576  22.010  1.00  0.00     0.217 HD
ENDROOT
BRANCH   1   3
HETATM    3  C   UNL     1      31.774  75.481  21.464  1.00  0.00     0.099 A 
HETATM    4  C   UNL     1      31.533  75.729  20.113  1.00  0.00     0.050 A 
HETATM    5  C   UNL     1      31.164  77.003  19.713  1.00  0.00    -0.033 A 
HETATM    6  C   UNL     1      31.030  78.036  20.626  1.00  0.00     0.014 A 
HETATM    7  C   UNL     1      31.271  77.788  21.978  1.00  0.00     0.040 A 
HETATM    8  C   UNL     1      31.643  76.510  22.396  1.00  0.00     0.098 A 
BRANCH   5   9
HETATM    9  C   UNL     1      30.908  77.265  18.285  1.00  0.00     0.012 C 
HETATM   10  C   UNL     1      30.874  76.323  17.313  1.00  0.00     0.012 C 
BRANCH  10  11
HETATM   11  C   UNL     1      30.601  76.579  15.906  1.00  0.00    -0.036 A 
HETATM   12  C   UNL     1      29.445  77.263  15.533  1.00  0.00     0.011 A 
HETATM   13  C   UNL     1      29.184  77.509  14.185  1.00  0.00     0.001 A 
HETATM   14  C   UNL     1      30.080  77.071  13.211  1.00  0.00     0.000 A 
HETATM   15  C   UNL     1      31.238  76.387  13.584  1.00  0.00     0.001 A 
HETATM   16  C   UNL     1      31.498  76.141  14.932  1.00  0.00     0.011 A 
ENDBRANCH  10  11
ENDBRANCH   5   9
BRANCH   8  17
HETATM   17  O   UNL     1      31.878  76.281  23.718  1.00  0.00    -0.358 OA
HETATM   18  H   UNL     1      31.693  76.949  24.349  1.00  0.00     0.217 HD
ENDBRANCH   8  17
ENDBRANCH   1   3
TORSDOF 4
ENDMDL
MODEL 7
REMARK VINA RESULT:      -7.0      3.492      5.388
REMARK  4 active torsions:
REMARK  status: ('A' for Active; 'I' for Inactive)
REMARK    1  A    between atoms: O_1  and  C_9 
REMARK    2  A    between atoms: O_2  and  C_10 
REMARK    3  A    between atoms: C_3  and  C_5 
REMARK    4  A    between atoms: C_4  and  C_8 
ROOT
HETATM    1  O   UNL     1      32.016  74.154  21.945  1.00  0.00    -0.358 OA
HETATM    2  H   UNL     1      31.354  73.494  22.011  1.00  0.00     0.217 HD
ENDROOT
BRANCH   1   3
HETATM    3  C   UNL     1      31.686  75.409  21.529  1.00  0.00     0.099 A 
HETATM    4  C   UNL     1      31.538  75.662  20.165  1.00  0.00     0.050 A 
HETATM    5  C   UNL     1      31.203  76.939  19.746  1.00  0.00    -0.033 A 
HETATM    6  C   UNL     1      31.012  77.970  20.651  1.00  0.00     0.014 A 
HETATM    7  C   UNL     1      31.160  77.716  22.015  1.00  0.00     0.040 A 
HETATM    8  C   UNL     1      31.496  76.436  22.453  1.00  0.00     0.098 A 
BRANCH   5   9
HETATM    9  C   UNL     1      31.046  77.208  18.305  1.00  0.00     0.012 C 
HETATM   10  C   UNL     1      30.762  76.275  17.364  1.00  0.00     0.012 C 
BRANCH  10  11
HETATM   11  C   UNL     1      30.588  76.543  15.945  1.00  0.00    -0.036 A 
HETATM   12  C   UNL     1      31.600  76.219  15.044  1.00  0.00     0.011 A 
HETATM   13  C   UNL     1      31.433  76.475  13.683  1.00  0.00     0.001 A 
HETATM   14  C   UNL     1      30.251  77.057  13.224  1.00  0.00     0.000 A 
HETATM   15  C   UNL     1      29.237  77.382  14.126  1.00  0.00     0.001 A 
HETATM   16  C   UNL     1      29.405  77.124  15.486  1.00  0.00     0.011 A 
ENDBRANCH  10  11
ENDBRANCH   5   9
BRANCH   8  17
HETATM   17  O   UNL     1      31.640  76.202  23.788  1.00  0.00    -0.358 OA
HETATM   18  H   UNL     1      32.136  75.463  24.083  1.00  0.00     0.217 HD
ENDBRANCH   8  17
ENDBRANCH   1   3
TORSDOF 4
ENDMDL
MODEL 8
REMARK VINA RESULT:      -6.9      1.680      2.860
REMARK  4 active torsions:
REMARK  status: ('A' for Active; 'I' for Inactive)
REMARK    1  A    between atoms: O_1  and  C_9 
REMARK    2  A    between atoms: O_2  and  C_10 
REMARK    3  A    between atoms: C_3  and  C_5 
REMARK    4  A    between atoms: C_4  and  C_8 
ROOT
HETATM    1  O   UNL     1      31.047  72.471  23.423  1.00  0.00    -0.358 OA
HETATM    2  H   UNL     1      30.125  72.411  23.266  1.00  0.00     0.217 HD
ENDROOT
BRANCH   1   3
HETATM    3  C   UNL     1      31.877  72.932  22.446  1.00  0.00     0.099 A 
HETATM    4  C   UNL     1      31.331  73.524  21.307  1.00  0.00     0.050 A 
HETATM    5  C   UNL     1      32.177  73.992  20.314  1.00  0.00    -0.033 A 
HETATM    6  C   UNL     1      33.553  73.883  20.429  1.00  0.00     0.014 A 
HETATM    7  C   UNL     1      34.099  73.291  21.569  1.00  0.00     0.040 A 
HETATM    8  C   UNL     1      33.260  72.816  22.576  1.00  0.00     0.098 A 
BRANCH   5   9
HETATM    9  C   UNL     1      31.601  74.618  19.111  1.00  0.00     0.012 C 
HETATM   10  C   UNL     1      31.483  75.952  18.907  1.00  0.00     0.012 C 
BRANCH  10  11
HETATM   11  C   UNL     1      30.932  76.571  17.710  1.00  0.00    -0.036 A 
HETATM   12  C   UNL     1      30.615  77.928  17.710  1.00  0.00     0.011 A 
HETATM   13  C   UNL     1      30.088  78.521  16.562  1.00  0.00     0.001 A 
HETATM   14  C   UNL     1      29.878  77.755  15.416  1.00  0.00     0.000 A 
HETATM   15  C   UNL     1      30.196  76.397  15.416  1.00  0.00     0.001 A 
HETATM   16  C   UNL     1      30.724  75.804  16.563  1.00  0.00     0.011 A 
ENDBRANCH  10  11
ENDBRANCH   5   9
BRANCH   8  17
HETATM   17  O   UNL     1      33.805  72.238  23.683  1.00  0.00    -0.358 OA
HETATM   18  H   UNL     1      33.526  71.384  23.951  1.00  0.00     0.217 HD
ENDBRANCH   8  17
ENDBRANCH   1   3
TORSDOF 4
ENDMDL
MODEL 9
REMARK VINA RESULT:      -6.8      4.065      5.983
REMARK  4 active torsions:
REMARK  status: ('A' for Active; 'I' for Inactive)
REMARK    1  A    between atoms: O_1  and  C_9 
REMARK    2  A    between atoms: O_2  and  C_10 
REMARK    3  A    between atoms: C_3  and  C_5 
REMARK    4  A    between atoms: C_4  and  C_8 
ROOT
HETATM    1  O   UNL     1      31.478  76.221  23.555  1.00  0.00    -0.358 OA
HETATM    2  H   UNL     1      32.185  75.635  23.744  1.00  0.00     0.217 HD
ENDROOT
BRANCH   1   3
HETATM    3  C   UNL     1      31.350  76.753  22.307  1.00  0.00     0.099 A 
HETATM    4  C   UNL     1      31.769  76.015  21.201  1.00  0.00     0.050 A 
HETATM    5  C   UNL     1      31.638  76.559  19.934  1.00  0.00    -0.033 A 
HETATM    6  C   UNL     1      31.100  77.821  19.742  1.00  0.00     0.014 A 
HETATM    7  C   UNL     1      30.681  78.560  20.850  1.00  0.00     0.040 A 
HETATM    8  C   UNL     1      30.806  78.025  22.131  1.00  0.00     0.098 A 
BRANCH   5   9
HETATM    9  C   UNL     1      32.080  75.779  18.764  1.00  0.00     0.012 C 
HETATM   10  C   UNL     1      31.772  76.063  17.476  1.00  0.00     0.012 C 
BRANCH  10  11
HETATM   11  C   UNL     1      32.225  75.304  16.319  1.00  0.00    -0.036 A 
HETATM   12  C   UNL     1      32.286  75.912  15.067  1.00  0.00     0.011 A 
HETATM   13  C   UNL     1      32.721  75.185  13.958  1.00  0.00     0.001 A 
HETATM   14  C   UNL     1      33.093  73.849  14.104  1.00  0.00     0.000 A 
HETATM   15  C   UNL     1      33.033  73.240  15.358  1.00  0.00     0.001 A 
HETATM   16  C   UNL     1      32.599  73.968  16.466  1.00  0.00     0.011 A 
ENDBRANCH  10  11
ENDBRANCH   5   9
BRANCH   8  17
HETATM   17  O   UNL     1      30.395  78.757  23.204  1.00  0.00    -0.358 OA
HETATM   18  H   UNL     1      30.316  78.351  24.046  1.00  0.00     0.217 HD
ENDBRANCH   8  17
ENDBRANCH   1   3
TORSDOF 4
ENDMDL
