MODEL 1
REMARK VINA RESULT:      -7.4      0.000      0.000
REMARK  4 active torsions:
REMARK  status: ('A' for Active; 'I' for Inactive)
REMARK    1  A    between atoms: O_1  and  C_9 
REMARK    2  A    between atoms: O_2  and  C_10 
REMARK    3  A    between atoms: C_3  and  C_5 
REMARK    4  A    between atoms: C_4  and  C_8 
ROOT
HETATM    1  O   UNL     1      33.818  71.813  24.724  1.00  0.00    -0.358 OA
HETATM    2  H   UNL     1      34.554  71.485  25.203  1.00  0.00     0.217 HD
ENDROOT
BRANCH   1   3
HETATM    3  C   UNL     1      33.713  71.571  23.387  1.00  0.00     0.099 A 
HETATM    4  C   UNL     1      33.262  72.583  22.541  1.00  0.00     0.050 A 
HETATM    5  C   UNL     1      33.155  72.333  21.182  1.00  0.00    -0.033 A 
HETATM    6  C   UNL     1      33.486  71.099  20.647  1.00  0.00     0.014 A 
HETATM    7  C   UNL     1      33.938  70.086  21.494  1.00  0.00     0.040 A 
HETATM    8  C   UNL     1      34.050  70.323  22.864  1.00  0.00     0.098 A 
BRANCH   5   9
HETATM    9  C   UNL     1      32.680  73.403  20.287  1.00  0.00     0.012 C 
HETATM   10  C   UNL     1      32.075  74.546  20.690  1.00  0.00     0.012 C 
BRANCH  10  11
HETATM   11  C   UNL     1      31.624  75.611  19.807  1.00  0.00    -0.036 A 
HETATM   12  C   UNL     1      31.351  76.877  20.323  1.00  0.00     0.011 A 
HETATM   13  C   UNL     1      30.919  77.898  19.477  1.00  0.00     0.001 A 
HETATM   14  C   UNL     1      30.760  77.652  18.113  1.00  0.00     0.000 A 
HETATM   15  C   UNL     1      31.033  76.385  17.596  1.00  0.00     0.001 A 
HETATM   16  C   UNL     1      31.466  75.365  18.443  1.00  0.00     0.011 A 
ENDBRANCH  10  11
ENDBRANCH   5   9
BRANCH   8  17
HETATM   17  O   UNL     1      34.490  69.325  23.681  1.00  0.00    -0.358 OA
HETATM   18  H   UNL     1      35.299  69.422  24.145  1.00  0.00     0.217 HD
ENDBRANCH   8  17
ENDBRANCH   1   3
TORSDOF 4
ENDMDL
MODEL 2
REMARK VINA RESULT:      -7.3      3.811      5.596
REMARK  4 active torsions:
REMARK  status: ('A' for Active; 'I' for Inactive)
REMARK    1  A    between atoms: O_1  and  C_9 
REMARK    2  A    between atoms: O_2  and  C_10 
REMARK    3  A    between atoms: C_3  and  C_5 
REMARK    4  A    between atoms: C_4  and  C_8 
ROOT
HETATM    1  O   UNL     1      31.074  78.832  22.867  1.00  0.00    -0.358 OA
HETATM    2  H   UNL     1      30.665  78.677  23.696  1.00  0.00     0.217 HD
ENDROOT
BRANCH   1   3
HETATM    3  C   UNL     1      31.220  77.808  21.979  1.00  0.00     0.099 A 
HETATM    4  C   UNL     1      31.021  78.047  20.620  1.00  0.00     0.050 A 
HETATM    5  C   UNL     1      31.169  77.004  19.720  1.00  0.00    -0.033 A 
HETATM    6  C   UNL     1      31.510  75.730  20.141  1.00  0.00     0.014 A 
HETATM    7  C   UNL     1      31.709  75.491  21.502  1.00  0.00     0.040 A 
HETATM    8  C   UNL     1      31.564  76.531  22.420  1.00  0.00     0.098 A 
BRANCH   5   9
HETATM    9  C   UNL     1      30.960  77.256  18.282  1.00  0.00     0.012 C 
HETATM   10  C   UNL     1      30.836  76.299  17.333  1.00  0.00     0.012 C 
BRANCH  10  11
HETATM   11  C   UNL     1      30.609  76.547  15.917  1.00  0.00    -0.036 A 
HETATM   12  C   UNL     1      29.449  77.196  15.499  1.00  0.00     0.011 A 
HETATM   13  C   UNL     1      29.232  77.434  14.142  1.00  0.00     0.001 A 
HETATM   14  C   UNL     1      30.178  77.023  13.203  1.00  0.00     0.000 A 
HETATM   15  C   UNL     1      31.339  76.373  13.620  1.00  0.00     0.001 A 
HETATM   16  C   UNL     1      31.556  76.136  14.978  1.00  0.00     0.011 A 
ENDBRANCH  10  11
ENDBRANCH   5   9
BRANCH   8  17
HETATM   17  O   UNL     1      31.759  76.285  23.745  1.00  0.00    -0.358 OA
HETATM   18  H   UNL     1      31.031  76.065  24.293  1.00  0.00     0.217 HD
ENDBRANCH   8  17
ENDBRANCH   1   3
TORSDOF 4
ENDMDL
MODEL 3
REMARK VINA RESULT:      -7.3      1.346      2.141
REMARK  4 active torsions:
REMARK  status: ('A' for Active; 'I' for Inactive)
REMARK    1  A    between atoms: O_1  and  C_9 
REMARK    2  A    between atoms: O_2  and  C_10 
REMARK    3  A    between atoms: C_3  and  C_5 
REMARK    4  A    between atoms: C_4  and  C_8 
ROOT
HETATM    1  O   UNL     1      32.992  69.682  24.210  1.00  0.00    -0.358 OA
HETATM    2  H   UNL     1      32.262  69.094  24.187  1.00  0.00     0.217 HD
ENDROOT
BRANCH   1   3
HETATM    3  C   UNL     1      33.314  70.411  23.105  1.00  0.00     0.099 A 
HETATM    4  C   UNL     1      33.059  71.783  23.091  1.00  0.00     0.050 A 
HETATM    5  C   UNL     1      33.387  72.521  21.966  1.00  0.00    -0.033 A 
HETATM    6  C   UNL     1      33.962  71.926  20.854  1.00  0.00     0.014 A 
HETATM    7  C   UNL     1      34.216  70.554  20.869  1.00  0.00     0.040 A 
HETATM    8  C   UNL     1      33.892  69.798  21.994  1.00  0.00     0.098 A 
BRANCH   5   9
HETATM    9  C   UNL     1      33.120  73.970  21.950  1.00  0.00     0.012 C 
HETATM   10  C   UNL     1      32.326  74.607  21.057  1.00  0.00     0.012 C 
BRANCH  10  11
HETATM   11  C   UNL     1      32.046  76.036  21.054  1.00  0.00    -0.036 A 
HETATM   12  C   UNL     1      31.375  76.613  19.977  1.00  0.00     0.011 A 
HETATM   13  C   UNL     1      31.107  77.982  19.974  1.00  0.00     0.001 A 
HETATM   14  C   UNL     1      31.510  78.772  21.050  1.00  0.00     0.000 A 
HETATM   15  C   UNL     1      32.180  78.195  22.129  1.00  0.00     0.001 A 
HETATM   16  C   UNL     1      32.448  76.826  22.131  1.00  0.00     0.011 A 
ENDBRANCH  10  11
ENDBRANCH   5   9
BRANCH   8  17
HETATM   17  O   UNL     1      34.143  68.459  21.996  1.00  0.00    -0.358 OA
HETATM   18  H   UNL     1      33.727  67.904  22.627  1.00  0.00     0.217 HD
ENDBRANCH   8  17
ENDBRANCH   1   3
TORSDOF 4
ENDMDL
MODEL 4
REMARK VINA RESULT:      -7.3      3.808      5.678
REMARK  4 active torsions:
REMARK  status: ('A' for Active; 'I' for Inactive)
REMARK    1  A    between atoms: O_1  and  C_9 
REMARK    2  A    between atoms: O_2  and  C_10 
REMARK    3  A    between atoms: C_3  and  C_5 
REMARK    4  A    between atoms: C_4  and  C_8 
ROOT
HETATM    1  O   UNL     1      31.132  78.845  22.807  1.00  0.00    -0.358 OA
HETATM    2  H   UNL     1      30.337  79.342  22.833  1.00  0.00     0.217 HD
ENDROOT
BRANCH   1   3
HETATM    3  C   UNL     1      31.263  77.817  21.923  1.00  0.00     0.099 A 
HETATM    4  C   UNL     1      31.048  78.049  20.565  1.00  0.00     0.050 A 
HETATM    5  C   UNL     1      31.182  77.001  19.669  1.00  0.00    -0.033 A 
HETATM    6  C   UNL     1      31.524  75.727  20.093  1.00  0.00     0.014 A 
HETATM    7  C   UNL     1      31.739  75.495  21.453  1.00  0.00     0.040 A 
HETATM    8  C   UNL     1      31.609  76.540  22.367  1.00  0.00     0.098 A 
BRANCH   5   9
HETATM    9  C   UNL     1      30.956  77.245  18.233  1.00  0.00     0.012 C 
HETATM   10  C   UNL     1      30.797  76.283  17.293  1.00  0.00     0.012 C 
BRANCH  10  11
HETATM   11  C   UNL     1      30.554  76.525  15.879  1.00  0.00    -0.036 A 
HETATM   12  C   UNL     1      31.457  76.057  14.926  1.00  0.00     0.011 A 
HETATM   13  C   UNL     1      31.224  76.288  13.570  1.00  0.00     0.001 A 
HETATM   14  C   UNL     1      30.086  76.988  13.169  1.00  0.00     0.000 A 
HETATM   15  C   UNL     1      29.182  77.456  14.122  1.00  0.00     0.001 A 
HETATM   16  C   UNL     1      29.415  77.224  15.478  1.00  0.00     0.011 A 
ENDBRANCH  10  11
ENDBRANCH   5   9
BRANCH   8  17
HETATM   17  O   UNL     1      31.819  76.301  23.691  1.00  0.00    -0.358 OA
HETATM   18  H   UNL     1      31.142  76.483  24.314  1.00  0.00     0.217 HD
ENDBRANCH   8  17
ENDBRANCH   1   3
TORSDOF 4
ENDMDL
MODEL 5
REMARK VINA RESULT:      -7.1      3.185      6.127
REMARK  4 active torsions:
REMARK  status: ('A' for Active; 'I' for Inactive)
REMARK    1  A    between atoms: O_1  and  C_9 
REMARK    2  A    between atoms: O_2  and  C_10 
REMARK    3  A    between atoms: C_3  and  C_5 
REMARK    4  A    between atoms: C_4  and  C_8 
ROOT
HETATM    1  O   UNL     1      31.476  75.939  24.052  1.00  0.00    -0.358 OA
HETATM    2  H   UNL     1      32.221  75.996  24.618  1.00  0.00     0.217 HD
ENDROOT
BRANCH   1   3
HETATM    3  C   UNL     1      31.611  76.202  22.722  1.00  0.00     0.099 A 
HETATM    4  C   UNL     1      32.317  75.311  21.915  1.00  0.00     0.050 A 
HETATM    5  C   UNL     1      32.452  75.583  20.563  1.00  0.00    -0.033 A 
HETATM    6  C   UNL     1      31.901  76.720  19.996  1.00  0.00     0.014 A 
HETATM    7  C   UNL     1      31.194  77.612  20.804  1.00  0.00     0.040 A 
HETATM    8  C   UNL     1      31.050  77.352  22.167  1.00  0.00     0.098 A 
BRANCH   5   9
HETATM    9  C   UNL     1      33.198  74.641  19.709  1.00  0.00     0.012 C 
HETATM   10  C   UNL     1      34.021  73.664  20.158  1.00  0.00     0.012 C 
BRANCH  10  11
HETATM   11  C   UNL     1      34.742  72.721  19.316  1.00  0.00    -0.036 A 
HETATM   12  C   UNL     1      35.980  72.228  19.722  1.00  0.00     0.011 A 
HETATM   13  C   UNL     1      36.671  71.324  18.914  1.00  0.00     0.001 A 
HETATM   14  C   UNL     1      36.121  70.914  17.700  1.00  0.00     0.000 A 
HETATM   15  C   UNL     1      34.881  71.408  17.293  1.00  0.00     0.001 A 
HETATM   16  C   UNL     1      34.191  72.311  18.101  1.00  0.00     0.011 A 
ENDBRANCH  10  11
ENDBRANCH   5   9
BRANCH   8  17
HETATM   17  O   UNL     1      30.359  78.231  22.945  1.00  0.00    -0.358 OA
HETATM   18  H   UNL     1      30.627  79.128  22.990  1.00  0.00     0.217 HD
ENDBRANCH   8  17
ENDBRANCH   1   3
TORSDOF 4
ENDMDL
MODEL 6
REMARK VINA RESULT:      -7.0      3.453      5.329
REMARK  4 active torsions:
REMARK  status: ('A' for Active; 'I' for Inactive)
REMARK    1  A    between atoms: O_1  and  C_9 
REMARK    2  A    between atoms: O_2  and  C_10 
REMARK    3  A    between atoms: C_3  and  C_5 
REMARK    4  A    between atoms: C_4  and  C_8 
ROOT
HETATM    1  O   UNL     1      32.038  74.104  22.015  1.00  0.00    -0.358 OA
HETATM    2  H   UNL     1      31.878  73.848  22.902  1.00  0.00     0.217 HD
ENDROOT
BRANCH   1   3
HETATM    3  C   UNL     1      31.719  75.363  21.601  1.00  0.00     0.099 A 
HETATM    4  C   UNL     1      31.554  75.615  20.239  1.00  0.00     0.050 A 
HETATM    5  C   UNL     1      31.231  76.896  19.822  1.00  0.00    -0.033 A 
HETATM    6  C   UNL     1      31.069  77.931  20.728  1.00  0.00     0.014 A 
HETATM    7  C   UNL     1      31.235  77.678  22.091  1.00  0.00     0.040 A 
HETATM    8  C   UNL     1      31.560  76.394  22.526  1.00  0.00     0.098 A 
BRANCH   5   9
HETATM    9  C   UNL     1      31.055  77.164  18.383  1.00  0.00     0.012 C 
HETATM   10  C   UNL     1      30.870  76.219  17.431  1.00  0.00     0.012 C 
BRANCH  10  11
HETATM   11  C   UNL     1      30.676  76.484  16.013  1.00  0.00    -0.036 A 
HETATM   12  C   UNL     1      29.563  77.205  15.585  1.00  0.00     0.011 A 
HETATM   13  C   UNL     1      29.377  77.460  14.226  1.00  0.00     0.001 A 
HETATM   14  C   UNL     1      30.306  76.992  13.296  1.00  0.00     0.000 A 
HETATM   15  C   UNL     1      31.421  76.271  13.725  1.00  0.00     0.001 A 
HETATM   16  C   UNL     1      31.606  76.017  15.084  1.00  0.00     0.011 A 
ENDBRANCH  10  11
ENDBRANCH   5   9
BRANCH   8  17
HETATM   17  O   UNL     1      31.721  76.160  23.858  1.00  0.00    -0.358 OA
HETATM   18  H   UNL     1      31.974  75.308  24.157  1.00  0.00     0.217 HD
ENDBRANCH   8  17
ENDBRANCH   1   3
TORSDOF 4
ENDMDL
MODEL 7
REMARK VINA RESULT:      -6.9      1.734      2.682
REMARK  4 active torsions:
REMARK  status: ('A' for Active; 'I' for Inactive)
REMARK    1  A    between atoms: O_1  and  C_9 
REMARK    2  A    between atoms: O_2  and  C_10 
REMARK    3  A    between atoms: C_3  and  C_5 
REMARK    4  A    between atoms: C_4  and  C_8 
ROOT
HETATM    1  O   UNL     1      31.182  72.446  23.442  1.00  0.00    -0.358 OA
HETATM    2  H   UNL     1      30.420  72.917  23.718  1.00  0.00     0.217 HD
ENDROOT
BRANCH   1   3
HETATM    3  C   UNL     1      31.959  72.939  22.437  1.00  0.00     0.099 A 
HETATM    4  C   UNL     1      31.352  73.509  21.318  1.00  0.00     0.050 A 
HETATM    5  C   UNL     1      32.146  74.009  20.298  1.00  0.00    -0.033 A 
HETATM    6  C   UNL     1      33.528  73.954  20.366  1.00  0.00     0.014 A 
HETATM    7  C   UNL     1      34.135  73.383  21.486  1.00  0.00     0.040 A 
HETATM    8  C   UNL     1      33.350  72.876  22.520  1.00  0.00     0.098 A 
BRANCH   5   9
HETATM    9  C   UNL     1      31.506  74.613  19.116  1.00  0.00     0.012 C 
HETATM   10  C   UNL     1      31.526  75.931  18.806  1.00  0.00     0.012 C 
BRANCH  10  11
HETATM   11  C   UNL     1      30.911  76.524  17.628  1.00  0.00    -0.036 A 
HETATM   12  C   UNL     1      30.605  77.884  17.611  1.00  0.00     0.011 A 
HETATM   13  C   UNL     1      30.015  78.453  16.481  1.00  0.00     0.001 A 
HETATM   14  C   UNL     1      29.732  77.660  15.369  1.00  0.00     0.000 A 
HETATM   15  C   UNL     1      30.039  76.299  15.386  1.00  0.00     0.001 A 
HETATM   16  C   UNL     1      30.629  75.731  16.515  1.00  0.00     0.011 A 
ENDBRANCH  10  11
ENDBRANCH   5   9
BRANCH   8  17
HETATM   17  O   UNL     1      33.954  72.320  23.608  1.00  0.00    -0.358 OA
HETATM   18  H   UNL     1      33.778  71.428  23.836  1.00  0.00     0.217 HD
ENDBRANCH   8  17
ENDBRANCH   1   3
TORSDOF 4
ENDMDL
MODEL 8
REMARK VINA RESULT:      -6.8      3.679      7.044
REMARK  4 active torsions:
REMARK  status: ('A' for Active; 'I' for Inactive)
REMARK    1  A    between atoms: O_1  and  C_9 
REMARK    2  A    between atoms: O_2  and  C_10 
REMARK    3  A    between atoms: C_3  and  C_5 
REMARK    4  A    between atoms: C_4  and  C_8 
ROOT
HETATM    1  O   UNL     1      30.695  78.187  19.036  1.00  0.00    -0.358 OA
HETATM    2  H   UNL     1      30.529  79.109  19.023  1.00  0.00     0.217 HD
ENDROOT
BRANCH   1   3
HETATM    3  C   UNL     1      31.316  77.621  20.109  1.00  0.00     0.099 A 
HETATM    4  C   UNL     1      31.503  76.239  20.142  1.00  0.00     0.050 A 
HETATM    5  C   UNL     1      32.134  75.667  21.235  1.00  0.00    -0.033 A 
HETATM    6  C   UNL     1      32.583  76.439  22.295  1.00  0.00     0.014 A 
HETATM    7  C   UNL     1      32.396  77.821  22.261  1.00  0.00     0.040 A 
HETATM    8  C   UNL     1      31.763  78.411  21.167  1.00  0.00     0.098 A 
BRANCH   5   9
HETATM    9  C   UNL     1      32.333  74.207  21.271  1.00  0.00     0.012 C 
HETATM   10  C   UNL     1      33.314  73.571  21.953  1.00  0.00     0.012 C 
BRANCH  10  11
HETATM   11  C   UNL     1      33.499  72.128  22.005  1.00  0.00    -0.036 A 
HETATM   12  C   UNL     1      33.404  71.456  23.222  1.00  0.00     0.011 A 
HETATM   13  C   UNL     1      33.580  70.073  23.272  1.00  0.00     0.001 A 
HETATM   14  C   UNL     1      33.852  69.363  22.102  1.00  0.00     0.000 A 
HETATM   15  C   UNL     1      33.946  70.035  20.884  1.00  0.00     0.001 A 
HETATM   16  C   UNL     1      33.769  71.418  20.835  1.00  0.00     0.011 A 
ENDBRANCH  10  11
ENDBRANCH   5   9
BRANCH   8  17
HETATM   17  O   UNL     1      31.584  79.762  21.147  1.00  0.00    -0.358 OA
HETATM   18  H   UNL     1      31.043  80.153  20.489  1.00  0.00     0.217 HD
ENDBRANCH   8  17
ENDBRANCH   1   3
TORSDOF 4
ENDMDL
MODEL 9
REMARK VINA RESULT:      -6.8      3.863      6.346
REMARK  4 active torsions:
REMARK  status: ('A' for Active; 'I' for Inactive)
REMARK    1  A    between atoms: O_1  and  C_9 
REMARK    2  A    between atoms: O_2  and  C_10 
REMARK    3  A    between atoms: C_3  and  C_5 
REMARK    4  A    between atoms: C_4  and  C_8 
ROOT
HETATM    1  O   UNL     1      30.682  78.950  20.668  1.00  0.00    -0.358 OA
HETATM    2  H   UNL     1      31.294  79.516  20.240  1.00  0.00     0.217 HD
ENDROOT
BRANCH   1   3
HETATM    3  C   UNL     1      31.084  77.727  21.116  1.00  0.00     0.099 A 
HETATM    4  C   UNL     1      31.842  76.906  20.282  1.00  0.00     0.050 A 
HETATM    5  C   UNL     1      32.248  75.664  20.740  1.00  0.00    -0.033 A 
HETATM    6  C   UNL     1      31.916  75.219  22.010  1.00  0.00     0.014 A 
HETATM    7  C   UNL     1      31.158  76.040  22.845  1.00  0.00     0.040 A 
HETATM    8  C   UNL     1      30.742  77.294  22.397  1.00  0.00     0.098 A 
BRANCH   5   9
HETATM    9  C   UNL     1      33.050  74.796  19.859  1.00  0.00     0.012 C 
HETATM   10  C   UNL     1      33.808  73.753  20.272  1.00  0.00     0.012 C 
BRANCH  10  11
HETATM   11  C   UNL     1      34.585  72.884  19.400  1.00  0.00    -0.036 A 
HETATM   12  C   UNL     1      35.835  72.423  19.809  1.00  0.00     0.011 A 
HETATM   13  C   UNL     1      36.579  71.589  18.973  1.00  0.00     0.001 A 
HETATM   14  C   UNL     1      36.071  71.219  17.728  1.00  0.00     0.000 A 
HETATM   15  C   UNL     1      34.819  71.680  17.319  1.00  0.00     0.001 A 
HETATM   16  C   UNL     1      34.076  72.512  18.156  1.00  0.00     0.011 A 
ENDBRANCH  10  11
ENDBRANCH   5   9
BRANCH   8  17
HETATM   17  O   UNL     1      30.000  78.086  23.221  1.00  0.00    -0.358 OA
HETATM   18  H   UNL     1      30.188  79.002  23.285  1.00  0.00     0.217 HD
ENDBRANCH   8  17
ENDBRANCH   1   3
TORSDOF 4
ENDMDL
