MODEL 1
REMARK VINA RESULT:      -7.8      0.000      0.000
REMARK  7 active torsions:
REMARK  status: ('A' for Active; 'I' for Inactive)
REMARK    1  A    between atoms: O_5  and  C_13 
REMARK    2  A    between atoms: O_5  and  C_14 
REMARK    3  A    between atoms: O_6  and  C_15 
REMARK    4  A    between atoms: O_6  and  C_22 
REMARK       I    between atoms: N_8  and  C_20 
REMARK    5  A    between atoms: N_8  and  C_21 
REMARK    6  A    between atoms: C_10  and  C_13 
REMARK    7  A    between atoms: C_17  and  C_20 
ROOT
ATOM      1 CL   UNL A   1     -52.200  43.772   9.553  1.00  0.00    -0.080 Cl
ATOM      2 CL   UNL A   1     -51.667  47.196   5.322  1.00  0.00    -0.080 Cl
ATOM      3  N   UNL A   1     -51.244  43.265   5.729  1.00  0.00    -0.270 NA
ATOM      4  C   UNL A   1     -51.908  45.403   7.376  1.00  0.00     0.081 A 
ATOM      5  C   UNL A   1     -51.863  44.126   7.902  1.00  0.00     0.080 A 
ATOM      6  C   UNL A   1     -51.628  45.631   6.041  1.00  0.00     0.080 A 
ATOM      7  C   UNL A   1     -51.526  43.094   7.040  1.00  0.00     0.142 A 
ATOM      8  C   UNL A   1     -51.302  44.532   5.262  1.00  0.00     0.142 A 
ENDROOT
BRANCH   4   9
ATOM      9  N   UNL A   1     -52.248  46.493   8.215  1.00  0.00    -0.320 N 
ATOM     10  C   UNL A   1     -53.504  47.083   8.415  1.00  0.00     0.256 C 
ATOM     11  O   UNL A   1     -54.556  46.723   7.863  1.00  0.00    -0.267 OA
ATOM     12  H   UNL A   1     -51.503  46.888   8.724  1.00  0.00     0.169 HD
BRANCH  10  13
ATOM     13  C   UNL A   1     -53.535  48.216   9.326  1.00  0.00     0.035 A 
ATOM     14  C   UNL A   1     -53.622  48.002  10.702  1.00  0.00     0.056 A 
ATOM     15  C   UNL A   1     -53.653  49.090  11.575  1.00  0.00     0.103 A 
ATOM     16  C   UNL A   1     -53.597  50.389  11.073  1.00  0.00     0.108 A 
ATOM     17  C   UNL A   1     -53.510  50.603   9.697  1.00  0.00     0.041 A 
ATOM     18  C   UNL A   1     -53.479  49.516   8.824  1.00  0.00     0.020 A 
BRANCH  15  19
ATOM     19  O   UNL A   1     -53.739  48.870  12.916  1.00  0.00    -0.348 OA
BRANCH  19  20
ATOM     20  C   UNL A   1     -52.514  48.691  13.623  1.00  0.00     0.180 C 
BRANCH  20  21
ATOM     21  C   UNL A   1     -52.322  47.245  13.931  1.00  0.00     0.010 A 
ATOM     22  C   UNL A   1     -51.358  46.449  13.107  1.00  0.00     0.007 A 
ATOM     23  C   UNL A   1     -51.025  46.795  14.528  1.00  0.00     0.007 A 
ENDBRANCH  20  21
ENDBRANCH  19  20
ENDBRANCH  15  19
BRANCH  16  24
ATOM     24  O   UNL A   1     -53.626  51.459  11.916  1.00  0.00    -0.287 OA
BRANCH  24  25
ATOM     25  C   UNL A   1     -53.270  52.726  11.376  1.00  0.00     0.505 C 
ATOM     26  F   UNL A   1     -54.414  53.446  11.234  1.00  0.00    -0.184 F 
ATOM     27  F   UNL A   1     -52.503  53.393  12.273  1.00  0.00    -0.184 F 
ENDBRANCH  24  25
ENDBRANCH  16  24
ENDBRANCH  10  13
ENDBRANCH   4   9
TORSDOF 7
ENDMDL
MODEL 2
REMARK VINA RESULT:      -7.7      1.652      1.914
REMARK  7 active torsions:
REMARK  status: ('A' for Active; 'I' for Inactive)
REMARK    1  A    between atoms: O_5  and  C_13 
REMARK    2  A    between atoms: O_5  and  C_14 
REMARK    3  A    between atoms: O_6  and  C_15 
REMARK    4  A    between atoms: O_6  and  C_22 
REMARK       I    between atoms: N_8  and  C_20 
REMARK    5  A    between atoms: N_8  and  C_21 
REMARK    6  A    between atoms: C_10  and  C_13 
REMARK    7  A    between atoms: C_17  and  C_20 
ROOT
ATOM      1 CL   UNL A   1     -52.660  42.877  10.042  1.00  0.00    -0.080 Cl
ATOM      2 CL   UNL A   1     -51.281  44.859   5.134  1.00  0.00    -0.080 Cl
ATOM      3  N   UNL A   1     -51.147  41.232   6.756  1.00  0.00    -0.270 NA
ATOM      4  C   UNL A   1     -51.941  43.772   7.558  1.00  0.00     0.081 A 
ATOM      5  C   UNL A   1     -52.049  42.714   8.440  1.00  0.00     0.080 A 
ATOM      6  C   UNL A   1     -51.442  43.585   6.282  1.00  0.00     0.080 A 
ATOM      7  C   UNL A   1     -51.640  41.468   7.993  1.00  0.00     0.142 A 
ATOM      8  C   UNL A   1     -51.061  42.300   5.930  1.00  0.00     0.142 A 
ENDROOT
BRANCH   4   9
ATOM      9  N   UNL A   1     -52.346  45.067   7.966  1.00  0.00    -0.320 N 
ATOM     10  C   UNL A   1     -51.612  46.029   8.673  1.00  0.00     0.256 C 
ATOM     11  O   UNL A   1     -50.442  45.887   9.065  1.00  0.00    -0.267 OA
ATOM     12  H   UNL A   1     -53.264  45.324   7.722  1.00  0.00     0.169 HD
BRANCH  10  13
ATOM     13  C   UNL A   1     -52.313  47.268   8.974  1.00  0.00     0.035 A 
ATOM     14  C   UNL A   1     -52.799  47.499  10.261  1.00  0.00     0.056 A 
ATOM     15  C   UNL A   1     -53.472  48.686  10.548  1.00  0.00     0.103 A 
ATOM     16  C   UNL A   1     -53.659  49.642   9.550  1.00  0.00     0.108 A 
ATOM     17  C   UNL A   1     -53.172  49.411   8.263  1.00  0.00     0.041 A 
ATOM     18  C   UNL A   1     -52.499  48.223   7.975  1.00  0.00     0.020 A 
BRANCH  15  19
ATOM     19  O   UNL A   1     -53.943  48.901  11.808  1.00  0.00    -0.348 OA
BRANCH  19  20
ATOM     20  C   UNL A   1     -53.010  49.375  12.777  1.00  0.00     0.180 C 
BRANCH  20  21
ATOM     21  C   UNL A   1     -52.935  48.411  13.910  1.00  0.00     0.010 A 
ATOM     22  C   UNL A   1     -51.847  47.383  13.920  1.00  0.00     0.007 A 
ATOM     23  C   UNL A   1     -51.810  48.526  14.890  1.00  0.00     0.007 A 
ENDBRANCH  20  21
ENDBRANCH  19  20
ENDBRANCH  15  19
BRANCH  16  24
ATOM     24  O   UNL A   1     -54.313  50.806   9.819  1.00  0.00    -0.287 OA
BRANCH  24  25
ATOM     25  C   UNL A   1     -53.525  51.981   9.962  1.00  0.00     0.505 C 
ATOM     26  F   UNL A   1     -54.257  53.025   9.496  1.00  0.00    -0.184 F 
ATOM     27  F   UNL A   1     -53.313  52.216  11.280  1.00  0.00    -0.184 F 
ENDBRANCH  24  25
ENDBRANCH  16  24
ENDBRANCH  10  13
ENDBRANCH   4   9
TORSDOF 7
ENDMDL
MODEL 3
REMARK VINA RESULT:      -7.2      2.928      5.345
REMARK  7 active torsions:
REMARK  status: ('A' for Active; 'I' for Inactive)
REMARK    1  A    between atoms: O_5  and  C_13 
REMARK    2  A    between atoms: O_5  and  C_14 
REMARK    3  A    between atoms: O_6  and  C_15 
REMARK    4  A    between atoms: O_6  and  C_22 
REMARK       I    between atoms: N_8  and  C_20 
REMARK    5  A    between atoms: N_8  and  C_21 
REMARK    6  A    between atoms: C_10  and  C_13 
REMARK    7  A    between atoms: C_17  and  C_20 
ROOT
ATOM      1 CL   UNL A   1     -52.743  43.323  12.043  1.00  0.00    -0.080 Cl
ATOM      2 CL   UNL A   1     -48.659  46.518  13.782  1.00  0.00    -0.080 Cl
ATOM      3  N   UNL A   1     -49.412  42.629  14.096  1.00  0.00    -0.270 NA
ATOM      4  C   UNL A   1     -50.655  44.838  12.955  1.00  0.00     0.081 A 
ATOM      5  C   UNL A   1     -51.248  43.593  12.852  1.00  0.00     0.080 A 
ATOM      6  C   UNL A   1     -49.452  44.998  13.618  1.00  0.00     0.080 A 
ATOM      7  C   UNL A   1     -50.589  42.524  13.438  1.00  0.00     0.142 A 
ATOM      8  C   UNL A   1     -48.873  43.866  14.169  1.00  0.00     0.142 A 
ENDROOT
BRANCH   4   9
ATOM      9  N   UNL A   1     -51.288  45.964  12.373  1.00  0.00    -0.320 N 
ATOM     10  C   UNL A   1     -52.238  46.822  12.942  1.00  0.00     0.256 C 
ATOM     11  O   UNL A   1     -52.690  46.721  14.095  1.00  0.00    -0.267 OA
ATOM     12  H   UNL A   1     -51.025  46.170  11.447  1.00  0.00     0.169 HD
BRANCH  10  13
ATOM     13  C   UNL A   1     -52.730  47.886  12.081  1.00  0.00     0.035 A 
ATOM     14  C   UNL A   1     -52.856  47.670  10.708  1.00  0.00     0.056 A 
ATOM     15  C   UNL A   1     -53.326  48.691   9.883  1.00  0.00     0.103 A 
ATOM     16  C   UNL A   1     -53.670  49.927  10.429  1.00  0.00     0.108 A 
ATOM     17  C   UNL A   1     -53.543  50.144  11.801  1.00  0.00     0.041 A 
ATOM     18  C   UNL A   1     -53.073  49.122  12.627  1.00  0.00     0.020 A 
BRANCH  15  19
ATOM     19  O   UNL A   1     -53.445  48.469   8.544  1.00  0.00    -0.348 OA
BRANCH  19  20
ATOM     20  C   UNL A   1     -53.544  47.111   8.119  1.00  0.00     0.180 C 
BRANCH  20  21
ATOM     21  C   UNL A   1     -52.447  46.809   7.156  1.00  0.00     0.010 A 
ATOM     22  C   UNL A   1     -51.455  47.881   6.825  1.00  0.00     0.007 A 
ATOM     23  C   UNL A   1     -51.042  46.707   7.664  1.00  0.00     0.007 A 
ENDBRANCH  20  21
ENDBRANCH  19  20
ENDBRANCH  15  19
BRANCH  16  24
ATOM     24  O   UNL A   1     -54.131  50.932   9.632  1.00  0.00    -0.287 OA
BRANCH  24  25
ATOM     25  C   UNL A   1     -53.627  52.240   9.872  1.00  0.00     0.505 C 
ATOM     26  F   UNL A   1     -52.550  52.418   9.063  1.00  0.00    -0.184 F 
ATOM     27  F   UNL A   1     -54.553  53.151   9.487  1.00  0.00    -0.184 F 
ENDBRANCH  24  25
ENDBRANCH  16  24
ENDBRANCH  10  13
ENDBRANCH   4   9
TORSDOF 7
ENDMDL
MODEL 4
REMARK VINA RESULT:      -7.2      2.974      5.518
REMARK  7 active torsions:
REMARK  status: ('A' for Active; 'I' for Inactive)
REMARK    1  A    between atoms: O_5  and  C_13 
REMARK    2  A    between atoms: O_5  and  C_14 
REMARK    3  A    between atoms: O_6  and  C_15 
REMARK    4  A    between atoms: O_6  and  C_22 
REMARK       I    between atoms: N_8  and  C_20 
REMARK    5  A    between atoms: N_8  and  C_21 
REMARK    6  A    between atoms: C_10  and  C_13 
REMARK    7  A    between atoms: C_17  and  C_20 
ROOT
ATOM      1 CL   UNL A   1     -48.561  46.254  13.533  1.00  0.00    -0.080 Cl
ATOM      2 CL   UNL A   1     -52.960  43.245  12.304  1.00  0.00    -0.080 Cl
ATOM      3  N   UNL A   1     -49.525  42.446  14.136  1.00  0.00    -0.270 NA
ATOM      4  C   UNL A   1     -50.716  44.666  12.963  1.00  0.00     0.081 A 
ATOM      5  C   UNL A   1     -49.457  44.783  13.521  1.00  0.00     0.080 A 
ATOM      6  C   UNL A   1     -51.390  43.460  12.980  1.00  0.00     0.080 A 
ATOM      7  C   UNL A   1     -48.906  43.647  14.093  1.00  0.00     0.142 A 
ATOM      8  C   UNL A   1     -50.754  42.383  13.577  1.00  0.00     0.142 A 
ENDROOT
BRANCH   4   9
ATOM      9  N   UNL A   1     -51.323  45.798  12.366  1.00  0.00    -0.320 N 
ATOM     10  C   UNL A   1     -52.173  46.745  12.954  1.00  0.00     0.256 C 
ATOM     11  O   UNL A   1     -52.539  46.735  14.141  1.00  0.00    -0.267 OA
ATOM     12  H   UNL A   1     -51.122  45.938  11.412  1.00  0.00     0.169 HD
BRANCH  10  13
ATOM     13  C   UNL A   1     -52.666  47.791  12.071  1.00  0.00     0.035 A 
ATOM     14  C   UNL A   1     -52.669  47.594  10.691  1.00  0.00     0.056 A 
ATOM     15  C   UNL A   1     -53.141  48.598   9.845  1.00  0.00     0.103 A 
ATOM     16  C   UNL A   1     -53.609  49.798  10.380  1.00  0.00     0.108 A 
ATOM     17  C   UNL A   1     -53.606  49.995  11.760  1.00  0.00     0.041 A 
ATOM     18  C   UNL A   1     -53.134  48.991  12.606  1.00  0.00     0.020 A 
BRANCH  15  19
ATOM     19  O   UNL A   1     -53.139  48.395   8.498  1.00  0.00    -0.348 OA
BRANCH  19  20
ATOM     20  C   UNL A   1     -52.933  47.059   8.044  1.00  0.00     0.180 C 
BRANCH  20  21
ATOM     21  C   UNL A   1     -51.609  46.961   7.368  1.00  0.00     0.010 A 
ATOM     22  C   UNL A   1     -51.538  47.114   5.881  1.00  0.00     0.007 A 
ATOM     23  C   UNL A   1     -51.003  48.193   6.774  1.00  0.00     0.007 A 
ENDBRANCH  20  21
ENDBRANCH  19  20
ENDBRANCH  15  19
BRANCH  16  24
ATOM     24  O   UNL A   1     -54.073  50.785   9.564  1.00  0.00    -0.287 OA
BRANCH  24  25
ATOM     25  C   UNL A   1     -53.614  52.108   9.813  1.00  0.00     0.505 C 
ATOM     26  F   UNL A   1     -52.597  52.358   8.948  1.00  0.00    -0.184 F 
ATOM     27  F   UNL A   1     -54.602  52.986   9.511  1.00  0.00    -0.184 F 
ENDBRANCH  24  25
ENDBRANCH  16  24
ENDBRANCH  10  13
ENDBRANCH   4   9
TORSDOF 7
ENDMDL
MODEL 5
REMARK VINA RESULT:      -7.1      2.654      3.470
REMARK  7 active torsions:
REMARK  status: ('A' for Active; 'I' for Inactive)
REMARK    1  A    between atoms: O_5  and  C_13 
REMARK    2  A    between atoms: O_5  and  C_14 
REMARK    3  A    between atoms: O_6  and  C_15 
REMARK    4  A    between atoms: O_6  and  C_22 
REMARK       I    between atoms: N_8  and  C_20 
REMARK    5  A    between atoms: N_8  and  C_21 
REMARK    6  A    between atoms: C_10  and  C_13 
REMARK    7  A    between atoms: C_17  and  C_20 
ROOT
ATOM      1 CL   UNL A   1     -52.314  43.693   7.649  1.00  0.00    -0.080 Cl
ATOM      2 CL   UNL A   1     -51.140  48.950   6.701  1.00  0.00    -0.080 Cl
ATOM      3  N   UNL A   1     -51.366  45.736   4.375  1.00  0.00    -0.270 NA
ATOM      4  C   UNL A   1     -51.714  46.300   7.074  1.00  0.00     0.081 A 
ATOM      5  C   UNL A   1     -51.887  45.006   6.620  1.00  0.00     0.080 A 
ATOM      6  C   UNL A   1     -51.370  47.318   6.203  1.00  0.00     0.080 A 
ATOM      7  C   UNL A   1     -51.701  44.776   5.266  1.00  0.00     0.142 A 
ATOM      8  C   UNL A   1     -51.208  46.984   4.867  1.00  0.00     0.142 A 
ENDROOT
BRANCH   4   9
ATOM      9  N   UNL A   1     -51.892  46.589   8.449  1.00  0.00    -0.320 N 
ATOM     10  C   UNL A   1     -52.940  47.286   9.066  1.00  0.00     0.256 C 
ATOM     11  O   UNL A   1     -53.914  47.779   8.475  1.00  0.00    -0.267 OA
ATOM     12  H   UNL A   1     -51.187  46.255   9.050  1.00  0.00     0.169 HD
BRANCH  10  13
ATOM     13  C   UNL A   1     -52.832  47.448  10.508  1.00  0.00     0.035 A 
ATOM     14  C   UNL A   1     -52.263  46.437  11.283  1.00  0.00     0.056 A 
ATOM     15  C   UNL A   1     -52.161  46.592  12.665  1.00  0.00     0.103 A 
ATOM     16  C   UNL A   1     -52.628  47.758  13.272  1.00  0.00     0.108 A 
ATOM     17  C   UNL A   1     -53.197  48.769  12.498  1.00  0.00     0.041 A 
ATOM     18  C   UNL A   1     -53.299  48.613  11.115  1.00  0.00     0.020 A 
BRANCH  15  19
ATOM     19  O   UNL A   1     -51.604  45.599  13.412  1.00  0.00    -0.348 OA
BRANCH  19  20
ATOM     20  C   UNL A   1     -51.538  44.303  12.820  1.00  0.00     0.180 C 
BRANCH  20  21
ATOM     21  C   UNL A   1     -52.683  43.478  13.297  1.00  0.00     0.010 A 
ATOM     22  C   UNL A   1     -53.199  42.376  12.423  1.00  0.00     0.007 A 
ATOM     23  C   UNL A   1     -52.442  42.050  13.677  1.00  0.00     0.007 A 
ENDBRANCH  20  21
ENDBRANCH  19  20
ENDBRANCH  15  19
BRANCH  16  24
ATOM     24  O   UNL A   1     -52.533  47.922  14.622  1.00  0.00    -0.287 OA
BRANCH  24  25
ATOM     25  C   UNL A   1     -51.640  48.921  15.097  1.00  0.00     0.505 C 
ATOM     26  F   UNL A   1     -52.383  49.872  15.721  1.00  0.00    -0.184 F 
ATOM     27  F   UNL A   1     -50.831  48.382  16.042  1.00  0.00    -0.184 F 
ENDBRANCH  24  25
ENDBRANCH  16  24
ENDBRANCH  10  13
ENDBRANCH   4   9
TORSDOF 7
ENDMDL
MODEL 6
REMARK VINA RESULT:      -7.0      2.447      3.629
REMARK  7 active torsions:
REMARK  status: ('A' for Active; 'I' for Inactive)
REMARK    1  A    between atoms: O_5  and  C_13 
REMARK    2  A    between atoms: O_5  and  C_14 
REMARK    3  A    between atoms: O_6  and  C_15 
REMARK    4  A    between atoms: O_6  and  C_22 
REMARK       I    between atoms: N_8  and  C_20 
REMARK    5  A    between atoms: N_8  and  C_21 
REMARK    6  A    between atoms: C_10  and  C_13 
REMARK    7  A    between atoms: C_17  and  C_20 
ROOT
ATOM      1 CL   UNL A   1     -51.164  48.935   6.726  1.00  0.00    -0.080 Cl
ATOM      2 CL   UNL A   1     -52.293  43.673   7.697  1.00  0.00    -0.080 Cl
ATOM      3  N   UNL A   1     -51.383  45.713   4.410  1.00  0.00    -0.270 NA
ATOM      4  C   UNL A   1     -51.716  46.283   7.110  1.00  0.00     0.081 A 
ATOM      5  C   UNL A   1     -51.386  47.300   6.234  1.00  0.00     0.080 A 
ATOM      6  C   UNL A   1     -51.883  44.986   6.661  1.00  0.00     0.080 A 
ATOM      7  C   UNL A   1     -51.232  46.965   4.898  1.00  0.00     0.142 A 
ATOM      8  C   UNL A   1     -51.706  44.754   5.306  1.00  0.00     0.142 A 
ENDROOT
BRANCH   4   9
ATOM      9  N   UNL A   1     -51.885  46.573   8.486  1.00  0.00    -0.320 N 
ATOM     10  C   UNL A   1     -52.960  47.214   9.118  1.00  0.00     0.256 C 
ATOM     11  O   UNL A   1     -53.972  47.644   8.541  1.00  0.00    -0.267 OA
ATOM     12  H   UNL A   1     -51.151  46.286   9.076  1.00  0.00     0.169 HD
BRANCH  10  13
ATOM     13  C   UNL A   1     -52.835  47.395  10.556  1.00  0.00     0.035 A 
ATOM     14  C   UNL A   1     -52.314  46.369  11.345  1.00  0.00     0.056 A 
ATOM     15  C   UNL A   1     -52.196  46.543  12.724  1.00  0.00     0.103 A 
ATOM     16  C   UNL A   1     -52.598  47.741  13.313  1.00  0.00     0.108 A 
ATOM     17  C   UNL A   1     -53.118  48.767  12.524  1.00  0.00     0.041 A 
ATOM     18  C   UNL A   1     -53.237  48.593  11.145  1.00  0.00     0.020 A 
BRANCH  15  19
ATOM     19  O   UNL A   1     -51.686  45.535  13.485  1.00  0.00    -0.348 OA
BRANCH  19  20
ATOM     20  C   UNL A   1     -50.306  45.223  13.308  1.00  0.00     0.180 C 
BRANCH  20  21
ATOM     21  C   UNL A   1     -49.527  45.734  14.472  1.00  0.00     0.010 A 
ATOM     22  C   UNL A   1     -48.070  45.404  14.572  1.00  0.00     0.007 A 
ATOM     23  C   UNL A   1     -48.504  46.803  14.249  1.00  0.00     0.007 A 
ENDBRANCH  20  21
ENDBRANCH  19  20
ENDBRANCH  15  19
BRANCH  16  24
ATOM     24  O   UNL A   1     -52.486  47.923  14.659  1.00  0.00    -0.287 OA
BRANCH  24  25
ATOM     25  C   UNL A   1     -51.598  48.938  15.109  1.00  0.00     0.505 C 
ATOM     26  F   UNL A   1     -52.346  49.900  15.710  1.00  0.00    -0.184 F 
ATOM     27  F   UNL A   1     -50.785  48.426  16.066  1.00  0.00    -0.184 F 
ENDBRANCH  24  25
ENDBRANCH  16  24
ENDBRANCH  10  13
ENDBRANCH   4   9
TORSDOF 7
ENDMDL
MODEL 7
REMARK VINA RESULT:      -7.0      2.406      3.242
REMARK  7 active torsions:
REMARK  status: ('A' for Active; 'I' for Inactive)
REMARK    1  A    between atoms: O_5  and  C_13 
REMARK    2  A    between atoms: O_5  and  C_14 
REMARK    3  A    between atoms: O_6  and  C_15 
REMARK    4  A    between atoms: O_6  and  C_22 
REMARK       I    between atoms: N_8  and  C_20 
REMARK    5  A    between atoms: N_8  and  C_21 
REMARK    6  A    between atoms: C_10  and  C_13 
REMARK    7  A    between atoms: C_17  and  C_20 
ROOT
ATOM      1 CL   UNL A   1     -52.322  43.719   7.734  1.00  0.00    -0.080 Cl
ATOM      2 CL   UNL A   1     -51.154  48.965   6.719  1.00  0.00    -0.080 Cl
ATOM      3  N   UNL A   1     -51.346  45.715   4.439  1.00  0.00    -0.270 NA
ATOM      4  C   UNL A   1     -51.724  46.319   7.125  1.00  0.00     0.081 A 
ATOM      5  C   UNL A   1     -51.888  45.017   6.690  1.00  0.00     0.080 A 
ATOM      6  C   UNL A   1     -51.374  47.324   6.243  1.00  0.00     0.080 A 
ATOM      7  C   UNL A   1     -51.688  44.767   5.341  1.00  0.00     0.142 A 
ATOM      8  C   UNL A   1     -51.197  46.971   4.915  1.00  0.00     0.142 A 
ENDROOT
BRANCH   4   9
ATOM      9  N   UNL A   1     -51.917  46.627   8.495  1.00  0.00    -0.320 N 
ATOM     10  C   UNL A   1     -53.001  47.280   9.098  1.00  0.00     0.256 C 
ATOM     11  O   UNL A   1     -54.001  47.707   8.497  1.00  0.00    -0.267 OA
ATOM     12  H   UNL A   1     -51.195  46.345   9.102  1.00  0.00     0.169 HD
BRANCH  10  13
ATOM     13  C   UNL A   1     -52.902  47.479  10.535  1.00  0.00     0.035 A 
ATOM     14  C   UNL A   1     -52.334  46.490  11.338  1.00  0.00     0.056 A 
ATOM     15  C   UNL A   1     -52.240  46.682  12.717  1.00  0.00     0.103 A 
ATOM     16  C   UNL A   1     -52.715  47.860  13.292  1.00  0.00     0.108 A 
ATOM     17  C   UNL A   1     -53.283  48.849  12.489  1.00  0.00     0.041 A 
ATOM     18  C   UNL A   1     -53.377  48.658  11.110  1.00  0.00     0.020 A 
BRANCH  15  19
ATOM     19  O   UNL A   1     -51.684  45.710  13.492  1.00  0.00    -0.348 OA
BRANCH  19  20
ATOM     20  C   UNL A   1     -50.346  45.322  13.184  1.00  0.00     0.180 C 
BRANCH  20  21
ATOM     21  C   UNL A   1     -49.392  46.235  13.873  1.00  0.00     0.010 A 
ATOM     22  C   UNL A   1     -48.826  45.829  15.199  1.00  0.00     0.007 A 
ATOM     23  C   UNL A   1     -47.953  45.837  13.979  1.00  0.00     0.007 A 
ENDBRANCH  20  21
ENDBRANCH  19  20
ENDBRANCH  15  19
BRANCH  16  24
ATOM     24  O   UNL A   1     -52.628  48.059  14.637  1.00  0.00    -0.287 OA
BRANCH  24  25
ATOM     25  C   UNL A   1     -51.641  48.972  15.100  1.00  0.00     0.505 C 
ATOM     26  F   UNL A   1     -52.287  49.997  15.714  1.00  0.00    -0.184 F 
ATOM     27  F   UNL A   1     -50.887  48.367  16.050  1.00  0.00    -0.184 F 
ENDBRANCH  24  25
ENDBRANCH  16  24
ENDBRANCH  10  13
ENDBRANCH   4   9
TORSDOF 7
ENDMDL
MODEL 8
REMARK VINA RESULT:      -6.9      2.370      4.016
REMARK  7 active torsions:
REMARK  status: ('A' for Active; 'I' for Inactive)
REMARK    1  A    between atoms: O_5  and  C_13 
REMARK    2  A    between atoms: O_5  and  C_14 
REMARK    3  A    between atoms: O_6  and  C_15 
REMARK    4  A    between atoms: O_6  and  C_22 
REMARK       I    between atoms: N_8  and  C_20 
REMARK    5  A    between atoms: N_8  and  C_21 
REMARK    6  A    between atoms: C_10  and  C_13 
REMARK    7  A    between atoms: C_17  and  C_20 
ROOT
ATOM      1 CL   UNL A   1     -52.171  42.944   7.943  1.00  0.00    -0.080 Cl
ATOM      2 CL   UNL A   1     -51.200  48.142   6.548  1.00  0.00    -0.080 Cl
ATOM      3  N   UNL A   1     -51.499  44.765   4.475  1.00  0.00    -0.270 NA
ATOM      4  C   UNL A   1     -51.679  45.515   7.145  1.00  0.00     0.081 A 
ATOM      5  C   UNL A   1     -51.848  44.188   6.797  1.00  0.00     0.080 A 
ATOM      6  C   UNL A   1     -51.420  46.474   6.183  1.00  0.00     0.080 A 
ATOM      7  C   UNL A   1     -51.749  43.865   5.453  1.00  0.00     0.142 A 
ATOM      8  C   UNL A   1     -51.341  46.049   4.866  1.00  0.00     0.142 A 
ENDROOT
BRANCH   4   9
ATOM      9  N   UNL A   1     -51.771  45.897   8.506  1.00  0.00    -0.320 N 
ATOM     10  C   UNL A   1     -50.953  45.515   9.578  1.00  0.00     0.256 C 
ATOM     11  O   UNL A   1     -49.980  44.748   9.494  1.00  0.00    -0.267 OA
ATOM     12  H   UNL A   1     -52.507  46.513   8.727  1.00  0.00     0.169 HD
BRANCH  10  13
ATOM     13  C   UNL A   1     -51.317  46.056  10.878  1.00  0.00     0.035 A 
ATOM     14  C   UNL A   1     -52.296  47.045  10.973  1.00  0.00     0.056 A 
ATOM     15  C   UNL A   1     -52.643  47.565  12.220  1.00  0.00     0.103 A 
ATOM     16  C   UNL A   1     -52.011  47.096  13.372  1.00  0.00     0.108 A 
ATOM     17  C   UNL A   1     -51.032  46.107  13.277  1.00  0.00     0.041 A 
ATOM     18  C   UNL A   1     -50.685  45.587  12.030  1.00  0.00     0.020 A 
BRANCH  15  19
ATOM     19  O   UNL A   1     -53.600  48.530  12.301  1.00  0.00    -0.348 OA
BRANCH  19  20
ATOM     20  C   UNL A   1     -53.231  49.844  11.887  1.00  0.00     0.180 C 
BRANCH  20  21
ATOM     21  C   UNL A   1     -54.053  50.245  10.710  1.00  0.00     0.010 A 
ATOM     22  C   UNL A   1     -53.607  51.403   9.873  1.00  0.00     0.007 A 
ATOM     23  C   UNL A   1     -53.516  50.006   9.334  1.00  0.00     0.007 A 
ENDBRANCH  20  21
ENDBRANCH  19  20
ENDBRANCH  15  19
BRANCH  16  24
ATOM     24  O   UNL A   1     -52.343  47.594  14.595  1.00  0.00    -0.287 OA
BRANCH  24  25
ATOM     25  C   UNL A   1     -51.501  48.603  15.140  1.00  0.00     0.505 C 
ATOM     26  F   UNL A   1     -52.299  49.616  15.568  1.00  0.00    -0.184 F 
ATOM     27  F   UNL A   1     -50.874  48.115  16.238  1.00  0.00    -0.184 F 
ENDBRANCH  24  25
ENDBRANCH  16  24
ENDBRANCH  10  13
ENDBRANCH   4   9
TORSDOF 7
ENDMDL
MODEL 9
REMARK VINA RESULT:      -6.9      1.908      3.631
REMARK  7 active torsions:
REMARK  status: ('A' for Active; 'I' for Inactive)
REMARK    1  A    between atoms: O_5  and  C_13 
REMARK    2  A    between atoms: O_5  and  C_14 
REMARK    3  A    between atoms: O_6  and  C_15 
REMARK    4  A    between atoms: O_6  and  C_22 
REMARK       I    between atoms: N_8  and  C_20 
REMARK    5  A    between atoms: N_8  and  C_21 
REMARK    6  A    between atoms: C_10  and  C_13 
REMARK    7  A    between atoms: C_17  and  C_20 
ROOT
ATOM      1 CL   UNL A   1     -51.307  42.438   8.637  1.00  0.00    -0.080 Cl
ATOM      2 CL   UNL A   1     -52.036  46.628   5.198  1.00  0.00    -0.080 Cl
ATOM      3  N   UNL A   1     -51.170  42.784   4.680  1.00  0.00    -0.270 NA
ATOM      4  C   UNL A   1     -51.653  44.469   6.836  1.00  0.00     0.081 A 
ATOM      5  C   UNL A   1     -51.375  43.135   7.063  1.00  0.00     0.080 A 
ATOM      6  C   UNL A   1     -51.694  44.977   5.551  1.00  0.00     0.080 A 
ATOM      7  C   UNL A   1     -51.140  42.336   5.956  1.00  0.00     0.142 A 
ATOM      8  C   UNL A   1     -51.446  44.096   4.511  1.00  0.00     0.142 A 
ENDROOT
BRANCH   4   9
ATOM      9  N   UNL A   1     -51.901  45.329   7.935  1.00  0.00    -0.320 N 
ATOM     10  C   UNL A   1     -53.133  45.740   8.461  1.00  0.00     0.256 C 
ATOM     11  O   UNL A   1     -54.245  45.399   8.025  1.00  0.00    -0.267 OA
ATOM     12  H   UNL A   1     -51.102  45.683   8.389  1.00  0.00     0.169 HD
BRANCH  10  13
ATOM     13  C   UNL A   1     -53.067  46.657   9.589  1.00  0.00     0.035 A 
ATOM     14  C   UNL A   1     -53.588  47.946   9.471  1.00  0.00     0.056 A 
ATOM     15  C   UNL A   1     -53.524  48.825  10.552  1.00  0.00     0.103 A 
ATOM     16  C   UNL A   1     -52.939  48.415  11.750  1.00  0.00     0.108 A 
ATOM     17  C   UNL A   1     -52.419  47.127  11.868  1.00  0.00     0.041 A 
ATOM     18  C   UNL A   1     -52.483  46.248  10.787  1.00  0.00     0.020 A 
BRANCH  15  19
ATOM     19  O   UNL A   1     -54.035  50.081  10.426  1.00  0.00    -0.348 OA
BRANCH  19  20
ATOM     20  C   UNL A   1     -53.611  50.843   9.298  1.00  0.00     0.180 C 
BRANCH  20  21
ATOM     21  C   UNL A   1     -53.389  52.259   9.707  1.00  0.00     0.010 A 
ATOM     22  C   UNL A   1     -54.553  53.064  10.195  1.00  0.00     0.007 A 
ATOM     23  C   UNL A   1     -53.489  52.620  11.156  1.00  0.00     0.007 A 
ENDBRANCH  20  21
ENDBRANCH  19  20
ENDBRANCH  15  19
BRANCH  16  24
ATOM     24  O   UNL A   1     -52.872  49.264  12.814  1.00  0.00    -0.287 OA
BRANCH  24  25
ATOM     25  C   UNL A   1     -53.190  48.734  14.094  1.00  0.00     0.505 C 
ATOM     26  F   UNL A   1     -52.400  49.360  15.005  1.00  0.00    -0.184 F 
ATOM     27  F   UNL A   1     -54.469  49.059  14.405  1.00  0.00    -0.184 F 
ENDBRANCH  24  25
ENDBRANCH  16  24
ENDBRANCH  10  13
ENDBRANCH   4   9
TORSDOF 7
ENDMDL
