MODEL 1
REMARK VINA RESULT:      -7.7      0.000      0.000
REMARK  4 active torsions:
REMARK  status: ('A' for Active; 'I' for Inactive)
REMARK    1  A    between atoms: O_1  and  C_5 
REMARK    2  A    between atoms: O_1  and  C_14 
REMARK    3  A    between atoms: O_2  and  C_18 
REMARK    4  A    between atoms: C_10  and  C_13 
ROOT
HETATM    1  O   UNL     1      31.293  77.917  18.905  1.00  0.00    -0.343 OA
ENDROOT
BRANCH   1   2
HETATM    2  C   UNL     1      31.821  77.308  17.734  1.00  0.00     0.129 C 
HETATM    3  C   UNL     1      32.235  78.388  16.745  1.00  0.00     0.032 C 
HETATM    4  C   UNL     1      30.928  78.817  16.078  1.00  0.00     0.002 C 
HETATM    5  C   UNL     1      29.953  77.655  16.261  1.00  0.00     0.002 C 
HETATM    6  C   UNL     1      30.729  76.558  16.987  1.00  0.00     0.032 C 
ENDBRANCH   1   2
BRANCH   1   7
HETATM    7  C   UNL     1      31.705  77.406  20.107  1.00  0.00     0.103 A 
HETATM    8  C   UNL     1      31.832  76.027  20.248  1.00  0.00     0.047 A 
HETATM    9  C   UNL     1      32.250  75.493  21.467  1.00  0.00    -0.049 A 
HETATM   10  C   UNL     1      32.537  76.340  22.538  1.00  0.00     0.010 A 
HETATM   11  C   UNL     1      32.407  77.720  22.390  1.00  0.00     0.040 A 
HETATM   12  C   UNL     1      31.990  78.255  21.171  1.00  0.00     0.101 A 
BRANCH   9  13
HETATM   13  C   UNL     1      32.391  73.995  21.628  1.00  0.00     0.045 C 
HETATM   14  C   UNL     1      32.411  73.184  20.331  1.00  0.00     0.132 C 
HETATM   15  N   UNL     1      33.062  71.959  20.704  1.00  0.00    -0.360 N 
HETATM   16  C   UNL     1      33.824  72.088  21.857  1.00  0.00     0.218 C 
HETATM   17  H   UNL     1      32.977  71.120  20.197  1.00  0.00     0.162 HD
HETATM   18  O   UNL     1      34.522  71.238  22.384  1.00  0.00    -0.274 OA
HETATM   19  C   UNL     1      33.679  73.516  22.326  1.00  0.00     0.113 C 
ENDBRANCH   9  13
BRANCH  12  20
HETATM   20  O   UNL     1      31.865  79.605  21.038  1.00  0.00    -0.353 OA
HETATM   21  C   UNL     1      31.881  80.377  22.236  1.00  0.00     0.210 C 
ENDBRANCH  12  20
ENDBRANCH   1   7
TORSDOF 4
ENDMDL
MODEL 2
REMARK VINA RESULT:      -7.7      1.209      4.026
REMARK  4 active torsions:
REMARK  status: ('A' for Active; 'I' for Inactive)
REMARK    1  A    between atoms: O_1  and  C_5 
REMARK    2  A    between atoms: O_1  and  C_14 
REMARK    3  A    between atoms: O_2  and  C_18 
REMARK    4  A    between atoms: C_10  and  C_13 
ROOT
HETATM    1  O   UNL     1      30.926  78.476  20.467  1.00  0.00    -0.343 OA
ENDROOT
BRANCH   1   2
HETATM    2  C   UNL     1      30.896  78.269  21.874  1.00  0.00     0.129 C 
HETATM    3  C   UNL     1      30.159  79.422  22.538  1.00  0.00     0.032 C 
HETATM    4  C   UNL     1      31.189  80.549  22.604  1.00  0.00     0.002 C 
HETATM    5  C   UNL     1      32.561  79.880  22.519  1.00  0.00     0.002 C 
HETATM    6  C   UNL     1      32.297  78.377  22.455  1.00  0.00     0.032 C 
ENDBRANCH   1   2
BRANCH   1   7
HETATM    7  C   UNL     1      31.142  77.371  19.686  1.00  0.00     0.103 A 
HETATM    8  C   UNL     1      31.680  76.226  20.266  1.00  0.00     0.047 A 
HETATM    9  C   UNL     1      31.906  75.096  19.481  1.00  0.00    -0.049 A 
HETATM   10  C   UNL     1      31.595  75.116  18.121  1.00  0.00     0.010 A 
HETATM   11  C   UNL     1      31.058  76.267  17.546  1.00  0.00     0.040 A 
HETATM   12  C   UNL     1      30.831  77.399  18.331  1.00  0.00     0.101 A 
BRANCH   9  13
HETATM   13  C   UNL     1      32.488  73.846  20.105  1.00  0.00     0.045 C 
HETATM   14  C   UNL     1      33.862  73.419  19.584  1.00  0.00     0.132 C 
HETATM   15  N   UNL     1      34.390  72.603  20.641  1.00  0.00    -0.360 N 
HETATM   16  C   UNL     1      33.773  72.844  21.861  1.00  0.00     0.218 C 
HETATM   17  H   UNL     1      35.110  71.944  20.515  1.00  0.00     0.162 HD
HETATM   18  O   UNL     1      34.040  72.341  22.940  1.00  0.00    -0.274 OA
HETATM   19  C   UNL     1      32.726  73.906  21.626  1.00  0.00     0.113 C 
ENDBRANCH   9  13
BRANCH  12  20
HETATM   20  O   UNL     1      30.306  78.518  17.758  1.00  0.00    -0.353 OA
HETATM   21  C   UNL     1      30.098  78.487  16.348  1.00  0.00     0.210 C 
ENDBRANCH  12  20
ENDBRANCH   1   7
TORSDOF 4
ENDMDL
MODEL 3
REMARK VINA RESULT:      -7.4      1.217      1.325
REMARK  4 active torsions:
REMARK  status: ('A' for Active; 'I' for Inactive)
REMARK    1  A    between atoms: O_1  and  C_5 
REMARK    2  A    between atoms: O_1  and  C_14 
REMARK    3  A    between atoms: O_2  and  C_18 
REMARK    4  A    between atoms: C_10  and  C_13 
ROOT
HETATM    1  O   UNL     1      30.884  76.706  18.963  1.00  0.00    -0.343 OA
ENDROOT
BRANCH   1   2
HETATM    2  C   UNL     1      31.627  76.534  17.763  1.00  0.00     0.129 C 
HETATM    3  C   UNL     1      31.995  77.898  17.198  1.00  0.00     0.032 C 
HETATM    4  C   UNL     1      30.728  78.373  16.488  1.00  0.00     0.002 C 
HETATM    5  C   UNL     1      29.914  77.117  16.180  1.00  0.00     0.002 C 
HETATM    6  C   UNL     1      30.748  75.938  16.675  1.00  0.00     0.032 C 
ENDBRANCH   1   2
BRANCH   1   7
HETATM    7  C   UNL     1      31.551  76.488  20.139  1.00  0.00     0.103 A 
HETATM    8  C   UNL     1      32.290  75.318  20.292  1.00  0.00     0.047 A 
HETATM    9  C   UNL     1      32.974  75.084  21.485  1.00  0.00    -0.049 A 
HETATM   10  C   UNL     1      32.914  76.019  22.519  1.00  0.00     0.010 A 
HETATM   11  C   UNL     1      32.171  77.188  22.359  1.00  0.00     0.040 A 
HETATM   12  C   UNL     1      31.487  77.424  21.166  1.00  0.00     0.101 A 
BRANCH   9  13
HETATM   13  C   UNL     1      33.781  73.816  21.658  1.00  0.00     0.045 C 
HETATM   14  C   UNL     1      33.006  72.596  22.160  1.00  0.00     0.132 C 
HETATM   15  N   UNL     1      33.809  71.483  21.737  1.00  0.00    -0.360 N 
HETATM   16  C   UNL     1      34.669  71.809  20.697  1.00  0.00     0.218 C 
HETATM   17  H   UNL     1      33.756  70.587  22.141  1.00  0.00     0.162 HD
HETATM   18  O   UNL     1      35.432  71.064  20.105  1.00  0.00    -0.274 OA
HETATM   19  C   UNL     1      34.450  73.269  20.382  1.00  0.00     0.113 C 
ENDBRANCH   9  13
BRANCH  12  20
HETATM   20  O   UNL     1      30.764  78.569  21.022  1.00  0.00    -0.353 OA
HETATM   21  C   UNL     1      30.161  79.105  22.197  1.00  0.00     0.210 C 
ENDBRANCH  12  20
ENDBRANCH   1   7
TORSDOF 4
ENDMDL
MODEL 4
REMARK VINA RESULT:      -7.2      2.854      6.733
REMARK  4 active torsions:
REMARK  status: ('A' for Active; 'I' for Inactive)
REMARK    1  A    between atoms: O_1  and  C_5 
REMARK    2  A    between atoms: O_1  and  C_14 
REMARK    3  A    between atoms: O_2  and  C_18 
REMARK    4  A    between atoms: C_10  and  C_13 
ROOT
HETATM    1  O   UNL     1      32.026  72.872  21.810  1.00  0.00    -0.343 OA
ENDROOT
BRANCH   1   2
HETATM    2  C   UNL     1      33.317  72.802  22.402  1.00  0.00     0.129 C 
HETATM    3  C   UNL     1      34.358  72.571  21.316  1.00  0.00     0.032 C 
HETATM    4  C   UNL     1      34.279  71.074  21.022  1.00  0.00     0.002 C 
HETATM    5  C   UNL     1      33.660  70.426  22.260  1.00  0.00     0.002 C 
HETATM    6  C   UNL     1      33.438  71.556  23.264  1.00  0.00     0.032 C 
ENDBRANCH   1   2
BRANCH   1   7
HETATM    7  C   UNL     1      31.830  73.850  20.870  1.00  0.00     0.103 A 
HETATM    8  C   UNL     1      31.979  75.183  21.239  1.00  0.00     0.047 A 
HETATM    9  C   UNL     1      31.782  76.188  20.292  1.00  0.00    -0.049 A 
HETATM   10  C   UNL     1      31.435  75.854  18.982  1.00  0.00     0.010 A 
HETATM   11  C   UNL     1      31.286  74.516  18.620  1.00  0.00     0.040 A 
HETATM   12  C   UNL     1      31.484  73.510  19.567  1.00  0.00     0.101 A 
BRANCH   9  13
HETATM   13  C   UNL     1      31.944  77.641  20.685  1.00  0.00     0.045 C 
HETATM   14  C   UNL     1      30.667  78.483  20.663  1.00  0.00     0.132 C 
HETATM   15  N   UNL     1      30.968  79.580  21.539  1.00  0.00    -0.360 N 
HETATM   16  C   UNL     1      32.007  79.297  22.414  1.00  0.00     0.218 C 
HETATM   17  H   UNL     1      30.488  80.440  21.522  1.00  0.00     0.162 HD
HETATM   18  O   UNL     1      32.449  80.012  23.298  1.00  0.00    -0.274 OA
HETATM   19  C   UNL     1      32.472  77.893  22.110  1.00  0.00     0.113 C 
ENDBRANCH   9  13
BRANCH  12  20
HETATM   20  O   UNL     1      31.335  72.207  19.201  1.00  0.00    -0.353 OA
HETATM   21  C   UNL     1      32.064  71.768  18.057  1.00  0.00     0.210 C 
ENDBRANCH  12  20
ENDBRANCH   1   7
TORSDOF 4
ENDMDL
MODEL 5
REMARK VINA RESULT:      -7.0      2.967      5.609
REMARK  4 active torsions:
REMARK  status: ('A' for Active; 'I' for Inactive)
REMARK    1  A    between atoms: O_1  and  C_5 
REMARK    2  A    between atoms: O_1  and  C_14 
REMARK    3  A    between atoms: O_2  and  C_18 
REMARK    4  A    between atoms: C_10  and  C_13 
ROOT
HETATM    1  O   UNL     1      31.564  73.812  19.377  1.00  0.00    -0.343 OA
ENDROOT
BRANCH   1   2
HETATM    2  C   UNL     1      32.091  74.130  18.096  1.00  0.00     0.129 C 
HETATM    3  C   UNL     1      30.960  74.577  17.181  1.00  0.00     0.032 C 
HETATM    4  C   UNL     1      30.301  73.277  16.722  1.00  0.00     0.002 C 
HETATM    5  C   UNL     1      31.351  72.180  16.899  1.00  0.00     0.002 C 
HETATM    6  C   UNL     1      32.610  72.876  17.411  1.00  0.00     0.032 C 
ENDBRANCH   1   2
BRANCH   1   7
HETATM    7  C   UNL     1      31.952  74.613  20.420  1.00  0.00     0.103 A 
HETATM    8  C   UNL     1      31.568  75.950  20.426  1.00  0.00     0.047 A 
HETATM    9  C   UNL     1      31.958  76.776  21.481  1.00  0.00    -0.049 A 
HETATM   10  C   UNL     1      32.730  76.260  22.522  1.00  0.00     0.010 A 
HETATM   11  C   UNL     1      33.112  74.919  22.509  1.00  0.00     0.040 A 
HETATM   12  C   UNL     1      32.722  74.093  21.455  1.00  0.00     0.101 A 
BRANCH   9  13
HETATM   13  C   UNL     1      31.543  78.231  21.495  1.00  0.00     0.045 C 
HETATM   14  C   UNL     1      30.149  78.522  22.052  1.00  0.00     0.132 C 
HETATM   15  N   UNL     1      30.217  79.902  22.441  1.00  0.00    -0.360 N 
HETATM   16  C   UNL     1      31.520  80.340  22.631  1.00  0.00     0.218 C 
HETATM   17  H   UNL     1      29.425  80.475  22.561  1.00  0.00     0.162 HD
HETATM   18  O   UNL     1      31.885  81.443  23.006  1.00  0.00    -0.274 OA
HETATM   19  C   UNL     1      32.428  79.170  22.338  1.00  0.00     0.113 C 
ENDBRANCH   9  13
BRANCH  12  20
HETATM   20  O   UNL     1      33.102  72.784  21.452  1.00  0.00    -0.353 OA
HETATM   21  C   UNL     1      32.587  71.959  22.494  1.00  0.00     0.210 C 
ENDBRANCH  12  20
ENDBRANCH   1   7
TORSDOF 4
ENDMDL
MODEL 6
REMARK VINA RESULT:      -6.9      2.803      6.190
REMARK  4 active torsions:
REMARK  status: ('A' for Active; 'I' for Inactive)
REMARK    1  A    between atoms: O_1  and  C_5 
REMARK    2  A    between atoms: O_1  and  C_14 
REMARK    3  A    between atoms: O_2  and  C_18 
REMARK    4  A    between atoms: C_10  and  C_13 
ROOT
HETATM    1  O   UNL     1      32.189  74.210  20.432  1.00  0.00    -0.343 OA
ENDROOT
BRANCH   1   2
HETATM    2  C   UNL     1      33.593  73.996  20.379  1.00  0.00     0.129 C 
HETATM    3  C   UNL     1      33.897  72.883  19.386  1.00  0.00     0.032 C 
HETATM    4  C   UNL     1      33.607  71.594  20.153  1.00  0.00     0.002 C 
HETATM    5  C   UNL     1      33.702  71.949  21.637  1.00  0.00     0.002 C 
HETATM    6  C   UNL     1      34.092  73.424  21.697  1.00  0.00     0.032 C 
ENDBRANCH   1   2
BRANCH   1   7
HETATM    7  C   UNL     1      31.754  75.496  20.243  1.00  0.00     0.103 A 
HETATM    8  C   UNL     1      31.561  75.962  18.946  1.00  0.00     0.047 A 
HETATM    9  C   UNL     1      31.119  77.269  18.741  1.00  0.00    -0.049 A 
HETATM   10  C   UNL     1      30.875  78.103  19.832  1.00  0.00     0.010 A 
HETATM   11  C   UNL     1      31.071  77.630  21.128  1.00  0.00     0.040 A 
HETATM   12  C   UNL     1      31.512  76.323  21.335  1.00  0.00     0.101 A 
BRANCH   9  13
HETATM   13  C   UNL     1      30.906  77.783  17.333  1.00  0.00     0.045 C 
HETATM   14  C   UNL     1      32.149  78.321  16.623  1.00  0.00     0.132 C 
HETATM   15  N   UNL     1      31.814  78.231  15.230  1.00  0.00    -0.360 N 
HETATM   16  C   UNL     1      30.791  77.326  14.984  1.00  0.00     0.218 C 
HETATM   17  H   UNL     1      32.261  78.755  14.526  1.00  0.00     0.162 HD
HETATM   18  O   UNL     1      30.328  77.006  13.901  1.00  0.00    -0.274 OA
HETATM   19  C   UNL     1      30.378  76.751  16.317  1.00  0.00     0.113 C 
ENDBRANCH   9  13
BRANCH  12  20
HETATM   20  O   UNL     1      31.702  75.871  22.607  1.00  0.00    -0.353 OA
HETATM   21  C   UNL     1      30.589  75.250  23.245  1.00  0.00     0.210 C 
ENDBRANCH  12  20
ENDBRANCH   1   7
TORSDOF 4
ENDMDL
MODEL 7
REMARK VINA RESULT:      -6.9      2.660      6.322
REMARK  4 active torsions:
REMARK  status: ('A' for Active; 'I' for Inactive)
REMARK    1  A    between atoms: O_1  and  C_5 
REMARK    2  A    between atoms: O_1  and  C_14 
REMARK    3  A    between atoms: O_2  and  C_18 
REMARK    4  A    between atoms: C_10  and  C_13 
ROOT
HETATM    1  O   UNL     1      32.014  74.366  20.689  1.00  0.00    -0.343 OA
ENDROOT
BRANCH   1   2
HETATM    2  C   UNL     1      33.412  74.107  20.717  1.00  0.00     0.129 C 
HETATM    3  C   UNL     1      33.692  72.772  20.043  1.00  0.00     0.032 C 
HETATM    4  C   UNL     1      33.355  71.728  21.106  1.00  0.00     0.002 C 
HETATM    5  C   UNL     1      33.445  72.444  22.453  1.00  0.00     0.002 C 
HETATM    6  C   UNL     1      33.879  73.875  22.145  1.00  0.00     0.032 C 
ENDBRANCH   1   2
BRANCH   1   7
HETATM    7  C   UNL     1      31.610  75.503  20.041  1.00  0.00     0.103 A 
HETATM    8  C   UNL     1      31.401  75.461  18.666  1.00  0.00     0.047 A 
HETATM    9  C   UNL     1      30.990  76.612  17.994  1.00  0.00    -0.049 A 
HETATM   10  C   UNL     1      30.793  77.800  18.699  1.00  0.00     0.010 A 
HETATM   11  C   UNL     1      31.005  77.835  20.077  1.00  0.00     0.040 A 
HETATM   12  C   UNL     1      31.415  76.684  20.750  1.00  0.00     0.101 A 
BRANCH   9  13
HETATM   13  C   UNL     1      30.760  76.574  16.498  1.00  0.00     0.045 C 
HETATM   14  C   UNL     1      30.207  75.260  15.943  1.00  0.00     0.132 C 
HETATM   15  N   UNL     1      29.604  75.642  14.697  1.00  0.00    -0.360 N 
HETATM   16  C   UNL     1      29.307  76.997  14.641  1.00  0.00     0.218 C 
HETATM   17  H   UNL     1      29.420  75.013  13.963  1.00  0.00     0.162 HD
HETATM   18  O   UNL     1      28.752  77.598  13.736  1.00  0.00    -0.274 OA
HETATM   19  C   UNL     1      29.753  77.603  15.950  1.00  0.00     0.113 C 
ENDBRANCH   9  13
BRANCH  12  20
HETATM   20  O   UNL     1      31.620  76.731  22.096  1.00  0.00    -0.353 OA
HETATM   21  C   UNL     1      32.756  77.461  22.552  1.00  0.00     0.210 C 
ENDBRANCH  12  20
ENDBRANCH   1   7
TORSDOF 4
ENDMDL
MODEL 8
REMARK VINA RESULT:      -6.9      2.961      5.261
REMARK  4 active torsions:
REMARK  status: ('A' for Active; 'I' for Inactive)
REMARK    1  A    between atoms: O_1  and  C_5 
REMARK    2  A    between atoms: O_1  and  C_14 
REMARK    3  A    between atoms: O_2  and  C_18 
REMARK    4  A    between atoms: C_10  and  C_13 
ROOT
HETATM    1  O   UNL     1      31.018  75.805  16.882  1.00  0.00    -0.343 OA
ENDROOT
BRANCH   1   2
HETATM    2  C   UNL     1      32.094  76.214  16.047  1.00  0.00     0.129 C 
HETATM    3  C   UNL     1      31.719  77.506  15.336  1.00  0.00     0.032 C 
HETATM    4  C   UNL     1      30.830  77.061  14.176  1.00  0.00     0.002 C 
HETATM    5  C   UNL     1      31.167  75.592  13.918  1.00  0.00     0.002 C 
HETATM    6  C   UNL     1      32.278  75.232  14.901  1.00  0.00     0.032 C 
ENDBRANCH   1   2
BRANCH   1   7
HETATM    7  C   UNL     1      31.203  75.931  18.233  1.00  0.00     0.103 A 
HETATM    8  C   UNL     1      31.042  77.180  18.825  1.00  0.00     0.047 A 
HETATM    9  C   UNL     1      31.228  77.322  20.201  1.00  0.00    -0.049 A 
HETATM   10  C   UNL     1      31.577  76.215  20.976  1.00  0.00     0.010 A 
HETATM   11  C   UNL     1      31.737  74.967  20.376  1.00  0.00     0.040 A 
HETATM   12  C   UNL     1      31.550  74.824  19.000  1.00  0.00     0.101 A 
BRANCH   9  13
HETATM   13  C   UNL     1      31.053  78.677  20.852  1.00  0.00     0.045 C 
HETATM   14  C   UNL     1      29.793  78.851  21.700  1.00  0.00     0.132 C 
HETATM   15  N   UNL     1      30.121  79.936  22.582  1.00  0.00    -0.360 N 
HETATM   16  C   UNL     1      31.490  80.125  22.710  1.00  0.00     0.218 C 
HETATM   17  H   UNL     1      29.448  80.486  23.045  1.00  0.00     0.162 HD
HETATM   18  O   UNL     1      32.064  80.934  23.421  1.00  0.00    -0.274 OA
HETATM   19  C   UNL     1      32.163  79.094  21.836  1.00  0.00     0.113 C 
ENDBRANCH   9  13
BRANCH  12  20
HETATM   20  O   UNL     1      31.711  73.600  18.425  1.00  0.00    -0.353 OA
HETATM   21  C   UNL     1      30.773  72.588  18.784  1.00  0.00     0.210 C 
ENDBRANCH  12  20
ENDBRANCH   1   7
TORSDOF 4
ENDMDL
MODEL 9
REMARK VINA RESULT:      -6.8      3.273      5.352
REMARK  4 active torsions:
REMARK  status: ('A' for Active; 'I' for Inactive)
REMARK    1  A    between atoms: O_1  and  C_5 
REMARK    2  A    between atoms: O_1  and  C_14 
REMARK    3  A    between atoms: O_2  and  C_18 
REMARK    4  A    between atoms: C_10  and  C_13 
ROOT
HETATM    1  O   UNL     1      31.288  74.542  15.953  1.00  0.00    -0.343 OA
ENDROOT
BRANCH   1   2
HETATM    2  C   UNL     1      32.660  74.239  15.737  1.00  0.00     0.129 C 
HETATM    3  C   UNL     1      33.194  75.098  14.601  1.00  0.00     0.032 C 
HETATM    4  C   UNL     1      32.714  74.397  13.331  1.00  0.00     0.002 C 
HETATM    5  C   UNL     1      32.439  72.945  13.722  1.00  0.00     0.002 C 
HETATM    6  C   UNL     1      32.811  72.825  15.198  1.00  0.00     0.032 C 
ENDBRANCH   1   2
BRANCH   1   7
HETATM    7  C   UNL     1      31.010  75.729  16.579  1.00  0.00     0.103 A 
HETATM    8  C   UNL     1      31.474  75.937  17.874  1.00  0.00     0.047 A 
HETATM    9  C   UNL     1      31.196  77.140  18.523  1.00  0.00    -0.049 A 
HETATM   10  C   UNL     1      30.455  78.128  17.874  1.00  0.00     0.010 A 
HETATM   11  C   UNL     1      29.993  77.913  16.576  1.00  0.00     0.040 A 
HETATM   12  C   UNL     1      30.270  76.710  15.926  1.00  0.00     0.101 A 
BRANCH   9  13
HETATM   13  C   UNL     1      31.699  77.374  19.931  1.00  0.00     0.045 C 
HETATM   14  C   UNL     1      30.951  78.436  20.738  1.00  0.00     0.132 C 
HETATM   15  N   UNL     1      31.240  78.095  22.103  1.00  0.00    -0.360 N 
HETATM   16  C   UNL     1      31.642  76.775  22.249  1.00  0.00     0.218 C 
HETATM   17  H   UNL     1      31.161  78.728  22.853  1.00  0.00     0.162 HD
HETATM   18  O   UNL     1      31.906  76.190  23.288  1.00  0.00    -0.274 OA
HETATM   19  C   UNL     1      31.642  76.156  20.872  1.00  0.00     0.113 C 
ENDBRANCH   9  13
BRANCH  12  20
HETATM   20  O   UNL     1      29.812  76.510  14.659  1.00  0.00    -0.353 OA
HETATM   21  C   UNL     1      30.377  77.322  13.632  1.00  0.00     0.210 C 
ENDBRANCH  12  20
ENDBRANCH   1   7
TORSDOF 4
ENDMDL
