MODEL 1
REMARK VINA RESULT:      -7.9      0.000      0.000
REMARK  4 active torsions:
REMARK  status: ('A' for Active; 'I' for Inactive)
REMARK    1  A    between atoms: O_1  and  C_5 
REMARK    2  A    between atoms: O_1  and  C_14 
REMARK    3  A    between atoms: O_2  and  C_18 
REMARK    4  A    between atoms: C_10  and  C_13 
ROOT
HETATM    1  O   UNL     1      30.918  78.497  20.470  1.00  0.00    -0.343 OA
ENDROOT
BRANCH   1   2
HETATM    2  C   UNL     1      30.895  78.293  21.877  1.00  0.00     0.129 C 
HETATM    3  C   UNL     1      30.179  79.458  22.544  1.00  0.00     0.032 C 
HETATM    4  C   UNL     1      31.225  80.570  22.600  1.00  0.00     0.002 C 
HETATM    5  C   UNL     1      32.587  79.881  22.506  1.00  0.00     0.002 C 
HETATM    6  C   UNL     1      32.302  78.383  22.448  1.00  0.00     0.032 C 
ENDBRANCH   1   2
BRANCH   1   7
HETATM    7  C   UNL     1      31.134  77.391  19.690  1.00  0.00     0.103 A 
HETATM    8  C   UNL     1      31.669  76.246  20.272  1.00  0.00     0.047 A 
HETATM    9  C   UNL     1      31.895  75.114  19.489  1.00  0.00    -0.049 A 
HETATM   10  C   UNL     1      31.586  75.133  18.129  1.00  0.00     0.010 A 
HETATM   11  C   UNL     1      31.050  76.284  17.552  1.00  0.00     0.040 A 
HETATM   12  C   UNL     1      30.824  77.416  18.334  1.00  0.00     0.101 A 
BRANCH   9  13
HETATM   13  C   UNL     1      32.475  73.864  20.115  1.00  0.00     0.045 C 
HETATM   14  C   UNL     1      33.844  73.429  19.591  1.00  0.00     0.132 C 
HETATM   15  N   UNL     1      34.373  72.616  20.649  1.00  0.00    -0.360 N 
HETATM   16  C   UNL     1      33.763  72.864  21.870  1.00  0.00     0.218 C 
HETATM   17  H   UNL     1      35.091  71.953  20.522  1.00  0.00     0.162 HD
HETATM   18  O   UNL     1      34.033  72.364  22.950  1.00  0.00    -0.274 OA
HETATM   19  C   UNL     1      32.719  73.929  21.635  1.00  0.00     0.113 C 
ENDBRANCH   9  13
BRANCH  12  20
HETATM   20  O   UNL     1      30.301  78.535  17.760  1.00  0.00    -0.353 OA
HETATM   21  C   UNL     1      30.107  78.507  16.348  1.00  0.00     0.210 C 
ENDBRANCH  12  20
ENDBRANCH   1   7
TORSDOF 4
ENDMDL
MODEL 2
REMARK VINA RESULT:      -7.8      1.247      4.023
REMARK  4 active torsions:
REMARK  status: ('A' for Active; 'I' for Inactive)
REMARK    1  A    between atoms: O_1  and  C_5 
REMARK    2  A    between atoms: O_1  and  C_14 
REMARK    3  A    between atoms: O_2  and  C_18 
REMARK    4  A    between atoms: C_10  and  C_13 
ROOT
HETATM    1  O   UNL     1      31.061  77.524  18.903  1.00  0.00    -0.343 OA
ENDROOT
BRANCH   1   2
HETATM    2  C   UNL     1      31.700  77.040  17.728  1.00  0.00     0.129 C 
HETATM    3  C   UNL     1      32.131  78.217  16.866  1.00  0.00     0.032 C 
HETATM    4  C   UNL     1      30.857  78.649  16.141  1.00  0.00     0.002 C 
HETATM    5  C   UNL     1      29.926  77.436  16.154  1.00  0.00     0.002 C 
HETATM    6  C   UNL     1      30.699  76.314  16.842  1.00  0.00     0.032 C 
ENDBRANCH   1   2
BRANCH   1   7
HETATM    7  C   UNL     1      31.549  77.073  20.101  1.00  0.00     0.103 A 
HETATM    8  C   UNL     1      31.698  75.704  20.299  1.00  0.00     0.047 A 
HETATM    9  C   UNL     1      32.193  75.232  21.515  1.00  0.00    -0.049 A 
HETATM   10  C   UNL     1      32.535  76.130  22.526  1.00  0.00     0.010 A 
HETATM   11  C   UNL     1      32.382  77.501  22.321  1.00  0.00     0.040 A 
HETATM   12  C   UNL     1      31.887  77.975  21.105  1.00  0.00     0.101 A 
BRANCH   9  13
HETATM   13  C   UNL     1      32.360  73.744  21.737  1.00  0.00     0.045 C 
HETATM   14  C   UNL     1      32.388  72.880  20.475  1.00  0.00     0.132 C 
HETATM   15  N   UNL     1      33.060  71.683  20.895  1.00  0.00    -0.360 N 
HETATM   16  C   UNL     1      33.824  71.872  22.039  1.00  0.00     0.218 C 
HETATM   17  H   UNL     1      32.987  70.822  20.424  1.00  0.00     0.162 HD
HETATM   18  O   UNL     1      34.537  71.055  22.598  1.00  0.00    -0.274 OA
HETATM   19  C   UNL     1      33.657  73.315  22.449  1.00  0.00     0.113 C 
ENDBRANCH   9  13
BRANCH  12  20
HETATM   20  O   UNL     1      31.742  79.316  20.916  1.00  0.00    -0.353 OA
HETATM   21  C   UNL     1      31.878  80.149  22.065  1.00  0.00     0.210 C 
ENDBRANCH  12  20
ENDBRANCH   1   7
TORSDOF 4
ENDMDL
MODEL 3
REMARK VINA RESULT:      -7.3      2.761      5.992
REMARK  4 active torsions:
REMARK  status: ('A' for Active; 'I' for Inactive)
REMARK    1  A    between atoms: O_1  and  C_5 
REMARK    2  A    between atoms: O_1  and  C_14 
REMARK    3  A    between atoms: O_2  and  C_18 
REMARK    4  A    between atoms: C_10  and  C_13 
ROOT
HETATM    1  O   UNL     1      32.049  73.141  21.340  1.00  0.00    -0.343 OA
ENDROOT
BRANCH   1   2
HETATM    2  C   UNL     1      33.284  73.160  22.043  1.00  0.00     0.129 C 
HETATM    3  C   UNL     1      34.429  72.961  21.060  1.00  0.00     0.032 C 
HETATM    4  C   UNL     1      34.458  71.455  20.805  1.00  0.00     0.002 C 
HETATM    5  C   UNL     1      33.768  70.805  22.004  1.00  0.00     0.002 C 
HETATM    6  C   UNL     1      33.396  71.944  22.950  1.00  0.00     0.032 C 
ENDBRANCH   1   2
BRANCH   1   7
HETATM    7  C   UNL     1      31.817  74.176  20.472  1.00  0.00     0.103 A 
HETATM    8  C   UNL     1      31.886  75.483  20.945  1.00  0.00     0.047 A 
HETATM    9  C   UNL     1      31.651  76.546  20.072  1.00  0.00    -0.049 A 
HETATM   10  C   UNL     1      31.346  76.296  18.734  1.00  0.00     0.010 A 
HETATM   11  C   UNL     1      31.278  74.984  18.268  1.00  0.00     0.040 A 
HETATM   12  C   UNL     1      31.514  73.920  19.139  1.00  0.00     0.101 A 
BRANCH   9  13
HETATM   13  C   UNL     1      31.726  77.970  20.578  1.00  0.00     0.045 C 
HETATM   14  C   UNL     1      30.386  78.682  20.769  1.00  0.00     0.132 C 
HETATM   15  N   UNL     1      30.684  79.728  21.706  1.00  0.00    -0.360 N 
HETATM   16  C   UNL     1      31.837  79.478  22.436  1.00  0.00     0.218 C 
HETATM   17  H   UNL     1      30.131  80.535  21.818  1.00  0.00     0.162 HD
HETATM   18  O   UNL     1      32.311  80.159  23.331  1.00  0.00    -0.274 OA
HETATM   19  C   UNL     1      32.388  78.156  21.957  1.00  0.00     0.113 C 
ENDBRANCH   9  13
BRANCH  12  20
HETATM   20  O   UNL     1      31.443  72.642  18.673  1.00  0.00    -0.353 OA
HETATM   21  C   UNL     1      32.417  72.250  17.709  1.00  0.00     0.210 C 
ENDBRANCH  12  20
ENDBRANCH   1   7
TORSDOF 4
ENDMDL
MODEL 4
REMARK VINA RESULT:      -7.1      2.774      6.580
REMARK  4 active torsions:
REMARK  status: ('A' for Active; 'I' for Inactive)
REMARK    1  A    between atoms: O_1  and  C_5 
REMARK    2  A    between atoms: O_1  and  C_14 
REMARK    3  A    between atoms: O_2  and  C_18 
REMARK    4  A    between atoms: C_10  and  C_13 
ROOT
HETATM    1  O   UNL     1      32.475  74.517  18.449  1.00  0.00    -0.343 OA
ENDROOT
BRANCH   1   2
HETATM    2  C   UNL     1      31.337  74.797  17.645  1.00  0.00     0.129 C 
HETATM    3  C   UNL     1      30.764  73.493  17.109  1.00  0.00     0.032 C 
HETATM    4  C   UNL     1      31.663  73.137  15.926  1.00  0.00     0.002 C 
HETATM    5  C   UNL     1      32.319  74.443  15.479  1.00  0.00     0.002 C 
HETATM    6  C   UNL     1      31.750  75.535  16.381  1.00  0.00     0.032 C 
ENDBRANCH   1   2
BRANCH   1   7
HETATM    7  C   UNL     1      32.500  75.077  19.700  1.00  0.00     0.103 A 
HETATM    8  C   UNL     1      32.083  76.395  19.859  1.00  0.00     0.047 A 
HETATM    9  C   UNL     1      32.104  76.978  21.127  1.00  0.00    -0.049 A 
HETATM   10  C   UNL     1      32.544  76.241  22.226  1.00  0.00     0.010 A 
HETATM   11  C   UNL     1      32.961  74.921  22.059  1.00  0.00     0.040 A 
HETATM   12  C   UNL     1      32.939  74.337  20.792  1.00  0.00     0.101 A 
BRANCH   9  13
HETATM   13  C   UNL     1      31.651  78.410  21.308  1.00  0.00     0.045 C 
HETATM   14  C   UNL     1      30.226  78.597  21.832  1.00  0.00     0.132 C 
HETATM   15  N   UNL     1      30.240  79.917  22.397  1.00  0.00    -0.360 N 
HETATM   16  C   UNL     1      31.522  80.353  22.703  1.00  0.00     0.218 C 
HETATM   17  H   UNL     1      29.429  80.453  22.552  1.00  0.00     0.162 HD
HETATM   18  O   UNL     1      31.840  81.405  23.234  1.00  0.00    -0.274 OA
HETATM   19  C   UNL     1      32.472  79.250  22.305  1.00  0.00     0.113 C 
ENDBRANCH   9  13
BRANCH  12  20
HETATM   20  O   UNL     1      33.350  73.047  20.640  1.00  0.00    -0.353 OA
HETATM   21  C   UNL     1      33.205  72.185  21.767  1.00  0.00     0.210 C 
ENDBRANCH  12  20
ENDBRANCH   1   7
TORSDOF 4
ENDMDL
MODEL 5
REMARK VINA RESULT:      -7.1      2.780      6.350
REMARK  4 active torsions:
REMARK  status: ('A' for Active; 'I' for Inactive)
REMARK    1  A    between atoms: O_1  and  C_5 
REMARK    2  A    between atoms: O_1  and  C_14 
REMARK    3  A    between atoms: O_2  and  C_18 
REMARK    4  A    between atoms: C_10  and  C_13 
ROOT
HETATM    1  O   UNL     1      32.217  74.204  20.399  1.00  0.00    -0.343 OA
ENDROOT
BRANCH   1   2
HETATM    2  C   UNL     1      33.622  73.996  20.320  1.00  0.00     0.129 C 
HETATM    3  C   UNL     1      33.910  72.865  19.344  1.00  0.00     0.032 C 
HETATM    4  C   UNL     1      33.645  71.590  20.145  1.00  0.00     0.002 C 
HETATM    5  C   UNL     1      33.770  71.977  21.618  1.00  0.00     0.002 C 
HETATM    6  C   UNL     1      34.152  73.455  21.639  1.00  0.00     0.032 C 
ENDBRANCH   1   2
BRANCH   1   7
HETATM    7  C   UNL     1      31.772  75.486  20.214  1.00  0.00     0.103 A 
HETATM    8  C   UNL     1      31.572  75.952  18.918  1.00  0.00     0.047 A 
HETATM    9  C   UNL     1      31.120  77.257  18.716  1.00  0.00    -0.049 A 
HETATM   10  C   UNL     1      30.873  78.087  19.809  1.00  0.00     0.010 A 
HETATM   11  C   UNL     1      31.076  77.614  21.104  1.00  0.00     0.040 A 
HETATM   12  C   UNL     1      31.528  76.309  21.308  1.00  0.00     0.101 A 
BRANCH   9  13
HETATM   13  C   UNL     1      30.898  77.771  17.309  1.00  0.00     0.045 C 
HETATM   14  C   UNL     1      32.132  78.335  16.603  1.00  0.00     0.132 C 
HETATM   15  N   UNL     1      31.800  78.244  15.210  1.00  0.00    -0.360 N 
HETATM   16  C   UNL     1      30.795  77.319  14.959  1.00  0.00     0.218 C 
HETATM   17  H   UNL     1      32.237  78.778  14.508  1.00  0.00     0.162 HD
HETATM   18  O   UNL     1      30.340  76.994  13.875  1.00  0.00    -0.274 OA
HETATM   19  C   UNL     1      30.391  76.732  16.290  1.00  0.00     0.113 C 
ENDBRANCH   9  13
BRANCH  12  20
HETATM   20  O   UNL     1      31.724  75.858  22.578  1.00  0.00    -0.353 OA
HETATM   21  C   UNL     1      30.607  75.261  23.233  1.00  0.00     0.210 C 
ENDBRANCH  12  20
ENDBRANCH   1   7
TORSDOF 4
ENDMDL
MODEL 6
REMARK VINA RESULT:      -7.1      2.846      6.194
REMARK  4 active torsions:
REMARK  status: ('A' for Active; 'I' for Inactive)
REMARK    1  A    between atoms: O_1  and  C_5 
REMARK    2  A    between atoms: O_1  and  C_14 
REMARK    3  A    between atoms: O_2  and  C_18 
REMARK    4  A    between atoms: C_10  and  C_13 
ROOT
HETATM    1  O   UNL     1      32.656  74.496  20.576  1.00  0.00    -0.343 OA
ENDROOT
BRANCH   1   2
HETATM    2  C   UNL     1      32.106  73.210  20.320  1.00  0.00     0.129 C 
HETATM    3  C   UNL     1      30.812  73.048  21.105  1.00  0.00     0.032 C 
HETATM    4  C   UNL     1      31.265  72.704  22.523  1.00  0.00     0.002 C 
HETATM    5  C   UNL     1      32.681  72.141  22.395  1.00  0.00     0.002 C 
HETATM    6  C   UNL     1      32.999  72.126  20.902  1.00  0.00     0.032 C 
ENDBRANCH   1   2
BRANCH   1   7
HETATM    7  C   UNL     1      32.028  75.563  19.990  1.00  0.00     0.103 A 
HETATM    8  C   UNL     1      31.743  75.518  18.629  1.00  0.00     0.047 A 
HETATM    9  C   UNL     1      31.105  76.599  18.020  1.00  0.00    -0.049 A 
HETATM   10  C   UNL     1      30.758  77.719  18.775  1.00  0.00     0.010 A 
HETATM   11  C   UNL     1      31.047  77.759  20.138  1.00  0.00     0.040 A 
HETATM   12  C   UNL     1      31.684  76.678  20.748  1.00  0.00     0.101 A 
BRANCH   9  13
HETATM   13  C   UNL     1      30.791  76.556  16.540  1.00  0.00     0.045 C 
HETATM   14  C   UNL     1      30.130  75.272  16.036  1.00  0.00     0.132 C 
HETATM   15  N   UNL     1      29.483  75.676  14.819  1.00  0.00    -0.360 N 
HETATM   16  C   UNL     1      29.267  77.045  14.758  1.00  0.00     0.218 C 
HETATM   17  H   UNL     1      29.221  75.049  14.106  1.00  0.00     0.162 HD
HETATM   18  O   UNL     1      28.701  77.668  13.875  1.00  0.00    -0.274 OA
HETATM   19  C   UNL     1      29.820  77.639  16.031  1.00  0.00     0.113 C 
ENDBRANCH   9  13
BRANCH  12  20
HETATM   20  O   UNL     1      31.963  76.728  22.081  1.00  0.00    -0.353 OA
HETATM   21  C   UNL     1      30.949  76.267  22.971  1.00  0.00     0.210 C 
ENDBRANCH  12  20
ENDBRANCH   1   7
TORSDOF 4
ENDMDL
MODEL 7
REMARK VINA RESULT:      -7.0      3.252      6.073
REMARK  4 active torsions:
REMARK  status: ('A' for Active; 'I' for Inactive)
REMARK    1  A    between atoms: O_1  and  C_5 
REMARK    2  A    between atoms: O_1  and  C_14 
REMARK    3  A    between atoms: O_2  and  C_18 
REMARK    4  A    between atoms: C_10  and  C_13 
ROOT
HETATM    1  O   UNL     1      31.598  74.475  15.782  1.00  0.00    -0.343 OA
ENDROOT
BRANCH   1   2
HETATM    2  C   UNL     1      32.978  74.285  15.498  1.00  0.00     0.129 C 
HETATM    3  C   UNL     1      33.380  75.176  14.332  1.00  0.00     0.032 C 
HETATM    4  C   UNL     1      32.897  74.426  13.091  1.00  0.00     0.002 C 
HETATM    5  C   UNL     1      32.765  72.960  13.503  1.00  0.00     0.002 C 
HETATM    6  C   UNL     1      33.220  72.884  14.958  1.00  0.00     0.032 C 
ENDBRANCH   1   2
BRANCH   1   7
HETATM    7  C   UNL     1      31.260  75.614  16.465  1.00  0.00     0.103 A 
HETATM    8  C   UNL     1      31.771  75.814  17.743  1.00  0.00     0.047 A 
HETATM    9  C   UNL     1      31.433  76.970  18.449  1.00  0.00    -0.049 A 
HETATM   10  C   UNL     1      30.585  77.916  17.873  1.00  0.00     0.010 A 
HETATM   11  C   UNL     1      30.076  77.709  16.592  1.00  0.00     0.040 A 
HETATM   12  C   UNL     1      30.414  76.554  15.885  1.00  0.00     0.101 A 
BRANCH   9  13
HETATM   13  C   UNL     1      31.986  77.195  19.839  1.00  0.00     0.045 C 
HETATM   14  C   UNL     1      31.452  78.423  20.578  1.00  0.00     0.132 C 
HETATM   15  N   UNL     1      31.690  78.121  21.961  1.00  0.00    -0.360 N 
HETATM   16  C   UNL     1      31.849  76.761  22.191  1.00  0.00     0.218 C 
HETATM   17  H   UNL     1      31.735  78.803  22.670  1.00  0.00     0.162 HD
HETATM   18  O   UNL     1      32.015  76.204  23.264  1.00  0.00    -0.274 OA
HETATM   19  C   UNL     1      31.721  76.068  20.856  1.00  0.00     0.113 C 
ENDBRANCH   9  13
BRANCH  12  20
HETATM   20  O   UNL     1      29.910  76.361  14.635  1.00  0.00    -0.353 OA
HETATM   21  C   UNL     1      30.387  77.224  13.604  1.00  0.00     0.210 C 
ENDBRANCH  12  20
ENDBRANCH   1   7
TORSDOF 4
ENDMDL
MODEL 8
REMARK VINA RESULT:      -7.0      3.237      5.924
REMARK  4 active torsions:
REMARK  status: ('A' for Active; 'I' for Inactive)
REMARK    1  A    between atoms: O_1  and  C_5 
REMARK    2  A    between atoms: O_1  and  C_14 
REMARK    3  A    between atoms: O_2  and  C_18 
REMARK    4  A    between atoms: C_10  and  C_13 
ROOT
HETATM    1  O   UNL     1      31.985  76.972  19.723  1.00  0.00    -0.343 OA
ENDROOT
BRANCH   1   2
HETATM    2  C   UNL     1      31.092  77.080  20.824  1.00  0.00     0.129 C 
HETATM    3  C   UNL     1      30.741  78.544  21.047  1.00  0.00     0.032 C 
HETATM    4  C   UNL     1      31.938  79.114  21.806  1.00  0.00     0.002 C 
HETATM    5  C   UNL     1      32.632  77.924  22.466  1.00  0.00     0.002 C 
HETATM    6  C   UNL     1      31.795  76.696  22.116  1.00  0.00     0.032 C 
ENDBRANCH   1   2
BRANCH   1   7
HETATM    7  C   UNL     1      31.505  76.352  18.599  1.00  0.00     0.103 A 
HETATM    8  C   UNL     1      30.967  77.127  17.576  1.00  0.00     0.047 A 
HETATM    9  C   UNL     1      30.475  76.508  16.427  1.00  0.00    -0.049 A 
HETATM   10  C   UNL     1      30.522  75.119  16.307  1.00  0.00     0.010 A 
HETATM   11  C   UNL     1      31.062  74.349  17.336  1.00  0.00     0.040 A 
HETATM   12  C   UNL     1      31.555  74.967  18.486  1.00  0.00     0.101 A 
BRANCH   9  13
HETATM   13  C   UNL     1      29.889  77.344  15.309  1.00  0.00     0.045 C 
HETATM   14  C   UNL     1      30.639  77.297  13.977  1.00  0.00     0.132 C 
HETATM   15  N   UNL     1      29.651  77.693  13.014  1.00  0.00    -0.360 N 
HETATM   16  C   UNL     1      28.354  77.526  13.479  1.00  0.00     0.218 C 
HETATM   17  H   UNL     1      29.869  78.045  12.121  1.00  0.00     0.162 HD
HETATM   18  O   UNL     1      27.315  77.732  12.872  1.00  0.00    -0.274 OA
HETATM   19  C   UNL     1      28.454  76.980  14.883  1.00  0.00     0.113 C 
ENDBRANCH   9  13
BRANCH  12  20
HETATM   20  O   UNL     1      32.080  74.204  19.485  1.00  0.00    -0.353 OA
HETATM   21  C   UNL     1      31.180  73.349  20.186  1.00  0.00     0.210 C 
ENDBRANCH  12  20
ENDBRANCH   1   7
TORSDOF 4
ENDMDL
MODEL 9
REMARK VINA RESULT:      -6.9      2.015      4.791
REMARK  4 active torsions:
REMARK  status: ('A' for Active; 'I' for Inactive)
REMARK    1  A    between atoms: O_1  and  C_5 
REMARK    2  A    between atoms: O_1  and  C_14 
REMARK    3  A    between atoms: O_2  and  C_18 
REMARK    4  A    between atoms: C_10  and  C_13 
ROOT
HETATM    1  O   UNL     1      32.272  75.759  17.000  1.00  0.00    -0.343 OA
ENDROOT
BRANCH   1   2
HETATM    2  C   UNL     1      31.771  74.478  16.641  1.00  0.00     0.129 C 
HETATM    3  C   UNL     1      32.498  73.981  15.400  1.00  0.00     0.032 C 
HETATM    4  C   UNL     1      31.815  74.707  14.240  1.00  0.00     0.002 C 
HETATM    5  C   UNL     1      30.434  75.120  14.749  1.00  0.00     0.002 C 
HETATM    6  C   UNL     1      30.328  74.584  16.174  1.00  0.00     0.032 C 
ENDBRANCH   1   2
BRANCH   1   7
HETATM    7  C   UNL     1      31.996  76.196  18.269  1.00  0.00     0.103 A 
HETATM    8  C   UNL     1      32.198  75.332  19.341  1.00  0.00     0.047 A 
HETATM    9  C   UNL     1      31.920  75.764  20.638  1.00  0.00    -0.049 A 
HETATM   10  C   UNL     1      31.440  77.056  20.856  1.00  0.00     0.010 A 
HETATM   11  C   UNL     1      31.240  77.916  19.777  1.00  0.00     0.040 A 
HETATM   12  C   UNL     1      31.518  77.485  18.479  1.00  0.00     0.101 A 
BRANCH   9  13
HETATM   13  C   UNL     1      32.138  74.831  21.809  1.00  0.00     0.045 C 
HETATM   14  C   UNL     1      31.101  73.719  21.979  1.00  0.00     0.132 C 
HETATM   15  N   UNL     1      31.788  72.726  22.756  1.00  0.00    -0.360 N 
HETATM   16  C   UNL     1      33.168  72.853  22.685  1.00  0.00     0.218 C 
HETATM   17  H   UNL     1      31.330  72.031  23.281  1.00  0.00     0.162 HD
HETATM   18  O   UNL     1      34.007  72.130  23.197  1.00  0.00    -0.274 OA
HETATM   19  C   UNL     1      33.459  74.038  21.795  1.00  0.00     0.113 C 
ENDBRANCH   9  13
BRANCH  12  20
HETATM   20  O   UNL     1      31.317  78.334  17.433  1.00  0.00    -0.353 OA
HETATM   21  C   UNL     1      30.052  78.267  16.779  1.00  0.00     0.210 C 
ENDBRANCH  12  20
ENDBRANCH   1   7
TORSDOF 4
ENDMDL
