MODEL 1
REMARK VINA RESULT:      -6.6      0.000      0.000
REMARK  5 active torsions:
REMARK  status: ('A' for Active; 'I' for Inactive)
REMARK    1  A    between atoms: O_1  and  C_10 
REMARK    2  A    between atoms: O_2  and  C_12 
REMARK    3  A    between atoms: C_5  and  C_6 
REMARK    4  A    between atoms: C_5  and  C_7 
REMARK    5  A    between atoms: C_7  and  C_13 
ROOT
HETATM    1  O   UNL     1      30.304  74.718  24.171  1.00  0.00    -0.358 OA
HETATM    2  H   UNL     1      30.727  75.006  24.956  1.00  0.00     0.217 HD
ENDROOT
BRANCH   1   3
HETATM    3  C   UNL     1      30.792  75.095  22.956  1.00  0.00     0.099 A 
HETATM    4  C   UNL     1      30.819  76.448  22.619  1.00  0.00     0.046 A 
HETATM    5  C   UNL     1      31.314  76.847  21.377  1.00  0.00    -0.055 A 
HETATM    6  C   UNL     1      31.784  75.892  20.475  1.00  0.00     0.010 A 
HETATM    7  C   UNL     1      31.757  74.540  20.813  1.00  0.00     0.040 A 
HETATM    8  C   UNL     1      31.261  74.141  22.054  1.00  0.00     0.098 A 
BRANCH   5   9
HETATM    9  C   UNL     1      31.343  78.294  21.016  1.00  0.00     0.049 C 
BRANCH   9  10
HETATM   10  C   UNL     1      30.841  79.218  22.132  1.00  0.00     0.117 C 
BRANCH  10  11
HETATM   11  C   UNL     1      31.932  80.136  22.629  1.00  0.00     0.172 C 
HETATM   12  O   UNL     1      32.970  79.466  23.188  1.00  0.00    -0.648 OA
HETATM   13  O   UNL     1      31.899  81.354  22.519  1.00  0.00    -0.648 OA
ENDBRANCH  10  11
ENDBRANCH   9  10
ENDBRANCH   5   9
BRANCH   8  14
HETATM   14  O   UNL     1      31.238  72.817  22.373  1.00  0.00    -0.358 OA
HETATM   15  H   UNL     1      31.877  72.466  22.961  1.00  0.00     0.217 HD
ENDBRANCH   8  14
ENDBRANCH   1   3
TORSDOF 5
ENDMDL
MODEL 2
REMARK VINA RESULT:      -6.5      3.527      4.362
REMARK  5 active torsions:
REMARK  status: ('A' for Active; 'I' for Inactive)
REMARK    1  A    between atoms: O_1  and  C_10 
REMARK    2  A    between atoms: O_2  and  C_12 
REMARK    3  A    between atoms: C_5  and  C_6 
REMARK    4  A    between atoms: C_5  and  C_7 
REMARK    5  A    between atoms: C_7  and  C_13 
ROOT
HETATM    1  O   UNL     1      31.036  78.837  22.924  1.00  0.00    -0.358 OA
HETATM    2  H   UNL     1      30.206  78.979  23.335  1.00  0.00     0.217 HD
ENDROOT
BRANCH   1   3
HETATM    3  C   UNL     1      31.173  77.859  21.986  1.00  0.00     0.099 A 
HETATM    4  C   UNL     1      30.943  78.159  20.644  1.00  0.00     0.046 A 
HETATM    5  C   UNL     1      31.079  77.166  19.674  1.00  0.00    -0.055 A 
HETATM    6  C   UNL     1      31.445  75.873  20.047  1.00  0.00     0.010 A 
HETATM    7  C   UNL     1      31.675  75.572  21.389  1.00  0.00     0.040 A 
HETATM    8  C   UNL     1      31.539  76.565  22.359  1.00  0.00     0.098 A 
BRANCH   5   9
HETATM    9  C   UNL     1      30.833  77.487  18.238  1.00  0.00     0.049 C 
BRANCH   9  10
HETATM   10  C   UNL     1      32.116  77.678  17.421  1.00  0.00     0.117 C 
BRANCH  10  11
HETATM   11  C   UNL     1      31.904  78.624  16.263  1.00  0.00     0.172 C 
HETATM   12  O   UNL     1      30.661  79.166  16.246  1.00  0.00    -0.648 OA
HETATM   13  O   UNL     1      32.767  78.897  15.440  1.00  0.00    -0.648 OA
ENDBRANCH  10  11
ENDBRANCH   9  10
ENDBRANCH   5   9
BRANCH   8  14
HETATM   14  O   UNL     1      31.764  76.261  23.667  1.00  0.00    -0.358 OA
HETATM   15  H   UNL     1      32.617  76.381  24.036  1.00  0.00     0.217 HD
ENDBRANCH   8  14
ENDBRANCH   1   3
TORSDOF 5
ENDMDL
MODEL 3
REMARK VINA RESULT:      -6.2      3.478      4.325
REMARK  5 active torsions:
REMARK  status: ('A' for Active; 'I' for Inactive)
REMARK    1  A    between atoms: O_1  and  C_10 
REMARK    2  A    between atoms: O_2  and  C_12 
REMARK    3  A    between atoms: C_5  and  C_6 
REMARK    4  A    between atoms: C_5  and  C_7 
REMARK    5  A    between atoms: C_7  and  C_13 
ROOT
HETATM    1  O   UNL     1      31.935  74.188  21.801  1.00  0.00    -0.358 OA
HETATM    2  H   UNL     1      32.312  73.607  21.171  1.00  0.00     0.217 HD
ENDROOT
BRANCH   1   3
HETATM    3  C   UNL     1      31.633  75.469  21.449  1.00  0.00     0.099 A 
HETATM    4  C   UNL     1      31.422  75.781  20.107  1.00  0.00     0.046 A 
HETATM    5  C   UNL     1      31.114  77.089  19.735  1.00  0.00    -0.055 A 
HETATM    6  C   UNL     1      31.016  78.086  20.706  1.00  0.00     0.010 A 
HETATM    7  C   UNL     1      31.226  77.774  22.049  1.00  0.00     0.040 A 
HETATM    8  C   UNL     1      31.535  76.466  22.421  1.00  0.00     0.098 A 
BRANCH   5   9
HETATM    9  C   UNL     1      30.888  77.422  18.298  1.00  0.00     0.049 C 
BRANCH   9  10
HETATM   10  C   UNL     1      32.175  77.739  17.528  1.00  0.00     0.117 C 
BRANCH  10  11
HETATM   11  C   UNL     1      31.906  78.615  16.328  1.00  0.00     0.172 C 
HETATM   12  O   UNL     1      30.649  79.120  16.316  1.00  0.00    -0.648 OA
HETATM   13  O   UNL     1      32.740  78.865  15.468  1.00  0.00    -0.648 OA
ENDBRANCH  10  11
ENDBRANCH   9  10
ENDBRANCH   5   9
BRANCH   8  14
HETATM   14  O   UNL     1      31.740  76.173  23.735  1.00  0.00    -0.358 OA
HETATM   15  H   UNL     1      31.200  75.539  24.164  1.00  0.00     0.217 HD
ENDBRANCH   8  14
ENDBRANCH   1   3
TORSDOF 5
ENDMDL
MODEL 4
REMARK VINA RESULT:      -5.9      2.116      5.603
REMARK  5 active torsions:
REMARK  status: ('A' for Active; 'I' for Inactive)
REMARK    1  A    between atoms: O_1  and  C_10 
REMARK    2  A    between atoms: O_2  and  C_12 
REMARK    3  A    between atoms: C_5  and  C_6 
REMARK    4  A    between atoms: C_5  and  C_7 
REMARK    5  A    between atoms: C_7  and  C_13 
ROOT
HETATM    1  O   UNL     1      30.553  78.281  19.100  1.00  0.00    -0.358 OA
HETATM    2  H   UNL     1      29.725  78.678  19.281  1.00  0.00     0.217 HD
ENDROOT
BRANCH   1   3
HETATM    3  C   UNL     1      31.252  77.677  20.102  1.00  0.00     0.099 A 
HETATM    4  C   UNL     1      31.549  76.318  20.008  1.00  0.00     0.046 A 
HETATM    5  C   UNL     1      32.263  75.688  21.028  1.00  0.00    -0.055 A 
HETATM    6  C   UNL     1      32.680  76.418  22.140  1.00  0.00     0.010 A 
HETATM    7  C   UNL     1      32.384  77.777  22.234  1.00  0.00     0.040 A 
HETATM    8  C   UNL     1      31.670  78.407  21.215  1.00  0.00     0.098 A 
BRANCH   5   9
HETATM    9  C   UNL     1      32.580  74.234  20.927  1.00  0.00     0.049 C 
BRANCH   9  10
HETATM   10  C   UNL     1      33.557  73.740  22.001  1.00  0.00     0.117 C 
BRANCH  10  11
HETATM   11  C   UNL     1      33.055  72.487  22.678  1.00  0.00     0.172 C 
HETATM   12  O   UNL     1      34.045  71.775  23.269  1.00  0.00    -0.648 OA
HETATM   13  O   UNL     1      31.876  72.159  22.713  1.00  0.00    -0.648 OA
ENDBRANCH  10  11
ENDBRANCH   9  10
ENDBRANCH   5   9
BRANCH   8  14
HETATM   14  O   UNL     1      31.384  79.735  21.317  1.00  0.00    -0.358 OA
HETATM   15  H   UNL     1      30.978  80.184  20.602  1.00  0.00     0.217 HD
ENDBRANCH   8  14
ENDBRANCH   1   3
TORSDOF 5
ENDMDL
MODEL 5
REMARK VINA RESULT:      -5.9      2.305      5.351
REMARK  5 active torsions:
REMARK  status: ('A' for Active; 'I' for Inactive)
REMARK    1  A    between atoms: O_1  and  C_10 
REMARK    2  A    between atoms: O_2  and  C_12 
REMARK    3  A    between atoms: C_5  and  C_6 
REMARK    4  A    between atoms: C_5  and  C_7 
REMARK    5  A    between atoms: C_7  and  C_13 
ROOT
HETATM    1  O   UNL     1      30.844  79.345  21.010  1.00  0.00    -0.358 OA
HETATM    2  H   UNL     1      30.070  79.702  20.622  1.00  0.00     0.217 HD
ENDROOT
BRANCH   1   3
HETATM    3  C   UNL     1      31.229  78.072  20.712  1.00  0.00     0.099 A 
HETATM    4  C   UNL     1      31.878  77.308  21.681  1.00  0.00     0.046 A 
HETATM    5  C   UNL     1      32.279  76.004  21.389  1.00  0.00    -0.055 A 
HETATM    6  C   UNL     1      32.029  75.465  20.127  1.00  0.00     0.010 A 
HETATM    7  C   UNL     1      31.379  76.229  19.158  1.00  0.00     0.040 A 
HETATM    8  C   UNL     1      30.979  77.533  19.450  1.00  0.00     0.098 A 
BRANCH   5   9
HETATM    9  C   UNL     1      32.973  75.187  22.425  1.00  0.00     0.049 C 
BRANCH   9  10
HETATM   10  C   UNL     1      33.758  74.001  21.853  1.00  0.00     0.117 C 
BRANCH  10  11
HETATM   11  C   UNL     1      33.323  72.694  22.471  1.00  0.00     0.172 C 
HETATM   12  O   UNL     1      31.981  72.611  22.639  1.00  0.00    -0.648 OA
HETATM   13  O   UNL     1      34.095  71.791  22.768  1.00  0.00    -0.648 OA
ENDBRANCH  10  11
ENDBRANCH   9  10
ENDBRANCH   5   9
BRANCH   8  14
HETATM   14  O   UNL     1      30.347  78.270  18.496  1.00  0.00    -0.358 OA
HETATM   15  H   UNL     1      30.748  78.394  17.658  1.00  0.00     0.217 HD
ENDBRANCH   8  14
ENDBRANCH   1   3
TORSDOF 5
ENDMDL
MODEL 6
REMARK VINA RESULT:      -5.9      0.945      2.040
REMARK  5 active torsions:
REMARK  status: ('A' for Active; 'I' for Inactive)
REMARK    1  A    between atoms: O_1  and  C_10 
REMARK    2  A    between atoms: O_2  and  C_12 
REMARK    3  A    between atoms: C_5  and  C_6 
REMARK    4  A    between atoms: C_5  and  C_7 
REMARK    5  A    between atoms: C_7  and  C_13 
ROOT
HETATM    1  O   UNL     1      32.914  73.030  21.587  1.00  0.00    -0.358 OA
HETATM    2  H   UNL     1      33.128  72.886  20.687  1.00  0.00     0.217 HD
ENDROOT
BRANCH   1   3
HETATM    3  C   UNL     1      32.190  74.125  21.949  1.00  0.00     0.099 A 
HETATM    4  C   UNL     1      32.480  75.361  21.372  1.00  0.00     0.046 A 
HETATM    5  C   UNL     1      31.746  76.490  21.735  1.00  0.00    -0.055 A 
HETATM    6  C   UNL     1      30.722  76.383  22.676  1.00  0.00     0.010 A 
HETATM    7  C   UNL     1      30.431  75.147  23.253  1.00  0.00     0.040 A 
HETATM    8  C   UNL     1      31.165  74.018  22.890  1.00  0.00     0.098 A 
BRANCH   5   9
HETATM    9  C   UNL     1      32.057  77.811  21.117  1.00  0.00     0.049 C 
BRANCH   9  10
HETATM   10  C   UNL     1      31.276  78.979  21.732  1.00  0.00     0.117 C 
BRANCH  10  11
HETATM   11  C   UNL     1      32.171  79.882  22.546  1.00  0.00     0.172 C 
HETATM   12  O   UNL     1      31.898  81.197  22.365  1.00  0.00    -0.648 OA
HETATM   13  O   UNL     1      33.036  79.473  23.310  1.00  0.00    -0.648 OA
ENDBRANCH  10  11
ENDBRANCH   9  10
ENDBRANCH   5   9
BRANCH   8  14
HETATM   14  O   UNL     1      30.874  72.817  23.462  1.00  0.00    -0.358 OA
HETATM   15  H   UNL     1      30.663  72.771  24.374  1.00  0.00     0.217 HD
ENDBRANCH   8  14
ENDBRANCH   1   3
TORSDOF 5
ENDMDL
MODEL 7
REMARK VINA RESULT:      -5.9      2.166      2.976
REMARK  5 active torsions:
REMARK  status: ('A' for Active; 'I' for Inactive)
REMARK    1  A    between atoms: O_1  and  C_10 
REMARK    2  A    between atoms: O_2  and  C_12 
REMARK    3  A    between atoms: C_5  and  C_6 
REMARK    4  A    between atoms: C_5  and  C_7 
REMARK    5  A    between atoms: C_7  and  C_13 
ROOT
HETATM    1  O   UNL     1      32.310  73.691  19.374  1.00  0.00    -0.358 OA
HETATM    2  H   UNL     1      33.206  73.507  19.171  1.00  0.00     0.217 HD
ENDROOT
BRANCH   1   3
HETATM    3  C   UNL     1      31.880  74.981  19.446  1.00  0.00     0.099 A 
HETATM    4  C   UNL     1      31.883  75.637  20.677  1.00  0.00     0.046 A 
HETATM    5  C   UNL     1      31.443  76.958  20.764  1.00  0.00    -0.055 A 
HETATM    6  C   UNL     1      31.001  77.623  19.620  1.00  0.00     0.010 A 
HETATM    7  C   UNL     1      30.998  76.967  18.390  1.00  0.00     0.040 A 
HETATM    8  C   UNL     1      31.437  75.646  18.302  1.00  0.00     0.098 A 
BRANCH   5   9
HETATM    9  C   UNL     1      31.447  77.659  22.081  1.00  0.00     0.049 C 
BRANCH   9  10
HETATM   10  C   UNL     1      30.927  79.100  22.014  1.00  0.00     0.117 C 
BRANCH  10  11
HETATM   11  C   UNL     1      31.970  80.091  22.470  1.00  0.00     0.172 C 
HETATM   12  O   UNL     1      32.913  79.534  23.268  1.00  0.00    -0.648 OA
HETATM   13  O   UNL     1      31.982  81.269  22.136  1.00  0.00    -0.648 OA
ENDBRANCH  10  11
ENDBRANCH   9  10
ENDBRANCH   5   9
BRANCH   8  14
HETATM   14  O   UNL     1      31.428  75.015  17.096  1.00  0.00    -0.358 OA
HETATM   15  H   UNL     1      31.041  74.165  17.014  1.00  0.00     0.217 HD
ENDBRANCH   8  14
ENDBRANCH   1   3
TORSDOF 5
ENDMDL
MODEL 8
REMARK VINA RESULT:      -5.8      3.874      4.873
REMARK  5 active torsions:
REMARK  status: ('A' for Active; 'I' for Inactive)
REMARK    1  A    between atoms: O_1  and  C_10 
REMARK    2  A    between atoms: O_2  and  C_12 
REMARK    3  A    between atoms: C_5  and  C_6 
REMARK    4  A    between atoms: C_5  and  C_7 
REMARK    5  A    between atoms: C_7  and  C_13 
ROOT
HETATM    1  O   UNL     1      29.817  79.068  16.710  1.00  0.00    -0.358 OA
HETATM    2  H   UNL     1      29.415  79.662  17.313  1.00  0.00     0.217 HD
ENDROOT
BRANCH   1   3
HETATM    3  C   UNL     1      30.407  77.929  17.168  1.00  0.00     0.099 A 
HETATM    4  C   UNL     1      30.653  77.784  18.532  1.00  0.00     0.046 A 
HETATM    5  C   UNL     1      31.257  76.622  19.013  1.00  0.00    -0.055 A 
HETATM    6  C   UNL     1      31.615  75.605  18.127  1.00  0.00     0.010 A 
HETATM    7  C   UNL     1      31.370  75.750  16.762  1.00  0.00     0.040 A 
HETATM    8  C   UNL     1      30.765  76.912  16.282  1.00  0.00     0.098 A 
BRANCH   5   9
HETATM    9  C   UNL     1      31.520  76.467  20.473  1.00  0.00     0.049 C 
BRANCH   9  10
HETATM   10  C   UNL     1      31.444  77.783  21.256  1.00  0.00     0.117 C 
BRANCH  10  11
HETATM   11  C   UNL     1      32.337  77.759  22.473  1.00  0.00     0.172 C 
HETATM   12  O   UNL     1      32.434  76.529  23.032  1.00  0.00    -0.648 OA
HETATM   13  O   UNL     1      32.934  78.740  22.898  1.00  0.00    -0.648 OA
ENDBRANCH  10  11
ENDBRANCH   9  10
ENDBRANCH   5   9
BRANCH   8  14
HETATM   14  O   UNL     1      30.531  77.044  14.947  1.00  0.00    -0.358 OA
HETATM   15  H   UNL     1      31.243  77.210  14.361  1.00  0.00     0.217 HD
ENDBRANCH   8  14
ENDBRANCH   1   3
TORSDOF 5
ENDMDL
MODEL 9
REMARK VINA RESULT:      -5.8      3.412      5.140
REMARK  5 active torsions:
REMARK  status: ('A' for Active; 'I' for Inactive)
REMARK    1  A    between atoms: O_1  and  C_10 
REMARK    2  A    between atoms: O_2  and  C_12 
REMARK    3  A    between atoms: C_5  and  C_6 
REMARK    4  A    between atoms: C_5  and  C_7 
REMARK    5  A    between atoms: C_7  and  C_13 
ROOT
HETATM    1  O   UNL     1      31.598  76.259  23.601  1.00  0.00    -0.358 OA
HETATM    2  H   UNL     1      31.668  75.347  23.804  1.00  0.00     0.217 HD
ENDROOT
BRANCH   1   3
HETATM    3  C   UNL     1      31.443  76.658  22.307  1.00  0.00     0.099 A 
HETATM    4  C   UNL     1      31.714  75.760  21.276  1.00  0.00     0.046 A 
HETATM    5  C   UNL     1      31.561  76.157  19.947  1.00  0.00    -0.055 A 
HETATM    6  C   UNL     1      31.136  77.452  19.652  1.00  0.00     0.010 A 
HETATM    7  C   UNL     1      30.864  78.350  20.683  1.00  0.00     0.040 A 
HETATM    8  C   UNL     1      31.018  77.953  22.012  1.00  0.00     0.098 A 
BRANCH   5   9
HETATM    9  C   UNL     1      31.851  75.197  18.844  1.00  0.00     0.049 C 
BRANCH   9  10
HETATM   10  C   UNL     1      31.068  75.481  17.556  1.00  0.00     0.117 C 
BRANCH  10  11
HETATM   11  C   UNL     1      31.983  75.596  16.361  1.00  0.00     0.172 C 
HETATM   12  O   UNL     1      32.070  76.862  15.884  1.00  0.00    -0.648 OA
HETATM   13  O   UNL     1      32.603  74.654  15.885  1.00  0.00    -0.648 OA
ENDBRANCH  10  11
ENDBRANCH   9  10
ENDBRANCH   5   9
BRANCH   8  14
HETATM   14  O   UNL     1      30.752  78.839  23.011  1.00  0.00    -0.358 OA
HETATM   15  H   UNL     1      30.752  78.552  23.904  1.00  0.00     0.217 HD
ENDBRANCH   8  14
ENDBRANCH   1   3
TORSDOF 5
ENDMDL
