MODEL 1
REMARK VINA RESULT:      -6.7      0.000      0.000
REMARK  5 active torsions:
REMARK  status: ('A' for Active; 'I' for Inactive)
REMARK    1  A    between atoms: O_1  and  C_10 
REMARK    2  A    between atoms: O_2  and  C_12 
REMARK    3  A    between atoms: C_5  and  C_6 
REMARK    4  A    between atoms: C_5  and  C_7 
REMARK    5  A    between atoms: C_7  and  C_13 
ROOT
HETATM    1  O   UNL     1     -53.817  52.054   9.691  1.00  0.00    -0.358 OA
HETATM    2  H   UNL     1     -54.140  52.221   8.828  1.00  0.00     0.217 HD
ENDROOT
BRANCH   1   3
HETATM    3  C   UNL     1     -53.635  50.772  10.114  1.00  0.00     0.099 A 
HETATM    4  C   UNL     1     -53.658  50.490  11.480  1.00  0.00     0.046 A 
HETATM    5  C   UNL     1     -53.472  49.182  11.925  1.00  0.00    -0.055 A 
HETATM    6  C   UNL     1     -53.262  48.155  11.005  1.00  0.00     0.010 A 
HETATM    7  C   UNL     1     -53.238  48.436   9.639  1.00  0.00     0.040 A 
HETATM    8  C   UNL     1     -53.425  49.745   9.194  1.00  0.00     0.098 A 
BRANCH   5   9
HETATM    9  C   UNL     1     -53.498  48.881  13.386  1.00  0.00     0.049 C 
BRANCH   9  10
HETATM   10  C   UNL     1     -52.228  48.189  13.896  1.00  0.00     0.117 C 
BRANCH  10  11
HETATM   11  C   UNL     1     -51.739  48.802  15.186  1.00  0.00     0.172 C 
HETATM   12  O   UNL     1     -52.461  49.885  15.562  1.00  0.00    -0.648 OA
HETATM   13  O   UNL     1     -50.805  48.356  15.841  1.00  0.00    -0.648 OA
ENDBRANCH  10  11
ENDBRANCH   9  10
ENDBRANCH   5   9
BRANCH   8  14
HETATM   14  O   UNL     1     -53.398  50.009   7.858  1.00  0.00    -0.358 OA
HETATM   15  H   UNL     1     -53.588  50.872   7.547  1.00  0.00     0.217 HD
ENDBRANCH   8  14
ENDBRANCH   1   3
TORSDOF 5
ENDMDL
MODEL 2
REMARK VINA RESULT:      -6.4      0.723      1.831
REMARK  5 active torsions:
REMARK  status: ('A' for Active; 'I' for Inactive)
REMARK    1  A    between atoms: O_1  and  C_10 
REMARK    2  A    between atoms: O_2  and  C_12 
REMARK    3  A    between atoms: C_5  and  C_6 
REMARK    4  A    between atoms: C_5  and  C_7 
REMARK    5  A    between atoms: C_7  and  C_13 
ROOT
HETATM    1  O   UNL     1     -53.448  47.833   8.434  1.00  0.00    -0.358 OA
HETATM    2  H   UNL     1     -54.079  47.142   8.409  1.00  0.00     0.217 HD
ENDROOT
BRANCH   1   3
HETATM    3  C   UNL     1     -53.477  48.746   9.445  1.00  0.00     0.099 A 
HETATM    4  C   UNL     1     -53.508  48.304  10.767  1.00  0.00     0.046 A 
HETATM    5  C   UNL     1     -53.540  49.229  11.811  1.00  0.00    -0.055 A 
HETATM    6  C   UNL     1     -53.541  50.596  11.532  1.00  0.00     0.010 A 
HETATM    7  C   UNL     1     -53.510  51.037  10.210  1.00  0.00     0.040 A 
HETATM    8  C   UNL     1     -53.478  50.113   9.166  1.00  0.00     0.098 A 
BRANCH   5   9
HETATM    9  C   UNL     1     -53.572  48.756  13.225  1.00  0.00     0.049 C 
BRANCH   9  10
HETATM   10  C   UNL     1     -52.255  48.127  13.696  1.00  0.00     0.117 C 
BRANCH  10  11
HETATM   11  C   UNL     1     -51.778  48.736  14.992  1.00  0.00     0.172 C 
HETATM   12  O   UNL     1     -52.484  49.837  15.349  1.00  0.00    -0.648 OA
HETATM   13  O   UNL     1     -50.867  48.274  15.667  1.00  0.00    -0.648 OA
ENDBRANCH  10  11
ENDBRANCH   9  10
ENDBRANCH   5   9
BRANCH   8  14
HETATM   14  O   UNL     1     -53.451  50.555   7.878  1.00  0.00    -0.358 OA
HETATM   15  H   UNL     1     -54.252  50.755   7.434  1.00  0.00     0.217 HD
ENDBRANCH   8  14
ENDBRANCH   1   3
TORSDOF 5
ENDMDL
MODEL 3
REMARK VINA RESULT:      -6.1      1.491      2.513
REMARK  5 active torsions:
REMARK  status: ('A' for Active; 'I' for Inactive)
REMARK    1  A    between atoms: O_1  and  C_10 
REMARK    2  A    between atoms: O_2  and  C_12 
REMARK    3  A    between atoms: C_5  and  C_6 
REMARK    4  A    between atoms: C_5  and  C_7 
REMARK    5  A    between atoms: C_7  and  C_13 
ROOT
HETATM    1  O   UNL     1     -53.543  49.924   7.860  1.00  0.00    -0.358 OA
HETATM    2  H   UNL     1     -53.245  50.667   7.373  1.00  0.00     0.217 HD
ENDROOT
BRANCH   1   3
HETATM    3  C   UNL     1     -53.461  49.925   9.220  1.00  0.00     0.099 A 
HETATM    4  C   UNL     1     -53.207  48.731   9.892  1.00  0.00     0.046 A 
HETATM    5  C   UNL     1     -53.122  48.718  11.285  1.00  0.00    -0.055 A 
HETATM    6  C   UNL     1     -53.290  49.902  12.004  1.00  0.00     0.010 A 
HETATM    7  C   UNL     1     -53.544  51.097  11.331  1.00  0.00     0.040 A 
HETATM    8  C   UNL     1     -53.629  51.109   9.939  1.00  0.00     0.098 A 
BRANCH   5   9
HETATM    9  C   UNL     1     -52.850  47.440  12.004  1.00  0.00     0.049 C 
BRANCH   9  10
HETATM   10  C   UNL     1     -52.466  47.630  13.476  1.00  0.00     0.117 C 
BRANCH  10  11
HETATM   11  C   UNL     1     -51.693  46.447  14.007  1.00  0.00     0.172 C 
HETATM   12  O   UNL     1     -52.102  45.269  13.477  1.00  0.00    -0.648 OA
HETATM   13  O   UNL     1     -50.776  46.540  14.813  1.00  0.00    -0.648 OA
ENDBRANCH  10  11
ENDBRANCH   9  10
ENDBRANCH   5   9
BRANCH   8  14
HETATM   14  O   UNL     1     -53.879  52.281   9.293  1.00  0.00    -0.358 OA
HETATM   15  H   UNL     1     -54.424  52.930   9.693  1.00  0.00     0.217 HD
ENDBRANCH   8  14
ENDBRANCH   1   3
TORSDOF 5
ENDMDL
MODEL 4
REMARK VINA RESULT:      -6.0      3.052      4.826
REMARK  5 active torsions:
REMARK  status: ('A' for Active; 'I' for Inactive)
REMARK    1  A    between atoms: O_1  and  C_10 
REMARK    2  A    between atoms: O_2  and  C_12 
REMARK    3  A    between atoms: C_5  and  C_6 
REMARK    4  A    between atoms: C_5  and  C_7 
REMARK    5  A    between atoms: C_7  and  C_13 
ROOT
HETATM    1  O   UNL     1     -53.338  50.755   7.823  1.00  0.00    -0.358 OA
HETATM    2  H   UNL     1     -52.642  51.341   7.605  1.00  0.00     0.217 HD
ENDROOT
BRANCH   1   3
HETATM    3  C   UNL     1     -53.351  50.133   9.035  1.00  0.00     0.099 A 
HETATM    4  C   UNL     1     -53.199  48.748   9.097  1.00  0.00     0.046 A 
HETATM    5  C   UNL     1     -53.211  48.100  10.332  1.00  0.00    -0.055 A 
HETATM    6  C   UNL     1     -53.376  48.837  11.504  1.00  0.00     0.010 A 
HETATM    7  C   UNL     1     -53.528  50.221  11.442  1.00  0.00     0.040 A 
HETATM    8  C   UNL     1     -53.516  50.870  10.208  1.00  0.00     0.098 A 
BRANCH   5   9
HETATM    9  C   UNL     1     -53.048  46.619  10.398  1.00  0.00     0.049 C 
BRANCH   9  10
HETATM   10  C   UNL     1     -53.299  45.910   9.061  1.00  0.00     0.117 C 
BRANCH  10  11
HETATM   11  C   UNL     1     -54.704  45.365   8.974  1.00  0.00     0.172 C 
HETATM   12  O   UNL     1     -54.748  44.012   9.015  1.00  0.00    -0.648 OA
HETATM   13  O   UNL     1     -55.703  46.069   8.900  1.00  0.00    -0.648 OA
ENDBRANCH  10  11
ENDBRANCH   9  10
ENDBRANCH   5   9
BRANCH   8  14
HETATM   14  O   UNL     1     -53.667  52.222  10.159  1.00  0.00    -0.358 OA
HETATM   15  H   UNL     1     -53.414  52.749  10.892  1.00  0.00     0.217 HD
ENDBRANCH   8  14
ENDBRANCH   1   3
TORSDOF 5
ENDMDL
MODEL 5
REMARK VINA RESULT:      -5.9      2.650      5.148
REMARK  5 active torsions:
REMARK  status: ('A' for Active; 'I' for Inactive)
REMARK    1  A    between atoms: O_1  and  C_10 
REMARK    2  A    between atoms: O_2  and  C_12 
REMARK    3  A    between atoms: C_5  and  C_6 
REMARK    4  A    between atoms: C_5  and  C_7 
REMARK    5  A    between atoms: C_7  and  C_13 
ROOT
HETATM    1  O   UNL     1     -53.747  51.888   8.981  1.00  0.00    -0.358 OA
HETATM    2  H   UNL     1     -53.556  52.750   9.295  1.00  0.00     0.217 HD
ENDROOT
BRANCH   1   3
HETATM    3  C   UNL     1     -53.568  50.811   9.796  1.00  0.00     0.099 A 
HETATM    4  C   UNL     1     -53.495  49.535   9.239  1.00  0.00     0.046 A 
HETATM    5  C   UNL     1     -53.312  48.424  10.063  1.00  0.00    -0.055 A 
HETATM    6  C   UNL     1     -53.203  48.591  11.444  1.00  0.00     0.010 A 
HETATM    7  C   UNL     1     -53.276  49.867  12.000  1.00  0.00     0.040 A 
HETATM    8  C   UNL     1     -53.458  50.978  11.176  1.00  0.00     0.098 A 
BRANCH   5   9
HETATM    9  C   UNL     1     -53.234  47.059   9.467  1.00  0.00     0.049 C 
BRANCH   9  10
HETATM   10  C   UNL     1     -51.988  46.835   8.601  1.00  0.00     0.117 C 
BRANCH  10  11
HETATM   11  C   UNL     1     -52.352  46.569   7.160  1.00  0.00     0.172 C 
HETATM   12  O   UNL     1     -53.656  46.823   6.890  1.00  0.00    -0.648 OA
HETATM   13  O   UNL     1     -51.551  46.190   6.315  1.00  0.00    -0.648 OA
ENDBRANCH  10  11
ENDBRANCH   9  10
ENDBRANCH   5   9
BRANCH   8  14
HETATM   14  O   UNL     1     -53.530  52.220  11.731  1.00  0.00    -0.358 OA
HETATM   15  H   UNL     1     -53.192  52.961  11.267  1.00  0.00     0.217 HD
ENDBRANCH   8  14
ENDBRANCH   1   3
TORSDOF 5
ENDMDL
MODEL 6
REMARK VINA RESULT:      -5.8      1.071      5.514
REMARK  5 active torsions:
REMARK  status: ('A' for Active; 'I' for Inactive)
REMARK    1  A    between atoms: O_1  and  C_10 
REMARK    2  A    between atoms: O_2  and  C_12 
REMARK    3  A    between atoms: C_5  and  C_6 
REMARK    4  A    between atoms: C_5  and  C_7 
REMARK    5  A    between atoms: C_7  and  C_13 
ROOT
HETATM    1  O   UNL     1     -52.289  50.008  15.612  1.00  0.00    -0.358 OA
HETATM    2  H   UNL     1     -51.509  50.449  15.887  1.00  0.00     0.217 HD
ENDROOT
BRANCH   1   3
HETATM    3  C   UNL     1     -52.220  49.026  14.671  1.00  0.00     0.099 A 
HETATM    4  C   UNL     1     -52.997  49.126  13.517  1.00  0.00     0.046 A 
HETATM    5  C   UNL     1     -52.936  48.127  12.546  1.00  0.00    -0.055 A 
HETATM    6  C   UNL     1     -52.097  47.027  12.729  1.00  0.00     0.010 A 
HETATM    7  C   UNL     1     -51.320  46.927  13.883  1.00  0.00     0.040 A 
HETATM    8  C   UNL     1     -51.381  47.927  14.854  1.00  0.00     0.098 A 
BRANCH   5   9
HETATM    9  C   UNL     1     -53.767  48.234  11.313  1.00  0.00     0.049 C 
BRANCH   9  10
HETATM   10  C   UNL     1     -53.681  49.604  10.628  1.00  0.00     0.117 C 
BRANCH  10  11
HETATM   11  C   UNL     1     -53.545  49.471   9.130  1.00  0.00     0.172 C 
HETATM   12  O   UNL     1     -53.359  50.661   8.510  1.00  0.00    -0.648 OA
HETATM   13  O   UNL     1     -53.573  48.400   8.537  1.00  0.00    -0.648 OA
ENDBRANCH  10  11
ENDBRANCH   9  10
ENDBRANCH   5   9
BRANCH   8  14
HETATM   14  O   UNL     1     -50.619  47.818  15.977  1.00  0.00    -0.358 OA
HETATM   15  H   UNL     1     -50.936  48.153  16.793  1.00  0.00     0.217 HD
ENDBRANCH   8  14
ENDBRANCH   1   3
TORSDOF 5
ENDMDL
MODEL 7
REMARK VINA RESULT:      -5.7      1.893      5.184
REMARK  5 active torsions:
REMARK  status: ('A' for Active; 'I' for Inactive)
REMARK    1  A    between atoms: O_1  and  C_10 
REMARK    2  A    between atoms: O_2  and  C_12 
REMARK    3  A    between atoms: C_5  and  C_6 
REMARK    4  A    between atoms: C_5  and  C_7 
REMARK    5  A    between atoms: C_7  and  C_13 
ROOT
HETATM    1  O   UNL     1     -52.102  45.619  11.758  1.00  0.00    -0.358 OA
HETATM    2  H   UNL     1     -51.658  45.448  10.951  1.00  0.00     0.217 HD
ENDROOT
BRANCH   1   3
HETATM    3  C   UNL     1     -52.523  46.881  12.050  1.00  0.00     0.099 A 
HETATM    4  C   UNL     1     -53.148  47.641  11.064  1.00  0.00     0.046 A 
HETATM    5  C   UNL     1     -53.582  48.936  11.351  1.00  0.00    -0.055 A 
HETATM    6  C   UNL     1     -53.391  49.468  12.626  1.00  0.00     0.010 A 
HETATM    7  C   UNL     1     -52.765  48.708  13.613  1.00  0.00     0.040 A 
HETATM    8  C   UNL     1     -52.332  47.414  13.326  1.00  0.00     0.098 A 
BRANCH   5   9
HETATM    9  C   UNL     1     -54.252  49.749  10.295  1.00  0.00     0.049 C 
BRANCH   9  10
HETATM   10  C   UNL     1     -53.375  50.875   9.734  1.00  0.00     0.117 C 
BRANCH  10  11
HETATM   11  C   UNL     1     -53.764  52.219  10.300  1.00  0.00     0.172 C 
HETATM   12  O   UNL     1     -54.489  52.966   9.432  1.00  0.00    -0.648 OA
HETATM   13  O   UNL     1     -53.480  52.590  11.431  1.00  0.00    -0.648 OA
ENDBRANCH  10  11
ENDBRANCH   9  10
ENDBRANCH   5   9
BRANCH   8  14
HETATM   14  O   UNL     1     -51.720  46.680  14.297  1.00  0.00    -0.358 OA
HETATM   15  H   UNL     1     -52.023  46.730  15.182  1.00  0.00     0.217 HD
ENDBRANCH   8  14
ENDBRANCH   1   3
TORSDOF 5
ENDMDL
MODEL 8
REMARK VINA RESULT:      -5.7      3.626      5.712
REMARK  5 active torsions:
REMARK  status: ('A' for Active; 'I' for Inactive)
REMARK    1  A    between atoms: O_1  and  C_10 
REMARK    2  A    between atoms: O_2  and  C_12 
REMARK    3  A    between atoms: C_5  and  C_6 
REMARK    4  A    between atoms: C_5  and  C_7 
REMARK    5  A    between atoms: C_7  and  C_13 
ROOT
HETATM    1  O   UNL     1     -53.526  45.228   5.031  1.00  0.00    -0.358 OA
HETATM    2  H   UNL     1     -53.642  44.387   5.427  1.00  0.00     0.217 HD
ENDROOT
BRANCH   1   3
HETATM    3  C   UNL     1     -52.786  46.181   5.663  1.00  0.00     0.099 A 
HETATM    4  C   UNL     1     -53.154  46.599   6.942  1.00  0.00     0.046 A 
HETATM    5  C   UNL     1     -52.405  47.575   7.599  1.00  0.00    -0.055 A 
HETATM    6  C   UNL     1     -51.289  48.134   6.976  1.00  0.00     0.010 A 
HETATM    7  C   UNL     1     -50.921  47.716   5.698  1.00  0.00     0.040 A 
HETATM    8  C   UNL     1     -51.670  46.740   5.041  1.00  0.00     0.098 A 
BRANCH   5   9
HETATM    9  C   UNL     1     -52.798  48.021   8.967  1.00  0.00     0.049 C 
BRANCH   9  10
HETATM   10  C   UNL     1     -53.878  49.110   8.975  1.00  0.00     0.117 C 
BRANCH  10  11
HETATM   11  C   UNL     1     -53.605  50.158  10.026  1.00  0.00     0.172 C 
HETATM   12  O   UNL     1     -53.882  51.415   9.601  1.00  0.00    -0.648 OA
HETATM   13  O   UNL     1     -53.201  49.903  11.153  1.00  0.00    -0.648 OA
ENDBRANCH  10  11
ENDBRANCH   9  10
ENDBRANCH   5   9
BRANCH   8  14
HETATM   14  O   UNL     1     -51.303  46.341   3.791  1.00  0.00    -0.358 OA
HETATM   15  H   UNL     1     -51.949  46.022   3.193  1.00  0.00     0.217 HD
ENDBRANCH   8  14
ENDBRANCH   1   3
TORSDOF 5
ENDMDL
MODEL 9
REMARK VINA RESULT:      -5.7      3.007      5.178
REMARK  5 active torsions:
REMARK  status: ('A' for Active; 'I' for Inactive)
REMARK    1  A    between atoms: O_1  and  C_10 
REMARK    2  A    between atoms: O_2  and  C_12 
REMARK    3  A    between atoms: C_5  and  C_6 
REMARK    4  A    between atoms: C_5  and  C_7 
REMARK    5  A    between atoms: C_7  and  C_13 
ROOT
HETATM    1  O   UNL     1     -52.823  49.844  13.444  1.00  0.00    -0.358 OA
HETATM    2  H   UNL     1     -53.421  49.602  14.122  1.00  0.00     0.217 HD
ENDROOT
BRANCH   1   3
HETATM    3  C   UNL     1     -53.123  49.575  12.142  1.00  0.00     0.099 A 
HETATM    4  C   UNL     1     -53.091  48.256  11.690  1.00  0.00     0.046 A 
HETATM    5  C   UNL     1     -53.395  47.967  10.360  1.00  0.00    -0.055 A 
HETATM    6  C   UNL     1     -53.733  48.998   9.483  1.00  0.00     0.010 A 
HETATM    7  C   UNL     1     -53.765  50.316   9.935  1.00  0.00     0.040 A 
HETATM    8  C   UNL     1     -53.461  50.605  11.265  1.00  0.00     0.098 A 
BRANCH   5   9
HETATM    9  C   UNL     1     -53.360  46.557   9.877  1.00  0.00     0.049 C 
BRANCH   9  10
HETATM   10  C   UNL     1     -54.535  46.188   8.963  1.00  0.00     0.117 C 
BRANCH  10  11
HETATM   11  C   UNL     1     -54.765  44.697   8.924  1.00  0.00     0.172 C 
HETATM   12  O   UNL     1     -56.036  44.368   8.589  1.00  0.00    -0.648 OA
HETATM   13  O   UNL     1     -53.892  43.868   9.145  1.00  0.00    -0.648 OA
ENDBRANCH  10  11
ENDBRANCH   9  10
ENDBRANCH   5   9
BRANCH   8  14
HETATM   14  O   UNL     1     -53.494  51.897  11.695  1.00  0.00    -0.358 OA
HETATM   15  H   UNL     1     -52.901  52.184  12.362  1.00  0.00     0.217 HD
ENDBRANCH   8  14
ENDBRANCH   1   3
TORSDOF 5
ENDMDL
