MODEL 1
REMARK VINA RESULT:      -6.7      0.000      0.000
REMARK  5 active torsions:
REMARK  status: ('A' for Active; 'I' for Inactive)
REMARK    1  A    between atoms: O_1  and  C_10 
REMARK    2  A    between atoms: O_2  and  C_12 
REMARK    3  A    between atoms: C_5  and  C_6 
REMARK    4  A    between atoms: C_5  and  C_7 
REMARK    5  A    between atoms: C_7  and  C_13 
ROOT
HETATM    1  O   UNL     1     -53.763  52.284   9.750  1.00  0.00    -0.358 OA
HETATM    2  H   UNL     1     -54.188  52.517   8.948  1.00  0.00     0.217 HD
ENDROOT
BRANCH   1   3
HETATM    3  C   UNL     1     -53.609  50.972  10.083  1.00  0.00     0.099 A 
HETATM    4  C   UNL     1     -53.663  50.594  11.424  1.00  0.00     0.046 A 
HETATM    5  C   UNL     1     -53.505  49.254  11.778  1.00  0.00    -0.055 A 
HETATM    6  C   UNL     1     -53.293  48.293  10.790  1.00  0.00     0.010 A 
HETATM    7  C   UNL     1     -53.238  48.671   9.449  1.00  0.00     0.040 A 
HETATM    8  C   UNL     1     -53.396  50.010   9.095  1.00  0.00     0.098 A 
BRANCH   5   9
HETATM    9  C   UNL     1     -53.565  48.850  13.213  1.00  0.00     0.049 C 
BRANCH   9  10
HETATM   10  C   UNL     1     -52.283  48.177  13.718  1.00  0.00     0.117 C 
BRANCH  10  11
HETATM   11  C   UNL     1     -51.789  48.808  14.997  1.00  0.00     0.172 C 
HETATM   12  O   UNL     1     -52.569  49.834  15.415  1.00  0.00    -0.648 OA
HETATM   13  O   UNL     1     -50.803  48.420  15.611  1.00  0.00    -0.648 OA
ENDBRANCH  10  11
ENDBRANCH   9  10
ENDBRANCH   5   9
BRANCH   8  14
HETATM   14  O   UNL     1     -53.339  50.368   7.782  1.00  0.00    -0.358 OA
HETATM   15  H   UNL     1     -53.541  51.247   7.527  1.00  0.00     0.217 HD
ENDBRANCH   8  14
ENDBRANCH   1   3
TORSDOF 5
ENDMDL
MODEL 2
REMARK VINA RESULT:      -6.4      0.772      2.078
REMARK  5 active torsions:
REMARK  status: ('A' for Active; 'I' for Inactive)
REMARK    1  A    between atoms: O_1  and  C_10 
REMARK    2  A    between atoms: O_2  and  C_12 
REMARK    3  A    between atoms: C_5  and  C_6 
REMARK    4  A    between atoms: C_5  and  C_7 
REMARK    5  A    between atoms: C_7  and  C_13 
ROOT
HETATM    1  O   UNL     1     -53.389  47.741   8.484  1.00  0.00    -0.358 OA
HETATM    2  H   UNL     1     -53.203  48.006   7.605  1.00  0.00     0.217 HD
ENDROOT
BRANCH   1   3
HETATM    3  C   UNL     1     -53.440  48.669   9.480  1.00  0.00     0.099 A 
HETATM    4  C   UNL     1     -53.493  48.249  10.808  1.00  0.00     0.046 A 
HETATM    5  C   UNL     1     -53.547  49.190  11.836  1.00  0.00    -0.055 A 
HETATM    6  C   UNL     1     -53.548  50.552  11.535  1.00  0.00     0.010 A 
HETATM    7  C   UNL     1     -53.495  50.973  10.207  1.00  0.00     0.040 A 
HETATM    8  C   UNL     1     -53.440  50.032   9.179  1.00  0.00     0.098 A 
BRANCH   5   9
HETATM    9  C   UNL     1     -53.604  48.739  13.257  1.00  0.00     0.049 C 
BRANCH   9  10
HETATM   10  C   UNL     1     -52.249  48.286  13.815  1.00  0.00     0.117 C 
BRANCH  10  11
HETATM   11  C   UNL     1     -51.926  48.972  15.120  1.00  0.00     0.172 C 
HETATM   12  O   UNL     1     -50.878  48.407  15.767  1.00  0.00    -0.648 OA
HETATM   13  O   UNL     1     -52.529  49.950  15.542  1.00  0.00    -0.648 OA
ENDBRANCH  10  11
ENDBRANCH   9  10
ENDBRANCH   5   9
BRANCH   8  14
HETATM   14  O   UNL     1     -53.391  50.454   7.885  1.00  0.00    -0.358 OA
HETATM   15  H   UNL     1     -52.739  51.073   7.618  1.00  0.00     0.217 HD
ENDBRANCH   8  14
ENDBRANCH   1   3
TORSDOF 5
ENDMDL
MODEL 3
REMARK VINA RESULT:      -6.3      1.017      1.676
REMARK  5 active torsions:
REMARK  status: ('A' for Active; 'I' for Inactive)
REMARK    1  A    between atoms: O_1  and  C_10 
REMARK    2  A    between atoms: O_2  and  C_12 
REMARK    3  A    between atoms: C_5  and  C_6 
REMARK    4  A    between atoms: C_5  and  C_7 
REMARK    5  A    between atoms: C_7  and  C_13 
ROOT
HETATM    1  O   UNL     1     -53.415  50.526   7.948  1.00  0.00    -0.358 OA
HETATM    2  H   UNL     1     -52.710  51.130   7.829  1.00  0.00     0.217 HD
ENDROOT
BRANCH   1   3
HETATM    3  C   UNL     1     -53.323  49.551   8.896  1.00  0.00     0.099 A 
HETATM    4  C   UNL     1     -53.393  49.897  10.244  1.00  0.00     0.046 A 
HETATM    5  C   UNL     1     -53.299  48.908  11.224  1.00  0.00    -0.055 A 
HETATM    6  C   UNL     1     -53.136  47.573  10.853  1.00  0.00     0.010 A 
HETATM    7  C   UNL     1     -53.067  47.227   9.504  1.00  0.00     0.040 A 
HETATM    8  C   UNL     1     -53.161  48.216   8.525  1.00  0.00     0.098 A 
BRANCH   5   9
HETATM    9  C   UNL     1     -53.373  49.278  12.667  1.00  0.00     0.049 C 
BRANCH   9  10
HETATM   10  C   UNL     1     -52.714  48.256  13.601  1.00  0.00     0.117 C 
BRANCH  10  11
HETATM   11  C   UNL     1     -52.110  48.920  14.815  1.00  0.00     0.172 C 
HETATM   12  O   UNL     1     -50.972  48.314  15.235  1.00  0.00    -0.648 OA
HETATM   13  O   UNL     1     -52.579  49.915  15.351  1.00  0.00    -0.648 OA
ENDBRANCH  10  11
ENDBRANCH   9  10
ENDBRANCH   5   9
BRANCH   8  14
HETATM   14  O   UNL     1     -53.090  47.867   7.210  1.00  0.00    -0.358 OA
HETATM   15  H   UNL     1     -53.872  47.659   6.738  1.00  0.00     0.217 HD
ENDBRANCH   8  14
ENDBRANCH   1   3
TORSDOF 5
ENDMDL
MODEL 4
REMARK VINA RESULT:      -6.0      1.459      2.458
REMARK  5 active torsions:
REMARK  status: ('A' for Active; 'I' for Inactive)
REMARK    1  A    between atoms: O_1  and  C_10 
REMARK    2  A    between atoms: O_2  and  C_12 
REMARK    3  A    between atoms: C_5  and  C_6 
REMARK    4  A    between atoms: C_5  and  C_7 
REMARK    5  A    between atoms: C_7  and  C_13 
ROOT
HETATM    1  O   UNL     1     -53.412  50.210   7.772  1.00  0.00    -0.358 OA
HETATM    2  H   UNL     1     -54.172  50.509   7.314  1.00  0.00     0.217 HD
ENDROOT
BRANCH   1   3
HETATM    3  C   UNL     1     -53.405  50.178   9.134  1.00  0.00     0.099 A 
HETATM    4  C   UNL     1     -53.187  48.967   9.790  1.00  0.00     0.046 A 
HETATM    5  C   UNL     1     -53.179  48.921  11.184  1.00  0.00    -0.055 A 
HETATM    6  C   UNL     1     -53.389  50.086  11.921  1.00  0.00     0.010 A 
HETATM    7  C   UNL     1     -53.607  51.297  11.265  1.00  0.00     0.040 A 
HETATM    8  C   UNL     1     -53.614  51.343   9.871  1.00  0.00     0.098 A 
BRANCH   5   9
HETATM    9  C   UNL     1     -52.946  47.625  11.885  1.00  0.00     0.049 C 
BRANCH   9  10
HETATM   10  C   UNL     1     -52.572  47.783  13.364  1.00  0.00     0.117 C 
BRANCH  10  11
HETATM   11  C   UNL     1     -51.821  46.579  13.881  1.00  0.00     0.172 C 
HETATM   12  O   UNL     1     -52.237  45.418  13.319  1.00  0.00    -0.648 OA
HETATM   13  O   UNL     1     -50.914  46.643  14.701  1.00  0.00    -0.648 OA
ENDBRANCH  10  11
ENDBRANCH   9  10
ENDBRANCH   5   9
BRANCH   8  14
HETATM   14  O   UNL     1     -53.830  52.531   9.241  1.00  0.00    -0.358 OA
HETATM   15  H   UNL     1     -54.706  52.826   9.083  1.00  0.00     0.217 HD
ENDBRANCH   8  14
ENDBRANCH   1   3
TORSDOF 5
ENDMDL
MODEL 5
REMARK VINA RESULT:      -6.0      2.960      4.647
REMARK  5 active torsions:
REMARK  status: ('A' for Active; 'I' for Inactive)
REMARK    1  A    between atoms: O_1  and  C_10 
REMARK    2  A    between atoms: O_2  and  C_12 
REMARK    3  A    between atoms: C_5  and  C_6 
REMARK    4  A    between atoms: C_5  and  C_7 
REMARK    5  A    between atoms: C_7  and  C_13 
ROOT
HETATM    1  O   UNL     1     -53.301  50.764   7.792  1.00  0.00    -0.358 OA
HETATM    2  H   UNL     1     -53.624  51.639   7.705  1.00  0.00     0.217 HD
ENDROOT
BRANCH   1   3
HETATM    3  C   UNL     1     -53.330  50.144   9.005  1.00  0.00     0.099 A 
HETATM    4  C   UNL     1     -53.170  48.761   9.072  1.00  0.00     0.046 A 
HETATM    5  C   UNL     1     -53.199  48.115  10.308  1.00  0.00    -0.055 A 
HETATM    6  C   UNL     1     -53.388  48.853  11.476  1.00  0.00     0.010 A 
HETATM    7  C   UNL     1     -53.548  50.236  11.409  1.00  0.00     0.040 A 
HETATM    8  C   UNL     1     -53.519  50.883  10.173  1.00  0.00     0.098 A 
BRANCH   5   9
HETATM    9  C   UNL     1     -53.028  46.635  10.379  1.00  0.00     0.049 C 
BRANCH   9  10
HETATM   10  C   UNL     1     -53.269  45.920   9.044  1.00  0.00     0.117 C 
BRANCH  10  11
HETATM   11  C   UNL     1     -54.611  45.231   9.015  1.00  0.00     0.172 C 
HETATM   12  O   UNL     1     -55.644  46.095   8.863  1.00  0.00    -0.648 OA
HETATM   13  O   UNL     1     -54.755  44.018   9.093  1.00  0.00    -0.648 OA
ENDBRANCH  10  11
ENDBRANCH   9  10
ENDBRANCH   5   9
BRANCH   8  14
HETATM   14  O   UNL     1     -53.678  52.234  10.119  1.00  0.00    -0.358 OA
HETATM   15  H   UNL     1     -54.087  52.629   9.374  1.00  0.00     0.217 HD
ENDBRANCH   8  14
ENDBRANCH   1   3
TORSDOF 5
ENDMDL
MODEL 6
REMARK VINA RESULT:      -5.9      2.557      5.279
REMARK  5 active torsions:
REMARK  status: ('A' for Active; 'I' for Inactive)
REMARK    1  A    between atoms: O_1  and  C_10 
REMARK    2  A    between atoms: O_2  and  C_12 
REMARK    3  A    between atoms: C_5  and  C_6 
REMARK    4  A    between atoms: C_5  and  C_7 
REMARK    5  A    between atoms: C_7  and  C_13 
ROOT
HETATM    1  O   UNL     1     -53.521  51.901   8.940  1.00  0.00    -0.358 OA
HETATM    2  H   UNL     1     -52.763  52.443   8.846  1.00  0.00     0.217 HD
ENDROOT
BRANCH   1   3
HETATM    3  C   UNL     1     -53.473  50.796   9.735  1.00  0.00     0.099 A 
HETATM    4  C   UNL     1     -53.451  49.530   9.151  1.00  0.00     0.046 A 
HETATM    5  C   UNL     1     -53.404  48.391   9.955  1.00  0.00    -0.055 A 
HETATM    6  C   UNL     1     -53.378  48.519  11.343  1.00  0.00     0.010 A 
HETATM    7  C   UNL     1     -53.400  49.784  11.928  1.00  0.00     0.040 A 
HETATM    8  C   UNL     1     -53.448  50.923  11.124  1.00  0.00     0.098 A 
BRANCH   5   9
HETATM    9  C   UNL     1     -53.380  47.038   9.329  1.00  0.00     0.049 C 
BRANCH   9  10
HETATM   10  C   UNL     1     -52.541  46.965   8.047  1.00  0.00     0.117 C 
BRANCH  10  11
HETATM   11  C   UNL     1     -53.254  46.200   6.957  1.00  0.00     0.172 C 
HETATM   12  O   UNL     1     -53.979  45.159   7.432  1.00  0.00    -0.648 OA
HETATM   13  O   UNL     1     -53.206  46.502   5.772  1.00  0.00    -0.648 OA
ENDBRANCH  10  11
ENDBRANCH   9  10
ENDBRANCH   5   9
BRANCH   8  14
HETATM   14  O   UNL     1     -53.471  52.155  11.706  1.00  0.00    -0.358 OA
HETATM   15  H   UNL     1     -54.005  52.834  11.344  1.00  0.00     0.217 HD
ENDBRANCH   8  14
ENDBRANCH   1   3
TORSDOF 5
ENDMDL
MODEL 7
REMARK VINA RESULT:      -5.8      2.888      4.996
REMARK  5 active torsions:
REMARK  status: ('A' for Active; 'I' for Inactive)
REMARK    1  A    between atoms: O_1  and  C_10 
REMARK    2  A    between atoms: O_2  and  C_12 
REMARK    3  A    between atoms: C_5  and  C_6 
REMARK    4  A    between atoms: C_5  and  C_7 
REMARK    5  A    between atoms: C_7  and  C_13 
ROOT
HETATM    1  O   UNL     1     -52.845  49.773  13.553  1.00  0.00    -0.358 OA
HETATM    2  H   UNL     1     -51.977  49.998  13.825  1.00  0.00     0.217 HD
ENDROOT
BRANCH   1   3
HETATM    3  C   UNL     1     -53.087  49.438  12.255  1.00  0.00     0.099 A 
HETATM    4  C   UNL     1     -52.985  48.105  11.861  1.00  0.00     0.046 A 
HETATM    5  C   UNL     1     -53.229  47.749  10.535  1.00  0.00    -0.055 A 
HETATM    6  C   UNL     1     -53.576  48.728   9.603  1.00  0.00     0.010 A 
HETATM    7  C   UNL     1     -53.678  50.061   9.997  1.00  0.00     0.040 A 
HETATM    8  C   UNL     1     -53.434  50.417  11.324  1.00  0.00     0.098 A 
BRANCH   5   9
HETATM    9  C   UNL     1     -53.120  46.322  10.113  1.00  0.00     0.049 C 
BRANCH   9  10
HETATM   10  C   UNL     1     -53.754  46.032   8.748  1.00  0.00     0.117 C 
BRANCH  10  11
HETATM   11  C   UNL     1     -55.083  45.329   8.888  1.00  0.00     0.172 C 
HETATM   12  O   UNL     1     -56.118  46.187   9.057  1.00  0.00    -0.648 OA
HETATM   13  O   UNL     1     -55.219  44.114   8.829  1.00  0.00    -0.648 OA
ENDBRANCH  10  11
ENDBRANCH   9  10
ENDBRANCH   5   9
BRANCH   8  14
HETATM   14  O   UNL     1     -53.534  51.723  11.697  1.00  0.00    -0.358 OA
HETATM   15  H   UNL     1     -52.766  52.201  11.940  1.00  0.00     0.217 HD
ENDBRANCH   8  14
ENDBRANCH   1   3
TORSDOF 5
ENDMDL
MODEL 8
REMARK VINA RESULT:      -5.7      1.086      5.517
REMARK  5 active torsions:
REMARK  status: ('A' for Active; 'I' for Inactive)
REMARK    1  A    between atoms: O_1  and  C_10 
REMARK    2  A    between atoms: O_2  and  C_12 
REMARK    3  A    between atoms: C_5  and  C_6 
REMARK    4  A    between atoms: C_5  and  C_7 
REMARK    5  A    between atoms: C_7  and  C_13 
ROOT
HETATM    1  O   UNL     1     -52.483  50.031  15.694  1.00  0.00    -0.358 OA
HETATM    2  H   UNL     1     -52.200  50.907  15.519  1.00  0.00     0.217 HD
ENDROOT
BRANCH   1   3
HETATM    3  C   UNL     1     -52.305  49.057  14.758  1.00  0.00     0.099 A 
HETATM    4  C   UNL     1     -53.039  49.102  13.574  1.00  0.00     0.046 A 
HETATM    5  C   UNL     1     -52.866  48.110  12.608  1.00  0.00    -0.055 A 
HETATM    6  C   UNL     1     -51.958  47.074  12.828  1.00  0.00     0.010 A 
HETATM    7  C   UNL     1     -51.224  47.030  14.012  1.00  0.00     0.040 A 
HETATM    8  C   UNL     1     -51.397  48.022  14.978  1.00  0.00     0.098 A 
BRANCH   5   9
HETATM    9  C   UNL     1     -53.652  48.158  11.341  1.00  0.00     0.049 C 
BRANCH   9  10
HETATM   10  C   UNL     1     -53.884  49.579  10.812  1.00  0.00     0.117 C 
BRANCH  10  11
HETATM   11  C   UNL     1     -53.704  49.652   9.315  1.00  0.00     0.172 C 
HETATM   12  O   UNL     1     -53.417  50.904   8.880  1.00  0.00    -0.648 OA
HETATM   13  O   UNL     1     -53.782  48.683   8.572  1.00  0.00    -0.648 OA
ENDBRANCH  10  11
ENDBRANCH   9  10
ENDBRANCH   5   9
BRANCH   8  14
HETATM   14  O   UNL     1     -50.675  47.967  16.131  1.00  0.00    -0.358 OA
HETATM   15  H   UNL     1     -49.813  47.601  16.128  1.00  0.00     0.217 HD
ENDBRANCH   8  14
ENDBRANCH   1   3
TORSDOF 5
ENDMDL
MODEL 9
REMARK VINA RESULT:      -5.7      3.319      4.929
REMARK  5 active torsions:
REMARK  status: ('A' for Active; 'I' for Inactive)
REMARK    1  A    between atoms: O_1  and  C_10 
REMARK    2  A    between atoms: O_2  and  C_12 
REMARK    3  A    between atoms: C_5  and  C_6 
REMARK    4  A    between atoms: C_5  and  C_7 
REMARK    5  A    between atoms: C_7  and  C_13 
ROOT
HETATM    1  O   UNL     1     -53.564  45.948   7.155  1.00  0.00    -0.358 OA
HETATM    2  H   UNL     1     -52.822  46.192   6.639  1.00  0.00     0.217 HD
ENDROOT
BRANCH   1   3
HETATM    3  C   UNL     1     -54.034  46.795   8.114  1.00  0.00     0.099 A 
HETATM    4  C   UNL     1     -53.461  48.058   8.254  1.00  0.00     0.046 A 
HETATM    5  C   UNL     1     -53.933  48.933   9.233  1.00  0.00    -0.055 A 
HETATM    6  C   UNL     1     -54.978  48.543  10.071  1.00  0.00     0.010 A 
HETATM    7  C   UNL     1     -55.551  47.280   9.931  1.00  0.00     0.040 A 
HETATM    8  C   UNL     1     -55.080  46.405   8.952  1.00  0.00     0.098 A 
BRANCH   5   9
HETATM    9  C   UNL     1     -53.320  50.284   9.383  1.00  0.00     0.049 C 
BRANCH   9  10
HETATM   10  C   UNL     1     -53.561  50.923  10.756  1.00  0.00     0.117 C 
BRANCH  10  11
HETATM   11  C   UNL     1     -53.863  52.397  10.640  1.00  0.00     0.172 C 
HETATM   12  O   UNL     1     -53.608  53.079  11.783  1.00  0.00    -0.648 OA
HETATM   13  O   UNL     1     -54.272  52.929   9.616  1.00  0.00    -0.648 OA
ENDBRANCH  10  11
ENDBRANCH   9  10
ENDBRANCH   5   9
BRANCH   8  14
HETATM   14  O   UNL     1     -55.645  45.173   8.825  1.00  0.00    -0.358 OA
HETATM   15  H   UNL     1     -56.084  44.939   8.030  1.00  0.00     0.217 HD
ENDBRANCH   8  14
ENDBRANCH   1   3
TORSDOF 5
ENDMDL
