MODEL 1
REMARK VINA RESULT:      -9.1      0.000      0.000
REMARK  4 active torsions:
REMARK  status: ('A' for Active; 'I' for Inactive)
REMARK    1  A    between atoms: O_1  and  C_5 
REMARK    2  A    between atoms: O_1  and  C_14 
REMARK    3  A    between atoms: O_2  and  C_18 
REMARK    4  A    between atoms: C_10  and  C_13 
ROOT
HETATM    1  O   UNL     1      15.682   6.475   9.748  1.00  0.00    -0.343 OA
ENDROOT
BRANCH   1   2
HETATM    2  C   UNL     1      16.543   7.105  10.689  1.00  0.00     0.129 C 
HETATM    3  C   UNL     1      17.619   7.884   9.946  1.00  0.00     0.032 C 
HETATM    4  C   UNL     1      18.643   6.826   9.535  1.00  0.00     0.002 C 
HETATM    5  C   UNL     1      18.443   5.646  10.485  1.00  0.00     0.002 C 
HETATM    6  C   UNL     1      17.341   6.064  11.457  1.00  0.00     0.032 C 
ENDBRANCH   1   2
BRANCH   1   7
HETATM    7  C   UNL     1      14.433   6.129  10.191  1.00  0.00     0.103 A 
HETATM    8  C   UNL     1      14.219   5.970  11.557  1.00  0.00     0.047 A 
HETATM    9  C   UNL     1      12.951   5.617  12.021  1.00  0.00    -0.049 A 
HETATM   10  C   UNL     1      11.907   5.422  11.118  1.00  0.00     0.010 A 
HETATM   11  C   UNL     1      12.129   5.582   9.750  1.00  0.00     0.040 A 
HETATM   12  C   UNL     1      13.395   5.936   9.285  1.00  0.00     0.101 A 
BRANCH   9  13
HETATM   13  C   UNL     1      12.710   5.444  13.505  1.00  0.00     0.045 C 
HETATM   14  C   UNL     1      13.935   5.070  14.341  1.00  0.00     0.132 C 
HETATM   15  N   UNL     1      13.582   5.482  15.670  1.00  0.00    -0.360 N 
HETATM   16  C   UNL     1      12.569   6.431  15.683  1.00  0.00     0.218 C 
HETATM   17  H   UNL     1      14.011   5.130  16.483  1.00  0.00     0.162 HD
HETATM   18  O   UNL     1      12.096   6.997  16.655  1.00  0.00    -0.274 OA
HETATM   19  C   UNL     1      12.183   6.687  14.247  1.00  0.00     0.113 C 
ENDBRANCH   9  13
BRANCH  12  20
HETATM   20  O   UNL     1      13.601   6.088   7.947  1.00  0.00    -0.353 OA
HETATM   21  C   UNL     1      12.448   6.064   7.109  1.00  0.00     0.210 C 
ENDBRANCH  12  20
ENDBRANCH   1   7
TORSDOF 4
ENDMDL
MODEL 2
REMARK VINA RESULT:      -8.7      1.317      4.061
REMARK  4 active torsions:
REMARK  status: ('A' for Active; 'I' for Inactive)
REMARK    1  A    between atoms: O_1  and  C_5 
REMARK    2  A    between atoms: O_1  and  C_14 
REMARK    3  A    between atoms: O_2  and  C_18 
REMARK    4  A    between atoms: C_10  and  C_13 
ROOT
HETATM    1  O   UNL     1      14.204   6.114   9.351  1.00  0.00    -0.343 OA
ENDROOT
BRANCH   1   2
HETATM    2  C   UNL     1      12.786   6.008   9.335  1.00  0.00     0.129 C 
HETATM    3  C   UNL     1      12.390   4.569   9.041  1.00  0.00     0.032 C 
HETATM    4  C   UNL     1      12.540   4.432   7.526  1.00  0.00     0.002 C 
HETATM    5  C   UNL     1      12.456   5.848   6.958  1.00  0.00     0.002 C 
HETATM    6  C   UNL     1      12.212   6.770   8.151  1.00  0.00     0.032 C 
ENDBRANCH   1   2
BRANCH   1   7
HETATM    7  C   UNL     1      14.803   6.173  10.582  1.00  0.00     0.103 A 
HETATM    8  C   UNL     1      14.025   6.451  11.702  1.00  0.00     0.047 A 
HETATM    9  C   UNL     1      14.624   6.515  12.960  1.00  0.00    -0.049 A 
HETATM   10  C   UNL     1      15.996   6.302  13.092  1.00  0.00     0.010 A 
HETATM   11  C   UNL     1      16.770   6.024  11.966  1.00  0.00     0.040 A 
HETATM   12  C   UNL     1      16.172   5.960  10.707  1.00  0.00     0.101 A 
BRANCH   9  13
HETATM   13  C   UNL     1      13.784   6.816  14.183  1.00  0.00     0.045 C 
HETATM   14  C   UNL     1      12.490   6.012  14.317  1.00  0.00     0.132 C 
HETATM   15  N   UNL     1      12.189   6.078  15.719  1.00  0.00    -0.360 N 
HETATM   16  C   UNL     1      13.302   6.386  16.490  1.00  0.00     0.218 C 
HETATM   17  H   UNL     1      11.293   5.922  16.094  1.00  0.00     0.162 HD
HETATM   18  O   UNL     1      13.364   6.464  17.706  1.00  0.00    -0.274 OA
HETATM   19  C   UNL     1      14.464   6.558  15.541  1.00  0.00     0.113 C 
ENDBRANCH   9  13
BRANCH  12  20
HETATM   20  O   UNL     1      16.938   5.689   9.613  1.00  0.00    -0.353 OA
HETATM   21  C   UNL     1      18.326   6.002   9.702  1.00  0.00     0.210 C 
ENDBRANCH  12  20
ENDBRANCH   1   7
TORSDOF 4
ENDMDL
MODEL 3
REMARK VINA RESULT:      -7.7      2.534      5.350
REMARK  4 active torsions:
REMARK  status: ('A' for Active; 'I' for Inactive)
REMARK    1  A    between atoms: O_1  and  C_5 
REMARK    2  A    between atoms: O_1  and  C_14 
REMARK    3  A    between atoms: O_2  and  C_18 
REMARK    4  A    between atoms: C_10  and  C_13 
ROOT
HETATM    1  O   UNL     1      16.060   5.177  13.399  1.00  0.00    -0.343 OA
ENDROOT
BRANCH   1   2
HETATM    2  C   UNL     1      17.100   6.118  13.167  1.00  0.00     0.129 C 
HETATM    3  C   UNL     1      18.033   5.585  12.090  1.00  0.00     0.032 C 
HETATM    4  C   UNL     1      18.932   4.589  12.821  1.00  0.00     0.002 C 
HETATM    5  C   UNL     1      18.889   4.977  14.298  1.00  0.00     0.002 C 
HETATM    6  C   UNL     1      18.005   6.219  14.386  1.00  0.00     0.032 C 
ENDBRANCH   1   2
BRANCH   1   7
HETATM    7  C   UNL     1      14.786   5.578  13.092  1.00  0.00     0.103 A 
HETATM    8  C   UNL     1      14.336   5.459  11.781  1.00  0.00     0.047 A 
HETATM    9  C   UNL     1      13.042   5.864  11.456  1.00  0.00    -0.049 A 
HETATM   10  C   UNL     1      12.205   6.388  12.442  1.00  0.00     0.010 A 
HETATM   11  C   UNL     1      12.663   6.505  13.753  1.00  0.00     0.040 A 
HETATM   12  C   UNL     1      13.957   6.099  14.080  1.00  0.00     0.101 A 
BRANCH   9  13
HETATM   13  C   UNL     1      12.545   5.737  10.032  1.00  0.00     0.045 C 
HETATM   14  C   UNL     1      11.542   6.798   9.578  1.00  0.00     0.132 C 
HETATM   15  N   UNL     1      11.650   6.781   8.146  1.00  0.00    -0.360 N 
HETATM   16  C   UNL     1      12.847   6.231   7.707  1.00  0.00     0.218 C 
HETATM   17  H   UNL     1      10.952   7.122   7.541  1.00  0.00     0.162 HD
HETATM   18  O   UNL     1      13.237   6.126   6.556  1.00  0.00    -0.274 OA
HETATM   19  C   UNL     1      13.624   5.824   8.936  1.00  0.00     0.113 C 
ENDBRANCH   9  13
BRANCH  12  20
HETATM   20  O   UNL     1      14.394   6.219  15.365  1.00  0.00    -0.353 OA
HETATM   21  C   UNL     1      13.400   6.374  16.375  1.00  0.00     0.210 C 
ENDBRANCH  12  20
ENDBRANCH   1   7
TORSDOF 4
ENDMDL
MODEL 4
REMARK VINA RESULT:      -7.7      2.539      6.162
REMARK  4 active torsions:
REMARK  status: ('A' for Active; 'I' for Inactive)
REMARK    1  A    between atoms: O_1  and  C_5 
REMARK    2  A    between atoms: O_1  and  C_14 
REMARK    3  A    between atoms: O_2  and  C_18 
REMARK    4  A    between atoms: C_10  and  C_13 
ROOT
HETATM    1  O   UNL     1      15.171   6.539  14.207  1.00  0.00    -0.343 OA
ENDROOT
BRANCH   1   2
HETATM    2  C   UNL     1      14.959   5.403  15.034  1.00  0.00     0.129 C 
HETATM    3  C   UNL     1      13.525   5.409  15.543  1.00  0.00     0.032 C 
HETATM    4  C   UNL     1      13.534   6.403  16.704  1.00  0.00     0.002 C 
HETATM    5  C   UNL     1      14.985   6.496  17.176  1.00  0.00     0.002 C 
HETATM    6  C   UNL     1      15.777   5.517  16.311  1.00  0.00     0.032 C 
ENDBRANCH   1   2
BRANCH   1   7
HETATM    7  C   UNL     1      15.391   6.301  12.876  1.00  0.00     0.103 A 
HETATM    8  C   UNL     1      14.300   6.127  12.029  1.00  0.00     0.047 A 
HETATM    9  C   UNL     1      14.510   5.883  10.672  1.00  0.00    -0.049 A 
HETATM   10  C   UNL     1      15.809   5.811  10.169  1.00  0.00     0.010 A 
HETATM   11  C   UNL     1      16.898   5.985  11.023  1.00  0.00     0.040 A 
HETATM   12  C   UNL     1      16.689   6.230  12.380  1.00  0.00     0.101 A 
BRANCH   9  13
HETATM   13  C   UNL     1      13.329   5.695   9.745  1.00  0.00     0.045 C 
HETATM   14  C   UNL     1      12.148   6.641   9.970  1.00  0.00     0.132 C 
HETATM   15  N   UNL     1      11.455   6.628   8.712  1.00  0.00    -0.360 N 
HETATM   16  C   UNL     1      12.260   6.206   7.663  1.00  0.00     0.218 C 
HETATM   17  H   UNL     1      10.512   6.889   8.605  1.00  0.00     0.162 HD
HETATM   18  O   UNL     1      11.964   6.138   6.481  1.00  0.00    -0.274 OA
HETATM   19  C   UNL     1      13.618   5.892   8.245  1.00  0.00     0.113 C 
ENDBRANCH   9  13
BRANCH  12  20
HETATM   20  O   UNL     1      17.760   6.397  13.205  1.00  0.00    -0.353 OA
HETATM   21  C   UNL     1      18.442   5.218  13.627  1.00  0.00     0.210 C 
ENDBRANCH  12  20
ENDBRANCH   1   7
TORSDOF 4
ENDMDL
MODEL 5
REMARK VINA RESULT:      -7.6      2.852      4.144
REMARK  4 active torsions:
REMARK  status: ('A' for Active; 'I' for Inactive)
REMARK    1  A    between atoms: O_1  and  C_5 
REMARK    2  A    between atoms: O_1  and  C_14 
REMARK    3  A    between atoms: O_2  and  C_18 
REMARK    4  A    between atoms: C_10  and  C_13 
ROOT
HETATM    1  O   UNL     1      18.426   5.026  13.323  1.00  0.00    -0.343 OA
ENDROOT
BRANCH   1   2
HETATM    2  C   UNL     1      18.186   4.488  14.616  1.00  0.00     0.129 C 
HETATM    3  C   UNL     1      19.276   4.955  15.569  1.00  0.00     0.032 C 
HETATM    4  C   UNL     1      20.462   4.038  15.274  1.00  0.00     0.002 C 
HETATM    5  C   UNL     1      19.880   2.782  14.626  1.00  0.00     0.002 C 
HETATM    6  C   UNL     1      18.366   2.978  14.603  1.00  0.00     0.032 C 
ENDBRANCH   1   2
BRANCH   1   7
HETATM    7  C   UNL     1      17.328   5.430  12.608  1.00  0.00     0.103 A 
HETATM    8  C   UNL     1      16.102   5.543  13.257  1.00  0.00     0.047 A 
HETATM    9  C   UNL     1      14.977   5.951  12.541  1.00  0.00    -0.049 A 
HETATM   10  C   UNL     1      15.083   6.242  11.181  1.00  0.00     0.010 A 
HETATM   11  C   UNL     1      16.314   6.126  10.537  1.00  0.00     0.040 A 
HETATM   12  C   UNL     1      17.440   5.718  11.252  1.00  0.00     0.101 A 
BRANCH   9  13
HETATM   13  C   UNL     1      13.641   6.078  13.241  1.00  0.00     0.045 C 
HETATM   14  C   UNL     1      12.980   4.764  13.659  1.00  0.00     0.132 C 
HETATM   15  N   UNL     1      12.078   5.153  14.707  1.00  0.00    -0.360 N 
HETATM   16  C   UNL     1      12.419   6.371  15.280  1.00  0.00     0.218 C 
HETATM   17  H   UNL     1      11.303   4.616  14.988  1.00  0.00     0.162 HD
HETATM   18  O   UNL     1      11.870   6.929  16.216  1.00  0.00    -0.274 OA
HETATM   19  C   UNL     1      13.650   6.869  14.563  1.00  0.00     0.113 C 
ENDBRANCH   9  13
BRANCH  12  20
HETATM   20  O   UNL     1      18.638   5.607  10.612  1.00  0.00    -0.353 OA
HETATM   21  C   UNL     1      18.733   6.184   9.312  1.00  0.00     0.210 C 
ENDBRANCH  12  20
ENDBRANCH   1   7
TORSDOF 4
ENDMDL
MODEL 6
REMARK VINA RESULT:      -7.5      3.721      6.149
REMARK  4 active torsions:
REMARK  status: ('A' for Active; 'I' for Inactive)
REMARK    1  A    between atoms: O_1  and  C_5 
REMARK    2  A    between atoms: O_1  and  C_14 
REMARK    3  A    between atoms: O_2  and  C_18 
REMARK    4  A    between atoms: C_10  and  C_13 
ROOT
HETATM    1  O   UNL     1      18.066   4.410  14.853  1.00  0.00    -0.343 OA
ENDROOT
BRANCH   1   2
HETATM    2  C   UNL     1      17.028   3.616  15.413  1.00  0.00     0.129 C 
HETATM    3  C   UNL     1      17.062   3.736  16.930  1.00  0.00     0.032 C 
HETATM    4  C   UNL     1      18.183   2.792  17.363  1.00  0.00     0.002 C 
HETATM    5  C   UNL     1      18.360   1.787  16.226  1.00  0.00     0.002 C 
HETATM    6  C   UNL     1      17.306   2.139  15.179  1.00  0.00     0.032 C 
ENDBRANCH   1   2
BRANCH   1   7
HETATM    7  C   UNL     1      17.885   4.845  13.567  1.00  0.00     0.103 A 
HETATM    8  C   UNL     1      16.641   5.342  13.189  1.00  0.00     0.047 A 
HETATM    9  C   UNL     1      16.443   5.787  11.882  1.00  0.00    -0.049 A 
HETATM   10  C   UNL     1      17.488   5.731  10.959  1.00  0.00     0.010 A 
HETATM   11  C   UNL     1      18.731   5.231  11.345  1.00  0.00     0.040 A 
HETATM   12  C   UNL     1      18.931   4.786  12.652  1.00  0.00     0.101 A 
BRANCH   9  13
HETATM   13  C   UNL     1      15.094   6.331  11.464  1.00  0.00     0.045 C 
HETATM   14  C   UNL     1      14.724   6.137   9.993  1.00  0.00     0.132 C 
HETATM   15  N   UNL     1      13.291   6.230   9.986  1.00  0.00    -0.360 N 
HETATM   16  C   UNL     1      12.734   5.991  11.234  1.00  0.00     0.218 C 
HETATM   17  H   UNL     1      12.761   6.440   9.183  1.00  0.00     0.162 HD
HETATM   18  O   UNL     1      11.549   5.955  11.523  1.00  0.00    -0.274 OA
HETATM   19  C   UNL     1      13.875   5.722  12.185  1.00  0.00     0.113 C 
ENDBRANCH   9  13
BRANCH  12  20
HETATM   20  O   UNL     1      20.149   4.298  13.017  1.00  0.00    -0.353 OA
HETATM   21  C   UNL     1      20.362   2.898  12.852  1.00  0.00     0.210 C 
ENDBRANCH  12  20
ENDBRANCH   1   7
TORSDOF 4
ENDMDL
MODEL 7
REMARK VINA RESULT:      -7.2      3.205      6.368
REMARK  4 active torsions:
REMARK  status: ('A' for Active; 'I' for Inactive)
REMARK    1  A    between atoms: O_1  and  C_5 
REMARK    2  A    between atoms: O_1  and  C_14 
REMARK    3  A    between atoms: O_2  and  C_18 
REMARK    4  A    between atoms: C_10  and  C_13 
ROOT
HETATM    1  O   UNL     1      15.680   4.141  15.945  1.00  0.00    -0.343 OA
ENDROOT
BRANCH   1   2
HETATM    2  C   UNL     1      16.986   3.879  15.448  1.00  0.00     0.129 C 
HETATM    3  C   UNL     1      17.171   2.379  15.278  1.00  0.00     0.032 C 
HETATM    4  C   UNL     1      17.472   1.867  16.686  1.00  0.00     0.002 C 
HETATM    5  C   UNL     1      17.995   3.067  17.474  1.00  0.00     0.002 C 
HETATM    6  C   UNL     1      18.032   4.237  16.494  1.00  0.00     0.032 C 
ENDBRANCH   1   2
BRANCH   1   7
HETATM    7  C   UNL     1      14.933   5.062  15.259  1.00  0.00     0.103 A 
HETATM    8  C   UNL     1      14.540   4.780  13.954  1.00  0.00     0.047 A 
HETATM    9  C   UNL     1      13.780   5.710  13.245  1.00  0.00    -0.049 A 
HETATM   10  C   UNL     1      13.418   6.918  13.843  1.00  0.00     0.010 A 
HETATM   11  C   UNL     1      13.816   7.194  15.150  1.00  0.00     0.040 A 
HETATM   12  C   UNL     1      14.576   6.265  15.861  1.00  0.00     0.101 A 
BRANCH   9  13
HETATM   13  C   UNL     1      13.347   5.409  11.826  1.00  0.00     0.045 C 
HETATM   14  C   UNL     1      11.977   5.952  11.418  1.00  0.00     0.132 C 
HETATM   15  N   UNL     1      12.045   6.009   9.985  1.00  0.00    -0.360 N 
HETATM   16  C   UNL     1      13.350   6.028   9.512  1.00  0.00     0.218 C 
HETATM   17  H   UNL     1      11.253   6.032   9.400  1.00  0.00     0.162 HD
HETATM   18  O   UNL     1      13.719   6.120   8.352  1.00  0.00    -0.274 OA
HETATM   19  C   UNL     1      14.259   5.968  10.717  1.00  0.00     0.113 C 
ENDBRANCH   9  13
BRANCH  12  20
HETATM   20  O   UNL     1      14.960   6.547  17.137  1.00  0.00    -0.353 OA
HETATM   21  C   UNL     1      16.098   7.390  17.299  1.00  0.00     0.210 C 
ENDBRANCH  12  20
ENDBRANCH   1   7
TORSDOF 4
ENDMDL
MODEL 8
REMARK VINA RESULT:      -7.0      3.252      6.106
REMARK  4 active torsions:
REMARK  status: ('A' for Active; 'I' for Inactive)
REMARK    1  A    between atoms: O_1  and  C_5 
REMARK    2  A    between atoms: O_1  and  C_14 
REMARK    3  A    between atoms: O_2  and  C_18 
REMARK    4  A    between atoms: C_10  and  C_13 
ROOT
HETATM    1  O   UNL     1      14.587   6.505  13.061  1.00  0.00    -0.343 OA
ENDROOT
BRANCH   1   2
HETATM    2  C   UNL     1      13.578   5.507  13.145  1.00  0.00     0.129 C 
HETATM    3  C   UNL     1      12.262   6.075  12.634  1.00  0.00     0.032 C 
HETATM    4  C   UNL     1      11.718   6.895  13.803  1.00  0.00     0.002 C 
HETATM    5  C   UNL     1      12.389   6.343  15.061  1.00  0.00     0.002 C 
HETATM    6  C   UNL     1      13.270   5.184  14.599  1.00  0.00     0.032 C 
ENDBRANCH   1   2
BRANCH   1   7
HETATM    7  C   UNL     1      15.778   6.132  12.495  1.00  0.00     0.103 A 
HETATM    8  C   UNL     1      16.745   5.526  13.291  1.00  0.00     0.047 A 
HETATM    9  C   UNL     1      17.962   5.142  12.726  1.00  0.00    -0.049 A 
HETATM   10  C   UNL     1      18.206   5.368  11.372  1.00  0.00     0.010 A 
HETATM   11  C   UNL     1      17.232   5.977  10.581  1.00  0.00     0.040 A 
HETATM   12  C   UNL     1      16.014   6.360  11.144  1.00  0.00     0.101 A 
BRANCH   9  13
HETATM   13  C   UNL     1      19.019   4.481  13.585  1.00  0.00     0.045 C 
HETATM   14  C   UNL     1      18.505   3.489  14.630  1.00  0.00     0.132 C 
HETATM   15  N   UNL     1      19.644   2.659  14.902  1.00  0.00    -0.360 N 
HETATM   16  C   UNL     1      20.588   2.696  13.885  1.00  0.00     0.218 C 
HETATM   17  H   UNL     1      19.744   2.121  15.721  1.00  0.00     0.162 HD
HETATM   18  O   UNL     1      21.628   2.062  13.815  1.00  0.00    -0.274 OA
HETATM   19  C   UNL     1      20.064   3.638  12.829  1.00  0.00     0.113 C 
ENDBRANCH   9  13
BRANCH  12  20
HETATM   20  O   UNL     1      15.071   6.955  10.362  1.00  0.00    -0.353 OA
HETATM   21  C   UNL     1      14.262   6.098   9.559  1.00  0.00     0.210 C 
ENDBRANCH  12  20
ENDBRANCH   1   7
TORSDOF 4
ENDMDL
MODEL 9
REMARK VINA RESULT:      -7.0      2.672      4.537
REMARK  4 active torsions:
REMARK  status: ('A' for Active; 'I' for Inactive)
REMARK    1  A    between atoms: O_1  and  C_5 
REMARK    2  A    between atoms: O_1  and  C_14 
REMARK    3  A    between atoms: O_2  and  C_18 
REMARK    4  A    between atoms: C_10  and  C_13 
ROOT
HETATM    1  O   UNL     1      18.028   6.077  12.105  1.00  0.00    -0.343 OA
ENDROOT
BRANCH   1   2
HETATM    2  C   UNL     1      17.550   5.760  10.804  1.00  0.00     0.129 C 
HETATM    3  C   UNL     1      18.573   6.202   9.768  1.00  0.00     0.032 C 
HETATM    4  C   UNL     1      18.342   7.705   9.618  1.00  0.00     0.002 C 
HETATM    5  C   UNL     1      16.914   7.968  10.095  1.00  0.00     0.002 C 
HETATM    6  C   UNL     1      16.332   6.605  10.466  1.00  0.00     0.032 C 
ENDBRANCH   1   2
BRANCH   1   7
HETATM    7  C   UNL     1      17.491   5.371  13.149  1.00  0.00     0.103 A 
HETATM    8  C   UNL     1      16.187   5.645  13.551  1.00  0.00     0.047 A 
HETATM    9  C   UNL     1      15.628   4.934  14.614  1.00  0.00    -0.049 A 
HETATM   10  C   UNL     1      16.376   3.955  15.268  1.00  0.00     0.010 A 
HETATM   11  C   UNL     1      17.682   3.687  14.860  1.00  0.00     0.040 A 
HETATM   12  C   UNL     1      18.242   4.397  13.797  1.00  0.00     0.101 A 
BRANCH   9  13
HETATM   13  C   UNL     1      14.211   5.225  15.056  1.00  0.00     0.045 C 
HETATM   14  C   UNL     1      14.066   6.147  16.268  1.00  0.00     0.132 C 
HETATM   15  N   UNL     1      12.733   6.666  16.145  1.00  0.00    -0.360 N 
HETATM   16  C   UNL     1      12.239   6.570  14.852  1.00  0.00     0.218 C 
HETATM   17  H   UNL     1      12.225   7.050  16.896  1.00  0.00     0.162 HD
HETATM   18  O   UNL     1      11.163   6.968  14.437  1.00  0.00    -0.274 OA
HETATM   19  C   UNL     1      13.314   5.921  14.014  1.00  0.00     0.113 C 
ENDBRANCH   9  13
BRANCH  12  20
HETATM   20  O   UNL     1      19.519   4.127  13.408  1.00  0.00    -0.353 OA
HETATM   21  C   UNL     1      19.924   2.760  13.421  1.00  0.00     0.210 C 
ENDBRANCH  12  20
ENDBRANCH   1   7
TORSDOF 4
ENDMDL
