MODEL 1
REMARK VINA RESULT:      -9.0      0.000      0.000
REMARK  4 active torsions:
REMARK  status: ('A' for Active; 'I' for Inactive)
REMARK    1  A    between atoms: O_1  and  C_5 
REMARK    2  A    between atoms: O_1  and  C_14 
REMARK    3  A    between atoms: O_2  and  C_18 
REMARK    4  A    between atoms: C_10  and  C_13 
ROOT
HETATM    1  O   UNL     1      15.679   6.450   9.760  1.00  0.00    -0.343 OA
ENDROOT
BRANCH   1   2
HETATM    2  C   UNL     1      16.536   7.087  10.698  1.00  0.00     0.129 C 
HETATM    3  C   UNL     1      17.603   7.876   9.954  1.00  0.00     0.032 C 
HETATM    4  C   UNL     1      18.635   6.827   9.540  1.00  0.00     0.002 C 
HETATM    5  C   UNL     1      18.448   5.645  10.491  1.00  0.00     0.002 C 
HETATM    6  C   UNL     1      17.345   6.053  11.464  1.00  0.00     0.032 C 
ENDBRANCH   1   2
BRANCH   1   7
HETATM    7  C   UNL     1      14.424   6.116  10.197  1.00  0.00     0.103 A 
HETATM    8  C   UNL     1      14.203   5.958  11.562  1.00  0.00     0.047 A 
HETATM    9  C   UNL     1      12.931   5.616  12.021  1.00  0.00    -0.049 A 
HETATM   10  C   UNL     1      11.888   5.433  11.113  1.00  0.00     0.010 A 
HETATM   11  C   UNL     1      12.116   5.591   9.747  1.00  0.00     0.040 A 
HETATM   12  C   UNL     1      13.388   5.934   9.287  1.00  0.00     0.101 A 
BRANCH   9  13
HETATM   13  C   UNL     1      12.682   5.445  13.504  1.00  0.00     0.045 C 
HETATM   14  C   UNL     1      13.892   5.020  14.338  1.00  0.00     0.132 C 
HETATM   15  N   UNL     1      13.553   5.438  15.669  1.00  0.00    -0.360 N 
HETATM   16  C   UNL     1      12.577   6.424  15.687  1.00  0.00     0.218 C 
HETATM   17  H   UNL     1      13.968   5.066  16.481  1.00  0.00     0.162 HD
HETATM   18  O   UNL     1      12.125   7.003  16.662  1.00  0.00    -0.274 OA
HETATM   19  C   UNL     1      12.202   6.704  14.252  1.00  0.00     0.113 C 
ENDBRANCH   9  13
BRANCH  12  20
HETATM   20  O   UNL     1      13.601   6.085   7.950  1.00  0.00    -0.353 OA
HETATM   21  C   UNL     1      12.452   6.063   7.106  1.00  0.00     0.210 C 
ENDBRANCH  12  20
ENDBRANCH   1   7
TORSDOF 4
ENDMDL
MODEL 2
REMARK VINA RESULT:      -8.7      1.298      4.052
REMARK  4 active torsions:
REMARK  status: ('A' for Active; 'I' for Inactive)
REMARK    1  A    between atoms: O_1  and  C_5 
REMARK    2  A    between atoms: O_1  and  C_14 
REMARK    3  A    between atoms: O_2  and  C_18 
REMARK    4  A    between atoms: C_10  and  C_13 
ROOT
HETATM    1  O   UNL     1      14.201   6.113   9.365  1.00  0.00    -0.343 OA
ENDROOT
BRANCH   1   2
HETATM    2  C   UNL     1      12.783   6.026   9.317  1.00  0.00     0.129 C 
HETATM    3  C   UNL     1      12.373   4.587   9.042  1.00  0.00     0.032 C 
HETATM    4  C   UNL     1      12.557   4.417   7.534  1.00  0.00     0.002 C 
HETATM    5  C   UNL     1      12.507   5.823   6.937  1.00  0.00     0.002 C 
HETATM    6  C   UNL     1      12.248   6.772   8.104  1.00  0.00     0.032 C 
ENDBRANCH   1   2
BRANCH   1   7
HETATM    7  C   UNL     1      14.772   6.180  10.609  1.00  0.00     0.103 A 
HETATM    8  C   UNL     1      13.972   6.482  11.707  1.00  0.00     0.047 A 
HETATM    9  C   UNL     1      14.542   6.555  12.978  1.00  0.00    -0.049 A 
HETATM   10  C   UNL     1      15.908   6.328  13.144  1.00  0.00     0.010 A 
HETATM   11  C   UNL     1      16.704   6.027  12.040  1.00  0.00     0.040 A 
HETATM   12  C   UNL     1      16.135   5.953  10.768  1.00  0.00     0.101 A 
BRANCH   9  13
HETATM   13  C   UNL     1      13.677   6.880  14.177  1.00  0.00     0.045 C 
HETATM   14  C   UNL     1      12.337   6.148  14.251  1.00  0.00     0.132 C 
HETATM   15  N   UNL     1      11.992   6.206  15.643  1.00  0.00    -0.360 N 
HETATM   16  C   UNL     1      13.092   6.438  16.457  1.00  0.00     0.218 C 
HETATM   17  H   UNL     1      11.075   6.094  15.984  1.00  0.00     0.162 HD
HETATM   18  O   UNL     1      13.115   6.491  17.676  1.00  0.00    -0.274 OA
HETATM   19  C   UNL     1      14.294   6.562  15.552  1.00  0.00     0.113 C 
ENDBRANCH   9  13
BRANCH  12  20
HETATM   20  O   UNL     1      16.923   5.660   9.696  1.00  0.00    -0.353 OA
HETATM   21  C   UNL     1      18.293   6.049   9.774  1.00  0.00     0.210 C 
ENDBRANCH  12  20
ENDBRANCH   1   7
TORSDOF 4
ENDMDL
MODEL 3
REMARK VINA RESULT:      -7.8      2.527      6.204
REMARK  4 active torsions:
REMARK  status: ('A' for Active; 'I' for Inactive)
REMARK    1  A    between atoms: O_1  and  C_5 
REMARK    2  A    between atoms: O_1  and  C_14 
REMARK    3  A    between atoms: O_2  and  C_18 
REMARK    4  A    between atoms: C_10  and  C_13 
ROOT
HETATM    1  O   UNL     1      14.855   5.563  14.309  1.00  0.00    -0.343 OA
ENDROOT
BRANCH   1   2
HETATM    2  C   UNL     1      14.714   6.731  15.107  1.00  0.00     0.129 C 
HETATM    3  C   UNL     1      14.301   6.332  16.517  1.00  0.00     0.032 C 
HETATM    4  C   UNL     1      12.799   6.073  16.417  1.00  0.00     0.002 C 
HETATM    5  C   UNL     1      12.314   6.838  15.186  1.00  0.00     0.002 C 
HETATM    6  C   UNL     1      13.536   7.563  14.627  1.00  0.00     0.032 C 
ENDBRANCH   1   2
BRANCH   1   7
HETATM    7  C   UNL     1      15.090   5.754  12.972  1.00  0.00     0.103 A 
HETATM    8  C   UNL     1      14.034   5.634  12.075  1.00  0.00     0.047 A 
HETATM    9  C   UNL     1      14.261   5.826  10.712  1.00  0.00    -0.049 A 
HETATM   10  C   UNL     1      15.542   6.134  10.254  1.00  0.00     0.010 A 
HETATM   11  C   UNL     1      16.596   6.252  11.159  1.00  0.00     0.040 A 
HETATM   12  C   UNL     1      16.370   6.062  12.522  1.00  0.00     0.101 A 
BRANCH   9  13
HETATM   13  C   UNL     1      13.117   5.698   9.729  1.00  0.00     0.045 C 
HETATM   14  C   UNL     1      12.019   6.757   9.843  1.00  0.00     0.132 C 
HETATM   15  N   UNL     1      11.394   6.742   8.550  1.00  0.00    -0.360 N 
HETATM   16  C   UNL     1      12.210   6.197   7.569  1.00  0.00     0.218 C 
HETATM   17  H   UNL     1      10.486   7.082   8.379  1.00  0.00     0.162 HD
HETATM   18  O   UNL     1      11.970   6.096   6.376  1.00  0.00    -0.274 OA
HETATM   19  C   UNL     1      13.500   5.792   8.240  1.00  0.00     0.113 C 
ENDBRANCH   9  13
BRANCH  12  20
HETATM   20  O   UNL     1      17.408   6.178  13.397  1.00  0.00    -0.353 OA
HETATM   21  C   UNL     1      18.299   5.070  13.496  1.00  0.00     0.210 C 
ENDBRANCH  12  20
ENDBRANCH   1   7
TORSDOF 4
ENDMDL
MODEL 4
REMARK VINA RESULT:      -7.6      2.858      4.151
REMARK  4 active torsions:
REMARK  status: ('A' for Active; 'I' for Inactive)
REMARK    1  A    between atoms: O_1  and  C_5 
REMARK    2  A    between atoms: O_1  and  C_14 
REMARK    3  A    between atoms: O_2  and  C_18 
REMARK    4  A    between atoms: C_10  and  C_13 
ROOT
HETATM    1  O   UNL     1      18.387   4.918  13.318  1.00  0.00    -0.343 OA
ENDROOT
BRANCH   1   2
HETATM    2  C   UNL     1      18.140   4.370  14.606  1.00  0.00     0.129 C 
HETATM    3  C   UNL     1      19.206   4.859  15.576  1.00  0.00     0.032 C 
HETATM    4  C   UNL     1      20.416   3.969  15.297  1.00  0.00     0.002 C 
HETATM    5  C   UNL     1      19.872   2.702  14.636  1.00  0.00     0.002 C 
HETATM    6  C   UNL     1      18.354   2.864  14.592  1.00  0.00     0.032 C 
ENDBRANCH   1   2
BRANCH   1   7
HETATM    7  C   UNL     1      17.298   5.372  12.622  1.00  0.00     0.103 A 
HETATM    8  C   UNL     1      16.076   5.490  13.277  1.00  0.00     0.047 A 
HETATM    9  C   UNL     1      14.960   5.950  12.579  1.00  0.00    -0.049 A 
HETATM   10  C   UNL     1      15.070   6.288  11.230  1.00  0.00     0.010 A 
HETATM   11  C   UNL     1      16.297   6.166  10.579  1.00  0.00     0.040 A 
HETATM   12  C   UNL     1      17.415   5.707  11.277  1.00  0.00     0.101 A 
BRANCH   9  13
HETATM   13  C   UNL     1      13.628   6.082  13.285  1.00  0.00     0.045 C 
HETATM   14  C   UNL     1      12.970   4.772  13.719  1.00  0.00     0.132 C 
HETATM   15  N   UNL     1      12.074   5.169  14.768  1.00  0.00    -0.360 N 
HETATM   16  C   UNL     1      12.418   6.391  15.330  1.00  0.00     0.218 C 
HETATM   17  H   UNL     1      11.301   4.634  15.059  1.00  0.00     0.162 HD
HETATM   18  O   UNL     1      11.875   6.957  16.264  1.00  0.00    -0.274 OA
HETATM   19  C   UNL     1      13.645   6.884  14.601  1.00  0.00     0.113 C 
ENDBRANCH   9  13
BRANCH  12  20
HETATM   20  O   UNL     1      18.608   5.591  10.630  1.00  0.00    -0.353 OA
HETATM   21  C   UNL     1      18.710   6.200   9.345  1.00  0.00     0.210 C 
ENDBRANCH  12  20
ENDBRANCH   1   7
TORSDOF 4
ENDMDL
MODEL 5
REMARK VINA RESULT:      -7.6      2.836      5.606
REMARK  4 active torsions:
REMARK  status: ('A' for Active; 'I' for Inactive)
REMARK    1  A    between atoms: O_1  and  C_5 
REMARK    2  A    between atoms: O_1  and  C_14 
REMARK    3  A    between atoms: O_2  and  C_18 
REMARK    4  A    between atoms: C_10  and  C_13 
ROOT
HETATM    1  O   UNL     1      15.790   6.434  13.496  1.00  0.00    -0.343 OA
ENDROOT
BRANCH   1   2
HETATM    2  C   UNL     1      16.477   5.208  13.711  1.00  0.00     0.129 C 
HETATM    3  C   UNL     1      16.252   4.747  15.144  1.00  0.00     0.032 C 
HETATM    4  C   UNL     1      17.231   5.580  15.971  1.00  0.00     0.002 C 
HETATM    5  C   UNL     1      18.323   6.040  15.007  1.00  0.00     0.002 C 
HETATM    6  C   UNL     1      17.981   5.425  13.652  1.00  0.00     0.032 C 
ENDBRANCH   1   2
BRANCH   1   7
HETATM    7  C   UNL     1      14.574   6.359  12.870  1.00  0.00     0.103 A 
HETATM    8  C   UNL     1      14.526   6.009  11.524  1.00  0.00     0.047 A 
HETATM    9  C   UNL     1      13.293   5.930  10.875  1.00  0.00    -0.049 A 
HETATM   10  C   UNL     1      12.117   6.202  11.574  1.00  0.00     0.010 A 
HETATM   11  C   UNL     1      12.173   6.553  12.922  1.00  0.00     0.040 A 
HETATM   12  C   UNL     1      13.405   6.631  13.573  1.00  0.00     0.101 A 
BRANCH   9  13
HETATM   13  C   UNL     1      13.233   5.549   9.411  1.00  0.00     0.045 C 
HETATM   14  C   UNL     1      12.426   4.292   9.082  1.00  0.00     0.132 C 
HETATM   15  N   UNL     1      12.088   4.455   7.696  1.00  0.00    -0.360 N 
HETATM   16  C   UNL     1      12.162   5.778   7.281  1.00  0.00     0.218 C 
HETATM   17  H   UNL     1      11.832   3.711   7.105  1.00  0.00     0.162 HD
HETATM   18  O   UNL     1      11.889   6.225   6.179  1.00  0.00    -0.274 OA
HETATM   19  C   UNL     1      12.597   6.594   8.474  1.00  0.00     0.113 C 
ENDBRANCH   9  13
BRANCH  12  20
HETATM   20  O   UNL     1      13.447   6.976  14.890  1.00  0.00    -0.353 OA
HETATM   21  C   UNL     1      12.375   6.521  15.713  1.00  0.00     0.210 C 
ENDBRANCH  12  20
ENDBRANCH   1   7
TORSDOF 4
ENDMDL
MODEL 6
REMARK VINA RESULT:      -7.5      3.758      6.186
REMARK  4 active torsions:
REMARK  status: ('A' for Active; 'I' for Inactive)
REMARK    1  A    between atoms: O_1  and  C_5 
REMARK    2  A    between atoms: O_1  and  C_14 
REMARK    3  A    between atoms: O_2  and  C_18 
REMARK    4  A    between atoms: C_10  and  C_13 
ROOT
HETATM    1  O   UNL     1      18.096   4.397  14.951  1.00  0.00    -0.343 OA
ENDROOT
BRANCH   1   2
HETATM    2  C   UNL     1      17.043   3.634  15.526  1.00  0.00     0.129 C 
HETATM    3  C   UNL     1      17.120   3.729  17.043  1.00  0.00     0.032 C 
HETATM    4  C   UNL     1      18.215   2.738  17.434  1.00  0.00     0.002 C 
HETATM    5  C   UNL     1      18.325   1.744  16.278  1.00  0.00     0.002 C 
HETATM    6  C   UNL     1      17.259   2.152  15.264  1.00  0.00     0.032 C 
ENDBRANCH   1   2
BRANCH   1   7
HETATM    7  C   UNL     1      17.912   4.830  13.664  1.00  0.00     0.103 A 
HETATM    8  C   UNL     1      16.670   5.335  13.290  1.00  0.00     0.047 A 
HETATM    9  C   UNL     1      16.470   5.777  11.983  1.00  0.00    -0.049 A 
HETATM   10  C   UNL     1      17.511   5.712  11.056  1.00  0.00     0.010 A 
HETATM   11  C   UNL     1      18.752   5.204  11.438  1.00  0.00     0.040 A 
HETATM   12  C   UNL     1      18.954   4.762  12.746  1.00  0.00     0.101 A 
BRANCH   9  13
HETATM   13  C   UNL     1      15.123   6.329  11.569  1.00  0.00     0.045 C 
HETATM   14  C   UNL     1      14.760   6.165  10.092  1.00  0.00     0.132 C 
HETATM   15  N   UNL     1      13.328   6.258  10.079  1.00  0.00    -0.360 N 
HETATM   16  C   UNL     1      12.764   5.994  11.320  1.00  0.00     0.218 C 
HETATM   17  H   UNL     1      12.802   6.484   9.278  1.00  0.00     0.162 HD
HETATM   18  O   UNL     1      11.578   5.951  11.602  1.00  0.00    -0.274 OA
HETATM   19  C   UNL     1      13.901   5.706  12.271  1.00  0.00     0.113 C 
ENDBRANCH   9  13
BRANCH  12  20
HETATM   20  O   UNL     1      20.171   4.267  13.106  1.00  0.00    -0.353 OA
HETATM   21  C   UNL     1      20.388   2.872  12.904  1.00  0.00     0.210 C 
ENDBRANCH  12  20
ENDBRANCH   1   7
TORSDOF 4
ENDMDL
MODEL 7
REMARK VINA RESULT:      -7.3      1.802      4.231
REMARK  4 active torsions:
REMARK  status: ('A' for Active; 'I' for Inactive)
REMARK    1  A    between atoms: O_1  and  C_5 
REMARK    2  A    between atoms: O_1  and  C_14 
REMARK    3  A    between atoms: O_2  and  C_18 
REMARK    4  A    between atoms: C_10  and  C_13 
ROOT
HETATM    1  O   UNL     1      14.479   6.388   9.992  1.00  0.00    -0.343 OA
ENDROOT
BRANCH   1   2
HETATM    2  C   UNL     1      13.420   5.464   9.774  1.00  0.00     0.129 C 
HETATM    3  C   UNL     1      13.395   5.063   8.306  1.00  0.00     0.032 C 
HETATM    4  C   UNL     1      12.690   6.223   7.604  1.00  0.00     0.002 C 
HETATM    5  C   UNL     1      11.867   6.936   8.677  1.00  0.00     0.002 C 
HETATM    6  C   UNL     1      12.074   6.146   9.967  1.00  0.00     0.032 C 
ENDBRANCH   1   2
BRANCH   1   7
HETATM    7  C   UNL     1      15.365   6.085  10.992  1.00  0.00     0.103 A 
HETATM    8  C   UNL     1      14.896   5.948  12.295  1.00  0.00     0.047 A 
HETATM    9  C   UNL     1      15.788   5.641  13.322  1.00  0.00    -0.049 A 
HETATM   10  C   UNL     1      17.145   5.474  13.042  1.00  0.00     0.010 A 
HETATM   11  C   UNL     1      17.608   5.614  11.734  1.00  0.00     0.040 A 
HETATM   12  C   UNL     1      16.716   5.921  10.706  1.00  0.00     0.101 A 
BRANCH   9  13
HETATM   13  C   UNL     1      15.285   5.489  14.741  1.00  0.00     0.045 C 
HETATM   14  C   UNL     1      16.186   4.694  15.687  1.00  0.00     0.132 C 
HETATM   15  N   UNL     1      15.788   5.138  16.993  1.00  0.00    -0.360 N 
HETATM   16  C   UNL     1      15.142   6.366  16.966  1.00  0.00     0.218 C 
HETATM   17  H   UNL     1      15.955   4.627  17.818  1.00  0.00     0.162 HD
HETATM   18  O   UNL     1      14.734   7.011  17.918  1.00  0.00    -0.274 OA
HETATM   19  C   UNL     1      15.078   6.801  15.522  1.00  0.00     0.113 C 
ENDBRANCH   9  13
BRANCH  12  20
HETATM   20  O   UNL     1      17.181   6.055   9.433  1.00  0.00    -0.353 OA
HETATM   21  C   UNL     1      18.591   6.184   9.268  1.00  0.00     0.210 C 
ENDBRANCH  12  20
ENDBRANCH   1   7
TORSDOF 4
ENDMDL
MODEL 8
REMARK VINA RESULT:      -7.2      3.198      6.357
REMARK  4 active torsions:
REMARK  status: ('A' for Active; 'I' for Inactive)
REMARK    1  A    between atoms: O_1  and  C_5 
REMARK    2  A    between atoms: O_1  and  C_14 
REMARK    3  A    between atoms: O_2  and  C_18 
REMARK    4  A    between atoms: C_10  and  C_13 
ROOT
HETATM    1  O   UNL     1      15.649   4.111  15.909  1.00  0.00    -0.343 OA
ENDROOT
BRANCH   1   2
HETATM    2  C   UNL     1      16.909   3.761  15.351  1.00  0.00     0.129 C 
HETATM    3  C   UNL     1      17.063   2.247  15.361  1.00  0.00     0.032 C 
HETATM    4  C   UNL     1      17.468   1.911  16.795  1.00  0.00     0.002 C 
HETATM    5  C   UNL     1      18.065   3.190  17.381  1.00  0.00     0.002 C 
HETATM    6  C   UNL     1      18.038   4.225  16.259  1.00  0.00     0.032 C 
ENDBRANCH   1   2
BRANCH   1   7
HETATM    7  C   UNL     1      14.911   5.043  15.229  1.00  0.00     0.103 A 
HETATM    8  C   UNL     1      14.511   4.769  13.924  1.00  0.00     0.047 A 
HETATM    9  C   UNL     1      13.760   5.711  13.220  1.00  0.00    -0.049 A 
HETATM   10  C   UNL     1      13.415   6.921  13.823  1.00  0.00     0.010 A 
HETATM   11  C   UNL     1      13.820   7.188  15.130  1.00  0.00     0.040 A 
HETATM   12  C   UNL     1      14.570   6.247  15.835  1.00  0.00     0.101 A 
BRANCH   9  13
HETATM   13  C   UNL     1      13.320   5.420  11.801  1.00  0.00     0.045 C 
HETATM   14  C   UNL     1      11.960   5.988  11.395  1.00  0.00     0.132 C 
HETATM   15  N   UNL     1      12.027   6.046   9.962  1.00  0.00    -0.360 N 
HETATM   16  C   UNL     1      13.331   6.042   9.488  1.00  0.00     0.218 C 
HETATM   17  H   UNL     1      11.234   6.084   9.379  1.00  0.00     0.162 HD
HETATM   18  O   UNL     1      13.699   6.130   8.328  1.00  0.00    -0.274 OA
HETATM   19  C   UNL     1      14.240   5.964  10.691  1.00  0.00     0.113 C 
ENDBRANCH   9  13
BRANCH  12  20
HETATM   20  O   UNL     1      14.961   6.520  17.111  1.00  0.00    -0.353 OA
HETATM   21  C   UNL     1      16.118   7.338  17.273  1.00  0.00     0.210 C 
ENDBRANCH  12  20
ENDBRANCH   1   7
TORSDOF 4
ENDMDL
MODEL 9
REMARK VINA RESULT:      -7.0      3.248      6.116
REMARK  4 active torsions:
REMARK  status: ('A' for Active; 'I' for Inactive)
REMARK    1  A    between atoms: O_1  and  C_5 
REMARK    2  A    between atoms: O_1  and  C_14 
REMARK    3  A    between atoms: O_2  and  C_18 
REMARK    4  A    between atoms: C_10  and  C_13 
ROOT
HETATM    1  O   UNL     1      14.579   6.473  13.029  1.00  0.00    -0.343 OA
ENDROOT
BRANCH   1   2
HETATM    2  C   UNL     1      13.554   5.488  13.047  1.00  0.00     0.129 C 
HETATM    3  C   UNL     1      12.246   6.112  12.581  1.00  0.00     0.032 C 
HETATM    4  C   UNL     1      11.719   6.858  13.806  1.00  0.00     0.002 C 
HETATM    5  C   UNL     1      12.384   6.210  15.020  1.00  0.00     0.002 C 
HETATM    6  C   UNL     1      13.244   5.071  14.477  1.00  0.00     0.032 C 
ENDBRANCH   1   2
BRANCH   1   7
HETATM    7  C   UNL     1      15.775   6.108  12.468  1.00  0.00     0.103 A 
HETATM    8  C   UNL     1      16.743   5.509  13.269  1.00  0.00     0.047 A 
HETATM    9  C   UNL     1      17.965   5.134  12.710  1.00  0.00    -0.049 A 
HETATM   10  C   UNL     1      18.213   5.361  11.356  1.00  0.00     0.010 A 
HETATM   11  C   UNL     1      17.238   5.962  10.560  1.00  0.00     0.040 A 
HETATM   12  C   UNL     1      16.015   6.337  11.118  1.00  0.00     0.101 A 
BRANCH   9  13
HETATM   13  C   UNL     1      19.023   4.481  13.573  1.00  0.00     0.045 C 
HETATM   14  C   UNL     1      18.526   3.399  14.532  1.00  0.00     0.132 C 
HETATM   15  N   UNL     1      19.699   2.618  14.805  1.00  0.00    -0.360 N 
HETATM   16  C   UNL     1      20.681   2.772  13.835  1.00  0.00     0.218 C 
HETATM   17  H   UNL     1      19.798   2.036  15.593  1.00  0.00     0.162 HD
HETATM   18  O   UNL     1      21.759   2.203  13.774  1.00  0.00    -0.274 OA
HETATM   19  C   UNL     1      20.146   3.747  12.815  1.00  0.00     0.113 C 
ENDBRANCH   9  13
BRANCH  12  20
HETATM   20  O   UNL     1      15.071   6.924  10.331  1.00  0.00    -0.353 OA
HETATM   21  C   UNL     1      14.304   6.066   9.490  1.00  0.00     0.210 C 
ENDBRANCH  12  20
ENDBRANCH   1   7
TORSDOF 4
ENDMDL
