MODEL 1
REMARK VINA RESULT:      -9.0      0.000      0.000
REMARK  4 active torsions:
REMARK  status: ('A' for Active; 'I' for Inactive)
REMARK    1  A    between atoms: O_1  and  C_5 
REMARK    2  A    between atoms: O_1  and  C_14 
REMARK    3  A    between atoms: O_2  and  C_18 
REMARK    4  A    between atoms: C_10  and  C_13 
ROOT
HETATM    1  O   UNL     1      15.693   6.440   9.763  1.00  0.00    -0.343 OA
ENDROOT
BRANCH   1   2
HETATM    2  C   UNL     1      16.551   7.078  10.700  1.00  0.00     0.129 C 
HETATM    3  C   UNL     1      17.609   7.876   9.953  1.00  0.00     0.032 C 
HETATM    4  C   UNL     1      18.645   6.837   9.528  1.00  0.00     0.002 C 
HETATM    5  C   UNL     1      18.471   5.648  10.474  1.00  0.00     0.002 C 
HETATM    6  C   UNL     1      17.371   6.044  11.456  1.00  0.00     0.032 C 
ENDBRANCH   1   2
BRANCH   1   7
HETATM    7  C   UNL     1      14.435   6.116  10.200  1.00  0.00     0.103 A 
HETATM    8  C   UNL     1      14.213   5.955  11.564  1.00  0.00     0.047 A 
HETATM    9  C   UNL     1      12.937   5.624  12.021  1.00  0.00    -0.049 A 
HETATM   10  C   UNL     1      11.892   5.453  11.113  1.00  0.00     0.010 A 
HETATM   11  C   UNL     1      12.122   5.615   9.748  1.00  0.00     0.040 A 
HETATM   12  C   UNL     1      13.398   5.947   9.289  1.00  0.00     0.101 A 
BRANCH   9  13
HETATM   13  C   UNL     1      12.687   5.449  13.504  1.00  0.00     0.045 C 
HETATM   14  C   UNL     1      13.896   5.023  14.339  1.00  0.00     0.132 C 
HETATM   15  N   UNL     1      13.556   5.438  15.670  1.00  0.00    -0.360 N 
HETATM   16  C   UNL     1      12.579   6.424  15.689  1.00  0.00     0.218 C 
HETATM   17  H   UNL     1      13.970   5.064  16.482  1.00  0.00     0.162 HD
HETATM   18  O   UNL     1      12.125   7.000  16.665  1.00  0.00    -0.274 OA
HETATM   19  C   UNL     1      12.205   6.705  14.254  1.00  0.00     0.113 C 
ENDBRANCH   9  13
BRANCH  12  20
HETATM   20  O   UNL     1      13.611   6.101   7.953  1.00  0.00    -0.353 OA
HETATM   21  C   UNL     1      12.464   6.067   7.106  1.00  0.00     0.210 C 
ENDBRANCH  12  20
ENDBRANCH   1   7
TORSDOF 4
ENDMDL
MODEL 2
REMARK VINA RESULT:      -8.7      1.313      4.063
REMARK  4 active torsions:
REMARK  status: ('A' for Active; 'I' for Inactive)
REMARK    1  A    between atoms: O_1  and  C_5 
REMARK    2  A    between atoms: O_1  and  C_14 
REMARK    3  A    between atoms: O_2  and  C_18 
REMARK    4  A    between atoms: C_10  and  C_13 
ROOT
HETATM    1  O   UNL     1      14.213   6.095   9.352  1.00  0.00    -0.343 OA
ENDROOT
BRANCH   1   2
HETATM    2  C   UNL     1      12.794   6.009   9.331  1.00  0.00     0.129 C 
HETATM    3  C   UNL     1      12.380   4.568   9.072  1.00  0.00     0.032 C 
HETATM    4  C   UNL     1      12.533   4.392   7.562  1.00  0.00     0.002 C 
HETATM    5  C   UNL     1      12.472   5.795   6.958  1.00  0.00     0.002 C 
HETATM    6  C   UNL     1      12.236   6.749   8.126  1.00  0.00     0.032 C 
ENDBRANCH   1   2
BRANCH   1   7
HETATM    7  C   UNL     1      14.810   6.160  10.584  1.00  0.00     0.103 A 
HETATM    8  C   UNL     1      14.029   6.445  11.700  1.00  0.00     0.047 A 
HETATM    9  C   UNL     1      14.625   6.514  12.960  1.00  0.00    -0.049 A 
HETATM   10  C   UNL     1      15.996   6.300  13.096  1.00  0.00     0.010 A 
HETATM   11  C   UNL     1      16.773   6.016  11.973  1.00  0.00     0.040 A 
HETATM   12  C   UNL     1      16.178   5.946  10.713  1.00  0.00     0.101 A 
BRANCH   9  13
HETATM   13  C   UNL     1      13.782   6.822  14.179  1.00  0.00     0.045 C 
HETATM   14  C   UNL     1      12.478   6.033  14.304  1.00  0.00     0.132 C 
HETATM   15  N   UNL     1      12.171   6.099  15.705  1.00  0.00    -0.360 N 
HETATM   16  C   UNL     1      13.283   6.393  16.482  1.00  0.00     0.218 C 
HETATM   17  H   UNL     1      11.271   5.952  16.075  1.00  0.00     0.162 HD
HETATM   18  O   UNL     1      13.340   6.468  17.699  1.00  0.00    -0.274 OA
HETATM   19  C   UNL     1      14.452   6.554  15.540  1.00  0.00     0.113 C 
ENDBRANCH   9  13
BRANCH  12  20
HETATM   20  O   UNL     1      16.947   5.669   9.623  1.00  0.00    -0.353 OA
HETATM   21  C   UNL     1      18.332   5.995   9.708  1.00  0.00     0.210 C 
ENDBRANCH  12  20
ENDBRANCH   1   7
TORSDOF 4
ENDMDL
MODEL 3
REMARK VINA RESULT:      -8.3      1.234      1.496
REMARK  4 active torsions:
REMARK  status: ('A' for Active; 'I' for Inactive)
REMARK    1  A    between atoms: O_1  and  C_5 
REMARK    2  A    between atoms: O_1  and  C_14 
REMARK    3  A    between atoms: O_2  and  C_18 
REMARK    4  A    between atoms: C_10  and  C_13 
ROOT
HETATM    1  O   UNL     1      15.869   6.009  10.536  1.00  0.00    -0.343 OA
ENDROOT
BRANCH   1   2
HETATM    2  C   UNL     1      16.901   6.863  11.013  1.00  0.00     0.129 C 
HETATM    3  C   UNL     1      17.713   7.380   9.835  1.00  0.00     0.032 C 
HETATM    4  C   UNL     1      18.658   6.231   9.487  1.00  0.00     0.002 C 
HETATM    5  C   UNL     1      18.767   5.371  10.745  1.00  0.00     0.002 C 
HETATM    6  C   UNL     1      17.921   6.066  11.810  1.00  0.00     0.032 C 
ENDBRANCH   1   2
BRANCH   1   7
HETATM    7  C   UNL     1      14.637   6.144  11.121  1.00  0.00     0.103 A 
HETATM    8  C   UNL     1      14.560   6.498  12.464  1.00  0.00     0.047 A 
HETATM    9  C   UNL     1      13.312   6.638  13.072  1.00  0.00    -0.049 A 
HETATM   10  C   UNL     1      12.148   6.422  12.333  1.00  0.00     0.010 A 
HETATM   11  C   UNL     1      12.233   6.067  10.988  1.00  0.00     0.040 A 
HETATM   12  C   UNL     1      13.480   5.927  10.379  1.00  0.00     0.101 A 
BRANCH   9  13
HETATM   13  C   UNL     1      13.221   7.023  14.532  1.00  0.00     0.045 C 
HETATM   14  C   UNL     1      12.095   6.361  15.328  1.00  0.00     0.132 C 
HETATM   15  N   UNL     1      12.537   6.456  16.690  1.00  0.00    -0.360 N 
HETATM   16  C   UNL     1      13.908   6.644  16.795  1.00  0.00     0.218 C 
HETATM   17  H   UNL     1      11.934   6.395  17.466  1.00  0.00     0.162 HD
HETATM   18  O   UNL     1      14.572   6.712  17.817  1.00  0.00    -0.274 OA
HETATM   19  C   UNL     1      14.457   6.693  15.390  1.00  0.00     0.113 C 
ENDBRANCH   9  13
BRANCH  12  20
HETATM   20  O   UNL     1      13.550   5.579   9.064  1.00  0.00    -0.353 OA
HETATM   21  C   UNL     1      12.474   5.994   8.226  1.00  0.00     0.210 C 
ENDBRANCH  12  20
ENDBRANCH   1   7
TORSDOF 4
ENDMDL
MODEL 4
REMARK VINA RESULT:      -7.7      2.543      5.359
REMARK  4 active torsions:
REMARK  status: ('A' for Active; 'I' for Inactive)
REMARK    1  A    between atoms: O_1  and  C_5 
REMARK    2  A    between atoms: O_1  and  C_14 
REMARK    3  A    between atoms: O_2  and  C_18 
REMARK    4  A    between atoms: C_10  and  C_13 
ROOT
HETATM    1  O   UNL     1      16.073   5.189  13.395  1.00  0.00    -0.343 OA
ENDROOT
BRANCH   1   2
HETATM    2  C   UNL     1      17.113   6.134  13.183  1.00  0.00     0.129 C 
HETATM    3  C   UNL     1      18.084   5.594  12.143  1.00  0.00     0.032 C 
HETATM    4  C   UNL     1      18.966   4.614  12.916  1.00  0.00     0.002 C 
HETATM    5  C   UNL     1      18.874   5.022  14.386  1.00  0.00     0.002 C 
HETATM    6  C   UNL     1      17.978   6.258  14.428  1.00  0.00     0.032 C 
ENDBRANCH   1   2
BRANCH   1   7
HETATM    7  C   UNL     1      14.802   5.588  13.075  1.00  0.00     0.103 A 
HETATM    8  C   UNL     1      14.361   5.457  11.762  1.00  0.00     0.047 A 
HETATM    9  C   UNL     1      13.069   5.861  11.424  1.00  0.00    -0.049 A 
HETATM   10  C   UNL     1      12.227   6.395  12.399  1.00  0.00     0.010 A 
HETATM   11  C   UNL     1      12.675   6.524  13.713  1.00  0.00     0.040 A 
HETATM   12  C   UNL     1      13.967   6.119  14.053  1.00  0.00     0.101 A 
BRANCH   9  13
HETATM   13  C   UNL     1      12.582   5.721   9.998  1.00  0.00     0.045 C 
HETATM   14  C   UNL     1      11.529   6.735   9.550  1.00  0.00     0.132 C 
HETATM   15  N   UNL     1      11.641   6.735   8.118  1.00  0.00    -0.360 N 
HETATM   16  C   UNL     1      12.864   6.249   7.678  1.00  0.00     0.218 C 
HETATM   17  H   UNL     1      10.928   7.047   7.515  1.00  0.00     0.162 HD
HETATM   18  O   UNL     1      13.262   6.174   6.527  1.00  0.00    -0.274 OA
HETATM   19  C   UNL     1      13.659   5.872   8.905  1.00  0.00     0.113 C 
ENDBRANCH   9  13
BRANCH  12  20
HETATM   20  O   UNL     1      14.394   6.251  15.339  1.00  0.00    -0.353 OA
HETATM   21  C   UNL     1      13.392   6.319  16.351  1.00  0.00     0.210 C 
ENDBRANCH  12  20
ENDBRANCH   1   7
TORSDOF 4
ENDMDL
MODEL 5
REMARK VINA RESULT:      -7.7      2.561      6.037
REMARK  4 active torsions:
REMARK  status: ('A' for Active; 'I' for Inactive)
REMARK    1  A    between atoms: O_1  and  C_5 
REMARK    2  A    between atoms: O_1  and  C_14 
REMARK    3  A    between atoms: O_2  and  C_18 
REMARK    4  A    between atoms: C_10  and  C_13 
ROOT
HETATM    1  O   UNL     1      14.879   6.628  14.087  1.00  0.00    -0.343 OA
ENDROOT
BRANCH   1   2
HETATM    2  C   UNL     1      14.157   5.645  14.819  1.00  0.00     0.129 C 
HETATM    3  C   UNL     1      14.002   6.102  16.262  1.00  0.00     0.032 C 
HETATM    4  C   UNL     1      15.345   5.777  16.914  1.00  0.00     0.002 C 
HETATM    5  C   UNL     1      15.985   4.688  16.053  1.00  0.00     0.002 C 
HETATM    6  C   UNL     1      14.979   4.372  14.949  1.00  0.00     0.032 C 
ENDBRANCH   1   2
BRANCH   1   7
HETATM    7  C   UNL     1      15.127   6.356  12.768  1.00  0.00     0.103 A 
HETATM    8  C   UNL     1      14.055   6.202  11.894  1.00  0.00     0.047 A 
HETATM    9  C   UNL     1      14.294   5.924  10.549  1.00  0.00    -0.049 A 
HETATM   10  C   UNL     1      15.604   5.799  10.084  1.00  0.00     0.010 A 
HETATM   11  C   UNL     1      16.673   5.954  10.964  1.00  0.00     0.040 A 
HETATM   12  C   UNL     1      16.435   6.233  12.311  1.00  0.00     0.101 A 
BRANCH   9  13
HETATM   13  C   UNL     1      13.133   5.757   9.592  1.00  0.00     0.045 C 
HETATM   14  C   UNL     1      12.009   6.785   9.723  1.00  0.00     0.132 C 
HETATM   15  N   UNL     1      11.357   6.743   8.444  1.00  0.00    -0.360 N 
HETATM   16  C   UNL     1      12.166   6.213   7.449  1.00  0.00     0.218 C 
HETATM   17  H   UNL     1      10.436   7.056   8.290  1.00  0.00     0.162 HD
HETATM   18  O   UNL     1      11.904   6.096   6.263  1.00  0.00    -0.274 OA
HETATM   19  C   UNL     1      13.481   5.849   8.094  1.00  0.00     0.113 C 
ENDBRANCH   9  13
BRANCH  12  20
HETATM   20  O   UNL     1      17.488   6.380  13.162  1.00  0.00    -0.353 OA
HETATM   21  C   UNL     1      18.351   5.257  13.325  1.00  0.00     0.210 C 
ENDBRANCH  12  20
ENDBRANCH   1   7
TORSDOF 4
ENDMDL
MODEL 6
REMARK VINA RESULT:      -7.6      2.844      4.142
REMARK  4 active torsions:
REMARK  status: ('A' for Active; 'I' for Inactive)
REMARK    1  A    between atoms: O_1  and  C_5 
REMARK    2  A    between atoms: O_1  and  C_14 
REMARK    3  A    between atoms: O_2  and  C_18 
REMARK    4  A    between atoms: C_10  and  C_13 
ROOT
HETATM    1  O   UNL     1      18.419   5.037  13.348  1.00  0.00    -0.343 OA
ENDROOT
BRANCH   1   2
HETATM    2  C   UNL     1      18.181   4.468  14.629  1.00  0.00     0.129 C 
HETATM    3  C   UNL     1      19.290   4.888  15.582  1.00  0.00     0.032 C 
HETATM    4  C   UNL     1      20.454   3.956  15.251  1.00  0.00     0.002 C 
HETATM    5  C   UNL     1      19.841   2.730  14.575  1.00  0.00     0.002 C 
HETATM    6  C   UNL     1      18.331   2.956  14.573  1.00  0.00     0.032 C 
ENDBRANCH   1   2
BRANCH   1   7
HETATM    7  C   UNL     1      17.318   5.426  12.631  1.00  0.00     0.103 A 
HETATM    8  C   UNL     1      16.097   5.558  13.285  1.00  0.00     0.047 A 
HETATM    9  C   UNL     1      14.968   5.953  12.566  1.00  0.00    -0.049 A 
HETATM   10  C   UNL     1      15.066   6.211  11.199  1.00  0.00     0.010 A 
HETATM   11  C   UNL     1      16.293   6.076  10.550  1.00  0.00     0.040 A 
HETATM   12  C   UNL     1      17.423   5.682  11.268  1.00  0.00     0.101 A 
BRANCH   9  13
HETATM   13  C   UNL     1      13.637   6.100  13.270  1.00  0.00     0.045 C 
HETATM   14  C   UNL     1      12.944   4.796  13.666  1.00  0.00     0.132 C 
HETATM   15  N   UNL     1      12.054   5.188  14.722  1.00  0.00    -0.360 N 
HETATM   16  C   UNL     1      12.426   6.386  15.317  1.00  0.00     0.218 C 
HETATM   17  H   UNL     1      11.266   4.665  14.995  1.00  0.00     0.162 HD
HETATM   18  O   UNL     1      11.893   6.941  16.264  1.00  0.00    -0.274 OA
HETATM   19  C   UNL     1      13.668   6.866  14.607  1.00  0.00     0.113 C 
ENDBRANCH   9  13
BRANCH  12  20
HETATM   20  O   UNL     1      18.616   5.552  10.623  1.00  0.00    -0.353 OA
HETATM   21  C   UNL     1      18.755   6.230   9.377  1.00  0.00     0.210 C 
ENDBRANCH  12  20
ENDBRANCH   1   7
TORSDOF 4
ENDMDL
MODEL 7
REMARK VINA RESULT:      -7.5      3.768      6.152
REMARK  4 active torsions:
REMARK  status: ('A' for Active; 'I' for Inactive)
REMARK    1  A    between atoms: O_1  and  C_5 
REMARK    2  A    between atoms: O_1  and  C_14 
REMARK    3  A    between atoms: O_2  and  C_18 
REMARK    4  A    between atoms: C_10  and  C_13 
ROOT
HETATM    1  O   UNL     1      18.007   4.579  14.982  1.00  0.00    -0.343 OA
ENDROOT
BRANCH   1   2
HETATM    2  C   UNL     1      17.091   3.624  15.502  1.00  0.00     0.129 C 
HETATM    3  C   UNL     1      17.189   3.605  17.020  1.00  0.00     0.032 C 
HETATM    4  C   UNL     1      18.426   2.757  17.313  1.00  0.00     0.002 C 
HETATM    5  C   UNL     1      18.653   1.889  16.076  1.00  0.00     0.002 C 
HETATM    6  C   UNL     1      17.515   2.217  15.112  1.00  0.00     0.032 C 
ENDBRANCH   1   2
BRANCH   1   7
HETATM    7  C   UNL     1      17.836   4.948  13.673  1.00  0.00     0.103 A 
HETATM    8  C   UNL     1      16.598   5.433  13.262  1.00  0.00     0.047 A 
HETATM    9  C   UNL     1      16.412   5.811  11.932  1.00  0.00    -0.049 A 
HETATM   10  C   UNL     1      17.463   5.701  11.021  1.00  0.00     0.010 A 
HETATM   11  C   UNL     1      18.700   5.213  11.440  1.00  0.00     0.040 A 
HETATM   12  C   UNL     1      18.888   4.835  12.770  1.00  0.00     0.101 A 
BRANCH   9  13
HETATM   13  C   UNL     1      15.069   6.341  11.478  1.00  0.00     0.045 C 
HETATM   14  C   UNL     1      14.738   6.138   9.999  1.00  0.00     0.132 C 
HETATM   15  N   UNL     1      13.305   6.218   9.955  1.00  0.00    -0.360 N 
HETATM   16  C   UNL     1      12.719   5.981  11.191  1.00  0.00     0.218 C 
HETATM   17  H   UNL     1      12.793   6.420   9.138  1.00  0.00     0.162 HD
HETATM   18  O   UNL     1      11.527   5.936  11.450  1.00  0.00    -0.274 OA
HETATM   19  C   UNL     1      13.838   5.727  12.171  1.00  0.00     0.113 C 
ENDBRANCH   9  13
BRANCH  12  20
HETATM   20  O   UNL     1      20.101   4.359  13.167  1.00  0.00    -0.353 OA
HETATM   21  C   UNL     1      20.396   3.000  12.854  1.00  0.00     0.210 C 
ENDBRANCH  12  20
ENDBRANCH   1   7
TORSDOF 4
ENDMDL
MODEL 8
REMARK VINA RESULT:      -7.2      3.216      6.374
REMARK  4 active torsions:
REMARK  status: ('A' for Active; 'I' for Inactive)
REMARK    1  A    between atoms: O_1  and  C_5 
REMARK    2  A    between atoms: O_1  and  C_14 
REMARK    3  A    between atoms: O_2  and  C_18 
REMARK    4  A    between atoms: C_10  and  C_13 
ROOT
HETATM    1  O   UNL     1      15.662   4.049  15.918  1.00  0.00    -0.343 OA
ENDROOT
BRANCH   1   2
HETATM    2  C   UNL     1      16.954   3.759  15.400  1.00  0.00     0.129 C 
HETATM    3  C   UNL     1      17.115   2.253  15.260  1.00  0.00     0.032 C 
HETATM    4  C   UNL     1      17.440   1.769  16.673  1.00  0.00     0.002 C 
HETATM    5  C   UNL     1      17.995   2.979  17.422  1.00  0.00     0.002 C 
HETATM    6  C   UNL     1      18.026   4.126  16.415  1.00  0.00     0.032 C 
ENDBRANCH   1   2
BRANCH   1   7
HETATM    7  C   UNL     1      14.929   4.996  15.253  1.00  0.00     0.103 A 
HETATM    8  C   UNL     1      14.516   4.740  13.948  1.00  0.00     0.047 A 
HETATM    9  C   UNL     1      13.770   5.696  13.259  1.00  0.00    -0.049 A 
HETATM   10  C   UNL     1      13.442   6.903  13.877  1.00  0.00     0.010 A 
HETATM   11  C   UNL     1      13.859   7.154  15.183  1.00  0.00     0.040 A 
HETATM   12  C   UNL     1      14.605   6.198  15.874  1.00  0.00     0.101 A 
BRANCH   9  13
HETATM   13  C   UNL     1      13.317   5.424  11.841  1.00  0.00     0.045 C 
HETATM   14  C   UNL     1      11.976   6.040  11.440  1.00  0.00     0.132 C 
HETATM   15  N   UNL     1      12.041   6.098  10.007  1.00  0.00    -0.360 N 
HETATM   16  C   UNL     1      13.344   6.050   9.529  1.00  0.00     0.218 C 
HETATM   17  H   UNL     1      11.249   6.165   9.426  1.00  0.00     0.162 HD
HETATM   18  O   UNL     1      13.711   6.128   8.368  1.00  0.00    -0.274 OA
HETATM   19  C   UNL     1      14.252   5.938  10.730  1.00  0.00     0.113 C 
ENDBRANCH   9  13
BRANCH  12  20
HETATM   20  O   UNL     1      15.008   6.454  17.149  1.00  0.00    -0.353 OA
HETATM   21  C   UNL     1      16.078   7.382  17.316  1.00  0.00     0.210 C 
ENDBRANCH  12  20
ENDBRANCH   1   7
TORSDOF 4
ENDMDL
MODEL 9
REMARK VINA RESULT:      -7.0      3.273      6.134
REMARK  4 active torsions:
REMARK  status: ('A' for Active; 'I' for Inactive)
REMARK    1  A    between atoms: O_1  and  C_5 
REMARK    2  A    between atoms: O_1  and  C_14 
REMARK    3  A    between atoms: O_2  and  C_18 
REMARK    4  A    between atoms: C_10  and  C_13 
ROOT
HETATM    1  O   UNL     1      14.604   6.455  13.076  1.00  0.00    -0.343 OA
ENDROOT
BRANCH   1   2
HETATM    2  C   UNL     1      13.569   5.480  13.057  1.00  0.00     0.129 C 
HETATM    3  C   UNL     1      12.275   6.126  12.583  1.00  0.00     0.032 C 
HETATM    4  C   UNL     1      11.735   6.851  13.814  1.00  0.00     0.002 C 
HETATM    5  C   UNL     1      12.373   6.172  15.025  1.00  0.00     0.002 C 
HETATM    6  C   UNL     1      13.232   5.037  14.472  1.00  0.00     0.032 C 
ENDBRANCH   1   2
BRANCH   1   7
HETATM    7  C   UNL     1      15.802   6.093  12.518  1.00  0.00     0.103 A 
HETATM    8  C   UNL     1      16.763   5.480  13.316  1.00  0.00     0.047 A 
HETATM    9  C   UNL     1      17.987   5.109  12.760  1.00  0.00    -0.049 A 
HETATM   10  C   UNL     1      18.244   5.354  11.411  1.00  0.00     0.010 A 
HETATM   11  C   UNL     1      17.277   5.969  10.618  1.00  0.00     0.040 A 
HETATM   12  C   UNL     1      16.052   6.341  11.173  1.00  0.00     0.101 A 
BRANCH   9  13
HETATM   13  C   UNL     1      19.037   4.440  13.621  1.00  0.00     0.045 C 
HETATM   14  C   UNL     1      18.525   3.369  14.586  1.00  0.00     0.132 C 
HETATM   15  N   UNL     1      19.686   2.569  14.856  1.00  0.00    -0.360 N 
HETATM   16  C   UNL     1      20.666   2.703  13.882  1.00  0.00     0.218 C 
HETATM   17  H   UNL     1      19.778   1.989  15.646  1.00  0.00     0.162 HD
HETATM   18  O   UNL     1      21.734   2.116  13.818  1.00  0.00    -0.274 OA
HETATM   19  C   UNL     1      20.144   3.685  12.861  1.00  0.00     0.113 C 
ENDBRANCH   9  13
BRANCH  12  20
HETATM   20  O   UNL     1      15.115   6.942  10.388  1.00  0.00    -0.353 OA
HETATM   21  C   UNL     1      14.340   6.096   9.541  1.00  0.00     0.210 C 
ENDBRANCH  12  20
ENDBRANCH   1   7
TORSDOF 4
ENDMDL
