MODEL 1
REMARK VINA RESULT:     -18.9      0.000      0.000
REMARK  6 active torsions:
REMARK  status: ('A' for Active; 'I' for Inactive)
REMARK    1  A    between atoms: O_1  and  C_11 
REMARK    2  A    between atoms: C_4  and  C_5 
REMARK    3  A    between atoms: C_4  and  C_6 
REMARK    4  A    between atoms: C_5  and  C_7 
REMARK    5  A    between atoms: C_6  and  C_8 
REMARK    6  A    between atoms: C_8  and  C_12 
ROOT
HETATM    1  O   UNL     1     -54.205  51.699   8.153  1.00  0.00    -0.361 OA
HETATM    2  H   UNL     1     -54.995  52.202   8.110  1.00  0.00     0.217 HD
ENDROOT
BRANCH   1   3
HETATM    3  C   UNL     1     -54.014  50.819   9.173  1.00  0.00     0.066 A 
HETATM    4  C   UNL     1     -53.903  51.283  10.484  1.00  0.00     0.043 A 
HETATM    5  C   UNL     1     -53.707  50.373  11.512  1.00  0.00    -0.056 A 
HETATM    6  C   UNL     1     -53.621  49.012  11.261  1.00  0.00     0.007 A 
HETATM    7  C   UNL     1     -53.732  48.549   9.951  1.00  0.00     0.003 A 
HETATM    8  C   UNL     1     -53.929  49.452   8.906  1.00  0.00     0.036 A 
BRANCH   5   9
HETATM    9  C   UNL     1     -53.585  50.874  12.929  1.00  0.00     0.038 C 
BRANCH   9  10
HETATM   10  C   UNL     1     -53.920  49.820  13.992  1.00  0.00     0.005 C 
BRANCH  10  11
HETATM   11  C   UNL     1     -52.743  49.521  14.930  1.00  0.00     0.011 C 
BRANCH  11  12
HETATM   12  C   UNL     1     -52.493  48.020  15.090  1.00  0.00     0.113 C 
BRANCH  12  13
HETATM   13  C   UNL     1     -52.972  47.472  16.417  1.00  0.00     0.172 C 
HETATM   14  O   UNL     1     -51.960  46.881  17.103  1.00  0.00    -0.648 OA
HETATM   15  O   UNL     1     -54.112  47.556  16.850  1.00  0.00    -0.648 OA
ENDBRANCH  12  13
ENDBRANCH  11  12
ENDBRANCH  10  11
ENDBRANCH   9  10
ENDBRANCH   5   9
ENDBRANCH   1   3
TORSDOF 6
ENDMDL
MODEL 2
REMARK VINA RESULT:     -18.5      3.155      6.828
REMARK  6 active torsions:
REMARK  status: ('A' for Active; 'I' for Inactive)
REMARK    1  A    between atoms: O_1  and  C_11 
REMARK    2  A    between atoms: C_4  and  C_5 
REMARK    3  A    between atoms: C_4  and  C_6 
REMARK    4  A    between atoms: C_5  and  C_7 
REMARK    5  A    between atoms: C_6  and  C_8 
REMARK    6  A    between atoms: C_8  and  C_12 
ROOT
HETATM    1  O   UNL     1     -53.872  52.346  12.684  1.00  0.00    -0.361 OA
HETATM    2  H   UNL     1     -54.341  52.860  12.056  1.00  0.00     0.217 HD
ENDROOT
BRANCH   1   3
HETATM    3  C   UNL     1     -53.672  51.019  12.463  1.00  0.00     0.066 A 
HETATM    4  C   UNL     1     -53.835  50.491  11.182  1.00  0.00     0.043 A 
HETATM    5  C   UNL     1     -53.628  49.136  10.974  1.00  0.00    -0.056 A 
HETATM    6  C   UNL     1     -53.264  48.295  12.015  1.00  0.00     0.007 A 
HETATM    7  C   UNL     1     -53.101  48.823  13.295  1.00  0.00     0.003 A 
HETATM    8  C   UNL     1     -53.305  50.185  13.520  1.00  0.00     0.036 A 
BRANCH   5   9
HETATM    9  C   UNL     1     -53.805  48.564   9.590  1.00  0.00     0.038 C 
BRANCH   9  10
HETATM   10  C   UNL     1     -53.194  49.426   8.479  1.00  0.00     0.005 C 
BRANCH  10  11
HETATM   11  C   UNL     1     -52.316  48.619   7.511  1.00  0.00     0.011 C 
BRANCH  11  12
HETATM   12  C   UNL     1     -53.004  47.340   7.031  1.00  0.00     0.113 C 
BRANCH  12  13
HETATM   13  C   UNL     1     -53.087  47.234   5.524  1.00  0.00     0.172 C 
HETATM   14  O   UNL     1     -52.355  48.205   4.919  1.00  0.00    -0.648 OA
HETATM   15  O   UNL     1     -53.706  46.380   4.905  1.00  0.00    -0.648 OA
ENDBRANCH  12  13
ENDBRANCH  11  12
ENDBRANCH  10  11
ENDBRANCH   9  10
ENDBRANCH   5   9
ENDBRANCH   1   3
TORSDOF 6
ENDMDL
MODEL 3
REMARK VINA RESULT:     -18.2      2.739      6.836
REMARK  6 active torsions:
REMARK  status: ('A' for Active; 'I' for Inactive)
REMARK    1  A    between atoms: O_1  and  C_11 
REMARK    2  A    between atoms: C_4  and  C_5 
REMARK    3  A    between atoms: C_4  and  C_6 
REMARK    4  A    between atoms: C_5  and  C_7 
REMARK    5  A    between atoms: C_6  and  C_8 
REMARK    6  A    between atoms: C_8  and  C_12 
ROOT
HETATM    1  O   UNL     1     -53.274  50.143  14.927  1.00  0.00    -0.361 OA
HETATM    2  H   UNL     1     -53.886  49.686  15.470  1.00  0.00     0.217 HD
ENDROOT
BRANCH   1   3
HETATM    3  C   UNL     1     -53.427  50.136  13.575  1.00  0.00     0.066 A 
HETATM    4  C   UNL     1     -53.256  48.950  12.859  1.00  0.00     0.043 A 
HETATM    5  C   UNL     1     -53.415  48.959  11.482  1.00  0.00    -0.056 A 
HETATM    6  C   UNL     1     -53.740  50.124  10.803  1.00  0.00     0.007 A 
HETATM    7  C   UNL     1     -53.912  51.308  11.518  1.00  0.00     0.003 A 
HETATM    8  C   UNL     1     -53.756  51.315  12.905  1.00  0.00     0.036 A 
BRANCH   5   9
HETATM    9  C   UNL     1     -53.228  47.679  10.707  1.00  0.00     0.038 C 
BRANCH   9  10
HETATM   10  C   UNL     1     -53.488  47.819   9.203  1.00  0.00     0.005 C 
BRANCH  10  11
HETATM   11  C   UNL     1     -52.234  47.570   8.354  1.00  0.00     0.011 C 
BRANCH  11  12
HETATM   12  C   UNL     1     -52.256  48.354   7.040  1.00  0.00     0.113 C 
BRANCH  12  13
HETATM   13  C   UNL     1     -52.850  47.574   5.887  1.00  0.00     0.172 C 
HETATM   14  O   UNL     1     -52.409  48.044   4.692  1.00  0.00    -0.648 OA
HETATM   15  O   UNL     1     -53.613  46.625   5.991  1.00  0.00    -0.648 OA
ENDBRANCH  12  13
ENDBRANCH  11  12
ENDBRANCH  10  11
ENDBRANCH   9  10
ENDBRANCH   5   9
ENDBRANCH   1   3
TORSDOF 6
ENDMDL
MODEL 4
REMARK VINA RESULT:     -18.1      2.365      6.240
REMARK  6 active torsions:
REMARK  status: ('A' for Active; 'I' for Inactive)
REMARK    1  A    between atoms: O_1  and  C_11 
REMARK    2  A    between atoms: C_4  and  C_5 
REMARK    3  A    between atoms: C_4  and  C_6 
REMARK    4  A    between atoms: C_5  and  C_7 
REMARK    5  A    between atoms: C_6  and  C_8 
REMARK    6  A    between atoms: C_8  and  C_12 
ROOT
HETATM    1  O   UNL     1     -52.991  50.478  15.489  1.00  0.00    -0.361 OA
HETATM    2  H   UNL     1     -52.202  50.918  15.737  1.00  0.00     0.217 HD
ENDROOT
BRANCH   1   3
HETATM    3  C   UNL     1     -53.075  49.857  14.282  1.00  0.00     0.066 A 
HETATM    4  C   UNL     1     -53.504  50.566  13.159  1.00  0.00     0.043 A 
HETATM    5  C   UNL     1     -53.584  49.918  11.936  1.00  0.00    -0.056 A 
HETATM    6  C   UNL     1     -53.245  48.580  11.807  1.00  0.00     0.007 A 
HETATM    7  C   UNL     1     -52.816  47.871  12.929  1.00  0.00     0.003 A 
HETATM    8  C   UNL     1     -52.730  48.510  14.167  1.00  0.00     0.036 A 
BRANCH   5   9
HETATM    9  C   UNL     1     -54.048  50.684  10.723  1.00  0.00     0.038 C 
BRANCH   9  10
HETATM   10  C   UNL     1     -54.571  49.794   9.589  1.00  0.00     0.005 C 
BRANCH  10  11
HETATM   11  C   UNL     1     -53.616  49.731   8.389  1.00  0.00     0.011 C 
BRANCH  11  12
HETATM   12  C   UNL     1     -53.009  48.339   8.201  1.00  0.00     0.113 C 
BRANCH  12  13
HETATM   13  C   UNL     1     -53.834  47.442   7.305  1.00  0.00     0.172 C 
HETATM   14  O   UNL     1     -53.498  47.602   5.999  1.00  0.00    -0.648 OA
HETATM   15  O   UNL     1     -54.685  46.649   7.683  1.00  0.00    -0.648 OA
ENDBRANCH  12  13
ENDBRANCH  11  12
ENDBRANCH  10  11
ENDBRANCH   9  10
ENDBRANCH   5   9
ENDBRANCH   1   3
TORSDOF 6
ENDMDL
MODEL 5
REMARK VINA RESULT:     -18.1      2.810      5.558
REMARK  6 active torsions:
REMARK  status: ('A' for Active; 'I' for Inactive)
REMARK    1  A    between atoms: O_1  and  C_11 
REMARK    2  A    between atoms: C_4  and  C_5 
REMARK    3  A    between atoms: C_4  and  C_6 
REMARK    4  A    between atoms: C_5  and  C_7 
REMARK    5  A    between atoms: C_6  and  C_8 
REMARK    6  A    between atoms: C_8  and  C_12 
ROOT
HETATM    1  O   UNL     1     -53.127  50.502  15.310  1.00  0.00    -0.361 OA
HETATM    2  H   UNL     1     -53.663  51.247  15.499  1.00  0.00     0.217 HD
ENDROOT
BRANCH   1   3
HETATM    3  C   UNL     1     -53.174  49.926  14.078  1.00  0.00     0.066 A 
HETATM    4  C   UNL     1     -53.582  50.673  12.973  1.00  0.00     0.043 A 
HETATM    5  C   UNL     1     -53.625  50.072  11.724  1.00  0.00    -0.056 A 
HETATM    6  C   UNL     1     -53.269  48.742  11.554  1.00  0.00     0.007 A 
HETATM    7  C   UNL     1     -52.861  47.996  12.658  1.00  0.00     0.003 A 
HETATM    8  C   UNL     1     -52.812  48.588  13.921  1.00  0.00     0.036 A 
BRANCH   5   9
HETATM    9  C   UNL     1     -54.068  50.878  10.530  1.00  0.00     0.038 C 
BRANCH   9  10
HETATM   10  C   UNL     1     -54.232  50.052   9.248  1.00  0.00     0.005 C 
BRANCH  10  11
HETATM   11  C   UNL     1     -55.167  48.849   9.427  1.00  0.00     0.011 C 
BRANCH  11  12
HETATM   12  C   UNL     1     -54.838  47.708   8.462  1.00  0.00     0.113 C 
BRANCH  12  13
HETATM   13  C   UNL     1     -55.252  46.348   8.980  1.00  0.00     0.172 C 
HETATM   14  O   UNL     1     -54.291  45.806   9.773  1.00  0.00    -0.648 OA
HETATM   15  O   UNL     1     -56.317  45.794   8.749  1.00  0.00    -0.648 OA
ENDBRANCH  12  13
ENDBRANCH  11  12
ENDBRANCH  10  11
ENDBRANCH   9  10
ENDBRANCH   5   9
ENDBRANCH   1   3
TORSDOF 6
ENDMDL
MODEL 6
REMARK VINA RESULT:     -17.9      2.650      6.654
REMARK  6 active torsions:
REMARK  status: ('A' for Active; 'I' for Inactive)
REMARK    1  A    between atoms: O_1  and  C_11 
REMARK    2  A    between atoms: C_4  and  C_5 
REMARK    3  A    between atoms: C_4  and  C_6 
REMARK    4  A    between atoms: C_5  and  C_7 
REMARK    5  A    between atoms: C_6  and  C_8 
REMARK    6  A    between atoms: C_8  and  C_12 
ROOT
HETATM    1  O   UNL     1     -52.569  46.993  13.204  1.00  0.00    -0.361 OA
HETATM    2  H   UNL     1     -52.779  46.294  12.616  1.00  0.00     0.217 HD
ENDROOT
BRANCH   1   3
HETATM    3  C   UNL     1     -52.968  48.263  12.920  1.00  0.00     0.066 A 
HETATM    4  C   UNL     1     -53.315  48.610  11.614  1.00  0.00     0.043 A 
HETATM    5  C   UNL     1     -53.719  49.909  11.340  1.00  0.00    -0.056 A 
HETATM    6  C   UNL     1     -53.782  50.867  12.340  1.00  0.00     0.007 A 
HETATM    7  C   UNL     1     -53.435  50.520  13.645  1.00  0.00     0.003 A 
HETATM    8  C   UNL     1     -53.028  49.217  13.936  1.00  0.00     0.036 A 
BRANCH   5   9
HETATM    9  C   UNL     1     -54.093  50.285   9.929  1.00  0.00     0.038 C 
BRANCH   9  10
HETATM   10  C   UNL     1     -54.032  49.118   8.937  1.00  0.00     0.005 C 
BRANCH  10  11
HETATM   11  C   UNL     1     -52.879  49.247   7.933  1.00  0.00     0.011 C 
BRANCH  11  12
HETATM   12  C   UNL     1     -52.449  47.893   7.363  1.00  0.00     0.113 C 
BRANCH  12  13
HETATM   13  C   UNL     1     -53.441  47.317   6.376  1.00  0.00     0.172 C 
HETATM   14  O   UNL     1     -54.365  46.540   6.998  1.00  0.00    -0.648 OA
HETATM   15  O   UNL     1     -53.446  47.526   5.171  1.00  0.00    -0.648 OA
ENDBRANCH  12  13
ENDBRANCH  11  12
ENDBRANCH  10  11
ENDBRANCH   9  10
ENDBRANCH   5   9
ENDBRANCH   1   3
TORSDOF 6
ENDMDL
MODEL 7
REMARK VINA RESULT:     -17.7      2.560      5.791
REMARK  6 active torsions:
REMARK  status: ('A' for Active; 'I' for Inactive)
REMARK    1  A    between atoms: O_1  and  C_11 
REMARK    2  A    between atoms: C_4  and  C_5 
REMARK    3  A    between atoms: C_4  and  C_6 
REMARK    4  A    between atoms: C_5  and  C_7 
REMARK    5  A    between atoms: C_6  and  C_8 
REMARK    6  A    between atoms: C_8  and  C_12 
ROOT
HETATM    1  O   UNL     1     -52.511  46.772  13.209  1.00  0.00    -0.361 OA
HETATM    2  H   UNL     1     -52.057  46.395  12.481  1.00  0.00     0.217 HD
ENDROOT
BRANCH   1   3
HETATM    3  C   UNL     1     -52.865  48.085  13.182  1.00  0.00     0.066 A 
HETATM    4  C   UNL     1     -53.243  48.683  11.979  1.00  0.00     0.043 A 
HETATM    5  C   UNL     1     -53.600  50.023  11.968  1.00  0.00    -0.056 A 
HETATM    6  C   UNL     1     -53.590  50.779  13.131  1.00  0.00     0.007 A 
HETATM    7  C   UNL     1     -53.214  50.182  14.333  1.00  0.00     0.003 A 
HETATM    8  C   UNL     1     -52.851  48.835  14.359  1.00  0.00     0.036 A 
BRANCH   5   9
HETATM    9  C   UNL     1     -54.007  50.669  10.668  1.00  0.00     0.038 C 
BRANCH   9  10
HETATM   10  C   UNL     1     -54.719  49.720   9.697  1.00  0.00     0.005 C 
BRANCH  10  11
HETATM   11  C   UNL     1     -53.823  49.270   8.536  1.00  0.00     0.011 C 
BRANCH  11  12
HETATM   12  C   UNL     1     -54.325  47.982   7.879  1.00  0.00     0.113 C 
BRANCH  12  13
HETATM   13  C   UNL     1     -54.798  46.947   8.876  1.00  0.00     0.172 C 
HETATM   14  O   UNL     1     -56.147  46.799   8.835  1.00  0.00    -0.648 OA
HETATM   15  O   UNL     1     -54.078  46.295   9.619  1.00  0.00    -0.648 OA
ENDBRANCH  12  13
ENDBRANCH  11  12
ENDBRANCH  10  11
ENDBRANCH   9  10
ENDBRANCH   5   9
ENDBRANCH   1   3
TORSDOF 6
ENDMDL
MODEL 8
REMARK VINA RESULT:     -17.6      3.774      6.016
REMARK  6 active torsions:
REMARK  status: ('A' for Active; 'I' for Inactive)
REMARK    1  A    between atoms: O_1  and  C_11 
REMARK    2  A    between atoms: C_4  and  C_5 
REMARK    3  A    between atoms: C_4  and  C_6 
REMARK    4  A    between atoms: C_5  and  C_7 
REMARK    5  A    between atoms: C_6  and  C_8 
REMARK    6  A    between atoms: C_8  and  C_12 
ROOT
HETATM    1  O   UNL     1     -53.265  50.397  14.766  1.00  0.00    -0.361 OA
HETATM    2  H   UNL     1     -52.405  50.353  15.134  1.00  0.00     0.217 HD
ENDROOT
BRANCH   1   3
HETATM    3  C   UNL     1     -53.436  50.296  13.420  1.00  0.00     0.066 A 
HETATM    4  C   UNL     1     -53.320  49.055  12.792  1.00  0.00     0.043 A 
HETATM    5  C   UNL     1     -53.496  48.969  11.419  1.00  0.00    -0.056 A 
HETATM    6  C   UNL     1     -53.786  50.093  10.660  1.00  0.00     0.007 A 
HETATM    7  C   UNL     1     -53.902  51.332  11.287  1.00  0.00     0.003 A 
HETATM    8  C   UNL     1     -53.728  51.434  12.668  1.00  0.00     0.036 A 
BRANCH   5   9
HETATM    9  C   UNL     1     -53.370  47.629  10.740  1.00  0.00     0.038 C 
BRANCH   9  10
HETATM   10  C   UNL     1     -53.915  47.604   9.307  1.00  0.00     0.005 C 
BRANCH  10  11
HETATM   11  C   UNL     1     -54.232  46.187   8.812  1.00  0.00     0.011 C 
BRANCH  11  12
HETATM   12  C   UNL     1     -55.728  45.872   8.870  1.00  0.00     0.113 C 
BRANCH  12  13
HETATM   13  C   UNL     1     -56.033  44.393   8.776  1.00  0.00     0.172 C 
HETATM   14  O   UNL     1     -55.379  43.690   9.737  1.00  0.00    -0.648 OA
HETATM   15  O   UNL     1     -56.784  43.872   7.964  1.00  0.00    -0.648 OA
ENDBRANCH  12  13
ENDBRANCH  11  12
ENDBRANCH  10  11
ENDBRANCH   9  10
ENDBRANCH   5   9
ENDBRANCH   1   3
TORSDOF 6
ENDMDL
MODEL 9
REMARK VINA RESULT:     -17.6      3.070      6.547
REMARK  6 active torsions:
REMARK  status: ('A' for Active; 'I' for Inactive)
REMARK    1  A    between atoms: O_1  and  C_11 
REMARK    2  A    between atoms: C_4  and  C_5 
REMARK    3  A    between atoms: C_4  and  C_6 
REMARK    4  A    between atoms: C_5  and  C_7 
REMARK    5  A    between atoms: C_6  and  C_8 
REMARK    6  A    between atoms: C_8  and  C_12 
ROOT
HETATM    1  O   UNL     1     -53.885  52.082  12.942  1.00  0.00    -0.361 OA
HETATM    2  H   UNL     1     -53.900  52.513  13.774  1.00  0.00     0.217 HD
ENDROOT
BRANCH   1   3
HETATM    3  C   UNL     1     -53.580  50.758  12.867  1.00  0.00     0.066 A 
HETATM    4  C   UNL     1     -53.671  50.089  11.647  1.00  0.00     0.043 A 
HETATM    5  C   UNL     1     -53.357  48.739  11.587  1.00  0.00    -0.056 A 
HETATM    6  C   UNL     1     -52.955  48.043  12.717  1.00  0.00     0.007 A 
HETATM    7  C   UNL     1     -52.864  48.713  13.937  1.00  0.00     0.003 A 
HETATM    8  C   UNL     1     -53.176  50.071  14.012  1.00  0.00     0.036 A 
BRANCH   5   9
HETATM    9  C   UNL     1     -53.457  48.014  10.269  1.00  0.00     0.038 C 
BRANCH   9  10
HETATM   10  C   UNL     1     -54.811  48.178   9.569  1.00  0.00     0.005 C 
BRANCH  10  11
HETATM   11  C   UNL     1     -54.747  47.882   8.065  1.00  0.00     0.011 C 
BRANCH  11  12
HETATM   12  C   UNL     1     -53.311  47.706   7.567  1.00  0.00     0.113 C 
BRANCH  12  13
HETATM   13  C   UNL     1     -53.226  47.061   6.201  1.00  0.00     0.172 C 
HETATM   14  O   UNL     1     -52.724  45.801   6.278  1.00  0.00    -0.648 OA
HETATM   15  O   UNL     1     -53.578  47.576   5.150  1.00  0.00    -0.648 OA
ENDBRANCH  12  13
ENDBRANCH  11  12
ENDBRANCH  10  11
ENDBRANCH   9  10
ENDBRANCH   5   9
ENDBRANCH   1   3
TORSDOF 6
ENDMDL
