MODEL 1
REMARK VINA RESULT:     -18.9      0.000      0.000
REMARK  6 active torsions:
REMARK  status: ('A' for Active; 'I' for Inactive)
REMARK    1  A    between atoms: O_1  and  C_11 
REMARK    2  A    between atoms: C_4  and  C_5 
REMARK    3  A    between atoms: C_4  and  C_6 
REMARK    4  A    between atoms: C_5  and  C_7 
REMARK    5  A    between atoms: C_6  and  C_8 
REMARK    6  A    between atoms: C_8  and  C_12 
ROOT
HETATM    1  O   UNL     1     -54.184  51.864   8.236  1.00  0.00    -0.361 OA
HETATM    2  H   UNL     1     -53.997  52.769   8.393  1.00  0.00     0.217 HD
ENDROOT
BRANCH   1   3
HETATM    3  C   UNL     1     -54.017  50.953   9.232  1.00  0.00     0.066 A 
HETATM    4  C   UNL     1     -53.889  51.379  10.555  1.00  0.00     0.043 A 
HETATM    5  C   UNL     1     -53.719  50.437  11.559  1.00  0.00    -0.056 A 
HETATM    6  C   UNL     1     -53.672  49.081  11.273  1.00  0.00     0.007 A 
HETATM    7  C   UNL     1     -53.800  48.656   9.951  1.00  0.00     0.003 A 
HETATM    8  C   UNL     1     -53.973  49.591   8.930  1.00  0.00     0.036 A 
BRANCH   5   9
HETATM    9  C   UNL     1     -53.579  50.897  12.988  1.00  0.00     0.038 C 
BRANCH   9  10
HETATM   10  C   UNL     1     -53.905  49.815  14.024  1.00  0.00     0.005 C 
BRANCH  10  11
HETATM   11  C   UNL     1     -52.663  49.312  14.773  1.00  0.00     0.011 C 
BRANCH  11  12
HETATM   12  C   UNL     1     -52.681  47.795  14.977  1.00  0.00     0.113 C 
BRANCH  12  13
HETATM   13  C   UNL     1     -52.848  47.387  16.424  1.00  0.00     0.172 C 
HETATM   14  O   UNL     1     -54.123  47.580  16.849  1.00  0.00    -0.648 OA
HETATM   15  O   UNL     1     -51.970  46.920  17.136  1.00  0.00    -0.648 OA
ENDBRANCH  12  13
ENDBRANCH  11  12
ENDBRANCH  10  11
ENDBRANCH   9  10
ENDBRANCH   5   9
ENDBRANCH   1   3
TORSDOF 6
ENDMDL
MODEL 2
REMARK VINA RESULT:     -18.2      3.019      6.841
REMARK  6 active torsions:
REMARK  status: ('A' for Active; 'I' for Inactive)
REMARK    1  A    between atoms: O_1  and  C_11 
REMARK    2  A    between atoms: C_4  and  C_5 
REMARK    3  A    between atoms: C_4  and  C_6 
REMARK    4  A    between atoms: C_5  and  C_7 
REMARK    5  A    between atoms: C_6  and  C_8 
REMARK    6  A    between atoms: C_8  and  C_12 
ROOT
HETATM    1  O   UNL     1     -54.007  52.072  12.855  1.00  0.00    -0.361 OA
HETATM    2  H   UNL     1     -54.420  52.403  13.628  1.00  0.00     0.217 HD
ENDROOT
BRANCH   1   3
HETATM    3  C   UNL     1     -53.655  50.760  12.780  1.00  0.00     0.066 A 
HETATM    4  C   UNL     1     -53.670  50.102  11.550  1.00  0.00     0.043 A 
HETATM    5  C   UNL     1     -53.309  48.765  11.490  1.00  0.00    -0.056 A 
HETATM    6  C   UNL     1     -52.933  48.070  12.629  1.00  0.00     0.007 A 
HETATM    7  C   UNL     1     -52.916  48.728  13.858  1.00  0.00     0.003 A 
HETATM    8  C   UNL     1     -53.277  50.074  13.934  1.00  0.00     0.036 A 
BRANCH   5   9
HETATM    9  C   UNL     1     -53.328  48.052  10.161  1.00  0.00     0.038 C 
BRANCH   9  10
HETATM   10  C   UNL     1     -53.501  48.986   8.957  1.00  0.00     0.005 C 
BRANCH  10  11
HETATM   11  C   UNL     1     -52.658  48.563   7.746  1.00  0.00     0.011 C 
BRANCH  11  12
HETATM   12  C   UNL     1     -53.250  47.352   7.020  1.00  0.00     0.113 C 
BRANCH  12  13
HETATM   13  C   UNL     1     -53.036  47.390   5.523  1.00  0.00     0.172 C 
HETATM   14  O   UNL     1     -53.815  46.475   4.888  1.00  0.00    -0.648 OA
HETATM   15  O   UNL     1     -52.283  48.150   4.932  1.00  0.00    -0.648 OA
ENDBRANCH  12  13
ENDBRANCH  11  12
ENDBRANCH  10  11
ENDBRANCH   9  10
ENDBRANCH   5   9
ENDBRANCH   1   3
TORSDOF 6
ENDMDL
MODEL 3
REMARK VINA RESULT:     -18.1      0.936      1.830
REMARK  6 active torsions:
REMARK  status: ('A' for Active; 'I' for Inactive)
REMARK    1  A    between atoms: O_1  and  C_11 
REMARK    2  A    between atoms: C_4  and  C_5 
REMARK    3  A    between atoms: C_4  and  C_6 
REMARK    4  A    between atoms: C_5  and  C_7 
REMARK    5  A    between atoms: C_6  and  C_8 
REMARK    6  A    between atoms: C_8  and  C_12 
ROOT
HETATM    1  O   UNL     1     -54.140  49.249   8.008  1.00  0.00    -0.361 OA
HETATM    2  H   UNL     1     -54.318  48.329   7.997  1.00  0.00     0.217 HD
ENDROOT
BRANCH   1   3
HETATM    3  C   UNL     1     -54.001  49.900   9.195  1.00  0.00     0.066 A 
HETATM    4  C   UNL     1     -53.772  49.177  10.366  1.00  0.00     0.043 A 
HETATM    5  C   UNL     1     -53.633  49.855  11.568  1.00  0.00    -0.056 A 
HETATM    6  C   UNL     1     -53.715  51.238  11.626  1.00  0.00     0.007 A 
HETATM    7  C   UNL     1     -53.943  51.961  10.456  1.00  0.00     0.003 A 
HETATM    8  C   UNL     1     -54.085  51.292   9.240  1.00  0.00     0.036 A 
BRANCH   5   9
HETATM    9  C   UNL     1     -53.388  49.074  12.834  1.00  0.00     0.038 C 
BRANCH   9  10
HETATM   10  C   UNL     1     -53.364  49.936  14.102  1.00  0.00     0.005 C 
BRANCH  10  11
HETATM   11  C   UNL     1     -52.485  49.343  15.211  1.00  0.00     0.011 C 
BRANCH  11  12
HETATM   12  C   UNL     1     -52.594  47.819  15.289  1.00  0.00     0.113 C 
BRANCH  12  13
HETATM   13  C   UNL     1     -53.175  47.327  16.596  1.00  0.00     0.172 C 
HETATM   14  O   UNL     1     -52.266  46.603  17.301  1.00  0.00    -0.648 OA
HETATM   15  O   UNL     1     -54.305  47.555  17.002  1.00  0.00    -0.648 OA
ENDBRANCH  12  13
ENDBRANCH  11  12
ENDBRANCH  10  11
ENDBRANCH   9  10
ENDBRANCH   5   9
ENDBRANCH   1   3
TORSDOF 6
ENDMDL
MODEL 4
REMARK VINA RESULT:     -18.1      2.546      5.696
REMARK  6 active torsions:
REMARK  status: ('A' for Active; 'I' for Inactive)
REMARK    1  A    between atoms: O_1  and  C_11 
REMARK    2  A    between atoms: C_4  and  C_5 
REMARK    3  A    between atoms: C_4  and  C_6 
REMARK    4  A    between atoms: C_5  and  C_7 
REMARK    5  A    between atoms: C_6  and  C_8 
REMARK    6  A    between atoms: C_8  and  C_12 
ROOT
HETATM    1  O   UNL     1     -53.011  50.536  15.370  1.00  0.00    -0.361 OA
HETATM    2  H   UNL     1     -52.382  51.215  15.511  1.00  0.00     0.217 HD
ENDROOT
BRANCH   1   3
HETATM    3  C   UNL     1     -53.099  49.930  14.155  1.00  0.00     0.066 A 
HETATM    4  C   UNL     1     -53.521  50.656  13.041  1.00  0.00     0.043 A 
HETATM    5  C   UNL     1     -53.605  50.024  11.810  1.00  0.00    -0.056 A 
HETATM    6  C   UNL     1     -53.279  48.684  11.666  1.00  0.00     0.007 A 
HETATM    7  C   UNL     1     -52.857  47.958  12.779  1.00  0.00     0.003 A 
HETATM    8  C   UNL     1     -52.767  48.581  14.024  1.00  0.00     0.036 A 
BRANCH   5   9
HETATM    9  C   UNL     1     -54.062  50.808  10.606  1.00  0.00     0.038 C 
BRANCH   9  10
HETATM   10  C   UNL     1     -54.711  49.949   9.514  1.00  0.00     0.005 C 
BRANCH  10  11
HETATM   11  C   UNL     1     -53.685  49.305   8.572  1.00  0.00     0.011 C 
BRANCH  11  12
HETATM   12  C   UNL     1     -54.273  48.131   7.786  1.00  0.00     0.113 C 
BRANCH  12  13
HETATM   13  C   UNL     1     -54.809  47.027   8.671  1.00  0.00     0.172 C 
HETATM   14  O   UNL     1     -53.802  46.326   9.254  1.00  0.00    -0.648 OA
HETATM   15  O   UNL     1     -55.992  46.788   8.871  1.00  0.00    -0.648 OA
ENDBRANCH  12  13
ENDBRANCH  11  12
ENDBRANCH  10  11
ENDBRANCH   9  10
ENDBRANCH   5   9
ENDBRANCH   1   3
TORSDOF 6
ENDMDL
MODEL 5
REMARK VINA RESULT:     -18.1      3.028      6.943
REMARK  6 active torsions:
REMARK  status: ('A' for Active; 'I' for Inactive)
REMARK    1  A    between atoms: O_1  and  C_11 
REMARK    2  A    between atoms: C_4  and  C_5 
REMARK    3  A    between atoms: C_4  and  C_6 
REMARK    4  A    between atoms: C_5  and  C_7 
REMARK    5  A    between atoms: C_6  and  C_8 
REMARK    6  A    between atoms: C_8  and  C_12 
ROOT
HETATM    1  O   UNL     1     -53.327  50.809  14.156  1.00  0.00    -0.361 OA
HETATM    2  H   UNL     1     -53.643  51.533  14.660  1.00  0.00     0.217 HD
ENDROOT
BRANCH   1   3
HETATM    3  C   UNL     1     -53.565  50.756  12.818  1.00  0.00     0.066 A 
HETATM    4  C   UNL     1     -53.640  49.523  12.170  1.00  0.00     0.043 A 
HETATM    5  C   UNL     1     -53.882  49.486  10.804  1.00  0.00    -0.056 A 
HETATM    6  C   UNL     1     -54.051  50.652  10.072  1.00  0.00     0.007 A 
HETATM    7  C   UNL     1     -53.976  51.884  10.720  1.00  0.00     0.003 A 
HETATM    8  C   UNL     1     -53.733  51.937  12.093  1.00  0.00     0.036 A 
BRANCH   5   9
HETATM    9  C   UNL     1     -53.962  48.154  10.103  1.00  0.00     0.038 C 
BRANCH   9  10
HETATM   10  C   UNL     1     -54.686  48.204   8.753  1.00  0.00     0.005 C 
BRANCH  10  11
HETATM   11  C   UNL     1     -54.146  47.179   7.746  1.00  0.00     0.011 C 
BRANCH  11  12
HETATM   12  C   UNL     1     -52.939  47.707   6.968  1.00  0.00     0.113 C 
BRANCH  12  13
HETATM   13  C   UNL     1     -52.978  47.362   5.496  1.00  0.00     0.172 C 
HETATM   14  O   UNL     1     -52.276  48.261   4.758  1.00  0.00    -0.648 OA
HETATM   15  O   UNL     1     -53.541  46.393   5.008  1.00  0.00    -0.648 OA
ENDBRANCH  12  13
ENDBRANCH  11  12
ENDBRANCH  10  11
ENDBRANCH   9  10
ENDBRANCH   5   9
ENDBRANCH   1   3
TORSDOF 6
ENDMDL
MODEL 6
REMARK VINA RESULT:     -17.9      2.930      6.820
REMARK  6 active torsions:
REMARK  status: ('A' for Active; 'I' for Inactive)
REMARK    1  A    between atoms: O_1  and  C_11 
REMARK    2  A    between atoms: C_4  and  C_5 
REMARK    3  A    between atoms: C_4  and  C_6 
REMARK    4  A    between atoms: C_5  and  C_7 
REMARK    5  A    between atoms: C_6  and  C_8 
REMARK    6  A    between atoms: C_8  and  C_12 
ROOT
HETATM    1  O   UNL     1     -53.317  50.840  14.459  1.00  0.00    -0.361 OA
HETATM    2  H   UNL     1     -53.909  50.675  15.166  1.00  0.00     0.217 HD
ENDROOT
BRANCH   1   3
HETATM    3  C   UNL     1     -53.320  50.030  13.366  1.00  0.00     0.066 A 
HETATM    4  C   UNL     1     -53.683  50.540  12.119  1.00  0.00     0.043 A 
HETATM    5  C   UNL     1     -53.681  49.701  11.015  1.00  0.00    -0.056 A 
HETATM    6  C   UNL     1     -53.326  48.365  11.127  1.00  0.00     0.007 A 
HETATM    7  C   UNL     1     -52.964  47.856  12.373  1.00  0.00     0.003 A 
HETATM    8  C   UNL     1     -52.960  48.688  13.493  1.00  0.00     0.036 A 
BRANCH   5   9
HETATM    9  C   UNL     1     -54.075  50.251   9.667  1.00  0.00     0.038 C 
BRANCH   9  10
HETATM   10  C   UNL     1     -54.457  49.176   8.644  1.00  0.00     0.005 C 
BRANCH  10  11
HETATM   11  C   UNL     1     -53.251  48.634   7.866  1.00  0.00     0.011 C 
BRANCH  11  12
HETATM   12  C   UNL     1     -53.579  47.348   7.105  1.00  0.00     0.113 C 
BRANCH  12  13
HETATM   13  C   UNL     1     -53.152  47.386   5.654  1.00  0.00     0.172 C 
HETATM   14  O   UNL     1     -53.749  46.400   4.935  1.00  0.00    -0.648 OA
HETATM   15  O   UNL     1     -52.386  48.201   5.161  1.00  0.00    -0.648 OA
ENDBRANCH  12  13
ENDBRANCH  11  12
ENDBRANCH  10  11
ENDBRANCH   9  10
ENDBRANCH   5   9
ENDBRANCH   1   3
TORSDOF 6
ENDMDL
MODEL 7
REMARK VINA RESULT:     -17.8      3.010      7.099
REMARK  6 active torsions:
REMARK  status: ('A' for Active; 'I' for Inactive)
REMARK    1  A    between atoms: O_1  and  C_11 
REMARK    2  A    between atoms: C_4  and  C_5 
REMARK    3  A    between atoms: C_4  and  C_6 
REMARK    4  A    between atoms: C_5  and  C_7 
REMARK    5  A    between atoms: C_6  and  C_8 
REMARK    6  A    between atoms: C_8  and  C_12 
ROOT
HETATM    1  O   UNL     1     -52.793  47.782  13.866  1.00  0.00    -0.361 OA
HETATM    2  H   UNL     1     -53.454  47.265  14.282  1.00  0.00     0.217 HD
ENDROOT
BRANCH   1   3
HETATM    3  C   UNL     1     -53.144  48.865  13.121  1.00  0.00     0.066 A 
HETATM    4  C   UNL     1     -53.367  48.728  11.751  1.00  0.00     0.043 A 
HETATM    5  C   UNL     1     -53.724  49.842  11.005  1.00  0.00    -0.056 A 
HETATM    6  C   UNL     1     -53.864  51.088  11.597  1.00  0.00     0.007 A 
HETATM    7  C   UNL     1     -53.642  51.225  12.966  1.00  0.00     0.003 A 
HETATM    8  C   UNL     1     -53.282  50.113  13.729  1.00  0.00     0.036 A 
BRANCH   5   9
HETATM    9  C   UNL     1     -53.963  49.694   9.524  1.00  0.00     0.038 C 
BRANCH   9  10
HETATM   10  C   UNL     1     -53.531  48.337   8.956  1.00  0.00     0.005 C 
BRANCH  10  11
HETATM   11  C   UNL     1     -54.150  48.039   7.584  1.00  0.00     0.011 C 
BRANCH  11  12
HETATM   12  C   UNL     1     -53.609  46.746   6.970  1.00  0.00     0.113 C 
BRANCH  12  13
HETATM   13  C   UNL     1     -53.346  46.854   5.484  1.00  0.00     0.172 C 
HETATM   14  O   UNL     1     -52.581  47.938   5.193  1.00  0.00    -0.648 OA
HETATM   15  O   UNL     1     -53.740  46.068   4.634  1.00  0.00    -0.648 OA
ENDBRANCH  12  13
ENDBRANCH  11  12
ENDBRANCH  10  11
ENDBRANCH   9  10
ENDBRANCH   5   9
ENDBRANCH   1   3
TORSDOF 6
ENDMDL
MODEL 8
REMARK VINA RESULT:     -17.8      2.724      6.712
REMARK  6 active torsions:
REMARK  status: ('A' for Active; 'I' for Inactive)
REMARK    1  A    between atoms: O_1  and  C_11 
REMARK    2  A    between atoms: C_4  and  C_5 
REMARK    3  A    between atoms: C_4  and  C_6 
REMARK    4  A    between atoms: C_5  and  C_7 
REMARK    5  A    between atoms: C_6  and  C_8 
REMARK    6  A    between atoms: C_8  and  C_12 
ROOT
HETATM    1  O   UNL     1     -52.565  46.960  13.233  1.00  0.00    -0.361 OA
HETATM    2  H   UNL     1     -53.183  46.344  13.574  1.00  0.00     0.217 HD
ENDROOT
BRANCH   1   3
HETATM    3  C   UNL     1     -52.954  48.235  12.963  1.00  0.00     0.066 A 
HETATM    4  C   UNL     1     -53.323  48.594  11.666  1.00  0.00     0.043 A 
HETATM    5  C   UNL     1     -53.717  49.898  11.407  1.00  0.00    -0.056 A 
HETATM    6  C   UNL     1     -53.751  50.852  12.413  1.00  0.00     0.007 A 
HETATM    7  C   UNL     1     -53.383  50.493  13.709  1.00  0.00     0.003 A 
HETATM    8  C   UNL     1     -52.985  49.185  13.985  1.00  0.00     0.036 A 
BRANCH   5   9
HETATM    9  C   UNL     1     -54.113  50.286  10.006  1.00  0.00     0.038 C 
BRANCH   9  10
HETATM   10  C   UNL     1     -53.993  49.146   8.987  1.00  0.00     0.005 C 
BRANCH  10  11
HETATM   11  C   UNL     1     -52.939  49.420   7.905  1.00  0.00     0.011 C 
BRANCH  11  12
HETATM   12  C   UNL     1     -52.309  48.133   7.369  1.00  0.00     0.113 C 
BRANCH  12  13
HETATM   13  C   UNL     1     -53.171  47.424   6.348  1.00  0.00     0.172 C 
HETATM   14  O   UNL     1     -52.789  47.727   5.080  1.00  0.00    -0.648 OA
HETATM   15  O   UNL     1     -54.086  46.655   6.603  1.00  0.00    -0.648 OA
ENDBRANCH  12  13
ENDBRANCH  11  12
ENDBRANCH  10  11
ENDBRANCH   9  10
ENDBRANCH   5   9
ENDBRANCH   1   3
TORSDOF 6
ENDMDL
MODEL 9
REMARK VINA RESULT:     -17.7      3.713      5.728
REMARK  6 active torsions:
REMARK  status: ('A' for Active; 'I' for Inactive)
REMARK    1  A    between atoms: O_1  and  C_11 
REMARK    2  A    between atoms: C_4  and  C_5 
REMARK    3  A    between atoms: C_4  and  C_6 
REMARK    4  A    between atoms: C_5  and  C_7 
REMARK    5  A    between atoms: C_6  and  C_8 
REMARK    6  A    between atoms: C_8  and  C_12 
ROOT
HETATM    1  O   UNL     1     -53.989  52.005  12.932  1.00  0.00    -0.361 OA
HETATM    2  H   UNL     1     -54.879  52.242  13.105  1.00  0.00     0.217 HD
ENDROOT
BRANCH   1   3
HETATM    3  C   UNL     1     -53.655  50.698  12.756  1.00  0.00     0.066 A 
HETATM    4  C   UNL     1     -53.723  50.125  11.486  1.00  0.00     0.043 A 
HETATM    5  C   UNL     1     -53.379  48.791  11.323  1.00  0.00    -0.056 A 
HETATM    6  C   UNL     1     -52.969  48.018  12.399  1.00  0.00     0.007 A 
HETATM    7  C   UNL     1     -52.900  48.591  13.668  1.00  0.00     0.003 A 
HETATM    8  C   UNL     1     -53.243  49.932  13.847  1.00  0.00     0.036 A 
BRANCH   5   9
HETATM    9  C   UNL     1     -53.454  48.170   9.952  1.00  0.00     0.038 C 
BRANCH   9  10
HETATM   10  C   UNL     1     -54.775  48.437   9.219  1.00  0.00     0.005 C 
BRANCH  10  11
HETATM   11  C   UNL     1     -55.653  47.184   9.095  1.00  0.00     0.011 C 
BRANCH  11  12
HETATM   12  C   UNL     1     -54.827  45.914   8.878  1.00  0.00     0.113 C 
BRANCH  12  13
HETATM   13  C   UNL     1     -55.653  44.648   8.929  1.00  0.00     0.172 C 
HETATM   14  O   UNL     1     -55.120  43.743   9.790  1.00  0.00    -0.648 OA
HETATM   15  O   UNL     1     -56.684  44.447   8.303  1.00  0.00    -0.648 OA
ENDBRANCH  12  13
ENDBRANCH  11  12
ENDBRANCH  10  11
ENDBRANCH   9  10
ENDBRANCH   5   9
ENDBRANCH   1   3
TORSDOF 6
ENDMDL
