MODEL 1
REMARK VINA RESULT:      -6.4      0.000      0.000
REMARK  4 active torsions:
REMARK  status: ('A' for Active; 'I' for Inactive)
REMARK    1  A    between atoms: O_1  and  C_8 
REMARK    2  A    between atoms: O_2  and  C_9 
REMARK    3  A    between atoms: C_5  and  C_11 
REMARK    4  A    between atoms: C_12  and  C_13 
ROOT
ATOM      1  O   UNL A   1       5.847  -9.534  58.266  1.00  0.00    -0.358 OA
ATOM      2  H   UNL A   1       6.532  -8.940  58.501  1.00  0.00     0.217 HD
ENDROOT
BRANCH   1   3
ATOM      3  C   UNL A   1       5.101  -9.307  57.150  1.00  0.00     0.099 A 
ATOM      4  C   UNL A   1       3.921 -10.024  56.955  1.00  0.00     0.050 A 
ATOM      5  C   UNL A   1       3.147  -9.798  55.816  1.00  0.00    -0.033 A 
ATOM      6  C   UNL A   1       3.553  -8.852  54.874  1.00  0.00     0.014 A 
ATOM      7  C   UNL A   1       4.732  -8.134  55.071  1.00  0.00     0.040 A 
ATOM      8  C   UNL A   1       5.506  -8.361  56.208  1.00  0.00     0.098 A 
BRANCH   5   9
ATOM      9  C   UNL A   1       1.918 -10.548  55.611  1.00  0.00     0.018 C 
ATOM     10  C   UNL A   1       0.736  -9.962  55.443  1.00  0.00     0.085 C 
BRANCH  10  11
ATOM     11  C   UNL A   1      -0.455 -10.816  55.260  1.00  0.00     0.198 C 
ATOM     12  O   UNL A   1      -1.201 -10.768  56.389  1.00  0.00    -0.645 OA
ATOM     13  O   UNL A   1      -0.738 -11.464  54.266  1.00  0.00    -0.645 OA
ENDBRANCH  10  11
ENDBRANCH   5   9
BRANCH   8  14
ATOM     14  O   UNL A   1       6.655  -7.652  56.390  1.00  0.00    -0.358 OA
ATOM     15  H   UNL A   1       7.304  -7.633  55.714  1.00  0.00     0.217 HD
ENDBRANCH   8  14
ENDBRANCH   1   3
TORSDOF 4
ENDMDL
MODEL 2
REMARK VINA RESULT:      -6.4      3.069      4.240
REMARK  4 active torsions:
REMARK  status: ('A' for Active; 'I' for Inactive)
REMARK    1  A    between atoms: O_1  and  C_8 
REMARK    2  A    between atoms: O_2  and  C_9 
REMARK    3  A    between atoms: C_5  and  C_11 
REMARK    4  A    between atoms: C_12  and  C_13 
ROOT
ATOM      1  O   UNL A   1       5.060  -6.157  52.052  1.00  0.00    -0.358 OA
ATOM      2  H   UNL A   1       5.848  -6.656  51.953  1.00  0.00     0.217 HD
ENDROOT
BRANCH   1   3
ATOM      3  C   UNL A   1       4.481  -6.035  53.278  1.00  0.00     0.099 A 
ATOM      4  C   UNL A   1       4.141  -7.182  53.995  1.00  0.00     0.050 A 
ATOM      5  C   UNL A   1       3.549  -7.068  55.254  1.00  0.00    -0.033 A 
ATOM      6  C   UNL A   1       3.298  -5.807  55.794  1.00  0.00     0.014 A 
ATOM      7  C   UNL A   1       3.639  -4.660  55.077  1.00  0.00     0.040 A 
ATOM      8  C   UNL A   1       4.230  -4.774  53.819  1.00  0.00     0.098 A 
BRANCH   5   9
ATOM      9  C   UNL A   1       3.193  -8.264  56.000  1.00  0.00     0.018 C 
ATOM     10  C   UNL A   1       3.144  -9.472  55.445  1.00  0.00     0.085 C 
BRANCH  10  11
ATOM     11  C   UNL A   1       2.755 -10.620  56.289  1.00  0.00     0.198 C 
ATOM     12  O   UNL A   1       3.448 -10.560  57.451  1.00  0.00    -0.645 OA
ATOM     13  O   UNL A   1       1.946 -11.488  56.005  1.00  0.00    -0.645 OA
ENDBRANCH  10  11
ENDBRANCH   5   9
BRANCH   8  14
ATOM     14  O   UNL A   1       4.559  -3.647  53.129  1.00  0.00    -0.358 OA
ATOM     15  H   UNL A   1       4.891  -2.899  53.585  1.00  0.00     0.217 HD
ENDBRANCH   8  14
ENDBRANCH   1   3
TORSDOF 4
ENDMDL
MODEL 3
REMARK VINA RESULT:      -6.4      3.006      4.790
REMARK  4 active torsions:
REMARK  status: ('A' for Active; 'I' for Inactive)
REMARK    1  A    between atoms: O_1  and  C_8 
REMARK    2  A    between atoms: O_2  and  C_9 
REMARK    3  A    between atoms: C_5  and  C_11 
REMARK    4  A    between atoms: C_12  and  C_13 
ROOT
ATOM      1  O   UNL A   1       5.169  -6.235  52.134  1.00  0.00    -0.358 OA
ATOM      2  H   UNL A   1       5.164  -5.508  51.543  1.00  0.00     0.217 HD
ENDROOT
BRANCH   1   3
ATOM      3  C   UNL A   1       4.646  -6.101  53.384  1.00  0.00     0.099 A 
ATOM      4  C   UNL A   1       4.443  -7.235  54.170  1.00  0.00     0.050 A 
ATOM      5  C   UNL A   1       3.909  -7.109  55.453  1.00  0.00    -0.033 A 
ATOM      6  C   UNL A   1       3.580  -5.848  55.950  1.00  0.00     0.014 A 
ATOM      7  C   UNL A   1       3.784  -4.714  55.164  1.00  0.00     0.040 A 
ATOM      8  C   UNL A   1       4.316  -4.841  53.882  1.00  0.00     0.098 A 
BRANCH   5   9
ATOM      9  C   UNL A   1       3.697  -8.292  56.271  1.00  0.00     0.018 C 
ATOM     10  C   UNL A   1       4.697  -9.009  56.776  1.00  0.00     0.085 C 
BRANCH  10  11
ATOM     11  C   UNL A   1       4.373 -10.204  57.581  1.00  0.00     0.198 C 
ATOM     12  O   UNL A   1       3.244 -10.767  57.087  1.00  0.00    -0.645 OA
ATOM     13  O   UNL A   1       5.003 -10.630  58.534  1.00  0.00    -0.645 OA
ENDBRANCH  10  11
ENDBRANCH   5   9
BRANCH   8  14
ATOM     14  O   UNL A   1       4.512  -3.725  53.125  1.00  0.00    -0.358 OA
ATOM     15  H   UNL A   1       3.787  -3.322  52.689  1.00  0.00     0.217 HD
ENDBRANCH   8  14
ENDBRANCH   1   3
TORSDOF 4
ENDMDL
MODEL 4
REMARK VINA RESULT:      -6.3      1.294      1.700
REMARK  4 active torsions:
REMARK  status: ('A' for Active; 'I' for Inactive)
REMARK    1  A    between atoms: O_1  and  C_8 
REMARK    2  A    between atoms: O_2  and  C_9 
REMARK    3  A    between atoms: C_5  and  C_11 
REMARK    4  A    between atoms: C_12  and  C_13 
ROOT
ATOM      1  O   UNL A   1       6.300  -7.645  56.528  1.00  0.00    -0.358 OA
ATOM      2  H   UNL A   1       6.113  -7.659  57.446  1.00  0.00     0.217 HD
ENDROOT
BRANCH   1   3
ATOM      3  C   UNL A   1       5.335  -7.991  55.631  1.00  0.00     0.099 A 
ATOM      4  C   UNL A   1       4.304  -8.843  56.026  1.00  0.00     0.050 A 
ATOM      5  C   UNL A   1       3.309  -9.203  55.117  1.00  0.00    -0.033 A 
ATOM      6  C   UNL A   1       3.345  -8.710  53.813  1.00  0.00     0.014 A 
ATOM      7  C   UNL A   1       4.376  -7.857  53.418  1.00  0.00     0.040 A 
ATOM      8  C   UNL A   1       5.371  -7.498  54.327  1.00  0.00     0.098 A 
BRANCH   5   9
ATOM      9  C   UNL A   1       2.235 -10.092  55.529  1.00  0.00     0.018 C 
ATOM     10  C   UNL A   1       1.007 -10.024  55.021  1.00  0.00     0.085 C 
BRANCH  10  11
ATOM     11  C   UNL A   1      -0.017 -10.963  55.521  1.00  0.00     0.198 C 
ATOM     12  O   UNL A   1       0.607 -12.028  56.079  1.00  0.00    -0.645 OA
ATOM     13  O   UNL A   1      -1.226 -10.822  55.452  1.00  0.00    -0.645 OA
ENDBRANCH  10  11
ENDBRANCH   5   9
BRANCH   8  14
ATOM     14  O   UNL A   1       6.372  -6.664  53.930  1.00  0.00    -0.358 OA
ATOM     15  H   UNL A   1       6.851  -6.848  53.146  1.00  0.00     0.217 HD
ENDBRANCH   8  14
ENDBRANCH   1   3
TORSDOF 4
ENDMDL
MODEL 5
REMARK VINA RESULT:      -6.1      2.978      4.574
REMARK  4 active torsions:
REMARK  status: ('A' for Active; 'I' for Inactive)
REMARK    1  A    between atoms: O_1  and  C_8 
REMARK    2  A    between atoms: O_2  and  C_9 
REMARK    3  A    between atoms: C_5  and  C_11 
REMARK    4  A    between atoms: C_12  and  C_13 
ROOT
ATOM      1  O   UNL A   1       6.473  -9.728  57.941  1.00  0.00    -0.358 OA
ATOM      2  H   UNL A   1       7.073  -9.009  57.960  1.00  0.00     0.217 HD
ENDROOT
BRANCH   1   3
ATOM      3  C   UNL A   1       5.244  -9.575  57.374  1.00  0.00     0.099 A 
ATOM      4  C   UNL A   1       4.942  -8.394  56.697  1.00  0.00     0.050 A 
ATOM      5  C   UNL A   1       3.687  -8.227  56.111  1.00  0.00    -0.033 A 
ATOM      6  C   UNL A   1       2.735  -9.243  56.201  1.00  0.00     0.014 A 
ATOM      7  C   UNL A   1       3.038 -10.425  56.877  1.00  0.00     0.040 A 
ATOM      8  C   UNL A   1       4.292 -10.591  57.464  1.00  0.00     0.098 A 
BRANCH   5   9
ATOM      9  C   UNL A   1       3.371  -6.995  55.407  1.00  0.00     0.018 C 
ATOM     10  C   UNL A   1       3.428  -5.799  55.986  1.00  0.00     0.085 C 
BRANCH  10  11
ATOM     11  C   UNL A   1       3.071  -4.610  55.186  1.00  0.00     0.198 C 
ATOM     12  O   UNL A   1       2.042  -3.972  55.792  1.00  0.00    -0.645 OA
ATOM     13  O   UNL A   1       3.601  -4.247  54.150  1.00  0.00    -0.645 OA
ENDBRANCH  10  11
ENDBRANCH   5   9
BRANCH   8  14
ATOM     14  O   UNL A   1       4.576 -11.750  58.121  1.00  0.00    -0.358 OA
ATOM     15  H   UNL A   1       4.293 -11.868  59.006  1.00  0.00     0.217 HD
ENDBRANCH   8  14
ENDBRANCH   1   3
TORSDOF 4
ENDMDL
MODEL 6
REMARK VINA RESULT:      -6.1      2.424      3.112
REMARK  4 active torsions:
REMARK  status: ('A' for Active; 'I' for Inactive)
REMARK    1  A    between atoms: O_1  and  C_8 
REMARK    2  A    between atoms: O_2  and  C_9 
REMARK    3  A    between atoms: C_5  and  C_11 
REMARK    4  A    between atoms: C_12  and  C_13 
ROOT
ATOM      1  O   UNL A   1       6.289  -6.399  53.675  1.00  0.00    -0.358 OA
ATOM      2  H   UNL A   1       6.287  -6.088  52.791  1.00  0.00     0.217 HD
ENDROOT
BRANCH   1   3
ATOM      3  C   UNL A   1       5.113  -6.693  54.296  1.00  0.00     0.099 A 
ATOM      4  C   UNL A   1       4.670  -8.015  54.336  1.00  0.00     0.050 A 
ATOM      5  C   UNL A   1       3.467  -8.328  54.971  1.00  0.00    -0.033 A 
ATOM      6  C   UNL A   1       2.711  -7.320  55.567  1.00  0.00     0.014 A 
ATOM      7  C   UNL A   1       3.155  -5.998  55.528  1.00  0.00     0.040 A 
ATOM      8  C   UNL A   1       4.356  -5.685  54.892  1.00  0.00     0.098 A 
BRANCH   5   9
ATOM      9  C   UNL A   1       3.005  -9.706  55.011  1.00  0.00     0.018 C 
ATOM     10  C   UNL A   1       1.717 -10.032  55.090  1.00  0.00     0.085 C 
BRANCH  10  11
ATOM     11  C   UNL A   1       1.354 -11.462  55.142  1.00  0.00     0.198 C 
ATOM     12  O   UNL A   1       1.078 -11.886  53.886  1.00  0.00    -0.645 OA
ATOM     13  O   UNL A   1       1.304 -12.162  56.139  1.00  0.00    -0.645 OA
ENDBRANCH  10  11
ENDBRANCH   5   9
BRANCH   8  14
ATOM     14  O   UNL A   1       4.780  -4.391  54.861  1.00  0.00    -0.358 OA
ATOM     15  H   UNL A   1       4.744  -3.905  54.061  1.00  0.00     0.217 HD
ENDBRANCH   8  14
ENDBRANCH   1   3
TORSDOF 4
ENDMDL
MODEL 7
REMARK VINA RESULT:      -6.0      1.631      2.604
REMARK  4 active torsions:
REMARK  status: ('A' for Active; 'I' for Inactive)
REMARK    1  A    between atoms: O_1  and  C_8 
REMARK    2  A    between atoms: O_2  and  C_9 
REMARK    3  A    between atoms: C_5  and  C_11 
REMARK    4  A    between atoms: C_12  and  C_13 
ROOT
ATOM      1  O   UNL A   1       6.233  -7.677  56.500  1.00  0.00    -0.358 OA
ATOM      2  H   UNL A   1       7.010  -7.964  56.938  1.00  0.00     0.217 HD
ENDROOT
BRANCH   1   3
ATOM      3  C   UNL A   1       5.163  -8.513  56.394  1.00  0.00     0.099 A 
ATOM      4  C   UNL A   1       4.307  -8.398  55.300  1.00  0.00     0.050 A 
ATOM      5  C   UNL A   1       3.208  -9.250  55.180  1.00  0.00    -0.033 A 
ATOM      6  C   UNL A   1       2.969 -10.219  56.154  1.00  0.00     0.014 A 
ATOM      7  C   UNL A   1       3.826 -10.335  57.248  1.00  0.00     0.040 A 
ATOM      8  C   UNL A   1       4.923  -9.482  57.368  1.00  0.00     0.098 A 
BRANCH   5   9
ATOM      9  C   UNL A   1       2.315  -9.128  54.040  1.00  0.00     0.018 C 
ATOM     10  C   UNL A   1       1.107  -9.685  54.007  1.00  0.00     0.085 C 
BRANCH  10  11
ATOM     11  C   UNL A   1       0.284  -9.515  52.793  1.00  0.00     0.198 C 
ATOM     12  O   UNL A   1       0.792  -8.493  52.064  1.00  0.00    -0.645 OA
ATOM     13  O   UNL A   1      -0.693 -10.175  52.480  1.00  0.00    -0.645 OA
ENDBRANCH  10  11
ENDBRANCH   5   9
BRANCH   8  14
ATOM     14  O   UNL A   1       5.754  -9.606  58.440  1.00  0.00    -0.358 OA
ATOM     15  H   UNL A   1       6.448 -10.236  58.425  1.00  0.00     0.217 HD
ENDBRANCH   8  14
ENDBRANCH   1   3
TORSDOF 4
ENDMDL
MODEL 8
REMARK VINA RESULT:      -6.0      3.083      4.064
REMARK  4 active torsions:
REMARK  status: ('A' for Active; 'I' for Inactive)
REMARK    1  A    between atoms: O_1  and  C_8 
REMARK    2  A    between atoms: O_2  and  C_9 
REMARK    3  A    between atoms: C_5  and  C_11 
REMARK    4  A    between atoms: C_12  and  C_13 
ROOT
ATOM      1  O   UNL A   1       2.373  -3.875  54.843  1.00  0.00    -0.358 OA
ATOM      2  H   UNL A   1       1.451  -3.913  54.680  1.00  0.00     0.217 HD
ENDROOT
BRANCH   1   3
ATOM      3  C   UNL A   1       3.133  -4.998  54.720  1.00  0.00     0.099 A 
ATOM      4  C   UNL A   1       2.749  -6.164  55.381  1.00  0.00     0.050 A 
ATOM      5  C   UNL A   1       3.519  -7.321  55.260  1.00  0.00    -0.033 A 
ATOM      6  C   UNL A   1       4.673  -7.311  54.477  1.00  0.00     0.014 A 
ATOM      7  C   UNL A   1       5.057  -6.145  53.815  1.00  0.00     0.040 A 
ATOM      8  C   UNL A   1       4.287  -4.989  53.937  1.00  0.00     0.098 A 
BRANCH   5   9
ATOM      9  C   UNL A   1       3.119  -8.536  55.951  1.00  0.00     0.018 C 
ATOM     10  C   UNL A   1       2.946  -9.698  55.325  1.00  0.00     0.085 C 
BRANCH  10  11
ATOM     11  C   UNL A   1       2.521 -10.869  56.117  1.00  0.00     0.198 C 
ATOM     12  O   UNL A   1       3.384 -11.033  57.148  1.00  0.00    -0.645 OA
ATOM     13  O   UNL A   1       1.557 -11.583  55.897  1.00  0.00    -0.645 OA
ENDBRANCH  10  11
ENDBRANCH   5   9
BRANCH   8  14
ATOM     14  O   UNL A   1       4.672  -3.856  53.285  1.00  0.00    -0.358 OA
ATOM     15  H   UNL A   1       5.521  -3.491  53.442  1.00  0.00     0.217 HD
ENDBRANCH   8  14
ENDBRANCH   1   3
TORSDOF 4
ENDMDL
MODEL 9
REMARK VINA RESULT:      -6.0      1.093      2.191
REMARK  4 active torsions:
REMARK  status: ('A' for Active; 'I' for Inactive)
REMARK    1  A    between atoms: O_1  and  C_8 
REMARK    2  A    between atoms: O_2  and  C_9 
REMARK    3  A    between atoms: C_5  and  C_11 
REMARK    4  A    between atoms: C_12  and  C_13 
ROOT
ATOM      1  O   UNL A   1       4.921  -7.292  54.258  1.00  0.00    -0.358 OA
ATOM      2  H   UNL A   1       4.909  -6.389  54.506  1.00  0.00     0.217 HD
ENDROOT
BRANCH   1   3
ATOM      3  C   UNL A   1       4.503  -8.245  55.137  1.00  0.00     0.099 A 
ATOM      4  C   UNL A   1       3.411  -9.049  54.811  1.00  0.00     0.050 A 
ATOM      5  C   UNL A   1       2.975 -10.030  55.702  1.00  0.00    -0.033 A 
ATOM      6  C   UNL A   1       3.633 -10.208  56.919  1.00  0.00     0.014 A 
ATOM      7  C   UNL A   1       4.726  -9.405  57.245  1.00  0.00     0.040 A 
ATOM      8  C   UNL A   1       5.161  -8.424  56.354  1.00  0.00     0.098 A 
BRANCH   5   9
ATOM      9  C   UNL A   1       1.835 -10.866  55.362  1.00  0.00     0.018 C 
ATOM     10  C   UNL A   1       0.951 -10.534  54.425  1.00  0.00     0.085 C 
BRANCH  10  11
ATOM     11  C   UNL A   1      -0.182 -11.446  54.169  1.00  0.00     0.198 C 
ATOM     12  O   UNL A   1       0.308 -12.652  53.796  1.00  0.00    -0.645 OA
ATOM     13  O   UNL A   1      -1.367 -11.177  54.270  1.00  0.00    -0.645 OA
ENDBRANCH  10  11
ENDBRANCH   5   9
BRANCH   8  14
ATOM     14  O   UNL A   1       6.230  -7.647  56.683  1.00  0.00    -0.358 OA
ATOM     15  H   UNL A   1       7.085  -7.870  56.371  1.00  0.00     0.217 HD
ENDBRANCH   8  14
ENDBRANCH   1   3
TORSDOF 4
ENDMDL
