MODEL 1
REMARK VINA RESULT:      -6.3      0.000      0.000
REMARK  4 active torsions:
REMARK  status: ('A' for Active; 'I' for Inactive)
REMARK    1  A    between atoms: O_1  and  C_8 
REMARK    2  A    between atoms: O_2  and  C_9 
REMARK    3  A    between atoms: C_5  and  C_11 
REMARK    4  A    between atoms: C_12  and  C_13 
ROOT
ATOM      1  O   UNL A   1       8.796  -3.231  59.745  1.00  0.00    -0.358 OA
ATOM      2  H   UNL A   1       9.268  -4.041  59.744  1.00  0.00     0.217 HD
ENDROOT
BRANCH   1   3
ATOM      3  C   UNL A   1       7.681  -3.091  58.977  1.00  0.00     0.099 A 
ATOM      4  C   UNL A   1       6.719  -4.101  58.972  1.00  0.00     0.050 A 
ATOM      5  C   UNL A   1       5.571  -3.968  58.190  1.00  0.00    -0.033 A 
ATOM      6  C   UNL A   1       5.385  -2.823  57.414  1.00  0.00     0.014 A 
ATOM      7  C   UNL A   1       6.347  -1.813  57.420  1.00  0.00     0.040 A 
ATOM      8  C   UNL A   1       7.494  -1.947  58.201  1.00  0.00     0.098 A 
BRANCH   5   9
ATOM      9  C   UNL A   1       4.569  -5.022  58.184  1.00  0.00     0.018 C 
ATOM     10  C   UNL A   1       3.263  -4.774  58.213  1.00  0.00     0.085 C 
BRANCH  10  11
ATOM     11  C   UNL A   1       2.328  -5.918  58.221  1.00  0.00     0.198 C 
ATOM     12  O   UNL A   1       3.047  -7.066  58.216  1.00  0.00    -0.645 OA
ATOM     13  O   UNL A   1       1.110  -5.860  58.229  1.00  0.00    -0.645 OA
ENDBRANCH  10  11
ENDBRANCH   5   9
BRANCH   8  14
ATOM     14  O   UNL A   1       8.425  -0.953  58.200  1.00  0.00    -0.358 OA
ATOM     15  H   UNL A   1       8.463  -0.347  57.486  1.00  0.00     0.217 HD
ENDBRANCH   8  14
ENDBRANCH   1   3
TORSDOF 4
ENDMDL
MODEL 2
REMARK VINA RESULT:      -6.1      1.538      5.619
REMARK  4 active torsions:
REMARK  status: ('A' for Active; 'I' for Inactive)
REMARK    1  A    between atoms: O_1  and  C_8 
REMARK    2  A    between atoms: O_2  and  C_9 
REMARK    3  A    between atoms: C_5  and  C_11 
REMARK    4  A    between atoms: C_12  and  C_13 
ROOT
ATOM      1  O   UNL A   1       3.703  -6.735  59.874  1.00  0.00    -0.358 OA
ATOM      2  H   UNL A   1       3.613  -6.252  60.672  1.00  0.00     0.217 HD
ENDROOT
BRANCH   1   3
ATOM      3  C   UNL A   1       4.008  -6.086  58.716  1.00  0.00     0.099 A 
ATOM      4  C   UNL A   1       4.906  -5.018  58.743  1.00  0.00     0.050 A 
ATOM      5  C   UNL A   1       5.228  -4.347  57.562  1.00  0.00    -0.033 A 
ATOM      6  C   UNL A   1       4.653  -4.745  56.356  1.00  0.00     0.014 A 
ATOM      7  C   UNL A   1       3.756  -5.813  56.329  1.00  0.00     0.040 A 
ATOM      8  C   UNL A   1       3.434  -6.483  57.509  1.00  0.00     0.098 A 
BRANCH   5   9
ATOM      9  C   UNL A   1       6.162  -3.234  57.591  1.00  0.00     0.018 C 
ATOM     10  C   UNL A   1       5.774  -1.972  57.753  1.00  0.00     0.085 C 
BRANCH  10  11
ATOM     11  C   UNL A   1       6.803  -0.912  57.750  1.00  0.00     0.198 C 
ATOM     12  O   UNL A   1       6.366   0.115  56.984  1.00  0.00    -0.645 OA
ATOM     13  O   UNL A   1       7.874  -0.938  58.334  1.00  0.00    -0.645 OA
ENDBRANCH  10  11
ENDBRANCH   5   9
BRANCH   8  14
ATOM     14  O   UNL A   1       2.557  -7.525  57.470  1.00  0.00    -0.358 OA
ATOM     15  H   UNL A   1       2.533  -8.143  58.174  1.00  0.00     0.217 HD
ENDBRANCH   8  14
ENDBRANCH   1   3
TORSDOF 4
ENDMDL
MODEL 3
REMARK VINA RESULT:      -6.0      1.400      1.895
REMARK  4 active torsions:
REMARK  status: ('A' for Active; 'I' for Inactive)
REMARK    1  A    between atoms: O_1  and  C_8 
REMARK    2  A    between atoms: O_2  and  C_9 
REMARK    3  A    between atoms: C_5  and  C_11 
REMARK    4  A    between atoms: C_12  and  C_13 
ROOT
ATOM      1  O   UNL A   1       8.227  -0.904  58.264  1.00  0.00    -0.358 OA
ATOM      2  H   UNL A   1       8.151  -0.588  59.142  1.00  0.00     0.217 HD
ENDROOT
BRANCH   1   3
ATOM      3  C   UNL A   1       7.164  -1.506  57.662  1.00  0.00     0.099 A 
ATOM      4  C   UNL A   1       6.768  -2.777  58.078  1.00  0.00     0.050 A 
ATOM      5  C   UNL A   1       5.678  -3.403  57.470  1.00  0.00    -0.033 A 
ATOM      6  C   UNL A   1       4.985  -2.755  56.448  1.00  0.00     0.014 A 
ATOM      7  C   UNL A   1       5.381  -1.484  56.032  1.00  0.00     0.040 A 
ATOM      8  C   UNL A   1       6.470  -0.860  56.640  1.00  0.00     0.098 A 
BRANCH   5   9
ATOM      9  C   UNL A   1       5.267  -4.728  57.903  1.00  0.00     0.018 C 
ATOM     10  C   UNL A   1       3.995  -5.117  57.926  1.00  0.00     0.085 C 
BRANCH  10  11
ATOM     11  C   UNL A   1       3.682  -6.480  58.400  1.00  0.00     0.198 C 
ATOM     12  O   UNL A   1       4.021  -6.573  59.707  1.00  0.00    -0.645 OA
ATOM     13  O   UNL A   1       3.200  -7.385  57.740  1.00  0.00    -0.645 OA
ENDBRANCH  10  11
ENDBRANCH   5   9
BRANCH   8  14
ATOM     14  O   UNL A   1       6.846   0.382  56.226  1.00  0.00    -0.358 OA
ATOM     15  H   UNL A   1       6.978   1.065  56.854  1.00  0.00     0.217 HD
ENDBRANCH   8  14
ENDBRANCH   1   3
TORSDOF 4
ENDMDL
MODEL 4
REMARK VINA RESULT:      -6.0      1.507      1.727
REMARK  4 active torsions:
REMARK  status: ('A' for Active; 'I' for Inactive)
REMARK    1  A    between atoms: O_1  and  C_8 
REMARK    2  A    between atoms: O_2  and  C_9 
REMARK    3  A    between atoms: C_5  and  C_11 
REMARK    4  A    between atoms: C_12  and  C_13 
ROOT
ATOM      1  O   UNL A   1       6.858  -4.302  60.821  1.00  0.00    -0.358 OA
ATOM      2  H   UNL A   1       6.361  -4.898  61.344  1.00  0.00     0.217 HD
ENDROOT
BRANCH   1   3
ATOM      3  C   UNL A   1       6.561  -4.143  59.501  1.00  0.00     0.099 A 
ATOM      4  C   UNL A   1       5.487  -4.841  58.950  1.00  0.00     0.050 A 
ATOM      5  C   UNL A   1       5.172  -4.685  57.599  1.00  0.00    -0.033 A 
ATOM      6  C   UNL A   1       5.932  -3.829  56.801  1.00  0.00     0.014 A 
ATOM      7  C   UNL A   1       7.006  -3.131  57.353  1.00  0.00     0.040 A 
ATOM      8  C   UNL A   1       7.320  -3.288  58.703  1.00  0.00     0.098 A 
BRANCH   5   9
ATOM      9  C   UNL A   1       4.053  -5.413  57.025  1.00  0.00     0.018 C 
ATOM     10  C   UNL A   1       3.530  -6.496  57.594  1.00  0.00     0.085 C 
BRANCH  10  11
ATOM     11  C   UNL A   1       2.404  -7.173  56.919  1.00  0.00     0.198 C 
ATOM     12  O   UNL A   1       2.885  -7.859  55.854  1.00  0.00    -0.645 OA
ATOM     13  O   UNL A   1       1.231  -7.134  57.248  1.00  0.00    -0.645 OA
ENDBRANCH  10  11
ENDBRANCH   5   9
BRANCH   8  14
ATOM     14  O   UNL A   1       8.371  -2.599  59.230  1.00  0.00    -0.358 OA
ATOM     15  H   UNL A   1       8.558  -2.660  60.146  1.00  0.00     0.217 HD
ENDBRANCH   8  14
ENDBRANCH   1   3
TORSDOF 4
ENDMDL
MODEL 5
REMARK VINA RESULT:      -5.9      1.174      2.289
REMARK  4 active torsions:
REMARK  status: ('A' for Active; 'I' for Inactive)
REMARK    1  A    between atoms: O_1  and  C_8 
REMARK    2  A    between atoms: O_2  and  C_9 
REMARK    3  A    between atoms: C_5  and  C_11 
REMARK    4  A    between atoms: C_12  and  C_13 
ROOT
ATOM      1  O   UNL A   1       6.634  -0.469  56.109  1.00  0.00    -0.358 OA
ATOM      2  H   UNL A   1       6.281   0.331  56.447  1.00  0.00     0.217 HD
ENDROOT
BRANCH   1   3
ATOM      3  C   UNL A   1       6.579  -1.606  56.856  1.00  0.00     0.099 A 
ATOM      4  C   UNL A   1       5.611  -2.569  56.571  1.00  0.00     0.050 A 
ATOM      5  C   UNL A   1       5.546  -3.740  57.329  1.00  0.00    -0.033 A 
ATOM      6  C   UNL A   1       6.451  -3.947  58.370  1.00  0.00     0.014 A 
ATOM      7  C   UNL A   1       7.419  -2.984  58.654  1.00  0.00     0.040 A 
ATOM      8  C   UNL A   1       7.483  -1.814  57.897  1.00  0.00     0.098 A 
BRANCH   5   9
ATOM      9  C   UNL A   1       4.535  -4.742  57.032  1.00  0.00     0.018 C 
ATOM     10  C   UNL A   1       4.185  -5.691  57.897  1.00  0.00     0.085 C 
BRANCH  10  11
ATOM     11  C   UNL A   1       3.160  -6.672  57.490  1.00  0.00     0.198 C 
ATOM     12  O   UNL A   1       1.966  -6.289  58.002  1.00  0.00    -0.645 OA
ATOM     13  O   UNL A   1       3.337  -7.668  56.809  1.00  0.00    -0.645 OA
ENDBRANCH  10  11
ENDBRANCH   5   9
BRANCH   8  14
ATOM     14  O   UNL A   1       8.434  -0.882  58.184  1.00  0.00    -0.358 OA
ATOM     15  H   UNL A   1       8.444  -0.066  57.723  1.00  0.00     0.217 HD
ENDBRANCH   8  14
ENDBRANCH   1   3
TORSDOF 4
ENDMDL
MODEL 6
REMARK VINA RESULT:      -5.8      1.300      2.154
REMARK  4 active torsions:
REMARK  status: ('A' for Active; 'I' for Inactive)
REMARK    1  A    between atoms: O_1  and  C_8 
REMARK    2  A    between atoms: O_2  and  C_9 
REMARK    3  A    between atoms: C_5  and  C_11 
REMARK    4  A    between atoms: C_12  and  C_13 
ROOT
ATOM      1  O   UNL A   1       8.401  -2.262  57.252  1.00  0.00    -0.358 OA
ATOM      2  H   UNL A   1       8.766  -2.508  56.425  1.00  0.00     0.217 HD
ENDROOT
BRANCH   1   3
ATOM      3  C   UNL A   1       7.488  -3.069  57.860  1.00  0.00     0.099 A 
ATOM      4  C   UNL A   1       6.338  -3.450  57.169  1.00  0.00     0.050 A 
ATOM      5  C   UNL A   1       5.397  -4.278  57.781  1.00  0.00    -0.033 A 
ATOM      6  C   UNL A   1       5.607  -4.727  59.085  1.00  0.00     0.014 A 
ATOM      7  C   UNL A   1       6.758  -4.348  59.776  1.00  0.00     0.040 A 
ATOM      8  C   UNL A   1       7.698  -3.519  59.164  1.00  0.00     0.098 A 
BRANCH   5   9
ATOM      9  C   UNL A   1       4.197  -4.672  57.060  1.00  0.00     0.018 C 
ATOM     10  C   UNL A   1       3.062  -4.996  57.672  1.00  0.00     0.085 C 
BRANCH  10  11
ATOM     11  C   UNL A   1       1.905  -5.399  56.847  1.00  0.00     0.198 C 
ATOM     12  O   UNL A   1       2.069  -4.903  55.598  1.00  0.00    -0.645 OA
ATOM     13  O   UNL A   1       0.952  -6.067  57.211  1.00  0.00    -0.645 OA
ENDBRANCH  10  11
ENDBRANCH   5   9
BRANCH   8  14
ATOM     14  O   UNL A   1       8.818  -3.157  59.849  1.00  0.00    -0.358 OA
ATOM     15  H   UNL A   1       8.772  -2.485  60.500  1.00  0.00     0.217 HD
ENDBRANCH   8  14
ENDBRANCH   1   3
TORSDOF 4
ENDMDL
MODEL 7
REMARK VINA RESULT:      -5.8      2.794      4.769
REMARK  4 active torsions:
REMARK  status: ('A' for Active; 'I' for Inactive)
REMARK    1  A    between atoms: O_1  and  C_8 
REMARK    2  A    between atoms: O_2  and  C_9 
REMARK    3  A    between atoms: C_5  and  C_11 
REMARK    4  A    between atoms: C_12  and  C_13 
ROOT
ATOM      1  O   UNL A   1       9.032  -3.486  59.593  1.00  0.00    -0.358 OA
ATOM      2  H   UNL A   1       9.695  -3.686  58.962  1.00  0.00     0.217 HD
ENDROOT
BRANCH   1   3
ATOM      3  C   UNL A   1       7.731  -3.382  59.203  1.00  0.00     0.099 A 
ATOM      4  C   UNL A   1       7.352  -2.353  58.340  1.00  0.00     0.050 A 
ATOM      5  C   UNL A   1       6.023  -2.238  57.933  1.00  0.00    -0.033 A 
ATOM      6  C   UNL A   1       5.073  -3.154  58.387  1.00  0.00     0.014 A 
ATOM      7  C   UNL A   1       5.453  -4.183  59.248  1.00  0.00     0.040 A 
ATOM      8  C   UNL A   1       6.781  -4.297  59.656  1.00  0.00     0.098 A 
BRANCH   5   9
ATOM      9  C   UNL A   1       5.628  -1.165  57.035  1.00  0.00     0.018 C 
ATOM     10  C   UNL A   1       5.888  -1.184  55.731  1.00  0.00     0.085 C 
BRANCH  10  11
ATOM     11  C   UNL A   1       5.459  -0.034  54.909  1.00  0.00     0.198 C 
ATOM     12  O   UNL A   1       6.171  -0.034  53.757  1.00  0.00    -0.645 OA
ATOM     13  O   UNL A   1       4.607   0.788  55.201  1.00  0.00    -0.645 OA
ENDBRANCH  10  11
ENDBRANCH   5   9
BRANCH   8  14
ATOM     14  O   UNL A   1       7.139  -5.307  60.497  1.00  0.00    -0.358 OA
ATOM     15  H   UNL A   1       7.609  -6.047  60.166  1.00  0.00     0.217 HD
ENDBRANCH   8  14
ENDBRANCH   1   3
TORSDOF 4
ENDMDL
MODEL 8
REMARK VINA RESULT:      -5.8      2.943      4.648
REMARK  4 active torsions:
REMARK  status: ('A' for Active; 'I' for Inactive)
REMARK    1  A    between atoms: O_1  and  C_8 
REMARK    2  A    between atoms: O_2  and  C_9 
REMARK    3  A    between atoms: C_5  and  C_11 
REMARK    4  A    between atoms: C_12  and  C_13 
ROOT
ATOM      1  O   UNL A   1       7.217  -1.509  53.367  1.00  0.00    -0.358 OA
ATOM      2  H   UNL A   1       6.841  -2.186  52.839  1.00  0.00     0.217 HD
ENDROOT
BRANCH   1   3
ATOM      3  C   UNL A   1       6.573  -1.084  54.489  1.00  0.00     0.099 A 
ATOM      4  C   UNL A   1       6.607  -1.871  55.640  1.00  0.00     0.050 A 
ATOM      5  C   UNL A   1       5.953  -1.445  56.797  1.00  0.00    -0.033 A 
ATOM      6  C   UNL A   1       5.266  -0.231  56.801  1.00  0.00     0.014 A 
ATOM      7  C   UNL A   1       5.232   0.556  55.650  1.00  0.00     0.040 A 
ATOM      8  C   UNL A   1       5.886   0.129  54.495  1.00  0.00     0.098 A 
BRANCH   5   9
ATOM      9  C   UNL A   1       5.987  -2.266  57.996  1.00  0.00     0.018 C 
ATOM     10  C   UNL A   1       6.851  -3.264  58.161  1.00  0.00     0.085 C 
BRANCH  10  11
ATOM     11  C   UNL A   1       6.792  -4.049  59.411  1.00  0.00     0.198 C 
ATOM     12  O   UNL A   1       7.949  -3.871  60.091  1.00  0.00    -0.645 OA
ATOM     13  O   UNL A   1       5.864  -4.747  59.786  1.00  0.00    -0.645 OA
ENDBRANCH  10  11
ENDBRANCH   5   9
BRANCH   8  14
ATOM     14  O   UNL A   1       5.847   0.908  53.377  1.00  0.00    -0.358 OA
ATOM     15  H   UNL A   1       5.980   0.523  52.533  1.00  0.00     0.217 HD
ENDBRANCH   8  14
ENDBRANCH   1   3
TORSDOF 4
ENDMDL
MODEL 9
REMARK VINA RESULT:      -5.7      2.322      3.018
REMARK  4 active torsions:
REMARK  status: ('A' for Active; 'I' for Inactive)
REMARK    1  A    between atoms: O_1  and  C_8 
REMARK    2  A    between atoms: O_2  and  C_9 
REMARK    3  A    between atoms: C_5  and  C_11 
REMARK    4  A    between atoms: C_12  and  C_13 
ROOT
ATOM      1  O   UNL A   1       8.476  -1.858  57.853  1.00  0.00    -0.358 OA
ATOM      2  H   UNL A   1       9.307  -2.100  57.495  1.00  0.00     0.217 HD
ENDROOT
BRANCH   1   3
ATOM      3  C   UNL A   1       7.566  -2.820  58.174  1.00  0.00     0.099 A 
ATOM      4  C   UNL A   1       6.567  -3.152  57.259  1.00  0.00     0.050 A 
ATOM      5  C   UNL A   1       5.631  -4.137  57.576  1.00  0.00    -0.033 A 
ATOM      6  C   UNL A   1       5.697  -4.791  58.806  1.00  0.00     0.014 A 
ATOM      7  C   UNL A   1       6.697  -4.459  59.720  1.00  0.00     0.040 A 
ATOM      8  C   UNL A   1       7.631  -3.474  59.404  1.00  0.00     0.098 A 
BRANCH   5   9
ATOM      9  C   UNL A   1       4.588  -4.482  56.623  1.00  0.00     0.018 C 
ATOM     10  C   UNL A   1       4.181  -3.651  55.668  1.00  0.00     0.085 C 
BRANCH  10  11
ATOM     11  C   UNL A   1       3.102  -4.092  54.761  1.00  0.00     0.198 C 
ATOM     12  O   UNL A   1       2.762  -3.059  53.955  1.00  0.00    -0.645 OA
ATOM     13  O   UNL A   1       2.589  -5.198  54.728  1.00  0.00    -0.645 OA
ENDBRANCH  10  11
ENDBRANCH   5   9
BRANCH   8  14
ATOM     14  O   UNL A   1       8.604  -3.159  60.304  1.00  0.00    -0.358 OA
ATOM     15  H   UNL A   1       9.300  -2.581  60.059  1.00  0.00     0.217 HD
ENDBRANCH   8  14
ENDBRANCH   1   3
TORSDOF 4
ENDMDL
