MODEL 1
REMARK VINA RESULT:      -6.3      0.000      0.000
REMARK  4 active torsions:
REMARK  status: ('A' for Active; 'I' for Inactive)
REMARK    1  A    between atoms: O_1  and  C_8 
REMARK    2  A    between atoms: O_2  and  C_9 
REMARK    3  A    between atoms: C_5  and  C_11 
REMARK    4  A    between atoms: C_12  and  C_13 
ROOT
ATOM      1  O   UNL A   1       8.816  -3.248  59.719  1.00  0.00    -0.358 OA
ATOM      2  H   UNL A   1       9.006  -4.091  60.079  1.00  0.00     0.217 HD
ENDROOT
BRANCH   1   3
ATOM      3  C   UNL A   1       7.678  -3.057  58.997  1.00  0.00     0.099 A 
ATOM      4  C   UNL A   1       6.694  -4.046  58.990  1.00  0.00     0.050 A 
ATOM      5  C   UNL A   1       5.523  -3.860  58.255  1.00  0.00    -0.033 A 
ATOM      6  C   UNL A   1       5.335  -2.684  57.528  1.00  0.00     0.014 A 
ATOM      7  C   UNL A   1       6.318  -1.695  57.536  1.00  0.00     0.040 A 
ATOM      8  C   UNL A   1       7.489  -1.881  58.270  1.00  0.00     0.098 A 
BRANCH   5   9
ATOM      9  C   UNL A   1       4.499  -4.892  58.246  1.00  0.00     0.018 C 
ATOM     10  C   UNL A   1       3.229  -4.650  58.560  1.00  0.00     0.085 C 
BRANCH  10  11
ATOM     11  C   UNL A   1       2.270  -5.774  58.537  1.00  0.00     0.198 C 
ATOM     12  O   UNL A   1       1.077  -5.336  59.005  1.00  0.00    -0.645 OA
ATOM     13  O   UNL A   1       2.496  -6.912  58.163  1.00  0.00    -0.645 OA
ENDBRANCH  10  11
ENDBRANCH   5   9
BRANCH   8  14
ATOM     14  O   UNL A   1       8.441  -0.907  58.271  1.00  0.00    -0.358 OA
ATOM     15  H   UNL A   1       8.279  -0.093  57.835  1.00  0.00     0.217 HD
ENDBRANCH   8  14
ENDBRANCH   1   3
TORSDOF 4
ENDMDL
MODEL 2
REMARK VINA RESULT:      -6.2      2.939      4.684
REMARK  4 active torsions:
REMARK  status: ('A' for Active; 'I' for Inactive)
REMARK    1  A    between atoms: O_1  and  C_8 
REMARK    2  A    between atoms: O_2  and  C_9 
REMARK    3  A    between atoms: C_5  and  C_11 
REMARK    4  A    between atoms: C_12  and  C_13 
ROOT
ATOM      1  O   UNL A   1       9.178  -3.560  59.705  1.00  0.00    -0.358 OA
ATOM      2  H   UNL A   1       9.699  -2.808  59.503  1.00  0.00     0.217 HD
ENDROOT
BRANCH   1   3
ATOM      3  C   UNL A   1       7.856  -3.578  59.379  1.00  0.00     0.099 A 
ATOM      4  C   UNL A   1       7.350  -2.616  58.505  1.00  0.00     0.050 A 
ATOM      5  C   UNL A   1       5.997  -2.626  58.162  1.00  0.00    -0.033 A 
ATOM      6  C   UNL A   1       5.152  -3.600  58.693  1.00  0.00     0.014 A 
ATOM      7  C   UNL A   1       5.658  -4.563  59.566  1.00  0.00     0.040 A 
ATOM      8  C   UNL A   1       7.009  -4.552  59.909  1.00  0.00     0.098 A 
BRANCH   5   9
ATOM      9  C   UNL A   1       5.470  -1.622  57.252  1.00  0.00     0.018 C 
ATOM     10  C   UNL A   1       5.715  -0.322  57.394  1.00  0.00     0.085 C 
BRANCH  10  11
ATOM     11  C   UNL A   1       5.117   0.618  56.424  1.00  0.00     0.198 C 
ATOM     12  O   UNL A   1       4.430   1.566  57.105  1.00  0.00    -0.645 OA
ATOM     13  O   UNL A   1       5.213   0.566  55.209  1.00  0.00    -0.645 OA
ENDBRANCH  10  11
ENDBRANCH   5   9
BRANCH   8  14
ATOM     14  O   UNL A   1       7.492  -5.498  60.762  1.00  0.00    -0.358 OA
ATOM     15  H   UNL A   1       6.920  -5.903  61.384  1.00  0.00     0.217 HD
ENDBRANCH   8  14
ENDBRANCH   1   3
TORSDOF 4
ENDMDL
MODEL 3
REMARK VINA RESULT:      -6.2      1.676      5.573
REMARK  4 active torsions:
REMARK  status: ('A' for Active; 'I' for Inactive)
REMARK    1  A    between atoms: O_1  and  C_8 
REMARK    2  A    between atoms: O_2  and  C_9 
REMARK    3  A    between atoms: C_5  and  C_11 
REMARK    4  A    between atoms: C_12  and  C_13 
ROOT
ATOM      1  O   UNL A   1       3.830  -6.795  59.867  1.00  0.00    -0.358 OA
ATOM      2  H   UNL A   1       3.799  -6.341  60.686  1.00  0.00     0.217 HD
ENDROOT
BRANCH   1   3
ATOM      3  C   UNL A   1       4.095  -6.111  58.720  1.00  0.00     0.099 A 
ATOM      4  C   UNL A   1       4.979  -5.033  58.751  1.00  0.00     0.050 A 
ATOM      5  C   UNL A   1       5.259  -4.326  57.581  1.00  0.00    -0.033 A 
ATOM      6  C   UNL A   1       4.656  -4.699  56.380  1.00  0.00     0.014 A 
ATOM      7  C   UNL A   1       3.773  -5.778  56.349  1.00  0.00     0.040 A 
ATOM      8  C   UNL A   1       3.493  -6.484  57.518  1.00  0.00     0.098 A 
BRANCH   5   9
ATOM      9  C   UNL A   1       6.179  -3.200  57.615  1.00  0.00     0.018 C 
ATOM     10  C   UNL A   1       5.772  -1.940  57.738  1.00  0.00     0.085 C 
BRANCH  10  11
ATOM     11  C   UNL A   1       6.788  -0.868  57.744  1.00  0.00     0.198 C 
ATOM     12  O   UNL A   1       6.352   0.148  56.961  1.00  0.00    -0.645 OA
ATOM     13  O   UNL A   1       7.849  -0.876  58.346  1.00  0.00    -0.645 OA
ENDBRANCH  10  11
ENDBRANCH   5   9
BRANCH   8  14
ATOM     14  O   UNL A   1       2.630  -7.537  57.474  1.00  0.00    -0.358 OA
ATOM     15  H   UNL A   1       2.790  -8.250  56.888  1.00  0.00     0.217 HD
ENDBRANCH   8  14
ENDBRANCH   1   3
TORSDOF 4
ENDMDL
MODEL 4
REMARK VINA RESULT:      -6.1      1.493      1.928
REMARK  4 active torsions:
REMARK  status: ('A' for Active; 'I' for Inactive)
REMARK    1  A    between atoms: O_1  and  C_8 
REMARK    2  A    between atoms: O_2  and  C_9 
REMARK    3  A    between atoms: C_5  and  C_11 
REMARK    4  A    between atoms: C_12  and  C_13 
ROOT
ATOM      1  O   UNL A   1       8.299  -0.907  58.271  1.00  0.00    -0.358 OA
ATOM      2  H   UNL A   1       8.196  -0.148  58.810  1.00  0.00     0.217 HD
ENDROOT
BRANCH   1   3
ATOM      3  C   UNL A   1       7.210  -1.490  57.700  1.00  0.00     0.099 A 
ATOM      4  C   UNL A   1       6.807  -2.756  58.123  1.00  0.00     0.050 A 
ATOM      5  C   UNL A   1       5.690  -3.363  57.547  1.00  0.00    -0.033 A 
ATOM      6  C   UNL A   1       4.976  -2.702  56.547  1.00  0.00     0.014 A 
ATOM      7  C   UNL A   1       5.379  -1.435  56.124  1.00  0.00     0.040 A 
ATOM      8  C   UNL A   1       6.495  -0.830  56.700  1.00  0.00     0.098 A 
BRANCH   5   9
ATOM      9  C   UNL A   1       5.272  -4.684  57.987  1.00  0.00     0.018 C 
ATOM     10  C   UNL A   1       4.005  -5.088  57.953  1.00  0.00     0.085 C 
BRANCH  10  11
ATOM     11  C   UNL A   1       3.683  -6.444  58.440  1.00  0.00     0.198 C 
ATOM     12  O   UNL A   1       4.106  -6.556  59.722  1.00  0.00    -0.645 OA
ATOM     13  O   UNL A   1       3.130  -7.330  57.810  1.00  0.00    -0.645 OA
ENDBRANCH  10  11
ENDBRANCH   5   9
BRANCH   8  14
ATOM     14  O   UNL A   1       6.878   0.408  56.280  1.00  0.00    -0.358 OA
ATOM     15  H   UNL A   1       6.243   1.093  56.201  1.00  0.00     0.217 HD
ENDBRANCH   8  14
ENDBRANCH   1   3
TORSDOF 4
ENDMDL
MODEL 5
REMARK VINA RESULT:      -5.9      1.624      2.117
REMARK  4 active torsions:
REMARK  status: ('A' for Active; 'I' for Inactive)
REMARK    1  A    between atoms: O_1  and  C_8 
REMARK    2  A    between atoms: O_2  and  C_9 
REMARK    3  A    between atoms: C_5  and  C_11 
REMARK    4  A    between atoms: C_12  and  C_13 
ROOT
ATOM      1  O   UNL A   1       6.841  -4.335  60.830  1.00  0.00    -0.358 OA
ATOM      2  H   UNL A   1       6.988  -3.588  61.377  1.00  0.00     0.217 HD
ENDROOT
BRANCH   1   3
ATOM      3  C   UNL A   1       6.535  -4.164  59.514  1.00  0.00     0.099 A 
ATOM      4  C   UNL A   1       5.435  -4.830  58.973  1.00  0.00     0.050 A 
ATOM      5  C   UNL A   1       5.111  -4.662  57.626  1.00  0.00    -0.033 A 
ATOM      6  C   UNL A   1       5.885  -3.826  56.822  1.00  0.00     0.014 A 
ATOM      7  C   UNL A   1       6.984  -3.159  57.364  1.00  0.00     0.040 A 
ATOM      8  C   UNL A   1       7.308  -3.328  58.710  1.00  0.00     0.098 A 
BRANCH   5   9
ATOM      9  C   UNL A   1       3.966  -5.358  57.062  1.00  0.00     0.018 C 
ATOM     10  C   UNL A   1       3.573  -6.558  57.481  1.00  0.00     0.085 C 
BRANCH  10  11
ATOM     11  C   UNL A   1       2.407  -7.187  56.829  1.00  0.00     0.198 C 
ATOM     12  O   UNL A   1       2.845  -7.962  55.809  1.00  0.00    -0.645 OA
ATOM     13  O   UNL A   1       1.237  -7.044  57.141  1.00  0.00    -0.645 OA
ENDBRANCH  10  11
ENDBRANCH   5   9
BRANCH   8  14
ATOM     14  O   UNL A   1       8.383  -2.670  59.227  1.00  0.00    -0.358 OA
ATOM     15  H   UNL A   1       8.784  -2.976  60.017  1.00  0.00     0.217 HD
ENDBRANCH   8  14
ENDBRANCH   1   3
TORSDOF 4
ENDMDL
MODEL 6
REMARK VINA RESULT:      -5.9      0.859      2.125
REMARK  4 active torsions:
REMARK  status: ('A' for Active; 'I' for Inactive)
REMARK    1  A    between atoms: O_1  and  C_8 
REMARK    2  A    between atoms: O_2  and  C_9 
REMARK    3  A    between atoms: C_5  and  C_11 
REMARK    4  A    between atoms: C_12  and  C_13 
ROOT
ATOM      1  O   UNL A   1       6.080  -0.176  56.987  1.00  0.00    -0.358 OA
ATOM      2  H   UNL A   1       6.425   0.569  57.438  1.00  0.00     0.217 HD
ENDROOT
BRANCH   1   3
ATOM      3  C   UNL A   1       6.258  -1.425  57.499  1.00  0.00     0.099 A 
ATOM      4  C   UNL A   1       5.228  -2.361  57.405  1.00  0.00     0.050 A 
ATOM      5  C   UNL A   1       5.400  -3.644  57.925  1.00  0.00    -0.033 A 
ATOM      6  C   UNL A   1       6.604  -3.992  58.537  1.00  0.00     0.014 A 
ATOM      7  C   UNL A   1       7.635  -3.056  58.631  1.00  0.00     0.040 A 
ATOM      8  C   UNL A   1       7.462  -1.774  58.112  1.00  0.00     0.098 A 
BRANCH   5   9
ATOM      9  C   UNL A   1       4.325  -4.618  57.828  1.00  0.00     0.018 C 
ATOM     10  C   UNL A   1       3.320  -4.671  58.697  1.00  0.00     0.085 C 
BRANCH  10  11
ATOM     11  C   UNL A   1       2.286  -5.711  58.518  1.00  0.00     0.198 C 
ATOM     12  O   UNL A   1       2.899  -6.903  58.327  1.00  0.00    -0.645 OA
ATOM     13  O   UNL A   1       1.078  -5.544  58.536  1.00  0.00    -0.645 OA
ENDBRANCH  10  11
ENDBRANCH   5   9
BRANCH   8  14
ATOM     14  O   UNL A   1       8.476  -0.870  58.208  1.00  0.00    -0.358 OA
ATOM     15  H   UNL A   1       8.455  -0.210  58.873  1.00  0.00     0.217 HD
ENDBRANCH   8  14
ENDBRANCH   1   3
TORSDOF 4
ENDMDL
MODEL 7
REMARK VINA RESULT:      -5.9      2.634      4.842
REMARK  4 active torsions:
REMARK  status: ('A' for Active; 'I' for Inactive)
REMARK    1  A    between atoms: O_1  and  C_8 
REMARK    2  A    between atoms: O_2  and  C_9 
REMARK    3  A    between atoms: C_5  and  C_11 
REMARK    4  A    between atoms: C_12  and  C_13 
ROOT
ATOM      1  O   UNL A   1       8.818  -3.487  59.708  1.00  0.00    -0.358 OA
ATOM      2  H   UNL A   1       9.348  -4.208  59.428  1.00  0.00     0.217 HD
ENDROOT
BRANCH   1   3
ATOM      3  C   UNL A   1       7.570  -3.319  59.190  1.00  0.00     0.099 A 
ATOM      4  C   UNL A   1       7.328  -2.268  58.305  1.00  0.00     0.050 A 
ATOM      5  C   UNL A   1       6.054  -2.087  57.767  1.00  0.00    -0.033 A 
ATOM      6  C   UNL A   1       5.021  -2.959  58.113  1.00  0.00     0.014 A 
ATOM      7  C   UNL A   1       5.263  -4.011  58.997  1.00  0.00     0.040 A 
ATOM      8  C   UNL A   1       6.537  -4.191  59.535  1.00  0.00     0.098 A 
BRANCH   5   9
ATOM      9  C   UNL A   1       5.802  -0.990  56.847  1.00  0.00     0.018 C 
ATOM     10  C   UNL A   1       5.726  -1.158  55.529  1.00  0.00     0.085 C 
BRANCH  10  11
ATOM     11  C   UNL A   1       5.484   0.026  54.680  1.00  0.00     0.198 C 
ATOM     12  O   UNL A   1       4.594   0.833  55.305  1.00  0.00    -0.645 OA
ATOM     13  O   UNL A   1       5.991   0.256  53.595  1.00  0.00    -0.645 OA
ENDBRANCH  10  11
ENDBRANCH   5   9
BRANCH   8  14
ATOM     14  O   UNL A   1       6.761  -5.222  60.396  1.00  0.00    -0.358 OA
ATOM     15  H   UNL A   1       7.531  -5.748  60.307  1.00  0.00     0.217 HD
ENDBRANCH   8  14
ENDBRANCH   1   3
TORSDOF 4
ENDMDL
MODEL 8
REMARK VINA RESULT:      -5.9      3.132      4.920
REMARK  4 active torsions:
REMARK  status: ('A' for Active; 'I' for Inactive)
REMARK    1  A    between atoms: O_1  and  C_8 
REMARK    2  A    between atoms: O_2  and  C_9 
REMARK    3  A    between atoms: C_5  and  C_11 
REMARK    4  A    between atoms: C_12  and  C_13 
ROOT
ATOM      1  O   UNL A   1       7.193  -1.447  53.279  1.00  0.00    -0.358 OA
ATOM      2  H   UNL A   1       7.590  -2.295  53.230  1.00  0.00     0.217 HD
ENDROOT
BRANCH   1   3
ATOM      3  C   UNL A   1       6.602  -1.038  54.436  1.00  0.00     0.099 A 
ATOM      4  C   UNL A   1       6.719  -1.824  55.582  1.00  0.00     0.050 A 
ATOM      5  C   UNL A   1       6.119  -1.414  56.774  1.00  0.00    -0.033 A 
ATOM      6  C   UNL A   1       5.403  -0.217  56.817  1.00  0.00     0.014 A 
ATOM      7  C   UNL A   1       5.287   0.568  55.671  1.00  0.00     0.040 A 
ATOM      8  C   UNL A   1       5.886   0.158  54.480  1.00  0.00     0.098 A 
BRANCH   5   9
ATOM      9  C   UNL A   1       6.240  -2.234  57.968  1.00  0.00     0.018 C 
ATOM     10  C   UNL A   1       7.335  -2.933  58.255  1.00  0.00     0.085 C 
BRANCH  10  11
ATOM     11  C   UNL A   1       7.350  -3.748  59.486  1.00  0.00     0.198 C 
ATOM     12  O   UNL A   1       8.396  -3.358  60.252  1.00  0.00    -0.645 OA
ATOM     13  O   UNL A   1       6.561  -4.630  59.782  1.00  0.00    -0.645 OA
ENDBRANCH  10  11
ENDBRANCH   5   9
BRANCH   8  14
ATOM     14  O   UNL A   1       5.766   0.934  53.368  1.00  0.00    -0.358 OA
ATOM     15  H   UNL A   1       6.525   1.334  52.991  1.00  0.00     0.217 HD
ENDBRANCH   8  14
ENDBRANCH   1   3
TORSDOF 4
ENDMDL
MODEL 9
REMARK VINA RESULT:      -5.8      1.621      2.382
REMARK  4 active torsions:
REMARK  status: ('A' for Active; 'I' for Inactive)
REMARK    1  A    between atoms: O_1  and  C_8 
REMARK    2  A    between atoms: O_2  and  C_9 
REMARK    3  A    between atoms: C_5  and  C_11 
REMARK    4  A    between atoms: C_12  and  C_13 
ROOT
ATOM      1  O   UNL A   1       8.441  -1.833  57.871  1.00  0.00    -0.358 OA
ATOM      2  H   UNL A   1       9.357  -2.023  57.928  1.00  0.00     0.217 HD
ENDROOT
BRANCH   1   3
ATOM      3  C   UNL A   1       7.526  -2.771  58.241  1.00  0.00     0.099 A 
ATOM      4  C   UNL A   1       6.396  -2.978  57.451  1.00  0.00     0.050 A 
ATOM      5  C   UNL A   1       5.453  -3.938  57.819  1.00  0.00    -0.033 A 
ATOM      6  C   UNL A   1       5.642  -4.692  58.978  1.00  0.00     0.014 A 
ATOM      7  C   UNL A   1       6.772  -4.485  59.768  1.00  0.00     0.040 A 
ATOM      8  C   UNL A   1       7.714  -3.525  59.399  1.00  0.00     0.098 A 
BRANCH   5   9
ATOM      9  C   UNL A   1       4.274  -4.152  56.996  1.00  0.00     0.018 C 
ATOM     10  C   UNL A   1       3.308  -5.004  57.328  1.00  0.00     0.085 C 
BRANCH  10  11
ATOM     11  C   UNL A   1       2.159  -5.161  56.412  1.00  0.00     0.198 C 
ATOM     12  O   UNL A   1       2.440  -4.521  55.252  1.00  0.00    -0.645 OA
ATOM     13  O   UNL A   1       1.123  -5.761  56.643  1.00  0.00    -0.645 OA
ENDBRANCH  10  11
ENDBRANCH   5   9
BRANCH   8  14
ATOM     14  O   UNL A   1       8.815  -3.333  60.178  1.00  0.00    -0.358 OA
ATOM     15  H   UNL A   1       8.747  -2.841  60.973  1.00  0.00     0.217 HD
ENDBRANCH   8  14
ENDBRANCH   1   3
TORSDOF 4
ENDMDL
