MODEL 1
REMARK VINA RESULT:      -6.3      0.000      0.000
REMARK  4 active torsions:
REMARK  status: ('A' for Active; 'I' for Inactive)
REMARK    1  A    between atoms: O_1  and  C_8 
REMARK    2  A    between atoms: O_2  and  C_9 
REMARK    3  A    between atoms: C_5  and  C_11 
REMARK    4  A    between atoms: C_12  and  C_13 
ROOT
ATOM      1  O   UNL A   1       8.814  -3.248  59.720  1.00  0.00    -0.358 OA
ATOM      2  H   UNL A   1       8.809  -3.833  60.452  1.00  0.00     0.217 HD
ENDROOT
BRANCH   1   3
ATOM      3  C   UNL A   1       7.678  -3.058  58.993  1.00  0.00     0.099 A 
ATOM      4  C   UNL A   1       6.696  -4.048  58.982  1.00  0.00     0.050 A 
ATOM      5  C   UNL A   1       5.527  -3.864  58.243  1.00  0.00    -0.033 A 
ATOM      6  C   UNL A   1       5.340  -2.688  57.516  1.00  0.00     0.014 A 
ATOM      7  C   UNL A   1       6.322  -1.697  57.528  1.00  0.00     0.040 A 
ATOM      8  C   UNL A   1       7.490  -1.883  58.266  1.00  0.00     0.098 A 
BRANCH   5   9
ATOM      9  C   UNL A   1       4.504  -4.897  58.230  1.00  0.00     0.018 C 
ATOM     10  C   UNL A   1       3.231  -4.656  58.533  1.00  0.00     0.085 C 
BRANCH  10  11
ATOM     11  C   UNL A   1       2.274  -5.781  58.506  1.00  0.00     0.198 C 
ATOM     12  O   UNL A   1       1.095  -5.359  59.021  1.00  0.00    -0.645 OA
ATOM     13  O   UNL A   1       2.491  -6.908  58.095  1.00  0.00    -0.645 OA
ENDBRANCH  10  11
ENDBRANCH   5   9
BRANCH   8  14
ATOM     14  O   UNL A   1       8.441  -0.907  58.271  1.00  0.00    -0.358 OA
ATOM     15  H   UNL A   1       8.968  -0.770  59.034  1.00  0.00     0.217 HD
ENDBRANCH   8  14
ENDBRANCH   1   3
TORSDOF 4
ENDMDL
MODEL 2
REMARK VINA RESULT:      -6.2      2.932      4.675
REMARK  4 active torsions:
REMARK  status: ('A' for Active; 'I' for Inactive)
REMARK    1  A    between atoms: O_1  and  C_8 
REMARK    2  A    between atoms: O_2  and  C_9 
REMARK    3  A    between atoms: C_5  and  C_11 
REMARK    4  A    between atoms: C_12  and  C_13 
ROOT
ATOM      1  O   UNL A   1       9.155  -3.504  59.813  1.00  0.00    -0.358 OA
ATOM      2  H   UNL A   1       9.756  -4.155  59.509  1.00  0.00     0.217 HD
ENDROOT
BRANCH   1   3
ATOM      3  C   UNL A   1       7.851  -3.548  59.424  1.00  0.00     0.099 A 
ATOM      4  C   UNL A   1       7.366  -2.587  58.537  1.00  0.00     0.050 A 
ATOM      5  C   UNL A   1       6.032  -2.623  58.130  1.00  0.00    -0.033 A 
ATOM      6  C   UNL A   1       5.184  -3.621  58.609  1.00  0.00     0.014 A 
ATOM      7  C   UNL A   1       5.669  -4.582  59.495  1.00  0.00     0.040 A 
ATOM      8  C   UNL A   1       7.002  -4.546  59.902  1.00  0.00     0.098 A 
BRANCH   5   9
ATOM      9  C   UNL A   1       5.526  -1.620  57.206  1.00  0.00     0.018 C 
ATOM     10  C   UNL A   1       5.628  -0.313  57.435  1.00  0.00     0.085 C 
BRANCH  10  11
ATOM     11  C   UNL A   1       5.066   0.623  56.440  1.00  0.00     0.198 C 
ATOM     12  O   UNL A   1       4.439   1.628  57.096  1.00  0.00    -0.645 OA
ATOM     13  O   UNL A   1       5.143   0.525  55.227  1.00  0.00    -0.645 OA
ENDBRANCH  10  11
ENDBRANCH   5   9
BRANCH   8  14
ATOM     14  O   UNL A   1       7.465  -5.491  60.767  1.00  0.00    -0.358 OA
ATOM     15  H   UNL A   1       8.368  -5.739  60.751  1.00  0.00     0.217 HD
ENDBRANCH   8  14
ENDBRANCH   1   3
TORSDOF 4
ENDMDL
MODEL 3
REMARK VINA RESULT:      -6.2      1.667      5.567
REMARK  4 active torsions:
REMARK  status: ('A' for Active; 'I' for Inactive)
REMARK    1  A    between atoms: O_1  and  C_8 
REMARK    2  A    between atoms: O_2  and  C_9 
REMARK    3  A    between atoms: C_5  and  C_11 
REMARK    4  A    between atoms: C_12  and  C_13 
ROOT
ATOM      1  O   UNL A   1       3.834  -6.799  59.879  1.00  0.00    -0.358 OA
ATOM      2  H   UNL A   1       3.319  -7.580  59.825  1.00  0.00     0.217 HD
ENDROOT
BRANCH   1   3
ATOM      3  C   UNL A   1       4.108  -6.085  58.752  1.00  0.00     0.099 A 
ATOM      4  C   UNL A   1       4.980  -4.999  58.823  1.00  0.00     0.050 A 
ATOM      5  C   UNL A   1       5.270  -4.260  57.675  1.00  0.00    -0.033 A 
ATOM      6  C   UNL A   1       4.688  -4.610  56.456  1.00  0.00     0.014 A 
ATOM      7  C   UNL A   1       3.816  -5.696  56.386  1.00  0.00     0.040 A 
ATOM      8  C   UNL A   1       3.526  -6.433  57.534  1.00  0.00     0.098 A 
BRANCH   5   9
ATOM      9  C   UNL A   1       6.178  -3.128  57.749  1.00  0.00     0.018 C 
ATOM     10  C   UNL A   1       5.770  -1.867  57.628  1.00  0.00     0.085 C 
BRANCH  10  11
ATOM     11  C   UNL A   1       6.777  -0.790  57.702  1.00  0.00     0.198 C 
ATOM     12  O   UNL A   1       6.348   0.257  56.956  1.00  0.00    -0.645 OA
ATOM     13  O   UNL A   1       7.826  -0.817  58.323  1.00  0.00    -0.645 OA
ENDBRANCH  10  11
ENDBRANCH   5   9
BRANCH   8  14
ATOM     14  O   UNL A   1       2.674  -7.493  57.452  1.00  0.00    -0.358 OA
ATOM     15  H   UNL A   1       2.211  -7.782  58.214  1.00  0.00     0.217 HD
ENDBRANCH   8  14
ENDBRANCH   1   3
TORSDOF 4
ENDMDL
MODEL 4
REMARK VINA RESULT:      -6.1      1.462      1.917
REMARK  4 active torsions:
REMARK  status: ('A' for Active; 'I' for Inactive)
REMARK    1  A    between atoms: O_1  and  C_8 
REMARK    2  A    between atoms: O_2  and  C_9 
REMARK    3  A    between atoms: C_5  and  C_11 
REMARK    4  A    between atoms: C_12  and  C_13 
ROOT
ATOM      1  O   UNL A   1       8.345  -0.912  58.264  1.00  0.00    -0.358 OA
ATOM      2  H   UNL A   1       8.368   0.012  58.420  1.00  0.00     0.217 HD
ENDROOT
BRANCH   1   3
ATOM      3  C   UNL A   1       7.225  -1.488  57.748  1.00  0.00     0.099 A 
ATOM      4  C   UNL A   1       6.816  -2.737  58.215  1.00  0.00     0.050 A 
ATOM      5  C   UNL A   1       5.669  -3.336  57.694  1.00  0.00    -0.033 A 
ATOM      6  C   UNL A   1       4.929  -2.684  56.708  1.00  0.00     0.014 A 
ATOM      7  C   UNL A   1       5.337  -1.434  56.241  1.00  0.00     0.040 A 
ATOM      8  C   UNL A   1       6.485  -0.837  56.761  1.00  0.00     0.098 A 
BRANCH   5   9
ATOM      9  C   UNL A   1       5.244  -4.639  58.180  1.00  0.00     0.018 C 
ATOM     10  C   UNL A   1       4.046  -5.152  57.916  1.00  0.00     0.085 C 
BRANCH  10  11
ATOM     11  C   UNL A   1       3.707  -6.477  58.472  1.00  0.00     0.198 C 
ATOM     12  O   UNL A   1       4.260  -6.584  59.704  1.00  0.00    -0.645 OA
ATOM     13  O   UNL A   1       3.043  -7.344  57.930  1.00  0.00    -0.645 OA
ENDBRANCH  10  11
ENDBRANCH   5   9
BRANCH   8  14
ATOM     14  O   UNL A   1       6.872   0.384  56.298  1.00  0.00    -0.358 OA
ATOM     15  H   UNL A   1       6.274   1.106  56.322  1.00  0.00     0.217 HD
ENDBRANCH   8  14
ENDBRANCH   1   3
TORSDOF 4
ENDMDL
MODEL 5
REMARK VINA RESULT:      -6.1      2.575      4.824
REMARK  4 active torsions:
REMARK  status: ('A' for Active; 'I' for Inactive)
REMARK    1  A    between atoms: O_1  and  C_8 
REMARK    2  A    between atoms: O_2  and  C_9 
REMARK    3  A    between atoms: C_5  and  C_11 
REMARK    4  A    between atoms: C_12  and  C_13 
ROOT
ATOM      1  O   UNL A   1       5.365  -5.869  59.912  1.00  0.00    -0.358 OA
ATOM      2  H   UNL A   1       4.657  -6.174  59.379  1.00  0.00     0.217 HD
ENDROOT
BRANCH   1   3
ATOM      3  C   UNL A   1       6.079  -4.773  59.534  1.00  0.00     0.099 A 
ATOM      4  C   UNL A   1       5.500  -3.838  58.676  1.00  0.00     0.050 A 
ATOM      5  C   UNL A   1       6.221  -2.710  58.283  1.00  0.00    -0.033 A 
ATOM      6  C   UNL A   1       7.520  -2.516  58.752  1.00  0.00     0.014 A 
ATOM      7  C   UNL A   1       8.099  -3.450  59.611  1.00  0.00     0.040 A 
ATOM      8  C   UNL A   1       7.378  -4.578  60.002  1.00  0.00     0.098 A 
BRANCH   5   9
ATOM      9  C   UNL A   1       5.617  -1.737  57.387  1.00  0.00     0.018 C 
ATOM     10  C   UNL A   1       5.884  -0.435  57.451  1.00  0.00     0.085 C 
BRANCH  10  11
ATOM     11  C   UNL A   1       5.204   0.472  56.504  1.00  0.00     0.198 C 
ATOM     12  O   UNL A   1       4.562   1.433  57.209  1.00  0.00    -0.645 OA
ATOM     13  O   UNL A   1       5.208   0.386  55.288  1.00  0.00    -0.645 OA
ENDBRANCH  10  11
ENDBRANCH   5   9
BRANCH   8  14
ATOM     14  O   UNL A   1       7.953  -5.482  60.842  1.00  0.00    -0.358 OA
ATOM     15  H   UNL A   1       8.224  -5.219  61.700  1.00  0.00     0.217 HD
ENDBRANCH   8  14
ENDBRANCH   1   3
TORSDOF 4
ENDMDL
MODEL 6
REMARK VINA RESULT:      -6.0      1.544      2.021
REMARK  4 active torsions:
REMARK  status: ('A' for Active; 'I' for Inactive)
REMARK    1  A    between atoms: O_1  and  C_8 
REMARK    2  A    between atoms: O_2  and  C_9 
REMARK    3  A    between atoms: C_5  and  C_11 
REMARK    4  A    between atoms: C_12  and  C_13 
ROOT
ATOM      1  O   UNL A   1       6.875  -4.292  60.796  1.00  0.00    -0.358 OA
ATOM      2  H   UNL A   1       6.189  -4.381  61.427  1.00  0.00     0.217 HD
ENDROOT
BRANCH   1   3
ATOM      3  C   UNL A   1       6.571  -4.134  59.478  1.00  0.00     0.099 A 
ATOM      4  C   UNL A   1       5.508  -4.849  58.927  1.00  0.00     0.050 A 
ATOM      5  C   UNL A   1       5.186  -4.694  57.578  1.00  0.00    -0.033 A 
ATOM      6  C   UNL A   1       5.926  -3.820  56.782  1.00  0.00     0.014 A 
ATOM      7  C   UNL A   1       6.989  -3.104  57.333  1.00  0.00     0.040 A 
ATOM      8  C   UNL A   1       7.311  -3.261  58.681  1.00  0.00     0.098 A 
BRANCH   5   9
ATOM      9  C   UNL A   1       4.079  -5.441  57.005  1.00  0.00     0.018 C 
ATOM     10  C   UNL A   1       3.432  -6.396  57.668  1.00  0.00     0.085 C 
BRANCH  10  11
ATOM     11  C   UNL A   1       2.332  -7.108  56.987  1.00  0.00     0.198 C 
ATOM     12  O   UNL A   1       2.845  -7.803  55.945  1.00  0.00    -0.645 OA
ATOM     13  O   UNL A   1       1.152  -7.085  57.297  1.00  0.00    -0.645 OA
ENDBRANCH  10  11
ENDBRANCH   5   9
BRANCH   8  14
ATOM     14  O   UNL A   1       8.349  -2.555  59.207  1.00  0.00    -0.358 OA
ATOM     15  H   UNL A   1       8.363  -2.354  60.122  1.00  0.00     0.217 HD
ENDBRANCH   8  14
ENDBRANCH   1   3
TORSDOF 4
ENDMDL
MODEL 7
REMARK VINA RESULT:      -5.9      1.214      2.179
REMARK  4 active torsions:
REMARK  status: ('A' for Active; 'I' for Inactive)
REMARK    1  A    between atoms: O_1  and  C_8 
REMARK    2  A    between atoms: O_2  and  C_9 
REMARK    3  A    between atoms: C_5  and  C_11 
REMARK    4  A    between atoms: C_12  and  C_13 
ROOT
ATOM      1  O   UNL A   1       6.571  -0.404  56.262  1.00  0.00    -0.358 OA
ATOM      2  H   UNL A   1       7.347   0.121  56.259  1.00  0.00     0.217 HD
ENDROOT
BRANCH   1   3
ATOM      3  C   UNL A   1       6.540  -1.568  56.968  1.00  0.00     0.099 A 
ATOM      4  C   UNL A   1       5.551  -2.513  56.693  1.00  0.00     0.050 A 
ATOM      5  C   UNL A   1       5.510  -3.710  57.410  1.00  0.00    -0.033 A 
ATOM      6  C   UNL A   1       6.460  -3.962  58.399  1.00  0.00     0.014 A 
ATOM      7  C   UNL A   1       7.449  -3.018  58.674  1.00  0.00     0.040 A 
ATOM      8  C   UNL A   1       7.489  -1.821  57.958  1.00  0.00     0.098 A 
BRANCH   5   9
ATOM      9  C   UNL A   1       4.478  -4.693  57.124  1.00  0.00     0.018 C 
ATOM     10  C   UNL A   1       4.206  -5.710  57.937  1.00  0.00     0.085 C 
BRANCH  10  11
ATOM     11  C   UNL A   1       3.148  -6.663  57.545  1.00  0.00     0.198 C 
ATOM     12  O   UNL A   1       1.978  -6.265  58.097  1.00  0.00    -0.645 OA
ATOM     13  O   UNL A   1       3.286  -7.650  56.843  1.00  0.00    -0.645 OA
ENDBRANCH  10  11
ENDBRANCH   5   9
BRANCH   8  14
ATOM     14  O   UNL A   1       8.461  -0.908  58.235  1.00  0.00    -0.358 OA
ATOM     15  H   UNL A   1       8.289   0.007  58.125  1.00  0.00     0.217 HD
ENDBRANCH   8  14
ENDBRANCH   1   3
TORSDOF 4
ENDMDL
MODEL 8
REMARK VINA RESULT:      -5.8      1.809      2.503
REMARK  4 active torsions:
REMARK  status: ('A' for Active; 'I' for Inactive)
REMARK    1  A    between atoms: O_1  and  C_8 
REMARK    2  A    between atoms: O_2  and  C_9 
REMARK    3  A    between atoms: C_5  and  C_11 
REMARK    4  A    between atoms: C_12  and  C_13 
ROOT
ATOM      1  O   UNL A   1       8.522  -1.847  57.852  1.00  0.00    -0.358 OA
ATOM      2  H   UNL A   1       8.966  -1.385  58.535  1.00  0.00     0.217 HD
ENDROOT
BRANCH   1   3
ATOM      3  C   UNL A   1       7.582  -2.782  58.161  1.00  0.00     0.099 A 
ATOM      4  C   UNL A   1       6.536  -3.026  57.270  1.00  0.00     0.050 A 
ATOM      5  C   UNL A   1       5.568  -3.984  57.576  1.00  0.00    -0.033 A 
ATOM      6  C   UNL A   1       5.647  -4.698  58.771  1.00  0.00     0.014 A 
ATOM      7  C   UNL A   1       6.693  -4.454  59.661  1.00  0.00     0.040 A 
ATOM      8  C   UNL A   1       7.660  -3.497  59.356  1.00  0.00     0.098 A 
BRANCH   5   9
ATOM      9  C   UNL A   1       4.477  -4.236  56.648  1.00  0.00     0.018 C 
ATOM     10  C   UNL A   1       3.295  -4.705  57.036  1.00  0.00     0.085 C 
BRANCH  10  11
ATOM     11  C   UNL A   1       2.259  -4.943  56.011  1.00  0.00     0.198 C 
ATOM     12  O   UNL A   1       2.563  -4.215  54.910  1.00  0.00    -0.645 OA
ATOM     13  O   UNL A   1       1.286  -5.670  56.117  1.00  0.00    -0.645 OA
ENDBRANCH  10  11
ENDBRANCH   5   9
BRANCH   8  14
ATOM     14  O   UNL A   1       8.678  -3.270  60.233  1.00  0.00    -0.358 OA
ATOM     15  H   UNL A   1       9.366  -3.898  60.325  1.00  0.00     0.217 HD
ENDBRANCH   8  14
ENDBRANCH   1   3
TORSDOF 4
ENDMDL
MODEL 9
REMARK VINA RESULT:      -5.7      2.991      5.305
REMARK  4 active torsions:
REMARK  status: ('A' for Active; 'I' for Inactive)
REMARK    1  A    between atoms: O_1  and  C_8 
REMARK    2  A    between atoms: O_2  and  C_9 
REMARK    3  A    between atoms: C_5  and  C_11 
REMARK    4  A    between atoms: C_12  and  C_13 
ROOT
ATOM      1  O   UNL A   1       8.512  -3.120  59.901  1.00  0.00    -0.358 OA
ATOM      2  H   UNL A   1       8.830  -3.855  60.386  1.00  0.00     0.217 HD
ENDROOT
BRANCH   1   3
ATOM      3  C   UNL A   1       7.656  -3.310  58.860  1.00  0.00     0.099 A 
ATOM      4  C   UNL A   1       7.925  -2.708  57.630  1.00  0.00     0.050 A 
ATOM      5  C   UNL A   1       7.056  -2.898  56.555  1.00  0.00    -0.033 A 
ATOM      6  C   UNL A   1       5.919  -3.691  56.710  1.00  0.00     0.014 A 
ATOM      7  C   UNL A   1       5.650  -4.293  57.939  1.00  0.00     0.040 A 
ATOM      8  C   UNL A   1       6.519  -4.102  59.014  1.00  0.00     0.098 A 
BRANCH   5   9
ATOM      9  C   UNL A   1       7.336  -2.269  55.275  1.00  0.00     0.018 C 
ATOM     10  C   UNL A   1       6.404  -1.647  54.558  1.00  0.00     0.085 C 
BRANCH  10  11
ATOM     11  C   UNL A   1       6.789  -1.056  53.260  1.00  0.00     0.198 C 
ATOM     12  O   UNL A   1       8.138  -1.101  53.147  1.00  0.00    -0.645 OA
ATOM     13  O   UNL A   1       6.035  -0.598  52.419  1.00  0.00    -0.645 OA
ENDBRANCH  10  11
ENDBRANCH   5   9
BRANCH   8  14
ATOM     14  O   UNL A   1       6.247  -4.697  60.208  1.00  0.00    -0.358 OA
ATOM     15  H   UNL A   1       6.480  -4.269  61.009  1.00  0.00     0.217 HD
ENDBRANCH   8  14
ENDBRANCH   1   3
TORSDOF 4
ENDMDL
