MODEL 1
REMARK VINA RESULT:      -6.3      0.000      0.000
REMARK  6 active torsions:
REMARK  status: ('A' for Active; 'I' for Inactive)
REMARK    1  A    between atoms: O_1  and  C_5 
REMARK    2  A    between atoms: O_2  and  C_7 
REMARK    3  A    between atoms: O_2  and  C_13 
REMARK    4  A    between atoms: C_4  and  C_5 
REMARK    5  A    between atoms: C_4  and  C_6 
REMARK    6  A    between atoms: C_5  and  C_7 
ROOT
HETATM    1  O   UNL     1       5.391  -5.384  54.134  1.00  0.00    -0.385 OA
HETATM    2  H   UNL     1       6.258  -5.672  54.460  1.00  0.00     0.210 HD
ENDROOT
BRANCH   1   3
HETATM    3  C   UNL     1       4.397  -6.311  54.549  1.00  0.00     0.221 C 
BRANCH   3   4
HETATM    4  C   UNL     1       4.989  -7.722  54.502  1.00  0.00     0.080 C 
BRANCH   4   5
HETATM    5  C   UNL     1       3.990  -8.771  54.929  1.00  0.00    -0.055 A 
HETATM    6  C   UNL     1       2.982  -9.145  54.054  1.00  0.00     0.007 A 
HETATM    7  C   UNL     1       2.059 -10.113  54.449  1.00  0.00     0.001 A 
HETATM    8  C   UNL     1       2.156 -10.695  55.713  1.00  0.00     0.000 A 
HETATM    9  C   UNL     1       3.176 -10.309  56.582  1.00  0.00     0.001 A 
HETATM   10  C   UNL     1       4.099  -9.340  56.188  1.00  0.00     0.007 A 
ENDBRANCH   4   5
ENDBRANCH   3   4
BRANCH   3  11
HETATM   11  C   UNL     1       3.987  -5.945  55.962  1.00  0.00     0.288 C 
HETATM   12  O   UNL     1       4.731  -5.981  56.933  1.00  0.00    -0.262 OA
BRANCH  11  13
HETATM   13  O   UNL     1       2.680  -5.550  55.972  1.00  0.00    -0.320 OA
BRANCH  13  14
HETATM   14  C   UNL     1       2.441  -4.199  55.560  1.00  0.00     0.174 C 
HETATM   15  C   UNL     1       1.432  -3.571  56.498  1.00  0.00     0.034 C 
ENDBRANCH  13  14
ENDBRANCH  11  13
ENDBRANCH   3  11
ENDBRANCH   1   3
TORSDOF 6
ENDMDL
MODEL 2
REMARK VINA RESULT:      -6.3      0.236      1.312
REMARK  6 active torsions:
REMARK  status: ('A' for Active; 'I' for Inactive)
REMARK    1  A    between atoms: O_1  and  C_5 
REMARK    2  A    between atoms: O_2  and  C_7 
REMARK    3  A    between atoms: O_2  and  C_13 
REMARK    4  A    between atoms: C_4  and  C_5 
REMARK    5  A    between atoms: C_4  and  C_6 
REMARK    6  A    between atoms: C_5  and  C_7 
ROOT
HETATM    1  O   UNL     1       5.395  -5.384  54.019  1.00  0.00    -0.385 OA
HETATM    2  H   UNL     1       4.986  -4.731  53.430  1.00  0.00     0.210 HD
ENDROOT
BRANCH   1   3
HETATM    3  C   UNL     1       4.410  -6.309  54.458  1.00  0.00     0.221 C 
BRANCH   3   4
HETATM    4  C   UNL     1       5.075  -7.670  54.678  1.00  0.00     0.080 C 
BRANCH   4   5
HETATM    5  C   UNL     1       4.076  -8.735  55.062  1.00  0.00    -0.055 A 
HETATM    6  C   UNL     1       4.139  -9.300  56.326  1.00  0.00     0.007 A 
HETATM    7  C   UNL     1       3.216 -10.284  56.681  1.00  0.00     0.001 A 
HETATM    8  C   UNL     1       2.243 -10.689  55.767  1.00  0.00     0.000 A 
HETATM    9  C   UNL     1       2.192 -10.111  54.500  1.00  0.00     0.001 A 
HETATM   10  C   UNL     1       3.114  -9.127  54.144  1.00  0.00     0.007 A 
ENDBRANCH   4   5
ENDBRANCH   3   4
BRANCH   3  11
HETATM   11  C   UNL     1       3.824  -5.780  55.752  1.00  0.00     0.288 C 
HETATM   12  O   UNL     1       4.430  -5.711  56.813  1.00  0.00    -0.262 OA
BRANCH  11  13
HETATM   13  O   UNL     1       2.538  -5.373  55.540  1.00  0.00    -0.320 OA
BRANCH  13  14
HETATM   14  C   UNL     1       2.338  -3.956  55.495  1.00  0.00     0.174 C 
HETATM   15  C   UNL     1       1.372  -3.560  56.592  1.00  0.00     0.034 C 
ENDBRANCH  13  14
ENDBRANCH  11  13
ENDBRANCH   3  11
ENDBRANCH   1   3
TORSDOF 6
ENDMDL
MODEL 3
REMARK VINA RESULT:      -5.9      1.118      1.373
REMARK  6 active torsions:
REMARK  status: ('A' for Active; 'I' for Inactive)
REMARK    1  A    between atoms: O_1  and  C_5 
REMARK    2  A    between atoms: O_2  and  C_7 
REMARK    3  A    between atoms: O_2  and  C_13 
REMARK    4  A    between atoms: C_4  and  C_5 
REMARK    5  A    between atoms: C_4  and  C_6 
REMARK    6  A    between atoms: C_5  and  C_7 
ROOT
HETATM    1  O   UNL     1       5.496  -6.565  52.648  1.00  0.00    -0.385 OA
HETATM    2  H   UNL     1       6.127  -7.293  52.756  1.00  0.00     0.210 HD
ENDROOT
BRANCH   1   3
HETATM    3  C   UNL     1       4.416  -6.734  53.556  1.00  0.00     0.221 C 
BRANCH   3   4
HETATM    4  C   UNL     1       4.917  -7.506  54.779  1.00  0.00     0.080 C 
BRANCH   4   5
HETATM    5  C   UNL     1       4.010  -8.659  55.134  1.00  0.00    -0.055 A 
HETATM    6  C   UNL     1       3.102  -9.122  54.194  1.00  0.00     0.007 A 
HETATM    7  C   UNL     1       2.263 -10.188  54.521  1.00  0.00     0.001 A 
HETATM    8  C   UNL     1       2.343 -10.775  55.784  1.00  0.00     0.000 A 
HETATM    9  C   UNL     1       3.261 -10.299  56.718  1.00  0.00     0.001 A 
HETATM   10  C   UNL     1       4.100  -9.233  56.391  1.00  0.00     0.007 A 
ENDBRANCH   4   5
ENDBRANCH   3   4
BRANCH   3  11
HETATM   11  C   UNL     1       3.926  -5.355  53.953  1.00  0.00     0.288 C 
HETATM   12  O   UNL     1       4.424  -4.304  53.571  1.00  0.00    -0.262 OA
BRANCH  11  13
HETATM   13  O   UNL     1       2.840  -5.472  54.771  1.00  0.00    -0.320 OA
BRANCH  13  14
HETATM   14  C   UNL     1       2.941  -4.802  56.032  1.00  0.00     0.174 C 
HETATM   15  C   UNL     1       1.791  -3.826  56.165  1.00  0.00     0.034 C 
ENDBRANCH  13  14
ENDBRANCH  11  13
ENDBRANCH   3  11
ENDBRANCH   1   3
TORSDOF 6
ENDMDL
MODEL 4
REMARK VINA RESULT:      -5.9      1.408      2.206
REMARK  6 active torsions:
REMARK  status: ('A' for Active; 'I' for Inactive)
REMARK    1  A    between atoms: O_1  and  C_5 
REMARK    2  A    between atoms: O_2  and  C_7 
REMARK    3  A    between atoms: O_2  and  C_13 
REMARK    4  A    between atoms: C_4  and  C_5 
REMARK    5  A    between atoms: C_4  and  C_6 
REMARK    6  A    between atoms: C_5  and  C_7 
ROOT
HETATM    1  O   UNL     1       2.511  -6.619  52.910  1.00  0.00    -0.385 OA
HETATM    2  H   UNL     1       2.862  -5.932  52.322  1.00  0.00     0.210 HD
ENDROOT
BRANCH   1   3
HETATM    3  C   UNL     1       3.117  -6.502  54.191  1.00  0.00     0.221 C 
BRANCH   3   4
HETATM    4  C   UNL     1       4.342  -7.418  54.242  1.00  0.00     0.080 C 
BRANCH   4   5
HETATM    5  C   UNL     1       4.245  -8.433  55.355  1.00  0.00    -0.055 A 
HETATM    6  C   UNL     1       5.226  -8.461  56.335  1.00  0.00     0.007 A 
HETATM    7  C   UNL     1       5.137  -9.398  57.364  1.00  0.00     0.001 A 
HETATM    8  C   UNL     1       4.070 -10.295  57.399  1.00  0.00     0.000 A 
HETATM    9  C   UNL     1       3.091 -10.255  56.407  1.00  0.00     0.001 A 
HETATM   10  C   UNL     1       3.179  -9.317  55.378  1.00  0.00     0.007 A 
ENDBRANCH   4   5
ENDBRANCH   3   4
BRANCH   3  11
HETATM   11  C   UNL     1       3.519  -5.052  54.379  1.00  0.00     0.288 C 
HETATM   12  O   UNL     1       4.639  -4.608  54.165  1.00  0.00    -0.262 OA
BRANCH  11  13
HETATM   13  O   UNL     1       2.439  -4.327  54.795  1.00  0.00    -0.320 OA
BRANCH  13  14
HETATM   14  C   UNL     1       2.219  -4.304  56.209  1.00  0.00     0.174 C 
HETATM   15  C   UNL     1       1.172  -3.257  56.528  1.00  0.00     0.034 C 
ENDBRANCH  13  14
ENDBRANCH  11  13
ENDBRANCH   3  11
ENDBRANCH   1   3
TORSDOF 6
ENDMDL
MODEL 5
REMARK VINA RESULT:      -5.9      2.498      3.900
REMARK  6 active torsions:
REMARK  status: ('A' for Active; 'I' for Inactive)
REMARK    1  A    between atoms: O_1  and  C_5 
REMARK    2  A    between atoms: O_2  and  C_7 
REMARK    3  A    between atoms: O_2  and  C_13 
REMARK    4  A    between atoms: C_4  and  C_5 
REMARK    5  A    between atoms: C_4  and  C_6 
REMARK    6  A    between atoms: C_5  and  C_7 
ROOT
HETATM    1  O   UNL     1       3.196  -7.140  56.120  1.00  0.00    -0.385 OA
HETATM    2  H   UNL     1       2.232  -7.143  56.013  1.00  0.00     0.210 HD
ENDROOT
BRANCH   1   3
HETATM    3  C   UNL     1       3.697  -8.457  55.936  1.00  0.00     0.221 C 
BRANCH   3   4
HETATM    4  C   UNL     1       3.450  -8.881  54.486  1.00  0.00     0.080 C 
BRANCH   4   5
HETATM    5  C   UNL     1       2.435  -9.993  54.385  1.00  0.00    -0.055 A 
HETATM    6  C   UNL     1       1.835 -10.254  53.162  1.00  0.00     0.007 A 
HETATM    7  C   UNL     1       0.896 -11.282  53.068  1.00  0.00     0.001 A 
HETATM    8  C   UNL     1       0.569 -12.033  54.197  1.00  0.00     0.000 A 
HETATM    9  C   UNL     1       1.181 -11.758  55.419  1.00  0.00     0.001 A 
HETATM   10  C   UNL     1       2.120 -10.731  55.514  1.00  0.00     0.007 A 
ENDBRANCH   4   5
ENDBRANCH   3   4
BRANCH   3  11
HETATM   11  C   UNL     1       5.181  -8.433  56.245  1.00  0.00     0.288 C 
HETATM   12  O   UNL     1       6.048  -8.060  55.466  1.00  0.00    -0.262 OA
BRANCH  11  13
HETATM   13  O   UNL     1       5.390  -8.863  57.524  1.00  0.00    -0.320 OA
BRANCH  13  14
HETATM   14  C   UNL     1       4.633 -10.013  57.920  1.00  0.00     0.174 C 
HETATM   15  C   UNL     1       5.574 -11.044  58.506  1.00  0.00     0.034 C 
ENDBRANCH  13  14
ENDBRANCH  11  13
ENDBRANCH   3  11
ENDBRANCH   1   3
TORSDOF 6
ENDMDL
MODEL 6
REMARK VINA RESULT:      -5.9      2.047      3.429
REMARK  6 active torsions:
REMARK  status: ('A' for Active; 'I' for Inactive)
REMARK    1  A    between atoms: O_1  and  C_5 
REMARK    2  A    between atoms: O_2  and  C_7 
REMARK    3  A    between atoms: O_2  and  C_13 
REMARK    4  A    between atoms: C_4  and  C_5 
REMARK    5  A    between atoms: C_4  and  C_6 
REMARK    6  A    between atoms: C_5  and  C_7 
ROOT
HETATM    1  O   UNL     1       3.534 -10.354  57.881  1.00  0.00    -0.385 OA
HETATM    2  H   UNL     1       4.381 -10.757  58.127  1.00  0.00     0.210 HD
ENDROOT
BRANCH   1   3
HETATM    3  C   UNL     1       3.620  -9.836  56.560  1.00  0.00     0.221 C 
BRANCH   3   4
HETATM    4  C   UNL     1       2.220  -9.425  56.099  1.00  0.00     0.080 C 
BRANCH   4   5
HETATM    5  C   UNL     1       1.743 -10.252  54.929  1.00  0.00    -0.055 A 
HETATM    6  C   UNL     1       1.929  -9.775  53.641  1.00  0.00     0.007 A 
HETATM    7  C   UNL     1       1.488 -10.538  52.559  1.00  0.00     0.001 A 
HETATM    8  C   UNL     1       0.867 -11.768  52.781  1.00  0.00     0.000 A 
HETATM    9  C   UNL     1       0.687 -12.234  54.083  1.00  0.00     0.001 A 
HETATM   10  C   UNL     1       1.128 -11.471  55.164  1.00  0.00     0.007 A 
ENDBRANCH   4   5
ENDBRANCH   3   4
BRANCH   3  11
HETATM   11  C   UNL     1       4.549  -8.638  56.596  1.00  0.00     0.288 C 
HETATM   12  O   UNL     1       5.555  -8.558  57.288  1.00  0.00    -0.262 OA
BRANCH  11  13
HETATM   13  O   UNL     1       4.102  -7.686  55.724  1.00  0.00    -0.320 OA
BRANCH  13  14
HETATM   14  C   UNL     1       4.313  -6.329  56.130  1.00  0.00     0.174 C 
HETATM   15  C   UNL     1       3.031  -5.550  55.927  1.00  0.00     0.034 C 
ENDBRANCH  13  14
ENDBRANCH  11  13
ENDBRANCH   3  11
ENDBRANCH   1   3
TORSDOF 6
ENDMDL
MODEL 7
REMARK VINA RESULT:      -5.8      4.254      6.015
REMARK  6 active torsions:
REMARK  status: ('A' for Active; 'I' for Inactive)
REMARK    1  A    between atoms: O_1  and  C_5 
REMARK    2  A    between atoms: O_2  and  C_7 
REMARK    3  A    between atoms: O_2  and  C_13 
REMARK    4  A    between atoms: C_4  and  C_5 
REMARK    5  A    between atoms: C_4  and  C_6 
REMARK    6  A    between atoms: C_5  and  C_7 
ROOT
HETATM    1  O   UNL     1       0.701 -13.188  53.386  1.00  0.00    -0.385 OA
HETATM    2  H   UNL     1      -0.008 -13.829  53.552  1.00  0.00     0.210 HD
ENDROOT
BRANCH   1   3
HETATM    3  C   UNL     1       0.389 -11.960  54.030  1.00  0.00     0.221 C 
BRANCH   3   4
HETATM    4  C   UNL     1       1.268 -10.855  53.437  1.00  0.00     0.080 C 
BRANCH   4   5
HETATM    5  C   UNL     1       2.210 -10.269  54.461  1.00  0.00    -0.055 A 
HETATM    6  C   UNL     1       2.270 -10.830  55.727  1.00  0.00     0.007 A 
HETATM    7  C   UNL     1       3.140 -10.289  56.674  1.00  0.00     0.001 A 
HETATM    8  C   UNL     1       3.937  -9.193  56.342  1.00  0.00     0.000 A 
HETATM    9  C   UNL     1       3.865  -8.639  55.064  1.00  0.00     0.001 A 
HETATM   10  C   UNL     1       2.995  -9.181  54.117  1.00  0.00     0.007 A 
ENDBRANCH   4   5
ENDBRANCH   3   4
BRANCH   3  11
HETATM   11  C   UNL     1      -1.079 -11.670  53.784  1.00  0.00     0.288 C 
HETATM   12  O   UNL     1      -1.837 -12.402  53.162  1.00  0.00    -0.262 OA
BRANCH  11  13
HETATM   13  O   UNL     1      -1.420 -10.491  54.383  1.00  0.00    -0.320 OA
BRANCH  13  14
HETATM   14  C   UNL     1      -2.075 -10.610  55.651  1.00  0.00     0.174 C 
HETATM   15  C   UNL     1      -1.201  -9.984  56.717  1.00  0.00     0.034 C 
ENDBRANCH  13  14
ENDBRANCH  11  13
ENDBRANCH   3  11
ENDBRANCH   1   3
TORSDOF 6
ENDMDL
MODEL 8
REMARK VINA RESULT:      -5.8      1.142      2.255
REMARK  6 active torsions:
REMARK  status: ('A' for Active; 'I' for Inactive)
REMARK    1  A    between atoms: O_1  and  C_5 
REMARK    2  A    between atoms: O_2  and  C_7 
REMARK    3  A    between atoms: O_2  and  C_13 
REMARK    4  A    between atoms: C_4  and  C_5 
REMARK    5  A    between atoms: C_4  and  C_6 
REMARK    6  A    between atoms: C_5  and  C_7 
ROOT
HETATM    1  O   UNL     1       6.115  -7.735  56.455  1.00  0.00    -0.385 OA
HETATM    2  H   UNL     1       5.827  -8.058  57.323  1.00  0.00     0.210 HD
ENDROOT
BRANCH   1   3
HETATM    3  C   UNL     1       5.065  -7.910  55.513  1.00  0.00     0.221 C 
BRANCH   3   4
HETATM    4  C   UNL     1       3.793  -8.316  56.262  1.00  0.00     0.080 C 
BRANCH   4   5
HETATM    5  C   UNL     1       2.958  -9.295  55.473  1.00  0.00    -0.055 A 
HETATM    6  C   UNL     1       2.433 -10.408  56.111  1.00  0.00     0.007 A 
HETATM    7  C   UNL     1       1.661 -11.313  55.383  1.00  0.00     0.001 A 
HETATM    8  C   UNL     1       1.425 -11.093  54.025  1.00  0.00     0.000 A 
HETATM    9  C   UNL     1       1.960  -9.970  53.397  1.00  0.00     0.001 A 
HETATM   10  C   UNL     1       2.732  -9.064  54.125  1.00  0.00     0.007 A 
ENDBRANCH   4   5
ENDBRANCH   3   4
BRANCH   3  11
HETATM   11  C   UNL     1       4.868  -6.590  54.792  1.00  0.00     0.288 C 
HETATM   12  O   UNL     1       5.242  -6.360  53.649  1.00  0.00    -0.262 OA
BRANCH  11  13
HETATM   13  O   UNL     1       4.194  -5.722  55.602  1.00  0.00    -0.320 OA
BRANCH  13  14
HETATM   14  C   UNL     1       3.230  -4.890  54.948  1.00  0.00     0.174 C 
HETATM   15  C   UNL     1       2.285  -4.322  55.986  1.00  0.00     0.034 C 
ENDBRANCH  13  14
ENDBRANCH  11  13
ENDBRANCH   3  11
ENDBRANCH   1   3
TORSDOF 6
ENDMDL
MODEL 9
REMARK VINA RESULT:      -5.7      2.300      4.799
REMARK  6 active torsions:
REMARK  status: ('A' for Active; 'I' for Inactive)
REMARK    1  A    between atoms: O_1  and  C_5 
REMARK    2  A    between atoms: O_2  and  C_7 
REMARK    3  A    between atoms: O_2  and  C_13 
REMARK    4  A    between atoms: C_4  and  C_5 
REMARK    5  A    between atoms: C_4  and  C_6 
REMARK    6  A    between atoms: C_5  and  C_7 
ROOT
HETATM    1  O   UNL     1       5.899  -9.213  57.717  1.00  0.00    -0.385 OA
HETATM    2  H   UNL     1       5.833 -10.109  58.083  1.00  0.00     0.210 HD
ENDROOT
BRANCH   1   3
HETATM    3  C   UNL     1       4.663  -8.857  57.111  1.00  0.00     0.221 C 
BRANCH   3   4
HETATM    4  C   UNL     1       4.933  -8.393  55.678  1.00  0.00     0.080 C 
BRANCH   4   5
HETATM    5  C   UNL     1       4.186  -7.125  55.342  1.00  0.00    -0.055 A 
HETATM    6  C   UNL     1       3.977  -6.178  56.332  1.00  0.00     0.007 A 
HETATM    7  C   UNL     1       3.287  -5.006  56.023  1.00  0.00     0.001 A 
HETATM    8  C   UNL     1       2.814  -4.797  54.727  1.00  0.00     0.000 A 
HETATM    9  C   UNL     1       3.032  -5.759  53.741  1.00  0.00     0.001 A 
HETATM   10  C   UNL     1       3.723  -6.931  54.051  1.00  0.00     0.007 A 
ENDBRANCH   4   5
ENDBRANCH   3   4
BRANCH   3  11
HETATM   11  C   UNL     1       3.775 -10.086  57.121  1.00  0.00     0.288 C 
HETATM   12  O   UNL     1       4.140 -11.206  57.454  1.00  0.00    -0.262 OA
BRANCH  11  13
HETATM   13  O   UNL     1       2.512  -9.741  56.731  1.00  0.00    -0.320 OA
BRANCH  13  14
HETATM   14  C   UNL     1       1.871 -10.657  55.837  1.00  0.00     0.174 C 
HETATM   15  C   UNL     1       2.176 -10.249  54.411  1.00  0.00     0.034 C 
ENDBRANCH  13  14
ENDBRANCH  11  13
ENDBRANCH   3  11
ENDBRANCH   1   3
TORSDOF 6
ENDMDL
