MODEL 1
REMARK VINA RESULT:     -23.1      0.000      0.000
REMARK  7 active torsions:
REMARK  status: ('A' for Active; 'I' for Inactive)
REMARK    1  A    between atoms: O_5  and  C_13 
REMARK    2  A    between atoms: O_5  and  C_14 
REMARK    3  A    between atoms: O_6  and  C_15 
REMARK    4  A    between atoms: O_6  and  C_22 
REMARK       I    between atoms: N_8  and  C_20 
REMARK    5  A    between atoms: N_8  and  C_21 
REMARK    6  A    between atoms: C_10  and  C_13 
REMARK    7  A    between atoms: C_17  and  C_20 
ROOT
ATOM      1 CL   UNL A   1     -49.304  46.897  14.496  1.00  0.00    -0.080 Cl
ATOM      2 CL   UNL A   1     -54.175  47.464  16.918  1.00  0.00    -0.080 Cl
ATOM      3  N   UNL A   1     -50.718  45.874  18.067  1.00  0.00    -0.270 NA
ATOM      4  C   UNL A   1     -51.702  47.133  15.792  1.00  0.00     0.081 A 
ATOM      5  C   UNL A   1     -50.390  46.700  15.818  1.00  0.00     0.080 A 
ATOM      6  C   UNL A   1     -52.532  46.948  16.883  1.00  0.00     0.080 A 
ATOM      7  C   UNL A   1     -49.948  46.078  16.974  1.00  0.00     0.142 A 
ATOM      8  C   UNL A   1     -51.994  46.316  17.992  1.00  0.00     0.142 A 
ENDROOT
BRANCH   4   9
ATOM      9  N   UNL A   1     -52.204  47.775  14.634  1.00  0.00    -0.320 N 
ATOM     10  C   UNL A   1     -52.707  49.078  14.506  1.00  0.00     0.256 C 
ATOM     11  O   UNL A   1     -52.792  49.903  15.430  1.00  0.00    -0.267 OA
ATOM     12  H   UNL A   1     -52.199  47.236  13.810  1.00  0.00     0.169 HD
BRANCH  10  13
ATOM     13  C   UNL A   1     -53.178  49.449  13.181  1.00  0.00     0.035 A 
ATOM     14  C   UNL A   1     -53.206  48.499  12.159  1.00  0.00     0.056 A 
ATOM     15  C   UNL A   1     -53.658  48.857  10.888  1.00  0.00     0.103 A 
ATOM     16  C   UNL A   1     -54.081  50.162  10.640  1.00  0.00     0.108 A 
ATOM     17  C   UNL A   1     -54.053  51.111  11.661  1.00  0.00     0.041 A 
ATOM     18  C   UNL A   1     -53.601  50.754  12.932  1.00  0.00     0.020 A 
BRANCH  15  19
ATOM     19  O   UNL A   1     -53.680  47.922   9.898  1.00  0.00    -0.348 OA
BRANCH  19  20
ATOM     20  C   UNL A   1     -52.466  47.219   9.643  1.00  0.00     0.180 C 
BRANCH  20  21
ATOM     21  C   UNL A   1     -52.177  47.239   8.181  1.00  0.00     0.010 A 
ATOM     22  C   UNL A   1     -53.241  47.703   7.236  1.00  0.00     0.007 A 
ATOM     23  C   UNL A   1     -52.034  48.557   7.487  1.00  0.00     0.007 A 
ENDBRANCH  20  21
ENDBRANCH  19  20
ENDBRANCH  15  19
BRANCH  16  24
ATOM     24  O   UNL A   1     -54.525  50.522   9.403  1.00  0.00    -0.287 OA
BRANCH  24  25
ATOM     25  C   UNL A   1     -54.104  51.784   8.900  1.00  0.00     0.505 C 
ATOM     26  F   UNL A   1     -53.721  52.541   9.960  1.00  0.00    -0.184 F 
ATOM     27  F   UNL A   1     -53.001  51.610   8.131  1.00  0.00    -0.184 F 
ENDBRANCH  24  25
ENDBRANCH  16  24
ENDBRANCH  10  13
ENDBRANCH   4   9
TORSDOF 7
ENDMDL
MODEL 2
REMARK VINA RESULT:     -22.9      0.138      1.780
REMARK  7 active torsions:
REMARK  status: ('A' for Active; 'I' for Inactive)
REMARK    1  A    between atoms: O_5  and  C_13 
REMARK    2  A    between atoms: O_5  and  C_14 
REMARK    3  A    between atoms: O_6  and  C_15 
REMARK    4  A    between atoms: O_6  and  C_22 
REMARK       I    between atoms: N_8  and  C_20 
REMARK    5  A    between atoms: N_8  and  C_21 
REMARK    6  A    between atoms: C_10  and  C_13 
REMARK    7  A    between atoms: C_17  and  C_20 
ROOT
ATOM      1 CL   UNL A   1     -54.327  47.492  16.821  1.00  0.00    -0.080 Cl
ATOM      2 CL   UNL A   1     -49.374  46.958  14.565  1.00  0.00    -0.080 Cl
ATOM      3  N   UNL A   1     -50.902  45.923  18.085  1.00  0.00    -0.270 NA
ATOM      4  C   UNL A   1     -51.816  47.178  15.780  1.00  0.00     0.081 A 
ATOM      5  C   UNL A   1     -52.681  46.988  16.841  1.00  0.00     0.080 A 
ATOM      6  C   UNL A   1     -50.502  46.753  15.850  1.00  0.00     0.080 A 
ATOM      7  C   UNL A   1     -52.177  46.357  17.968  1.00  0.00     0.142 A 
ATOM      8  C   UNL A   1     -50.096  46.132  17.020  1.00  0.00     0.142 A 
ENDROOT
BRANCH   4   9
ATOM      9  N   UNL A   1     -52.282  47.817  14.605  1.00  0.00    -0.320 N 
ATOM     10  C   UNL A   1     -52.816  49.105  14.464  1.00  0.00     0.256 C 
ATOM     11  O   UNL A   1     -52.969  49.919  15.391  1.00  0.00    -0.267 OA
ATOM     12  H   UNL A   1     -52.223  47.286  13.778  1.00  0.00     0.169 HD
BRANCH  10  13
ATOM     13  C   UNL A   1     -53.236  49.476  13.122  1.00  0.00     0.035 A 
ATOM     14  C   UNL A   1     -53.256  48.518  12.108  1.00  0.00     0.056 A 
ATOM     15  C   UNL A   1     -53.658  48.874  10.821  1.00  0.00     0.103 A 
ATOM     16  C   UNL A   1     -54.040  50.187  10.548  1.00  0.00     0.108 A 
ATOM     17  C   UNL A   1     -54.021  51.145  11.561  1.00  0.00     0.041 A 
ATOM     18  C   UNL A   1     -53.618  50.789  12.849  1.00  0.00     0.020 A 
BRANCH  15  19
ATOM     19  O   UNL A   1     -53.674  47.931   9.839  1.00  0.00    -0.348 OA
BRANCH  19  20
ATOM     20  C   UNL A   1     -52.489  47.155   9.666  1.00  0.00     0.180 C 
BRANCH  20  21
ATOM     21  C   UNL A   1     -52.092  47.164   8.230  1.00  0.00     0.010 A 
ATOM     22  C   UNL A   1     -53.135  47.433   7.189  1.00  0.00     0.007 A 
ATOM     23  C   UNL A   1     -52.085  48.463   7.486  1.00  0.00     0.007 A 
ENDBRANCH  20  21
ENDBRANCH  19  20
ENDBRANCH  15  19
BRANCH  16  24
ATOM     24  O   UNL A   1     -54.436  50.547   9.295  1.00  0.00    -0.287 OA
BRANCH  24  25
ATOM     25  C   UNL A   1     -54.008  51.814   8.813  1.00  0.00     0.505 C 
ATOM     26  F   UNL A   1     -53.647  52.561   9.889  1.00  0.00    -0.184 F 
ATOM     27  F   UNL A   1     -52.889  51.651   8.065  1.00  0.00    -0.184 F 
ENDBRANCH  24  25
ENDBRANCH  16  24
ENDBRANCH  10  13
ENDBRANCH   4   9
TORSDOF 7
ENDMDL
MODEL 3
REMARK VINA RESULT:     -21.9      4.374      6.575
REMARK  7 active torsions:
REMARK  status: ('A' for Active; 'I' for Inactive)
REMARK    1  A    between atoms: O_5  and  C_13 
REMARK    2  A    between atoms: O_5  and  C_14 
REMARK    3  A    between atoms: O_6  and  C_15 
REMARK    4  A    between atoms: O_6  and  C_22 
REMARK       I    between atoms: N_8  and  C_20 
REMARK    5  A    between atoms: N_8  and  C_21 
REMARK    6  A    between atoms: C_10  and  C_13 
REMARK    7  A    between atoms: C_17  and  C_20 
ROOT
ATOM      1 CL   UNL A   1     -52.556  46.994  13.077  1.00  0.00    -0.080 Cl
ATOM      2 CL   UNL A   1     -54.040  51.124   9.813  1.00  0.00    -0.080 Cl
ATOM      3  N   UNL A   1     -53.702  50.739  13.755  1.00  0.00    -0.270 NA
ATOM      4  C   UNL A   1     -53.313  49.120  11.529  1.00  0.00     0.081 A 
ATOM      5  C   UNL A   1     -53.082  48.609  12.792  1.00  0.00     0.080 A 
ATOM      6  C   UNL A   1     -53.735  50.425  11.358  1.00  0.00     0.080 A 
ATOM      7  C   UNL A   1     -53.291  49.455  13.869  1.00  0.00     0.142 A 
ATOM      8  C   UNL A   1     -53.914  51.191  12.498  1.00  0.00     0.142 A 
ENDROOT
BRANCH   4   9
ATOM      9  N   UNL A   1     -53.113  48.295  10.394  1.00  0.00    -0.320 N 
ATOM     10  C   UNL A   1     -54.072  47.774   9.515  1.00  0.00     0.256 C 
ATOM     11  O   UNL A   1     -55.297  47.964   9.601  1.00  0.00    -0.267 OA
ATOM     12  H   UNL A   1     -52.178  48.058  10.198  1.00  0.00     0.169 HD
BRANCH  10  13
ATOM     13  C   UNL A   1     -53.561  46.929   8.447  1.00  0.00     0.035 A 
ATOM     14  C   UNL A   1     -52.915  45.732   8.753  1.00  0.00     0.056 A 
ATOM     15  C   UNL A   1     -52.424  44.923   7.728  1.00  0.00     0.103 A 
ATOM     16  C   UNL A   1     -52.579  45.311   6.398  1.00  0.00     0.108 A 
ATOM     17  C   UNL A   1     -53.225  46.509   6.091  1.00  0.00     0.041 A 
ATOM     18  C   UNL A   1     -53.716  47.318   7.116  1.00  0.00     0.020 A 
BRANCH  15  19
ATOM     19  O   UNL A   1     -51.794  43.756   8.039  1.00  0.00    -0.348 OA
BRANCH  19  20
ATOM     20  C   UNL A   1     -52.616  42.606   8.229  1.00  0.00     0.180 C 
BRANCH  20  21
ATOM     21  C   UNL A   1     -52.069  41.466   7.440  1.00  0.00     0.010 A 
ATOM     22  C   UNL A   1     -50.608  41.442   7.116  1.00  0.00     0.007 A 
ATOM     23  C   UNL A   1     -51.172  40.478   8.118  1.00  0.00     0.007 A 
ENDBRANCH  20  21
ENDBRANCH  19  20
ENDBRANCH  15  19
BRANCH  16  24
ATOM     24  O   UNL A   1     -52.105  44.529   5.388  1.00  0.00    -0.287 OA
BRANCH  24  25
ATOM     25  C   UNL A   1     -52.123  45.075   4.075  1.00  0.00     0.505 C 
ATOM     26  F   UNL A   1     -51.110  44.498   3.377  1.00  0.00    -0.184 F 
ATOM     27  F   UNL A   1     -53.273  44.711   3.458  1.00  0.00    -0.184 F 
ENDBRANCH  24  25
ENDBRANCH  16  24
ENDBRANCH  10  13
ENDBRANCH   4   9
TORSDOF 7
ENDMDL
MODEL 4
REMARK VINA RESULT:     -21.9      4.367      6.579
REMARK  7 active torsions:
REMARK  status: ('A' for Active; 'I' for Inactive)
REMARK    1  A    between atoms: O_5  and  C_13 
REMARK    2  A    between atoms: O_5  and  C_14 
REMARK    3  A    between atoms: O_6  and  C_15 
REMARK    4  A    between atoms: O_6  and  C_22 
REMARK       I    between atoms: N_8  and  C_20 
REMARK    5  A    between atoms: N_8  and  C_21 
REMARK    6  A    between atoms: C_10  and  C_13 
REMARK    7  A    between atoms: C_17  and  C_20 
ROOT
ATOM      1 CL   UNL A   1     -54.000  51.146   9.856  1.00  0.00    -0.080 Cl
ATOM      2 CL   UNL A   1     -52.591  46.924  13.034  1.00  0.00    -0.080 Cl
ATOM      3  N   UNL A   1     -53.710  50.662  13.790  1.00  0.00    -0.270 NA
ATOM      4  C   UNL A   1     -53.311  49.094  11.530  1.00  0.00     0.081 A 
ATOM      5  C   UNL A   1     -53.719  50.407  11.385  1.00  0.00     0.080 A 
ATOM      6  C   UNL A   1     -53.098  48.550  12.783  1.00  0.00     0.080 A 
ATOM      7  C   UNL A   1     -53.903  51.147  12.542  1.00  0.00     0.142 A 
ATOM      8  C   UNL A   1     -53.311  49.373  13.878  1.00  0.00     0.142 A 
ENDROOT
BRANCH   4   9
ATOM      9  N   UNL A   1     -53.108  48.294  10.378  1.00  0.00    -0.320 N 
ATOM     10  C   UNL A   1     -54.067  47.743   9.517  1.00  0.00     0.256 C 
ATOM     11  O   UNL A   1     -55.296  47.878   9.640  1.00  0.00    -0.267 OA
ATOM     12  H   UNL A   1     -52.169  48.101  10.153  1.00  0.00     0.169 HD
BRANCH  10  13
ATOM     13  C   UNL A   1     -53.550  46.937   8.423  1.00  0.00     0.035 A 
ATOM     14  C   UNL A   1     -52.878  45.744   8.693  1.00  0.00     0.056 A 
ATOM     15  C   UNL A   1     -52.382  44.971   7.643  1.00  0.00     0.103 A 
ATOM     16  C   UNL A   1     -52.557  45.391   6.325  1.00  0.00     0.108 A 
ATOM     17  C   UNL A   1     -53.228  46.583   6.055  1.00  0.00     0.041 A 
ATOM     18  C   UNL A   1     -53.725  47.356   7.105  1.00  0.00     0.020 A 
BRANCH  15  19
ATOM     19  O   UNL A   1     -51.727  43.809   7.918  1.00  0.00    -0.348 OA
BRANCH  19  20
ATOM     20  C   UNL A   1     -52.522  42.699   8.330  1.00  0.00     0.180 C 
BRANCH  20  21
ATOM     21  C   UNL A   1     -52.088  41.476   7.599  1.00  0.00     0.010 A 
ATOM     22  C   UNL A   1     -50.636  41.298   7.279  1.00  0.00     0.007 A 
ATOM     23  C   UNL A   1     -51.285  40.442   8.326  1.00  0.00     0.007 A 
ENDBRANCH  20  21
ENDBRANCH  19  20
ENDBRANCH  15  19
BRANCH  16  24
ATOM     24  O   UNL A   1     -52.077  44.644   5.291  1.00  0.00    -0.287 OA
BRANCH  24  25
ATOM     25  C   UNL A   1     -52.272  45.149   3.975  1.00  0.00     0.505 C 
ATOM     26  F   UNL A   1     -51.355  44.552   3.168  1.00  0.00    -0.184 F 
ATOM     27  F   UNL A   1     -53.491  44.762   3.526  1.00  0.00    -0.184 F 
ENDBRANCH  24  25
ENDBRANCH  16  24
ENDBRANCH  10  13
ENDBRANCH   4   9
TORSDOF 7
ENDMDL
MODEL 5
REMARK VINA RESULT:     -21.4      4.390      6.795
REMARK  7 active torsions:
REMARK  status: ('A' for Active; 'I' for Inactive)
REMARK    1  A    between atoms: O_5  and  C_13 
REMARK    2  A    between atoms: O_5  and  C_14 
REMARK    3  A    between atoms: O_6  and  C_15 
REMARK    4  A    between atoms: O_6  and  C_22 
REMARK       I    between atoms: N_8  and  C_20 
REMARK    5  A    between atoms: N_8  and  C_21 
REMARK    6  A    between atoms: C_10  and  C_13 
REMARK    7  A    between atoms: C_17  and  C_20 
ROOT
ATOM      1 CL   UNL A   1     -52.322  42.183  11.513  1.00  0.00    -0.080 Cl
ATOM      2 CL   UNL A   1     -51.638  43.407   6.227  1.00  0.00    -0.080 Cl
ATOM      3  N   UNL A   1     -50.797  40.203   8.423  1.00  0.00    -0.270 NA
ATOM      4  C   UNL A   1     -51.937  42.701   8.854  1.00  0.00     0.081 A 
ATOM      5  C   UNL A   1     -51.808  41.819   9.911  1.00  0.00     0.080 A 
ATOM      6  C   UNL A   1     -51.507  42.357   7.586  1.00  0.00     0.080 A 
ATOM      7  C   UNL A   1     -51.233  40.587   9.645  1.00  0.00     0.142 A 
ATOM      8  C   UNL A   1     -50.946  41.101   7.424  1.00  0.00     0.142 A 
ENDROOT
BRANCH   4   9
ATOM      9  N   UNL A   1     -52.520  43.974   9.073  1.00  0.00    -0.320 N 
ATOM     10  C   UNL A   1     -53.869  44.293   9.279  1.00  0.00     0.256 C 
ATOM     11  O   UNL A   1     -54.801  43.472   9.301  1.00  0.00    -0.267 OA
ATOM     12  H   UNL A   1     -51.894  44.734   9.082  1.00  0.00     0.169 HD
BRANCH  10  13
ATOM     13  C   UNL A   1     -54.168  45.706   9.450  1.00  0.00     0.035 A 
ATOM     14  C   UNL A   1     -53.386  46.486  10.302  1.00  0.00     0.056 A 
ATOM     15  C   UNL A   1     -53.674  47.841  10.467  1.00  0.00     0.103 A 
ATOM     16  C   UNL A   1     -54.743  48.415   9.781  1.00  0.00     0.108 A 
ATOM     17  C   UNL A   1     -55.525  47.636   8.929  1.00  0.00     0.041 A 
ATOM     18  C   UNL A   1     -55.237  46.281   8.764  1.00  0.00     0.020 A 
BRANCH  15  19
ATOM     19  O   UNL A   1     -52.904  48.593  11.302  1.00  0.00    -0.348 OA
BRANCH  19  20
ATOM     20  C   UNL A   1     -52.903  48.234  12.682  1.00  0.00     0.180 C 
BRANCH  20  21
ATOM     21  C   UNL A   1     -53.705  49.223  13.455  1.00  0.00     0.010 A 
ATOM     22  C   UNL A   1     -53.024  50.056  14.497  1.00  0.00     0.007 A 
ATOM     23  C   UNL A   1     -53.485  50.684  13.215  1.00  0.00     0.007 A 
ENDBRANCH  20  21
ENDBRANCH  19  20
ENDBRANCH  15  19
BRANCH  16  24
ATOM     24  O   UNL A   1     -55.033  49.738   9.933  1.00  0.00    -0.287 OA
BRANCH  24  25
ATOM     25  C   UNL A   1     -54.289  50.664   9.151  1.00  0.00     0.505 C 
ATOM     26  F   UNL A   1     -53.671  51.519  10.008  1.00  0.00    -0.184 F 
ATOM     27  F   UNL A   1     -53.307  50.002   8.493  1.00  0.00    -0.184 F 
ENDBRANCH  24  25
ENDBRANCH  16  24
ENDBRANCH  10  13
ENDBRANCH   4   9
TORSDOF 7
ENDMDL
MODEL 6
REMARK VINA RESULT:     -21.2      4.199      7.466
REMARK  7 active torsions:
REMARK  status: ('A' for Active; 'I' for Inactive)
REMARK    1  A    between atoms: O_5  and  C_13 
REMARK    2  A    between atoms: O_5  and  C_14 
REMARK    3  A    between atoms: O_6  and  C_15 
REMARK    4  A    between atoms: O_6  and  C_22 
REMARK       I    between atoms: N_8  and  C_20 
REMARK    5  A    between atoms: N_8  and  C_21 
REMARK    6  A    between atoms: C_10  and  C_13 
REMARK    7  A    between atoms: C_17  and  C_20 
ROOT
ATOM      1 CL   UNL A   1     -51.219  42.840   9.133  1.00  0.00    -0.080 Cl
ATOM      2 CL   UNL A   1     -52.870  46.382   5.307  1.00  0.00    -0.080 Cl
ATOM      3  N   UNL A   1     -51.380  42.700   5.165  1.00  0.00    -0.270 NA
ATOM      4  C   UNL A   1     -52.020  44.541   7.146  1.00  0.00     0.081 A 
ATOM      5  C   UNL A   1     -51.500  43.311   7.501  1.00  0.00     0.080 A 
ATOM      6  C   UNL A   1     -52.226  44.869   5.818  1.00  0.00     0.080 A 
ATOM      7  C   UNL A   1     -51.197  42.428   6.477  1.00  0.00     0.142 A 
ATOM      8  C   UNL A   1     -51.891  43.917   4.869  1.00  0.00     0.142 A 
ENDROOT
BRANCH   4   9
ATOM      9  N   UNL A   1     -52.347  45.480   8.156  1.00  0.00    -0.320 N 
ATOM     10  C   UNL A   1     -53.615  45.900   8.580  1.00  0.00     0.256 C 
ATOM     11  O   UNL A   1     -54.693  45.495   8.114  1.00  0.00    -0.267 OA
ATOM     12  H   UNL A   1     -51.583  45.891   8.620  1.00  0.00     0.169 HD
BRANCH  10  13
ATOM     13  C   UNL A   1     -53.633  46.906   9.630  1.00  0.00     0.035 A 
ATOM     14  C   UNL A   1     -52.820  46.756  10.753  1.00  0.00     0.056 A 
ATOM     15  C   UNL A   1     -52.838  47.721  11.760  1.00  0.00     0.103 A 
ATOM     16  C   UNL A   1     -53.669  48.835  11.644  1.00  0.00     0.108 A 
ATOM     17  C   UNL A   1     -54.482  48.985  10.521  1.00  0.00     0.041 A 
ATOM     18  C   UNL A   1     -54.463  48.020   9.513  1.00  0.00     0.020 A 
BRANCH  15  19
ATOM     19  O   UNL A   1     -52.040  47.564  12.853  1.00  0.00    -0.348 OA
BRANCH  19  20
ATOM     20  C   UNL A   1     -52.518  46.705  13.886  1.00  0.00     0.180 C 
BRANCH  20  21
ATOM     21  C   UNL A   1     -52.169  47.281  15.215  1.00  0.00     0.010 A 
ATOM     22  C   UNL A   1     -52.319  48.755  15.430  1.00  0.00     0.007 A 
ATOM     23  C   UNL A   1     -53.265  47.798  16.094  1.00  0.00     0.007 A 
ENDBRANCH  20  21
ENDBRANCH  19  20
ENDBRANCH  15  19
BRANCH  16  24
ATOM     24  O   UNL A   1     -53.694  49.785  12.620  1.00  0.00    -0.287 OA
BRANCH  24  25
ATOM     25  C   UNL A   1     -53.941  51.127  12.220  1.00  0.00     0.505 C 
ATOM     26  F   UNL A   1     -53.281  51.940  13.085  1.00  0.00    -0.184 F 
ATOM     27  F   UNL A   1     -53.392  51.335  10.999  1.00  0.00    -0.184 F 
ENDBRANCH  24  25
ENDBRANCH  16  24
ENDBRANCH  10  13
ENDBRANCH   4   9
TORSDOF 7
ENDMDL
MODEL 7
REMARK VINA RESULT:     -21.0      3.502      4.678
REMARK  7 active torsions:
REMARK  status: ('A' for Active; 'I' for Inactive)
REMARK    1  A    between atoms: O_5  and  C_13 
REMARK    2  A    between atoms: O_5  and  C_14 
REMARK    3  A    between atoms: O_6  and  C_15 
REMARK    4  A    between atoms: O_6  and  C_22 
REMARK       I    between atoms: N_8  and  C_20 
REMARK    5  A    between atoms: N_8  and  C_21 
REMARK    6  A    between atoms: C_10  and  C_13 
REMARK    7  A    between atoms: C_17  and  C_20 
ROOT
ATOM      1 CL   UNL A   1     -51.359  43.912  15.250  1.00  0.00    -0.080 Cl
ATOM      2 CL   UNL A   1     -52.517  49.184  14.371  1.00  0.00    -0.080 Cl
ATOM      3  N   UNL A   1     -50.620  47.248  17.278  1.00  0.00    -0.270 NA
ATOM      4  C   UNL A   1     -51.890  46.573  14.900  1.00  0.00     0.081 A 
ATOM      5  C   UNL A   1     -51.324  45.580  15.677  1.00  0.00     0.080 A 
ATOM      6  C   UNL A   1     -51.834  47.898  15.291  1.00  0.00     0.080 A 
ATOM      7  C   UNL A   1     -50.703  45.967  16.853  1.00  0.00     0.142 A 
ATOM      8  C   UNL A   1     -51.189  48.183  16.484  1.00  0.00     0.142 A 
ENDROOT
BRANCH   4   9
ATOM      9  N   UNL A   1     -52.537  46.229  13.688  1.00  0.00    -0.320 N 
ATOM     10  C   UNL A   1     -51.970  46.034  12.420  1.00  0.00     0.256 C 
ATOM     11  O   UNL A   1     -50.761  46.138  12.157  1.00  0.00    -0.267 OA
ATOM     12  H   UNL A   1     -53.513  46.112  13.742  1.00  0.00     0.169 HD
BRANCH  10  13
ATOM     13  C   UNL A   1     -52.902  45.712  11.351  1.00  0.00     0.035 A 
ATOM     14  C   UNL A   1     -53.385  46.722  10.519  1.00  0.00     0.056 A 
ATOM     15  C   UNL A   1     -54.279  46.412   9.494  1.00  0.00     0.103 A 
ATOM     16  C   UNL A   1     -54.690  45.093   9.302  1.00  0.00     0.108 A 
ATOM     17  C   UNL A   1     -54.207  44.083  10.133  1.00  0.00     0.041 A 
ATOM     18  C   UNL A   1     -53.312  44.393  11.158  1.00  0.00     0.020 A 
BRANCH  15  19
ATOM     19  O   UNL A   1     -54.745  47.406   8.688  1.00  0.00    -0.348 OA
BRANCH  19  20
ATOM     20  C   UNL A   1     -54.000  48.622   8.661  1.00  0.00     0.180 C 
BRANCH  20  21
ATOM     21  C   UNL A   1     -54.626  49.611   9.583  1.00  0.00     0.010 A 
ATOM     22  C   UNL A   1     -53.865  50.060  10.792  1.00  0.00     0.007 A 
ATOM     23  C   UNL A   1     -54.073  51.000   9.642  1.00  0.00     0.007 A 
ENDBRANCH  20  21
ENDBRANCH  19  20
ENDBRANCH  15  19
BRANCH  16  24
ATOM     24  O   UNL A   1     -55.562  44.778   8.303  1.00  0.00    -0.287 OA
BRANCH  24  25
ATOM     25  C   UNL A   1     -56.573  43.822   8.596  1.00  0.00     0.505 C 
ATOM     26  F   UNL A   1     -57.522  44.445   9.343  1.00  0.00    -0.184 F 
ATOM     27  F   UNL A   1     -57.176  43.445   7.443  1.00  0.00    -0.184 F 
ENDBRANCH  24  25
ENDBRANCH  16  24
ENDBRANCH  10  13
ENDBRANCH   4   9
TORSDOF 7
ENDMDL
MODEL 8
REMARK VINA RESULT:     -20.9      4.212      7.475
REMARK  7 active torsions:
REMARK  status: ('A' for Active; 'I' for Inactive)
REMARK    1  A    between atoms: O_5  and  C_13 
REMARK    2  A    between atoms: O_5  and  C_14 
REMARK    3  A    between atoms: O_6  and  C_15 
REMARK    4  A    between atoms: O_6  and  C_22 
REMARK       I    between atoms: N_8  and  C_20 
REMARK    5  A    between atoms: N_8  and  C_21 
REMARK    6  A    between atoms: C_10  and  C_13 
REMARK    7  A    between atoms: C_17  and  C_20 
ROOT
ATOM      1 CL   UNL A   1     -52.920  46.283   5.228  1.00  0.00    -0.080 Cl
ATOM      2 CL   UNL A   1     -51.189  42.885   9.148  1.00  0.00    -0.080 Cl
ATOM      3  N   UNL A   1     -51.389  42.616   5.188  1.00  0.00    -0.270 NA
ATOM      4  C   UNL A   1     -52.031  44.513   7.115  1.00  0.00     0.081 A 
ATOM      5  C   UNL A   1     -52.254  44.795   5.781  1.00  0.00     0.080 A 
ATOM      6  C   UNL A   1     -51.493  43.300   7.504  1.00  0.00     0.080 A 
ATOM      7  C   UNL A   1     -51.918  43.816   4.859  1.00  0.00     0.142 A 
ATOM      8  C   UNL A   1     -51.190  42.389   6.505  1.00  0.00     0.142 A 
ENDROOT
BRANCH   4   9
ATOM      9  N   UNL A   1     -52.356  45.480   8.098  1.00  0.00    -0.320 N 
ATOM     10  C   UNL A   1     -53.609  45.769   8.656  1.00  0.00     0.256 C 
ATOM     11  O   UNL A   1     -54.671  45.196   8.361  1.00  0.00    -0.267 OA
ATOM     12  H   UNL A   1     -51.604  46.020   8.432  1.00  0.00     0.169 HD
BRANCH  10  13
ATOM     13  C   UNL A   1     -53.635  46.846   9.634  1.00  0.00     0.035 A 
ATOM     14  C   UNL A   1     -52.864  46.754  10.793  1.00  0.00     0.056 A 
ATOM     15  C   UNL A   1     -52.890  47.786  11.731  1.00  0.00     0.103 A 
ATOM     16  C   UNL A   1     -53.686  48.909  11.510  1.00  0.00     0.108 A 
ATOM     17  C   UNL A   1     -54.457  49.001  10.352  1.00  0.00     0.041 A 
ATOM     18  C   UNL A   1     -54.431  47.969   9.414  1.00  0.00     0.020 A 
BRANCH  15  19
ATOM     19  O   UNL A   1     -52.133  47.685  12.859  1.00  0.00    -0.348 OA
BRANCH  19  20
ATOM     20  C   UNL A   1     -52.539  46.721  13.828  1.00  0.00     0.180 C 
BRANCH  20  21
ATOM     21  C   UNL A   1     -52.092  47.155  15.181  1.00  0.00     0.010 A 
ATOM     22  C   UNL A   1     -52.426  48.537  15.649  1.00  0.00     0.007 A 
ATOM     23  C   UNL A   1     -53.114  47.351  16.256  1.00  0.00     0.007 A 
ENDBRANCH  20  21
ENDBRANCH  19  20
ENDBRANCH  15  19
BRANCH  16  24
ATOM     24  O   UNL A   1     -53.719  49.924  12.418  1.00  0.00    -0.287 OA
BRANCH  24  25
ATOM     25  C   UNL A   1     -53.989  51.232  11.927  1.00  0.00     0.505 C 
ATOM     26  F   UNL A   1     -53.241  52.104  12.653  1.00  0.00    -0.184 F 
ATOM     27  F   UNL A   1     -53.554  51.324  10.647  1.00  0.00    -0.184 F 
ENDBRANCH  24  25
ENDBRANCH  16  24
ENDBRANCH  10  13
ENDBRANCH   4   9
TORSDOF 7
ENDMDL
MODEL 9
REMARK VINA RESULT:     -20.5      4.567      8.100
REMARK  7 active torsions:
REMARK  status: ('A' for Active; 'I' for Inactive)
REMARK    1  A    between atoms: O_5  and  C_13 
REMARK    2  A    between atoms: O_5  and  C_14 
REMARK    3  A    between atoms: O_6  and  C_15 
REMARK    4  A    between atoms: O_6  and  C_22 
REMARK       I    between atoms: N_8  and  C_20 
REMARK    5  A    between atoms: N_8  and  C_21 
REMARK    6  A    between atoms: C_10  and  C_13 
REMARK    7  A    between atoms: C_17  and  C_20 
ROOT
ATOM      1 CL   UNL A   1     -53.100  46.540  10.707  1.00  0.00    -0.080 Cl
ATOM      2 CL   UNL A   1     -53.562  51.540  12.876  1.00  0.00    -0.080 Cl
ATOM      3  N   UNL A   1     -54.150  50.077   9.228  1.00  0.00    -0.270 NA
ATOM      4  C   UNL A   1     -53.360  49.077  11.699  1.00  0.00     0.081 A 
ATOM      5  C   UNL A   1     -53.453  48.223  10.616  1.00  0.00     0.080 A 
ATOM      6  C   UNL A   1     -53.655  50.422  11.569  1.00  0.00     0.080 A 
ATOM      7  C   UNL A   1     -53.850  48.770   9.406  1.00  0.00     0.142 A 
ATOM      8  C   UNL A   1     -54.044  50.871  10.317  1.00  0.00     0.142 A 
ENDROOT
BRANCH   4   9
ATOM      9  N   UNL A   1     -52.959  48.568  12.958  1.00  0.00    -0.320 N 
ATOM     10  C   UNL A   1     -53.312  49.023  14.236  1.00  0.00     0.256 C 
ATOM     11  O   UNL A   1     -54.065  49.984  14.469  1.00  0.00    -0.267 OA
ATOM     12  H   UNL A   1     -52.352  47.794  12.932  1.00  0.00     0.169 HD
BRANCH  10  13
ATOM     13  C   UNL A   1     -52.714  48.307  15.352  1.00  0.00     0.035 A 
ATOM     14  C   UNL A   1     -51.379  48.531  15.689  1.00  0.00     0.056 A 
ATOM     15  C   UNL A   1     -50.806  47.843  16.759  1.00  0.00     0.103 A 
ATOM     16  C   UNL A   1     -51.567  46.932  17.491  1.00  0.00     0.108 A 
ATOM     17  C   UNL A   1     -52.902  46.708  17.154  1.00  0.00     0.041 A 
ATOM     18  C   UNL A   1     -53.475  47.396  16.084  1.00  0.00     0.020 A 
BRANCH  15  19
ATOM     19  O   UNL A   1     -49.502  48.070  17.080  1.00  0.00    -0.348 OA
BRANCH  19  20
ATOM     20  C   UNL A   1     -48.515  47.460  16.249  1.00  0.00     0.180 C 
BRANCH  20  21
ATOM     21  C   UNL A   1     -47.201  48.127  16.466  1.00  0.00     0.010 A 
ATOM     22  C   UNL A   1     -45.944  47.381  16.140  1.00  0.00     0.007 A 
ATOM     23  C   UNL A   1     -46.384  48.527  15.277  1.00  0.00     0.007 A 
ENDBRANCH  20  21
ENDBRANCH  19  20
ENDBRANCH  15  19
BRANCH  16  24
ATOM     24  O   UNL A   1     -51.019  46.256  18.539  1.00  0.00    -0.287 OA
BRANCH  24  25
ATOM     25  C   UNL A   1     -51.557  44.975  18.843  1.00  0.00     0.505 C 
ATOM     26  F   UNL A   1     -50.555  44.226  19.374  1.00  0.00    -0.184 F 
ATOM     27  F   UNL A   1     -52.496  45.105  19.811  1.00  0.00    -0.184 F 
ENDBRANCH  24  25
ENDBRANCH  16  24
ENDBRANCH  10  13
ENDBRANCH   4   9
TORSDOF 7
ENDMDL
