MODEL 1
REMARK VINA RESULT:      -7.1      0.000      0.000
REMARK  4 active torsions:
REMARK  status: ('A' for Active; 'I' for Inactive)
REMARK    1  A    between atoms: O_1  and  C_5 
REMARK    2  A    between atoms: O_1  and  C_14 
REMARK    3  A    between atoms: O_2  and  C_18 
REMARK    4  A    between atoms: C_10  and  C_13 
ROOT
HETATM    1  O   UNL     1      12.308   7.144  11.026  1.00  0.00    -0.343 OA
ENDROOT
BRANCH   1   2
HETATM    2  C   UNL     1      12.624   8.106  12.023  1.00  0.00     0.129 C 
HETATM    3  C   UNL     1      11.562   8.076  13.112  1.00  0.00     0.032 C 
HETATM    4  C   UNL     1      10.399   8.880  12.533  1.00  0.00     0.002 C 
HETATM    5  C   UNL     1      10.996   9.781  11.452  1.00  0.00     0.002 C 
HETATM    6  C   UNL     1      12.499   9.513  11.461  1.00  0.00     0.032 C 
ENDBRANCH   1   2
BRANCH   1   7
HETATM    7  C   UNL     1      13.103   7.125   9.910  1.00  0.00     0.103 A 
HETATM    8  C   UNL     1      14.486   7.104  10.064  1.00  0.00     0.047 A 
HETATM    9  C   UNL     1      15.306   7.087   8.937  1.00  0.00    -0.049 A 
HETATM   10  C   UNL     1      14.741   7.091   7.662  1.00  0.00     0.010 A 
HETATM   11  C   UNL     1      13.354   7.111   7.515  1.00  0.00     0.040 A 
HETATM   12  C   UNL     1      12.533   7.130   8.642  1.00  0.00     0.101 A 
BRANCH   9  13
HETATM   13  C   UNL     1      16.811   7.064   9.096  1.00  0.00     0.045 C 
HETATM   14  C   UNL     1      17.620   7.060   7.798  1.00  0.00     0.132 C 
HETATM   15  N   UNL     1      18.890   6.516   8.186  1.00  0.00    -0.360 N 
HETATM   16  C   UNL     1      18.819   5.787   9.366  1.00  0.00     0.218 C 
HETATM   17  H   UNL     1      19.720   6.645   7.673  1.00  0.00     0.162 HD
HETATM   18  O   UNL     1      19.722   5.174   9.915  1.00  0.00    -0.274 OA
HETATM   19  C   UNL     1      17.387   5.841   9.836  1.00  0.00     0.113 C 
ENDBRANCH   9  13
BRANCH  12  20
HETATM   20  O   UNL     1      11.180   7.151   8.486  1.00  0.00    -0.353 OA
HETATM   21  C   UNL     1      10.642   6.401   7.398  1.00  0.00     0.210 C 
ENDBRANCH  12  20
ENDBRANCH   1   7
TORSDOF 4
ENDMDL
MODEL 2
REMARK VINA RESULT:      -7.0      2.784      6.417
REMARK  4 active torsions:
REMARK  status: ('A' for Active; 'I' for Inactive)
REMARK    1  A    between atoms: O_1  and  C_5 
REMARK    2  A    between atoms: O_1  and  C_14 
REMARK    3  A    between atoms: O_2  and  C_18 
REMARK    4  A    between atoms: C_10  and  C_13 
ROOT
HETATM    1  O   UNL     1      15.960   6.445  10.410  1.00  0.00    -0.343 OA
ENDROOT
BRANCH   1   2
HETATM    2  C   UNL     1      16.989   7.128   9.705  1.00  0.00     0.129 C 
HETATM    3  C   UNL     1      17.435   6.286   8.519  1.00  0.00     0.032 C 
HETATM    4  C   UNL     1      18.374   5.244   9.122  1.00  0.00     0.002 C 
HETATM    5  C   UNL     1      18.872   5.828  10.444  1.00  0.00     0.002 C 
HETATM    6  C   UNL     1      18.246   7.217  10.555  1.00  0.00     0.032 C 
ENDBRANCH   1   2
BRANCH   1   7
HETATM    7  C   UNL     1      14.734   7.054  10.458  1.00  0.00     0.103 A 
HETATM    8  C   UNL     1      13.831   6.844   9.421  1.00  0.00     0.047 A 
HETATM    9  C   UNL     1      12.581   7.459   9.457  1.00  0.00    -0.049 A 
HETATM   10  C   UNL     1      12.239   8.281  10.530  1.00  0.00     0.010 A 
HETATM   11  C   UNL     1      13.148   8.487  11.568  1.00  0.00     0.040 A 
HETATM   12  C   UNL     1      14.399   7.872  11.531  1.00  0.00     0.101 A 
BRANCH   9  13
HETATM   13  C   UNL     1      11.594   7.235   8.332  1.00  0.00     0.045 C 
HETATM   14  C   UNL     1      10.494   6.207   8.604  1.00  0.00     0.132 C 
HETATM   15  N   UNL     1      10.067   5.807   7.294  1.00  0.00    -0.360 N 
HETATM   16  C   UNL     1      11.019   6.073   6.318  1.00  0.00     0.218 C 
HETATM   17  H   UNL     1       9.195   5.389   7.107  1.00  0.00     0.162 HD
HETATM   18  O   UNL     1      10.957   5.805   5.128  1.00  0.00    -0.274 OA
HETATM   19  C   UNL     1      12.193   6.719   7.009  1.00  0.00     0.113 C 
ENDBRANCH   9  13
BRANCH  12  20
HETATM   20  O   UNL     1      15.279   8.082  12.550  1.00  0.00    -0.353 OA
HETATM   21  C   UNL     1      14.852   7.717  13.861  1.00  0.00     0.210 C 
ENDBRANCH  12  20
ENDBRANCH   1   7
TORSDOF 4
ENDMDL
MODEL 3
REMARK VINA RESULT:      -6.8      3.059      5.980
REMARK  4 active torsions:
REMARK  status: ('A' for Active; 'I' for Inactive)
REMARK    1  A    between atoms: O_1  and  C_5 
REMARK    2  A    between atoms: O_1  and  C_14 
REMARK    3  A    between atoms: O_2  and  C_18 
REMARK    4  A    between atoms: C_10  and  C_13 
ROOT
HETATM    1  O   UNL     1      14.288   8.613  10.626  1.00  0.00    -0.343 OA
ENDROOT
BRANCH   1   2
HETATM    2  C   UNL     1      14.897   7.446  11.163  1.00  0.00     0.129 C 
HETATM    3  C   UNL     1      16.034   7.849  12.090  1.00  0.00     0.032 C 
HETATM    4  C   UNL     1      17.196   8.172  11.153  1.00  0.00     0.002 C 
HETATM    5  C   UNL     1      16.908   7.438   9.844  1.00  0.00     0.002 C 
HETATM    6  C   UNL     1      15.608   6.667  10.067  1.00  0.00     0.032 C 
ENDBRANCH   1   2
BRANCH   1   7
HETATM    7  C   UNL     1      12.931   8.571  10.439  1.00  0.00     0.103 A 
HETATM    8  C   UNL     1      12.418   7.867   9.355  1.00  0.00     0.047 A 
HETATM    9  C   UNL     1      11.040   7.818   9.153  1.00  0.00    -0.049 A 
HETATM   10  C   UNL     1      10.181   8.473  10.034  1.00  0.00     0.010 A 
HETATM   11  C   UNL     1      10.702   9.177  11.120  1.00  0.00     0.040 A 
HETATM   12  C   UNL     1      12.081   9.227  11.322  1.00  0.00     0.101 A 
BRANCH   9  13
HETATM   13  C   UNL     1      10.474   7.053   7.976  1.00  0.00     0.045 C 
HETATM   14  C   UNL     1      10.105   5.592   8.244  1.00  0.00     0.132 C 
HETATM   15  N   UNL     1      10.119   4.990   6.942  1.00  0.00    -0.360 N 
HETATM   16  C   UNL     1      10.866   5.718   6.025  1.00  0.00     0.218 C 
HETATM   17  H   UNL     1       9.652   4.152   6.722  1.00  0.00     0.162 HD
HETATM   18  O   UNL     1      11.096   5.433   4.860  1.00  0.00    -0.274 OA
HETATM   19  C   UNL     1      11.401   6.928   6.751  1.00  0.00     0.113 C 
ENDBRANCH   9  13
BRANCH  12  20
HETATM   20  O   UNL     1      12.578   9.920  12.385  1.00  0.00    -0.353 OA
HETATM   21  C   UNL     1      12.108  11.255  12.565  1.00  0.00     0.210 C 
ENDBRANCH  12  20
ENDBRANCH   1   7
TORSDOF 4
ENDMDL
MODEL 4
REMARK VINA RESULT:      -6.7      3.003      5.507
REMARK  4 active torsions:
REMARK  status: ('A' for Active; 'I' for Inactive)
REMARK    1  A    between atoms: O_1  and  C_5 
REMARK    2  A    between atoms: O_1  and  C_14 
REMARK    3  A    between atoms: O_2  and  C_18 
REMARK    4  A    between atoms: C_10  and  C_13 
ROOT
HETATM    1  O   UNL     1      14.273   6.300  12.582  1.00  0.00    -0.343 OA
ENDROOT
BRANCH   1   2
HETATM    2  C   UNL     1      13.949   7.399  13.423  1.00  0.00     0.129 C 
HETATM    3  C   UNL     1      15.037   7.571  14.473  1.00  0.00     0.032 C 
HETATM    4  C   UNL     1      14.720   6.513  15.529  1.00  0.00     0.002 C 
HETATM    5  C   UNL     1      13.237   6.180  15.369  1.00  0.00     0.002 C 
HETATM    6  C   UNL     1      12.716   7.085  14.256  1.00  0.00     0.032 C 
ENDBRANCH   1   2
BRANCH   1   7
HETATM    7  C   UNL     1      14.427   6.567  11.247  1.00  0.00     0.103 A 
HETATM    8  C   UNL     1      13.298   6.675  10.442  1.00  0.00     0.047 A 
HETATM    9  C   UNL     1      13.442   6.945   9.082  1.00  0.00    -0.049 A 
HETATM   10  C   UNL     1      14.714   7.107   8.533  1.00  0.00     0.010 A 
HETATM   11  C   UNL     1      15.842   6.999   9.347  1.00  0.00     0.040 A 
HETATM   12  C   UNL     1      15.698   6.728  10.707  1.00  0.00     0.101 A 
BRANCH   9  13
HETATM   13  C   UNL     1      12.218   7.064   8.200  1.00  0.00     0.045 C 
HETATM   14  C   UNL     1      10.962   6.351   8.703  1.00  0.00     0.132 C 
HETATM   15  N   UNL     1      10.175   6.163   7.517  1.00  0.00    -0.360 N 
HETATM   16  C   UNL     1      10.936   6.228   6.357  1.00  0.00     0.218 C 
HETATM   17  H   UNL     1       9.204   6.005   7.525  1.00  0.00     0.162 HD
HETATM   18  O   UNL     1      10.555   6.063   5.209  1.00  0.00    -0.274 OA
HETATM   19  C   UNL     1      12.361   6.493   6.776  1.00  0.00     0.113 C 
ENDBRANCH   9  13
BRANCH  12  20
HETATM   20  O   UNL     1      16.808   6.623  11.490  1.00  0.00    -0.353 OA
HETATM   21  C   UNL     1      17.741   7.700  11.439  1.00  0.00     0.210 C 
ENDBRANCH  12  20
ENDBRANCH   1   7
TORSDOF 4
ENDMDL
MODEL 5
REMARK VINA RESULT:      -6.4      3.759      5.922
REMARK  4 active torsions:
REMARK  status: ('A' for Active; 'I' for Inactive)
REMARK    1  A    between atoms: O_1  and  C_5 
REMARK    2  A    between atoms: O_1  and  C_14 
REMARK    3  A    between atoms: O_2  and  C_18 
REMARK    4  A    between atoms: C_10  and  C_13 
ROOT
HETATM    1  O   UNL     1      16.019   8.400  13.857  1.00  0.00    -0.343 OA
ENDROOT
BRANCH   1   2
HETATM    2  C   UNL     1      17.285   7.802  14.101  1.00  0.00     0.129 C 
HETATM    3  C   UNL     1      17.766   8.184  15.492  1.00  0.00     0.032 C 
HETATM    4  C   UNL     1      18.329   9.594  15.329  1.00  0.00     0.002 C 
HETATM    5  C   UNL     1      18.671   9.751  13.848  1.00  0.00     0.002 C 
HETATM    6  C   UNL     1      18.343   8.410  13.193  1.00  0.00     0.032 C 
ENDBRANCH   1   2
BRANCH   1   7
HETATM    7  C   UNL     1      15.101   7.647  13.173  1.00  0.00     0.103 A 
HETATM    8  C   UNL     1      15.047   7.738  11.786  1.00  0.00     0.047 A 
HETATM    9  C   UNL     1      14.117   6.978  11.079  1.00  0.00    -0.049 A 
HETATM   10  C   UNL     1      13.245   6.130  11.761  1.00  0.00     0.010 A 
HETATM   11  C   UNL     1      13.305   6.042  13.152  1.00  0.00     0.040 A 
HETATM   12  C   UNL     1      14.235   6.803  13.860  1.00  0.00     0.101 A 
BRANCH   9  13
HETATM   13  C   UNL     1      14.053   7.073   9.569  1.00  0.00     0.045 C 
HETATM   14  C   UNL     1      14.393   8.439   8.972  1.00  0.00     0.132 C 
HETATM   15  N   UNL     1      13.766   8.414   7.680  1.00  0.00    -0.360 N 
HETATM   16  C   UNL     1      12.751   7.470   7.598  1.00  0.00     0.218 C 
HETATM   17  H   UNL     1      14.027   9.001   6.935  1.00  0.00     0.162 HD
HETATM   18  O   UNL     1      12.016   7.251   6.648  1.00  0.00    -0.274 OA
HETATM   19  C   UNL     1      12.678   6.780   8.938  1.00  0.00     0.113 C 
ENDBRANCH   9  13
BRANCH  12  20
HETATM   20  O   UNL     1      14.282   6.710  15.218  1.00  0.00    -0.353 OA
HETATM   21  C   UNL     1      13.040   6.545  15.899  1.00  0.00     0.210 C 
ENDBRANCH  12  20
ENDBRANCH   1   7
TORSDOF 4
ENDMDL
MODEL 6
REMARK VINA RESULT:      -6.4      1.695      1.999
REMARK  4 active torsions:
REMARK  status: ('A' for Active; 'I' for Inactive)
REMARK    1  A    between atoms: O_1  and  C_5 
REMARK    2  A    between atoms: O_1  and  C_14 
REMARK    3  A    between atoms: O_2  and  C_18 
REMARK    4  A    between atoms: C_10  and  C_13 
ROOT
HETATM    1  O   UNL     1      13.315   9.165  10.083  1.00  0.00    -0.343 OA
ENDROOT
BRANCH   1   2
HETATM    2  C   UNL     1      12.773   8.657  11.295  1.00  0.00     0.129 C 
HETATM    3  C   UNL     1      11.491   7.895  10.996  1.00  0.00     0.032 C 
HETATM    4  C   UNL     1      10.429   8.982  10.835  1.00  0.00     0.002 C 
HETATM    5  C   UNL     1      10.960  10.212  11.571  1.00  0.00     0.002 C 
HETATM    6  C   UNL     1      12.297   9.796  12.182  1.00  0.00     0.032 C 
ENDBRANCH   1   2
BRANCH   1   7
HETATM    7  C   UNL     1      14.260   8.395   9.458  1.00  0.00     0.103 A 
HETATM    8  C   UNL     1      15.418   8.049  10.147  1.00  0.00     0.047 A 
HETATM    9  C   UNL     1      16.388   7.267   9.522  1.00  0.00    -0.049 A 
HETATM   10  C   UNL     1      16.196   6.834   8.210  1.00  0.00     0.010 A 
HETATM   11  C   UNL     1      15.033   7.184   7.524  1.00  0.00     0.040 A 
HETATM   12  C   UNL     1      14.063   7.967   8.149  1.00  0.00     0.101 A 
BRANCH   9  13
HETATM   13  C   UNL     1      17.649   6.887  10.267  1.00  0.00     0.045 C 
HETATM   14  C   UNL     1      18.037   7.799  11.432  1.00  0.00     0.132 C 
HETATM   15  N   UNL     1      19.443   7.566  11.597  1.00  0.00    -0.360 N 
HETATM   16  C   UNL     1      20.032   7.031  10.459  1.00  0.00     0.218 C 
HETATM   17  H   UNL     1      19.936   7.764  12.426  1.00  0.00     0.162 HD
HETATM   18  O   UNL     1      21.213   6.771  10.287  1.00  0.00    -0.274 OA
HETATM   19  C   UNL     1      18.942   6.871   9.429  1.00  0.00     0.113 C 
ENDBRANCH   9  13
BRANCH  12  20
HETATM   20  O   UNL     1      12.932   8.303   7.468  1.00  0.00    -0.353 OA
HETATM   21  C   UNL     1      11.935   7.292   7.328  1.00  0.00     0.210 C 
ENDBRANCH  12  20
ENDBRANCH   1   7
TORSDOF 4
ENDMDL
MODEL 7
REMARK VINA RESULT:      -6.3      3.600      5.712
REMARK  4 active torsions:
REMARK  status: ('A' for Active; 'I' for Inactive)
REMARK    1  A    between atoms: O_1  and  C_5 
REMARK    2  A    between atoms: O_1  and  C_14 
REMARK    3  A    between atoms: O_2  and  C_18 
REMARK    4  A    between atoms: C_10  and  C_13 
ROOT
HETATM    1  O   UNL     1      13.373   6.490   9.569  1.00  0.00    -0.343 OA
ENDROOT
BRANCH   1   2
HETATM    2  C   UNL     1      12.537   7.572   9.180  1.00  0.00     0.129 C 
HETATM    3  C   UNL     1      11.082   7.197   9.413  1.00  0.00     0.032 C 
HETATM    4  C   UNL     1      10.715   6.324   8.214  1.00  0.00     0.002 C 
HETATM    5  C   UNL     1      11.710   6.675   7.108  1.00  0.00     0.002 C 
HETATM    6  C   UNL     1      12.602   7.778   7.675  1.00  0.00     0.032 C 
ENDBRANCH   1   2
BRANCH   1   7
HETATM    7  C   UNL     1      14.287   6.740  10.558  1.00  0.00     0.103 A 
HETATM    8  C   UNL     1      13.923   6.535  11.885  1.00  0.00     0.047 A 
HETATM    9  C   UNL     1      14.844   6.787  12.901  1.00  0.00    -0.049 A 
HETATM   10  C   UNL     1      16.124   7.243  12.587  1.00  0.00     0.010 A 
HETATM   11  C   UNL     1      16.483   7.446  11.254  1.00  0.00     0.040 A 
HETATM   12  C   UNL     1      15.562   7.195  10.237  1.00  0.00     0.101 A 
BRANCH   9  13
HETATM   13  C   UNL     1      14.454   6.566  14.347  1.00  0.00     0.045 C 
HETATM   14  C   UNL     1      13.008   6.907  14.708  1.00  0.00     0.132 C 
HETATM   15  N   UNL     1      13.050   7.123  16.127  1.00  0.00    -0.360 N 
HETATM   16  C   UNL     1      14.328   7.414  16.584  1.00  0.00     0.218 C 
HETATM   17  H   UNL     1      12.259   7.072  16.711  1.00  0.00     0.162 HD
HETATM   18  O   UNL     1      14.664   7.686  17.726  1.00  0.00    -0.274 OA
HETATM   19  C   UNL     1      15.245   7.385  15.386  1.00  0.00     0.113 C 
ENDBRANCH   9  13
BRANCH  12  20
HETATM   20  O   UNL     1      15.924   7.399   8.940  1.00  0.00    -0.353 OA
HETATM   21  C   UNL     1      17.035   6.649   8.452  1.00  0.00     0.210 C 
ENDBRANCH  12  20
ENDBRANCH   1   7
TORSDOF 4
ENDMDL
MODEL 8
REMARK VINA RESULT:      -6.3      3.072      6.087
REMARK  4 active torsions:
REMARK  status: ('A' for Active; 'I' for Inactive)
REMARK    1  A    between atoms: O_1  and  C_5 
REMARK    2  A    between atoms: O_1  and  C_14 
REMARK    3  A    between atoms: O_2  and  C_18 
REMARK    4  A    between atoms: C_10  and  C_13 
ROOT
HETATM    1  O   UNL     1      16.590   6.463  11.759  1.00  0.00    -0.343 OA
ENDROOT
BRANCH   1   2
HETATM    2  C   UNL     1      16.462   7.531  12.689  1.00  0.00     0.129 C 
HETATM    3  C   UNL     1      17.728   8.373  12.670  1.00  0.00     0.032 C 
HETATM    4  C   UNL     1      18.723   7.588  13.522  1.00  0.00     0.002 C 
HETATM    5  C   UNL     1      17.890   6.681  14.427  1.00  0.00     0.002 C 
HETATM    6  C   UNL     1      16.429   6.994  14.111  1.00  0.00     0.032 C 
ENDBRANCH   1   2
BRANCH   1   7
HETATM    7  C   UNL     1      16.134   6.693  10.488  1.00  0.00     0.103 A 
HETATM    8  C   UNL     1      14.771   6.883  10.280  1.00  0.00     0.047 A 
HETATM    9  C   UNL     1      14.294   7.117   8.991  1.00  0.00    -0.049 A 
HETATM   10  C   UNL     1      15.181   7.159   7.915  1.00  0.00     0.010 A 
HETATM   11  C   UNL     1      16.546   6.968   8.130  1.00  0.00     0.040 A 
HETATM   12  C   UNL     1      17.023   6.733   9.420  1.00  0.00     0.101 A 
BRANCH   9  13
HETATM   13  C   UNL     1      12.814   7.325   8.758  1.00  0.00     0.045 C 
HETATM   14  C   UNL     1      11.877   6.543   9.681  1.00  0.00     0.132 C 
HETATM   15  N   UNL     1      10.643   6.488   8.950  1.00  0.00    -0.360 N 
HETATM   16  C   UNL     1      10.819   6.698   7.588  1.00  0.00     0.218 C 
HETATM   17  H   UNL     1       9.767   6.319   9.367  1.00  0.00     0.162 HD
HETATM   18  O   UNL     1       9.966   6.665   6.715  1.00  0.00    -0.274 OA
HETATM   19  C   UNL     1      12.293   6.928   7.363  1.00  0.00     0.113 C 
ENDBRANCH   9  13
BRANCH  12  20
HETATM   20  O   UNL     1      18.359   6.547   9.617  1.00  0.00    -0.353 OA
HETATM   21  C   UNL     1      19.219   6.803   8.508  1.00  0.00     0.210 C 
ENDBRANCH  12  20
ENDBRANCH   1   7
TORSDOF 4
ENDMDL
MODEL 9
REMARK VINA RESULT:      -6.3      1.222      3.379
REMARK  4 active torsions:
REMARK  status: ('A' for Active; 'I' for Inactive)
REMARK    1  A    between atoms: O_1  and  C_5 
REMARK    2  A    between atoms: O_1  and  C_14 
REMARK    3  A    between atoms: O_2  and  C_18 
REMARK    4  A    between atoms: C_10  and  C_13 
ROOT
HETATM    1  O   UNL     1      12.561   6.432   9.617  1.00  0.00    -0.343 OA
ENDROOT
BRANCH   1   2
HETATM    2  C   UNL     1      11.812   7.435   8.941  1.00  0.00     0.129 C 
HETATM    3  C   UNL     1      10.366   6.984   8.808  1.00  0.00     0.032 C 
HETATM    4  C   UNL     1      10.374   6.020   7.623  1.00  0.00     0.002 C 
HETATM    5  C   UNL     1      11.613   6.366   6.797  1.00  0.00     0.002 C 
HETATM    6  C   UNL     1      12.270   7.554   7.496  1.00  0.00     0.032 C 
ENDBRANCH   1   2
BRANCH   1   7
HETATM    7  C   UNL     1      13.679   6.846  10.292  1.00  0.00     0.103 A 
HETATM    8  C   UNL     1      14.901   6.875   9.628  1.00  0.00     0.047 A 
HETATM    9  C   UNL     1      16.046   7.292  10.304  1.00  0.00    -0.049 A 
HETATM   10  C   UNL     1      15.965   7.678  11.642  1.00  0.00     0.010 A 
HETATM   11  C   UNL     1      14.737   7.647  12.302  1.00  0.00     0.040 A 
HETATM   12  C   UNL     1      13.591   7.229  11.626  1.00  0.00     0.101 A 
BRANCH   9  13
HETATM   13  C   UNL     1      17.378   7.327   9.587  1.00  0.00     0.045 C 
HETATM   14  C   UNL     1      17.333   7.050   8.083  1.00  0.00     0.132 C 
HETATM   15  N   UNL     1      18.668   6.624   7.772  1.00  0.00    -0.360 N 
HETATM   16  C   UNL     1      19.356   6.170   8.890  1.00  0.00     0.218 C 
HETATM   17  H   UNL     1      19.054   6.650   6.867  1.00  0.00     0.162 HD
HETATM   18  O   UNL     1      20.485   5.706   8.929  1.00  0.00    -0.274 OA
HETATM   19  C   UNL     1      18.425   6.304  10.069  1.00  0.00     0.113 C 
ENDBRANCH   9  13
BRANCH  12  20
HETATM   20  O   UNL     1      12.398   7.201  12.283  1.00  0.00    -0.353 OA
HETATM   21  C   UNL     1      11.747   8.453  12.497  1.00  0.00     0.210 C 
ENDBRANCH  12  20
ENDBRANCH   1   7
TORSDOF 4
ENDMDL
