MODEL 1
REMARK VINA RESULT:      -7.1      0.000      0.000
REMARK  4 active torsions:
REMARK  status: ('A' for Active; 'I' for Inactive)
REMARK    1  A    between atoms: O_1  and  C_5 
REMARK    2  A    between atoms: O_1  and  C_14 
REMARK    3  A    between atoms: O_2  and  C_18 
REMARK    4  A    between atoms: C_10  and  C_13 
ROOT
HETATM    1  O   UNL     1      12.247   7.133  11.064  1.00  0.00    -0.343 OA
ENDROOT
BRANCH   1   2
HETATM    2  C   UNL     1      12.575   8.090  12.062  1.00  0.00     0.129 C 
HETATM    3  C   UNL     1      11.500   8.091  13.138  1.00  0.00     0.032 C 
HETATM    4  C   UNL     1      10.364   8.921  12.542  1.00  0.00     0.002 C 
HETATM    5  C   UNL     1      10.997   9.803  11.466  1.00  0.00     0.002 C 
HETATM    6  C   UNL     1      12.493   9.498  11.494  1.00  0.00     0.032 C 
ENDBRANCH   1   2
BRANCH   1   7
HETATM    7  C   UNL     1      13.028   7.120   9.938  1.00  0.00     0.103 A 
HETATM    8  C   UNL     1      14.412   7.102  10.074  1.00  0.00     0.047 A 
HETATM    9  C   UNL     1      15.218   7.091   8.937  1.00  0.00    -0.049 A 
HETATM   10  C   UNL     1      14.637   7.098   7.669  1.00  0.00     0.010 A 
HETATM   11  C   UNL     1      13.248   7.115   7.540  1.00  0.00     0.040 A 
HETATM   12  C   UNL     1      12.441   7.128   8.677  1.00  0.00     0.101 A 
BRANCH   9  13
HETATM   13  C   UNL     1      16.725   7.071   9.077  1.00  0.00     0.045 C 
HETATM   14  C   UNL     1      17.517   7.090   7.769  1.00  0.00     0.132 C 
HETATM   15  N   UNL     1      18.794   6.545   8.133  1.00  0.00    -0.360 N 
HETATM   16  C   UNL     1      18.741   5.797   9.302  1.00  0.00     0.218 C 
HETATM   17  H   UNL     1      19.617   6.685   7.611  1.00  0.00     0.162 HD
HETATM   18  O   UNL     1      19.652   5.179   9.830  1.00  0.00    -0.274 OA
HETATM   19  C   UNL     1      17.314   5.838   9.790  1.00  0.00     0.113 C 
ENDBRANCH   9  13
BRANCH  12  20
HETATM   20  O   UNL     1      11.086   7.146   8.538  1.00  0.00    -0.353 OA
HETATM   21  C   UNL     1      10.533   6.364   7.481  1.00  0.00     0.210 C 
ENDBRANCH  12  20
ENDBRANCH   1   7
TORSDOF 4
ENDMDL
MODEL 2
REMARK VINA RESULT:      -7.0      2.765      6.380
REMARK  4 active torsions:
REMARK  status: ('A' for Active; 'I' for Inactive)
REMARK    1  A    between atoms: O_1  and  C_5 
REMARK    2  A    between atoms: O_1  and  C_14 
REMARK    3  A    between atoms: O_2  and  C_18 
REMARK    4  A    between atoms: C_10  and  C_13 
ROOT
HETATM    1  O   UNL     1      15.917   6.512  10.413  1.00  0.00    -0.343 OA
ENDROOT
BRANCH   1   2
HETATM    2  C   UNL     1      16.926   7.219   9.704  1.00  0.00     0.129 C 
HETATM    3  C   UNL     1      17.345   6.415   8.482  1.00  0.00     0.032 C 
HETATM    4  C   UNL     1      18.301   5.357   9.030  1.00  0.00     0.002 C 
HETATM    5  C   UNL     1      18.829   5.902  10.356  1.00  0.00     0.002 C 
HETATM    6  C   UNL     1      18.204   7.285  10.525  1.00  0.00     0.032 C 
ENDBRANCH   1   2
BRANCH   1   7
HETATM    7  C   UNL     1      14.677   7.091  10.464  1.00  0.00     0.103 A 
HETATM    8  C   UNL     1      13.783   6.871   9.420  1.00  0.00     0.047 A 
HETATM    9  C   UNL     1      12.518   7.456   9.459  1.00  0.00    -0.049 A 
HETATM   10  C   UNL     1      12.152   8.258  10.540  1.00  0.00     0.010 A 
HETATM   11  C   UNL     1      13.052   8.473  11.583  1.00  0.00     0.040 A 
HETATM   12  C   UNL     1      14.319   7.889  11.544  1.00  0.00     0.101 A 
BRANCH   9  13
HETATM   13  C   UNL     1      11.540   7.221   8.328  1.00  0.00     0.045 C 
HETATM   14  C   UNL     1      10.461   6.168   8.586  1.00  0.00     0.132 C 
HETATM   15  N   UNL     1      10.048   5.769   7.271  1.00  0.00    -0.360 N 
HETATM   16  C   UNL     1      10.998   6.064   6.302  1.00  0.00     0.218 C 
HETATM   17  H   UNL     1       9.186   5.335   7.077  1.00  0.00     0.162 HD
HETATM   18  O   UNL     1      10.946   5.805   5.109  1.00  0.00    -0.274 OA
HETATM   19  C   UNL     1      12.156   6.729   7.003  1.00  0.00     0.113 C 
ENDBRANCH   9  13
BRANCH  12  20
HETATM   20  O   UNL     1      15.190   8.109  12.568  1.00  0.00    -0.353 OA
HETATM   21  C   UNL     1      14.857   7.542  13.834  1.00  0.00     0.210 C 
ENDBRANCH  12  20
ENDBRANCH   1   7
TORSDOF 4
ENDMDL
MODEL 3
REMARK VINA RESULT:      -6.9      2.975      5.691
REMARK  4 active torsions:
REMARK  status: ('A' for Active; 'I' for Inactive)
REMARK    1  A    between atoms: O_1  and  C_5 
REMARK    2  A    between atoms: O_1  and  C_14 
REMARK    3  A    between atoms: O_2  and  C_18 
REMARK    4  A    between atoms: C_10  and  C_13 
ROOT
HETATM    1  O   UNL     1      14.148   6.629   8.143  1.00  0.00    -0.343 OA
ENDROOT
BRANCH   1   2
HETATM    2  C   UNL     1      14.927   7.819   8.136  1.00  0.00     0.129 C 
HETATM    3  C   UNL     1      16.138   7.625   7.236  1.00  0.00     0.032 C 
HETATM    4  C   UNL     1      17.128   6.838   8.093  1.00  0.00     0.002 C 
HETATM    5  C   UNL     1      16.731   7.089   9.547  1.00  0.00     0.002 C 
HETATM    6  C   UNL     1      15.548   8.054   9.503  1.00  0.00     0.032 C 
ENDBRANCH   1   2
BRANCH   1   7
HETATM    7  C   UNL     1      12.921   6.698   8.750  1.00  0.00     0.103 A 
HETATM    8  C   UNL     1      12.848   6.652  10.139  1.00  0.00     0.047 A 
HETATM    9  C   UNL     1      11.606   6.719  10.768  1.00  0.00    -0.049 A 
HETATM   10  C   UNL     1      10.443   6.832  10.007  1.00  0.00     0.010 A 
HETATM   11  C   UNL     1      10.523   6.878   8.616  1.00  0.00     0.040 A 
HETATM   12  C   UNL     1      11.766   6.810   7.985  1.00  0.00     0.101 A 
BRANCH   9  13
HETATM   13  C   UNL     1      11.520   6.671  12.279  1.00  0.00     0.045 C 
HETATM   14  C   UNL     1      11.083   7.967  12.964  1.00  0.00     0.132 C 
HETATM   15  N   UNL     1      11.581   7.831  14.303  1.00  0.00    -0.360 N 
HETATM   16  C   UNL     1      12.611   6.904  14.398  1.00  0.00     0.218 C 
HETATM   17  H   UNL     1      11.232   8.339  15.070  1.00  0.00     0.162 HD
HETATM   18  O   UNL     1      13.256   6.611  15.392  1.00  0.00    -0.274 OA
HETATM   19  C   UNL     1      12.835   6.347  13.014  1.00  0.00     0.113 C 
ENDBRANCH   9  13
BRANCH  12  20
HETATM   20  O   UNL     1      11.830   6.854   6.625  1.00  0.00    -0.353 OA
HETATM   21  C   UNL     1      10.982   5.960   5.907  1.00  0.00     0.210 C 
ENDBRANCH  12  20
ENDBRANCH   1   7
TORSDOF 4
ENDMDL
MODEL 4
REMARK VINA RESULT:      -6.7      3.075      5.927
REMARK  4 active torsions:
REMARK  status: ('A' for Active; 'I' for Inactive)
REMARK    1  A    between atoms: O_1  and  C_5 
REMARK    2  A    between atoms: O_1  and  C_14 
REMARK    3  A    between atoms: O_2  and  C_18 
REMARK    4  A    between atoms: C_10  and  C_13 
ROOT
HETATM    1  O   UNL     1      14.256   8.528  10.713  1.00  0.00    -0.343 OA
ENDROOT
BRANCH   1   2
HETATM    2  C   UNL     1      14.873   7.263  10.919  1.00  0.00     0.129 C 
HETATM    3  C   UNL     1      15.606   7.268  12.252  1.00  0.00     0.032 C 
HETATM    4  C   UNL     1      16.917   7.997  11.965  1.00  0.00     0.002 C 
HETATM    5  C   UNL     1      17.150   7.883  10.460  1.00  0.00     0.002 C 
HETATM    6  C   UNL     1      15.993   7.050   9.913  1.00  0.00     0.032 C 
ENDBRANCH   1   2
BRANCH   1   7
HETATM    7  C   UNL     1      12.901   8.529  10.511  1.00  0.00     0.103 A 
HETATM    8  C   UNL     1      12.373   7.792   9.455  1.00  0.00     0.047 A 
HETATM    9  C   UNL     1      10.996   7.786   9.237  1.00  0.00    -0.049 A 
HETATM   10  C   UNL     1      10.154   8.516  10.075  1.00  0.00     0.010 A 
HETATM   11  C   UNL     1      10.689   9.252  11.132  1.00  0.00     0.040 A 
HETATM   12  C   UNL     1      12.067   9.259  11.350  1.00  0.00     0.101 A 
BRANCH   9  13
HETATM   13  C   UNL     1      10.415   6.987   8.091  1.00  0.00     0.045 C 
HETATM   14  C   UNL     1      10.089   5.524   8.396  1.00  0.00     0.132 C 
HETATM   15  N   UNL     1      10.079   4.898   7.105  1.00  0.00    -0.360 N 
HETATM   16  C   UNL     1      10.781   5.626   6.154  1.00  0.00     0.218 C 
HETATM   17  H   UNL     1       9.625   4.045   6.914  1.00  0.00     0.162 HD
HETATM   18  O   UNL     1      10.983   5.325   4.988  1.00  0.00    -0.274 OA
HETATM   19  C   UNL     1      11.309   6.861   6.842  1.00  0.00     0.113 C 
ENDBRANCH   9  13
BRANCH  12  20
HETATM   20  O   UNL     1      12.578   9.983  12.384  1.00  0.00    -0.353 OA
HETATM   21  C   UNL     1      12.068  11.303  12.566  1.00  0.00     0.210 C 
ENDBRANCH  12  20
ENDBRANCH   1   7
TORSDOF 4
ENDMDL
MODEL 5
REMARK VINA RESULT:      -6.7      2.950      5.478
REMARK  4 active torsions:
REMARK  status: ('A' for Active; 'I' for Inactive)
REMARK    1  A    between atoms: O_1  and  C_5 
REMARK    2  A    between atoms: O_1  and  C_14 
REMARK    3  A    between atoms: O_2  and  C_18 
REMARK    4  A    between atoms: C_10  and  C_13 
ROOT
HETATM    1  O   UNL     1      14.345   6.289  12.478  1.00  0.00    -0.343 OA
ENDROOT
BRANCH   1   2
HETATM    2  C   UNL     1      13.992   7.383  13.316  1.00  0.00     0.129 C 
HETATM    3  C   UNL     1      15.042   7.547  14.404  1.00  0.00     0.032 C 
HETATM    4  C   UNL     1      14.688   6.482  15.440  1.00  0.00     0.002 C 
HETATM    5  C   UNL     1      13.212   6.150  15.227  1.00  0.00     0.002 C 
HETATM    6  C   UNL     1      12.730   7.063  14.102  1.00  0.00     0.032 C 
ENDBRANCH   1   2
BRANCH   1   7
HETATM    7  C   UNL     1      14.478   6.554  11.141  1.00  0.00     0.103 A 
HETATM    8  C   UNL     1      13.336   6.673  10.356  1.00  0.00     0.047 A 
HETATM    9  C   UNL     1      13.458   6.940   8.993  1.00  0.00    -0.049 A 
HETATM   10  C   UNL     1      14.722   7.087   8.421  1.00  0.00     0.010 A 
HETATM   11  C   UNL     1      15.863   6.967   9.214  1.00  0.00     0.040 A 
HETATM   12  C   UNL     1      15.741   6.698  10.577  1.00  0.00     0.101 A 
BRANCH   9  13
HETATM   13  C   UNL     1      12.219   7.072   8.133  1.00  0.00     0.045 C 
HETATM   14  C   UNL     1      10.962   6.380   8.665  1.00  0.00     0.132 C 
HETATM   15  N   UNL     1      10.151   6.197   7.495  1.00  0.00    -0.360 N 
HETATM   16  C   UNL     1      10.891   6.243   6.321  1.00  0.00     0.218 C 
HETATM   17  H   UNL     1       9.178   6.054   7.522  1.00  0.00     0.162 HD
HETATM   18  O   UNL     1      10.485   6.077   5.181  1.00  0.00    -0.274 OA
HETATM   19  C   UNL     1      12.327   6.490   6.711  1.00  0.00     0.113 C 
ENDBRANCH   9  13
BRANCH  12  20
HETATM   20  O   UNL     1      16.864   6.582  11.340  1.00  0.00    -0.353 OA
HETATM   21  C   UNL     1      17.990   7.370  10.960  1.00  0.00     0.210 C 
ENDBRANCH  12  20
ENDBRANCH   1   7
TORSDOF 4
ENDMDL
MODEL 6
REMARK VINA RESULT:      -6.7      3.178      5.804
REMARK  4 active torsions:
REMARK  status: ('A' for Active; 'I' for Inactive)
REMARK    1  A    between atoms: O_1  and  C_5 
REMARK    2  A    between atoms: O_1  and  C_14 
REMARK    3  A    between atoms: O_2  and  C_18 
REMARK    4  A    between atoms: C_10  and  C_13 
ROOT
HETATM    1  O   UNL     1      12.565   6.537   8.215  1.00  0.00    -0.343 OA
ENDROOT
BRANCH   1   2
HETATM    2  C   UNL     1      11.271   7.071   7.964  1.00  0.00     0.129 C 
HETATM    3  C   UNL     1      10.219   6.016   8.270  1.00  0.00     0.032 C 
HETATM    4  C   UNL     1      10.217   5.110   7.040  1.00  0.00     0.002 C 
HETATM    5  C   UNL     1      10.798   5.940   5.896  1.00  0.00     0.002 C 
HETATM    6  C   UNL     1      11.081   7.324   6.477  1.00  0.00     0.032 C 
ENDBRANCH   1   2
BRANCH   1   7
HETATM    7  C   UNL     1      13.199   6.964   9.352  1.00  0.00     0.103 A 
HETATM    8  C   UNL     1      12.656   6.646  10.592  1.00  0.00     0.047 A 
HETATM    9  C   UNL     1      13.291   7.075  11.756  1.00  0.00    -0.049 A 
HETATM   10  C   UNL     1      14.467   7.820  11.675  1.00  0.00     0.010 A 
HETATM   11  C   UNL     1      15.008   8.135  10.428  1.00  0.00     0.040 A 
HETATM   12  C   UNL     1      14.372   7.707   9.264  1.00  0.00     0.101 A 
BRANCH   9  13
HETATM   13  C   UNL     1      12.705   6.732  13.109  1.00  0.00     0.045 C 
HETATM   14  C   UNL     1      11.729   7.756  13.692  1.00  0.00     0.132 C 
HETATM   15  N   UNL     1      11.751   7.487  15.102  1.00  0.00    -0.360 N 
HETATM   16  C   UNL     1      12.893   6.802  15.496  1.00  0.00     0.218 C 
HETATM   17  H   UNL     1      11.036   7.758  15.721  1.00  0.00     0.162 HD
HETATM   18  O   UNL     1      13.209   6.476  16.630  1.00  0.00    -0.274 OA
HETATM   19  C   UNL     1      13.721   6.569  14.256  1.00  0.00     0.113 C 
ENDBRANCH   9  13
BRANCH  12  20
HETATM   20  O   UNL     1      14.909   8.022   8.052  1.00  0.00    -0.353 OA
HETATM   21  C   UNL     1      16.065   7.292   7.646  1.00  0.00     0.210 C 
ENDBRANCH  12  20
ENDBRANCH   1   7
TORSDOF 4
ENDMDL
MODEL 7
REMARK VINA RESULT:      -6.4      1.740      2.072
REMARK  4 active torsions:
REMARK  status: ('A' for Active; 'I' for Inactive)
REMARK    1  A    between atoms: O_1  and  C_5 
REMARK    2  A    between atoms: O_1  and  C_14 
REMARK    3  A    between atoms: O_2  and  C_18 
REMARK    4  A    between atoms: C_10  and  C_13 
ROOT
HETATM    1  O   UNL     1      13.283   9.147  10.068  1.00  0.00    -0.343 OA
ENDROOT
BRANCH   1   2
HETATM    2  C   UNL     1      12.757   8.656  11.294  1.00  0.00     0.129 C 
HETATM    3  C   UNL     1      11.475   7.883  11.022  1.00  0.00     0.032 C 
HETATM    4  C   UNL     1      10.407   8.962  10.855  1.00  0.00     0.002 C 
HETATM    5  C   UNL     1      10.939  10.206  11.564  1.00  0.00     0.002 C 
HETATM    6  C   UNL     1      12.284   9.807  12.167  1.00  0.00     0.032 C 
ENDBRANCH   1   2
BRANCH   1   7
HETATM    7  C   UNL     1      14.240   8.381   9.456  1.00  0.00     0.103 A 
HETATM    8  C   UNL     1      15.394   8.049  10.158  1.00  0.00     0.047 A 
HETATM    9  C   UNL     1      16.376   7.272   9.546  1.00  0.00    -0.049 A 
HETATM   10  C   UNL     1      16.201   6.831   8.234  1.00  0.00     0.010 A 
HETATM   11  C   UNL     1      15.041   7.167   7.536  1.00  0.00     0.040 A 
HETATM   12  C   UNL     1      14.059   7.945   8.148  1.00  0.00     0.101 A 
BRANCH   9  13
HETATM   13  C   UNL     1      17.634   6.906  10.304  1.00  0.00     0.045 C 
HETATM   14  C   UNL     1      17.975   7.798  11.499  1.00  0.00     0.132 C 
HETATM   15  N   UNL     1      19.385   7.598  11.685  1.00  0.00    -0.360 N 
HETATM   16  C   UNL     1      20.009   7.108  10.545  1.00  0.00     0.218 C 
HETATM   17  H   UNL     1      19.857   7.787  12.528  1.00  0.00     0.162 HD
HETATM   18  O   UNL     1      21.199   6.884  10.389  1.00  0.00    -0.274 OA
HETATM   19  C   UNL     1      18.942   6.946   9.491  1.00  0.00     0.113 C 
ENDBRANCH   9  13
BRANCH  12  20
HETATM   20  O   UNL     1      12.932   8.268   7.454  1.00  0.00    -0.353 OA
HETATM   21  C   UNL     1      11.941   7.251   7.318  1.00  0.00     0.210 C 
ENDBRANCH  12  20
ENDBRANCH   1   7
TORSDOF 4
ENDMDL
MODEL 8
REMARK VINA RESULT:      -6.4      3.742      5.912
REMARK  4 active torsions:
REMARK  status: ('A' for Active; 'I' for Inactive)
REMARK    1  A    between atoms: O_1  and  C_5 
REMARK    2  A    between atoms: O_1  and  C_14 
REMARK    3  A    between atoms: O_2  and  C_18 
REMARK    4  A    between atoms: C_10  and  C_13 
ROOT
HETATM    1  O   UNL     1      16.075   8.329  13.769  1.00  0.00    -0.343 OA
ENDROOT
BRANCH   1   2
HETATM    2  C   UNL     1      17.377   7.764  13.857  1.00  0.00     0.129 C 
HETATM    3  C   UNL     1      17.882   7.876  15.288  1.00  0.00     0.032 C 
HETATM    4  C   UNL     1      18.368   9.319  15.410  1.00  0.00     0.002 C 
HETATM    5  C   UNL     1      18.655   9.797  13.987  1.00  0.00     0.002 C 
HETATM    6  C   UNL     1      18.374   8.605  13.075  1.00  0.00     0.032 C 
ENDBRANCH   1   2
BRANCH   1   7
HETATM    7  C   UNL     1      15.130   7.601  13.096  1.00  0.00     0.103 A 
HETATM    8  C   UNL     1      15.049   7.710  11.711  1.00  0.00     0.047 A 
HETATM    9  C   UNL     1      14.090   6.976  11.015  1.00  0.00    -0.049 A 
HETATM   10  C   UNL     1      13.218   6.135  11.705  1.00  0.00     0.010 A 
HETATM   11  C   UNL     1      13.305   6.029  13.093  1.00  0.00     0.040 A 
HETATM   12  C   UNL     1      14.263   6.765  13.790  1.00  0.00     0.101 A 
BRANCH   9  13
HETATM   13  C   UNL     1      13.997   7.090   9.509  1.00  0.00     0.045 C 
HETATM   14  C   UNL     1      14.305   8.470   8.924  1.00  0.00     0.132 C 
HETATM   15  N   UNL     1      13.655   8.453   7.644  1.00  0.00    -0.360 N 
HETATM   16  C   UNL     1      12.652   7.496   7.568  1.00  0.00     0.218 C 
HETATM   17  H   UNL     1      13.894   9.055   6.902  1.00  0.00     0.162 HD
HETATM   18  O   UNL     1      11.903   7.279   6.629  1.00  0.00    -0.274 OA
HETATM   19  C   UNL     1      12.615   6.786   8.899  1.00  0.00     0.113 C 
ENDBRANCH   9  13
BRANCH  12  20
HETATM   20  O   UNL     1      14.337   6.654  15.146  1.00  0.00    -0.353 OA
HETATM   21  C   UNL     1      13.108   6.481  15.850  1.00  0.00     0.210 C 
ENDBRANCH  12  20
ENDBRANCH   1   7
TORSDOF 4
ENDMDL
MODEL 9
REMARK VINA RESULT:      -6.3      3.649      5.745
REMARK  4 active torsions:
REMARK  status: ('A' for Active; 'I' for Inactive)
REMARK    1  A    between atoms: O_1  and  C_5 
REMARK    2  A    between atoms: O_1  and  C_14 
REMARK    3  A    between atoms: O_2  and  C_18 
REMARK    4  A    between atoms: C_10  and  C_13 
ROOT
HETATM    1  O   UNL     1      13.492   6.613   9.628  1.00  0.00    -0.343 OA
ENDROOT
BRANCH   1   2
HETATM    2  C   UNL     1      12.636   7.673   9.220  1.00  0.00     0.129 C 
HETATM    3  C   UNL     1      11.190   7.296   9.507  1.00  0.00     0.032 C 
HETATM    4  C   UNL     1      10.800   6.375   8.353  1.00  0.00     0.002 C 
HETATM    5  C   UNL     1      11.761   6.690   7.208  1.00  0.00     0.002 C 
HETATM    6  C   UNL     1      12.658   7.821   7.707  1.00  0.00     0.032 C 
ENDBRANCH   1   2
BRANCH   1   7
HETATM    7  C   UNL     1      14.391   6.893  10.623  1.00  0.00     0.103 A 
HETATM    8  C   UNL     1      14.038   6.643  11.945  1.00  0.00     0.047 A 
HETATM    9  C   UNL     1      14.944   6.924  12.967  1.00  0.00    -0.049 A 
HETATM   10  C   UNL     1      16.197   7.455  12.663  1.00  0.00     0.010 A 
HETATM   11  C   UNL     1      16.545   7.702  11.335  1.00  0.00     0.040 A 
HETATM   12  C   UNL     1      15.639   7.422  10.312  1.00  0.00     0.101 A 
BRANCH   9  13
HETATM   13  C   UNL     1      14.567   6.654  14.408  1.00  0.00     0.045 C 
HETATM   14  C   UNL     1      13.102   6.901  14.771  1.00  0.00     0.132 C 
HETATM   15  N   UNL     1      13.129   7.094  16.193  1.00  0.00    -0.360 N 
HETATM   16  C   UNL     1      14.387   7.454  16.659  1.00  0.00     0.218 C 
HETATM   17  H   UNL     1      12.342   6.985  16.775  1.00  0.00     0.162 HD
HETATM   18  O   UNL     1      14.704   7.725  17.806  1.00  0.00    -0.274 OA
HETATM   19  C   UNL     1      15.305   7.501  15.463  1.00  0.00     0.113 C 
ENDBRANCH   9  13
BRANCH  12  20
HETATM   20  O   UNL     1      15.990   7.670   9.019  1.00  0.00    -0.353 OA
HETATM   21  C   UNL     1      16.956   6.800   8.432  1.00  0.00     0.210 C 
ENDBRANCH  12  20
ENDBRANCH   1   7
TORSDOF 4
ENDMDL
