MODEL 1
REMARK VINA RESULT:      -7.2      0.000      0.000
REMARK  4 active torsions:
REMARK  status: ('A' for Active; 'I' for Inactive)
REMARK    1  A    between atoms: O_1  and  C_5 
REMARK    2  A    between atoms: O_1  and  C_14 
REMARK    3  A    between atoms: O_2  and  C_18 
REMARK    4  A    between atoms: C_10  and  C_13 
ROOT
HETATM    1  O   UNL     1      13.685   5.628  13.474  1.00  0.00    -0.343 OA
ENDROOT
BRANCH   1   2
HETATM    2  C   UNL     1      13.697   6.781  14.307  1.00  0.00     0.129 C 
HETATM    3  C   UNL     1      12.443   6.797  15.168  1.00  0.00     0.032 C 
HETATM    4  C   UNL     1      11.350   7.327  14.242  1.00  0.00     0.002 C 
HETATM    5  C   UNL     1      12.064   8.101  13.134  1.00  0.00     0.002 C 
HETATM    6  C   UNL     1      13.553   8.042  13.469  1.00  0.00     0.032 C 
ENDBRANCH   1   2
BRANCH   1   7
HETATM    7  C   UNL     1      14.625   5.576  12.479  1.00  0.00     0.103 A 
HETATM    8  C   UNL     1      15.946   5.897  12.775  1.00  0.00     0.047 A 
HETATM    9  C   UNL     1      16.911   5.849  11.770  1.00  0.00    -0.049 A 
HETATM   10  C   UNL     1      16.551   5.481  10.474  1.00  0.00     0.010 A 
HETATM   11  C   UNL     1      15.225   5.160  10.183  1.00  0.00     0.040 A 
HETATM   12  C   UNL     1      14.259   5.209  11.188  1.00  0.00     0.101 A 
BRANCH   9  13
HETATM   13  C   UNL     1      18.350   6.196  12.086  1.00  0.00     0.045 C 
HETATM   14  C   UNL     1      19.321   6.154  10.905  1.00  0.00     0.132 C 
HETATM   15  N   UNL     1      20.606   5.988  11.522  1.00  0.00    -0.360 N 
HETATM   16  C   UNL     1      20.516   5.474  12.809  1.00  0.00     0.218 C 
HETATM   17  H   UNL     1      21.457   6.214  11.082  1.00  0.00     0.162 HD
HETATM   18  O   UNL     1      21.436   5.186  13.559  1.00  0.00    -0.274 OA
HETATM   19  C   UNL     1      19.051   5.280  13.108  1.00  0.00     0.113 C 
ENDBRANCH   9  13
BRANCH  12  20
HETATM   20  O   UNL     1      12.967   4.895  10.891  1.00  0.00    -0.353 OA
HETATM   21  C   UNL     1      12.750   4.042   9.769  1.00  0.00     0.210 C 
ENDBRANCH  12  20
ENDBRANCH   1   7
TORSDOF 4
ENDMDL
MODEL 2
REMARK VINA RESULT:      -7.0      2.734      6.349
REMARK  4 active torsions:
REMARK  status: ('A' for Active; 'I' for Inactive)
REMARK    1  A    between atoms: O_1  and  C_5 
REMARK    2  A    between atoms: O_1  and  C_14 
REMARK    3  A    between atoms: O_2  and  C_18 
REMARK    4  A    between atoms: C_10  and  C_13 
ROOT
HETATM    1  O   UNL     1      17.549   5.722  13.610  1.00  0.00    -0.343 OA
ENDROOT
BRANCH   1   2
HETATM    2  C   UNL     1      18.566   6.465  12.950  1.00  0.00     0.129 C 
HETATM    3  C   UNL     1      19.294   5.564  11.964  1.00  0.00     0.032 C 
HETATM    4  C   UNL     1      20.269   4.765  12.826  1.00  0.00     0.002 C 
HETATM    5  C   UNL     1      20.481   5.578  14.102  1.00  0.00     0.002 C 
HETATM    6  C   UNL     1      19.660   6.855  13.932  1.00  0.00     0.032 C 
ENDBRANCH   1   2
BRANCH   1   7
HETATM    7  C   UNL     1      16.253   6.073  13.341  1.00  0.00     0.103 A 
HETATM    8  C   UNL     1      15.611   5.508  12.243  1.00  0.00     0.047 A 
HETATM    9  C   UNL     1      14.292   5.859  11.958  1.00  0.00    -0.049 A 
HETATM   10  C   UNL     1      13.621   6.773  12.770  1.00  0.00     0.010 A 
HETATM   11  C   UNL     1      14.270   7.335  13.870  1.00  0.00     0.040 A 
HETATM   12  C   UNL     1      15.590   6.985  14.155  1.00  0.00     0.101 A 
BRANCH   9  13
HETATM   13  C   UNL     1      13.588   5.248  10.765  1.00  0.00     0.045 C 
HETATM   14  C   UNL     1      12.662   4.069  11.070  1.00  0.00     0.132 C 
HETATM   15  N   UNL     1      12.565   3.377   9.816  1.00  0.00    -0.360 N 
HETATM   16  C   UNL     1      13.616   3.675   8.959  1.00  0.00     0.218 C 
HETATM   17  H   UNL     1      11.834   2.758   9.589  1.00  0.00     0.162 HD
HETATM   18  O   UNL     1      13.825   3.208   7.850  1.00  0.00    -0.274 OA
HETATM   19  C   UNL     1      14.505   4.661   9.675  1.00  0.00     0.113 C 
ENDBRANCH   9  13
BRANCH  12  20
HETATM   20  O   UNL     1      16.213   7.542  15.231  1.00  0.00    -0.353 OA
HETATM   21  C   UNL     1      15.656   7.269  16.515  1.00  0.00     0.210 C 
ENDBRANCH  12  20
ENDBRANCH   1   7
TORSDOF 4
ENDMDL
MODEL 3
REMARK VINA RESULT:      -7.0      2.949      5.725
REMARK  4 active torsions:
REMARK  status: ('A' for Active; 'I' for Inactive)
REMARK    1  A    between atoms: O_1  and  C_5 
REMARK    2  A    between atoms: O_1  and  C_14 
REMARK    3  A    between atoms: O_2  and  C_18 
REMARK    4  A    between atoms: C_10  and  C_13 
ROOT
HETATM    1  O   UNL     1      16.285   5.125  11.153  1.00  0.00    -0.343 OA
ENDROOT
BRANCH   1   2
HETATM    2  C   UNL     1      16.855   6.422  11.032  1.00  0.00     0.129 C 
HETATM    3  C   UNL     1      18.205   6.320  10.340  1.00  0.00     0.032 C 
HETATM    4  C   UNL     1      19.165   5.868  11.440  1.00  0.00     0.002 C 
HETATM    5  C   UNL     1      18.514   6.261  12.765  1.00  0.00     0.002 C 
HETATM    6  C   UNL     1      17.212   6.974  12.403  1.00  0.00     0.032 C 
ENDBRANCH   1   2
BRANCH   1   7
HETATM    7  C   UNL     1      14.961   5.062  11.499  1.00  0.00     0.103 A 
HETATM    8  C   UNL     1      14.598   5.248  12.829  1.00  0.00     0.047 A 
HETATM    9  C   UNL     1      13.254   5.184  13.194  1.00  0.00    -0.049 A 
HETATM   10  C   UNL     1      12.279   4.935  12.228  1.00  0.00     0.010 A 
HETATM   11  C   UNL     1      12.650   4.750  10.896  1.00  0.00     0.040 A 
HETATM   12  C   UNL     1      13.994   4.812  10.531  1.00  0.00     0.101 A 
BRANCH   9  13
HETATM   13  C   UNL     1      12.852   5.387  14.639  1.00  0.00     0.045 C 
HETATM   14  C   UNL     1      12.056   6.658  14.938  1.00  0.00     0.132 C 
HETATM   15  N   UNL     1      12.267   6.873  16.342  1.00  0.00    -0.360 N 
HETATM   16  C   UNL     1      13.399   6.222  16.816  1.00  0.00     0.218 C 
HETATM   17  H   UNL     1      11.676   7.421  16.906  1.00  0.00     0.162 HD
HETATM   18  O   UNL     1      13.854   6.256  17.949  1.00  0.00    -0.274 OA
HETATM   19  C   UNL     1      14.012   5.490  15.648  1.00  0.00     0.113 C 
ENDBRANCH   9  13
BRANCH  12  20
HETATM   20  O   UNL     1      14.344   4.628   9.227  1.00  0.00    -0.353 OA
HETATM   21  C   UNL     1      13.722   3.546   8.537  1.00  0.00     0.210 C 
ENDBRANCH  12  20
ENDBRANCH   1   7
TORSDOF 4
ENDMDL
MODEL 4
REMARK VINA RESULT:      -6.8      3.006      5.522
REMARK  4 active torsions:
REMARK  status: ('A' for Active; 'I' for Inactive)
REMARK    1  A    between atoms: O_1  and  C_5 
REMARK    2  A    between atoms: O_1  and  C_14 
REMARK    3  A    between atoms: O_2  and  C_18 
REMARK    4  A    between atoms: C_10  and  C_13 
ROOT
HETATM    1  O   UNL     1      15.669   5.552  15.508  1.00  0.00    -0.343 OA
ENDROOT
BRANCH   1   2
HETATM    2  C   UNL     1      14.918   6.646  16.018  1.00  0.00     0.129 C 
HETATM    3  C   UNL     1      15.842   7.585  16.779  1.00  0.00     0.032 C 
HETATM    4  C   UNL     1      16.026   6.919  18.141  1.00  0.00     0.002 C 
HETATM    5  C   UNL     1      14.828   5.989  18.329  1.00  0.00     0.002 C 
HETATM    6  C   UNL     1      13.951   6.172  17.092  1.00  0.00     0.032 C 
ENDBRANCH   1   2
BRANCH   1   7
HETATM    7  C   UNL     1      16.000   5.596  14.179  1.00  0.00     0.103 A 
HETATM    8  C   UNL     1      15.012   5.370  13.226  1.00  0.00     0.047 A 
HETATM    9  C   UNL     1      15.337   5.410  11.871  1.00  0.00    -0.049 A 
HETATM   10  C   UNL     1      16.647   5.675  11.475  1.00  0.00     0.010 A 
HETATM   11  C   UNL     1      17.633   5.902  12.435  1.00  0.00     0.040 A 
HETATM   12  C   UNL     1      17.308   5.861  13.791  1.00  0.00     0.101 A 
BRANCH   9  13
HETATM   13  C   UNL     1      14.266   5.165  10.829  1.00  0.00     0.045 C 
HETATM   14  C   UNL     1      13.102   4.275  11.265  1.00  0.00     0.132 C 
HETATM   15  N   UNL     1      12.561   3.786  10.029  1.00  0.00    -0.360 N 
HETATM   16  C   UNL     1      13.470   3.865   8.982  1.00  0.00     0.218 C 
HETATM   17  H   UNL     1      11.647   3.434   9.933  1.00  0.00     0.162 HD
HETATM   18  O   UNL     1      13.312   3.487   7.831  1.00  0.00    -0.274 OA
HETATM   19  C   UNL     1      14.736   4.468   9.538  1.00  0.00     0.113 C 
ENDBRANCH   9  13
BRANCH  12  20
HETATM   20  O   UNL     1      18.281   6.082  14.720  1.00  0.00    -0.353 OA
HETATM   21  C   UNL     1      18.995   7.313  14.629  1.00  0.00     0.210 C 
ENDBRANCH  12  20
ENDBRANCH   1   7
TORSDOF 4
ENDMDL
MODEL 5
REMARK VINA RESULT:      -6.7      3.029      5.825
REMARK  4 active torsions:
REMARK  status: ('A' for Active; 'I' for Inactive)
REMARK    1  A    between atoms: O_1  and  C_5 
REMARK    2  A    between atoms: O_1  and  C_14 
REMARK    3  A    between atoms: O_2  and  C_18 
REMARK    4  A    between atoms: C_10  and  C_13 
ROOT
HETATM    1  O   UNL     1      14.718   4.777  10.638  1.00  0.00    -0.343 OA
ENDROOT
BRANCH   1   2
HETATM    2  C   UNL     1      13.319   4.888  10.408  1.00  0.00     0.129 C 
HETATM    3  C   UNL     1      12.639   3.581  10.787  1.00  0.00     0.032 C 
HETATM    4  C   UNL     1      12.886   2.661   9.592  1.00  0.00     0.002 C 
HETATM    5  C   UNL     1      13.169   3.574   8.400  1.00  0.00     0.002 C 
HETATM    6  C   UNL     1      13.034   5.004   8.919  1.00  0.00     0.032 C 
ENDBRANCH   1   2
BRANCH   1   7
HETATM    7  C   UNL     1      15.179   5.198  11.857  1.00  0.00     0.103 A 
HETATM    8  C   UNL     1      14.321   5.172  12.953  1.00  0.00     0.047 A 
HETATM    9  C   UNL     1      14.778   5.599  14.198  1.00  0.00    -0.049 A 
HETATM   10  C   UNL     1      16.090   6.050  14.345  1.00  0.00     0.010 A 
HETATM   11  C   UNL     1      16.945   6.072  13.243  1.00  0.00     0.040 A 
HETATM   12  C   UNL     1      16.488   5.646  11.996  1.00  0.00     0.101 A 
BRANCH   9  13
HETATM   13  C   UNL     1      13.850   5.573  15.394  1.00  0.00     0.045 C 
HETATM   14  C   UNL     1      12.881   6.751  15.512  1.00  0.00     0.132 C 
HETATM   15  N   UNL     1      12.534   6.771  16.905  1.00  0.00    -0.360 N 
HETATM   16  C   UNL     1      13.465   6.112  17.696  1.00  0.00     0.218 C 
HETATM   17  H   UNL     1      11.725   7.205  17.260  1.00  0.00     0.162 HD
HETATM   18  O   UNL     1      13.462   6.003  18.912  1.00  0.00    -0.274 OA
HETATM   19  C   UNL     1      14.536   5.583  16.774  1.00  0.00     0.113 C 
ENDBRANCH   9  13
BRANCH  12  20
HETATM   20  O   UNL     1      17.333   5.675  10.927  1.00  0.00    -0.353 OA
HETATM   21  C   UNL     1      18.689   6.036  11.183  1.00  0.00     0.210 C 
ENDBRANCH  12  20
ENDBRANCH   1   7
TORSDOF 4
ENDMDL
MODEL 6
REMARK VINA RESULT:      -6.5      1.700      3.786
REMARK  4 active torsions:
REMARK  status: ('A' for Active; 'I' for Inactive)
REMARK    1  A    between atoms: O_1  and  C_5 
REMARK    2  A    between atoms: O_1  and  C_14 
REMARK    3  A    between atoms: O_2  and  C_18 
REMARK    4  A    between atoms: C_10  and  C_13 
ROOT
HETATM    1  O   UNL     1      13.796   4.529  10.979  1.00  0.00    -0.343 OA
ENDROOT
BRANCH   1   2
HETATM    2  C   UNL     1      14.121   4.976   9.668  1.00  0.00     0.129 C 
HETATM    3  C   UNL     1      12.872   4.950   8.801  1.00  0.00     0.032 C 
HETATM    4  C   UNL     1      12.719   3.485   8.395  1.00  0.00     0.002 C 
HETATM    5  C   UNL     1      14.103   2.854   8.538  1.00  0.00     0.002 C 
HETATM    6  C   UNL     1      15.038   3.978   8.980  1.00  0.00     0.032 C 
ENDBRANCH   1   2
BRANCH   1   7
HETATM    7  C   UNL     1      14.575   5.000  12.003  1.00  0.00     0.103 A 
HETATM    8  C   UNL     1      15.894   5.360  11.742  1.00  0.00     0.047 A 
HETATM    9  C   UNL     1      16.696   5.839  12.776  1.00  0.00    -0.049 A 
HETATM   10  C   UNL     1      16.178   5.957  14.065  1.00  0.00     0.010 A 
HETATM   11  C   UNL     1      14.855   5.595  14.320  1.00  0.00     0.040 A 
HETATM   12  C   UNL     1      14.052   5.115  13.286  1.00  0.00     0.101 A 
BRANCH   9  13
HETATM   13  C   UNL     1      18.131   6.233  12.499  1.00  0.00     0.045 C 
HETATM   14  C   UNL     1      18.640   5.948  11.085  1.00  0.00     0.132 C 
HETATM   15  N   UNL     1      20.067   5.900  11.236  1.00  0.00    -0.360 N 
HETATM   16  C   UNL     1      20.456   5.655  12.547  1.00  0.00     0.218 C 
HETATM   17  H   UNL     1      20.700   6.026  10.493  1.00  0.00     0.162 HD
HETATM   18  O   UNL     1      21.593   5.517  12.970  1.00  0.00    -0.274 OA
HETATM   19  C   UNL     1      19.196   5.536  13.368  1.00  0.00     0.113 C 
ENDBRANCH   9  13
BRANCH  12  20
HETATM   20  O   UNL     1      12.762   4.763  13.548  1.00  0.00    -0.353 OA
HETATM   21  C   UNL     1      12.555   3.544  14.258  1.00  0.00     0.210 C 
ENDBRANCH  12  20
ENDBRANCH   1   7
TORSDOF 4
ENDMDL
MODEL 7
REMARK VINA RESULT:      -6.5      3.776      5.913
REMARK  4 active torsions:
REMARK  status: ('A' for Active; 'I' for Inactive)
REMARK    1  A    between atoms: O_1  and  C_5 
REMARK    2  A    between atoms: O_1  and  C_14 
REMARK    3  A    between atoms: O_2  and  C_18 
REMARK    4  A    between atoms: C_10  and  C_13 
ROOT
HETATM    1  O   UNL     1      16.741   8.048  16.464  1.00  0.00    -0.343 OA
ENDROOT
BRANCH   1   2
HETATM    2  C   UNL     1      18.070   7.759  16.878  1.00  0.00     0.129 C 
HETATM    3  C   UNL     1      18.268   8.231  18.310  1.00  0.00     0.032 C 
HETATM    4  C   UNL     1      18.503   9.735  18.189  1.00  0.00     0.002 C 
HETATM    5  C   UNL     1      18.985   9.980  16.759  1.00  0.00     0.002 C 
HETATM    6  C   UNL     1      19.064   8.605  16.098  1.00  0.00     0.032 C 
ENDBRANCH   1   2
BRANCH   1   7
HETATM    7  C   UNL     1      16.069   7.053  15.804  1.00  0.00     0.103 A 
HETATM    8  C   UNL     1      16.220   6.930  14.426  1.00  0.00     0.047 A 
HETATM    9  C   UNL     1      15.541   5.922  13.744  1.00  0.00    -0.049 A 
HETATM   10  C   UNL     1      14.714   5.042  14.440  1.00  0.00     0.010 A 
HETATM   11  C   UNL     1      14.567   5.169  15.822  1.00  0.00     0.040 A 
HETATM   12  C   UNL     1      15.246   6.178  16.505  1.00  0.00     0.101 A 
BRANCH   9  13
HETATM   13  C   UNL     1      15.702   5.783  12.245  1.00  0.00     0.045 C 
HETATM   14  C   UNL     1      15.831   7.091  11.463  1.00  0.00     0.132 C 
HETATM   15  N   UNL     1      15.441   6.734  10.129  1.00  0.00    -0.360 N 
HETATM   16  C   UNL     1      14.678   5.574  10.089  1.00  0.00     0.218 C 
HETATM   17  H   UNL     1      15.685   7.255   9.330  1.00  0.00     0.162 HD
HETATM   18  O   UNL     1      14.169   5.054   9.109  1.00  0.00    -0.274 OA
HETATM   19  C   UNL     1      14.541   5.085  11.510  1.00  0.00     0.113 C 
ENDBRANCH   9  13
BRANCH  12  20
HETATM   20  O   UNL     1      15.093   6.294  17.854  1.00  0.00    -0.353 OA
HETATM   21  C   UNL     1      13.770   6.155  18.370  1.00  0.00     0.210 C 
ENDBRANCH  12  20
ENDBRANCH   1   7
TORSDOF 4
ENDMDL
MODEL 8
REMARK VINA RESULT:      -6.4      3.578      5.938
REMARK  4 active torsions:
REMARK  status: ('A' for Active; 'I' for Inactive)
REMARK    1  A    between atoms: O_1  and  C_5 
REMARK    2  A    between atoms: O_1  and  C_14 
REMARK    3  A    between atoms: O_2  and  C_18 
REMARK    4  A    between atoms: C_10  and  C_13 
ROOT
HETATM    1  O   UNL     1      15.286   4.959  12.144  1.00  0.00    -0.343 OA
ENDROOT
BRANCH   1   2
HETATM    2  C   UNL     1      14.386   5.842  11.486  1.00  0.00     0.129 C 
HETATM    3  C   UNL     1      12.964   5.325  11.640  1.00  0.00     0.032 C 
HETATM    4  C   UNL     1      12.843   4.223  10.588  1.00  0.00     0.002 C 
HETATM    5  C   UNL     1      13.917   4.511   9.540  1.00  0.00     0.002 C 
HETATM    6  C   UNL     1      14.607   5.799   9.982  1.00  0.00     0.032 C 
ENDBRANCH   1   2
BRANCH   1   7
HETATM    7  C   UNL     1      15.821   5.392  13.329  1.00  0.00     0.103 A 
HETATM    8  C   UNL     1      15.061   5.298  14.490  1.00  0.00     0.047 A 
HETATM    9  C   UNL     1      15.594   5.737  15.702  1.00  0.00    -0.049 A 
HETATM   10  C   UNL     1      16.883   6.266  15.747  1.00  0.00     0.010 A 
HETATM   11  C   UNL     1      17.640   6.356  14.578  1.00  0.00     0.040 A 
HETATM   12  C   UNL     1      17.107   5.919  13.366  1.00  0.00     0.101 A 
BRANCH   9  13
HETATM   13  C   UNL     1      14.773   5.637  16.969  1.00  0.00     0.045 C 
HETATM   14  C   UNL     1      13.371   6.247  16.906  1.00  0.00     0.132 C 
HETATM   15  N   UNL     1      13.044   6.499  18.281  1.00  0.00    -0.360 N 
HETATM   16  C   UNL     1      14.169   6.568  19.092  1.00  0.00     0.218 C 
HETATM   17  H   UNL     1      12.124   6.611  18.612  1.00  0.00     0.162 HD
HETATM   18  O   UNL     1      14.207   6.812  20.288  1.00  0.00    -0.274 OA
HETATM   19  C   UNL     1      15.369   6.333  18.209  1.00  0.00     0.113 C 
ENDBRANCH   9  13
BRANCH  12  20
HETATM   20  O   UNL     1      17.856   6.014  12.232  1.00  0.00    -0.353 OA
HETATM   21  C   UNL     1      19.233   5.658  12.333  1.00  0.00     0.210 C 
ENDBRANCH  12  20
ENDBRANCH   1   7
TORSDOF 4
ENDMDL
MODEL 9
REMARK VINA RESULT:      -6.3      3.136      5.943
REMARK  4 active torsions:
REMARK  status: ('A' for Active; 'I' for Inactive)
REMARK    1  A    between atoms: O_1  and  C_5 
REMARK    2  A    between atoms: O_1  and  C_14 
REMARK    3  A    between atoms: O_2  and  C_18 
REMARK    4  A    between atoms: C_10  and  C_13 
ROOT
HETATM    1  O   UNL     1      17.706   5.728  15.130  1.00  0.00    -0.343 OA
ENDROOT
BRANCH   1   2
HETATM    2  C   UNL     1      16.628   5.237  15.917  1.00  0.00     0.129 C 
HETATM    3  C   UNL     1      16.299   6.242  17.010  1.00  0.00     0.032 C 
HETATM    4  C   UNL     1      17.356   5.996  18.086  1.00  0.00     0.002 C 
HETATM    5  C   UNL     1      17.866   4.572  17.868  1.00  0.00     0.002 C 
HETATM    6  C   UNL     1      17.060   4.007  16.700  1.00  0.00     0.032 C 
ENDBRANCH   1   2
BRANCH   1   7
HETATM    7  C   UNL     1      17.520   5.750  13.773  1.00  0.00     0.103 A 
HETATM    8  C   UNL     1      16.229   5.664  13.264  1.00  0.00     0.047 A 
HETATM    9  C   UNL     1      16.027   5.684  11.885  1.00  0.00    -0.049 A 
HETATM   10  C   UNL     1      17.117   5.790  11.021  1.00  0.00     0.010 A 
HETATM   11  C   UNL     1      18.409   5.876  11.538  1.00  0.00     0.040 A 
HETATM   12  C   UNL     1      18.612   5.855  12.918  1.00  0.00     0.101 A 
BRANCH   9  13
HETATM   13  C   UNL     1      14.624   5.592  11.324  1.00  0.00     0.045 C 
HETATM   14  C   UNL     1      13.614   4.822  12.177  1.00  0.00     0.132 C 
HETATM   15  N   UNL     1      12.598   4.434  11.239  1.00  0.00    -0.360 N 
HETATM   16  C   UNL     1      13.052   4.445   9.927  1.00  0.00     0.218 C 
HETATM   17  H   UNL     1      11.681   4.188  11.498  1.00  0.00     0.162 HD
HETATM   18  O   UNL     1      12.433   4.122   8.925  1.00  0.00    -0.274 OA
HETATM   19  C   UNL     1      14.494   4.887   9.959  1.00  0.00     0.113 C 
ENDBRANCH   9  13
BRANCH  12  20
HETATM   20  O   UNL     1      19.879   5.939  13.411  1.00  0.00    -0.353 OA
HETATM   21  C   UNL     1      20.710   4.789  13.259  1.00  0.00     0.210 C 
ENDBRANCH  12  20
ENDBRANCH   1   7
TORSDOF 4
ENDMDL
