MODEL 1
REMARK VINA RESULT:      -7.1      0.000      0.000
REMARK  4 active torsions:
REMARK  status: ('A' for Active; 'I' for Inactive)
REMARK    1  A    between atoms: O_1  and  C_5 
REMARK    2  A    between atoms: O_1  and  C_14 
REMARK    3  A    between atoms: O_2  and  C_18 
REMARK    4  A    between atoms: C_10  and  C_13 
ROOT
HETATM    1  O   UNL     1      12.324   7.088  11.130  1.00  0.00    -0.343 OA
ENDROOT
BRANCH   1   2
HETATM    2  C   UNL     1      12.631   8.061  12.120  1.00  0.00     0.129 C 
HETATM    3  C   UNL     1      11.538   8.070  13.178  1.00  0.00     0.032 C 
HETATM    4  C   UNL     1      10.407   8.885  12.553  1.00  0.00     0.002 C 
HETATM    5  C   UNL     1      11.052   9.756  11.475  1.00  0.00     0.002 C 
HETATM    6  C   UNL     1      12.549   9.460  11.531  1.00  0.00     0.032 C 
ENDBRANCH   1   2
BRANCH   1   7
HETATM    7  C   UNL     1      13.095   7.094   9.998  1.00  0.00     0.103 A 
HETATM    8  C   UNL     1      14.481   7.069  10.120  1.00  0.00     0.047 A 
HETATM    9  C   UNL     1      15.276   7.077   8.976  1.00  0.00    -0.049 A 
HETATM   10  C   UNL     1      14.684   7.109   7.714  1.00  0.00     0.010 A 
HETATM   11  C   UNL     1      13.294   7.132   7.597  1.00  0.00     0.040 A 
HETATM   12  C   UNL     1      12.498   7.126   8.742  1.00  0.00     0.101 A 
BRANCH   9  13
HETATM   13  C   UNL     1      16.784   7.050   9.102  1.00  0.00     0.045 C 
HETATM   14  C   UNL     1      17.565   7.064   7.787  1.00  0.00     0.132 C 
HETATM   15  N   UNL     1      18.842   6.514   8.139  1.00  0.00    -0.360 N 
HETATM   16  C   UNL     1      18.797   5.767   9.309  1.00  0.00     0.218 C 
HETATM   17  H   UNL     1      19.661   6.650   7.610  1.00  0.00     0.162 HD
HETATM   18  O   UNL     1      19.710   5.146   9.829  1.00  0.00    -0.274 OA
HETATM   19  C   UNL     1      17.375   5.815   9.811  1.00  0.00     0.113 C 
ENDBRANCH   9  13
BRANCH  12  20
HETATM   20  O   UNL     1      11.141   7.151   8.616  1.00  0.00    -0.353 OA
HETATM   21  C   UNL     1      10.577   6.401   7.541  1.00  0.00     0.210 C 
ENDBRANCH  12  20
ENDBRANCH   1   7
TORSDOF 4
ENDMDL
MODEL 2
REMARK VINA RESULT:      -7.0      2.768      6.375
REMARK  4 active torsions:
REMARK  status: ('A' for Active; 'I' for Inactive)
REMARK    1  A    between atoms: O_1  and  C_5 
REMARK    2  A    between atoms: O_1  and  C_14 
REMARK    3  A    between atoms: O_2  and  C_18 
REMARK    4  A    between atoms: C_10  and  C_13 
ROOT
HETATM    1  O   UNL     1      15.934   6.508  10.406  1.00  0.00    -0.343 OA
ENDROOT
BRANCH   1   2
HETATM    2  C   UNL     1      16.938   7.231   9.704  1.00  0.00     0.129 C 
HETATM    3  C   UNL     1      17.339   6.459   8.457  1.00  0.00     0.032 C 
HETATM    4  C   UNL     1      18.297   5.383   8.965  1.00  0.00     0.002 C 
HETATM    5  C   UNL     1      18.843   5.890  10.299  1.00  0.00     0.002 C 
HETATM    6  C   UNL     1      18.226   7.270  10.512  1.00  0.00     0.032 C 
ENDBRANCH   1   2
BRANCH   1   7
HETATM    7  C   UNL     1      14.690   7.078  10.465  1.00  0.00     0.103 A 
HETATM    8  C   UNL     1      13.796   6.864   9.420  1.00  0.00     0.047 A 
HETATM    9  C   UNL     1      12.528   7.440   9.467  1.00  0.00    -0.049 A 
HETATM   10  C   UNL     1      12.158   8.227  10.558  1.00  0.00     0.010 A 
HETATM   11  C   UNL     1      13.058   8.436  11.602  1.00  0.00     0.040 A 
HETATM   12  C   UNL     1      14.328   7.861  11.555  1.00  0.00     0.101 A 
BRANCH   9  13
HETATM   13  C   UNL     1      11.550   7.211   8.334  1.00  0.00     0.045 C 
HETATM   14  C   UNL     1      10.474   6.154   8.585  1.00  0.00     0.132 C 
HETATM   15  N   UNL     1      10.061   5.765   7.266  1.00  0.00    -0.360 N 
HETATM   16  C   UNL     1      11.010   6.069   6.299  1.00  0.00     0.218 C 
HETATM   17  H   UNL     1       9.200   5.330   7.069  1.00  0.00     0.162 HD
HETATM   18  O   UNL     1      10.959   5.819   5.105  1.00  0.00    -0.274 OA
HETATM   19  C   UNL     1      12.167   6.731   7.005  1.00  0.00     0.113 C 
ENDBRANCH   9  13
BRANCH  12  20
HETATM   20  O   UNL     1      15.199   8.075  12.581  1.00  0.00    -0.353 OA
HETATM   21  C   UNL     1      14.766   7.700  13.887  1.00  0.00     0.210 C 
ENDBRANCH  12  20
ENDBRANCH   1   7
TORSDOF 4
ENDMDL
MODEL 3
REMARK VINA RESULT:      -7.0      2.989      5.748
REMARK  4 active torsions:
REMARK  status: ('A' for Active; 'I' for Inactive)
REMARK    1  A    between atoms: O_1  and  C_5 
REMARK    2  A    between atoms: O_1  and  C_14 
REMARK    3  A    between atoms: O_2  and  C_18 
REMARK    4  A    between atoms: C_10  and  C_13 
ROOT
HETATM    1  O   UNL     1      14.215   6.616   8.200  1.00  0.00    -0.343 OA
ENDROOT
BRANCH   1   2
HETATM    2  C   UNL     1      15.002   7.800   8.191  1.00  0.00     0.129 C 
HETATM    3  C   UNL     1      16.187   7.614   7.256  1.00  0.00     0.032 C 
HETATM    4  C   UNL     1      17.194   6.806   8.072  1.00  0.00     0.002 C 
HETATM    5  C   UNL     1      16.839   7.035   9.540  1.00  0.00     0.002 C 
HETATM    6  C   UNL     1      15.662   8.008   9.545  1.00  0.00     0.032 C 
ENDBRANCH   1   2
BRANCH   1   7
HETATM    7  C   UNL     1      12.977   6.700   8.781  1.00  0.00     0.103 A 
HETATM    8  C   UNL     1      12.874   6.664  10.168  1.00  0.00     0.047 A 
HETATM    9  C   UNL     1      11.620   6.748  10.770  1.00  0.00    -0.049 A 
HETATM   10  C   UNL     1      10.474   6.868   9.984  1.00  0.00     0.010 A 
HETATM   11  C   UNL     1      10.584   6.905   8.594  1.00  0.00     0.040 A 
HETATM   12  C   UNL     1      11.839   6.820   7.991  1.00  0.00     0.101 A 
BRANCH   9  13
HETATM   13  C   UNL     1      11.501   6.709  12.278  1.00  0.00     0.045 C 
HETATM   14  C   UNL     1      10.996   7.992  12.941  1.00  0.00     0.132 C 
HETATM   15  N   UNL     1      11.468   7.889  14.292  1.00  0.00    -0.360 N 
HETATM   16  C   UNL     1      12.533   7.007  14.419  1.00  0.00     0.218 C 
HETATM   17  H   UNL     1      11.081   8.390  15.046  1.00  0.00     0.162 HD
HETATM   18  O   UNL     1      13.166   6.749  15.431  1.00  0.00    -0.274 OA
HETATM   19  C   UNL     1      12.810   6.446  13.047  1.00  0.00     0.113 C 
ENDBRANCH   9  13
BRANCH  12  20
HETATM   20  O   UNL     1      11.933   6.855   6.632  1.00  0.00    -0.353 OA
HETATM   21  C   UNL     1      11.077   5.980   5.900  1.00  0.00     0.210 C 
ENDBRANCH  12  20
ENDBRANCH   1   7
TORSDOF 4
ENDMDL
MODEL 4
REMARK VINA RESULT:      -6.8      3.006      5.480
REMARK  4 active torsions:
REMARK  status: ('A' for Active; 'I' for Inactive)
REMARK    1  A    between atoms: O_1  and  C_5 
REMARK    2  A    between atoms: O_1  and  C_14 
REMARK    3  A    between atoms: O_2  and  C_18 
REMARK    4  A    between atoms: C_10  and  C_13 
ROOT
HETATM    1  O   UNL     1      14.199   6.276  12.625  1.00  0.00    -0.343 OA
ENDROOT
BRANCH   1   2
HETATM    2  C   UNL     1      13.898   7.382  13.466  1.00  0.00     0.129 C 
HETATM    3  C   UNL     1      14.989   7.533  14.515  1.00  0.00     0.032 C 
HETATM    4  C   UNL     1      14.652   6.483  15.572  1.00  0.00     0.002 C 
HETATM    5  C   UNL     1      13.162   6.179  15.414  1.00  0.00     0.002 C 
HETATM    6  C   UNL     1      12.659   7.094  14.299  1.00  0.00     0.032 C 
ENDBRANCH   1   2
BRANCH   1   7
HETATM    7  C   UNL     1      14.365   6.540  11.292  1.00  0.00     0.103 A 
HETATM    8  C   UNL     1      13.242   6.661  10.479  1.00  0.00     0.047 A 
HETATM    9  C   UNL     1      13.398   6.929   9.120  1.00  0.00    -0.049 A 
HETATM   10  C   UNL     1      14.675   7.074   8.579  1.00  0.00     0.010 A 
HETATM   11  C   UNL     1      15.797   6.952   9.399  1.00  0.00     0.040 A 
HETATM   12  C   UNL     1      15.641   6.683  10.759  1.00  0.00     0.101 A 
BRANCH   9  13
HETATM   13  C   UNL     1      12.180   7.062   8.231  1.00  0.00     0.045 C 
HETATM   14  C   UNL     1      10.926   6.325   8.702  1.00  0.00     0.132 C 
HETATM   15  N   UNL     1      10.152   6.164   7.504  1.00  0.00    -0.360 N 
HETATM   16  C   UNL     1      10.922   6.268   6.353  1.00  0.00     0.218 C 
HETATM   17  H   UNL     1       9.182   5.998   7.498  1.00  0.00     0.162 HD
HETATM   18  O   UNL     1      10.553   6.133   5.197  1.00  0.00    -0.274 OA
HETATM   19  C   UNL     1      12.341   6.533   6.792  1.00  0.00     0.113 C 
ENDBRANCH   9  13
BRANCH  12  20
HETATM   20  O   UNL     1      16.745   6.565  11.549  1.00  0.00    -0.353 OA
HETATM   21  C   UNL     1      17.592   7.708  11.654  1.00  0.00     0.210 C 
ENDBRANCH  12  20
ENDBRANCH   1   7
TORSDOF 4
ENDMDL
MODEL 5
REMARK VINA RESULT:      -6.8      2.970      5.724
REMARK  4 active torsions:
REMARK  status: ('A' for Active; 'I' for Inactive)
REMARK    1  A    between atoms: O_1  and  C_5 
REMARK    2  A    between atoms: O_1  and  C_14 
REMARK    3  A    between atoms: O_2  and  C_18 
REMARK    4  A    between atoms: C_10  and  C_13 
ROOT
HETATM    1  O   UNL     1      12.594   6.679   7.792  1.00  0.00    -0.343 OA
ENDROOT
BRANCH   1   2
HETATM    2  C   UNL     1      11.226   7.054   7.891  1.00  0.00     0.129 C 
HETATM    3  C   UNL     1      10.383   5.821   8.181  1.00  0.00     0.032 C 
HETATM    4  C   UNL     1      10.224   5.139   6.824  1.00  0.00     0.002 C 
HETATM    5  C   UNL     1      10.460   6.220   5.770  1.00  0.00     0.002 C 
HETATM    6  C   UNL     1      10.704   7.516   6.540  1.00  0.00     0.032 C 
ENDBRANCH   1   2
BRANCH   1   7
HETATM    7  C   UNL     1      13.337   6.742   8.942  1.00  0.00     0.103 A 
HETATM    8  C   UNL     1      12.698   6.600  10.170  1.00  0.00     0.047 A 
HETATM    9  C   UNL     1      13.442   6.664  11.347  1.00  0.00    -0.049 A 
HETATM   10  C   UNL     1      14.820   6.869  11.292  1.00  0.00     0.010 A 
HETATM   11  C   UNL     1      15.455   7.010  10.058  1.00  0.00     0.040 A 
HETATM   12  C   UNL     1      14.710   6.947   8.880  1.00  0.00     0.101 A 
BRANCH   9  13
HETATM   13  C   UNL     1      12.754   6.510  12.687  1.00  0.00     0.045 C 
HETATM   14  C   UNL     1      11.966   7.727  13.176  1.00  0.00     0.132 C 
HETATM   15  N   UNL     1      11.887   7.535  14.596  1.00  0.00    -0.360 N 
HETATM   16  C   UNL     1      12.865   6.674  15.074  1.00  0.00     0.218 C 
HETATM   17  H   UNL     1      11.213   7.968  15.169  1.00  0.00     0.162 HD
HETATM   18  O   UNL     1      13.073   6.358  16.235  1.00  0.00    -0.274 OA
HETATM   19  C   UNL     1      13.679   6.225  13.886  1.00  0.00     0.113 C 
ENDBRANCH   9  13
BRANCH  12  20
HETATM   20  O   UNL     1      15.341   7.088   7.680  1.00  0.00    -0.353 OA
HETATM   21  C   UNL     1      16.761   7.225   7.707  1.00  0.00     0.210 C 
ENDBRANCH  12  20
ENDBRANCH   1   7
TORSDOF 4
ENDMDL
MODEL 6
REMARK VINA RESULT:      -6.4      1.790      2.118
REMARK  4 active torsions:
REMARK  status: ('A' for Active; 'I' for Inactive)
REMARK    1  A    between atoms: O_1  and  C_5 
REMARK    2  A    between atoms: O_1  and  C_14 
REMARK    3  A    between atoms: O_2  and  C_18 
REMARK    4  A    between atoms: C_10  and  C_13 
ROOT
HETATM    1  O   UNL     1      13.325   9.198  10.194  1.00  0.00    -0.343 OA
ENDROOT
BRANCH   1   2
HETATM    2  C   UNL     1      12.760   8.703  11.401  1.00  0.00     0.129 C 
HETATM    3  C   UNL     1      11.493   7.923  11.085  1.00  0.00     0.032 C 
HETATM    4  C   UNL     1      10.425   8.996  10.883  1.00  0.00     0.002 C 
HETATM    5  C   UNL     1      10.926  10.243  11.611  1.00  0.00     0.002 C 
HETATM    6  C   UNL     1      12.252   9.850  12.259  1.00  0.00     0.032 C 
ENDBRANCH   1   2
BRANCH   1   7
HETATM    7  C   UNL     1      14.281   8.421   9.594  1.00  0.00     0.103 A 
HETATM    8  C   UNL     1      15.430   8.090  10.305  1.00  0.00     0.047 A 
HETATM    9  C   UNL     1      16.410   7.301   9.706  1.00  0.00    -0.049 A 
HETATM   10  C   UNL     1      16.238   6.847   8.398  1.00  0.00     0.010 A 
HETATM   11  C   UNL     1      15.083   7.182   7.691  1.00  0.00     0.040 A 
HETATM   12  C   UNL     1      14.102   7.972   8.291  1.00  0.00     0.101 A 
BRANCH   9  13
HETATM   13  C   UNL     1      17.662   6.936  10.474  1.00  0.00     0.045 C 
HETATM   14  C   UNL     1      18.010   7.846  11.654  1.00  0.00     0.132 C 
HETATM   15  N   UNL     1      19.417   7.635  11.847  1.00  0.00    -0.360 N 
HETATM   16  C   UNL     1      20.038   7.120  10.717  1.00  0.00     0.218 C 
HETATM   17  H   UNL     1      19.889   7.835  12.687  1.00  0.00     0.162 HD
HETATM   18  O   UNL     1      21.227   6.882  10.567  1.00  0.00    -0.274 OA
HETATM   19  C   UNL     1      18.973   6.950   9.663  1.00  0.00     0.113 C 
ENDBRANCH   9  13
BRANCH  12  20
HETATM   20  O   UNL     1      12.980   8.294   7.589  1.00  0.00    -0.353 OA
HETATM   21  C   UNL     1      12.007   7.265   7.416  1.00  0.00     0.210 C 
ENDBRANCH  12  20
ENDBRANCH   1   7
TORSDOF 4
ENDMDL
MODEL 7
REMARK VINA RESULT:      -6.4      3.721      5.857
REMARK  4 active torsions:
REMARK  status: ('A' for Active; 'I' for Inactive)
REMARK    1  A    between atoms: O_1  and  C_5 
REMARK    2  A    between atoms: O_1  and  C_14 
REMARK    3  A    between atoms: O_2  and  C_18 
REMARK    4  A    between atoms: C_10  and  C_13 
ROOT
HETATM    1  O   UNL     1      15.978   8.366  13.856  1.00  0.00    -0.343 OA
ENDROOT
BRANCH   1   2
HETATM    2  C   UNL     1      17.242   7.770  14.116  1.00  0.00     0.129 C 
HETATM    3  C   UNL     1      17.733   8.203  15.489  1.00  0.00     0.032 C 
HETATM    4  C   UNL     1      18.302   9.603  15.268  1.00  0.00     0.002 C 
HETATM    5  C   UNL     1      18.637   9.699  13.780  1.00  0.00     0.002 C 
HETATM    6  C   UNL     1      18.298   8.336  13.180  1.00  0.00     0.032 C 
ENDBRANCH   1   2
BRANCH   1   7
HETATM    7  C   UNL     1      15.070   7.611  13.160  1.00  0.00     0.103 A 
HETATM    8  C   UNL     1      15.016   7.723  11.774  1.00  0.00     0.047 A 
HETATM    9  C   UNL     1      14.096   6.961  11.055  1.00  0.00    -0.049 A 
HETATM   10  C   UNL     1      13.234   6.092  11.724  1.00  0.00     0.010 A 
HETATM   11  C   UNL     1      13.294   5.985  13.113  1.00  0.00     0.040 A 
HETATM   12  C   UNL     1      14.214   6.747  13.833  1.00  0.00     0.101 A 
BRANCH   9  13
HETATM   13  C   UNL     1      14.032   7.077   9.547  1.00  0.00     0.045 C 
HETATM   14  C   UNL     1      14.356   8.456   8.970  1.00  0.00     0.132 C 
HETATM   15  N   UNL     1      13.731   8.443   7.678  1.00  0.00    -0.360 N 
HETATM   16  C   UNL     1      12.727   7.488   7.581  1.00  0.00     0.218 C 
HETATM   17  H   UNL     1      13.985   9.044   6.941  1.00  0.00     0.162 HD
HETATM   18  O   UNL     1      11.995   7.274   6.627  1.00  0.00    -0.274 OA
HETATM   19  C   UNL     1      12.661   6.777   8.910  1.00  0.00     0.113 C 
ENDBRANCH   9  13
BRANCH  12  20
HETATM   20  O   UNL     1      14.261   6.634  15.190  1.00  0.00    -0.353 OA
HETATM   21  C   UNL     1      13.014   6.577  15.879  1.00  0.00     0.210 C 
ENDBRANCH  12  20
ENDBRANCH   1   7
TORSDOF 4
ENDMDL
MODEL 8
REMARK VINA RESULT:      -6.3      3.585      5.738
REMARK  4 active torsions:
REMARK  status: ('A' for Active; 'I' for Inactive)
REMARK    1  A    between atoms: O_1  and  C_5 
REMARK    2  A    between atoms: O_1  and  C_14 
REMARK    3  A    between atoms: O_2  and  C_18 
REMARK    4  A    between atoms: C_10  and  C_13 
ROOT
HETATM    1  O   UNL     1      13.389   6.404   9.608  1.00  0.00    -0.343 OA
ENDROOT
BRANCH   1   2
HETATM    2  C   UNL     1      12.644   7.562   9.251  1.00  0.00     0.129 C 
HETATM    3  C   UNL     1      11.165   7.311   9.506  1.00  0.00     0.032 C 
HETATM    4  C   UNL     1      10.703   6.494   8.301  1.00  0.00     0.002 C 
HETATM    5  C   UNL     1      11.705   6.775   7.182  1.00  0.00     0.002 C 
HETATM    6  C   UNL     1      12.700   7.786   7.749  1.00  0.00     0.032 C 
ENDBRANCH   1   2
BRANCH   1   7
HETATM    7  C   UNL     1      14.330   6.554  10.592  1.00  0.00     0.103 A 
HETATM    8  C   UNL     1      13.945   6.432  11.923  1.00  0.00     0.047 A 
HETATM    9  C   UNL     1      14.893   6.584  12.933  1.00  0.00    -0.049 A 
HETATM   10  C   UNL     1      16.222   6.857  12.609  1.00  0.00     0.010 A 
HETATM   11  C   UNL     1      16.602   6.977  11.272  1.00  0.00     0.040 A 
HETATM   12  C   UNL     1      15.653   6.826  10.261  1.00  0.00     0.101 A 
BRANCH   9  13
HETATM   13  C   UNL     1      14.481   6.452  14.384  1.00  0.00     0.045 C 
HETATM   14  C   UNL     1      13.042   6.857  14.708  1.00  0.00     0.132 C 
HETATM   15  N   UNL     1      13.076   7.147  16.114  1.00  0.00    -0.360 N 
HETATM   16  C   UNL     1      14.358   7.421  16.571  1.00  0.00     0.218 C 
HETATM   17  H   UNL     1      12.278   7.151  16.690  1.00  0.00     0.162 HD
HETATM   18  O   UNL     1      14.690   7.742  17.701  1.00  0.00    -0.274 OA
HETATM   19  C   UNL     1      15.287   7.299  15.388  1.00  0.00     0.113 C 
ENDBRANCH   9  13
BRANCH  12  20
HETATM   20  O   UNL     1      16.036   6.948   8.959  1.00  0.00    -0.353 OA
HETATM   21  C   UNL     1      17.397   6.650   8.654  1.00  0.00     0.210 C 
ENDBRANCH  12  20
ENDBRANCH   1   7
TORSDOF 4
ENDMDL
MODEL 9
REMARK VINA RESULT:      -6.3      1.230      3.369
REMARK  4 active torsions:
REMARK  status: ('A' for Active; 'I' for Inactive)
REMARK    1  A    between atoms: O_1  and  C_5 
REMARK    2  A    between atoms: O_1  and  C_14 
REMARK    3  A    between atoms: O_2  and  C_18 
REMARK    4  A    between atoms: C_10  and  C_13 
ROOT
HETATM    1  O   UNL     1      12.634   6.457   9.617  1.00  0.00    -0.343 OA
ENDROOT
BRANCH   1   2
HETATM    2  C   UNL     1      11.868   7.465   8.969  1.00  0.00     0.129 C 
HETATM    3  C   UNL     1      10.422   7.006   8.853  1.00  0.00     0.032 C 
HETATM    4  C   UNL     1      10.416   6.059   7.655  1.00  0.00     0.002 C 
HETATM    5  C   UNL     1      11.638   6.426   6.813  1.00  0.00     0.002 C 
HETATM    6  C   UNL     1      12.299   7.608   7.518  1.00  0.00     0.032 C 
ENDBRANCH   1   2
BRANCH   1   7
HETATM    7  C   UNL     1      13.756   6.869  10.287  1.00  0.00     0.103 A 
HETATM    8  C   UNL     1      14.976   6.893   9.617  1.00  0.00     0.047 A 
HETATM    9  C   UNL     1      16.124   7.309  10.288  1.00  0.00    -0.049 A 
HETATM   10  C   UNL     1      16.050   7.699  11.625  1.00  0.00     0.010 A 
HETATM   11  C   UNL     1      14.824   7.674  12.290  1.00  0.00     0.040 A 
HETATM   12  C   UNL     1      13.674   7.257  11.619  1.00  0.00     0.101 A 
BRANCH   9  13
HETATM   13  C   UNL     1      17.454   7.337   9.566  1.00  0.00     0.045 C 
HETATM   14  C   UNL     1      17.406   7.030   8.068  1.00  0.00     0.132 C 
HETATM   15  N   UNL     1      18.743   6.605   7.762  1.00  0.00    -0.360 N 
HETATM   16  C   UNL     1      19.437   6.177   8.886  1.00  0.00     0.218 C 
HETATM   17  H   UNL     1      19.125   6.616   6.855  1.00  0.00     0.162 HD
HETATM   18  O   UNL     1      20.568   5.720   8.930  1.00  0.00    -0.274 OA
HETATM   19  C   UNL     1      18.508   6.329  10.065  1.00  0.00     0.113 C 
ENDBRANCH   9  13
BRANCH  12  20
HETATM   20  O   UNL     1      12.483   7.236  12.281  1.00  0.00    -0.353 OA
HETATM   21  C   UNL     1      11.888   8.496  12.585  1.00  0.00     0.210 C 
ENDBRANCH  12  20
ENDBRANCH   1   7
TORSDOF 4
ENDMDL
