MODEL 1
REMARK VINA RESULT:      -7.2      0.000      0.000
REMARK  4 active torsions:
REMARK  status: ('A' for Active; 'I' for Inactive)
REMARK    1  A    between atoms: O_1  and  C_5 
REMARK    2  A    between atoms: O_1  and  C_14 
REMARK    3  A    between atoms: O_2  and  C_18 
REMARK    4  A    between atoms: C_10  and  C_13 
ROOT
HETATM    1  O   UNL     1      13.754   5.645  13.514  1.00  0.00    -0.343 OA
ENDROOT
BRANCH   1   2
HETATM    2  C   UNL     1      13.766   6.797  14.346  1.00  0.00     0.129 C 
HETATM    3  C   UNL     1      12.522   6.804  15.222  1.00  0.00     0.032 C 
HETATM    4  C   UNL     1      11.415   7.326  14.308  1.00  0.00     0.002 C 
HETATM    5  C   UNL     1      12.111   8.105  13.193  1.00  0.00     0.002 C 
HETATM    6  C   UNL     1      13.604   8.057  13.510  1.00  0.00     0.032 C 
ENDBRANCH   1   2
BRANCH   1   7
HETATM    7  C   UNL     1      14.694   5.590  12.519  1.00  0.00     0.103 A 
HETATM    8  C   UNL     1      16.018   5.893  12.820  1.00  0.00     0.047 A 
HETATM    9  C   UNL     1      16.984   5.843  11.817  1.00  0.00    -0.049 A 
HETATM   10  C   UNL     1      16.622   5.491  10.516  1.00  0.00     0.010 A 
HETATM   11  C   UNL     1      15.293   5.188  10.221  1.00  0.00     0.040 A 
HETATM   12  C   UNL     1      14.326   5.239  11.225  1.00  0.00     0.101 A 
BRANCH   9  13
HETATM   13  C   UNL     1      18.427   6.170  12.137  1.00  0.00     0.045 C 
HETATM   14  C   UNL     1      19.394   6.151  10.953  1.00  0.00     0.132 C 
HETATM   15  N   UNL     1      20.680   5.958  11.563  1.00  0.00    -0.360 N 
HETATM   16  C   UNL     1      20.589   5.412  12.836  1.00  0.00     0.218 C 
HETATM   17  H   UNL     1      21.531   6.188  11.127  1.00  0.00     0.162 HD
HETATM   18  O   UNL     1      21.508   5.097  13.576  1.00  0.00    -0.274 OA
HETATM   19  C   UNL     1      19.122   5.222  13.134  1.00  0.00     0.113 C 
ENDBRANCH   9  13
BRANCH  12  20
HETATM   20  O   UNL     1      13.031   4.943  10.924  1.00  0.00    -0.353 OA
HETATM   21  C   UNL     1      12.781   4.351   9.650  1.00  0.00     0.210 C 
ENDBRANCH  12  20
ENDBRANCH   1   7
TORSDOF 4
ENDMDL
MODEL 2
REMARK VINA RESULT:      -7.0      2.968      5.744
REMARK  4 active torsions:
REMARK  status: ('A' for Active; 'I' for Inactive)
REMARK    1  A    between atoms: O_1  and  C_5 
REMARK    2  A    between atoms: O_1  and  C_14 
REMARK    3  A    between atoms: O_2  and  C_18 
REMARK    4  A    between atoms: C_10  and  C_13 
ROOT
HETATM    1  O   UNL     1      16.298   5.134  11.154  1.00  0.00    -0.343 OA
ENDROOT
BRANCH   1   2
HETATM    2  C   UNL     1      16.861   6.436  11.044  1.00  0.00     0.129 C 
HETATM    3  C   UNL     1      18.204   6.349  10.335  1.00  0.00     0.032 C 
HETATM    4  C   UNL     1      19.178   5.887  11.417  1.00  0.00     0.002 C 
HETATM    5  C   UNL     1      18.541   6.259  12.755  1.00  0.00     0.002 C 
HETATM    6  C   UNL     1      17.232   6.971  12.418  1.00  0.00     0.032 C 
ENDBRANCH   1   2
BRANCH   1   7
HETATM    7  C   UNL     1      14.976   5.061  11.503  1.00  0.00     0.103 A 
HETATM    8  C   UNL     1      14.614   5.247  12.834  1.00  0.00     0.047 A 
HETATM    9  C   UNL     1      13.271   5.173  13.201  1.00  0.00    -0.049 A 
HETATM   10  C   UNL     1      12.296   4.913  12.238  1.00  0.00     0.010 A 
HETATM   11  C   UNL     1      12.666   4.727  10.906  1.00  0.00     0.040 A 
HETATM   12  C   UNL     1      14.009   4.800  10.538  1.00  0.00     0.101 A 
BRANCH   9  13
HETATM   13  C   UNL     1      12.870   5.376  14.647  1.00  0.00     0.045 C 
HETATM   14  C   UNL     1      12.051   6.634  14.942  1.00  0.00     0.132 C 
HETATM   15  N   UNL     1      12.264   6.860  16.343  1.00  0.00    -0.360 N 
HETATM   16  C   UNL     1      13.409   6.235  16.817  1.00  0.00     0.218 C 
HETATM   17  H   UNL     1      11.664   7.400  16.907  1.00  0.00     0.162 HD
HETATM   18  O   UNL     1      13.868   6.284  17.948  1.00  0.00    -0.274 OA
HETATM   19  C   UNL     1      14.032   5.508  15.651  1.00  0.00     0.113 C 
ENDBRANCH   9  13
BRANCH  12  20
HETATM   20  O   UNL     1      14.357   4.616   9.234  1.00  0.00    -0.353 OA
HETATM   21  C   UNL     1      13.674   3.587   8.520  1.00  0.00     0.210 C 
ENDBRANCH  12  20
ENDBRANCH   1   7
TORSDOF 4
ENDMDL
MODEL 3
REMARK VINA RESULT:      -7.0      2.740      6.341
REMARK  4 active torsions:
REMARK  status: ('A' for Active; 'I' for Inactive)
REMARK    1  A    between atoms: O_1  and  C_5 
REMARK    2  A    between atoms: O_1  and  C_14 
REMARK    3  A    between atoms: O_2  and  C_18 
REMARK    4  A    between atoms: C_10  and  C_13 
ROOT
HETATM    1  O   UNL     1      17.517   5.760  13.624  1.00  0.00    -0.343 OA
ENDROOT
BRANCH   1   2
HETATM    2  C   UNL     1      18.517   6.510  12.947  1.00  0.00     0.129 C 
HETATM    3  C   UNL     1      19.238   5.612  11.953  1.00  0.00     0.032 C 
HETATM    4  C   UNL     1      20.233   4.823  12.803  1.00  0.00     0.002 C 
HETATM    5  C   UNL     1      20.456   5.642  14.073  1.00  0.00     0.002 C 
HETATM    6  C   UNL     1      19.622   6.911  13.911  1.00  0.00     0.032 C 
ENDBRANCH   1   2
BRANCH   1   7
HETATM    7  C   UNL     1      16.213   6.093  13.365  1.00  0.00     0.103 A 
HETATM    8  C   UNL     1      15.575   5.527  12.266  1.00  0.00     0.047 A 
HETATM    9  C   UNL     1      14.249   5.859  11.991  1.00  0.00    -0.049 A 
HETATM   10  C   UNL     1      13.568   6.755  12.815  1.00  0.00     0.010 A 
HETATM   11  C   UNL     1      14.214   7.318  13.916  1.00  0.00     0.040 A 
HETATM   12  C   UNL     1      15.540   6.986  14.191  1.00  0.00     0.101 A 
BRANCH   9  13
HETATM   13  C   UNL     1      13.548   5.248  10.797  1.00  0.00     0.045 C 
HETATM   14  C   UNL     1      12.655   4.042  11.094  1.00  0.00     0.132 C 
HETATM   15  N   UNL     1      12.561   3.365   9.831  1.00  0.00    -0.360 N 
HETATM   16  C   UNL     1      13.597   3.701   8.969  1.00  0.00     0.218 C 
HETATM   17  H   UNL     1      11.843   2.732   9.603  1.00  0.00     0.162 HD
HETATM   18  O   UNL     1      13.806   3.255   7.851  1.00  0.00    -0.274 OA
HETATM   19  C   UNL     1      14.468   4.699   9.689  1.00  0.00     0.113 C 
ENDBRANCH   9  13
BRANCH  12  20
HETATM   20  O   UNL     1      16.161   7.544  15.268  1.00  0.00    -0.353 OA
HETATM   21  C   UNL     1      15.768   7.074  16.556  1.00  0.00     0.210 C 
ENDBRANCH  12  20
ENDBRANCH   1   7
TORSDOF 4
ENDMDL
MODEL 4
REMARK VINA RESULT:      -6.8      0.963      1.047
REMARK  4 active torsions:
REMARK  status: ('A' for Active; 'I' for Inactive)
REMARK    1  A    between atoms: O_1  and  C_5 
REMARK    2  A    between atoms: O_1  and  C_14 
REMARK    3  A    between atoms: O_2  and  C_18 
REMARK    4  A    between atoms: C_10  and  C_13 
ROOT
HETATM    1  O   UNL     1      14.025   5.802  13.496  1.00  0.00    -0.343 OA
ENDROOT
BRANCH   1   2
HETATM    2  C   UNL     1      13.987   6.978  14.294  1.00  0.00     0.129 C 
HETATM    3  C   UNL     1      12.868   6.859  15.318  1.00  0.00     0.032 C 
HETATM    4  C   UNL     1      11.599   7.199  14.539  1.00  0.00     0.002 C 
HETATM    5  C   UNL     1      12.045   8.017  13.328  1.00  0.00     0.002 C 
HETATM    6  C   UNL     1      13.559   8.173  13.457  1.00  0.00     0.032 C 
ENDBRANCH   1   2
BRANCH   1   7
HETATM    7  C   UNL     1      14.984   5.750  12.518  1.00  0.00     0.103 A 
HETATM    8  C   UNL     1      16.304   6.043  12.847  1.00  0.00     0.047 A 
HETATM    9  C   UNL     1      17.288   5.995  11.861  1.00  0.00    -0.049 A 
HETATM   10  C   UNL     1      16.949   5.655  10.551  1.00  0.00     0.010 A 
HETATM   11  C   UNL     1      15.624   5.362  10.229  1.00  0.00     0.040 A 
HETATM   12  C   UNL     1      14.639   5.410  11.215  1.00  0.00     0.101 A 
BRANCH   9  13
HETATM   13  C   UNL     1      18.726   6.312  12.211  1.00  0.00     0.045 C 
HETATM   14  C   UNL     1      19.637   5.105  12.444  1.00  0.00     0.132 C 
HETATM   15  N   UNL     1      20.708   5.633  13.241  1.00  0.00    -0.360 N 
HETATM   16  C   UNL     1      20.360   6.810  13.891  1.00  0.00     0.218 C 
HETATM   17  H   UNL     1      21.593   5.208  13.318  1.00  0.00     0.162 HD
HETATM   18  O   UNL     1      21.043   7.459  14.667  1.00  0.00    -0.274 OA
HETATM   19  C   UNL     1      18.937   7.126  13.503  1.00  0.00     0.113 C 
ENDBRANCH   9  13
BRANCH  12  20
HETATM   20  O   UNL     1      13.348   5.124  10.887  1.00  0.00    -0.353 OA
HETATM   21  C   UNL     1      13.137   4.076   9.943  1.00  0.00     0.210 C 
ENDBRANCH  12  20
ENDBRANCH   1   7
TORSDOF 4
ENDMDL
MODEL 5
REMARK VINA RESULT:      -6.7      3.133      5.663
REMARK  4 active torsions:
REMARK  status: ('A' for Active; 'I' for Inactive)
REMARK    1  A    between atoms: O_1  and  C_5 
REMARK    2  A    between atoms: O_1  and  C_14 
REMARK    3  A    between atoms: O_2  and  C_18 
REMARK    4  A    between atoms: C_10  and  C_13 
ROOT
HETATM    1  O   UNL     1      15.697   5.353  15.954  1.00  0.00    -0.343 OA
ENDROOT
BRANCH   1   2
HETATM    2  C   UNL     1      14.929   6.401  16.531  1.00  0.00     0.129 C 
HETATM    3  C   UNL     1      15.862   7.461  17.097  1.00  0.00     0.032 C 
HETATM    4  C   UNL     1      16.318   6.891  18.439  1.00  0.00     0.002 C 
HETATM    5  C   UNL     1      15.261   5.868  18.852  1.00  0.00     0.002 C 
HETATM    6  C   UNL     1      14.191   5.900  17.763  1.00  0.00     0.032 C 
ENDBRANCH   1   2
BRANCH   1   7
HETATM    7  C   UNL     1      15.991   5.465  14.620  1.00  0.00     0.103 A 
HETATM    8  C   UNL     1      14.966   5.348  13.688  1.00  0.00     0.047 A 
HETATM    9  C   UNL     1      15.252   5.458  12.328  1.00  0.00    -0.049 A 
HETATM   10  C   UNL     1      16.562   5.685  11.906  1.00  0.00     0.010 A 
HETATM   11  C   UNL     1      17.586   5.802  12.847  1.00  0.00     0.040 A 
HETATM   12  C   UNL     1      17.300   5.691  14.207  1.00  0.00     0.101 A 
BRANCH   9  13
HETATM   13  C   UNL     1      14.141   5.332  11.308  1.00  0.00     0.045 C 
HETATM   14  C   UNL     1      13.038   4.327  11.644  1.00  0.00     0.132 C 
HETATM   15  N   UNL     1      12.455   4.017  10.369  1.00  0.00    -0.360 N 
HETATM   16  C   UNL     1      13.305   4.309   9.310  1.00  0.00     0.218 C 
HETATM   17  H   UNL     1      11.553   3.640  10.257  1.00  0.00     0.162 HD
HETATM   18  O   UNL     1      13.104   4.113   8.121  1.00  0.00    -0.274 OA
HETATM   19  C   UNL     1      14.572   4.875   9.901  1.00  0.00     0.113 C 
ENDBRANCH   9  13
BRANCH  12  20
HETATM   20  O   UNL     1      18.309   5.805  15.116  1.00  0.00    -0.353 OA
HETATM   21  C   UNL     1      19.303   4.783  15.111  1.00  0.00     0.210 C 
ENDBRANCH  12  20
ENDBRANCH   1   7
TORSDOF 4
ENDMDL
MODEL 6
REMARK VINA RESULT:      -6.7      3.151      5.748
REMARK  4 active torsions:
REMARK  status: ('A' for Active; 'I' for Inactive)
REMARK    1  A    between atoms: O_1  and  C_5 
REMARK    2  A    between atoms: O_1  and  C_14 
REMARK    3  A    between atoms: O_2  and  C_18 
REMARK    4  A    between atoms: C_10  and  C_13 
ROOT
HETATM    1  O   UNL     1      14.718   4.732  10.843  1.00  0.00    -0.343 OA
ENDROOT
BRANCH   1   2
HETATM    2  C   UNL     1      13.381   4.931  10.400  1.00  0.00     0.129 C 
HETATM    3  C   UNL     1      12.539   3.720  10.769  1.00  0.00     0.032 C 
HETATM    4  C   UNL     1      12.869   2.683   9.697  1.00  0.00     0.002 C 
HETATM    5  C   UNL     1      13.400   3.463   8.495  1.00  0.00     0.002 C 
HETATM    6  C   UNL     1      13.323   4.939   8.880  1.00  0.00     0.032 C 
ENDBRANCH   1   2
BRANCH   1   7
HETATM    7  C   UNL     1      15.112   5.435  11.951  1.00  0.00     0.103 A 
HETATM    8  C   UNL     1      14.447   5.230  13.156  1.00  0.00     0.047 A 
HETATM    9  C   UNL     1      14.838   5.940  14.290  1.00  0.00    -0.049 A 
HETATM   10  C   UNL     1      15.892   6.851  14.215  1.00  0.00     0.010 A 
HETATM   11  C   UNL     1      16.555   7.051  13.004  1.00  0.00     0.040 A 
HETATM   12  C   UNL     1      16.163   6.341  11.869  1.00  0.00     0.101 A 
BRANCH   9  13
HETATM   13  C   UNL     1      14.119   5.722  15.604  1.00  0.00     0.045 C 
HETATM   14  C   UNL     1      12.883   6.591  15.840  1.00  0.00     0.132 C 
HETATM   15  N   UNL     1      12.729   6.588  17.267  1.00  0.00    -0.360 N 
HETATM   16  C   UNL     1      13.903   6.254  17.930  1.00  0.00     0.218 C 
HETATM   17  H   UNL     1      11.884   6.800  17.726  1.00  0.00     0.162 HD
HETATM   18  O   UNL     1      14.089   6.213  19.136  1.00  0.00    -0.274 OA
HETATM   19  C   UNL     1      14.949   5.994  16.874  1.00  0.00     0.113 C 
ENDBRANCH   9  13
BRANCH  12  20
HETATM   20  O   UNL     1      16.817   6.547  10.692  1.00  0.00    -0.353 OA
HETATM   21  C   UNL     1      18.163   6.080  10.608  1.00  0.00     0.210 C 
ENDBRANCH  12  20
ENDBRANCH   1   7
TORSDOF 4
ENDMDL
MODEL 7
REMARK VINA RESULT:      -6.6      3.059      5.889
REMARK  4 active torsions:
REMARK  status: ('A' for Active; 'I' for Inactive)
REMARK    1  A    between atoms: O_1  and  C_5 
REMARK    2  A    between atoms: O_1  and  C_14 
REMARK    3  A    between atoms: O_2  and  C_18 
REMARK    4  A    between atoms: C_10  and  C_13 
ROOT
HETATM    1  O   UNL     1      15.374   6.976  13.767  1.00  0.00    -0.343 OA
ENDROOT
BRANCH   1   2
HETATM    2  C   UNL     1      16.400   6.107  13.303  1.00  0.00     0.129 C 
HETATM    3  C   UNL     1      17.137   5.513  14.494  1.00  0.00     0.032 C 
HETATM    4  C   UNL     1      18.101   6.614  14.934  1.00  0.00     0.002 C 
HETATM    5  C   UNL     1      18.299   7.521  13.720  1.00  0.00     0.002 C 
HETATM    6  C   UNL     1      17.483   6.899  12.589  1.00  0.00     0.032 C 
ENDBRANCH   1   2
BRANCH   1   7
HETATM    7  C   UNL     1      14.146   6.854  13.173  1.00  0.00     0.103 A 
HETATM    8  C   UNL     1      13.963   5.894  12.182  1.00  0.00     0.047 A 
HETATM    9  C   UNL     1      12.719   5.761  11.569  1.00  0.00    -0.049 A 
HETATM   10  C   UNL     1      11.662   6.589  11.948  1.00  0.00     0.010 A 
HETATM   11  C   UNL     1      11.851   7.549  12.942  1.00  0.00     0.040 A 
HETATM   12  C   UNL     1      13.096   7.683  13.555  1.00  0.00     0.101 A 
BRANCH   9  13
HETATM   13  C   UNL     1      12.514   4.718  10.492  1.00  0.00     0.045 C 
HETATM   14  C   UNL     1      12.466   3.266  10.969  1.00  0.00     0.132 C 
HETATM   15  N   UNL     1      12.797   2.508   9.796  1.00  0.00    -0.360 N 
HETATM   16  C   UNL     1      13.468   3.264   8.845  1.00  0.00     0.218 C 
HETATM   17  H   UNL     1      12.574   1.556   9.680  1.00  0.00     0.162 HD
HETATM   18  O   UNL     1      13.913   2.884   7.773  1.00  0.00    -0.274 OA
HETATM   19  C   UNL     1      13.600   4.661   9.400  1.00  0.00     0.113 C 
ENDBRANCH   9  13
BRANCH  12  20
HETATM   20  O   UNL     1      13.269   8.626  14.523  1.00  0.00    -0.353 OA
HETATM   21  C   UNL     1      12.700   9.912  14.283  1.00  0.00     0.210 C 
ENDBRANCH  12  20
ENDBRANCH   1   7
TORSDOF 4
ENDMDL
MODEL 8
REMARK VINA RESULT:      -6.5      3.739      5.875
REMARK  4 active torsions:
REMARK  status: ('A' for Active; 'I' for Inactive)
REMARK    1  A    between atoms: O_1  and  C_5 
REMARK    2  A    between atoms: O_1  and  C_14 
REMARK    3  A    between atoms: O_2  and  C_18 
REMARK    4  A    between atoms: C_10  and  C_13 
ROOT
HETATM    1  O   UNL     1      16.699   8.136  16.404  1.00  0.00    -0.343 OA
ENDROOT
BRANCH   1   2
HETATM    2  C   UNL     1      17.976   7.813  16.939  1.00  0.00     0.129 C 
HETATM    3  C   UNL     1      18.124   8.446  18.315  1.00  0.00     0.032 C 
HETATM    4  C   UNL     1      18.477   9.904  18.029  1.00  0.00     0.002 C 
HETATM    5  C   UNL     1      19.060   9.935  16.616  1.00  0.00     0.002 C 
HETATM    6  C   UNL     1      19.075   8.486  16.132  1.00  0.00     0.032 C 
ENDBRANCH   1   2
BRANCH   1   7
HETATM    7  C   UNL     1      16.020   7.126  15.775  1.00  0.00     0.103 A 
HETATM    8  C   UNL     1      16.202   6.934  14.409  1.00  0.00     0.047 A 
HETATM    9  C   UNL     1      15.515   5.911  13.757  1.00  0.00    -0.049 A 
HETATM   10  C   UNL     1      14.649   5.085  14.473  1.00  0.00     0.010 A 
HETATM   11  C   UNL     1      14.472   5.282  15.842  1.00  0.00     0.040 A 
HETATM   12  C   UNL     1      15.158   6.306  16.495  1.00  0.00     0.101 A 
BRANCH   9  13
HETATM   13  C   UNL     1      15.709   5.697  12.271  1.00  0.00     0.045 C 
HETATM   14  C   UNL     1      15.958   6.959  11.442  1.00  0.00     0.132 C 
HETATM   15  N   UNL     1      15.581   6.574  10.111  1.00  0.00    -0.360 N 
HETATM   16  C   UNL     1      14.737   5.472  10.094  1.00  0.00     0.218 C 
HETATM   17  H   UNL     1      15.887   7.041   9.301  1.00  0.00     0.162 HD
HETATM   18  O   UNL     1      14.220   4.948   9.119  1.00  0.00    -0.274 OA
HETATM   19  C   UNL     1      14.522   5.054  11.527  1.00  0.00     0.113 C 
ENDBRANCH   9  13
BRANCH  12  20
HETATM   20  O   UNL     1      14.975   6.489  17.832  1.00  0.00    -0.353 OA
HETATM   21  C   UNL     1      13.731   6.057  18.381  1.00  0.00     0.210 C 
ENDBRANCH  12  20
ENDBRANCH   1   7
TORSDOF 4
ENDMDL
MODEL 9
REMARK VINA RESULT:      -6.4      3.574      5.929
REMARK  4 active torsions:
REMARK  status: ('A' for Active; 'I' for Inactive)
REMARK    1  A    between atoms: O_1  and  C_5 
REMARK    2  A    between atoms: O_1  and  C_14 
REMARK    3  A    between atoms: O_2  and  C_18 
REMARK    4  A    between atoms: C_10  and  C_13 
ROOT
HETATM    1  O   UNL     1      15.265   4.964  12.180  1.00  0.00    -0.343 OA
ENDROOT
BRANCH   1   2
HETATM    2  C   UNL     1      14.380   5.837  11.489  1.00  0.00     0.129 C 
HETATM    3  C   UNL     1      12.955   5.322  11.620  1.00  0.00     0.032 C 
HETATM    4  C   UNL     1      12.856   4.205  10.584  1.00  0.00     0.002 C 
HETATM    5  C   UNL     1      13.952   4.476   9.554  1.00  0.00     0.002 C 
HETATM    6  C   UNL     1      14.633   5.771   9.991  1.00  0.00     0.032 C 
ENDBRANCH   1   2
BRANCH   1   7
HETATM    7  C   UNL     1      15.814   5.434  13.344  1.00  0.00     0.103 A 
HETATM    8  C   UNL     1      15.087   5.333  14.526  1.00  0.00     0.047 A 
HETATM    9  C   UNL     1      15.633   5.809  15.716  1.00  0.00    -0.049 A 
HETATM   10  C   UNL     1      16.904   6.384  15.720  1.00  0.00     0.010 A 
HETATM   11  C   UNL     1      17.628   6.481  14.532  1.00  0.00     0.040 A 
HETATM   12  C   UNL     1      17.081   6.006  13.341  1.00  0.00     0.101 A 
BRANCH   9  13
HETATM   13  C   UNL     1      14.848   5.703  17.006  1.00  0.00     0.045 C 
HETATM   14  C   UNL     1      13.406   6.210  16.952  1.00  0.00     0.132 C 
HETATM   15  N   UNL     1      13.090   6.492  18.324  1.00  0.00    -0.360 N 
HETATM   16  C   UNL     1      14.224   6.670  19.106  1.00  0.00     0.218 C 
HETATM   17  H   UNL     1      12.171   6.552  18.672  1.00  0.00     0.162 HD
HETATM   18  O   UNL     1      14.270   6.963  20.291  1.00  0.00    -0.274 OA
HETATM   19  C   UNL     1      15.419   6.486  18.204  1.00  0.00     0.113 C 
ENDBRANCH   9  13
BRANCH  12  20
HETATM   20  O   UNL     1      17.798   6.108  12.186  1.00  0.00    -0.353 OA
HETATM   21  C   UNL     1      19.148   5.649  12.219  1.00  0.00     0.210 C 
ENDBRANCH  12  20
ENDBRANCH   1   7
TORSDOF 4
ENDMDL
