MODEL 1
REMARK VINA RESULT:      -7.2      0.000      0.000
REMARK  4 active torsions:
REMARK  status: ('A' for Active; 'I' for Inactive)
REMARK    1  A    between atoms: O_1  and  C_5 
REMARK    2  A    between atoms: O_1  and  C_14 
REMARK    3  A    between atoms: O_2  and  C_18 
REMARK    4  A    between atoms: C_10  and  C_13 
ROOT
HETATM    1  O   UNL     1      13.708   5.629  13.509  1.00  0.00    -0.343 OA
ENDROOT
BRANCH   1   2
HETATM    2  C   UNL     1      13.705   6.789  14.331  1.00  0.00     0.129 C 
HETATM    3  C   UNL     1      12.445   6.802  15.184  1.00  0.00     0.032 C 
HETATM    4  C   UNL     1      11.354   7.316  14.247  1.00  0.00     0.002 C 
HETATM    5  C   UNL     1      12.069   8.085  13.137  1.00  0.00     0.002 C 
HETATM    6  C   UNL     1      13.556   8.041  13.481  1.00  0.00     0.032 C 
ENDBRANCH   1   2
BRANCH   1   7
HETATM    7  C   UNL     1      14.643   5.583  12.509  1.00  0.00     0.103 A 
HETATM    8  C   UNL     1      15.966   5.899  12.802  1.00  0.00     0.047 A 
HETATM    9  C   UNL     1      16.926   5.857  11.793  1.00  0.00    -0.049 A 
HETATM   10  C   UNL     1      16.561   5.501  10.495  1.00  0.00     0.010 A 
HETATM   11  C   UNL     1      15.233   5.185  10.207  1.00  0.00     0.040 A 
HETATM   12  C   UNL     1      14.271   5.227  11.217  1.00  0.00     0.101 A 
BRANCH   9  13
HETATM   13  C   UNL     1      18.367   6.199  12.105  1.00  0.00     0.045 C 
HETATM   14  C   UNL     1      19.333   6.165  10.919  1.00  0.00     0.132 C 
HETATM   15  N   UNL     1      20.621   5.991  11.530  1.00  0.00    -0.360 N 
HETATM   16  C   UNL     1      20.535   5.466  12.813  1.00  0.00     0.218 C 
HETATM   17  H   UNL     1      21.470   6.218  11.088  1.00  0.00     0.162 HD
HETATM   18  O   UNL     1      21.458   5.170  13.557  1.00  0.00    -0.274 OA
HETATM   19  C   UNL     1      19.070   5.273  13.117  1.00  0.00     0.113 C 
ENDBRANCH   9  13
BRANCH  12  20
HETATM   20  O   UNL     1      12.977   4.918  10.923  1.00  0.00    -0.353 OA
HETATM   21  C   UNL     1      12.753   4.078   9.792  1.00  0.00     0.210 C 
ENDBRANCH  12  20
ENDBRANCH   1   7
TORSDOF 4
ENDMDL
MODEL 2
REMARK VINA RESULT:      -7.0      2.725      6.357
REMARK  4 active torsions:
REMARK  status: ('A' for Active; 'I' for Inactive)
REMARK    1  A    between atoms: O_1  and  C_5 
REMARK    2  A    between atoms: O_1  and  C_14 
REMARK    3  A    between atoms: O_2  and  C_18 
REMARK    4  A    between atoms: C_10  and  C_13 
ROOT
HETATM    1  O   UNL     1      17.549   5.736  13.615  1.00  0.00    -0.343 OA
ENDROOT
BRANCH   1   2
HETATM    2  C   UNL     1      18.523   6.464  12.878  1.00  0.00     0.129 C 
HETATM    3  C   UNL     1      19.259   5.520  11.940  1.00  0.00     0.032 C 
HETATM    4  C   UNL     1      20.282   4.817  12.829  1.00  0.00     0.002 C 
HETATM    5  C   UNL     1      20.495   5.727  14.039  1.00  0.00     0.002 C 
HETATM    6  C   UNL     1      19.625   6.959  13.801  1.00  0.00     0.032 C 
ENDBRANCH   1   2
BRANCH   1   7
HETATM    7  C   UNL     1      16.236   6.054  13.388  1.00  0.00     0.103 A 
HETATM    8  C   UNL     1      15.583   5.495  12.294  1.00  0.00     0.047 A 
HETATM    9  C   UNL     1      14.247   5.812  12.051  1.00  0.00    -0.049 A 
HETATM   10  C   UNL     1      13.571   6.686  12.902  1.00  0.00     0.010 A 
HETATM   11  C   UNL     1      14.232   7.242  13.998  1.00  0.00     0.040 A 
HETATM   12  C   UNL     1      15.568   6.926  14.240  1.00  0.00     0.101 A 
BRANCH   9  13
HETATM   13  C   UNL     1      13.530   5.208  10.863  1.00  0.00     0.045 C 
HETATM   14  C   UNL     1      12.676   3.973  11.157  1.00  0.00     0.132 C 
HETATM   15  N   UNL     1      12.566   3.321   9.883  1.00  0.00    -0.360 N 
HETATM   16  C   UNL     1      13.569   3.702   9.001  1.00  0.00     0.218 C 
HETATM   17  H   UNL     1      11.858   2.674   9.659  1.00  0.00     0.162 HD
HETATM   18  O   UNL     1      13.759   3.286   7.869  1.00  0.00    -0.274 OA
HETATM   19  C   UNL     1      14.434   4.707   9.720  1.00  0.00     0.113 C 
ENDBRANCH   9  13
BRANCH  12  20
HETATM   20  O   UNL     1      16.203   7.477  15.313  1.00  0.00    -0.353 OA
HETATM   21  C   UNL     1      15.894   6.936  16.596  1.00  0.00     0.210 C 
ENDBRANCH  12  20
ENDBRANCH   1   7
TORSDOF 4
ENDMDL
MODEL 3
REMARK VINA RESULT:      -7.0      2.964      5.700
REMARK  4 active torsions:
REMARK  status: ('A' for Active; 'I' for Inactive)
REMARK    1  A    between atoms: O_1  and  C_5 
REMARK    2  A    between atoms: O_1  and  C_14 
REMARK    3  A    between atoms: O_2  and  C_18 
REMARK    4  A    between atoms: C_10  and  C_13 
ROOT
HETATM    1  O   UNL     1      16.284   5.126  11.087  1.00  0.00    -0.343 OA
ENDROOT
BRANCH   1   2
HETATM    2  C   UNL     1      16.851   6.425  10.977  1.00  0.00     0.129 C 
HETATM    3  C   UNL     1      18.225   6.326  10.331  1.00  0.00     0.032 C 
HETATM    4  C   UNL     1      19.149   5.887  11.465  1.00  0.00     0.002 C 
HETATM    5  C   UNL     1      18.451   6.285  12.765  1.00  0.00     0.002 C 
HETATM    6  C   UNL     1      17.159   6.988  12.355  1.00  0.00     0.032 C 
ENDBRANCH   1   2
BRANCH   1   7
HETATM    7  C   UNL     1      14.971   5.055  11.471  1.00  0.00     0.103 A 
HETATM    8  C   UNL     1      14.646   5.225  12.813  1.00  0.00     0.047 A 
HETATM    9  C   UNL     1      13.314   5.154  13.216  1.00  0.00    -0.049 A 
HETATM   10  C   UNL     1      12.312   4.913  12.276  1.00  0.00     0.010 A 
HETATM   11  C   UNL     1      12.644   4.745  10.932  1.00  0.00     0.040 A 
HETATM   12  C   UNL     1      13.977   4.815  10.528  1.00  0.00     0.101 A 
BRANCH   9  13
HETATM   13  C   UNL     1      12.954   5.338  14.674  1.00  0.00     0.045 C 
HETATM   14  C   UNL     1      12.068   6.543  14.996  1.00  0.00     0.132 C 
HETATM   15  N   UNL     1      12.316   6.790  16.388  1.00  0.00    -0.360 N 
HETATM   16  C   UNL     1      13.515   6.239  16.822  1.00  0.00     0.218 C 
HETATM   17  H   UNL     1      11.704   7.294  16.971  1.00  0.00     0.162 HD
HETATM   18  O   UNL     1      14.011   6.322  17.935  1.00  0.00    -0.274 OA
HETATM   19  C   UNL     1      14.140   5.547  15.636  1.00  0.00     0.113 C 
ENDBRANCH   9  13
BRANCH  12  20
HETATM   20  O   UNL     1      14.289   4.647   9.213  1.00  0.00    -0.353 OA
HETATM   21  C   UNL     1      13.794   3.470   8.575  1.00  0.00     0.210 C 
ENDBRANCH  12  20
ENDBRANCH   1   7
TORSDOF 4
ENDMDL
MODEL 4
REMARK VINA RESULT:      -6.7      3.159      5.684
REMARK  4 active torsions:
REMARK  status: ('A' for Active; 'I' for Inactive)
REMARK    1  A    between atoms: O_1  and  C_5 
REMARK    2  A    between atoms: O_1  and  C_14 
REMARK    3  A    between atoms: O_2  and  C_18 
REMARK    4  A    between atoms: C_10  and  C_13 
ROOT
HETATM    1  O   UNL     1      15.756   5.383  15.939  1.00  0.00    -0.343 OA
ENDROOT
BRANCH   1   2
HETATM    2  C   UNL     1      14.937   6.399  16.504  1.00  0.00     0.129 C 
HETATM    3  C   UNL     1      15.814   7.527  17.025  1.00  0.00     0.032 C 
HETATM    4  C   UNL     1      16.326   7.022  18.372  1.00  0.00     0.002 C 
HETATM    5  C   UNL     1      15.339   5.949  18.831  1.00  0.00     0.002 C 
HETATM    6  C   UNL     1      14.251   5.889  17.761  1.00  0.00     0.032 C 
ENDBRANCH   1   2
BRANCH   1   7
HETATM    7  C   UNL     1      16.026   5.480  14.600  1.00  0.00     0.103 A 
HETATM    8  C   UNL     1      14.983   5.356  13.687  1.00  0.00     0.047 A 
HETATM    9  C   UNL     1      15.245   5.451  12.321  1.00  0.00    -0.049 A 
HETATM   10  C   UNL     1      16.548   5.671  11.874  1.00  0.00     0.010 A 
HETATM   11  C   UNL     1      17.589   5.796  12.794  1.00  0.00     0.040 A 
HETATM   12  C   UNL     1      17.327   5.699  14.160  1.00  0.00     0.101 A 
BRANCH   9  13
HETATM   13  C   UNL     1      14.115   5.317  11.323  1.00  0.00     0.045 C 
HETATM   14  C   UNL     1      13.058   4.261  11.650  1.00  0.00     0.132 C 
HETATM   15  N   UNL     1      12.457   3.971  10.379  1.00  0.00    -0.360 N 
HETATM   16  C   UNL     1      13.271   4.328   9.312  1.00  0.00     0.218 C 
HETATM   17  H   UNL     1      11.567   3.564  10.276  1.00  0.00     0.162 HD
HETATM   18  O   UNL     1      13.049   4.163   8.122  1.00  0.00    -0.274 OA
HETATM   19  C   UNL     1      14.530   4.922   9.892  1.00  0.00     0.113 C 
ENDBRANCH   9  13
BRANCH  12  20
HETATM   20  O   UNL     1      18.353   5.821  15.049  1.00  0.00    -0.353 OA
HETATM   21  C   UNL     1      19.007   7.087  15.113  1.00  0.00     0.210 C 
ENDBRANCH  12  20
ENDBRANCH   1   7
TORSDOF 4
ENDMDL
MODEL 5
REMARK VINA RESULT:      -6.7      3.120      5.746
REMARK  4 active torsions:
REMARK  status: ('A' for Active; 'I' for Inactive)
REMARK    1  A    between atoms: O_1  and  C_5 
REMARK    2  A    between atoms: O_1  and  C_14 
REMARK    3  A    between atoms: O_2  and  C_18 
REMARK    4  A    between atoms: C_10  and  C_13 
ROOT
HETATM    1  O   UNL     1      14.706   4.722  10.850  1.00  0.00    -0.343 OA
ENDROOT
BRANCH   1   2
HETATM    2  C   UNL     1      13.359   4.914  10.436  1.00  0.00     0.129 C 
HETATM    3  C   UNL     1      12.540   3.681  10.788  1.00  0.00     0.032 C 
HETATM    4  C   UNL     1      12.864   2.679   9.682  1.00  0.00     0.002 C 
HETATM    5  C   UNL     1      13.363   3.499   8.493  1.00  0.00     0.002 C 
HETATM    6  C   UNL     1      13.272   4.963   8.919  1.00  0.00     0.032 C 
ENDBRANCH   1   2
BRANCH   1   7
HETATM    7  C   UNL     1      15.114   5.407  11.964  1.00  0.00     0.103 A 
HETATM    8  C   UNL     1      14.433   5.220  13.162  1.00  0.00     0.047 A 
HETATM    9  C   UNL     1      14.838   5.913  14.303  1.00  0.00    -0.049 A 
HETATM   10  C   UNL     1      15.921   6.789  14.240  1.00  0.00     0.010 A 
HETATM   11  C   UNL     1      16.601   6.971  13.035  1.00  0.00     0.040 A 
HETATM   12  C   UNL     1      16.195   6.279  11.894  1.00  0.00     0.101 A 
BRANCH   9  13
HETATM   13  C   UNL     1      14.101   5.714  15.610  1.00  0.00     0.045 C 
HETATM   14  C   UNL     1      12.873   6.601  15.825  1.00  0.00     0.132 C 
HETATM   15  N   UNL     1      12.703   6.611  17.250  1.00  0.00    -0.360 N 
HETATM   16  C   UNL     1      13.865   6.267  17.928  1.00  0.00     0.218 C 
HETATM   17  H   UNL     1      11.856   6.837  17.698  1.00  0.00     0.162 HD
HETATM   18  O   UNL     1      14.036   6.233  19.137  1.00  0.00    -0.274 OA
HETATM   19  C   UNL     1      14.919   5.985  16.887  1.00  0.00     0.113 C 
ENDBRANCH   9  13
BRANCH  12  20
HETATM   20  O   UNL     1      16.866   6.467  10.723  1.00  0.00    -0.353 OA
HETATM   21  C   UNL     1      18.242   6.093  10.698  1.00  0.00     0.210 C 
ENDBRANCH  12  20
ENDBRANCH   1   7
TORSDOF 4
ENDMDL
MODEL 6
REMARK VINA RESULT:      -6.5      1.433      1.618
REMARK  4 active torsions:
REMARK  status: ('A' for Active; 'I' for Inactive)
REMARK    1  A    between atoms: O_1  and  C_5 
REMARK    2  A    between atoms: O_1  and  C_14 
REMARK    3  A    between atoms: O_2  and  C_18 
REMARK    4  A    between atoms: C_10  and  C_13 
ROOT
HETATM    1  O   UNL     1      13.706   5.838  13.543  1.00  0.00    -0.343 OA
ENDROOT
BRANCH   1   2
HETATM    2  C   UNL     1      13.615   6.943  14.433  1.00  0.00     0.129 C 
HETATM    3  C   UNL     1      12.299   6.875  15.192  1.00  0.00     0.032 C 
HETATM    4  C   UNL     1      11.264   7.424  14.212  1.00  0.00     0.002 C 
HETATM    5  C   UNL     1      12.036   8.278  13.207  1.00  0.00     0.002 C 
HETATM    6  C   UNL     1      13.496   8.243  13.654  1.00  0.00     0.032 C 
ENDBRANCH   1   2
BRANCH   1   7
HETATM    7  C   UNL     1      14.814   5.782  12.739  1.00  0.00     0.103 A 
HETATM    8  C   UNL     1      16.071   5.982  13.301  1.00  0.00     0.047 A 
HETATM    9  C   UNL     1      17.206   5.929  12.494  1.00  0.00    -0.049 A 
HETATM   10  C   UNL     1      17.080   5.677  11.128  1.00  0.00     0.010 A 
HETATM   11  C   UNL     1      15.817   5.477  10.570  1.00  0.00     0.040 A 
HETATM   12  C   UNL     1      14.681   5.531  11.378  1.00  0.00     0.101 A 
BRANCH   9  13
HETATM   13  C   UNL     1      18.576   6.144  13.099  1.00  0.00     0.045 C 
HETATM   14  C   UNL     1      19.028   5.095  14.117  1.00  0.00     0.132 C 
HETATM   15  N   UNL     1      20.030   5.775  14.888  1.00  0.00    -0.360 N 
HETATM   16  C   UNL     1      19.923   7.157  14.801  1.00  0.00     0.218 C 
HETATM   17  H   UNL     1      20.718   5.313  15.419  1.00  0.00     0.162 HD
HETATM   18  O   UNL     1      20.602   7.992  15.379  1.00  0.00    -0.274 OA
HETATM   19  C   UNL     1      18.761   7.455  13.888  1.00  0.00     0.113 C 
ENDBRANCH   9  13
BRANCH  12  20
HETATM   20  O   UNL     1      13.453   5.335  10.821  1.00  0.00    -0.353 OA
HETATM   21  C   UNL     1      13.334   4.281   9.867  1.00  0.00     0.210 C 
ENDBRANCH  12  20
ENDBRANCH   1   7
TORSDOF 4
ENDMDL
MODEL 7
REMARK VINA RESULT:      -6.5      3.764      5.880
REMARK  4 active torsions:
REMARK  status: ('A' for Active; 'I' for Inactive)
REMARK    1  A    between atoms: O_1  and  C_5 
REMARK    2  A    between atoms: O_1  and  C_14 
REMARK    3  A    between atoms: O_2  and  C_18 
REMARK    4  A    between atoms: C_10  and  C_13 
ROOT
HETATM    1  O   UNL     1      16.689   8.143  16.454  1.00  0.00    -0.343 OA
ENDROOT
BRANCH   1   2
HETATM    2  C   UNL     1      17.963   7.829  17.002  1.00  0.00     0.129 C 
HETATM    3  C   UNL     1      18.103   8.484  18.368  1.00  0.00     0.032 C 
HETATM    4  C   UNL     1      18.459   9.938  18.060  1.00  0.00     0.002 C 
HETATM    5  C   UNL     1      19.050   9.945  16.651  1.00  0.00     0.002 C 
HETATM    6  C   UNL     1      19.067   8.489  16.190  1.00  0.00     0.032 C 
ENDBRANCH   1   2
BRANCH   1   7
HETATM    7  C   UNL     1      16.019   7.127  15.826  1.00  0.00     0.103 A 
HETATM    8  C   UNL     1      16.214   6.927  14.463  1.00  0.00     0.047 A 
HETATM    9  C   UNL     1      15.536   5.897  13.812  1.00  0.00    -0.049 A 
HETATM   10  C   UNL     1      14.667   5.072  14.526  1.00  0.00     0.010 A 
HETATM   11  C   UNL     1      14.477   5.277  15.892  1.00  0.00     0.040 A 
HETATM   12  C   UNL     1      15.154   6.308  16.544  1.00  0.00     0.101 A 
BRANCH   9  13
HETATM   13  C   UNL     1      15.744   5.674  12.329  1.00  0.00     0.045 C 
HETATM   14  C   UNL     1      16.047   6.924  11.502  1.00  0.00     0.132 C 
HETATM   15  N   UNL     1      15.677   6.551  10.167  1.00  0.00    -0.360 N 
HETATM   16  C   UNL     1      14.796   5.477  10.138  1.00  0.00     0.218 C 
HETATM   17  H   UNL     1      16.010   7.005   9.360  1.00  0.00     0.162 HD
HETATM   18  O   UNL     1      14.276   4.970   9.157  1.00  0.00    -0.274 OA
HETATM   19  C   UNL     1      14.547   5.070  11.569  1.00  0.00     0.113 C 
ENDBRANCH   9  13
BRANCH  12  20
HETATM   20  O   UNL     1      14.958   6.500  17.878  1.00  0.00    -0.353 OA
HETATM   21  C   UNL     1      13.722   6.043  18.424  1.00  0.00     0.210 C 
ENDBRANCH  12  20
ENDBRANCH   1   7
TORSDOF 4
ENDMDL
MODEL 8
REMARK VINA RESULT:      -6.5      3.275      5.996
REMARK  4 active torsions:
REMARK  status: ('A' for Active; 'I' for Inactive)
REMARK    1  A    between atoms: O_1  and  C_5 
REMARK    2  A    between atoms: O_1  and  C_14 
REMARK    3  A    between atoms: O_2  and  C_18 
REMARK    4  A    between atoms: C_10  and  C_13 
ROOT
HETATM    1  O   UNL     1      16.944   5.868  15.606  1.00  0.00    -0.343 OA
ENDROOT
BRANCH   1   2
HETATM    2  C   UNL     1      16.274   4.832  16.313  1.00  0.00     0.129 C 
HETATM    3  C   UNL     1      15.764   5.372  17.640  1.00  0.00     0.032 C 
HETATM    4  C   UNL     1      16.990   5.366  18.551  1.00  0.00     0.002 C 
HETATM    5  C   UNL     1      17.963   4.351  17.955  1.00  0.00     0.002 C 
HETATM    6  C   UNL     1      17.261   3.755  16.737  1.00  0.00     0.032 C 
ENDBRANCH   1   2
BRANCH   1   7
HETATM    7  C   UNL     1      16.914   5.802  14.238  1.00  0.00     0.103 A 
HETATM    8  C   UNL     1      15.687   5.685  13.592  1.00  0.00     0.047 A 
HETATM    9  C   UNL     1      15.643   5.616  12.200  1.00  0.00    -0.049 A 
HETATM   10  C   UNL     1      16.825   5.664  11.461  1.00  0.00     0.010 A 
HETATM   11  C   UNL     1      18.051   5.782  12.115  1.00  0.00     0.040 A 
HETATM   12  C   UNL     1      18.096   5.850  13.507  1.00  0.00     0.101 A 
BRANCH   9  13
HETATM   13  C   UNL     1      14.312   5.490  11.491  1.00  0.00     0.045 C 
HETATM   14  C   UNL     1      13.279   4.587  12.167  1.00  0.00     0.132 C 
HETATM   15  N   UNL     1      12.390   4.224  11.101  1.00  0.00    -0.360 N 
HETATM   16  C   UNL     1      12.968   4.379   9.848  1.00  0.00     0.218 C 
HETATM   17  H   UNL     1      11.471   3.900  11.242  1.00  0.00     0.162 HD
HETATM   18  O   UNL     1      12.475   4.110   8.764  1.00  0.00    -0.274 OA
HETATM   19  C   UNL     1      14.366   4.903  10.067  1.00  0.00     0.113 C 
ENDBRANCH   9  13
BRANCH  12  20
HETATM   20  O   UNL     1      19.300   5.964  14.134  1.00  0.00    -0.353 OA
HETATM   21  C   UNL     1      20.146   4.815  14.125  1.00  0.00     0.210 C 
ENDBRANCH  12  20
ENDBRANCH   1   7
TORSDOF 4
ENDMDL
MODEL 9
REMARK VINA RESULT:      -6.5      1.181      3.729
REMARK  4 active torsions:
REMARK  status: ('A' for Active; 'I' for Inactive)
REMARK    1  A    between atoms: O_1  and  C_5 
REMARK    2  A    between atoms: O_1  and  C_14 
REMARK    3  A    between atoms: O_2  and  C_18 
REMARK    4  A    between atoms: C_10  and  C_13 
ROOT
HETATM    1  O   UNL     1      14.111   4.535  10.946  1.00  0.00    -0.343 OA
ENDROOT
BRANCH   1   2
HETATM    2  C   UNL     1      14.252   4.922   9.585  1.00  0.00     0.129 C 
HETATM    3  C   UNL     1      12.895   4.872   8.901  1.00  0.00     0.032 C 
HETATM    4  C   UNL     1      12.681   3.393   8.584  1.00  0.00     0.002 C 
HETATM    5  C   UNL     1      14.069   2.754   8.562  1.00  0.00     0.002 C 
HETATM    6  C   UNL     1      15.061   3.886   8.821  1.00  0.00     0.032 C 
ENDBRANCH   1   2
BRANCH   1   7
HETATM    7  C   UNL     1      14.792   5.278  11.874  1.00  0.00     0.103 A 
HETATM    8  C   UNL     1      16.168   5.432  11.742  1.00  0.00     0.047 A 
HETATM    9  C   UNL     1      16.872   6.185  12.681  1.00  0.00    -0.049 A 
HETATM   10  C   UNL     1      16.198   6.780  13.747  1.00  0.00     0.010 A 
HETATM   11  C   UNL     1      14.817   6.622  13.873  1.00  0.00     0.040 A 
HETATM   12  C   UNL     1      14.113   5.868  12.935  1.00  0.00     0.101 A 
BRANCH   9  13
HETATM   13  C   UNL     1      18.369   6.357  12.543  1.00  0.00     0.045 C 
HETATM   14  C   UNL     1      18.946   6.091  11.152  1.00  0.00     0.132 C 
HETATM   15  N   UNL     1      20.330   5.801  11.403  1.00  0.00    -0.360 N 
HETATM   16  C   UNL     1      20.562   5.407  12.715  1.00  0.00     0.218 C 
HETATM   17  H   UNL     1      21.036   5.873  10.722  1.00  0.00     0.162 HD
HETATM   18  O   UNL     1      21.622   5.057  13.208  1.00  0.00    -0.274 OA
HETATM   19  C   UNL     1      19.233   5.438  13.429  1.00  0.00     0.113 C 
ENDBRANCH   9  13
BRANCH  12  20
HETATM   20  O   UNL     1      12.765   5.720  13.070  1.00  0.00    -0.353 OA
HETATM   21  C   UNL     1      11.948   6.809  12.645  1.00  0.00     0.210 C 
ENDBRANCH  12  20
ENDBRANCH   1   7
TORSDOF 4
ENDMDL
