MODEL 1
REMARK VINA RESULT:      -6.8      0.000      0.000
REMARK  9 active torsions:
REMARK  status: ('A' for Active; 'I' for Inactive)
REMARK    1  A    between atoms: C_3  and  C_8 
REMARK    2  A    between atoms: C_5  and  O_7 
REMARK    3  A    between atoms: C_8  and  C_9 
REMARK    4  A    between atoms: C_9  and  C_10 
REMARK    5  A    between atoms: C_9  and  O_20 
REMARK    6  A    between atoms: C_10  and  C_11 
REMARK    7  A    between atoms: C_12  and  O_19 
REMARK    8  A    between atoms: C_14  and  O_18 
REMARK    9  A    between atoms: C_16  and  O_17 
ROOT
HETATM    1  C   UNL     1      18.789   5.055  14.732  1.00  0.00     0.003 A 
HETATM    2  C   UNL     1      18.107   5.716  13.728  1.00  0.00     0.007 A 
HETATM    3  C   UNL     1      18.639   5.780  12.453  1.00  0.00    -0.053 A 
HETATM    4  C   UNL     1      19.854   5.183  12.181  1.00  0.00     0.043 A 
HETATM    5  C   UNL     1      20.540   4.519  13.186  1.00  0.00     0.066 A 
HETATM    6  C   UNL     1      20.004   4.456  14.464  1.00  0.00     0.036 A 
ENDROOT
BRANCH   3   7
HETATM    7  C   UNL     1      17.892   6.502  11.361  1.00  0.00     0.070 C 
BRANCH   7   8
HETATM    8  C   UNL     1      16.739   5.626  10.866  1.00  0.00     0.127 C 
BRANCH   8   9
HETATM    9  C   UNL     1      15.424   6.397  10.990  1.00  0.00     0.076 C 
BRANCH   9  10
HETATM   10  C   UNL     1      14.326   5.452  11.408  1.00  0.00     0.011 A 
HETATM   11  C   UNL     1      13.997   5.319  12.749  1.00  0.00     0.077 A 
HETATM   12  C   UNL     1      12.987   4.450  13.132  1.00  0.00     0.073 A 
HETATM   13  C   UNL     1      12.306   3.713  12.175  1.00  0.00     0.071 A 
HETATM   14  C   UNL     1      12.634   3.847  10.834  1.00  0.00     0.073 A 
HETATM   15  C   UNL     1      13.641   4.719  10.450  1.00  0.00     0.077 A 
BRANCH  11  16
HETATM   16  O   UNL     1      14.665   6.041  13.686  1.00  0.00    -0.360 OA
HETATM   17  H   UNL     1      15.591   6.164  13.610  1.00  0.00     0.217 HD
ENDBRANCH  11  16
BRANCH  13  18
HETATM   18  O   UNL     1      11.317   2.861  12.551  1.00  0.00    -0.361 OA
HETATM   19  H   UNL     1      11.213   2.633  13.454  1.00  0.00     0.217 HD
ENDBRANCH  13  18
BRANCH  15  20
HETATM   20  O   UNL     1      13.963   4.849   9.136  1.00  0.00    -0.360 OA
HETATM   21  H   UNL     1      13.379   5.292   8.552  1.00  0.00     0.217 HD
ENDBRANCH  15  20
ENDBRANCH   9  10
ENDBRANCH   8   9
BRANCH   8  22
HETATM   22  O   UNL     1      16.960   5.278   9.497  1.00  0.00    -0.395 OA
HETATM   23  H   UNL     1      16.701   4.354   9.353  1.00  0.00     0.210 HD
ENDBRANCH   8  22
ENDBRANCH   7   8
ENDBRANCH   3   7
BRANCH   5  24
HETATM   24  O   UNL     1      21.736   3.929  12.920  1.00  0.00    -0.361 OA
HETATM   25  H   UNL     1      22.521   4.267  13.306  1.00  0.00     0.217 HD
ENDBRANCH   5  24
TORSDOF 9
ENDMDL
MODEL 2
REMARK VINA RESULT:      -6.7      0.051      1.849
REMARK  9 active torsions:
REMARK  status: ('A' for Active; 'I' for Inactive)
REMARK    1  A    between atoms: C_3  and  C_8 
REMARK    2  A    between atoms: C_5  and  O_7 
REMARK    3  A    between atoms: C_8  and  C_9 
REMARK    4  A    between atoms: C_9  and  C_10 
REMARK    5  A    between atoms: C_9  and  O_20 
REMARK    6  A    between atoms: C_10  and  C_11 
REMARK    7  A    between atoms: C_12  and  O_19 
REMARK    8  A    between atoms: C_14  and  O_18 
REMARK    9  A    between atoms: C_16  and  O_17 
ROOT
HETATM    1  C   UNL     1      18.740   5.059  14.791  1.00  0.00     0.003 A 
HETATM    2  C   UNL     1      18.071   5.726  13.782  1.00  0.00     0.007 A 
HETATM    3  C   UNL     1      18.613   5.783  12.511  1.00  0.00    -0.053 A 
HETATM    4  C   UNL     1      19.824   5.175  12.248  1.00  0.00     0.043 A 
HETATM    5  C   UNL     1      20.497   4.505  13.259  1.00  0.00     0.066 A 
HETATM    6  C   UNL     1      19.951   4.448  14.533  1.00  0.00     0.036 A 
ENDROOT
BRANCH   3   7
HETATM    7  C   UNL     1      17.881   6.511  11.413  1.00  0.00     0.070 C 
BRANCH   7   8
HETATM    8  C   UNL     1      16.742   5.633  10.890  1.00  0.00     0.127 C 
BRANCH   8   9
HETATM    9  C   UNL     1      15.421   6.398  10.991  1.00  0.00     0.076 C 
BRANCH   9  10
HETATM   10  C   UNL     1      14.323   5.452  11.402  1.00  0.00     0.011 A 
HETATM   11  C   UNL     1      13.640   4.721  10.441  1.00  0.00     0.077 A 
HETATM   12  C   UNL     1      12.630   3.850  10.820  1.00  0.00     0.073 A 
HETATM   13  C   UNL     1      12.302   3.710  12.160  1.00  0.00     0.071 A 
HETATM   14  C   UNL     1      12.985   4.439  13.121  1.00  0.00     0.073 A 
HETATM   15  C   UNL     1      13.999   5.306  12.743  1.00  0.00     0.077 A 
BRANCH  11  16
HETATM   16  O   UNL     1      13.961   4.860   9.128  1.00  0.00    -0.360 OA
HETATM   17  H   UNL     1      14.192   5.702   8.789  1.00  0.00     0.217 HD
ENDBRANCH  11  16
BRANCH  13  18
HETATM   18  O   UNL     1      11.311   2.857  12.531  1.00  0.00    -0.361 OA
HETATM   19  H   UNL     1      10.741   3.082  13.240  1.00  0.00     0.217 HD
ENDBRANCH  13  18
BRANCH  15  20
HETATM   20  O   UNL     1      14.668   6.022  13.685  1.00  0.00    -0.360 OA
HETATM   21  H   UNL     1      14.192   6.524  14.317  1.00  0.00     0.217 HD
ENDBRANCH  15  20
ENDBRANCH   9  10
ENDBRANCH   8   9
BRANCH   8  22
HETATM   22  O   UNL     1      16.992   5.293   9.525  1.00  0.00    -0.395 OA
HETATM   23  H   UNL     1      17.727   4.661   9.478  1.00  0.00     0.210 HD
ENDBRANCH   8  22
ENDBRANCH   7   8
ENDBRANCH   3   7
BRANCH   5  24
HETATM   24  O   UNL     1      21.690   3.905  13.002  1.00  0.00    -0.361 OA
HETATM   25  H   UNL     1      22.177   3.512  13.700  1.00  0.00     0.217 HD
ENDBRANCH   5  24
TORSDOF 9
ENDMDL
MODEL 3
REMARK VINA RESULT:      -6.6      1.070      2.389
REMARK  9 active torsions:
REMARK  status: ('A' for Active; 'I' for Inactive)
REMARK    1  A    between atoms: C_3  and  C_8 
REMARK    2  A    between atoms: C_5  and  O_7 
REMARK    3  A    between atoms: C_8  and  C_9 
REMARK    4  A    between atoms: C_9  and  C_10 
REMARK    5  A    between atoms: C_9  and  O_20 
REMARK    6  A    between atoms: C_10  and  C_11 
REMARK    7  A    between atoms: C_12  and  O_19 
REMARK    8  A    between atoms: C_14  and  O_18 
REMARK    9  A    between atoms: C_16  and  O_17 
ROOT
HETATM    1  C   UNL     1      20.505   4.607  13.155  1.00  0.00     0.003 A 
HETATM    2  C   UNL     1      19.807   5.263  12.159  1.00  0.00     0.007 A 
HETATM    3  C   UNL     1      18.577   5.833  12.433  1.00  0.00    -0.053 A 
HETATM    4  C   UNL     1      18.044   5.747  13.704  1.00  0.00     0.043 A 
HETATM    5  C   UNL     1      18.743   5.089  14.706  1.00  0.00     0.066 A 
HETATM    6  C   UNL     1      19.977   4.519  14.428  1.00  0.00     0.036 A 
ENDROOT
BRANCH   3   7
HETATM    7  C   UNL     1      17.818   6.547  11.345  1.00  0.00     0.070 C 
BRANCH   7   8
HETATM    8  C   UNL     1      16.709   5.637  10.813  1.00  0.00     0.127 C 
BRANCH   8   9
HETATM    9  C   UNL     1      15.372   6.379  10.862  1.00  0.00     0.076 C 
BRANCH   9  10
HETATM   10  C   UNL     1      14.290   5.435  11.315  1.00  0.00     0.011 A 
HETATM   11  C   UNL     1      13.613   4.657  10.387  1.00  0.00     0.077 A 
HETATM   12  C   UNL     1      12.617   3.788  10.804  1.00  0.00     0.073 A 
HETATM   13  C   UNL     1      12.296   3.696  12.150  1.00  0.00     0.071 A 
HETATM   14  C   UNL     1      12.973   4.473  13.079  1.00  0.00     0.073 A 
HETATM   15  C   UNL     1      13.973   5.338  12.662  1.00  0.00     0.077 A 
BRANCH  11  16
HETATM   16  O   UNL     1      13.927   4.748   9.068  1.00  0.00    -0.360 OA
HETATM   17  H   UNL     1      13.925   5.583   8.642  1.00  0.00     0.217 HD
ENDBRANCH  11  16
BRANCH  13  18
HETATM   18  O   UNL     1      11.319   2.845  12.559  1.00  0.00    -0.361 OA
HETATM   19  H   UNL     1      11.428   2.352  13.348  1.00  0.00     0.217 HD
ENDBRANCH  13  18
BRANCH  15  20
HETATM   20  O   UNL     1      14.635   6.100  13.572  1.00  0.00    -0.360 OA
HETATM   21  H   UNL     1      15.418   5.776  13.973  1.00  0.00     0.217 HD
ENDBRANCH  15  20
ENDBRANCH   9  10
ENDBRANCH   8   9
BRANCH   8  22
HETATM   22  O   UNL     1      17.001   5.269   9.464  1.00  0.00    -0.395 OA
HETATM   23  H   UNL     1      17.295   6.052   8.972  1.00  0.00     0.210 HD
ENDBRANCH   8  22
ENDBRANCH   7   8
ENDBRANCH   3   7
BRANCH   5  24
HETATM   24  O   UNL     1      18.221   5.004  15.958  1.00  0.00    -0.361 OA
HETATM   25  H   UNL     1      18.789   4.929  16.699  1.00  0.00     0.217 HD
ENDBRANCH   5  24
TORSDOF 9
ENDMDL
MODEL 4
REMARK VINA RESULT:      -6.5      3.700      6.761
REMARK  9 active torsions:
REMARK  status: ('A' for Active; 'I' for Inactive)
REMARK    1  A    between atoms: C_3  and  C_8 
REMARK    2  A    between atoms: C_5  and  O_7 
REMARK    3  A    between atoms: C_8  and  C_9 
REMARK    4  A    between atoms: C_9  and  C_10 
REMARK    5  A    between atoms: C_9  and  O_20 
REMARK    6  A    between atoms: C_10  and  C_11 
REMARK    7  A    between atoms: C_12  and  O_19 
REMARK    8  A    between atoms: C_14  and  O_18 
REMARK    9  A    between atoms: C_16  and  O_17 
ROOT
HETATM    1  C   UNL     1      14.487   4.932   9.752  1.00  0.00     0.003 A 
HETATM    2  C   UNL     1      15.386   5.244  10.753  1.00  0.00     0.007 A 
HETATM    3  C   UNL     1      14.985   5.226  12.077  1.00  0.00    -0.053 A 
HETATM    4  C   UNL     1      13.684   4.897  12.400  1.00  0.00     0.043 A 
HETATM    5  C   UNL     1      12.779   4.583  11.397  1.00  0.00     0.066 A 
HETATM    6  C   UNL     1      13.184   4.601  10.070  1.00  0.00     0.036 A 
ENDROOT
BRANCH   3   7
HETATM    7  C   UNL     1      15.969   5.567  13.167  1.00  0.00     0.070 C 
BRANCH   7   8
HETATM    8  C   UNL     1      15.209   5.950  14.439  1.00  0.00     0.127 C 
BRANCH   8   9
HETATM    9  C   UNL     1      15.818   5.218  15.636  1.00  0.00     0.076 C 
BRANCH   9  10
HETATM   10  C   UNL     1      15.381   5.891  16.911  1.00  0.00     0.011 A 
HETATM   11  C   UNL     1      14.159   5.570  17.482  1.00  0.00     0.077 A 
HETATM   12  C   UNL     1      13.757   6.190  18.656  1.00  0.00     0.073 A 
HETATM   13  C   UNL     1      14.578   7.131  19.259  1.00  0.00     0.071 A 
HETATM   14  C   UNL     1      15.801   7.452  18.689  1.00  0.00     0.073 A 
HETATM   15  C   UNL     1      16.204   6.828  17.518  1.00  0.00     0.077 A 
BRANCH  11  16
HETATM   16  O   UNL     1      13.355   4.648  16.891  1.00  0.00    -0.360 OA
HETATM   17  H   UNL     1      12.466   4.552  17.172  1.00  0.00     0.217 HD
ENDBRANCH  11  16
BRANCH  13  18
HETATM   18  O   UNL     1      14.184   7.740  20.408  1.00  0.00    -0.361 OA
HETATM   19  H   UNL     1      14.700   8.431  20.773  1.00  0.00     0.217 HD
ENDBRANCH  13  18
BRANCH  15  20
HETATM   20  O   UNL     1      17.403   7.143  16.959  1.00  0.00    -0.360 OA
HETATM   21  H   UNL     1      17.539   7.995  16.593  1.00  0.00     0.217 HD
ENDBRANCH  15  20
ENDBRANCH   9  10
ENDBRANCH   8   9
BRANCH   8  22
HETATM   22  O   UNL     1      15.306   7.361  14.644  1.00  0.00    -0.395 OA
HETATM   23  H   UNL     1      15.240   7.555  15.592  1.00  0.00     0.210 HD
ENDBRANCH   8  22
ENDBRANCH   7   8
ENDBRANCH   3   7
BRANCH   5  24
HETATM   24  O   UNL     1      11.497   4.257  11.713  1.00  0.00    -0.361 OA
HETATM   25  H   UNL     1      11.236   4.204  12.612  1.00  0.00     0.217 HD
ENDBRANCH   5  24
TORSDOF 9
ENDMDL
MODEL 5
REMARK VINA RESULT:      -6.5      3.699      6.690
REMARK  9 active torsions:
REMARK  status: ('A' for Active; 'I' for Inactive)
REMARK    1  A    between atoms: C_3  and  C_8 
REMARK    2  A    between atoms: C_5  and  O_7 
REMARK    3  A    between atoms: C_8  and  C_9 
REMARK    4  A    between atoms: C_9  and  C_10 
REMARK    5  A    between atoms: C_9  and  O_20 
REMARK    6  A    between atoms: C_10  and  C_11 
REMARK    7  A    between atoms: C_12  and  O_19 
REMARK    8  A    between atoms: C_14  and  O_18 
REMARK    9  A    between atoms: C_16  and  O_17 
ROOT
HETATM    1  C   UNL     1      14.484   4.934   9.754  1.00  0.00     0.003 A 
HETATM    2  C   UNL     1      15.386   5.245  10.754  1.00  0.00     0.007 A 
HETATM    3  C   UNL     1      14.988   5.223  12.079  1.00  0.00    -0.053 A 
HETATM    4  C   UNL     1      13.688   4.891  12.405  1.00  0.00     0.043 A 
HETATM    5  C   UNL     1      12.781   4.579  11.403  1.00  0.00     0.066 A 
HETATM    6  C   UNL     1      13.182   4.601  10.075  1.00  0.00     0.036 A 
ENDROOT
BRANCH   3   7
HETATM    7  C   UNL     1      15.974   5.562  13.167  1.00  0.00     0.070 C 
BRANCH   7   8
HETATM    8  C   UNL     1      15.218   5.953  14.438  1.00  0.00     0.127 C 
BRANCH   8   9
HETATM    9  C   UNL     1      15.819   5.216  15.636  1.00  0.00     0.076 C 
BRANCH   9  10
HETATM   10  C   UNL     1      15.382   5.890  16.911  1.00  0.00     0.011 A 
HETATM   11  C   UNL     1      16.204   6.828  17.517  1.00  0.00     0.077 A 
HETATM   12  C   UNL     1      15.802   7.449  18.690  1.00  0.00     0.073 A 
HETATM   13  C   UNL     1      14.577   7.130  19.258  1.00  0.00     0.071 A 
HETATM   14  C   UNL     1      13.754   6.193  18.651  1.00  0.00     0.073 A 
HETATM   15  C   UNL     1      14.155   5.577  17.476  1.00  0.00     0.077 A 
BRANCH  11  16
HETATM   16  O   UNL     1      17.404   7.139  16.961  1.00  0.00    -0.360 OA
HETATM   17  H   UNL     1      17.879   6.491  16.479  1.00  0.00     0.217 HD
ENDBRANCH  11  16
BRANCH  13  18
HETATM   18  O   UNL     1      14.183   7.737  20.408  1.00  0.00    -0.361 OA
HETATM   19  H   UNL     1      14.797   8.240  20.907  1.00  0.00     0.217 HD
ENDBRANCH  13  18
BRANCH  15  20
HETATM   20  O   UNL     1      13.348   4.658  16.882  1.00  0.00    -0.360 OA
HETATM   21  H   UNL     1      12.715   4.191  17.392  1.00  0.00     0.217 HD
ENDBRANCH  15  20
ENDBRANCH   9  10
ENDBRANCH   8   9
BRANCH   8  22
HETATM   22  O   UNL     1      15.327   7.363  14.642  1.00  0.00    -0.395 OA
HETATM   23  H   UNL     1      14.596   7.813  14.190  1.00  0.00     0.210 HD
ENDBRANCH   8  22
ENDBRANCH   7   8
ENDBRANCH   3   7
BRANCH   5  24
HETATM   24  O   UNL     1      11.500   4.252  11.722  1.00  0.00    -0.361 OA
HETATM   25  H   UNL     1      11.221   3.358  11.679  1.00  0.00     0.217 HD
ENDBRANCH   5  24
TORSDOF 9
ENDMDL
MODEL 6
REMARK VINA RESULT:      -6.5      1.690      6.185
REMARK  9 active torsions:
REMARK  status: ('A' for Active; 'I' for Inactive)
REMARK    1  A    between atoms: C_3  and  C_8 
REMARK    2  A    between atoms: C_5  and  O_7 
REMARK    3  A    between atoms: C_8  and  C_9 
REMARK    4  A    between atoms: C_9  and  C_10 
REMARK    5  A    between atoms: C_9  and  O_20 
REMARK    6  A    between atoms: C_10  and  C_11 
REMARK    7  A    between atoms: C_12  and  O_19 
REMARK    8  A    between atoms: C_14  and  O_18 
REMARK    9  A    between atoms: C_16  and  O_17 
ROOT
HETATM    1  C   UNL     1      12.710   3.112   9.209  1.00  0.00     0.003 A 
HETATM    2  C   UNL     1      12.841   4.118  10.147  1.00  0.00     0.007 A 
HETATM    3  C   UNL     1      14.041   4.795  10.276  1.00  0.00    -0.053 A 
HETATM    4  C   UNL     1      15.111   4.465   9.468  1.00  0.00     0.043 A 
HETATM    5  C   UNL     1      14.982   3.455   8.526  1.00  0.00     0.066 A 
HETATM    6  C   UNL     1      13.777   2.779   8.398  1.00  0.00     0.036 A 
ENDROOT
BRANCH   3   7
HETATM    7  C   UNL     1      14.180   5.892  11.300  1.00  0.00     0.070 C 
BRANCH   7   8
HETATM    8  C   UNL     1      15.284   5.525  12.295  1.00  0.00     0.127 C 
BRANCH   8   9
HETATM    9  C   UNL     1      16.234   6.712  12.464  1.00  0.00     0.076 C 
BRANCH   9  10
HETATM   10  C   UNL     1      17.652   6.212  12.548  1.00  0.00     0.011 A 
HETATM   11  C   UNL     1      18.182   5.829  13.771  1.00  0.00     0.077 A 
HETATM   12  C   UNL     1      19.488   5.369  13.849  1.00  0.00     0.073 A 
HETATM   13  C   UNL     1      20.264   5.292  12.702  1.00  0.00     0.071 A 
HETATM   14  C   UNL     1      19.735   5.674  11.479  1.00  0.00     0.073 A 
HETATM   15  C   UNL     1      18.428   6.129  11.401  1.00  0.00     0.077 A 
BRANCH  11  16
HETATM   16  O   UNL     1      17.421   5.906  14.894  1.00  0.00    -0.360 OA
HETATM   17  H   UNL     1      17.767   5.617  15.716  1.00  0.00     0.217 HD
ENDBRANCH  11  16
BRANCH  13  18
HETATM   18  O   UNL     1      21.545   4.842  12.778  1.00  0.00    -0.361 OA
HETATM   19  H   UNL     1      22.251   5.392  12.503  1.00  0.00     0.217 HD
ENDBRANCH  13  18
BRANCH  15  20
HETATM   20  O   UNL     1      17.909   6.504  10.202  1.00  0.00    -0.360 OA
HETATM   21  H   UNL     1      18.088   7.358   9.861  1.00  0.00     0.217 HD
ENDBRANCH  15  20
ENDBRANCH   9  10
ENDBRANCH   8   9
BRANCH   8  22
HETATM   22  O   UNL     1      14.698   5.200  13.557  1.00  0.00    -0.395 OA
HETATM   23  H   UNL     1      14.626   4.236  13.642  1.00  0.00     0.210 HD
ENDBRANCH   8  22
ENDBRANCH   7   8
ENDBRANCH   3   7
BRANCH   5  24
HETATM   24  O   UNL     1      16.034   3.129   7.729  1.00  0.00    -0.361 OA
HETATM   25  H   UNL     1      15.885   2.705   6.907  1.00  0.00     0.217 HD
ENDBRANCH   5  24
TORSDOF 9
ENDMDL
MODEL 7
REMARK VINA RESULT:      -6.5      3.388      6.657
REMARK  9 active torsions:
REMARK  status: ('A' for Active; 'I' for Inactive)
REMARK    1  A    between atoms: C_3  and  C_8 
REMARK    2  A    between atoms: C_5  and  O_7 
REMARK    3  A    between atoms: C_8  and  C_9 
REMARK    4  A    between atoms: C_9  and  C_10 
REMARK    5  A    between atoms: C_9  and  O_20 
REMARK    6  A    between atoms: C_10  and  C_11 
REMARK    7  A    between atoms: C_12  and  O_19 
REMARK    8  A    between atoms: C_14  and  O_18 
REMARK    9  A    between atoms: C_16  and  O_17 
ROOT
HETATM    1  C   UNL     1      14.846   5.757  10.479  1.00  0.00     0.003 A 
HETATM    2  C   UNL     1      14.130   6.425  11.454  1.00  0.00     0.007 A 
HETATM    3  C   UNL     1      12.886   5.961  11.843  1.00  0.00    -0.053 A 
HETATM    4  C   UNL     1      12.357   4.829  11.255  1.00  0.00     0.043 A 
HETATM    5  C   UNL     1      13.073   4.157  10.275  1.00  0.00     0.066 A 
HETATM    6  C   UNL     1      14.321   4.625   9.888  1.00  0.00     0.036 A 
ENDROOT
BRANCH   3   7
HETATM    7  C   UNL     1      12.109   6.691  12.907  1.00  0.00     0.070 C 
BRANCH   7   8
HETATM    8  C   UNL     1      12.527   6.178  14.287  1.00  0.00     0.127 C 
BRANCH   8   9
HETATM    9  C   UNL     1      13.268   7.285  15.040  1.00  0.00     0.076 C 
BRANCH   9  10
HETATM   10  C   UNL     1      14.204   6.667  16.046  1.00  0.00     0.011 A 
HETATM   11  C   UNL     1      15.512   6.375  15.690  1.00  0.00     0.077 A 
HETATM   12  C   UNL     1      16.373   5.806  16.616  1.00  0.00     0.073 A 
HETATM   13  C   UNL     1      15.926   5.530  17.899  1.00  0.00     0.071 A 
HETATM   14  C   UNL     1      14.618   5.824  18.257  1.00  0.00     0.073 A 
HETATM   15  C   UNL     1      13.759   6.396  17.332  1.00  0.00     0.077 A 
BRANCH  11  16
HETATM   16  O   UNL     1      15.949   6.645  14.432  1.00  0.00    -0.360 OA
HETATM   17  H   UNL     1      16.738   6.251  14.115  1.00  0.00     0.217 HD
ENDBRANCH  11  16
BRANCH  13  18
HETATM   18  O   UNL     1      16.769   4.972  18.807  1.00  0.00    -0.361 OA
HETATM   19  H   UNL     1      17.202   4.165  18.610  1.00  0.00     0.217 HD
ENDBRANCH  13  18
BRANCH  15  20
HETATM   20  O   UNL     1      12.477   6.683  17.682  1.00  0.00    -0.360 OA
HETATM   21  H   UNL     1      11.972   7.278  17.164  1.00  0.00     0.217 HD
ENDBRANCH  15  20
ENDBRANCH   9  10
ENDBRANCH   8   9
BRANCH   8  22
HETATM   22  O   UNL     1      11.364   5.797  15.025  1.00  0.00    -0.395 OA
HETATM   23  H   UNL     1      10.569   6.032  14.520  1.00  0.00     0.210 HD
ENDBRANCH   8  22
ENDBRANCH   7   8
ENDBRANCH   3   7
BRANCH   5  24
HETATM   24  O   UNL     1      12.554   3.042   9.696  1.00  0.00    -0.361 OA
HETATM   25  H   UNL     1      12.112   2.404  10.222  1.00  0.00     0.217 HD
ENDBRANCH   5  24
TORSDOF 9
ENDMDL
MODEL 8
REMARK VINA RESULT:      -6.5      3.390      6.529
REMARK  9 active torsions:
REMARK  status: ('A' for Active; 'I' for Inactive)
REMARK    1  A    between atoms: C_3  and  C_8 
REMARK    2  A    between atoms: C_5  and  O_7 
REMARK    3  A    between atoms: C_8  and  C_9 
REMARK    4  A    between atoms: C_9  and  C_10 
REMARK    5  A    between atoms: C_9  and  O_20 
REMARK    6  A    between atoms: C_10  and  C_11 
REMARK    7  A    between atoms: C_12  and  O_19 
REMARK    8  A    between atoms: C_14  and  O_18 
REMARK    9  A    between atoms: C_16  and  O_17 
ROOT
HETATM    1  C   UNL     1      14.863   5.755  10.522  1.00  0.00     0.003 A 
HETATM    2  C   UNL     1      14.144   6.416  11.500  1.00  0.00     0.007 A 
HETATM    3  C   UNL     1      12.890   5.961  11.865  1.00  0.00    -0.053 A 
HETATM    4  C   UNL     1      12.354   4.846  11.253  1.00  0.00     0.043 A 
HETATM    5  C   UNL     1      13.073   4.181  10.271  1.00  0.00     0.066 A 
HETATM    6  C   UNL     1      14.331   4.639   9.906  1.00  0.00     0.036 A 
ENDROOT
BRANCH   3   7
HETATM    7  C   UNL     1      12.109   6.684  12.933  1.00  0.00     0.070 C 
BRANCH   7   8
HETATM    8  C   UNL     1      12.534   6.172  14.311  1.00  0.00     0.127 C 
BRANCH   8   9
HETATM    9  C   UNL     1      13.268   7.284  15.064  1.00  0.00     0.076 C 
BRANCH   9  10
HETATM   10  C   UNL     1      14.198   6.674  16.079  1.00  0.00     0.011 A 
HETATM   11  C   UNL     1      13.743   6.399  17.361  1.00  0.00     0.077 A 
HETATM   12  C   UNL     1      14.599   5.837  18.295  1.00  0.00     0.073 A 
HETATM   13  C   UNL     1      15.911   5.550  17.949  1.00  0.00     0.071 A 
HETATM   14  C   UNL     1      16.366   5.824  16.668  1.00  0.00     0.073 A 
HETATM   15  C   UNL     1      15.508   6.381  15.732  1.00  0.00     0.077 A 
BRANCH  11  16
HETATM   16  O   UNL     1      12.458   6.681  17.699  1.00  0.00    -0.360 OA
HETATM   17  H   UNL     1      11.755   6.186  17.326  1.00  0.00     0.217 HD
ENDBRANCH  11  16
BRANCH  13  18
HETATM   18  O   UNL     1      16.751   5.000  18.865  1.00  0.00    -0.361 OA
HETATM   19  H   UNL     1      16.599   5.136  19.780  1.00  0.00     0.217 HD
ENDBRANCH  13  18
BRANCH  15  20
HETATM   20  O   UNL     1      15.955   6.650  14.477  1.00  0.00    -0.360 OA
HETATM   21  H   UNL     1      15.578   7.354  13.987  1.00  0.00     0.217 HD
ENDBRANCH  15  20
ENDBRANCH   9  10
ENDBRANCH   8   9
BRANCH   8  22
HETATM   22  O   UNL     1      11.376   5.780  15.051  1.00  0.00    -0.395 OA
HETATM   23  H   UNL     1      11.497   4.877  15.385  1.00  0.00     0.210 HD
ENDBRANCH   8  22
ENDBRANCH   7   8
ENDBRANCH   3   7
BRANCH   5  24
HETATM   24  O   UNL     1      12.547   3.083   9.667  1.00  0.00    -0.361 OA
HETATM   25  H   UNL     1      12.991   2.259   9.722  1.00  0.00     0.217 HD
ENDBRANCH   5  24
TORSDOF 9
ENDMDL
MODEL 9
REMARK VINA RESULT:      -6.5      2.498      6.114
REMARK  9 active torsions:
REMARK  status: ('A' for Active; 'I' for Inactive)
REMARK    1  A    between atoms: C_3  and  C_8 
REMARK    2  A    between atoms: C_5  and  O_7 
REMARK    3  A    between atoms: C_8  and  C_9 
REMARK    4  A    between atoms: C_9  and  C_10 
REMARK    5  A    between atoms: C_9  and  O_20 
REMARK    6  A    between atoms: C_10  and  C_11 
REMARK    7  A    between atoms: C_12  and  O_19 
REMARK    8  A    between atoms: C_14  and  O_18 
REMARK    9  A    between atoms: C_16  and  O_17 
ROOT
HETATM    1  C   UNL     1      13.000   8.783  13.629  1.00  0.00     0.003 A 
HETATM    2  C   UNL     1      12.741   7.865  12.629  1.00  0.00     0.007 A 
HETATM    3  C   UNL     1      11.994   6.733  12.904  1.00  0.00    -0.053 A 
HETATM    4  C   UNL     1      11.507   6.519  14.178  1.00  0.00     0.043 A 
HETATM    5  C   UNL     1      11.767   7.440  15.183  1.00  0.00     0.066 A 
HETATM    6  C   UNL     1      12.515   8.574  14.905  1.00  0.00     0.036 A 
ENDROOT
BRANCH   3   7
HETATM    7  C   UNL     1      11.713   5.733  11.812  1.00  0.00     0.070 C 
BRANCH   7   8
HETATM    8  C   UNL     1      12.986   5.495  10.997  1.00  0.00     0.127 C 
BRANCH   8   9
HETATM    9  C   UNL     1      13.895   4.518  11.746  1.00  0.00     0.076 C 
BRANCH   9  10
HETATM   10  C   UNL     1      15.232   5.167  11.996  1.00  0.00     0.011 A 
HETATM   11  C   UNL     1      15.616   5.488  13.290  1.00  0.00     0.077 A 
HETATM   12  C   UNL     1      16.846   6.085  13.520  1.00  0.00     0.073 A 
HETATM   13  C   UNL     1      17.692   6.362  12.457  1.00  0.00     0.071 A 
HETATM   14  C   UNL     1      17.308   6.040  11.163  1.00  0.00     0.073 A 
HETATM   15  C   UNL     1      16.080   5.439  10.934  1.00  0.00     0.077 A 
BRANCH  11  16
HETATM   16  O   UNL     1      14.786   5.217  14.331  1.00  0.00    -0.360 OA
HETATM   17  H   UNL     1      14.534   5.901  14.920  1.00  0.00     0.217 HD
ENDBRANCH  11  16
BRANCH  13  18
HETATM   18  O   UNL     1      18.897   6.948  12.682  1.00  0.00    -0.361 OA
HETATM   19  H   UNL     1      18.985   7.593  13.356  1.00  0.00     0.217 HD
ENDBRANCH  13  18
BRANCH  15  20
HETATM   20  O   UNL     1      15.704   5.125   9.666  1.00  0.00    -0.360 OA
HETATM   21  H   UNL     1      15.246   4.325   9.498  1.00  0.00     0.217 HD
ENDBRANCH  15  20
ENDBRANCH   9  10
ENDBRANCH   8   9
BRANCH   8  22
HETATM   22  O   UNL     1      12.641   4.945   9.725  1.00  0.00    -0.395 OA
HETATM   23  H   UNL     1      12.191   4.094   9.852  1.00  0.00     0.210 HD
ENDBRANCH   8  22
ENDBRANCH   7   8
ENDBRANCH   3   7
BRANCH   5  24
HETATM   24  O   UNL     1      11.287   7.231  16.438  1.00  0.00    -0.361 OA
HETATM   25  H   UNL     1      10.527   6.698  16.566  1.00  0.00     0.217 HD
ENDBRANCH   5  24
TORSDOF 9
ENDMDL
