MODEL 1
REMARK VINA RESULT:      -6.7      0.000      0.000
REMARK  9 active torsions:
REMARK  status: ('A' for Active; 'I' for Inactive)
REMARK    1  A    between atoms: C_3  and  C_8 
REMARK    2  A    between atoms: C_5  and  O_7 
REMARK    3  A    between atoms: C_8  and  C_9 
REMARK    4  A    between atoms: C_9  and  C_10 
REMARK    5  A    between atoms: C_9  and  O_20 
REMARK    6  A    between atoms: C_10  and  C_11 
REMARK    7  A    between atoms: C_12  and  O_19 
REMARK    8  A    between atoms: C_14  and  O_18 
REMARK    9  A    between atoms: C_16  and  O_17 
ROOT
HETATM    1  C   UNL     1      18.794   5.070  14.729  1.00  0.00     0.003 A 
HETATM    2  C   UNL     1      18.113   5.726  13.720  1.00  0.00     0.007 A 
HETATM    3  C   UNL     1      18.646   5.779  12.445  1.00  0.00    -0.053 A 
HETATM    4  C   UNL     1      19.859   5.177  12.177  1.00  0.00     0.043 A 
HETATM    5  C   UNL     1      20.544   4.519  13.188  1.00  0.00     0.066 A 
HETATM    6  C   UNL     1      20.008   4.466  14.466  1.00  0.00     0.036 A 
ENDROOT
BRANCH   3   7
HETATM    7  C   UNL     1      17.901   6.494  11.347  1.00  0.00     0.070 C 
BRANCH   7   8
HETATM    8  C   UNL     1      16.745   5.618  10.860  1.00  0.00     0.127 C 
BRANCH   8   9
HETATM    9  C   UNL     1      15.430   6.391  10.988  1.00  0.00     0.076 C 
BRANCH   9  10
HETATM   10  C   UNL     1      14.331   5.446  11.400  1.00  0.00     0.011 A 
HETATM   11  C   UNL     1      13.638   4.726  10.438  1.00  0.00     0.077 A 
HETATM   12  C   UNL     1      12.626   3.857  10.817  1.00  0.00     0.073 A 
HETATM   13  C   UNL     1      12.307   3.709  12.159  1.00  0.00     0.071 A 
HETATM   14  C   UNL     1      13.000   4.428  13.120  1.00  0.00     0.073 A 
HETATM   15  C   UNL     1      14.015   5.293  12.741  1.00  0.00     0.077 A 
BRANCH  11  16
HETATM   16  O   UNL     1      13.951   4.872   9.124  1.00  0.00    -0.360 OA
HETATM   17  H   UNL     1      13.377   5.348   8.556  1.00  0.00     0.217 HD
ENDBRANCH  11  16
BRANCH  13  18
HETATM   18  O   UNL     1      11.315   2.858  12.531  1.00  0.00    -0.361 OA
HETATM   19  H   UNL     1      11.206   2.631  13.433  1.00  0.00     0.217 HD
ENDBRANCH  13  18
BRANCH  15  20
HETATM   20  O   UNL     1      14.694   5.999  13.684  1.00  0.00    -0.360 OA
HETATM   21  H   UNL     1      14.538   6.917  13.784  1.00  0.00     0.217 HD
ENDBRANCH  15  20
ENDBRANCH   9  10
ENDBRANCH   8   9
BRANCH   8  22
HETATM   22  O   UNL     1      16.959   5.266   9.492  1.00  0.00    -0.395 OA
HETATM   23  H   UNL     1      17.866   5.496   9.237  1.00  0.00     0.210 HD
ENDBRANCH   8  22
ENDBRANCH   7   8
ENDBRANCH   3   7
BRANCH   5  24
HETATM   24  O   UNL     1      21.739   3.925  12.925  1.00  0.00    -0.361 OA
HETATM   25  H   UNL     1      22.496   4.153  13.429  1.00  0.00     0.217 HD
ENDBRANCH   5  24
TORSDOF 9
ENDMDL
MODEL 2
REMARK VINA RESULT:      -6.7      0.030      1.848
REMARK  9 active torsions:
REMARK  status: ('A' for Active; 'I' for Inactive)
REMARK    1  A    between atoms: C_3  and  C_8 
REMARK    2  A    between atoms: C_5  and  O_7 
REMARK    3  A    between atoms: C_8  and  C_9 
REMARK    4  A    between atoms: C_9  and  C_10 
REMARK    5  A    between atoms: C_9  and  O_20 
REMARK    6  A    between atoms: C_10  and  C_11 
REMARK    7  A    between atoms: C_12  and  O_19 
REMARK    8  A    between atoms: C_14  and  O_18 
REMARK    9  A    between atoms: C_16  and  O_17 
ROOT
HETATM    1  C   UNL     1      18.784   5.067  14.737  1.00  0.00     0.003 A 
HETATM    2  C   UNL     1      18.097   5.723  13.733  1.00  0.00     0.007 A 
HETATM    3  C   UNL     1      18.628   5.789  12.458  1.00  0.00    -0.053 A 
HETATM    4  C   UNL     1      19.846   5.199  12.185  1.00  0.00     0.043 A 
HETATM    5  C   UNL     1      20.537   4.539  13.191  1.00  0.00     0.066 A 
HETATM    6  C   UNL     1      20.002   4.474  14.469  1.00  0.00     0.036 A 
ENDROOT
BRANCH   3   7
HETATM    7  C   UNL     1      17.876   6.506  11.366  1.00  0.00     0.070 C 
BRANCH   7   8
HETATM    8  C   UNL     1      16.720   5.628  10.881  1.00  0.00     0.127 C 
BRANCH   8   9
HETATM    9  C   UNL     1      15.404   6.398  11.016  1.00  0.00     0.076 C 
BRANCH   9  10
HETATM   10  C   UNL     1      14.307   5.449  11.423  1.00  0.00     0.011 A 
HETATM   11  C   UNL     1      13.984   5.295  12.764  1.00  0.00     0.077 A 
HETATM   12  C   UNL     1      12.974   4.422  13.138  1.00  0.00     0.073 A 
HETATM   13  C   UNL     1      12.288   3.701  12.172  1.00  0.00     0.071 A 
HETATM   14  C   UNL     1      12.610   3.855  10.832  1.00  0.00     0.073 A 
HETATM   15  C   UNL     1      13.616   4.732  10.458  1.00  0.00     0.077 A 
BRANCH  11  16
HETATM   16  O   UNL     1      14.657   6.001  13.709  1.00  0.00    -0.360 OA
HETATM   17  H   UNL     1      14.449   5.888  14.616  1.00  0.00     0.217 HD
ENDBRANCH  11  16
BRANCH  13  18
HETATM   18  O   UNL     1      11.299   2.844  12.539  1.00  0.00    -0.361 OA
HETATM   19  H   UNL     1      10.480   2.852  12.084  1.00  0.00     0.217 HD
ENDBRANCH  13  18
BRANCH  15  20
HETATM   20  O   UNL     1      13.933   4.882   9.144  1.00  0.00    -0.360 OA
HETATM   21  H   UNL     1      14.173   5.725   8.814  1.00  0.00     0.217 HD
ENDBRANCH  15  20
ENDBRANCH   9  10
ENDBRANCH   8   9
BRANCH   8  22
HETATM   22  O   UNL     1      16.929   5.279   9.511  1.00  0.00    -0.395 OA
HETATM   23  H   UNL     1      16.886   4.315   9.413  1.00  0.00     0.210 HD
ENDBRANCH   8  22
ENDBRANCH   7   8
ENDBRANCH   3   7
BRANCH   5  24
HETATM   24  O   UNL     1      21.736   3.957  12.923  1.00  0.00    -0.361 OA
HETATM   25  H   UNL     1      22.250   4.254  12.199  1.00  0.00     0.217 HD
ENDBRANCH   5  24
TORSDOF 9
ENDMDL
MODEL 3
REMARK VINA RESULT:      -6.7      1.432      2.198
REMARK  9 active torsions:
REMARK  status: ('A' for Active; 'I' for Inactive)
REMARK    1  A    between atoms: C_3  and  C_8 
REMARK    2  A    between atoms: C_5  and  O_7 
REMARK    3  A    between atoms: C_8  and  C_9 
REMARK    4  A    between atoms: C_9  and  C_10 
REMARK    5  A    between atoms: C_9  and  O_20 
REMARK    6  A    between atoms: C_10  and  C_11 
REMARK    7  A    between atoms: C_12  and  O_19 
REMARK    8  A    between atoms: C_14  and  O_18 
REMARK    9  A    between atoms: C_16  and  O_17 
ROOT
HETATM    1  C   UNL     1      17.831   5.711  13.565  1.00  0.00     0.003 A 
HETATM    2  C   UNL     1      16.757   5.927  12.723  1.00  0.00     0.007 A 
HETATM    3  C   UNL     1      16.963   6.098  11.366  1.00  0.00    -0.053 A 
HETATM    4  C   UNL     1      18.244   6.054  10.850  1.00  0.00     0.043 A 
HETATM    5  C   UNL     1      19.323   5.838  11.694  1.00  0.00     0.066 A 
HETATM    6  C   UNL     1      19.114   5.666  13.055  1.00  0.00     0.036 A 
ENDROOT
BRANCH   3   7
HETATM    7  C   UNL     1      15.790   6.332  10.450  1.00  0.00     0.070 C 
BRANCH   7   8
HETATM    8  C   UNL     1      14.807   5.165  10.570  1.00  0.00     0.127 C 
BRANCH   8   9
HETATM    9  C   UNL     1      13.456   5.685  11.062  1.00  0.00     0.076 C 
BRANCH   9  10
HETATM   10  C   UNL     1      13.029   4.902  12.277  1.00  0.00     0.011 A 
HETATM   11  C   UNL     1      12.435   3.658  12.127  1.00  0.00     0.077 A 
HETATM   12  C   UNL     1      12.043   2.937  13.245  1.00  0.00     0.073 A 
HETATM   13  C   UNL     1      12.243   3.462  14.513  1.00  0.00     0.071 A 
HETATM   14  C   UNL     1      12.838   4.706  14.663  1.00  0.00     0.073 A 
HETATM   15  C   UNL     1      13.235   5.423  13.545  1.00  0.00     0.077 A 
BRANCH  11  16
HETATM   16  O   UNL     1      12.238   3.145  10.884  1.00  0.00    -0.360 OA
HETATM   17  H   UNL     1      12.440   2.247  10.711  1.00  0.00     0.217 HD
ENDBRANCH  11  16
BRANCH  13  18
HETATM   18  O   UNL     1      11.857   2.757  15.609  1.00  0.00    -0.361 OA
HETATM   19  H   UNL     1      10.957   2.750  15.868  1.00  0.00     0.217 HD
ENDBRANCH  13  18
BRANCH  15  20
HETATM   20  O   UNL     1      13.817   6.643  13.693  1.00  0.00    -0.360 OA
HETATM   21  H   UNL     1      14.695   6.707  14.011  1.00  0.00     0.217 HD
ENDBRANCH  15  20
ENDBRANCH   9  10
ENDBRANCH   8   9
BRANCH   8  22
HETATM   22  O   UNL     1      14.643   4.548   9.291  1.00  0.00    -0.395 OA
HETATM   23  H   UNL     1      15.483   4.581   8.806  1.00  0.00     0.210 HD
ENDBRANCH   8  22
ENDBRANCH   7   8
ENDBRANCH   3   7
BRANCH   5  24
HETATM   24  O   UNL     1      20.584   5.793  11.188  1.00  0.00    -0.361 OA
HETATM   25  H   UNL     1      20.821   5.122  10.578  1.00  0.00     0.217 HD
ENDBRANCH   5  24
TORSDOF 9
ENDMDL
MODEL 4
REMARK VINA RESULT:      -6.5      3.704      6.699
REMARK  9 active torsions:
REMARK  status: ('A' for Active; 'I' for Inactive)
REMARK    1  A    between atoms: C_3  and  C_8 
REMARK    2  A    between atoms: C_5  and  O_7 
REMARK    3  A    between atoms: C_8  and  C_9 
REMARK    4  A    between atoms: C_9  and  C_10 
REMARK    5  A    between atoms: C_9  and  O_20 
REMARK    6  A    between atoms: C_10  and  C_11 
REMARK    7  A    between atoms: C_12  and  O_19 
REMARK    8  A    between atoms: C_14  and  O_18 
REMARK    9  A    between atoms: C_16  and  O_17 
ROOT
HETATM    1  C   UNL     1      14.495   4.933   9.750  1.00  0.00     0.003 A 
HETATM    2  C   UNL     1      15.393   5.244  10.754  1.00  0.00     0.007 A 
HETATM    3  C   UNL     1      14.988   5.226  12.077  1.00  0.00    -0.053 A 
HETATM    4  C   UNL     1      13.686   4.898  12.396  1.00  0.00     0.043 A 
HETATM    5  C   UNL     1      12.783   4.586  11.390  1.00  0.00     0.066 A 
HETATM    6  C   UNL     1      13.192   4.604  10.065  1.00  0.00     0.036 A 
ENDROOT
BRANCH   3   7
HETATM    7  C   UNL     1      15.970   5.565  13.169  1.00  0.00     0.070 C 
BRANCH   7   8
HETATM    8  C   UNL     1      15.207   5.949  14.439  1.00  0.00     0.127 C 
BRANCH   8   9
HETATM    9  C   UNL     1      15.810   5.213  15.638  1.00  0.00     0.076 C 
BRANCH   9  10
HETATM   10  C   UNL     1      15.377   5.890  16.912  1.00  0.00     0.011 A 
HETATM   11  C   UNL     1      14.152   5.577  17.482  1.00  0.00     0.077 A 
HETATM   12  C   UNL     1      13.753   6.199  18.655  1.00  0.00     0.073 A 
HETATM   13  C   UNL     1      14.579   7.136  19.258  1.00  0.00     0.071 A 
HETATM   14  C   UNL     1      15.804   7.449  18.689  1.00  0.00     0.073 A 
HETATM   15  C   UNL     1      16.205   6.822  17.519  1.00  0.00     0.077 A 
BRANCH  11  16
HETATM   16  O   UNL     1      13.342   4.660  16.890  1.00  0.00    -0.360 OA
HETATM   17  H   UNL     1      12.541   4.932  16.489  1.00  0.00     0.217 HD
ENDBRANCH  11  16
BRANCH  13  18
HETATM   18  O   UNL     1      14.188   7.748  20.407  1.00  0.00    -0.361 OA
HETATM   19  H   UNL     1      14.315   8.670  20.513  1.00  0.00     0.217 HD
ENDBRANCH  13  18
BRANCH  15  20
HETATM   20  O   UNL     1      17.406   7.130  16.960  1.00  0.00    -0.360 OA
HETATM   21  H   UNL     1      17.593   8.012  16.710  1.00  0.00     0.217 HD
ENDBRANCH  15  20
ENDBRANCH   9  10
ENDBRANCH   8   9
BRANCH   8  22
HETATM   22  O   UNL     1      15.307   7.359  14.646  1.00  0.00    -0.395 OA
HETATM   23  H   UNL     1      14.507   7.793  14.309  1.00  0.00     0.210 HD
ENDBRANCH   8  22
ENDBRANCH   7   8
ENDBRANCH   3   7
BRANCH   5  24
HETATM   24  O   UNL     1      11.500   4.261  11.703  1.00  0.00    -0.361 OA
HETATM   25  H   UNL     1      11.176   3.401  11.518  1.00  0.00     0.217 HD
ENDBRANCH   5  24
TORSDOF 9
ENDMDL
MODEL 5
REMARK VINA RESULT:      -6.5      3.705      6.772
REMARK  9 active torsions:
REMARK  status: ('A' for Active; 'I' for Inactive)
REMARK    1  A    between atoms: C_3  and  C_8 
REMARK    2  A    between atoms: C_5  and  O_7 
REMARK    3  A    between atoms: C_8  and  C_9 
REMARK    4  A    between atoms: C_9  and  C_10 
REMARK    5  A    between atoms: C_9  and  O_20 
REMARK    6  A    between atoms: C_10  and  C_11 
REMARK    7  A    between atoms: C_12  and  O_19 
REMARK    8  A    between atoms: C_14  and  O_18 
REMARK    9  A    between atoms: C_16  and  O_17 
ROOT
HETATM    1  C   UNL     1      14.501   4.936   9.759  1.00  0.00     0.003 A 
HETATM    2  C   UNL     1      15.401   5.251  10.760  1.00  0.00     0.007 A 
HETATM    3  C   UNL     1      14.996   5.247  12.083  1.00  0.00    -0.053 A 
HETATM    4  C   UNL     1      13.691   4.929  12.405  1.00  0.00     0.043 A 
HETATM    5  C   UNL     1      12.787   4.613  11.402  1.00  0.00     0.066 A 
HETATM    6  C   UNL     1      13.196   4.617  10.076  1.00  0.00     0.036 A 
ENDROOT
BRANCH   3   7
HETATM    7  C   UNL     1      15.979   5.590  13.172  1.00  0.00     0.070 C 
BRANCH   7   8
HETATM    8  C   UNL     1      15.218   5.973  14.444  1.00  0.00     0.127 C 
BRANCH   8   9
HETATM    9  C   UNL     1      15.806   5.215  15.637  1.00  0.00     0.076 C 
BRANCH   9  10
HETATM   10  C   UNL     1      15.385   5.890  16.916  1.00  0.00     0.011 A 
HETATM   11  C   UNL     1      16.230   6.803  17.530  1.00  0.00     0.077 A 
HETATM   12  C   UNL     1      15.842   7.424  18.708  1.00  0.00     0.073 A 
HETATM   13  C   UNL     1      14.610   7.132  19.273  1.00  0.00     0.071 A 
HETATM   14  C   UNL     1      13.765   6.220  18.658  1.00  0.00     0.073 A 
HETATM   15  C   UNL     1      14.150   5.603  17.478  1.00  0.00     0.077 A 
BRANCH  11  16
HETATM   16  O   UNL     1      17.438   7.089  16.976  1.00  0.00    -0.360 OA
HETATM   17  H   UNL     1      17.888   7.875  17.214  1.00  0.00     0.217 HD
ENDBRANCH  11  16
BRANCH  13  18
HETATM   18  O   UNL     1      14.231   7.740  20.427  1.00  0.00    -0.361 OA
HETATM   19  H   UNL     1      13.348   7.658  20.731  1.00  0.00     0.217 HD
ENDBRANCH  13  18
BRANCH  15  20
HETATM   20  O   UNL     1      13.322   4.708  16.878  1.00  0.00    -0.360 OA
HETATM   21  H   UNL     1      12.438   4.615  17.174  1.00  0.00     0.217 HD
ENDBRANCH  15  20
ENDBRANCH   9  10
ENDBRANCH   8   9
BRANCH   8  22
HETATM   22  O   UNL     1      15.340   7.379  14.666  1.00  0.00    -0.395 OA
HETATM   23  H   UNL     1      16.078   7.727  14.140  1.00  0.00     0.210 HD
ENDBRANCH   8  22
ENDBRANCH   7   8
ENDBRANCH   3   7
BRANCH   5  24
HETATM   24  O   UNL     1      11.502   4.299  11.717  1.00  0.00    -0.361 OA
HETATM   25  H   UNL     1      10.891   4.979  11.923  1.00  0.00     0.217 HD
ENDBRANCH   5  24
TORSDOF 9
ENDMDL
MODEL 6
REMARK VINA RESULT:      -6.5      1.662      6.179
REMARK  9 active torsions:
REMARK  status: ('A' for Active; 'I' for Inactive)
REMARK    1  A    between atoms: C_3  and  C_8 
REMARK    2  A    between atoms: C_5  and  O_7 
REMARK    3  A    between atoms: C_8  and  C_9 
REMARK    4  A    between atoms: C_9  and  C_10 
REMARK    5  A    between atoms: C_9  and  O_20 
REMARK    6  A    between atoms: C_10  and  C_11 
REMARK    7  A    between atoms: C_12  and  O_19 
REMARK    8  A    between atoms: C_14  and  O_18 
REMARK    9  A    between atoms: C_16  and  O_17 
ROOT
HETATM    1  C   UNL     1      12.735   3.080   9.227  1.00  0.00     0.003 A 
HETATM    2  C   UNL     1      12.865   4.075  10.177  1.00  0.00     0.007 A 
HETATM    3  C   UNL     1      14.060   4.759  10.305  1.00  0.00    -0.053 A 
HETATM    4  C   UNL     1      15.126   4.449   9.484  1.00  0.00     0.043 A 
HETATM    5  C   UNL     1      14.997   3.450   8.530  1.00  0.00     0.066 A 
HETATM    6  C   UNL     1      13.798   2.766   8.403  1.00  0.00     0.036 A 
ENDROOT
BRANCH   3   7
HETATM    7  C   UNL     1      14.199   5.844  11.342  1.00  0.00     0.070 C 
BRANCH   7   8
HETATM    8  C   UNL     1      15.259   5.437  12.368  1.00  0.00     0.127 C 
BRANCH   8   9
HETATM    9  C   UNL     1      16.198   6.616  12.627  1.00  0.00     0.076 C 
BRANCH   9  10
HETATM   10  C   UNL     1      17.623   6.127  12.653  1.00  0.00     0.011 A 
HETATM   11  C   UNL     1      18.381   6.135  11.491  1.00  0.00     0.077 A 
HETATM   12  C   UNL     1      19.693   5.685  11.515  1.00  0.00     0.073 A 
HETATM   13  C   UNL     1      20.246   5.225  12.700  1.00  0.00     0.071 A 
HETATM   14  C   UNL     1      19.488   5.218  13.862  1.00  0.00     0.073 A 
HETATM   15  C   UNL     1      18.179   5.673  13.839  1.00  0.00     0.077 A 
BRANCH  11  16
HETATM   16  O   UNL     1      17.838   6.585  10.329  1.00  0.00    -0.360 OA
HETATM   17  H   UNL     1      17.950   7.480  10.075  1.00  0.00     0.217 HD
ENDBRANCH  11  16
BRANCH  13  18
HETATM   18  O   UNL     1      21.530   4.782  12.724  1.00  0.00    -0.361 OA
HETATM   19  H   UNL     1      22.040   4.782  11.938  1.00  0.00     0.217 HD
ENDBRANCH  13  18
BRANCH  15  20
HETATM   20  O   UNL     1      17.437   5.664  14.978  1.00  0.00    -0.360 OA
HETATM   21  H   UNL     1      17.669   6.223  15.693  1.00  0.00     0.217 HD
ENDBRANCH  15  20
ENDBRANCH   9  10
ENDBRANCH   8   9
BRANCH   8  22
HETATM   22  O   UNL     1      14.619   5.062  13.589  1.00  0.00    -0.395 OA
HETATM   23  H   UNL     1      13.889   4.451  13.398  1.00  0.00     0.210 HD
ENDBRANCH   8  22
ENDBRANCH   7   8
ENDBRANCH   3   7
BRANCH   5  24
HETATM   24  O   UNL     1      16.045   3.143   7.720  1.00  0.00    -0.361 OA
HETATM   25  H   UNL     1      16.841   2.812   8.088  1.00  0.00     0.217 HD
ENDBRANCH   5  24
TORSDOF 9
ENDMDL
MODEL 7
REMARK VINA RESULT:      -6.5      3.388      6.529
REMARK  9 active torsions:
REMARK  status: ('A' for Active; 'I' for Inactive)
REMARK    1  A    between atoms: C_3  and  C_8 
REMARK    2  A    between atoms: C_5  and  O_7 
REMARK    3  A    between atoms: C_8  and  C_9 
REMARK    4  A    between atoms: C_9  and  C_10 
REMARK    5  A    between atoms: C_9  and  O_20 
REMARK    6  A    between atoms: C_10  and  C_11 
REMARK    7  A    between atoms: C_12  and  O_19 
REMARK    8  A    between atoms: C_14  and  O_18 
REMARK    9  A    between atoms: C_16  and  O_17 
ROOT
HETATM    1  C   UNL     1      14.849   5.757  10.494  1.00  0.00     0.003 A 
HETATM    2  C   UNL     1      14.135   6.424  11.472  1.00  0.00     0.007 A 
HETATM    3  C   UNL     1      12.887   5.965  11.854  1.00  0.00    -0.053 A 
HETATM    4  C   UNL     1      12.353   4.840  11.258  1.00  0.00     0.043 A 
HETATM    5  C   UNL     1      13.068   4.169  10.277  1.00  0.00     0.066 A 
HETATM    6  C   UNL     1      14.319   4.631   9.896  1.00  0.00     0.036 A 
ENDROOT
BRANCH   3   7
HETATM    7  C   UNL     1      12.111   6.694  12.920  1.00  0.00     0.070 C 
BRANCH   7   8
HETATM    8  C   UNL     1      12.532   6.182  14.299  1.00  0.00     0.127 C 
BRANCH   8   9
HETATM    9  C   UNL     1      13.278   7.288  15.048  1.00  0.00     0.076 C 
BRANCH   9  10
HETATM   10  C   UNL     1      14.213   6.671  16.055  1.00  0.00     0.011 A 
HETATM   11  C   UNL     1      15.523   6.385  15.702  1.00  0.00     0.077 A 
HETATM   12  C   UNL     1      16.383   5.817  16.629  1.00  0.00     0.073 A 
HETATM   13  C   UNL     1      15.933   5.533  17.910  1.00  0.00     0.071 A 
HETATM   14  C   UNL     1      14.623   5.820  18.264  1.00  0.00     0.073 A 
HETATM   15  C   UNL     1      13.765   6.393  17.338  1.00  0.00     0.077 A 
BRANCH  11  16
HETATM   16  O   UNL     1      15.963   6.661  14.446  1.00  0.00    -0.360 OA
HETATM   17  H   UNL     1      15.836   6.040  13.758  1.00  0.00     0.217 HD
ENDBRANCH  11  16
BRANCH  13  18
HETATM   18  O   UNL     1      16.776   4.975  18.818  1.00  0.00    -0.361 OA
HETATM   19  H   UNL     1      17.585   4.598  18.536  1.00  0.00     0.217 HD
ENDBRANCH  13  18
BRANCH  15  20
HETATM   20  O   UNL     1      12.480   6.673  17.685  1.00  0.00    -0.360 OA
HETATM   21  H   UNL     1      11.868   6.945  17.031  1.00  0.00     0.217 HD
ENDBRANCH  15  20
ENDBRANCH   9  10
ENDBRANCH   8   9
BRANCH   8  22
HETATM   22  O   UNL     1      11.372   5.803  15.041  1.00  0.00    -0.395 OA
HETATM   23  H   UNL     1      11.633   5.538  15.937  1.00  0.00     0.210 HD
ENDBRANCH   8  22
ENDBRANCH   7   8
ENDBRANCH   3   7
BRANCH   5  24
HETATM   24  O   UNL     1      12.543   3.060   9.690  1.00  0.00    -0.361 OA
HETATM   25  H   UNL     1      12.409   3.040   8.763  1.00  0.00     0.217 HD
ENDBRANCH   5  24
TORSDOF 9
ENDMDL
MODEL 8
REMARK VINA RESULT:      -6.5      3.383      6.664
REMARK  9 active torsions:
REMARK  status: ('A' for Active; 'I' for Inactive)
REMARK    1  A    between atoms: C_3  and  C_8 
REMARK    2  A    between atoms: C_5  and  O_7 
REMARK    3  A    between atoms: C_8  and  C_9 
REMARK    4  A    between atoms: C_9  and  C_10 
REMARK    5  A    between atoms: C_9  and  O_20 
REMARK    6  A    between atoms: C_10  and  C_11 
REMARK    7  A    between atoms: C_12  and  O_19 
REMARK    8  A    between atoms: C_14  and  O_18 
REMARK    9  A    between atoms: C_16  and  O_17 
ROOT
HETATM    1  C   UNL     1      14.875   5.735  10.511  1.00  0.00     0.003 A 
HETATM    2  C   UNL     1      14.155   6.401  11.485  1.00  0.00     0.007 A 
HETATM    3  C   UNL     1      12.902   5.947  11.854  1.00  0.00    -0.053 A 
HETATM    4  C   UNL     1      12.368   4.826  11.250  1.00  0.00     0.043 A 
HETATM    5  C   UNL     1      13.088   4.156  10.272  1.00  0.00     0.066 A 
HETATM    6  C   UNL     1      14.345   4.614   9.904  1.00  0.00     0.036 A 
ENDROOT
BRANCH   3   7
HETATM    7  C   UNL     1      12.119   6.675  12.916  1.00  0.00     0.070 C 
BRANCH   7   8
HETATM    8  C   UNL     1      12.539   6.168  14.298  1.00  0.00     0.127 C 
BRANCH   8   9
HETATM    9  C   UNL     1      13.279   7.279  15.046  1.00  0.00     0.076 C 
BRANCH   9  10
HETATM   10  C   UNL     1      14.208   6.667  16.062  1.00  0.00     0.011 A 
HETATM   11  C   UNL     1      13.752   6.396  17.344  1.00  0.00     0.077 A 
HETATM   12  C   UNL     1      14.607   5.833  18.280  1.00  0.00     0.073 A 
HETATM   13  C   UNL     1      15.918   5.542  17.934  1.00  0.00     0.071 A 
HETATM   14  C   UNL     1      16.373   5.811  16.652  1.00  0.00     0.073 A 
HETATM   15  C   UNL     1      15.517   6.370  15.715  1.00  0.00     0.077 A 
BRANCH  11  16
HETATM   16  O   UNL     1      12.468   6.683  17.683  1.00  0.00    -0.360 OA
HETATM   17  H   UNL     1      12.224   7.563  17.891  1.00  0.00     0.217 HD
ENDBRANCH  11  16
BRANCH  13  18
HETATM   18  O   UNL     1      16.756   4.991  18.851  1.00  0.00    -0.361 OA
HETATM   19  H   UNL     1      16.413   4.446  19.531  1.00  0.00     0.217 HD
ENDBRANCH  13  18
BRANCH  15  20
HETATM   20  O   UNL     1      15.964   6.635  14.459  1.00  0.00    -0.360 OA
HETATM   21  H   UNL     1      15.435   6.414  13.718  1.00  0.00     0.217 HD
ENDBRANCH  15  20
ENDBRANCH   9  10
ENDBRANCH   8   9
BRANCH   8  22
HETATM   22  O   UNL     1      11.378   5.787  15.038  1.00  0.00    -0.395 OA
HETATM   23  H   UNL     1      11.211   4.839  14.913  1.00  0.00     0.210 HD
ENDBRANCH   8  22
ENDBRANCH   7   8
ENDBRANCH   3   7
BRANCH   5  24
HETATM   24  O   UNL     1      12.564   3.052   9.676  1.00  0.00    -0.361 OA
HETATM   25  H   UNL     1      13.042   2.246   9.681  1.00  0.00     0.217 HD
ENDBRANCH   5  24
TORSDOF 9
ENDMDL
MODEL 9
REMARK VINA RESULT:      -6.4      2.182      6.218
REMARK  9 active torsions:
REMARK  status: ('A' for Active; 'I' for Inactive)
REMARK    1  A    between atoms: C_3  and  C_8 
REMARK    2  A    between atoms: C_5  and  O_7 
REMARK    3  A    between atoms: C_8  and  C_9 
REMARK    4  A    between atoms: C_9  and  C_10 
REMARK    5  A    between atoms: C_9  and  O_20 
REMARK    6  A    between atoms: C_10  and  C_11 
REMARK    7  A    between atoms: C_12  and  O_19 
REMARK    8  A    between atoms: C_14  and  O_18 
REMARK    9  A    between atoms: C_16  and  O_17 
ROOT
HETATM    1  C   UNL     1      12.186   6.167  14.846  1.00  0.00     0.003 A 
HETATM    2  C   UNL     1      12.555   5.717  13.592  1.00  0.00     0.007 A 
HETATM    3  C   UNL     1      12.933   6.620  12.615  1.00  0.00    -0.053 A 
HETATM    4  C   UNL     1      12.943   7.972  12.890  1.00  0.00     0.043 A 
HETATM    5  C   UNL     1      12.573   8.426  14.148  1.00  0.00     0.066 A 
HETATM    6  C   UNL     1      12.195   7.519  15.126  1.00  0.00     0.036 A 
ENDROOT
BRANCH   3   7
HETATM    7  C   UNL     1      13.334   6.126  11.248  1.00  0.00     0.070 C 
BRANCH   7   8
HETATM    8  C   UNL     1      14.804   6.469  10.993  1.00  0.00     0.127 C 
BRANCH   8   9
HETATM    9  C   UNL     1      15.671   5.241  11.275  1.00  0.00     0.076 C 
BRANCH   9  10
HETATM   10  C   UNL     1      16.993   5.681  11.849  1.00  0.00     0.011 A 
HETATM   11  C   UNL     1      18.072   5.913  11.008  1.00  0.00     0.077 A 
HETATM   12  C   UNL     1      19.288   6.318  11.536  1.00  0.00     0.073 A 
HETATM   13  C   UNL     1      19.426   6.490  12.906  1.00  0.00     0.071 A 
HETATM   14  C   UNL     1      18.347   6.260  13.746  1.00  0.00     0.073 A 
HETATM   15  C   UNL     1      17.130   5.860  13.217  1.00  0.00     0.077 A 
BRANCH  11  16
HETATM   16  O   UNL     1      17.936   5.743   9.667  1.00  0.00    -0.360 OA
HETATM   17  H   UNL     1      17.370   5.075   9.334  1.00  0.00     0.217 HD
ENDBRANCH  11  16
BRANCH  13  18
HETATM   18  O   UNL     1      20.619   6.886  13.424  1.00  0.00    -0.361 OA
HETATM   19  H   UNL     1      21.407   6.448  13.172  1.00  0.00     0.217 HD
ENDBRANCH  13  18
BRANCH  15  20
HETATM   20  O   UNL     1      16.073   5.633  14.041  1.00  0.00    -0.360 OA
HETATM   21  H   UNL     1      16.060   6.006  14.900  1.00  0.00     0.217 HD
ENDBRANCH  15  20
ENDBRANCH   9  10
ENDBRANCH   8   9
BRANCH   8  22
HETATM   22  O   UNL     1      14.969   6.867   9.630  1.00  0.00    -0.395 OA
HETATM   23  H   UNL     1      14.801   7.819   9.548  1.00  0.00     0.210 HD
ENDBRANCH   8  22
ENDBRANCH   7   8
ENDBRANCH   3   7
BRANCH   5  24
HETATM   24  O   UNL     1      12.584   9.758  14.421  1.00  0.00    -0.361 OA
HETATM   25  H   UNL     1      12.042  10.100  15.105  1.00  0.00     0.217 HD
ENDBRANCH   5  24
TORSDOF 9
ENDMDL
