MODEL 1
REMARK VINA RESULT:      -6.8      0.000      0.000
REMARK  9 active torsions:
REMARK  status: ('A' for Active; 'I' for Inactive)
REMARK    1  A    between atoms: C_3  and  C_8 
REMARK    2  A    between atoms: C_5  and  O_7 
REMARK    3  A    between atoms: C_8  and  C_9 
REMARK    4  A    between atoms: C_9  and  C_10 
REMARK    5  A    between atoms: C_9  and  O_20 
REMARK    6  A    between atoms: C_10  and  C_11 
REMARK    7  A    between atoms: C_12  and  O_19 
REMARK    8  A    between atoms: C_14  and  O_18 
REMARK    9  A    between atoms: C_16  and  O_17 
ROOT
HETATM    1  C   UNL     1      17.125   5.635  11.109  1.00  0.00     0.003 A 
HETATM    2  C   UNL     1      16.417   6.513  10.310  1.00  0.00     0.007 A 
HETATM    3  C   UNL     1      16.781   6.697   8.989  1.00  0.00    -0.053 A 
HETATM    4  C   UNL     1      17.855   6.003   8.465  1.00  0.00     0.043 A 
HETATM    5  C   UNL     1      18.567   5.122   9.265  1.00  0.00     0.066 A 
HETATM    6  C   UNL     1      18.199   4.939  10.590  1.00  0.00     0.036 A 
ENDROOT
BRANCH   3   7
HETATM    7  C   UNL     1      16.007   7.654   8.120  1.00  0.00     0.070 C 
BRANCH   7   8
HETATM    8  C   UNL     1      14.631   7.062   7.808  1.00  0.00     0.127 C 
BRANCH   8   9
HETATM    9  C   UNL     1      13.541   7.996   8.338  1.00  0.00     0.076 C 
BRANCH   9  10
HETATM   10  C   UNL     1      12.369   7.180   8.817  1.00  0.00     0.011 A 
HETATM   11  C   UNL     1      11.396   6.768   7.918  1.00  0.00     0.077 A 
HETATM   12  C   UNL     1      10.318   6.016   8.360  1.00  0.00     0.073 A 
HETATM   13  C   UNL     1      10.211   5.677   9.700  1.00  0.00     0.071 A 
HETATM   14  C   UNL     1      11.185   6.088  10.599  1.00  0.00     0.073 A 
HETATM   15  C   UNL     1      12.265   6.835  10.156  1.00  0.00     0.077 A 
BRANCH  11  16
HETATM   16  O   UNL     1      11.500   7.101   6.605  1.00  0.00    -0.360 OA
HETATM   17  H   UNL     1      10.960   7.779   6.250  1.00  0.00     0.217 HD
ENDBRANCH  11  16
BRANCH  13  18
HETATM   18  O   UNL     1       9.154   4.942  10.133  1.00  0.00    -0.361 OA
HETATM   19  H   UNL     1       8.463   5.353  10.614  1.00  0.00     0.217 HD
ENDBRANCH  13  18
BRANCH  15  20
HETATM   20  O   UNL     1      13.219   7.238  11.038  1.00  0.00    -0.360 OA
HETATM   21  H   UNL     1      13.614   6.617  11.616  1.00  0.00     0.217 HD
ENDBRANCH  15  20
ENDBRANCH   9  10
ENDBRANCH   8   9
BRANCH   8  22
HETATM   22  O   UNL     1      14.486   6.914   6.394  1.00  0.00    -0.395 OA
HETATM   23  H   UNL     1      13.721   6.347   6.205  1.00  0.00     0.210 HD
ENDBRANCH   8  22
ENDBRANCH   7   8
ENDBRANCH   3   7
BRANCH   5  24
HETATM   24  O   UNL     1      19.624   4.438   8.751  1.00  0.00    -0.361 OA
HETATM   25  H   UNL     1      20.476   4.829   8.744  1.00  0.00     0.217 HD
ENDBRANCH   5  24
TORSDOF 9
ENDMDL
MODEL 2
REMARK VINA RESULT:      -6.8      0.039      1.848
REMARK  9 active torsions:
REMARK  status: ('A' for Active; 'I' for Inactive)
REMARK    1  A    between atoms: C_3  and  C_8 
REMARK    2  A    between atoms: C_5  and  O_7 
REMARK    3  A    between atoms: C_8  and  C_9 
REMARK    4  A    between atoms: C_9  and  C_10 
REMARK    5  A    between atoms: C_9  and  O_20 
REMARK    6  A    between atoms: C_10  and  C_11 
REMARK    7  A    between atoms: C_12  and  O_19 
REMARK    8  A    between atoms: C_14  and  O_18 
REMARK    9  A    between atoms: C_16  and  O_17 
ROOT
HETATM    1  C   UNL     1      17.129   5.663  11.093  1.00  0.00     0.003 A 
HETATM    2  C   UNL     1      16.418   6.523  10.277  1.00  0.00     0.007 A 
HETATM    3  C   UNL     1      16.794   6.697   8.957  1.00  0.00    -0.053 A 
HETATM    4  C   UNL     1      17.882   6.013   8.453  1.00  0.00     0.043 A 
HETATM    5  C   UNL     1      18.598   5.150   9.270  1.00  0.00     0.066 A 
HETATM    6  C   UNL     1      18.218   4.976  10.593  1.00  0.00     0.036 A 
ENDROOT
BRANCH   3   7
HETATM    7  C   UNL     1      16.016   7.634   8.070  1.00  0.00     0.070 C 
BRANCH   7   8
HETATM    8  C   UNL     1      14.637   7.036   7.780  1.00  0.00     0.127 C 
BRANCH   8   9
HETATM    9  C   UNL     1      13.552   7.977   8.307  1.00  0.00     0.076 C 
BRANCH   9  10
HETATM   10  C   UNL     1      12.377   7.167   8.789  1.00  0.00     0.011 A 
HETATM   11  C   UNL     1      12.278   6.815  10.127  1.00  0.00     0.077 A 
HETATM   12  C   UNL     1      11.196   6.070  10.571  1.00  0.00     0.073 A 
HETATM   13  C   UNL     1      10.213   5.676   9.676  1.00  0.00     0.071 A 
HETATM   14  C   UNL     1      10.310   6.029   8.338  1.00  0.00     0.073 A 
HETATM   15  C   UNL     1      11.390   6.778   7.896  1.00  0.00     0.077 A 
BRANCH  11  16
HETATM   16  O   UNL     1      13.243   7.201  11.003  1.00  0.00    -0.360 OA
HETATM   17  H   UNL     1      14.142   7.012  10.822  1.00  0.00     0.217 HD
ENDBRANCH  11  16
BRANCH  13  18
HETATM   18  O   UNL     1       9.153   4.944  10.110  1.00  0.00    -0.361 OA
HETATM   19  H   UNL     1       8.783   5.112  10.955  1.00  0.00     0.217 HD
ENDBRANCH  13  18
BRANCH  15  20
HETATM   20  O   UNL     1      11.486   7.123   6.585  1.00  0.00    -0.360 OA
HETATM   21  H   UNL     1      10.732   7.071   6.031  1.00  0.00     0.217 HD
ENDBRANCH  15  20
ENDBRANCH   9  10
ENDBRANCH   8   9
BRANCH   8  22
HETATM   22  O   UNL     1      14.479   6.869   6.370  1.00  0.00    -0.395 OA
HETATM   23  H   UNL     1      13.952   6.073   6.195  1.00  0.00     0.210 HD
ENDBRANCH   8  22
ENDBRANCH   7   8
ENDBRANCH   3   7
BRANCH   5  24
HETATM   24  O   UNL     1      19.669   4.475   8.775  1.00  0.00    -0.361 OA
HETATM   25  H   UNL     1      20.080   4.764   7.984  1.00  0.00     0.217 HD
ENDBRANCH   5  24
TORSDOF 9
ENDMDL
MODEL 3
REMARK VINA RESULT:      -6.7      1.404      2.663
REMARK  9 active torsions:
REMARK  status: ('A' for Active; 'I' for Inactive)
REMARK    1  A    between atoms: C_3  and  C_8 
REMARK    2  A    between atoms: C_5  and  O_7 
REMARK    3  A    between atoms: C_8  and  C_9 
REMARK    4  A    between atoms: C_9  and  C_10 
REMARK    5  A    between atoms: C_9  and  O_20 
REMARK    6  A    between atoms: C_10  and  C_11 
REMARK    7  A    between atoms: C_12  and  O_19 
REMARK    8  A    between atoms: C_14  and  O_18 
REMARK    9  A    between atoms: C_16  and  O_17 
ROOT
HETATM    1  C   UNL     1      16.292   6.379  10.324  1.00  0.00     0.003 A 
HETATM    2  C   UNL     1      15.162   6.950   9.770  1.00  0.00     0.007 A 
HETATM    3  C   UNL     1      15.183   7.399   8.462  1.00  0.00    -0.053 A 
HETATM    4  C   UNL     1      16.333   7.279   7.708  1.00  0.00     0.043 A 
HETATM    5  C   UNL     1      17.468   6.707   8.262  1.00  0.00     0.066 A 
HETATM    6  C   UNL     1      17.445   6.256   9.574  1.00  0.00     0.036 A 
ENDROOT
BRANCH   3   7
HETATM    7  C   UNL     1      13.949   8.021   7.860  1.00  0.00     0.070 C 
BRANCH   7   8
HETATM    8  C   UNL     1      12.782   7.035   7.956  1.00  0.00     0.127 C 
BRANCH   8   9
HETATM    9  C   UNL     1      11.649   7.664   8.769  1.00  0.00     0.076 C 
BRANCH   9  10
HETATM   10  C   UNL     1      11.246   6.727   9.878  1.00  0.00     0.011 A 
HETATM   11  C   UNL     1      11.729   6.924  11.164  1.00  0.00     0.077 A 
HETATM   12  C   UNL     1      11.358   6.062  12.184  1.00  0.00     0.073 A 
HETATM   13  C   UNL     1      10.506   5.000  11.919  1.00  0.00     0.071 A 
HETATM   14  C   UNL     1      10.022   4.803  10.634  1.00  0.00     0.073 A 
HETATM   15  C   UNL     1      10.389   5.669   9.615  1.00  0.00     0.077 A 
BRANCH  11  16
HETATM   16  O   UNL     1      12.565   7.964  11.422  1.00  0.00    -0.360 OA
HETATM   17  H   UNL     1      12.536   8.393  12.254  1.00  0.00     0.217 HD
ENDBRANCH  11  16
BRANCH  13  18
HETATM   18  O   UNL     1      10.144   4.154  12.919  1.00  0.00    -0.361 OA
HETATM   19  H   UNL     1       9.520   4.429  13.561  1.00  0.00     0.217 HD
ENDBRANCH  13  18
BRANCH  15  20
HETATM   20  O   UNL     1       9.916   5.475   8.356  1.00  0.00    -0.360 OA
HETATM   21  H   UNL     1       9.491   6.176   7.902  1.00  0.00     0.217 HD
ENDBRANCH  15  20
ENDBRANCH   9  10
ENDBRANCH   8   9
BRANCH   8  22
HETATM   22  O   UNL     1      12.311   6.726   6.643  1.00  0.00    -0.395 OA
HETATM   23  H   UNL     1      11.803   5.900   6.668  1.00  0.00     0.210 HD
ENDBRANCH   8  22
ENDBRANCH   7   8
ENDBRANCH   3   7
BRANCH   5  24
HETATM   24  O   UNL     1      18.602   6.587   7.521  1.00  0.00    -0.361 OA
HETATM   25  H   UNL     1      19.435   6.523   7.945  1.00  0.00     0.217 HD
ENDBRANCH   5  24
TORSDOF 9
ENDMDL
MODEL 4
REMARK VINA RESULT:      -6.6      3.664      6.706
REMARK  9 active torsions:
REMARK  status: ('A' for Active; 'I' for Inactive)
REMARK    1  A    between atoms: C_3  and  C_8 
REMARK    2  A    between atoms: C_5  and  O_7 
REMARK    3  A    between atoms: C_8  and  C_9 
REMARK    4  A    between atoms: C_9  and  C_10 
REMARK    5  A    between atoms: C_9  and  O_20 
REMARK    6  A    between atoms: C_10  and  C_11 
REMARK    7  A    between atoms: C_12  and  O_19 
REMARK    8  A    between atoms: C_14  and  O_18 
REMARK    9  A    between atoms: C_16  and  O_17 
ROOT
HETATM    1  C   UNL     1      11.997   6.844   7.129  1.00  0.00     0.003 A 
HETATM    2  C   UNL     1      13.116   6.852   7.940  1.00  0.00     0.007 A 
HETATM    3  C   UNL     1      12.981   6.717   9.310  1.00  0.00    -0.053 A 
HETATM    4  C   UNL     1      11.726   6.575   9.870  1.00  0.00     0.043 A 
HETATM    5  C   UNL     1      10.602   6.567   9.058  1.00  0.00     0.066 A 
HETATM    6  C   UNL     1      10.740   6.702   7.684  1.00  0.00     0.036 A 
ENDROOT
BRANCH   3   7
HETATM    7  C   UNL     1      14.203   6.726  10.192  1.00  0.00     0.070 C 
BRANCH   7   8
HETATM    8  C   UNL     1      13.784   6.972  11.643  1.00  0.00     0.127 C 
BRANCH   8   9
HETATM    9  C   UNL     1      14.469   5.950  12.552  1.00  0.00     0.076 C 
BRANCH   9  10
HETATM   10  C   UNL     1      14.362   6.402  13.986  1.00  0.00     0.011 A 
HETATM   11  C   UNL     1      13.210   6.138  14.712  1.00  0.00     0.077 A 
HETATM   12  C   UNL     1      13.111   6.554  16.031  1.00  0.00     0.073 A 
HETATM   13  C   UNL     1      14.164   7.234  16.624  1.00  0.00     0.071 A 
HETATM   14  C   UNL     1      15.316   7.497  15.898  1.00  0.00     0.073 A 
HETATM   15  C   UNL     1      15.417   7.077  14.581  1.00  0.00     0.077 A 
BRANCH  11  16
HETATM   16  O   UNL     1      12.178   5.472  14.130  1.00  0.00    -0.360 OA
HETATM   17  H   UNL     1      12.344   4.867  13.435  1.00  0.00     0.217 HD
ENDBRANCH  11  16
BRANCH  13  18
HETATM   18  O   UNL     1      14.067   7.642  17.917  1.00  0.00    -0.361 OA
HETATM   19  H   UNL     1      13.726   8.492  18.115  1.00  0.00     0.217 HD
ENDBRANCH  13  18
BRANCH  15  20
HETATM   20  O   UNL     1      16.546   7.336  13.870  1.00  0.00    -0.360 OA
HETATM   21  H   UNL     1      17.241   7.830  14.257  1.00  0.00     0.217 HD
ENDBRANCH  15  20
ENDBRANCH   9  10
ENDBRANCH   8   9
BRANCH   8  22
HETATM   22  O   UNL     1      14.170   8.291  12.033  1.00  0.00    -0.395 OA
HETATM   23  H   UNL     1      13.962   8.914  11.318  1.00  0.00     0.210 HD
ENDBRANCH   8  22
ENDBRANCH   7   8
ENDBRANCH   3   7
BRANCH   5  24
HETATM   24  O   UNL     1       9.366   6.427   9.607  1.00  0.00    -0.361 OA
HETATM   25  H   UNL     1       8.746   7.128   9.552  1.00  0.00     0.217 HD
ENDBRANCH   5  24
TORSDOF 9
ENDMDL
MODEL 5
REMARK VINA RESULT:      -6.6      3.653      6.775
REMARK  9 active torsions:
REMARK  status: ('A' for Active; 'I' for Inactive)
REMARK    1  A    between atoms: C_3  and  C_8 
REMARK    2  A    between atoms: C_5  and  O_7 
REMARK    3  A    between atoms: C_8  and  C_9 
REMARK    4  A    between atoms: C_9  and  C_10 
REMARK    5  A    between atoms: C_9  and  O_20 
REMARK    6  A    between atoms: C_10  and  C_11 
REMARK    7  A    between atoms: C_12  and  O_19 
REMARK    8  A    between atoms: C_14  and  O_18 
REMARK    9  A    between atoms: C_16  and  O_17 
ROOT
HETATM    1  C   UNL     1      11.974   6.825   7.118  1.00  0.00     0.003 A 
HETATM    2  C   UNL     1      13.097   6.852   7.923  1.00  0.00     0.007 A 
HETATM    3  C   UNL     1      12.969   6.733   9.295  1.00  0.00    -0.053 A 
HETATM    4  C   UNL     1      11.719   6.589   9.863  1.00  0.00     0.043 A 
HETATM    5  C   UNL     1      10.591   6.563   9.057  1.00  0.00     0.066 A 
HETATM    6  C   UNL     1      10.721   6.681   7.681  1.00  0.00     0.036 A 
ENDROOT
BRANCH   3   7
HETATM    7  C   UNL     1      14.196   6.762  10.171  1.00  0.00     0.070 C 
BRANCH   7   8
HETATM    8  C   UNL     1      13.780   7.002  11.624  1.00  0.00     0.127 C 
BRANCH   8   9
HETATM    9  C   UNL     1      14.477   5.984  12.529  1.00  0.00     0.076 C 
BRANCH   9  10
HETATM   10  C   UNL     1      14.371   6.432  13.963  1.00  0.00     0.011 A 
HETATM   11  C   UNL     1      15.421   7.118  14.556  1.00  0.00     0.077 A 
HETATM   12  C   UNL     1      15.323   7.530  15.876  1.00  0.00     0.073 A 
HETATM   13  C   UNL     1      14.175   7.256  16.605  1.00  0.00     0.071 A 
HETATM   14  C   UNL     1      13.125   6.571  16.012  1.00  0.00     0.073 A 
HETATM   15  C   UNL     1      13.221   6.163  14.690  1.00  0.00     0.077 A 
BRANCH  11  16
HETATM   16  O   UNL     1      16.546   7.385  13.842  1.00  0.00    -0.360 OA
HETATM   17  H   UNL     1      16.603   7.127  12.943  1.00  0.00     0.217 HD
ENDBRANCH  11  16
BRANCH  13  18
HETATM   18  O   UNL     1      14.080   7.658  17.899  1.00  0.00    -0.361 OA
HETATM   19  H   UNL     1      14.079   7.024  18.588  1.00  0.00     0.217 HD
ENDBRANCH  13  18
BRANCH  15  20
HETATM   20  O   UNL     1      12.191   5.492  14.110  1.00  0.00    -0.360 OA
HETATM   21  H   UNL     1      12.221   5.289  13.196  1.00  0.00     0.217 HD
ENDBRANCH  15  20
ENDBRANCH   9  10
ENDBRANCH   8   9
BRANCH   8  22
HETATM   22  O   UNL     1      14.159   8.324  12.014  1.00  0.00    -0.395 OA
HETATM   23  H   UNL     1      14.412   8.324  12.951  1.00  0.00     0.210 HD
ENDBRANCH   8  22
ENDBRANCH   7   8
ENDBRANCH   3   7
BRANCH   5  24
HETATM   24  O   UNL     1       9.359   6.420   9.615  1.00  0.00    -0.361 OA
HETATM   25  H   UNL     1       8.593   6.643   9.122  1.00  0.00     0.217 HD
ENDBRANCH   5  24
TORSDOF 9
ENDMDL
MODEL 6
REMARK VINA RESULT:      -6.5      3.352      6.530
REMARK  9 active torsions:
REMARK  status: ('A' for Active; 'I' for Inactive)
REMARK    1  A    between atoms: C_3  and  C_8 
REMARK    2  A    between atoms: C_5  and  O_7 
REMARK    3  A    between atoms: C_8  and  C_9 
REMARK    4  A    between atoms: C_9  and  C_10 
REMARK    5  A    between atoms: C_9  and  O_20 
REMARK    6  A    between atoms: C_10  and  C_11 
REMARK    7  A    between atoms: C_12  and  O_19 
REMARK    8  A    between atoms: C_14  and  O_18 
REMARK    9  A    between atoms: C_16  and  O_17 
ROOT
HETATM    1  C   UNL     1      12.888   7.703   7.966  1.00  0.00     0.003 A 
HETATM    2  C   UNL     1      12.463   8.253   9.161  1.00  0.00     0.007 A 
HETATM    3  C   UNL     1      11.227   7.912   9.681  1.00  0.00    -0.053 A 
HETATM    4  C   UNL     1      10.415   7.022   9.006  1.00  0.00     0.043 A 
HETATM    5  C   UNL     1      10.839   6.470   7.806  1.00  0.00     0.066 A 
HETATM    6  C   UNL     1      12.079   6.813   7.287  1.00  0.00     0.036 A 
ENDROOT
BRANCH   3   7
HETATM    7  C   UNL     1      10.767   8.512  10.984  1.00  0.00     0.070 C 
BRANCH   7   8
HETATM    8  C   UNL     1      11.268   7.652  12.147  1.00  0.00     0.127 C 
BRANCH   8   9
HETATM    9  C   UNL     1      12.294   8.443  12.961  1.00  0.00     0.076 C 
BRANCH   9  10
HETATM   10  C   UNL     1      13.242   7.487  13.638  1.00  0.00     0.011 A 
HETATM   11  C   UNL     1      14.401   7.083  12.991  1.00  0.00     0.077 A 
HETATM   12  C   UNL     1      15.273   6.204  13.614  1.00  0.00     0.073 A 
HETATM   13  C   UNL     1      14.987   5.728  14.885  1.00  0.00     0.071 A 
HETATM   14  C   UNL     1      13.829   6.133  15.533  1.00  0.00     0.073 A 
HETATM   15  C   UNL     1      12.960   7.016  14.911  1.00  0.00     0.077 A 
BRANCH  11  16
HETATM   16  O   UNL     1      14.680   7.549  11.745  1.00  0.00    -0.360 OA
HETATM   17  H   UNL     1      14.322   7.121  10.994  1.00  0.00     0.217 HD
ENDBRANCH  11  16
BRANCH  13  18
HETATM   18  O   UNL     1      15.841   4.865  15.495  1.00  0.00    -0.361 OA
HETATM   19  H   UNL     1      16.226   4.164  15.008  1.00  0.00     0.217 HD
ENDBRANCH  13  18
BRANCH  15  20
HETATM   20  O   UNL     1      11.825   7.411  15.546  1.00  0.00    -0.360 OA
HETATM   21  H   UNL     1      11.616   8.322  15.608  1.00  0.00     0.217 HD
ENDBRANCH  15  20
ENDBRANCH   9  10
ENDBRANCH   8   9
BRANCH   8  22
HETATM   22  O   UNL     1      10.167   7.297  12.985  1.00  0.00    -0.395 OA
HETATM   23  H   UNL     1       9.665   8.096  13.215  1.00  0.00     0.210 HD
ENDBRANCH   8  22
ENDBRANCH   7   8
ENDBRANCH   3   7
BRANCH   5  24
HETATM   24  O   UNL     1      10.042   5.593   7.141  1.00  0.00    -0.361 OA
HETATM   25  H   UNL     1       9.811   4.775   7.537  1.00  0.00     0.217 HD
ENDBRANCH   5  24
TORSDOF 9
ENDMDL
MODEL 7
REMARK VINA RESULT:      -6.5      3.354      6.669
REMARK  9 active torsions:
REMARK  status: ('A' for Active; 'I' for Inactive)
REMARK    1  A    between atoms: C_3  and  C_8 
REMARK    2  A    between atoms: C_5  and  O_7 
REMARK    3  A    between atoms: C_8  and  C_9 
REMARK    4  A    between atoms: C_9  and  C_10 
REMARK    5  A    between atoms: C_9  and  O_20 
REMARK    6  A    between atoms: C_10  and  C_11 
REMARK    7  A    between atoms: C_12  and  O_19 
REMARK    8  A    between atoms: C_14  and  O_18 
REMARK    9  A    between atoms: C_16  and  O_17 
ROOT
HETATM    1  C   UNL     1      12.868   7.727   7.949  1.00  0.00     0.003 A 
HETATM    2  C   UNL     1      12.448   8.274   9.147  1.00  0.00     0.007 A 
HETATM    3  C   UNL     1      11.224   7.916   9.682  1.00  0.00    -0.053 A 
HETATM    4  C   UNL     1      10.419   7.010   9.020  1.00  0.00     0.043 A 
HETATM    5  C   UNL     1      10.838   6.460   7.818  1.00  0.00     0.066 A 
HETATM    6  C   UNL     1      12.066   6.821   7.283  1.00  0.00     0.036 A 
ENDROOT
BRANCH   3   7
HETATM    7  C   UNL     1      10.769   8.514  10.988  1.00  0.00     0.070 C 
BRANCH   7   8
HETATM    8  C   UNL     1      11.273   7.651  12.148  1.00  0.00     0.127 C 
BRANCH   8   9
HETATM    9  C   UNL     1      12.300   8.441  12.962  1.00  0.00     0.076 C 
BRANCH   9  10
HETATM   10  C   UNL     1      13.248   7.484  13.638  1.00  0.00     0.011 A 
HETATM   11  C   UNL     1      12.967   7.013  14.912  1.00  0.00     0.077 A 
HETATM   12  C   UNL     1      13.839   6.132  15.534  1.00  0.00     0.073 A 
HETATM   13  C   UNL     1      14.992   5.723  14.882  1.00  0.00     0.071 A 
HETATM   14  C   UNL     1      15.272   6.193  13.607  1.00  0.00     0.073 A 
HETATM   15  C   UNL     1      14.398   7.069  12.984  1.00  0.00     0.077 A 
BRANCH  11  16
HETATM   16  O   UNL     1      11.837   7.416  15.551  1.00  0.00    -0.360 OA
HETATM   17  H   UNL     1      11.643   8.329  15.629  1.00  0.00     0.217 HD
ENDBRANCH  11  16
BRANCH  13  18
HETATM   18  O   UNL     1      15.848   4.861  15.491  1.00  0.00    -0.361 OA
HETATM   19  H   UNL     1      15.784   4.712  16.414  1.00  0.00     0.217 HD
ENDBRANCH  13  18
BRANCH  15  20
HETATM   20  O   UNL     1      14.673   7.530  11.735  1.00  0.00    -0.360 OA
HETATM   21  H   UNL     1      15.468   7.279  11.308  1.00  0.00     0.217 HD
ENDBRANCH  15  20
ENDBRANCH   9  10
ENDBRANCH   8   9
BRANCH   8  22
HETATM   22  O   UNL     1      10.173   7.293  12.987  1.00  0.00    -0.395 OA
HETATM   23  H   UNL     1      10.508   6.965  13.837  1.00  0.00     0.210 HD
ENDBRANCH   8  22
ENDBRANCH   7   8
ENDBRANCH   3   7
BRANCH   5  24
HETATM   24  O   UNL     1      10.047   5.567   7.165  1.00  0.00    -0.361 OA
HETATM   25  H   UNL     1       9.742   4.800   7.608  1.00  0.00     0.217 HD
ENDBRANCH   5  24
TORSDOF 9
ENDMDL
MODEL 8
REMARK VINA RESULT:      -6.5      2.333      3.409
REMARK  9 active torsions:
REMARK  status: ('A' for Active; 'I' for Inactive)
REMARK    1  A    between atoms: C_3  and  C_8 
REMARK    2  A    between atoms: C_5  and  O_7 
REMARK    3  A    between atoms: C_8  and  C_9 
REMARK    4  A    between atoms: C_9  and  C_10 
REMARK    5  A    between atoms: C_9  and  O_20 
REMARK    6  A    between atoms: C_10  and  C_11 
REMARK    7  A    between atoms: C_12  and  O_19 
REMARK    8  A    between atoms: C_14  and  O_18 
REMARK    9  A    between atoms: C_16  and  O_17 
ROOT
HETATM    1  C   UNL     1      16.568   6.274  10.361  1.00  0.00     0.003 A 
HETATM    2  C   UNL     1      15.341   6.564   9.795  1.00  0.00     0.007 A 
HETATM    3  C   UNL     1      15.263   6.958   8.472  1.00  0.00    -0.053 A 
HETATM    4  C   UNL     1      16.412   7.063   7.713  1.00  0.00     0.043 A 
HETATM    5  C   UNL     1      17.645   6.773   8.279  1.00  0.00     0.066 A 
HETATM    6  C   UNL     1      17.720   6.377   9.606  1.00  0.00     0.036 A 
ENDROOT
BRANCH   3   7
HETATM    7  C   UNL     1      13.923   7.274   7.858  1.00  0.00     0.070 C 
BRANCH   7   8
HETATM    8  C   UNL     1      12.836   7.183   8.931  1.00  0.00     0.127 C 
BRANCH   8   9
HETATM    9  C   UNL     1      12.432   8.592   9.367  1.00  0.00     0.076 C 
BRANCH   9  10
HETATM   10  C   UNL     1      11.941   8.555  10.792  1.00  0.00     0.011 A 
HETATM   11  C   UNL     1      12.847   8.615  11.840  1.00  0.00     0.077 A 
HETATM   12  C   UNL     1      12.396   8.580  13.150  1.00  0.00     0.073 A 
HETATM   13  C   UNL     1      11.037   8.486  13.413  1.00  0.00     0.071 A 
HETATM   14  C   UNL     1      10.131   8.428  12.365  1.00  0.00     0.073 A 
HETATM   15  C   UNL     1      10.582   8.467  11.055  1.00  0.00     0.077 A 
BRANCH  11  16
HETATM   16  O   UNL     1      14.178   8.706  11.582  1.00  0.00    -0.360 OA
HETATM   17  H   UNL     1      14.772   8.948  12.265  1.00  0.00     0.217 HD
ENDBRANCH  11  16
BRANCH  13  18
HETATM   18  O   UNL     1      10.594   8.452  14.697  1.00  0.00    -0.361 OA
HETATM   19  H   UNL     1       9.674   8.457  14.875  1.00  0.00     0.217 HD
ENDBRANCH  13  18
BRANCH  15  20
HETATM   20  O   UNL     1       9.694   8.409  10.028  1.00  0.00    -0.360 OA
HETATM   21  H   UNL     1       9.717   7.689   9.429  1.00  0.00     0.217 HD
ENDBRANCH  15  20
ENDBRANCH   9  10
ENDBRANCH   8   9
BRANCH   8  22
HETATM   22  O   UNL     1      11.697   6.505   8.397  1.00  0.00    -0.395 OA
HETATM   23  H   UNL     1      10.981   6.511   9.052  1.00  0.00     0.210 HD
ENDBRANCH   8  22
ENDBRANCH   7   8
ENDBRANCH   3   7
BRANCH   5  24
HETATM   24  O   UNL     1      18.777   6.875   7.533  1.00  0.00    -0.361 OA
HETATM   25  H   UNL     1      19.094   6.131   7.059  1.00  0.00     0.217 HD
ENDBRANCH   5  24
TORSDOF 9
ENDMDL
MODEL 9
REMARK VINA RESULT:      -6.4      1.592      2.816
REMARK  9 active torsions:
REMARK  status: ('A' for Active; 'I' for Inactive)
REMARK    1  A    between atoms: C_3  and  C_8 
REMARK    2  A    between atoms: C_5  and  O_7 
REMARK    3  A    between atoms: C_8  and  C_9 
REMARK    4  A    between atoms: C_9  and  C_10 
REMARK    5  A    between atoms: C_9  and  O_20 
REMARK    6  A    between atoms: C_10  and  C_11 
REMARK    7  A    between atoms: C_12  and  O_19 
REMARK    8  A    between atoms: C_14  and  O_18 
REMARK    9  A    between atoms: C_16  and  O_17 
ROOT
HETATM    1  C   UNL     1      17.672   5.713  10.978  1.00  0.00     0.003 A 
HETATM    2  C   UNL     1      16.331   5.977  11.180  1.00  0.00     0.007 A 
HETATM    3  C   UNL     1      15.563   6.492  10.151  1.00  0.00    -0.053 A 
HETATM    4  C   UNL     1      16.136   6.744   8.921  1.00  0.00     0.043 A 
HETATM    5  C   UNL     1      17.483   6.480   8.716  1.00  0.00     0.066 A 
HETATM    6  C   UNL     1      18.250   5.963   9.749  1.00  0.00     0.036 A 
ENDROOT
BRANCH   3   7
HETATM    7  C   UNL     1      14.100   6.779  10.374  1.00  0.00     0.070 C 
BRANCH   7   8
HETATM    8  C   UNL     1      13.935   8.201  10.913  1.00  0.00     0.127 C 
BRANCH   8   9
HETATM    9  C   UNL     1      12.905   8.951  10.066  1.00  0.00     0.076 C 
BRANCH   9  10
HETATM   10  C   UNL     1      12.086   7.961   9.279  1.00  0.00     0.011 A 
HETATM   11  C   UNL     1      11.036   7.289   9.887  1.00  0.00     0.077 A 
HETATM   12  C   UNL     1      10.283   6.377   9.162  1.00  0.00     0.073 A 
HETATM   13  C   UNL     1      10.580   6.138   7.829  1.00  0.00     0.071 A 
HETATM   14  C   UNL     1      11.629   6.811   7.220  1.00  0.00     0.073 A 
HETATM   15  C   UNL     1      12.379   7.725   7.944  1.00  0.00     0.077 A 
BRANCH  11  16
HETATM   16  O   UNL     1      10.747   7.523  11.194  1.00  0.00    -0.360 OA
HETATM   17  H   UNL     1      11.019   8.323  11.598  1.00  0.00     0.217 HD
ENDBRANCH  11  16
BRANCH  13  18
HETATM   18  O   UNL     1       9.843   5.244   7.119  1.00  0.00    -0.361 OA
HETATM   19  H   UNL     1       8.924   5.163   7.280  1.00  0.00     0.217 HD
ENDBRANCH  13  18
BRANCH  15  20
HETATM   20  O   UNL     1      13.407   8.384   7.347  1.00  0.00    -0.360 OA
HETATM   21  H   UNL     1      14.253   7.983   7.296  1.00  0.00     0.217 HD
ENDBRANCH  15  20
ENDBRANCH   9  10
ENDBRANCH   8   9
BRANCH   8  22
HETATM   22  O   UNL     1      13.488   8.148  12.269  1.00  0.00    -0.395 OA
HETATM   23  H   UNL     1      12.966   7.342  12.406  1.00  0.00     0.210 HD
ENDBRANCH   8  22
ENDBRANCH   7   8
ENDBRANCH   3   7
BRANCH   5  24
HETATM   24  O   UNL     1      18.048   6.727   7.505  1.00  0.00    -0.361 OA
HETATM   25  H   UNL     1      17.526   7.066   6.804  1.00  0.00     0.217 HD
ENDBRANCH   5  24
TORSDOF 9
ENDMDL
