MODEL 1
REMARK VINA RESULT:      -6.8      0.000      0.000
REMARK  9 active torsions:
REMARK  status: ('A' for Active; 'I' for Inactive)
REMARK    1  A    between atoms: C_3  and  C_8 
REMARK    2  A    between atoms: C_5  and  O_7 
REMARK    3  A    between atoms: C_8  and  C_9 
REMARK    4  A    between atoms: C_9  and  C_10 
REMARK    5  A    between atoms: C_9  and  O_20 
REMARK    6  A    between atoms: C_10  and  C_11 
REMARK    7  A    between atoms: C_12  and  O_19 
REMARK    8  A    between atoms: C_14  and  O_18 
REMARK    9  A    between atoms: C_16  and  O_17 
ROOT
HETATM    1  C   UNL     1      18.657   5.310  14.520  1.00  0.00     0.003 A 
HETATM    2  C   UNL     1      17.990   5.864  13.444  1.00  0.00     0.007 A 
HETATM    3  C   UNL     1      18.568   5.849  12.187  1.00  0.00    -0.053 A 
HETATM    4  C   UNL     1      19.814   5.281  12.006  1.00  0.00     0.043 A 
HETATM    5  C   UNL     1      20.485   4.725  13.085  1.00  0.00     0.066 A 
HETATM    6  C   UNL     1      19.903   4.741  14.344  1.00  0.00     0.036 A 
ENDROOT
BRANCH   3   7
HETATM    7  C   UNL     1      17.838   6.453  11.015  1.00  0.00     0.070 C 
BRANCH   7   8
HETATM    8  C   UNL     1      16.678   5.540  10.611  1.00  0.00     0.127 C 
BRANCH   8   9
HETATM    9  C   UNL     1      15.362   6.313  10.712  1.00  0.00     0.076 C 
BRANCH   9  10
HETATM   10  C   UNL     1      14.278   5.395  11.215  1.00  0.00     0.011 A 
HETATM   11  C   UNL     1      13.945   5.387  12.562  1.00  0.00     0.077 A 
HETATM   12  C   UNL     1      12.947   4.542  13.025  1.00  0.00     0.073 A 
HETATM   13  C   UNL     1      12.284   3.704  12.142  1.00  0.00     0.071 A 
HETATM   14  C   UNL     1      12.617   3.712  10.795  1.00  0.00     0.073 A 
HETATM   15  C   UNL     1      13.610   4.560  10.332  1.00  0.00     0.077 A 
BRANCH  11  16
HETATM   16  O   UNL     1      14.596   6.208  13.427  1.00  0.00    -0.360 OA
HETATM   17  H   UNL     1      14.506   6.082  14.350  1.00  0.00     0.217 HD
ENDBRANCH  11  16
BRANCH  13  18
HETATM   18  O   UNL     1      11.307   2.875  12.595  1.00  0.00    -0.361 OA
HETATM   19  H   UNL     1      10.443   3.206  12.741  1.00  0.00     0.217 HD
ENDBRANCH  13  18
BRANCH  15  20
HETATM   20  O   UNL     1      13.937   4.567   9.012  1.00  0.00    -0.360 OA
HETATM   21  H   UNL     1      14.221   3.778   8.596  1.00  0.00     0.217 HD
ENDBRANCH  15  20
ENDBRANCH   9  10
ENDBRANCH   8   9
BRANCH   8  22
HETATM   22  O   UNL     1      16.869   5.097   9.265  1.00  0.00    -0.395 OA
HETATM   23  H   UNL     1      17.437   4.311   9.261  1.00  0.00     0.210 HD
ENDBRANCH   8  22
ENDBRANCH   7   8
ENDBRANCH   3   7
BRANCH   5  24
HETATM   24  O   UNL     1      21.711   4.165  12.909  1.00  0.00    -0.361 OA
HETATM   25  H   UNL     1      21.967   3.855  12.062  1.00  0.00     0.217 HD
ENDBRANCH   5  24
TORSDOF 9
ENDMDL
MODEL 2
REMARK VINA RESULT:      -6.8      0.254      1.860
REMARK  9 active torsions:
REMARK  status: ('A' for Active; 'I' for Inactive)
REMARK    1  A    between atoms: C_3  and  C_8 
REMARK    2  A    between atoms: C_5  and  O_7 
REMARK    3  A    between atoms: C_8  and  C_9 
REMARK    4  A    between atoms: C_9  and  C_10 
REMARK    5  A    between atoms: C_9  and  O_20 
REMARK    6  A    between atoms: C_10  and  C_11 
REMARK    7  A    between atoms: C_12  and  O_19 
REMARK    8  A    between atoms: C_14  and  O_18 
REMARK    9  A    between atoms: C_16  and  O_17 
ROOT
HETATM    1  C   UNL     1      18.783   5.079  14.732  1.00  0.00     0.003 A 
HETATM    2  C   UNL     1      18.103   5.732  13.721  1.00  0.00     0.007 A 
HETATM    3  C   UNL     1      18.639   5.784  12.446  1.00  0.00    -0.053 A 
HETATM    4  C   UNL     1      19.854   5.184  12.182  1.00  0.00     0.043 A 
HETATM    5  C   UNL     1      20.538   4.529  13.196  1.00  0.00     0.066 A 
HETATM    6  C   UNL     1      19.998   4.477  14.473  1.00  0.00     0.036 A 
ENDROOT
BRANCH   3   7
HETATM    7  C   UNL     1      17.895   6.496  11.346  1.00  0.00     0.070 C 
BRANCH   7   8
HETATM    8  C   UNL     1      16.739   5.619  10.861  1.00  0.00     0.127 C 
BRANCH   8   9
HETATM    9  C   UNL     1      15.424   6.391  10.990  1.00  0.00     0.076 C 
BRANCH   9  10
HETATM   10  C   UNL     1      14.326   5.447  11.406  1.00  0.00     0.011 A 
HETATM   11  C   UNL     1      13.637   4.718  10.448  1.00  0.00     0.077 A 
HETATM   12  C   UNL     1      12.627   3.849  10.831  1.00  0.00     0.073 A 
HETATM   13  C   UNL     1      12.305   3.710  12.173  1.00  0.00     0.071 A 
HETATM   14  C   UNL     1      12.994   4.437  13.131  1.00  0.00     0.073 A 
HETATM   15  C   UNL     1      14.007   5.302  12.748  1.00  0.00     0.077 A 
BRANCH  11  16
HETATM   16  O   UNL     1      13.953   4.856   9.133  1.00  0.00    -0.360 OA
HETATM   17  H   UNL     1      13.550   5.530   8.623  1.00  0.00     0.217 HD
ENDBRANCH  11  16
BRANCH  13  18
HETATM   18  O   UNL     1      11.314   2.859  12.548  1.00  0.00    -0.361 OA
HETATM   19  H   UNL     1      10.971   2.239  11.935  1.00  0.00     0.217 HD
ENDBRANCH  13  18
BRANCH  15  20
HETATM   20  O   UNL     1      14.682   6.016  13.688  1.00  0.00    -0.360 OA
HETATM   21  H   UNL     1      15.506   6.408  13.475  1.00  0.00     0.217 HD
ENDBRANCH  15  20
ENDBRANCH   9  10
ENDBRANCH   8   9
BRANCH   8  22
HETATM   22  O   UNL     1      16.951   5.266   9.493  1.00  0.00    -0.395 OA
HETATM   23  H   UNL     1      16.109   5.312   9.012  1.00  0.00     0.210 HD
ENDBRANCH   8  22
ENDBRANCH   7   8
ENDBRANCH   3   7
BRANCH   5  24
HETATM   24  O   UNL     1      21.734   3.937  12.938  1.00  0.00    -0.361 OA
HETATM   25  H   UNL     1      21.785   3.230  12.324  1.00  0.00     0.217 HD
ENDBRANCH   5  24
TORSDOF 9
ENDMDL
MODEL 3
REMARK VINA RESULT:      -6.7      1.419      2.200
REMARK  9 active torsions:
REMARK  status: ('A' for Active; 'I' for Inactive)
REMARK    1  A    between atoms: C_3  and  C_8 
REMARK    2  A    between atoms: C_5  and  O_7 
REMARK    3  A    between atoms: C_8  and  C_9 
REMARK    4  A    between atoms: C_9  and  C_10 
REMARK    5  A    between atoms: C_9  and  O_20 
REMARK    6  A    between atoms: C_10  and  C_11 
REMARK    7  A    between atoms: C_12  and  O_19 
REMARK    8  A    between atoms: C_14  and  O_18 
REMARK    9  A    between atoms: C_16  and  O_17 
ROOT
HETATM    1  C   UNL     1      17.681   5.714  13.460  1.00  0.00     0.003 A 
HETATM    2  C   UNL     1      16.603   5.904  12.617  1.00  0.00     0.007 A 
HETATM    3  C   UNL     1      16.806   6.098  11.262  1.00  0.00    -0.053 A 
HETATM    4  C   UNL     1      18.089   6.101  10.750  1.00  0.00     0.043 A 
HETATM    5  C   UNL     1      19.173   5.911  11.594  1.00  0.00     0.066 A 
HETATM    6  C   UNL     1      18.966   5.716  12.952  1.00  0.00     0.036 A 
ENDROOT
BRANCH   3   7
HETATM    7  C   UNL     1      15.628   6.305  10.346  1.00  0.00     0.070 C 
BRANCH   7   8
HETATM    8  C   UNL     1      14.665   5.123  10.478  1.00  0.00     0.127 C 
BRANCH   8   9
HETATM    9  C   UNL     1      13.312   5.623  10.989  1.00  0.00     0.076 C 
BRANCH   9  10
HETATM   10  C   UNL     1      12.928   4.856  12.228  1.00  0.00     0.011 A 
HETATM   11  C   UNL     1      13.116   5.421  13.481  1.00  0.00     0.077 A 
HETATM   12  C   UNL     1      12.762   4.714  14.620  1.00  0.00     0.073 A 
HETATM   13  C   UNL     1      12.222   3.442  14.507  1.00  0.00     0.071 A 
HETATM   14  C   UNL     1      12.034   2.877  13.255  1.00  0.00     0.073 A 
HETATM   15  C   UNL     1      12.383   3.586  12.115  1.00  0.00     0.077 A 
BRANCH  11  16
HETATM   16  O   UNL     1      13.646   6.667  13.590  1.00  0.00    -0.360 OA
HETATM   17  H   UNL     1      14.312   6.947  12.994  1.00  0.00     0.217 HD
ENDBRANCH  11  16
BRANCH  13  18
HETATM   18  O   UNL     1      11.877   2.749  15.624  1.00  0.00    -0.361 OA
HETATM   19  H   UNL     1      12.536   2.314  16.128  1.00  0.00     0.217 HD
ENDBRANCH  13  18
BRANCH  15  20
HETATM   20  O   UNL     1      12.199   3.031  10.888  1.00  0.00    -0.360 OA
HETATM   21  H   UNL     1      11.821   3.539  10.197  1.00  0.00     0.217 HD
ENDBRANCH  15  20
ENDBRANCH   9  10
ENDBRANCH   8   9
BRANCH   8  22
HETATM   22  O   UNL     1      14.492   4.504   9.202  1.00  0.00    -0.395 OA
HETATM   23  H   UNL     1      13.762   3.867   9.247  1.00  0.00     0.210 HD
ENDBRANCH   8  22
ENDBRANCH   7   8
ENDBRANCH   3   7
BRANCH   5  24
HETATM   24  O   UNL     1      20.436   5.913  11.091  1.00  0.00    -0.361 OA
HETATM   25  H   UNL     1      20.887   6.724  10.962  1.00  0.00     0.217 HD
ENDBRANCH   5  24
TORSDOF 9
ENDMDL
MODEL 4
REMARK VINA RESULT:      -6.6      1.062      2.385
REMARK  9 active torsions:
REMARK  status: ('A' for Active; 'I' for Inactive)
REMARK    1  A    between atoms: C_3  and  C_8 
REMARK    2  A    between atoms: C_5  and  O_7 
REMARK    3  A    between atoms: C_8  and  C_9 
REMARK    4  A    between atoms: C_9  and  C_10 
REMARK    5  A    between atoms: C_9  and  O_20 
REMARK    6  A    between atoms: C_10  and  C_11 
REMARK    7  A    between atoms: C_12  and  O_19 
REMARK    8  A    between atoms: C_14  and  O_18 
REMARK    9  A    between atoms: C_16  and  O_17 
ROOT
HETATM    1  C   UNL     1      20.491   4.864  13.023  1.00  0.00     0.003 A 
HETATM    2  C   UNL     1      19.792   5.390  11.953  1.00  0.00     0.007 A 
HETATM    3  C   UNL     1      18.521   5.903  12.139  1.00  0.00    -0.053 A 
HETATM    4  C   UNL     1      17.947   5.889  13.395  1.00  0.00     0.043 A 
HETATM    5  C   UNL     1      18.647   5.361  14.470  1.00  0.00     0.066 A 
HETATM    6  C   UNL     1      19.922   4.848  14.281  1.00  0.00     0.036 A 
ENDROOT
BRANCH   3   7
HETATM    7  C   UNL     1      17.762   6.476  10.970  1.00  0.00     0.070 C 
BRANCH   7   8
HETATM    8  C   UNL     1      16.621   5.530  10.588  1.00  0.00     0.127 C 
BRANCH   8   9
HETATM    9  C   UNL     1      15.290   6.280  10.661  1.00  0.00     0.076 C 
BRANCH   9  10
HETATM   10  C   UNL     1      14.220   5.355  11.182  1.00  0.00     0.011 A 
HETATM   11  C   UNL     1      13.522   4.538  10.305  1.00  0.00     0.077 A 
HETATM   12  C   UNL     1      12.538   3.687  10.785  1.00  0.00     0.073 A 
HETATM   13  C   UNL     1      12.251   3.654  12.141  1.00  0.00     0.071 A 
HETATM   14  C   UNL     1      12.950   4.470  13.018  1.00  0.00     0.073 A 
HETATM   15  C   UNL     1      13.937   5.317  12.539  1.00  0.00     0.077 A 
BRANCH  11  16
HETATM   16  O   UNL     1      13.803   4.572   8.976  1.00  0.00    -0.360 OA
HETATM   17  H   UNL     1      13.281   5.096   8.400  1.00  0.00     0.217 HD
ENDBRANCH  11  16
BRANCH  13  18
HETATM   18  O   UNL     1      11.286   2.821  12.611  1.00  0.00    -0.361 OA
HETATM   19  H   UNL     1      11.374   1.894  12.503  1.00  0.00     0.217 HD
ENDBRANCH  13  18
BRANCH  15  20
HETATM   20  O   UNL     1      14.622   6.117  13.399  1.00  0.00    -0.360 OA
HETATM   21  H   UNL     1      14.185   6.828  13.824  1.00  0.00     0.217 HD
ENDBRANCH  15  20
ENDBRANCH   9  10
ENDBRANCH   8   9
BRANCH   8  22
HETATM   22  O   UNL     1      16.826   5.050   9.258  1.00  0.00    -0.395 OA
HETATM   23  H   UNL     1      17.500   4.353   9.266  1.00  0.00     0.210 HD
ENDBRANCH   8  22
ENDBRANCH   7   8
ENDBRANCH   3   7
BRANCH   5  24
HETATM   24  O   UNL     1      18.084   5.347  15.707  1.00  0.00    -0.361 OA
HETATM   25  H   UNL     1      17.326   4.821  15.871  1.00  0.00     0.217 HD
ENDBRANCH   5  24
TORSDOF 9
ENDMDL
MODEL 5
REMARK VINA RESULT:      -6.5      3.759      6.807
REMARK  9 active torsions:
REMARK  status: ('A' for Active; 'I' for Inactive)
REMARK    1  A    between atoms: C_3  and  C_8 
REMARK    2  A    between atoms: C_5  and  O_7 
REMARK    3  A    between atoms: C_8  and  C_9 
REMARK    4  A    between atoms: C_9  and  C_10 
REMARK    5  A    between atoms: C_9  and  O_20 
REMARK    6  A    between atoms: C_10  and  C_11 
REMARK    7  A    between atoms: C_12  and  O_19 
REMARK    8  A    between atoms: C_14  and  O_18 
REMARK    9  A    between atoms: C_16  and  O_17 
ROOT
HETATM    1  C   UNL     1      14.481   4.951   9.757  1.00  0.00     0.003 A 
HETATM    2  C   UNL     1      15.387   5.259  10.753  1.00  0.00     0.007 A 
HETATM    3  C   UNL     1      14.996   5.231  12.079  1.00  0.00    -0.053 A 
HETATM    4  C   UNL     1      13.698   4.895  12.410  1.00  0.00     0.043 A 
HETATM    5  C   UNL     1      12.787   4.586  11.412  1.00  0.00     0.066 A 
HETATM    6  C   UNL     1      13.182   4.614  10.082  1.00  0.00     0.036 A 
ENDROOT
BRANCH   3   7
HETATM    7  C   UNL     1      15.987   5.568  13.164  1.00  0.00     0.070 C 
BRANCH   7   8
HETATM    8  C   UNL     1      15.236   5.961  14.438  1.00  0.00     0.127 C 
BRANCH   8   9
HETATM    9  C   UNL     1      15.846   5.231  15.636  1.00  0.00     0.076 C 
BRANCH   9  10
HETATM   10  C   UNL     1      15.405   5.903  16.911  1.00  0.00     0.011 A 
HETATM   11  C   UNL     1      14.182   5.578  17.479  1.00  0.00     0.077 A 
HETATM   12  C   UNL     1      13.776   6.196  18.652  1.00  0.00     0.073 A 
HETATM   13  C   UNL     1      14.593   7.140  19.257  1.00  0.00     0.071 A 
HETATM   14  C   UNL     1      15.816   7.464  18.689  1.00  0.00     0.073 A 
HETATM   15  C   UNL     1      16.224   6.842  17.519  1.00  0.00     0.077 A 
BRANCH  11  16
HETATM   16  O   UNL     1      13.381   4.654  16.886  1.00  0.00    -0.360 OA
HETATM   17  H   UNL     1      13.139   3.877  17.349  1.00  0.00     0.217 HD
ENDBRANCH  11  16
BRANCH  13  18
HETATM   18  O   UNL     1      14.195   7.746  20.406  1.00  0.00    -0.361 OA
HETATM   19  H   UNL     1      14.720   8.424  20.783  1.00  0.00     0.217 HD
ENDBRANCH  13  18
BRANCH  15  20
HETATM   20  O   UNL     1      17.422   7.161  16.962  1.00  0.00    -0.360 OA
HETATM   21  H   UNL     1      17.985   6.483  16.643  1.00  0.00     0.217 HD
ENDBRANCH  15  20
ENDBRANCH   9  10
ENDBRANCH   8   9
BRANCH   8  22
HETATM   22  O   UNL     1      15.342   7.373  14.635  1.00  0.00    -0.395 OA
HETATM   23  H   UNL     1      14.592   7.816  14.207  1.00  0.00     0.210 HD
ENDBRANCH   8  22
ENDBRANCH   7   8
ENDBRANCH   3   7
BRANCH   5  24
HETATM   24  O   UNL     1      11.509   4.254  11.735  1.00  0.00    -0.361 OA
HETATM   25  H   UNL     1      11.334   3.774  12.521  1.00  0.00     0.217 HD
ENDBRANCH   5  24
TORSDOF 9
ENDMDL
MODEL 6
REMARK VINA RESULT:      -6.5      3.764      6.730
REMARK  9 active torsions:
REMARK  status: ('A' for Active; 'I' for Inactive)
REMARK    1  A    between atoms: C_3  and  C_8 
REMARK    2  A    between atoms: C_5  and  O_7 
REMARK    3  A    between atoms: C_8  and  C_9 
REMARK    4  A    between atoms: C_9  and  C_10 
REMARK    5  A    between atoms: C_9  and  O_20 
REMARK    6  A    between atoms: C_10  and  C_11 
REMARK    7  A    between atoms: C_12  and  O_19 
REMARK    8  A    between atoms: C_14  and  O_18 
REMARK    9  A    between atoms: C_16  and  O_17 
ROOT
HETATM    1  C   UNL     1      14.499   4.933   9.750  1.00  0.00     0.003 A 
HETATM    2  C   UNL     1      15.395   5.243  10.756  1.00  0.00     0.007 A 
HETATM    3  C   UNL     1      14.987   5.226  12.078  1.00  0.00    -0.053 A 
HETATM    4  C   UNL     1      13.683   4.900  12.394  1.00  0.00     0.043 A 
HETATM    5  C   UNL     1      12.782   4.589  11.386  1.00  0.00     0.066 A 
HETATM    6  C   UNL     1      13.194   4.606  10.061  1.00  0.00     0.036 A 
ENDROOT
BRANCH   3   7
HETATM    7  C   UNL     1      15.966   5.563  13.172  1.00  0.00     0.070 C 
BRANCH   7   8
HETATM    8  C   UNL     1      15.201   5.941  14.443  1.00  0.00     0.127 C 
BRANCH   8   9
HETATM    9  C   UNL     1      15.811   5.212  15.641  1.00  0.00     0.076 C 
BRANCH   9  10
HETATM   10  C   UNL     1      15.376   5.889  16.915  1.00  0.00     0.011 A 
HETATM   11  C   UNL     1      16.199   6.829  17.518  1.00  0.00     0.077 A 
HETATM   12  C   UNL     1      15.798   7.452  18.690  1.00  0.00     0.073 A 
HETATM   13  C   UNL     1      14.575   7.135  19.261  1.00  0.00     0.071 A 
HETATM   14  C   UNL     1      13.751   6.196  18.658  1.00  0.00     0.073 A 
HETATM   15  C   UNL     1      14.150   5.577  17.483  1.00  0.00     0.077 A 
BRANCH  11  16
HETATM   16  O   UNL     1      17.398   7.139  16.959  1.00  0.00    -0.360 OA
HETATM   17  H   UNL     1      17.629   6.788  16.122  1.00  0.00     0.217 HD
ENDBRANCH  11  16
BRANCH  13  18
HETATM   18  O   UNL     1      14.182   7.745  20.410  1.00  0.00    -0.361 OA
HETATM   19  H   UNL     1      14.758   7.766  21.148  1.00  0.00     0.217 HD
ENDBRANCH  13  18
BRANCH  15  20
HETATM   20  O   UNL     1      13.343   4.656  16.893  1.00  0.00    -0.360 OA
HETATM   21  H   UNL     1      13.363   4.543  15.963  1.00  0.00     0.217 HD
ENDBRANCH  15  20
ENDBRANCH   9  10
ENDBRANCH   8   9
BRANCH   8  22
HETATM   22  O   UNL     1      15.288   7.353  14.648  1.00  0.00    -0.395 OA
HETATM   23  H   UNL     1      16.162   7.574  15.008  1.00  0.00     0.210 HD
ENDBRANCH   8  22
ENDBRANCH   7   8
ENDBRANCH   3   7
BRANCH   5  24
HETATM   24  O   UNL     1      11.498   4.267  11.695  1.00  0.00    -0.361 OA
HETATM   25  H   UNL     1      11.254   4.121  12.589  1.00  0.00     0.217 HD
ENDBRANCH   5  24
TORSDOF 9
ENDMDL
MODEL 7
REMARK VINA RESULT:      -6.5      1.670      6.421
REMARK  9 active torsions:
REMARK  status: ('A' for Active; 'I' for Inactive)
REMARK    1  A    between atoms: C_3  and  C_8 
REMARK    2  A    between atoms: C_5  and  O_7 
REMARK    3  A    between atoms: C_8  and  C_9 
REMARK    4  A    between atoms: C_9  and  C_10 
REMARK    5  A    between atoms: C_9  and  O_20 
REMARK    6  A    between atoms: C_10  and  C_11 
REMARK    7  A    between atoms: C_12  and  O_19 
REMARK    8  A    between atoms: C_14  and  O_18 
REMARK    9  A    between atoms: C_16  and  O_17 
ROOT
HETATM    1  C   UNL     1      12.716   3.112   9.222  1.00  0.00     0.003 A 
HETATM    2  C   UNL     1      12.851   4.117  10.161  1.00  0.00     0.007 A 
HETATM    3  C   UNL     1      14.052   4.793  10.286  1.00  0.00    -0.053 A 
HETATM    4  C   UNL     1      15.118   4.463   9.474  1.00  0.00     0.043 A 
HETATM    5  C   UNL     1      14.985   3.454   8.531  1.00  0.00     0.066 A 
HETATM    6  C   UNL     1      13.780   2.779   8.406  1.00  0.00     0.036 A 
ENDROOT
BRANCH   3   7
HETATM    7  C   UNL     1      14.196   5.888  11.311  1.00  0.00     0.070 C 
BRANCH   7   8
HETATM    8  C   UNL     1      15.309   5.523  12.296  1.00  0.00     0.127 C 
BRANCH   8   9
HETATM    9  C   UNL     1      16.258   6.713  12.456  1.00  0.00     0.076 C 
BRANCH   9  10
HETATM   10  C   UNL     1      17.677   6.214  12.544  1.00  0.00     0.011 A 
HETATM   11  C   UNL     1      18.456   6.134  11.399  1.00  0.00     0.077 A 
HETATM   12  C   UNL     1      19.762   5.675  11.479  1.00  0.00     0.073 A 
HETATM   13  C   UNL     1      20.289   5.296  12.704  1.00  0.00     0.071 A 
HETATM   14  C   UNL     1      19.511   5.378  13.850  1.00  0.00     0.073 A 
HETATM   15  C   UNL     1      18.207   5.841  13.769  1.00  0.00     0.077 A 
BRANCH  11  16
HETATM   16  O   UNL     1      17.938   6.504  10.198  1.00  0.00    -0.360 OA
HETATM   17  H   UNL     1      18.473   6.477   9.429  1.00  0.00     0.217 HD
ENDBRANCH  11  16
BRANCH  13  18
HETATM   18  O   UNL     1      21.569   4.845  12.784  1.00  0.00    -0.361 OA
HETATM   19  H   UNL     1      21.755   3.938  12.643  1.00  0.00     0.217 HD
ENDBRANCH  13  18
BRANCH  15  20
HETATM   20  O   UNL     1      17.444   5.920  14.892  1.00  0.00    -0.360 OA
HETATM   21  H   UNL     1      16.649   5.427  14.953  1.00  0.00     0.217 HD
ENDBRANCH  15  20
ENDBRANCH   9  10
ENDBRANCH   8   9
BRANCH   8  22
HETATM   22  O   UNL     1      14.735   5.198  13.563  1.00  0.00    -0.395 OA
HETATM   23  H   UNL     1      14.589   6.011  14.071  1.00  0.00     0.210 HD
ENDBRANCH   8  22
ENDBRANCH   7   8
ENDBRANCH   3   7
BRANCH   5  24
HETATM   24  O   UNL     1      16.034   3.129   7.729  1.00  0.00    -0.361 OA
HETATM   25  H   UNL     1      16.048   2.302   7.288  1.00  0.00     0.217 HD
ENDBRANCH   5  24
TORSDOF 9
ENDMDL
MODEL 8
REMARK VINA RESULT:      -6.5      3.319      6.684
REMARK  9 active torsions:
REMARK  status: ('A' for Active; 'I' for Inactive)
REMARK    1  A    between atoms: C_3  and  C_8 
REMARK    2  A    between atoms: C_5  and  O_7 
REMARK    3  A    between atoms: C_8  and  C_9 
REMARK    4  A    between atoms: C_9  and  C_10 
REMARK    5  A    between atoms: C_9  and  O_20 
REMARK    6  A    between atoms: C_10  and  C_11 
REMARK    7  A    between atoms: C_12  and  O_19 
REMARK    8  A    between atoms: C_14  and  O_18 
REMARK    9  A    between atoms: C_16  and  O_17 
ROOT
HETATM    1  C   UNL     1      14.863   5.746  10.499  1.00  0.00     0.003 A 
HETATM    2  C   UNL     1      14.148   6.413  11.475  1.00  0.00     0.007 A 
HETATM    3  C   UNL     1      12.895   5.961  11.848  1.00  0.00    -0.053 A 
HETATM    4  C   UNL     1      12.356   4.842  11.244  1.00  0.00     0.043 A 
HETATM    5  C   UNL     1      13.072   4.171  10.264  1.00  0.00     0.066 A 
HETATM    6  C   UNL     1      14.329   4.626   9.893  1.00  0.00     0.036 A 
ENDROOT
BRANCH   3   7
HETATM    7  C   UNL     1      12.117   6.691  12.913  1.00  0.00     0.070 C 
BRANCH   7   8
HETATM    8  C   UNL     1      12.537   6.179  14.293  1.00  0.00     0.127 C 
BRANCH   8   9
HETATM    9  C   UNL     1      13.275   7.288  15.045  1.00  0.00     0.076 C 
BRANCH   9  10
HETATM   10  C   UNL     1      14.207   6.673  16.057  1.00  0.00     0.011 A 
HETATM   11  C   UNL     1      15.519   6.388  15.709  1.00  0.00     0.077 A 
HETATM   12  C   UNL     1      16.377   5.822  16.640  1.00  0.00     0.073 A 
HETATM   13  C   UNL     1      15.922   5.541  17.920  1.00  0.00     0.071 A 
HETATM   14  C   UNL     1      14.611   5.828  18.269  1.00  0.00     0.073 A 
HETATM   15  C   UNL     1      13.755   6.398  17.339  1.00  0.00     0.077 A 
BRANCH  11  16
HETATM   16  O   UNL     1      15.964   6.662  14.455  1.00  0.00    -0.360 OA
HETATM   17  H   UNL     1      16.732   7.184  14.333  1.00  0.00     0.217 HD
ENDBRANCH  11  16
BRANCH  13  18
HETATM   18  O   UNL     1      16.762   4.986  18.833  1.00  0.00    -0.361 OA
HETATM   19  H   UNL     1      16.444   4.336  19.427  1.00  0.00     0.217 HD
ENDBRANCH  13  18
BRANCH  15  20
HETATM   20  O   UNL     1      12.469   6.677  17.680  1.00  0.00    -0.360 OA
HETATM   21  H   UNL     1      12.274   7.444  18.182  1.00  0.00     0.217 HD
ENDBRANCH  15  20
ENDBRANCH   9  10
ENDBRANCH   8   9
BRANCH   8  22
HETATM   22  O   UNL     1      11.376   5.794  15.031  1.00  0.00    -0.395 OA
HETATM   23  H   UNL     1      10.883   6.587  15.295  1.00  0.00     0.210 HD
ENDBRANCH   8  22
ENDBRANCH   7   8
ENDBRANCH   3   7
BRANCH   5  24
HETATM   24  O   UNL     1      12.543   3.069   9.669  1.00  0.00    -0.361 OA
HETATM   25  H   UNL     1      13.001   2.652   8.965  1.00  0.00     0.217 HD
ENDBRANCH   5  24
TORSDOF 9
ENDMDL
MODEL 9
REMARK VINA RESULT:      -6.5      3.304      6.544
REMARK  9 active torsions:
REMARK  status: ('A' for Active; 'I' for Inactive)
REMARK    1  A    between atoms: C_3  and  C_8 
REMARK    2  A    between atoms: C_5  and  O_7 
REMARK    3  A    between atoms: C_8  and  C_9 
REMARK    4  A    between atoms: C_9  and  C_10 
REMARK    5  A    between atoms: C_9  and  O_20 
REMARK    6  A    between atoms: C_10  and  C_11 
REMARK    7  A    between atoms: C_12  and  O_19 
REMARK    8  A    between atoms: C_14  and  O_18 
REMARK    9  A    between atoms: C_16  and  O_17 
ROOT
HETATM    1  C   UNL     1      14.887   5.731  10.538  1.00  0.00     0.003 A 
HETATM    2  C   UNL     1      14.166   6.399  11.510  1.00  0.00     0.007 A 
HETATM    3  C   UNL     1      12.909   5.951  11.872  1.00  0.00    -0.053 A 
HETATM    4  C   UNL     1      12.371   4.834  11.263  1.00  0.00     0.043 A 
HETATM    5  C   UNL     1      13.093   4.163  10.287  1.00  0.00     0.066 A 
HETATM    6  C   UNL     1      14.354   4.614   9.926  1.00  0.00     0.036 A 
ENDROOT
BRANCH   3   7
HETATM    7  C   UNL     1      12.126   6.681  12.932  1.00  0.00     0.070 C 
BRANCH   7   8
HETATM    8  C   UNL     1      12.548   6.179  14.315  1.00  0.00     0.127 C 
BRANCH   8   9
HETATM    9  C   UNL     1      13.300   7.288  15.053  1.00  0.00     0.076 C 
BRANCH   9  10
HETATM   10  C   UNL     1      14.231   6.675  16.067  1.00  0.00     0.011 A 
HETATM   11  C   UNL     1      13.779   6.406  17.350  1.00  0.00     0.077 A 
HETATM   12  C   UNL     1      14.635   5.842  18.284  1.00  0.00     0.073 A 
HETATM   13  C   UNL     1      15.944   5.547  17.934  1.00  0.00     0.071 A 
HETATM   14  C   UNL     1      16.396   5.814  16.650  1.00  0.00     0.073 A 
HETATM   15  C   UNL     1      15.538   6.374  15.716  1.00  0.00     0.077 A 
BRANCH  11  16
HETATM   16  O   UNL     1      12.496   6.696  17.693  1.00  0.00    -0.360 OA
HETATM   17  H   UNL     1      12.306   7.049  18.540  1.00  0.00     0.217 HD
ENDBRANCH  11  16
BRANCH  13  18
HETATM   18  O   UNL     1      16.784   4.994  18.848  1.00  0.00    -0.361 OA
HETATM   19  H   UNL     1      17.132   5.520  19.542  1.00  0.00     0.217 HD
ENDBRANCH  13  18
BRANCH  15  20
HETATM   20  O   UNL     1      15.982   6.637  14.458  1.00  0.00    -0.360 OA
HETATM   21  H   UNL     1      15.375   6.889  13.791  1.00  0.00     0.217 HD
ENDBRANCH  15  20
ENDBRANCH   9  10
ENDBRANCH   8   9
BRANCH   8  22
HETATM   22  O   UNL     1      11.386   5.813  15.063  1.00  0.00    -0.395 OA
HETATM   23  H   UNL     1      10.604   6.232  14.671  1.00  0.00     0.210 HD
ENDBRANCH   8  22
ENDBRANCH   7   8
ENDBRANCH   3   7
BRANCH   5  24
HETATM   24  O   UNL     1      12.565   3.063   9.686  1.00  0.00    -0.361 OA
HETATM   25  H   UNL     1      11.861   2.599  10.094  1.00  0.00     0.217 HD
ENDBRANCH   5  24
TORSDOF 9
ENDMDL
