MODEL 1
REMARK VINA RESULT:      -6.8      0.000      0.000
REMARK  9 active torsions:
REMARK  status: ('A' for Active; 'I' for Inactive)
REMARK    1  A    between atoms: C_3  and  C_8 
REMARK    2  A    between atoms: C_5  and  O_7 
REMARK    3  A    between atoms: C_8  and  C_9 
REMARK    4  A    between atoms: C_9  and  C_10 
REMARK    5  A    between atoms: C_9  and  O_20 
REMARK    6  A    between atoms: C_10  and  C_11 
REMARK    7  A    between atoms: C_12  and  O_19 
REMARK    8  A    between atoms: C_14  and  O_18 
REMARK    9  A    between atoms: C_16  and  O_17 
ROOT
HETATM    1  C   UNL     1      17.072   5.668  11.109  1.00  0.00     0.003 A 
HETATM    2  C   UNL     1      16.380   6.546  10.298  1.00  0.00     0.007 A 
HETATM    3  C   UNL     1      16.749   6.707   8.975  1.00  0.00    -0.053 A 
HETATM    4  C   UNL     1      17.812   5.990   8.462  1.00  0.00     0.043 A 
HETATM    5  C   UNL     1      18.509   5.108   9.275  1.00  0.00     0.066 A 
HETATM    6  C   UNL     1      18.136   4.948  10.601  1.00  0.00     0.036 A 
ENDROOT
BRANCH   3   7
HETATM    7  C   UNL     1      15.991   7.665   8.092  1.00  0.00     0.070 C 
BRANCH   7   8
HETATM    8  C   UNL     1      14.627   7.068   7.743  1.00  0.00     0.127 C 
BRANCH   8   9
HETATM    9  C   UNL     1      13.520   8.010   8.219  1.00  0.00     0.076 C 
BRANCH   9  10
HETATM   10  C   UNL     1      12.353   7.200   8.721  1.00  0.00     0.011 A 
HETATM   11  C   UNL     1      12.233   6.920  10.074  1.00  0.00     0.077 A 
HETATM   12  C   UNL     1      11.159   6.175  10.536  1.00  0.00     0.073 A 
HETATM   13  C   UNL     1      10.204   5.708   9.645  1.00  0.00     0.071 A 
HETATM   14  C   UNL     1      10.323   5.989   8.292  1.00  0.00     0.073 A 
HETATM   15  C   UNL     1      11.395   6.739   7.831  1.00  0.00     0.077 A 
BRANCH  11  16
HETATM   16  O   UNL     1      13.169   7.377  10.947  1.00  0.00    -0.360 OA
HETATM   17  H   UNL     1      13.437   8.274  10.920  1.00  0.00     0.217 HD
ENDBRANCH  11  16
BRANCH  13  18
HETATM   18  O   UNL     1       9.152   4.977  10.097  1.00  0.00    -0.361 OA
HETATM   19  H   UNL     1       9.283   4.094  10.380  1.00  0.00     0.217 HD
ENDBRANCH  13  18
BRANCH  15  20
HETATM   20  O   UNL     1      11.512   7.012   6.505  1.00  0.00    -0.360 OA
HETATM   21  H   UNL     1      11.666   7.891   6.220  1.00  0.00     0.217 HD
ENDBRANCH  15  20
ENDBRANCH   9  10
ENDBRANCH   8   9
BRANCH   8  22
HETATM   22  O   UNL     1      14.531   6.897   6.327  1.00  0.00    -0.395 OA
HETATM   23  H   UNL     1      13.606   6.733   6.083  1.00  0.00     0.210 HD
ENDBRANCH   8  22
ENDBRANCH   7   8
ENDBRANCH   3   7
BRANCH   5  24
HETATM   24  O   UNL     1      19.555   4.400   8.772  1.00  0.00    -0.361 OA
HETATM   25  H   UNL     1      20.139   4.800   8.157  1.00  0.00     0.217 HD
ENDBRANCH   5  24
TORSDOF 9
ENDMDL
MODEL 2
REMARK VINA RESULT:      -6.8      0.060      1.849
REMARK  9 active torsions:
REMARK  status: ('A' for Active; 'I' for Inactive)
REMARK    1  A    between atoms: C_3  and  C_8 
REMARK    2  A    between atoms: C_5  and  O_7 
REMARK    3  A    between atoms: C_8  and  C_9 
REMARK    4  A    between atoms: C_9  and  C_10 
REMARK    5  A    between atoms: C_9  and  O_20 
REMARK    6  A    between atoms: C_10  and  C_11 
REMARK    7  A    between atoms: C_12  and  O_19 
REMARK    8  A    between atoms: C_14  and  O_18 
REMARK    9  A    between atoms: C_16  and  O_17 
ROOT
HETATM    1  C   UNL     1      17.135   5.677  11.135  1.00  0.00     0.003 A 
HETATM    2  C   UNL     1      16.433   6.558  10.335  1.00  0.00     0.007 A 
HETATM    3  C   UNL     1      16.769   6.701   9.001  1.00  0.00    -0.053 A 
HETATM    4  C   UNL     1      17.807   5.965   8.466  1.00  0.00     0.043 A 
HETATM    5  C   UNL     1      18.514   5.080   9.268  1.00  0.00     0.066 A 
HETATM    6  C   UNL     1      18.175   4.938  10.605  1.00  0.00     0.036 A 
ENDROOT
BRANCH   3   7
HETATM    7  C   UNL     1      16.001   7.662   8.130  1.00  0.00     0.070 C 
BRANCH   7   8
HETATM    8  C   UNL     1      14.632   7.066   7.795  1.00  0.00     0.127 C 
BRANCH   8   9
HETATM    9  C   UNL     1      13.531   8.002   8.295  1.00  0.00     0.076 C 
BRANCH   9  10
HETATM   10  C   UNL     1      12.362   7.186   8.785  1.00  0.00     0.011 A 
HETATM   11  C   UNL     1      11.398   6.747   7.889  1.00  0.00     0.077 A 
HETATM   12  C   UNL     1      10.323   5.997   8.339  1.00  0.00     0.073 A 
HETATM   13  C   UNL     1      10.211   5.685   9.686  1.00  0.00     0.071 A 
HETATM   14  C   UNL     1      11.176   6.123  10.582  1.00  0.00     0.073 A 
HETATM   15  C   UNL     1      12.253   6.869  10.130  1.00  0.00     0.077 A 
BRANCH  11  16
HETATM   16  O   UNL     1      11.508   7.054   6.570  1.00  0.00    -0.360 OA
HETATM   17  H   UNL     1      10.828   7.536   6.142  1.00  0.00     0.217 HD
ENDBRANCH  11  16
BRANCH  13  18
HETATM   18  O   UNL     1       9.157   4.950  10.128  1.00  0.00    -0.361 OA
HETATM   19  H   UNL     1       8.878   4.196   9.648  1.00  0.00     0.217 HD
ENDBRANCH  13  18
BRANCH  15  20
HETATM   20  O   UNL     1      13.197   7.299  11.008  1.00  0.00    -0.360 OA
HETATM   21  H   UNL     1      13.679   8.083  10.832  1.00  0.00     0.217 HD
ENDBRANCH  15  20
ENDBRANCH   9  10
ENDBRANCH   8   9
BRANCH   8  22
HETATM   22  O   UNL     1      14.516   6.907   6.379  1.00  0.00    -0.395 OA
HETATM   23  H   UNL     1      14.785   6.009   6.131  1.00  0.00     0.210 HD
ENDBRANCH   8  22
ENDBRANCH   7   8
ENDBRANCH   3   7
BRANCH   5  24
HETATM   24  O   UNL     1      19.536   4.354   8.743  1.00  0.00    -0.361 OA
HETATM   25  H   UNL     1      19.549   4.156   7.827  1.00  0.00     0.217 HD
ENDBRANCH   5  24
TORSDOF 9
ENDMDL
MODEL 3
REMARK VINA RESULT:      -6.7      1.403      2.074
REMARK  9 active torsions:
REMARK  status: ('A' for Active; 'I' for Inactive)
REMARK    1  A    between atoms: C_3  and  C_8 
REMARK    2  A    between atoms: C_5  and  O_7 
REMARK    3  A    between atoms: C_8  and  C_9 
REMARK    4  A    between atoms: C_9  and  C_10 
REMARK    5  A    between atoms: C_9  and  O_20 
REMARK    6  A    between atoms: C_10  and  C_11 
REMARK    7  A    between atoms: C_12  and  O_19 
REMARK    8  A    between atoms: C_14  and  O_18 
REMARK    9  A    between atoms: C_16  and  O_17 
ROOT
HETATM    1  C   UNL     1      16.307   6.346  10.335  1.00  0.00     0.003 A 
HETATM    2  C   UNL     1      15.180   6.931   9.791  1.00  0.00     0.007 A 
HETATM    3  C   UNL     1      15.198   7.392   8.486  1.00  0.00    -0.053 A 
HETATM    4  C   UNL     1      16.344   7.267   7.726  1.00  0.00     0.043 A 
HETATM    5  C   UNL     1      17.477   6.680   8.271  1.00  0.00     0.066 A 
HETATM    6  C   UNL     1      17.455   6.218   9.579  1.00  0.00     0.036 A 
ENDROOT
BRANCH   3   7
HETATM    7  C   UNL     1      13.968   8.029   7.895  1.00  0.00     0.070 C 
BRANCH   7   8
HETATM    8  C   UNL     1      12.800   7.043   7.960  1.00  0.00     0.127 C 
BRANCH   8   9
HETATM    9  C   UNL     1      11.651   7.663   8.758  1.00  0.00     0.076 C 
BRANCH   9  10
HETATM   10  C   UNL     1      11.251   6.730   9.871  1.00  0.00     0.011 A 
HETATM   11  C   UNL     1      11.737   6.932  11.155  1.00  0.00     0.077 A 
HETATM   12  C   UNL     1      11.369   6.073  12.179  1.00  0.00     0.073 A 
HETATM   13  C   UNL     1      10.516   5.011  11.920  1.00  0.00     0.071 A 
HETATM   14  C   UNL     1      10.029   4.810  10.637  1.00  0.00     0.073 A 
HETATM   15  C   UNL     1      10.393   5.672   9.614  1.00  0.00     0.077 A 
BRANCH  11  16
HETATM   16  O   UNL     1      12.574   7.973  11.408  1.00  0.00    -0.360 OA
HETATM   17  H   UNL     1      13.489   7.817  11.538  1.00  0.00     0.217 HD
ENDBRANCH  11  16
BRANCH  13  18
HETATM   18  O   UNL     1      10.155   4.169  12.924  1.00  0.00    -0.361 OA
HETATM   19  H   UNL     1       9.932   4.513  13.766  1.00  0.00     0.217 HD
ENDBRANCH  13  18
BRANCH  15  20
HETATM   20  O   UNL     1       9.917   5.473   8.357  1.00  0.00    -0.360 OA
HETATM   21  H   UNL     1       9.087   5.058   8.231  1.00  0.00     0.217 HD
ENDBRANCH  15  20
ENDBRANCH   9  10
ENDBRANCH   8   9
BRANCH   8  22
HETATM   22  O   UNL     1      12.354   6.746   6.636  1.00  0.00    -0.395 OA
HETATM   23  H   UNL     1      12.691   5.876   6.368  1.00  0.00     0.210 HD
ENDBRANCH   8  22
ENDBRANCH   7   8
ENDBRANCH   3   7
BRANCH   5  24
HETATM   24  O   UNL     1      18.606   6.556   7.523  1.00  0.00    -0.361 OA
HETATM   25  H   UNL     1      19.181   5.829   7.661  1.00  0.00     0.217 HD
ENDBRANCH   5  24
TORSDOF 9
ENDMDL
MODEL 4
REMARK VINA RESULT:      -6.6      3.692      6.797
REMARK  9 active torsions:
REMARK  status: ('A' for Active; 'I' for Inactive)
REMARK    1  A    between atoms: C_3  and  C_8 
REMARK    2  A    between atoms: C_5  and  O_7 
REMARK    3  A    between atoms: C_8  and  C_9 
REMARK    4  A    between atoms: C_9  and  C_10 
REMARK    5  A    between atoms: C_9  and  O_20 
REMARK    6  A    between atoms: C_10  and  C_11 
REMARK    7  A    between atoms: C_12  and  O_19 
REMARK    8  A    between atoms: C_14  and  O_18 
REMARK    9  A    between atoms: C_16  and  O_17 
ROOT
HETATM    1  C   UNL     1      12.025   6.856   7.141  1.00  0.00     0.003 A 
HETATM    2  C   UNL     1      13.145   6.872   7.951  1.00  0.00     0.007 A 
HETATM    3  C   UNL     1      13.014   6.727   9.320  1.00  0.00    -0.053 A 
HETATM    4  C   UNL     1      11.762   6.565   9.881  1.00  0.00     0.043 A 
HETATM    5  C   UNL     1      10.637   6.549   9.070  1.00  0.00     0.066 A 
HETATM    6  C   UNL     1      10.772   6.695   7.697  1.00  0.00     0.036 A 
ENDROOT
BRANCH   3   7
HETATM    7  C   UNL     1      14.237   6.744  10.200  1.00  0.00     0.070 C 
BRANCH   7   8
HETATM    8  C   UNL     1      13.819   6.995  11.651  1.00  0.00     0.127 C 
BRANCH   8   9
HETATM    9  C   UNL     1      14.485   5.960  12.559  1.00  0.00     0.076 C 
BRANCH   9  10
HETATM   10  C   UNL     1      14.372   6.405  13.995  1.00  0.00     0.011 A 
HETATM   11  C   UNL     1      13.211   6.152  14.710  1.00  0.00     0.077 A 
HETATM   12  C   UNL     1      13.107   6.561  16.031  1.00  0.00     0.073 A 
HETATM   13  C   UNL     1      14.163   7.225  16.636  1.00  0.00     0.071 A 
HETATM   14  C   UNL     1      15.325   7.477  15.921  1.00  0.00     0.073 A 
HETATM   15  C   UNL     1      15.430   7.063  14.602  1.00  0.00     0.077 A 
BRANCH  11  16
HETATM   16  O   UNL     1      12.176   5.502  14.116  1.00  0.00    -0.360 OA
HETATM   17  H   UNL     1      11.536   5.985  13.631  1.00  0.00     0.217 HD
ENDBRANCH  11  16
BRANCH  13  18
HETATM   18  O   UNL     1      14.061   7.627  17.930  1.00  0.00    -0.361 OA
HETATM   19  H   UNL     1      13.621   7.086  18.555  1.00  0.00     0.217 HD
ENDBRANCH  13  18
BRANCH  15  20
HETATM   20  O   UNL     1      16.568   7.312  13.901  1.00  0.00    -0.360 OA
HETATM   21  H   UNL     1      17.359   7.529  14.354  1.00  0.00     0.217 HD
ENDBRANCH  15  20
ENDBRANCH   9  10
ENDBRANCH   8   9
BRANCH   8  22
HETATM   22  O   UNL     1      14.227   8.307  12.043  1.00  0.00    -0.395 OA
HETATM   23  H   UNL     1      14.223   8.892  11.269  1.00  0.00     0.210 HD
ENDBRANCH   8  22
ENDBRANCH   7   8
ENDBRANCH   3   7
BRANCH   5  24
HETATM   24  O   UNL     1       9.404   6.390   9.621  1.00  0.00    -0.361 OA
HETATM   25  H   UNL     1       9.020   5.536   9.671  1.00  0.00     0.217 HD
ENDBRANCH   5  24
TORSDOF 9
ENDMDL
MODEL 5
REMARK VINA RESULT:      -6.5      3.686      6.717
REMARK  9 active torsions:
REMARK  status: ('A' for Active; 'I' for Inactive)
REMARK    1  A    between atoms: C_3  and  C_8 
REMARK    2  A    between atoms: C_5  and  O_7 
REMARK    3  A    between atoms: C_8  and  C_9 
REMARK    4  A    between atoms: C_9  and  C_10 
REMARK    5  A    between atoms: C_9  and  O_20 
REMARK    6  A    between atoms: C_10  and  C_11 
REMARK    7  A    between atoms: C_12  and  O_19 
REMARK    8  A    between atoms: C_14  and  O_18 
REMARK    9  A    between atoms: C_16  and  O_17 
ROOT
HETATM    1  C   UNL     1      12.004   6.809   7.134  1.00  0.00     0.003 A 
HETATM    2  C   UNL     1      13.126   6.834   7.940  1.00  0.00     0.007 A 
HETATM    3  C   UNL     1      12.997   6.720   9.312  1.00  0.00    -0.053 A 
HETATM    4  C   UNL     1      11.746   6.580   9.880  1.00  0.00     0.043 A 
HETATM    5  C   UNL     1      10.618   6.556   9.072  1.00  0.00     0.066 A 
HETATM    6  C   UNL     1      10.751   6.670   7.696  1.00  0.00     0.036 A 
ENDROOT
BRANCH   3   7
HETATM    7  C   UNL     1      14.223   6.747  10.189  1.00  0.00     0.070 C 
BRANCH   7   8
HETATM    8  C   UNL     1      13.807   6.995  11.641  1.00  0.00     0.127 C 
BRANCH   8   9
HETATM    9  C   UNL     1      14.487   5.968  12.549  1.00  0.00     0.076 C 
BRANCH   9  10
HETATM   10  C   UNL     1      14.369   6.412  13.984  1.00  0.00     0.011 A 
HETATM   11  C   UNL     1      15.418   7.088  14.590  1.00  0.00     0.077 A 
HETATM   12  C   UNL     1      15.309   7.496  15.911  1.00  0.00     0.073 A 
HETATM   13  C   UNL     1      14.152   7.226  16.626  1.00  0.00     0.071 A 
HETATM   14  C   UNL     1      13.103   6.551  16.020  1.00  0.00     0.073 A 
HETATM   15  C   UNL     1      13.210   6.148  14.698  1.00  0.00     0.077 A 
BRANCH  11  16
HETATM   16  O   UNL     1      16.552   7.351  13.889  1.00  0.00    -0.360 OA
HETATM   17  H   UNL     1      17.361   7.487  14.340  1.00  0.00     0.217 HD
ENDBRANCH  11  16
BRANCH  13  18
HETATM   18  O   UNL     1      14.045   7.625  17.921  1.00  0.00    -0.361 OA
HETATM   19  H   UNL     1      13.304   8.127  18.197  1.00  0.00     0.217 HD
ENDBRANCH  13  18
BRANCH  15  20
HETATM   20  O   UNL     1      12.182   5.485  14.104  1.00  0.00    -0.360 OA
HETATM   21  H   UNL     1      12.085   4.562  14.232  1.00  0.00     0.217 HD
ENDBRANCH  15  20
ENDBRANCH   9  10
ENDBRANCH   8   9
BRANCH   8  22
HETATM   22  O   UNL     1      14.202   8.311  12.030  1.00  0.00    -0.395 OA
HETATM   23  H   UNL     1      13.460   8.755  12.472  1.00  0.00     0.210 HD
ENDBRANCH   8  22
ENDBRANCH   7   8
ENDBRANCH   3   7
BRANCH   5  24
HETATM   24  O   UNL     1       9.386   6.418   9.629  1.00  0.00    -0.361 OA
HETATM   25  H   UNL     1       8.807   5.746   9.325  1.00  0.00     0.217 HD
ENDBRANCH   5  24
TORSDOF 9
ENDMDL
MODEL 6
REMARK VINA RESULT:      -6.5      3.315      6.686
REMARK  9 active torsions:
REMARK  status: ('A' for Active; 'I' for Inactive)
REMARK    1  A    between atoms: C_3  and  C_8 
REMARK    2  A    between atoms: C_5  and  O_7 
REMARK    3  A    between atoms: C_8  and  C_9 
REMARK    4  A    between atoms: C_9  and  C_10 
REMARK    5  A    between atoms: C_9  and  O_20 
REMARK    6  A    between atoms: C_10  and  C_11 
REMARK    7  A    between atoms: C_12  and  O_19 
REMARK    8  A    between atoms: C_14  and  O_18 
REMARK    9  A    between atoms: C_16  and  O_17 
ROOT
HETATM    1  C   UNL     1      12.911   7.590   7.972  1.00  0.00     0.003 A 
HETATM    2  C   UNL     1      12.497   8.157   9.162  1.00  0.00     0.007 A 
HETATM    3  C   UNL     1      11.246   7.860   9.674  1.00  0.00    -0.053 A 
HETATM    4  C   UNL     1      10.409   6.997   8.995  1.00  0.00     0.043 A 
HETATM    5  C   UNL     1      10.823   6.427   7.799  1.00  0.00     0.066 A 
HETATM    6  C   UNL     1      12.078   6.726   7.289  1.00  0.00     0.036 A 
ENDROOT
BRANCH   3   7
HETATM    7  C   UNL     1      10.798   8.478  10.972  1.00  0.00     0.070 C 
BRANCH   7   8
HETATM    8  C   UNL     1      11.300   7.630  12.143  1.00  0.00     0.127 C 
BRANCH   8   9
HETATM    9  C   UNL     1      12.340   8.423  12.938  1.00  0.00     0.076 C 
BRANCH   9  10
HETATM   10  C   UNL     1      13.272   7.468  13.638  1.00  0.00     0.011 A 
HETATM   11  C   UNL     1      14.435   7.047  13.009  1.00  0.00     0.077 A 
HETATM   12  C   UNL     1      15.292   6.169  13.653  1.00  0.00     0.073 A 
HETATM   13  C   UNL     1      14.987   5.710  14.926  1.00  0.00     0.071 A 
HETATM   14  C   UNL     1      13.825   6.132  15.555  1.00  0.00     0.073 A 
HETATM   15  C   UNL     1      12.971   7.014  14.913  1.00  0.00     0.077 A 
BRANCH  11  16
HETATM   16  O   UNL     1      14.732   7.496  11.762  1.00  0.00    -0.360 OA
HETATM   17  H   UNL     1      15.587   7.832  11.576  1.00  0.00     0.217 HD
ENDBRANCH  11  16
BRANCH  13  18
HETATM   18  O   UNL     1      15.827   4.848  15.557  1.00  0.00    -0.361 OA
HETATM   19  H   UNL     1      16.394   5.159  16.235  1.00  0.00     0.217 HD
ENDBRANCH  13  18
BRANCH  15  20
HETATM   20  O   UNL     1      11.831   7.426  15.529  1.00  0.00    -0.360 OA
HETATM   21  H   UNL     1      11.003   7.311  15.108  1.00  0.00     0.217 HD
ENDBRANCH  15  20
ENDBRANCH   9  10
ENDBRANCH   8   9
BRANCH   8  22
HETATM   22  O   UNL     1      10.203   7.296  12.994  1.00  0.00    -0.395 OA
HETATM   23  H   UNL     1       9.745   8.107  13.266  1.00  0.00     0.210 HD
ENDBRANCH   8  22
ENDBRANCH   7   8
ENDBRANCH   3   7
BRANCH   5  24
HETATM   24  O   UNL     1      10.000   5.577   7.130  1.00  0.00    -0.361 OA
HETATM   25  H   UNL     1      10.150   4.652   7.169  1.00  0.00     0.217 HD
ENDBRANCH   5  24
TORSDOF 9
ENDMDL
MODEL 7
REMARK VINA RESULT:      -6.5      3.327      6.551
REMARK  9 active torsions:
REMARK  status: ('A' for Active; 'I' for Inactive)
REMARK    1  A    between atoms: C_3  and  C_8 
REMARK    2  A    between atoms: C_5  and  O_7 
REMARK    3  A    between atoms: C_8  and  C_9 
REMARK    4  A    between atoms: C_9  and  C_10 
REMARK    5  A    between atoms: C_9  and  O_20 
REMARK    6  A    between atoms: C_10  and  C_11 
REMARK    7  A    between atoms: C_12  and  O_19 
REMARK    8  A    between atoms: C_14  and  O_18 
REMARK    9  A    between atoms: C_16  and  O_17 
ROOT
HETATM    1  C   UNL     1      12.892   7.690   7.964  1.00  0.00     0.003 A 
HETATM    2  C   UNL     1      12.467   8.238   9.159  1.00  0.00     0.007 A 
HETATM    3  C   UNL     1      11.232   7.896   9.680  1.00  0.00    -0.053 A 
HETATM    4  C   UNL     1      10.421   7.005   9.005  1.00  0.00     0.043 A 
HETATM    5  C   UNL     1      10.846   6.453   7.805  1.00  0.00     0.066 A 
HETATM    6  C   UNL     1      12.085   6.798   7.286  1.00  0.00     0.036 A 
ENDROOT
BRANCH   3   7
HETATM    7  C   UNL     1      10.772   8.496  10.983  1.00  0.00     0.070 C 
BRANCH   7   8
HETATM    8  C   UNL     1      11.275   7.638  12.146  1.00  0.00     0.127 C 
BRANCH   8   9
HETATM    9  C   UNL     1      12.298   8.432  12.961  1.00  0.00     0.076 C 
BRANCH   9  10
HETATM   10  C   UNL     1      13.241   7.479  13.649  1.00  0.00     0.011 A 
HETATM   11  C   UNL     1      12.952   7.015  14.924  1.00  0.00     0.077 A 
HETATM   12  C   UNL     1      13.820   6.139  15.556  1.00  0.00     0.073 A 
HETATM   13  C   UNL     1      14.979   5.726  14.914  1.00  0.00     0.071 A 
HETATM   14  C   UNL     1      15.267   6.189  13.639  1.00  0.00     0.073 A 
HETATM   15  C   UNL     1      14.396   7.062  13.005  1.00  0.00     0.077 A 
BRANCH  11  16
HETATM   16  O   UNL     1      11.818   7.420  15.552  1.00  0.00    -0.360 OA
HETATM   17  H   UNL     1      11.245   6.788  15.940  1.00  0.00     0.217 HD
ENDBRANCH  11  16
BRANCH  13  18
HETATM   18  O   UNL     1      15.830   4.868  15.534  1.00  0.00    -0.361 OA
HETATM   19  H   UNL     1      15.493   4.122  15.990  1.00  0.00     0.217 HD
ENDBRANCH  13  18
BRANCH  15  20
HETATM   20  O   UNL     1      14.680   7.517  11.756  1.00  0.00    -0.360 OA
HETATM   21  H   UNL     1      14.825   6.909  11.058  1.00  0.00     0.217 HD
ENDBRANCH  15  20
ENDBRANCH   9  10
ENDBRANCH   8   9
BRANCH   8  22
HETATM   22  O   UNL     1      10.175   7.278  12.983  1.00  0.00    -0.395 OA
HETATM   23  H   UNL     1       9.974   6.336  12.867  1.00  0.00     0.210 HD
ENDBRANCH   8  22
ENDBRANCH   7   8
ENDBRANCH   3   7
BRANCH   5  24
HETATM   24  O   UNL     1      10.049   5.575   7.140  1.00  0.00    -0.361 OA
HETATM   25  H   UNL     1       9.179   5.408   7.446  1.00  0.00     0.217 HD
ENDBRANCH   5  24
TORSDOF 9
ENDMDL
MODEL 8
REMARK VINA RESULT:      -6.4      0.905      1.045
REMARK  9 active torsions:
REMARK  status: ('A' for Active; 'I' for Inactive)
REMARK    1  A    between atoms: C_3  and  C_8 
REMARK    2  A    between atoms: C_5  and  O_7 
REMARK    3  A    between atoms: C_8  and  C_9 
REMARK    4  A    between atoms: C_9  and  C_10 
REMARK    5  A    between atoms: C_9  and  O_20 
REMARK    6  A    between atoms: C_10  and  C_11 
REMARK    7  A    between atoms: C_12  and  O_19 
REMARK    8  A    between atoms: C_14  and  O_18 
REMARK    9  A    between atoms: C_16  and  O_17 
ROOT
HETATM    1  C   UNL     1      17.723   4.525  11.315  1.00  0.00     0.003 A 
HETATM    2  C   UNL     1      17.185   5.707  10.839  1.00  0.00     0.007 A 
HETATM    3  C   UNL     1      17.418   6.098   9.534  1.00  0.00    -0.053 A 
HETATM    4  C   UNL     1      18.189   5.310   8.703  1.00  0.00     0.043 A 
HETATM    5  C   UNL     1      18.730   4.125   9.178  1.00  0.00     0.066 A 
HETATM    6  C   UNL     1      18.494   3.733  10.488  1.00  0.00     0.036 A 
ENDROOT
BRANCH   3   7
HETATM    7  C   UNL     1      16.830   7.387   9.018  1.00  0.00     0.070 C 
BRANCH   7   8
HETATM    8  C   UNL     1      15.462   7.109   8.391  1.00  0.00     0.127 C 
BRANCH   8   9
HETATM    9  C   UNL     1      14.435   8.096   8.948  1.00  0.00     0.076 C 
BRANCH   9  10
HETATM   10  C   UNL     1      13.118   7.392   9.147  1.00  0.00     0.011 A 
HETATM   11  C   UNL     1      12.816   6.818  10.373  1.00  0.00     0.077 A 
HETATM   12  C   UNL     1      11.604   6.171  10.556  1.00  0.00     0.073 A 
HETATM   13  C   UNL     1      10.693   6.096   9.513  1.00  0.00     0.071 A 
HETATM   14  C   UNL     1      10.994   6.671   8.287  1.00  0.00     0.073 A 
HETATM   15  C   UNL     1      12.204   7.323   8.106  1.00  0.00     0.077 A 
BRANCH  11  16
HETATM   16  O   UNL     1      13.709   6.890  11.395  1.00  0.00    -0.360 OA
HETATM   17  H   UNL     1      13.768   7.670  11.911  1.00  0.00     0.217 HD
ENDBRANCH  11  16
BRANCH  13  18
HETATM   18  O   UNL     1       9.505   5.460   9.691  1.00  0.00    -0.361 OA
HETATM   19  H   UNL     1       8.842   5.850  10.225  1.00  0.00     0.217 HD
ENDBRANCH  13  18
BRANCH  15  20
HETATM   20  O   UNL     1      12.500   7.886   6.904  1.00  0.00    -0.360 OA
HETATM   21  H   UNL     1      11.878   8.446   6.484  1.00  0.00     0.217 HD
ENDBRANCH  15  20
ENDBRANCH   9  10
ENDBRANCH   8   9
BRANCH   8  22
HETATM   22  O   UNL     1      15.549   7.261   6.973  1.00  0.00    -0.395 OA
HETATM   23  H   UNL     1      15.969   8.110   6.764  1.00  0.00     0.210 HD
ENDBRANCH   8  22
ENDBRANCH   7   8
ENDBRANCH   3   7
BRANCH   5  24
HETATM   24  O   UNL     1      19.489   3.347   8.361  1.00  0.00    -0.361 OA
HETATM   25  H   UNL     1      19.251   2.452   8.212  1.00  0.00     0.217 HD
ENDBRANCH   5  24
TORSDOF 9
ENDMDL
MODEL 9
REMARK VINA RESULT:      -6.4      2.313      3.038
REMARK  9 active torsions:
REMARK  status: ('A' for Active; 'I' for Inactive)
REMARK    1  A    between atoms: C_3  and  C_8 
REMARK    2  A    between atoms: C_5  and  O_7 
REMARK    3  A    between atoms: C_8  and  C_9 
REMARK    4  A    between atoms: C_9  and  C_10 
REMARK    5  A    between atoms: C_9  and  O_20 
REMARK    6  A    between atoms: C_10  and  C_11 
REMARK    7  A    between atoms: C_12  and  O_19 
REMARK    8  A    between atoms: C_14  and  O_18 
REMARK    9  A    between atoms: C_16  and  O_17 
ROOT
HETATM    1  C   UNL     1      16.656   6.244  10.366  1.00  0.00     0.003 A 
HETATM    2  C   UNL     1      15.431   6.535   9.796  1.00  0.00     0.007 A 
HETATM    3  C   UNL     1      15.360   6.959   8.481  1.00  0.00    -0.053 A 
HETATM    4  C   UNL     1      16.515   7.094   7.736  1.00  0.00     0.043 A 
HETATM    5  C   UNL     1      17.745   6.803   8.306  1.00  0.00     0.066 A 
HETATM    6  C   UNL     1      17.813   6.377   9.624  1.00  0.00     0.036 A 
ENDROOT
BRANCH   3   7
HETATM    7  C   UNL     1      14.023   7.275   7.863  1.00  0.00     0.070 C 
BRANCH   7   8
HETATM    8  C   UNL     1      12.929   7.168   8.928  1.00  0.00     0.127 C 
BRANCH   8   9
HETATM    9  C   UNL     1      12.487   8.571   9.348  1.00  0.00     0.076 C 
BRANCH   9  10
HETATM   10  C   UNL     1      11.965   8.531  10.761  1.00  0.00     0.011 A 
HETATM   11  C   UNL     1      12.849   8.571  11.829  1.00  0.00     0.077 A 
HETATM   12  C   UNL     1      12.369   8.534  13.129  1.00  0.00     0.073 A 
HETATM   13  C   UNL     1      11.004   8.457  13.362  1.00  0.00     0.071 A 
HETATM   14  C   UNL     1      10.119   8.418  12.294  1.00  0.00     0.073 A 
HETATM   15  C   UNL     1      10.600   8.460  10.994  1.00  0.00     0.077 A 
BRANCH  11  16
HETATM   16  O   UNL     1      14.187   8.646  11.601  1.00  0.00    -0.360 OA
HETATM   17  H   UNL     1      14.590   9.477  11.448  1.00  0.00     0.217 HD
ENDBRANCH  11  16
BRANCH  13  18
HETATM   18  O   UNL     1      10.532   8.420  14.636  1.00  0.00    -0.361 OA
HETATM   19  H   UNL     1      11.051   8.038  15.316  1.00  0.00     0.217 HD
ENDBRANCH  13  18
BRANCH  15  20
HETATM   20  O   UNL     1       9.733   8.421   9.948  1.00  0.00    -0.360 OA
HETATM   21  H   UNL     1       9.836   9.016   9.232  1.00  0.00     0.217 HD
ENDBRANCH  15  20
ENDBRANCH   9  10
ENDBRANCH   8   9
BRANCH   8  22
HETATM   22  O   UNL     1      11.812   6.457   8.393  1.00  0.00    -0.395 OA
HETATM   23  H   UNL     1      11.460   6.937   7.626  1.00  0.00     0.210 HD
ENDBRANCH   8  22
ENDBRANCH   7   8
ENDBRANCH   3   7
BRANCH   5  24
HETATM   24  O   UNL     1      18.883   6.934   7.573  1.00  0.00    -0.361 OA
HETATM   25  H   UNL     1      19.669   7.244   7.979  1.00  0.00     0.217 HD
ENDBRANCH   5  24
TORSDOF 9
ENDMDL
