MODEL 1
REMARK VINA RESULT:      -6.8      0.000      0.000
REMARK  9 active torsions:
REMARK  status: ('A' for Active; 'I' for Inactive)
REMARK    1  A    between atoms: C_3  and  C_8 
REMARK    2  A    between atoms: C_5  and  O_7 
REMARK    3  A    between atoms: C_8  and  C_9 
REMARK    4  A    between atoms: C_9  and  C_10 
REMARK    5  A    between atoms: C_9  and  O_20 
REMARK    6  A    between atoms: C_10  and  C_11 
REMARK    7  A    between atoms: C_12  and  O_19 
REMARK    8  A    between atoms: C_14  and  O_18 
REMARK    9  A    between atoms: C_16  and  O_17 
ROOT
HETATM    1  C   UNL     1      17.077   5.680  11.107  1.00  0.00     0.003 A 
HETATM    2  C   UNL     1      16.383   6.557  10.295  1.00  0.00     0.007 A 
HETATM    3  C   UNL     1      16.745   6.710   8.969  1.00  0.00    -0.053 A 
HETATM    4  C   UNL     1      17.802   5.986   8.453  1.00  0.00     0.043 A 
HETATM    5  C   UNL     1      18.500   5.106   9.266  1.00  0.00     0.066 A 
HETATM    6  C   UNL     1      18.135   4.954  10.596  1.00  0.00     0.036 A 
ENDROOT
BRANCH   3   7
HETATM    7  C   UNL     1      15.985   7.666   8.087  1.00  0.00     0.070 C 
BRANCH   7   8
HETATM    8  C   UNL     1      14.620   7.068   7.740  1.00  0.00     0.127 C 
BRANCH   8   9
HETATM    9  C   UNL     1      13.513   8.007   8.223  1.00  0.00     0.076 C 
BRANCH   9  10
HETATM   10  C   UNL     1      12.349   7.195   8.728  1.00  0.00     0.011 A 
HETATM   11  C   UNL     1      12.232   6.915  10.081  1.00  0.00     0.077 A 
HETATM   12  C   UNL     1      11.161   6.167  10.545  1.00  0.00     0.073 A 
HETATM   13  C   UNL     1      10.206   5.698   9.655  1.00  0.00     0.071 A 
HETATM   14  C   UNL     1      10.322   5.979   8.302  1.00  0.00     0.073 A 
HETATM   15  C   UNL     1      11.391   6.731   7.839  1.00  0.00     0.077 A 
BRANCH  11  16
HETATM   16  O   UNL     1      13.169   7.374  10.952  1.00  0.00    -0.360 OA
HETATM   17  H   UNL     1      13.894   7.877  10.638  1.00  0.00     0.217 HD
ENDBRANCH  11  16
BRANCH  13  18
HETATM   18  O   UNL     1       9.156   4.964  10.110  1.00  0.00    -0.361 OA
HETATM   19  H   UNL     1       9.133   4.039   9.962  1.00  0.00     0.217 HD
ENDBRANCH  13  18
BRANCH  15  20
HETATM   20  O   UNL     1      11.505   7.005   6.513  1.00  0.00    -0.360 OA
HETATM   21  H   UNL     1      11.391   7.882   6.204  1.00  0.00     0.217 HD
ENDBRANCH  15  20
ENDBRANCH   9  10
ENDBRANCH   8   9
BRANCH   8  22
HETATM   22  O   UNL     1      14.519   6.900   6.325  1.00  0.00    -0.395 OA
HETATM   23  H   UNL     1      13.757   7.402   5.993  1.00  0.00     0.210 HD
ENDBRANCH   8  22
ENDBRANCH   7   8
ENDBRANCH   3   7
BRANCH   5  24
HETATM   24  O   UNL     1      19.541   4.392   8.760  1.00  0.00    -0.361 OA
HETATM   25  H   UNL     1      19.611   3.474   8.940  1.00  0.00     0.217 HD
ENDBRANCH   5  24
TORSDOF 9
ENDMDL
MODEL 2
REMARK VINA RESULT:      -6.8      0.122      1.851
REMARK  9 active torsions:
REMARK  status: ('A' for Active; 'I' for Inactive)
REMARK    1  A    between atoms: C_3  and  C_8 
REMARK    2  A    between atoms: C_5  and  O_7 
REMARK    3  A    between atoms: C_8  and  C_9 
REMARK    4  A    between atoms: C_9  and  C_10 
REMARK    5  A    between atoms: C_9  and  O_20 
REMARK    6  A    between atoms: C_10  and  C_11 
REMARK    7  A    between atoms: C_12  and  O_19 
REMARK    8  A    between atoms: C_14  and  O_18 
REMARK    9  A    between atoms: C_16  and  O_17 
ROOT
HETATM    1  C   UNL     1      17.193   5.604  11.153  1.00  0.00     0.003 A 
HETATM    2  C   UNL     1      16.495   6.508  10.375  1.00  0.00     0.007 A 
HETATM    3  C   UNL     1      16.816   6.666   9.039  1.00  0.00    -0.053 A 
HETATM    4  C   UNL     1      17.835   5.921   8.480  1.00  0.00     0.043 A 
HETATM    5  C   UNL     1      18.538   5.014   9.259  1.00  0.00     0.066 A 
HETATM    6  C   UNL     1      18.214   4.856  10.598  1.00  0.00     0.036 A 
ENDROOT
BRANCH   3   7
HETATM    7  C   UNL     1      16.052   7.652   8.193  1.00  0.00     0.070 C 
BRANCH   7   8
HETATM    8  C   UNL     1      14.677   7.074   7.850  1.00  0.00     0.127 C 
BRANCH   8   9
HETATM    9  C   UNL     1      13.586   8.012   8.369  1.00  0.00     0.076 C 
BRANCH   9  10
HETATM   10  C   UNL     1      12.405   7.199   8.834  1.00  0.00     0.011 A 
HETATM   11  C   UNL     1      11.438   6.797   7.924  1.00  0.00     0.077 A 
HETATM   12  C   UNL     1      10.352   6.049   8.352  1.00  0.00     0.073 A 
HETATM   13  C   UNL     1      10.232   5.704   9.690  1.00  0.00     0.071 A 
HETATM   14  C   UNL     1      11.200   6.105  10.599  1.00  0.00     0.073 A 
HETATM   15  C   UNL     1      12.288   6.848  10.170  1.00  0.00     0.077 A 
BRANCH  11  16
HETATM   16  O   UNL     1      11.556   7.136   6.614  1.00  0.00    -0.360 OA
HETATM   17  H   UNL     1      12.254   6.784   6.099  1.00  0.00     0.217 HD
ENDBRANCH  11  16
BRANCH  13  18
HETATM   18  O   UNL     1       9.167   4.972  10.110  1.00  0.00    -0.361 OA
HETATM   19  H   UNL     1       9.284   4.077  10.363  1.00  0.00     0.217 HD
ENDBRANCH  13  18
BRANCH  15  20
HETATM   20  O   UNL     1      13.236   7.242  11.062  1.00  0.00    -0.360 OA
HETATM   21  H   UNL     1      13.275   8.136  11.339  1.00  0.00     0.217 HD
ENDBRANCH  15  20
ENDBRANCH   9  10
ENDBRANCH   8   9
BRANCH   8  22
HETATM   22  O   UNL     1      14.557   6.942   6.432  1.00  0.00    -0.395 OA
HETATM   23  H   UNL     1      15.440   6.960   6.029  1.00  0.00     0.210 HD
ENDBRANCH   8  22
ENDBRANCH   7   8
ENDBRANCH   3   7
BRANCH   5  24
HETATM   24  O   UNL     1      19.542   4.279   8.710  1.00  0.00    -0.361 OA
HETATM   25  H   UNL     1      20.342   4.154   9.181  1.00  0.00     0.217 HD
ENDBRANCH   5  24
TORSDOF 9
ENDMDL
MODEL 3
REMARK VINA RESULT:      -6.7      1.403      2.684
REMARK  9 active torsions:
REMARK  status: ('A' for Active; 'I' for Inactive)
REMARK    1  A    between atoms: C_3  and  C_8 
REMARK    2  A    between atoms: C_5  and  O_7 
REMARK    3  A    between atoms: C_8  and  C_9 
REMARK    4  A    between atoms: C_9  and  C_10 
REMARK    5  A    between atoms: C_9  and  O_20 
REMARK    6  A    between atoms: C_10  and  C_11 
REMARK    7  A    between atoms: C_12  and  O_19 
REMARK    8  A    between atoms: C_14  and  O_18 
REMARK    9  A    between atoms: C_16  and  O_17 
ROOT
HETATM    1  C   UNL     1      16.284   6.406  10.321  1.00  0.00     0.003 A 
HETATM    2  C   UNL     1      15.154   6.972   9.761  1.00  0.00     0.007 A 
HETATM    3  C   UNL     1      15.171   7.398   8.445  1.00  0.00    -0.053 A 
HETATM    4  C   UNL     1      16.318   7.259   7.688  1.00  0.00     0.043 A 
HETATM    5  C   UNL     1      17.453   6.692   8.248  1.00  0.00     0.066 A 
HETATM    6  C   UNL     1      17.433   6.265   9.568  1.00  0.00     0.036 A 
ENDROOT
BRANCH   3   7
HETATM    7  C   UNL     1      13.937   8.014   7.838  1.00  0.00     0.070 C 
BRANCH   7   8
HETATM    8  C   UNL     1      12.769   7.032   7.946  1.00  0.00     0.127 C 
BRANCH   8   9
HETATM    9  C   UNL     1      11.645   7.665   8.768  1.00  0.00     0.076 C 
BRANCH   9  10
HETATM   10  C   UNL     1      11.246   6.727   9.878  1.00  0.00     0.011 A 
HETATM   11  C   UNL     1      10.389   5.668   9.618  1.00  0.00     0.077 A 
HETATM   12  C   UNL     1      10.022   4.805  10.639  1.00  0.00     0.073 A 
HETATM   13  C   UNL     1      10.510   5.002  11.922  1.00  0.00     0.071 A 
HETATM   14  C   UNL     1      11.368   6.061  12.182  1.00  0.00     0.073 A 
HETATM   15  C   UNL     1      11.739   6.920  11.160  1.00  0.00     0.077 A 
BRANCH  11  16
HETATM   16  O   UNL     1       9.910   5.475   8.361  1.00  0.00    -0.360 OA
HETATM   17  H   UNL     1       9.323   6.100   7.983  1.00  0.00     0.217 HD
ENDBRANCH  11  16
BRANCH  13  18
HETATM   18  O   UNL     1      10.150   4.158  12.924  1.00  0.00    -0.361 OA
HETATM   19  H   UNL     1       9.461   3.538  12.788  1.00  0.00     0.217 HD
ENDBRANCH  13  18
BRANCH  15  20
HETATM   20  O   UNL     1      12.578   7.959  11.416  1.00  0.00    -0.360 OA
HETATM   21  H   UNL     1      12.256   8.726  11.846  1.00  0.00     0.217 HD
ENDBRANCH  15  20
ENDBRANCH   9  10
ENDBRANCH   8   9
BRANCH   8  22
HETATM   22  O   UNL     1      12.286   6.721   6.638  1.00  0.00    -0.395 OA
HETATM   23  H   UNL     1      12.891   7.089   5.974  1.00  0.00     0.210 HD
ENDBRANCH   8  22
ENDBRANCH   7   8
ENDBRANCH   3   7
BRANCH   5  24
HETATM   24  O   UNL     1      18.583   6.554   7.505  1.00  0.00    -0.361 OA
HETATM   25  H   UNL     1      19.033   7.314   7.191  1.00  0.00     0.217 HD
ENDBRANCH   5  24
TORSDOF 9
ENDMDL
MODEL 4
REMARK VINA RESULT:      -6.7      1.398      1.974
REMARK  9 active torsions:
REMARK  status: ('A' for Active; 'I' for Inactive)
REMARK    1  A    between atoms: C_3  and  C_8 
REMARK    2  A    between atoms: C_5  and  O_7 
REMARK    3  A    between atoms: C_8  and  C_9 
REMARK    4  A    between atoms: C_9  and  C_10 
REMARK    5  A    between atoms: C_9  and  O_20 
REMARK    6  A    between atoms: C_10  and  C_11 
REMARK    7  A    between atoms: C_12  and  O_19 
REMARK    8  A    between atoms: C_14  and  O_18 
REMARK    9  A    between atoms: C_16  and  O_17 
ROOT
HETATM    1  C   UNL     1      16.514   6.285  10.303  1.00  0.00     0.003 A 
HETATM    2  C   UNL     1      15.385   6.868   9.761  1.00  0.00     0.007 A 
HETATM    3  C   UNL     1      15.415   7.375   8.475  1.00  0.00    -0.053 A 
HETATM    4  C   UNL     1      16.575   7.300   7.729  1.00  0.00     0.043 A 
HETATM    5  C   UNL     1      17.710   6.715   8.272  1.00  0.00     0.066 A 
HETATM    6  C   UNL     1      17.677   6.207   9.562  1.00  0.00     0.036 A 
ENDROOT
BRANCH   3   7
HETATM    7  C   UNL     1      14.181   8.010   7.886  1.00  0.00     0.070 C 
BRANCH   7   8
HETATM    8  C   UNL     1      12.995   7.054   8.033  1.00  0.00     0.127 C 
BRANCH   8   9
HETATM    9  C   UNL     1      11.901   7.723   8.866  1.00  0.00     0.076 C 
BRANCH   9  10
HETATM   10  C   UNL     1      11.433   6.773   9.938  1.00  0.00     0.011 A 
HETATM   11  C   UNL     1      11.921   6.891  11.231  1.00  0.00     0.077 A 
HETATM   12  C   UNL     1      11.491   6.016  12.217  1.00  0.00     0.073 A 
HETATM   13  C   UNL     1      10.573   5.023  11.911  1.00  0.00     0.071 A 
HETATM   14  C   UNL     1      10.084   4.906  10.618  1.00  0.00     0.073 A 
HETATM   15  C   UNL     1      10.511   5.784   9.633  1.00  0.00     0.077 A 
BRANCH  11  16
HETATM   16  O   UNL     1      12.822   7.864  11.531  1.00  0.00    -0.360 OA
HETATM   17  H   UNL     1      13.733   7.728  11.359  1.00  0.00     0.217 HD
ENDBRANCH  11  16
BRANCH  13  18
HETATM   18  O   UNL     1      10.152   4.165  12.877  1.00  0.00    -0.361 OA
HETATM   19  H   UNL     1      10.770   3.794  13.474  1.00  0.00     0.217 HD
ENDBRANCH  13  18
BRANCH  15  20
HETATM   20  O   UNL     1      10.032   5.668   8.366  1.00  0.00    -0.360 OA
HETATM   21  H   UNL     1       9.854   6.436   7.861  1.00  0.00     0.217 HD
ENDBRANCH  15  20
ENDBRANCH   9  10
ENDBRANCH   8   9
BRANCH   8  22
HETATM   22  O   UNL     1      12.480   6.732   6.740  1.00  0.00    -0.395 OA
HETATM   23  H   UNL     1      13.113   7.015   6.060  1.00  0.00     0.210 HD
ENDBRANCH   8  22
ENDBRANCH   7   8
ENDBRANCH   3   7
BRANCH   5  24
HETATM   24  O   UNL     1      18.853   6.640   7.539  1.00  0.00    -0.361 OA
HETATM   25  H   UNL     1      19.675   6.870   7.927  1.00  0.00     0.217 HD
ENDBRANCH   5  24
TORSDOF 9
ENDMDL
MODEL 5
REMARK VINA RESULT:      -6.5      3.668      6.706
REMARK  9 active torsions:
REMARK  status: ('A' for Active; 'I' for Inactive)
REMARK    1  A    between atoms: C_3  and  C_8 
REMARK    2  A    between atoms: C_5  and  O_7 
REMARK    3  A    between atoms: C_8  and  C_9 
REMARK    4  A    between atoms: C_9  and  C_10 
REMARK    5  A    between atoms: C_9  and  O_20 
REMARK    6  A    between atoms: C_10  and  C_11 
REMARK    7  A    between atoms: C_12  and  O_19 
REMARK    8  A    between atoms: C_14  and  O_18 
REMARK    9  A    between atoms: C_16  and  O_17 
ROOT
HETATM    1  C   UNL     1      11.978   6.829   7.110  1.00  0.00     0.003 A 
HETATM    2  C   UNL     1      13.101   6.848   7.915  1.00  0.00     0.007 A 
HETATM    3  C   UNL     1      12.973   6.718   9.286  1.00  0.00    -0.053 A 
HETATM    4  C   UNL     1      11.723   6.569   9.853  1.00  0.00     0.043 A 
HETATM    5  C   UNL     1      10.594   6.550   9.046  1.00  0.00     0.066 A 
HETATM    6  C   UNL     1      10.725   6.680   7.671  1.00  0.00     0.036 A 
ENDROOT
BRANCH   3   7
HETATM    7  C   UNL     1      14.199   6.738  10.162  1.00  0.00     0.070 C 
BRANCH   7   8
HETATM    8  C   UNL     1      13.785   6.986  11.614  1.00  0.00     0.127 C 
BRANCH   8   9
HETATM    9  C   UNL     1      14.475   5.966  12.522  1.00  0.00     0.076 C 
BRANCH   9  10
HETATM   10  C   UNL     1      14.360   6.412  13.957  1.00  0.00     0.011 A 
HETATM   11  C   UNL     1      15.408   7.093  14.559  1.00  0.00     0.077 A 
HETATM   12  C   UNL     1      15.302   7.503  15.879  1.00  0.00     0.073 A 
HETATM   13  C   UNL     1      14.148   7.233  16.598  1.00  0.00     0.071 A 
HETATM   14  C   UNL     1      13.099   6.554  15.996  1.00  0.00     0.073 A 
HETATM   15  C   UNL     1      13.203   6.148  14.675  1.00  0.00     0.077 A 
BRANCH  11  16
HETATM   16  O   UNL     1      16.540   7.356  13.854  1.00  0.00    -0.360 OA
HETATM   17  H   UNL     1      17.111   8.047  14.126  1.00  0.00     0.217 HD
ENDBRANCH  11  16
BRANCH  13  18
HETATM   18  O   UNL     1      14.043   7.634  17.892  1.00  0.00    -0.361 OA
HETATM   19  H   UNL     1      14.566   7.225  18.553  1.00  0.00     0.217 HD
ENDBRANCH  13  18
BRANCH  15  20
HETATM   20  O   UNL     1      12.175   5.482  14.085  1.00  0.00    -0.360 OA
HETATM   21  H   UNL     1      12.086   5.489  13.153  1.00  0.00     0.217 HD
ENDBRANCH  15  20
ENDBRANCH   9  10
ENDBRANCH   8   9
BRANCH   8  22
HETATM   22  O   UNL     1      14.172   8.306  12.001  1.00  0.00    -0.395 OA
HETATM   23  H   UNL     1      13.747   8.535  12.842  1.00  0.00     0.210 HD
ENDBRANCH   8  22
ENDBRANCH   7   8
ENDBRANCH   3   7
BRANCH   5  24
HETATM   24  O   UNL     1       9.362   6.402   9.602  1.00  0.00    -0.361 OA
HETATM   25  H   UNL     1       9.216   6.658  10.492  1.00  0.00     0.217 HD
ENDBRANCH   5  24
TORSDOF 9
ENDMDL
MODEL 6
REMARK VINA RESULT:      -6.5      3.661      6.802
REMARK  9 active torsions:
REMARK  status: ('A' for Active; 'I' for Inactive)
REMARK    1  A    between atoms: C_3  and  C_8 
REMARK    2  A    between atoms: C_5  and  O_7 
REMARK    3  A    between atoms: C_8  and  C_9 
REMARK    4  A    between atoms: C_9  and  C_10 
REMARK    5  A    between atoms: C_9  and  O_20 
REMARK    6  A    between atoms: C_10  and  C_11 
REMARK    7  A    between atoms: C_12  and  O_19 
REMARK    8  A    between atoms: C_14  and  O_18 
REMARK    9  A    between atoms: C_16  and  O_17 
ROOT
HETATM    1  C   UNL     1      11.941   6.828   7.095  1.00  0.00     0.003 A 
HETATM    2  C   UNL     1      13.060   6.851   7.905  1.00  0.00     0.007 A 
HETATM    3  C   UNL     1      12.925   6.756   9.278  1.00  0.00    -0.053 A 
HETATM    4  C   UNL     1      11.670   6.640   9.842  1.00  0.00     0.043 A 
HETATM    5  C   UNL     1      10.545   6.617   9.031  1.00  0.00     0.066 A 
HETATM    6  C   UNL     1      10.684   6.711   7.654  1.00  0.00     0.036 A 
ENDROOT
BRANCH   3   7
HETATM    7  C   UNL     1      14.147   6.781  10.159  1.00  0.00     0.070 C 
BRANCH   7   8
HETATM    8  C   UNL     1      13.724   6.999  11.614  1.00  0.00     0.127 C 
BRANCH   8   9
HETATM    9  C   UNL     1      14.411   5.963  12.506  1.00  0.00     0.076 C 
BRANCH   9  10
HETATM   10  C   UNL     1      14.334   6.408  13.943  1.00  0.00     0.011 A 
HETATM   11  C   UNL     1      13.192   6.155  14.688  1.00  0.00     0.077 A 
HETATM   12  C   UNL     1      13.121   6.564  16.011  1.00  0.00     0.073 A 
HETATM   13  C   UNL     1      14.192   7.228  16.589  1.00  0.00     0.071 A 
HETATM   14  C   UNL     1      15.335   7.480  15.845  1.00  0.00     0.073 A 
HETATM   15  C   UNL     1      15.408   7.066  14.524  1.00  0.00     0.077 A 
BRANCH  11  16
HETATM   16  O   UNL     1      12.141   5.506  14.120  1.00  0.00    -0.360 OA
HETATM   17  H   UNL     1      11.548   5.017  14.656  1.00  0.00     0.217 HD
ENDBRANCH  11  16
BRANCH  13  18
HETATM   18  O   UNL     1      14.123   7.630  17.885  1.00  0.00    -0.361 OA
HETATM   19  H   UNL     1      13.435   7.315  18.437  1.00  0.00     0.217 HD
ENDBRANCH  13  18
BRANCH  15  20
HETATM   20  O   UNL     1      16.528   7.315  13.795  1.00  0.00    -0.360 OA
HETATM   21  H   UNL     1      16.525   7.171  12.869  1.00  0.00     0.217 HD
ENDBRANCH  15  20
ENDBRANCH   9  10
ENDBRANCH   8   9
BRANCH   8  22
HETATM   22  O   UNL     1      14.105   8.312  12.028  1.00  0.00    -0.395 OA
HETATM   23  H   UNL     1      13.385   8.934  11.837  1.00  0.00     0.210 HD
ENDBRANCH   8  22
ENDBRANCH   7   8
ENDBRANCH   3   7
BRANCH   5  24
HETATM   24  O   UNL     1       9.308   6.502   9.584  1.00  0.00    -0.361 OA
HETATM   25  H   UNL     1       9.052   7.073  10.281  1.00  0.00     0.217 HD
ENDBRANCH   5  24
TORSDOF 9
ENDMDL
MODEL 7
REMARK VINA RESULT:      -6.5      3.316      6.678
REMARK  9 active torsions:
REMARK  status: ('A' for Active; 'I' for Inactive)
REMARK    1  A    between atoms: C_3  and  C_8 
REMARK    2  A    between atoms: C_5  and  O_7 
REMARK    3  A    between atoms: C_8  and  C_9 
REMARK    4  A    between atoms: C_9  and  C_10 
REMARK    5  A    between atoms: C_9  and  O_20 
REMARK    6  A    between atoms: C_10  and  C_11 
REMARK    7  A    between atoms: C_12  and  O_19 
REMARK    8  A    between atoms: C_14  and  O_18 
REMARK    9  A    between atoms: C_16  and  O_17 
ROOT
HETATM    1  C   UNL     1      12.907   7.658   7.979  1.00  0.00     0.003 A 
HETATM    2  C   UNL     1      12.481   8.212   9.171  1.00  0.00     0.007 A 
HETATM    3  C   UNL     1      11.239   7.884   9.684  1.00  0.00    -0.053 A 
HETATM    4  C   UNL     1      10.422   7.002   9.005  1.00  0.00     0.043 A 
HETATM    5  C   UNL     1      10.848   6.445   7.808  1.00  0.00     0.066 A 
HETATM    6  C   UNL     1      12.094   6.775   7.296  1.00  0.00     0.036 A 
ENDROOT
BRANCH   3   7
HETATM    7  C   UNL     1      10.777   8.490  10.984  1.00  0.00     0.070 C 
BRANCH   7   8
HETATM    8  C   UNL     1      11.279   7.637  12.152  1.00  0.00     0.127 C 
BRANCH   8   9
HETATM    9  C   UNL     1      12.312   8.430  12.955  1.00  0.00     0.076 C 
BRANCH   9  10
HETATM   10  C   UNL     1      13.255   7.475  13.640  1.00  0.00     0.011 A 
HETATM   11  C   UNL     1      14.415   7.066  13.000  1.00  0.00     0.077 A 
HETATM   12  C   UNL     1      15.283   6.187  13.630  1.00  0.00     0.073 A 
HETATM   13  C   UNL     1      14.991   5.717  14.902  1.00  0.00     0.071 A 
HETATM   14  C   UNL     1      13.831   6.128  15.543  1.00  0.00     0.073 A 
HETATM   15  C   UNL     1      12.966   7.010  14.914  1.00  0.00     0.077 A 
BRANCH  11  16
HETATM   16  O   UNL     1      14.700   7.526  11.753  1.00  0.00    -0.360 OA
HETATM   17  H   UNL     1      14.796   6.924  11.042  1.00  0.00     0.217 HD
ENDBRANCH  11  16
BRANCH  13  18
HETATM   18  O   UNL     1      15.841   4.856  15.520  1.00  0.00    -0.361 OA
HETATM   19  H   UNL     1      15.547   4.356  16.256  1.00  0.00     0.217 HD
ENDBRANCH  13  18
BRANCH  15  20
HETATM   20  O   UNL     1      11.830   7.411  15.543  1.00  0.00    -0.360 OA
HETATM   21  H   UNL     1      11.877   8.018  16.255  1.00  0.00     0.217 HD
ENDBRANCH  15  20
ENDBRANCH   9  10
ENDBRANCH   8   9
BRANCH   8  22
HETATM   22  O   UNL     1      10.179   7.293  12.997  1.00  0.00    -0.395 OA
HETATM   23  H   UNL     1      10.205   7.838  13.799  1.00  0.00     0.210 HD
ENDBRANCH   8  22
ENDBRANCH   7   8
ENDBRANCH   3   7
BRANCH   5  24
HETATM   24  O   UNL     1      10.045   5.576   7.138  1.00  0.00    -0.361 OA
HETATM   25  H   UNL     1      10.384   5.090   6.412  1.00  0.00     0.217 HD
ENDBRANCH   5  24
TORSDOF 9
ENDMDL
MODEL 8
REMARK VINA RESULT:      -6.5      3.327      6.544
REMARK  9 active torsions:
REMARK  status: ('A' for Active; 'I' for Inactive)
REMARK    1  A    between atoms: C_3  and  C_8 
REMARK    2  A    between atoms: C_5  and  O_7 
REMARK    3  A    between atoms: C_8  and  C_9 
REMARK    4  A    between atoms: C_9  and  C_10 
REMARK    5  A    between atoms: C_9  and  O_20 
REMARK    6  A    between atoms: C_10  and  C_11 
REMARK    7  A    between atoms: C_12  and  O_19 
REMARK    8  A    between atoms: C_14  and  O_18 
REMARK    9  A    between atoms: C_16  and  O_17 
ROOT
HETATM    1  C   UNL     1      12.868   7.727   7.953  1.00  0.00     0.003 A 
HETATM    2  C   UNL     1      12.445   8.271   9.150  1.00  0.00     0.007 A 
HETATM    3  C   UNL     1      11.221   7.910   9.683  1.00  0.00    -0.053 A 
HETATM    4  C   UNL     1      10.418   7.004   9.019  1.00  0.00     0.043 A 
HETATM    5  C   UNL     1      10.840   6.457   7.816  1.00  0.00     0.066 A 
HETATM    6  C   UNL     1      12.069   6.820   7.284  1.00  0.00     0.036 A 
ENDROOT
BRANCH   3   7
HETATM    7  C   UNL     1      10.763   8.505  10.990  1.00  0.00     0.070 C 
BRANCH   7   8
HETATM    8  C   UNL     1      11.271   7.643  12.149  1.00  0.00     0.127 C 
BRANCH   8   9
HETATM    9  C   UNL     1      12.298   8.435  12.960  1.00  0.00     0.076 C 
BRANCH   9  10
HETATM   10  C   UNL     1      13.246   7.479  13.638  1.00  0.00     0.011 A 
HETATM   11  C   UNL     1      12.965   7.009  14.912  1.00  0.00     0.077 A 
HETATM   12  C   UNL     1      13.838   6.130  15.535  1.00  0.00     0.073 A 
HETATM   13  C   UNL     1      14.992   5.721  14.884  1.00  0.00     0.071 A 
HETATM   14  C   UNL     1      15.273   6.190  13.610  1.00  0.00     0.073 A 
HETATM   15  C   UNL     1      14.398   7.065  12.985  1.00  0.00     0.077 A 
BRANCH  11  16
HETATM   16  O   UNL     1      11.835   7.411  15.550  1.00  0.00    -0.360 OA
HETATM   17  H   UNL     1      11.601   8.318  15.561  1.00  0.00     0.217 HD
ENDBRANCH  11  16
BRANCH  13  18
HETATM   18  O   UNL     1      15.848   4.860  15.495  1.00  0.00    -0.361 OA
HETATM   19  H   UNL     1      16.556   4.483  15.012  1.00  0.00     0.217 HD
ENDBRANCH  13  18
BRANCH  15  20
HETATM   20  O   UNL     1      14.674   7.525  11.736  1.00  0.00    -0.360 OA
HETATM   21  H   UNL     1      14.987   6.936  11.079  1.00  0.00     0.217 HD
ENDBRANCH  15  20
ENDBRANCH   9  10
ENDBRANCH   8   9
BRANCH   8  22
HETATM   22  O   UNL     1      10.173   7.284  12.991  1.00  0.00    -0.395 OA
HETATM   23  H   UNL     1      10.328   7.624  13.887  1.00  0.00     0.210 HD
ENDBRANCH   8  22
ENDBRANCH   7   8
ENDBRANCH   3   7
BRANCH   5  24
HETATM   24  O   UNL     1      10.052   5.564   7.160  1.00  0.00    -0.361 OA
HETATM   25  H   UNL     1       9.655   5.800   6.344  1.00  0.00     0.217 HD
ENDBRANCH   5  24
TORSDOF 9
ENDMDL
MODEL 9
REMARK VINA RESULT:      -6.5      2.274      3.040
REMARK  9 active torsions:
REMARK  status: ('A' for Active; 'I' for Inactive)
REMARK    1  A    between atoms: C_3  and  C_8 
REMARK    2  A    between atoms: C_5  and  O_7 
REMARK    3  A    between atoms: C_8  and  C_9 
REMARK    4  A    between atoms: C_9  and  C_10 
REMARK    5  A    between atoms: C_9  and  O_20 
REMARK    6  A    between atoms: C_10  and  C_11 
REMARK    7  A    between atoms: C_12  and  O_19 
REMARK    8  A    between atoms: C_14  and  O_18 
REMARK    9  A    between atoms: C_16  and  O_17 
ROOT
HETATM    1  C   UNL     1      16.459   6.286  10.333  1.00  0.00     0.003 A 
HETATM    2  C   UNL     1      15.246   6.566   9.732  1.00  0.00     0.007 A 
HETATM    3  C   UNL     1      15.201   6.931   8.399  1.00  0.00    -0.053 A 
HETATM    4  C   UNL     1      16.368   7.018   7.666  1.00  0.00     0.043 A 
HETATM    5  C   UNL     1      17.586   6.738   8.267  1.00  0.00     0.066 A 
HETATM    6  C   UNL     1      17.629   6.371   9.604  1.00  0.00     0.036 A 
ENDROOT
BRANCH   3   7
HETATM    7  C   UNL     1      13.877   7.235   7.746  1.00  0.00     0.070 C 
BRANCH   7   8
HETATM    8  C   UNL     1      12.763   7.166   8.794  1.00  0.00     0.127 C 
BRANCH   8   9
HETATM    9  C   UNL     1      12.391   8.582   9.236  1.00  0.00     0.076 C 
BRANCH   9  10
HETATM   10  C   UNL     1      11.903   8.551  10.661  1.00  0.00     0.011 A 
HETATM   11  C   UNL     1      12.809   8.649  11.707  1.00  0.00     0.077 A 
HETATM   12  C   UNL     1      12.361   8.621  13.019  1.00  0.00     0.073 A 
HETATM   13  C   UNL     1      11.006   8.494  13.285  1.00  0.00     0.071 A 
HETATM   14  C   UNL     1      10.099   8.398  12.239  1.00  0.00     0.073 A 
HETATM   15  C   UNL     1      10.548   8.431  10.928  1.00  0.00     0.077 A 
BRANCH  11  16
HETATM   16  O   UNL     1      14.137   8.772  11.445  1.00  0.00    -0.360 OA
HETATM   17  H   UNL     1      14.718   8.059  11.623  1.00  0.00     0.217 HD
ENDBRANCH  11  16
BRANCH  13  18
HETATM   18  O   UNL     1      10.565   8.465  14.570  1.00  0.00    -0.361 OA
HETATM   19  H   UNL     1       9.789   7.988  14.789  1.00  0.00     0.217 HD
ENDBRANCH  13  18
BRANCH  15  20
HETATM   20  O   UNL     1       9.660   8.335   9.904  1.00  0.00    -0.360 OA
HETATM   21  H   UNL     1       8.895   7.802   9.995  1.00  0.00     0.217 HD
ENDBRANCH  15  20
ENDBRANCH   9  10
ENDBRANCH   8   9
BRANCH   8  22
HETATM   22  O   UNL     1      11.617   6.527   8.228  1.00  0.00    -0.395 OA
HETATM   23  H   UNL     1      10.831   6.750   8.751  1.00  0.00     0.210 HD
ENDBRANCH   8  22
ENDBRANCH   7   8
ENDBRANCH   3   7
BRANCH   5  24
HETATM   24  O   UNL     1      18.736   6.822   7.547  1.00  0.00    -0.361 OA
HETATM   25  H   UNL     1      18.920   6.188   6.882  1.00  0.00     0.217 HD
ENDBRANCH   5  24
TORSDOF 9
ENDMDL
