MODEL 1
REMARK VINA RESULT:      -6.2      0.000      0.000
REMARK  7 active torsions:
REMARK  status: ('A' for Active; 'I' for Inactive)
REMARK    1  A    between atoms: O_1  and  C_2 
REMARK    2  A    between atoms: C_2  and  C_3 
REMARK    3  A    between atoms: C_2  and  C_8 
REMARK    4  A    between atoms: C_3  and  C_4 
REMARK    5  A    between atoms: C_4  and  C_5 
REMARK    6  A    between atoms: C_8  and  C_9 
REMARK    7  A    between atoms: C_11  and  O_15 
ROOT
HETATM    1  O   UNL     1     -54.096  47.300   7.165  1.00  0.00    -0.395 OA
HETATM    2  H   UNL     1     -54.458  48.175   6.955  1.00  0.00     0.210 HD
ENDROOT
BRANCH   1   3
HETATM    3  C   UNL     1     -52.848  47.451   7.846  1.00  0.00     0.122 C 
BRANCH   3   4
HETATM    4  C   UNL     1     -51.886  46.374   7.335  1.00  0.00     0.042 C 
BRANCH   4   5
HETATM    5  C   UNL     1     -51.605  46.519   5.842  1.00  0.00     0.116 C 
BRANCH   5   6
HETATM    6  C   UNL     1     -52.163  45.348   5.091  1.00  0.00     0.172 C 
HETATM    7  O   UNL     1     -51.521  44.494   4.505  1.00  0.00    -0.648 OA
HETATM    8  O   UNL     1     -53.508  45.286   5.141  1.00  0.00    -0.648 OA
ENDBRANCH   5   6
ENDBRANCH   4   5
ENDBRANCH   3   4
BRANCH   3   9
HETATM    9  C   UNL     1     -53.034  47.340   9.369  1.00  0.00     0.070 C 
BRANCH   9  10
HETATM   10  C   UNL     1     -53.227  48.680  10.039  1.00  0.00    -0.053 A 
HETATM   11  C   UNL     1     -53.430  49.837   9.276  1.00  0.00     0.043 A 
HETATM   12  C   UNL     1     -53.601  51.067   9.903  1.00  0.00     0.066 A 
HETATM   13  C   UNL     1     -53.571  51.172  11.290  1.00  0.00     0.036 A 
HETATM   14  C   UNL     1     -53.367  50.027  12.057  1.00  0.00     0.003 A 
HETATM   15  C   UNL     1     -53.195  48.787  11.438  1.00  0.00     0.007 A 
BRANCH  12  16
HETATM   16  O   UNL     1     -53.797  52.160   9.111  1.00  0.00    -0.361 OA
HETATM   17  H   UNL     1     -54.658  52.516   9.010  1.00  0.00     0.217 HD
ENDBRANCH  12  16
ENDBRANCH   9  10
ENDBRANCH   3   9
ENDBRANCH   1   3
TORSDOF 7
ENDMDL
MODEL 2
REMARK VINA RESULT:      -6.2      1.852      6.420
REMARK  7 active torsions:
REMARK  status: ('A' for Active; 'I' for Inactive)
REMARK    1  A    between atoms: O_1  and  C_2 
REMARK    2  A    between atoms: C_2  and  C_3 
REMARK    3  A    between atoms: C_2  and  C_8 
REMARK    4  A    between atoms: C_3  and  C_4 
REMARK    5  A    between atoms: C_4  and  C_5 
REMARK    6  A    between atoms: C_8  and  C_9 
REMARK    7  A    between atoms: C_11  and  O_15 
ROOT
HETATM    1  O   UNL     1     -53.274  50.430   8.701  1.00  0.00    -0.395 OA
HETATM    2  H   UNL     1     -53.982  51.031   8.420  1.00  0.00     0.210 HD
ENDROOT
BRANCH   1   3
HETATM    3  C   UNL     1     -53.808  49.116   8.880  1.00  0.00     0.122 C 
BRANCH   3   4
HETATM    4  C   UNL     1     -54.576  49.082  10.205  1.00  0.00     0.042 C 
BRANCH   4   5
HETATM    5  C   UNL     1     -53.676  48.701  11.377  1.00  0.00     0.116 C 
BRANCH   5   6
HETATM    6  C   UNL     1     -53.283  49.923  12.151  1.00  0.00     0.172 C 
HETATM    7  O   UNL     1     -53.360  51.077  11.766  1.00  0.00    -0.648 OA
HETATM    8  O   UNL     1     -52.843  49.638  13.391  1.00  0.00    -0.648 OA
ENDBRANCH   5   6
ENDBRANCH   4   5
ENDBRANCH   3   4
BRANCH   3   9
HETATM    9  C   UNL     1     -52.688  48.060   8.871  1.00  0.00     0.070 C 
BRANCH   9  10
HETATM   10  C   UNL     1     -52.333  47.589   7.480  1.00  0.00    -0.053 A 
HETATM   11  C   UNL     1     -53.100  46.604   6.843  1.00  0.00     0.043 A 
HETATM   12  C   UNL     1     -52.760  46.172   5.565  1.00  0.00     0.066 A 
HETATM   13  C   UNL     1     -51.661  46.704   4.899  1.00  0.00     0.036 A 
HETATM   14  C   UNL     1     -50.892  47.683   5.526  1.00  0.00     0.003 A 
HETATM   15  C   UNL     1     -51.224  48.124   6.809  1.00  0.00     0.007 A 
BRANCH  12  16
HETATM   16  O   UNL     1     -53.542  45.213   4.992  1.00  0.00    -0.361 OA
HETATM   17  H   UNL     1     -53.428  44.313   5.227  1.00  0.00     0.217 HD
ENDBRANCH  12  16
ENDBRANCH   9  10
ENDBRANCH   3   9
ENDBRANCH   1   3
TORSDOF 7
ENDMDL
MODEL 3
REMARK VINA RESULT:      -6.1      1.037      1.161
REMARK  7 active torsions:
REMARK  status: ('A' for Active; 'I' for Inactive)
REMARK    1  A    between atoms: O_1  and  C_2 
REMARK    2  A    between atoms: C_2  and  C_3 
REMARK    3  A    between atoms: C_2  and  C_8 
REMARK    4  A    between atoms: C_3  and  C_4 
REMARK    5  A    between atoms: C_4  and  C_5 
REMARK    6  A    between atoms: C_8  and  C_9 
REMARK    7  A    between atoms: C_11  and  O_15 
ROOT
HETATM    1  O   UNL     1     -53.747  47.193   6.727  1.00  0.00    -0.395 OA
HETATM    2  H   UNL     1     -54.072  46.297   6.907  1.00  0.00     0.210 HD
ENDROOT
BRANCH   1   3
HETATM    3  C   UNL     1     -52.684  47.505   7.630  1.00  0.00     0.122 C 
BRANCH   3   4
HETATM    4  C   UNL     1     -51.478  46.627   7.277  1.00  0.00     0.042 C 
BRANCH   4   5
HETATM    5  C   UNL     1     -51.611  45.218   7.846  1.00  0.00     0.116 C 
BRANCH   5   6
HETATM    6  C   UNL     1     -51.781  44.222   6.738  1.00  0.00     0.172 C 
HETATM    7  O   UNL     1     -51.530  43.031   6.794  1.00  0.00    -0.648 OA
HETATM    8  O   UNL     1     -52.292  44.767   5.618  1.00  0.00    -0.648 OA
ENDBRANCH   5   6
ENDBRANCH   4   5
ENDBRANCH   3   4
BRANCH   3   9
HETATM    9  C   UNL     1     -53.115  47.278   9.089  1.00  0.00     0.070 C 
BRANCH   9  10
HETATM   10  C   UNL     1     -53.262  48.565   9.867  1.00  0.00    -0.053 A 
HETATM   11  C   UNL     1     -53.489  49.778   9.204  1.00  0.00     0.043 A 
HETATM   12  C   UNL     1     -53.616  50.958   9.930  1.00  0.00     0.066 A 
HETATM   13  C   UNL     1     -53.518  50.958  11.317  1.00  0.00     0.036 A 
HETATM   14  C   UNL     1     -53.289  49.756  11.985  1.00  0.00     0.003 A 
HETATM   15  C   UNL     1     -53.161  48.565  11.266  1.00  0.00     0.007 A 
BRANCH  12  16
HETATM   16  O   UNL     1     -53.839  52.109   9.233  1.00  0.00    -0.361 OA
HETATM   17  H   UNL     1     -54.705  52.322   8.945  1.00  0.00     0.217 HD
ENDBRANCH  12  16
ENDBRANCH   9  10
ENDBRANCH   3   9
ENDBRANCH   1   3
TORSDOF 7
ENDMDL
MODEL 4
REMARK VINA RESULT:      -6.1      2.274      3.184
REMARK  7 active torsions:
REMARK  status: ('A' for Active; 'I' for Inactive)
REMARK    1  A    between atoms: O_1  and  C_2 
REMARK    2  A    between atoms: C_2  and  C_3 
REMARK    3  A    between atoms: C_2  and  C_8 
REMARK    4  A    between atoms: C_3  and  C_4 
REMARK    5  A    between atoms: C_4  and  C_5 
REMARK    6  A    between atoms: C_8  and  C_9 
REMARK    7  A    between atoms: C_11  and  O_15 
ROOT
HETATM    1  O   UNL     1     -53.407  50.226   8.138  1.00  0.00    -0.395 OA
HETATM    2  H   UNL     1     -52.975  50.120   7.276  1.00  0.00     0.210 HD
ENDROOT
BRANCH   1   3
HETATM    3  C   UNL     1     -53.277  49.017   8.889  1.00  0.00     0.122 C 
BRANCH   3   4
HETATM    4  C   UNL     1     -53.652  47.842   7.979  1.00  0.00     0.042 C 
BRANCH   4   5
HETATM    5  C   UNL     1     -52.428  47.036   7.554  1.00  0.00     0.116 C 
BRANCH   5   6
HETATM    6  C   UNL     1     -52.585  46.557   6.142  1.00  0.00     0.172 C 
HETATM    7  O   UNL     1     -53.438  45.790   5.731  1.00  0.00    -0.648 OA
HETATM    8  O   UNL     1     -51.678  47.094   5.303  1.00  0.00    -0.648 OA
ENDBRANCH   5   6
ENDBRANCH   4   5
ENDBRANCH   3   4
BRANCH   3   9
HETATM    9  C   UNL     1     -54.171  49.045  10.140  1.00  0.00     0.070 C 
BRANCH   9  10
HETATM   10  C   UNL     1     -53.472  48.530  11.377  1.00  0.00    -0.053 A 
HETATM   11  C   UNL     1     -53.442  49.295  12.550  1.00  0.00     0.043 A 
HETATM   12  C   UNL     1     -52.789  48.813  13.681  1.00  0.00     0.066 A 
HETATM   13  C   UNL     1     -52.157  47.574  13.668  1.00  0.00     0.036 A 
HETATM   14  C   UNL     1     -52.180  46.808  12.504  1.00  0.00     0.003 A 
HETATM   15  C   UNL     1     -52.833  47.281  11.363  1.00  0.00     0.007 A 
BRANCH  12  16
HETATM   16  O   UNL     1     -52.793  49.598  14.796  1.00  0.00    -0.361 OA
HETATM   17  H   UNL     1     -53.281  49.336  15.552  1.00  0.00     0.217 HD
ENDBRANCH  12  16
ENDBRANCH   9  10
ENDBRANCH   3   9
ENDBRANCH   1   3
TORSDOF 7
ENDMDL
MODEL 5
REMARK VINA RESULT:      -6.1      3.244      3.647
REMARK  7 active torsions:
REMARK  status: ('A' for Active; 'I' for Inactive)
REMARK    1  A    between atoms: O_1  and  C_2 
REMARK    2  A    between atoms: C_2  and  C_3 
REMARK    3  A    between atoms: C_2  and  C_8 
REMARK    4  A    between atoms: C_3  and  C_4 
REMARK    5  A    between atoms: C_4  and  C_5 
REMARK    6  A    between atoms: C_8  and  C_9 
REMARK    7  A    between atoms: C_11  and  O_15 
ROOT
HETATM    1  O   UNL     1     -55.956  45.909   9.049  1.00  0.00    -0.395 OA
HETATM    2  H   UNL     1     -56.564  45.308   8.590  1.00  0.00     0.210 HD
ENDROOT
BRANCH   1   3
HETATM    3  C   UNL     1     -54.623  45.682   8.585  1.00  0.00     0.122 C 
BRANCH   3   4
HETATM    4  C   UNL     1     -54.467  44.190   8.273  1.00  0.00     0.042 C 
BRANCH   4   5
HETATM    5  C   UNL     1     -55.145  43.313   9.322  1.00  0.00     0.116 C 
BRANCH   5   6
HETATM    6  C   UNL     1     -56.367  42.663   8.746  1.00  0.00     0.172 C 
HETATM    7  O   UNL     1     -56.713  42.685   7.577  1.00  0.00    -0.648 OA
HETATM    8  O   UNL     1     -57.080  41.983   9.664  1.00  0.00    -0.648 OA
ENDBRANCH   5   6
ENDBRANCH   4   5
ENDBRANCH   3   4
BRANCH   3   9
HETATM    9  C   UNL     1     -53.590  46.132   9.634  1.00  0.00     0.070 C 
BRANCH   9  10
HETATM   10  C   UNL     1     -53.592  47.625   9.860  1.00  0.00    -0.053 A 
HETATM   11  C   UNL     1     -53.418  48.510   8.788  1.00  0.00     0.043 A 
HETATM   12  C   UNL     1     -53.414  49.883   9.008  1.00  0.00     0.066 A 
HETATM   13  C   UNL     1     -53.580  50.402  10.288  1.00  0.00     0.036 A 
HETATM   14  C   UNL     1     -53.752  49.529  11.362  1.00  0.00     0.003 A 
HETATM   15  C   UNL     1     -53.757  48.148  11.151  1.00  0.00     0.007 A 
BRANCH  12  16
HETATM   16  O   UNL     1     -53.243  50.698   7.928  1.00  0.00    -0.361 OA
HETATM   17  H   UNL     1     -52.494  51.258   7.877  1.00  0.00     0.217 HD
ENDBRANCH  12  16
ENDBRANCH   9  10
ENDBRANCH   3   9
ENDBRANCH   1   3
TORSDOF 7
ENDMDL
MODEL 6
REMARK VINA RESULT:      -6.0      3.337      5.273
REMARK  7 active torsions:
REMARK  status: ('A' for Active; 'I' for Inactive)
REMARK    1  A    between atoms: O_1  and  C_2 
REMARK    2  A    between atoms: C_2  and  C_3 
REMARK    3  A    between atoms: C_2  and  C_8 
REMARK    4  A    between atoms: C_3  and  C_4 
REMARK    5  A    between atoms: C_4  and  C_5 
REMARK    6  A    between atoms: C_8  and  C_9 
REMARK    7  A    between atoms: C_11  and  O_15 
ROOT
HETATM    1  O   UNL     1     -53.364  51.215  11.709  1.00  0.00    -0.395 OA
HETATM    2  H   UNL     1     -52.967  51.339  12.585  1.00  0.00     0.210 HD
ENDROOT
BRANCH   1   3
HETATM    3  C   UNL     1     -53.343  49.827  11.369  1.00  0.00     0.122 C 
BRANCH   3   4
HETATM    4  C   UNL     1     -54.224  49.617  10.134  1.00  0.00     0.042 C 
BRANCH   4   5
HETATM    5  C   UNL     1     -54.977  48.291  10.186  1.00  0.00     0.116 C 
BRANCH   5   6
HETATM    6  C   UNL     1     -54.538  47.398   9.066  1.00  0.00     0.172 C 
HETATM    7  O   UNL     1     -53.512  47.506   8.416  1.00  0.00    -0.648 OA
HETATM    8  O   UNL     1     -55.395  46.385   8.837  1.00  0.00    -0.648 OA
ENDBRANCH   5   6
ENDBRANCH   4   5
ENDBRANCH   3   4
BRANCH   3   9
HETATM    9  C   UNL     1     -53.836  48.964  12.544  1.00  0.00     0.070 C 
BRANCH   9  10
HETATM   10  C   UNL     1     -52.727  48.183  13.209  1.00  0.00    -0.053 A 
HETATM   11  C   UNL     1     -52.136  48.648  14.392  1.00  0.00     0.043 A 
HETATM   12  C   UNL     1     -51.111  47.924  14.992  1.00  0.00     0.066 A 
HETATM   13  C   UNL     1     -50.654  46.735  14.434  1.00  0.00     0.036 A 
HETATM   14  C   UNL     1     -51.234  46.266  13.256  1.00  0.00     0.003 A 
HETATM   15  C   UNL     1     -52.264  46.985  12.645  1.00  0.00     0.007 A 
BRANCH  12  16
HETATM   16  O   UNL     1     -50.574  48.422  16.143  1.00  0.00    -0.361 OA
HETATM   17  H   UNL     1     -49.858  49.024  16.103  1.00  0.00     0.217 HD
ENDBRANCH  12  16
ENDBRANCH   9  10
ENDBRANCH   3   9
ENDBRANCH   1   3
TORSDOF 7
ENDMDL
MODEL 7
REMARK VINA RESULT:      -6.0      1.508      1.738
REMARK  7 active torsions:
REMARK  status: ('A' for Active; 'I' for Inactive)
REMARK    1  A    between atoms: O_1  and  C_2 
REMARK    2  A    between atoms: C_2  and  C_3 
REMARK    3  A    between atoms: C_2  and  C_8 
REMARK    4  A    between atoms: C_3  and  C_4 
REMARK    5  A    between atoms: C_4  and  C_5 
REMARK    6  A    between atoms: C_8  and  C_9 
REMARK    7  A    between atoms: C_11  and  O_15 
ROOT
HETATM    1  O   UNL     1     -55.197  45.319   8.695  1.00  0.00    -0.395 OA
HETATM    2  H   UNL     1     -55.674  45.529   7.877  1.00  0.00     0.210 HD
ENDROOT
BRANCH   1   3
HETATM    3  C   UNL     1     -53.832  45.724   8.567  1.00  0.00     0.122 C 
BRANCH   3   4
HETATM    4  C   UNL     1     -53.015  44.523   8.080  1.00  0.00     0.042 C 
BRANCH   4   5
HETATM    5  C   UNL     1     -51.960  44.928   7.054  1.00  0.00     0.116 C 
BRANCH   5   6
HETATM    6  C   UNL     1     -52.584  45.733   5.955  1.00  0.00     0.172 C 
HETATM    7  O   UNL     1     -53.498  45.379   5.230  1.00  0.00    -0.648 OA
HETATM    8  O   UNL     1     -52.051  46.965   5.841  1.00  0.00    -0.648 OA
ENDBRANCH   5   6
ENDBRANCH   4   5
ENDBRANCH   3   4
BRANCH   3   9
HETATM    9  C   UNL     1     -53.285  46.249   9.906  1.00  0.00     0.070 C 
BRANCH   9  10
HETATM   10  C   UNL     1     -53.393  47.750  10.040  1.00  0.00    -0.053 A 
HETATM   11  C   UNL     1     -53.303  48.575   8.911  1.00  0.00     0.043 A 
HETATM   12  C   UNL     1     -53.398  49.957   9.046  1.00  0.00     0.066 A 
HETATM   13  C   UNL     1     -53.580  50.542  10.295  1.00  0.00     0.036 A 
HETATM   14  C   UNL     1     -53.668  49.729  11.424  1.00  0.00     0.003 A 
HETATM   15  C   UNL     1     -53.575  48.341  11.299  1.00  0.00     0.007 A 
BRANCH  12  16
HETATM   16  O   UNL     1     -53.305  50.712   7.914  1.00  0.00    -0.361 OA
HETATM   17  H   UNL     1     -52.517  50.703   7.408  1.00  0.00     0.217 HD
ENDBRANCH  12  16
ENDBRANCH   9  10
ENDBRANCH   3   9
ENDBRANCH   1   3
TORSDOF 7
ENDMDL
MODEL 8
REMARK VINA RESULT:      -5.8      4.684      6.899
REMARK  7 active torsions:
REMARK  status: ('A' for Active; 'I' for Inactive)
REMARK    1  A    between atoms: O_1  and  C_2 
REMARK    2  A    between atoms: C_2  and  C_3 
REMARK    3  A    between atoms: C_2  and  C_8 
REMARK    4  A    between atoms: C_3  and  C_4 
REMARK    5  A    between atoms: C_4  and  C_5 
REMARK    6  A    between atoms: C_8  and  C_9 
REMARK    7  A    between atoms: C_11  and  O_15 
ROOT
HETATM    1  O   UNL     1     -52.391  46.320  13.903  1.00  0.00    -0.395 OA
HETATM    2  H   UNL     1     -52.657  45.941  13.051  1.00  0.00     0.210 HD
ENDROOT
BRANCH   1   3
HETATM    3  C   UNL     1     -51.939  47.662  13.705  1.00  0.00     0.122 C 
BRANCH   3   4
HETATM    4  C   UNL     1     -51.220  48.122  14.978  1.00  0.00     0.042 C 
BRANCH   4   5
HETATM    5  C   UNL     1     -50.147  47.130  15.418  1.00  0.00     0.116 C 
BRANCH   5   6
HETATM    6  C   UNL     1     -48.850  47.840  15.663  1.00  0.00     0.172 C 
HETATM    7  O   UNL     1     -48.526  48.419  16.686  1.00  0.00    -0.648 OA
HETATM    8  O   UNL     1     -48.003  47.760  14.619  1.00  0.00    -0.648 OA
ENDBRANCH   5   6
ENDBRANCH   4   5
ENDBRANCH   3   4
BRANCH   3   9
HETATM    9  C   UNL     1     -53.116  48.597  13.376  1.00  0.00     0.070 C 
BRANCH   9  10
HETATM   10  C   UNL     1     -53.236  48.895  11.899  1.00  0.00    -0.053 A 
HETATM   11  C   UNL     1     -53.516  50.194  11.454  1.00  0.00     0.043 A 
HETATM   12  C   UNL     1     -53.631  50.456  10.093  1.00  0.00     0.066 A 
HETATM   13  C   UNL     1     -53.474  49.442   9.154  1.00  0.00     0.036 A 
HETATM   14  C   UNL     1     -53.198  48.146   9.588  1.00  0.00     0.003 A 
HETATM   15  C   UNL     1     -53.080  47.872  10.953  1.00  0.00     0.007 A 
BRANCH  12  16
HETATM   16  O   UNL     1     -53.901  51.738   9.716  1.00  0.00    -0.361 OA
HETATM   17  H   UNL     1     -54.774  52.073   9.784  1.00  0.00     0.217 HD
ENDBRANCH  12  16
ENDBRANCH   9  10
ENDBRANCH   3   9
ENDBRANCH   1   3
TORSDOF 7
ENDMDL
MODEL 9
REMARK VINA RESULT:      -5.8      2.118      2.461
REMARK  7 active torsions:
REMARK  status: ('A' for Active; 'I' for Inactive)
REMARK    1  A    between atoms: O_1  and  C_2 
REMARK    2  A    between atoms: C_2  and  C_3 
REMARK    3  A    between atoms: C_2  and  C_8 
REMARK    4  A    between atoms: C_3  and  C_4 
REMARK    5  A    between atoms: C_4  and  C_5 
REMARK    6  A    between atoms: C_8  and  C_9 
REMARK    7  A    between atoms: C_11  and  O_15 
ROOT
HETATM    1  O   UNL     1     -53.733  47.108   6.991  1.00  0.00    -0.395 OA
HETATM    2  H   UNL     1     -53.046  47.491   6.424  1.00  0.00     0.210 HD
ENDROOT
BRANCH   1   3
HETATM    3  C   UNL     1     -53.212  46.915   8.308  1.00  0.00     0.122 C 
BRANCH   3   4
HETATM    4  C   UNL     1     -52.786  45.449   8.449  1.00  0.00     0.042 C 
BRANCH   4   5
HETATM    5  C   UNL     1     -53.693  44.512   7.656  1.00  0.00     0.116 C 
BRANCH   5   6
HETATM    6  C   UNL     1     -54.625  43.786   8.578  1.00  0.00     0.172 C 
HETATM    7  O   UNL     1     -54.335  42.861   9.317  1.00  0.00    -0.648 OA
HETATM    8  O   UNL     1     -55.877  44.282   8.554  1.00  0.00    -0.648 OA
ENDBRANCH   5   6
ENDBRANCH   4   5
ENDBRANCH   3   4
BRANCH   3   9
HETATM    9  C   UNL     1     -54.257  47.284   9.375  1.00  0.00     0.070 C 
BRANCH   9  10
HETATM   10  C   UNL     1     -53.951  48.590  10.072  1.00  0.00    -0.053 A 
HETATM   11  C   UNL     1     -53.954  49.797   9.360  1.00  0.00     0.043 A 
HETATM   12  C   UNL     1     -53.665  50.992  10.010  1.00  0.00     0.066 A 
HETATM   13  C   UNL     1     -53.368  51.013  11.368  1.00  0.00     0.036 A 
HETATM   14  C   UNL     1     -53.360  49.817  12.084  1.00  0.00     0.003 A 
HETATM   15  C   UNL     1     -53.649  48.611  11.441  1.00  0.00     0.007 A 
BRANCH  12  16
HETATM   16  O   UNL     1     -53.685  52.137   9.269  1.00  0.00    -0.361 OA
HETATM   17  H   UNL     1     -52.900  52.636   9.156  1.00  0.00     0.217 HD
ENDBRANCH  12  16
ENDBRANCH   9  10
ENDBRANCH   3   9
ENDBRANCH   1   3
TORSDOF 7
ENDMDL
