MODEL 1
REMARK VINA RESULT:      -7.4      0.000      0.000
REMARK  3 active torsions:
REMARK  status: ('A' for Active; 'I' for Inactive)
REMARK    1  A    between atoms: C_3  and  C_4 
REMARK    2  A    between atoms: C_3  and  C_5 
REMARK    3  A    between atoms: C_5  and  C_10 
ROOT
HETATM    1  O   UNL     1     -54.673  51.499   8.019  1.00  0.00    -0.648 OA
HETATM    2  O   UNL     1     -53.649  52.713   9.644  1.00  0.00    -0.648 OA
HETATM    3  C   UNL     1     -54.182  51.675   9.271  1.00  0.00     0.172 C 
ENDROOT
BRANCH   3   4
HETATM    4  C   UNL     1     -54.392  50.472  10.159  1.00  0.00     0.117 C 
BRANCH   4   5
HETATM    5  C   UNL     1     -53.570  49.268   9.686  1.00  0.00     0.049 C 
BRANCH   5   6
HETATM    6  C   UNL     1     -54.397  48.083   9.320  1.00  0.00    -0.058 A 
HETATM    7  C   UNL     1     -53.814  46.817   9.261  1.00  0.00     0.007 A 
HETATM    8  C   UNL     1     -54.587  45.707   8.919  1.00  0.00     0.001 A 
HETATM    9  C   UNL     1     -55.944  45.865   8.635  1.00  0.00     0.000 A 
HETATM   10  C   UNL     1     -56.527  47.130   8.693  1.00  0.00     0.001 A 
HETATM   11  C   UNL     1     -55.754  48.239   9.036  1.00  0.00     0.007 A 
ENDBRANCH   5   6
ENDBRANCH   4   5
ENDBRANCH   3   4
TORSDOF 3
ENDMDL
MODEL 2
REMARK VINA RESULT:      -7.0      1.985      3.080
REMARK  3 active torsions:
REMARK  status: ('A' for Active; 'I' for Inactive)
REMARK    1  A    between atoms: C_3  and  C_4 
REMARK    2  A    between atoms: C_3  and  C_5 
REMARK    3  A    between atoms: C_5  and  C_10 
ROOT
HETATM    1  O   UNL     1     -53.924  51.306  10.499  1.00  0.00    -0.648 OA
HETATM    2  O   UNL     1     -54.443  51.682   8.319  1.00  0.00    -0.648 OA
HETATM    3  C   UNL     1     -54.426  50.940   9.294  1.00  0.00     0.172 C 
ENDROOT
BRANCH   3   4
HETATM    4  C   UNL     1     -54.930  49.517   9.274  1.00  0.00     0.117 C 
BRANCH   4   5
HETATM    5  C   UNL     1     -54.438  48.725  10.491  1.00  0.00     0.049 C 
BRANCH   5   6
HETATM    6  C   UNL     1     -53.218  47.911  10.225  1.00  0.00    -0.058 A 
HETATM    7  C   UNL     1     -52.700  47.834   8.931  1.00  0.00     0.007 A 
HETATM    8  C   UNL     1     -51.558  47.073   8.681  1.00  0.00     0.001 A 
HETATM    9  C   UNL     1     -50.934  46.388   9.724  1.00  0.00     0.000 A 
HETATM   10  C   UNL     1     -51.452  46.464  11.017  1.00  0.00     0.001 A 
HETATM   11  C   UNL     1     -52.593  47.226  11.267  1.00  0.00     0.007 A 
ENDBRANCH   5   6
ENDBRANCH   4   5
ENDBRANCH   3   4
TORSDOF 3
ENDMDL
MODEL 3
REMARK VINA RESULT:      -6.9      1.328      2.155
REMARK  3 active torsions:
REMARK  status: ('A' for Active; 'I' for Inactive)
REMARK    1  A    between atoms: C_3  and  C_4 
REMARK    2  A    between atoms: C_3  and  C_5 
REMARK    3  A    between atoms: C_5  and  C_10 
ROOT
HETATM    1  O   UNL     1     -53.760  51.171  10.423  1.00  0.00    -0.648 OA
HETATM    2  O   UNL     1     -54.508  51.624   8.326  1.00  0.00    -0.648 OA
HETATM    3  C   UNL     1     -54.447  50.874   9.293  1.00  0.00     0.172 C 
ENDROOT
BRANCH   3   4
HETATM    4  C   UNL     1     -55.099  49.513   9.341  1.00  0.00     0.117 C 
BRANCH   4   5
HETATM    5  C   UNL     1     -54.316  48.542  10.232  1.00  0.00     0.049 C 
BRANCH   5   6
HETATM    6  C   UNL     1     -53.779  47.358   9.503  1.00  0.00    -0.058 A 
HETATM    7  C   UNL     1     -52.449  47.342   9.083  1.00  0.00     0.007 A 
HETATM    8  C   UNL     1     -51.944  46.235   8.400  1.00  0.00     0.001 A 
HETATM    9  C   UNL     1     -52.772  45.143   8.137  1.00  0.00     0.000 A 
HETATM   10  C   UNL     1     -54.102  45.158   8.556  1.00  0.00     0.001 A 
HETATM   11  C   UNL     1     -54.605  46.265   9.240  1.00  0.00     0.007 A 
ENDBRANCH   5   6
ENDBRANCH   4   5
ENDBRANCH   3   4
TORSDOF 3
ENDMDL
MODEL 4
REMARK VINA RESULT:      -6.7      1.509      2.278
REMARK  3 active torsions:
REMARK  status: ('A' for Active; 'I' for Inactive)
REMARK    1  A    between atoms: C_3  and  C_4 
REMARK    2  A    between atoms: C_3  and  C_5 
REMARK    3  A    between atoms: C_5  and  C_10 
ROOT
HETATM    1  O   UNL     1     -53.852  51.288   8.467  1.00  0.00    -0.648 OA
HETATM    2  O   UNL     1     -53.781  51.657  10.708  1.00  0.00    -0.648 OA
HETATM    3  C   UNL     1     -54.158  50.988   9.753  1.00  0.00     0.172 C 
ENDROOT
BRANCH   3   4
HETATM    4  C   UNL     1     -55.034  49.765   9.879  1.00  0.00     0.117 C 
BRANCH   4   5
HETATM    5  C   UNL     1     -54.547  48.624   8.978  1.00  0.00     0.049 C 
BRANCH   5   6
HETATM    6  C   UNL     1     -54.001  47.457   9.729  1.00  0.00    -0.058 A 
HETATM    7  C   UNL     1     -53.091  47.660  10.767  1.00  0.00     0.007 A 
HETATM    8  C   UNL     1     -52.580  46.569  11.471  1.00  0.00     0.001 A 
HETATM    9  C   UNL     1     -52.980  45.275  11.136  1.00  0.00     0.000 A 
HETATM   10  C   UNL     1     -53.889  45.072  10.098  1.00  0.00     0.001 A 
HETATM   11  C   UNL     1     -54.401  46.163   9.396  1.00  0.00     0.007 A 
ENDBRANCH   5   6
ENDBRANCH   4   5
ENDBRANCH   3   4
TORSDOF 3
ENDMDL
MODEL 5
REMARK VINA RESULT:      -6.5      3.515      5.253
REMARK  3 active torsions:
REMARK  status: ('A' for Active; 'I' for Inactive)
REMARK    1  A    between atoms: C_3  and  C_4 
REMARK    2  A    between atoms: C_3  and  C_5 
REMARK    3  A    between atoms: C_5  and  C_10 
ROOT
HETATM    1  O   UNL     1     -53.211  44.789   6.428  1.00  0.00    -0.648 OA
HETATM    2  O   UNL     1     -54.195  42.909   7.240  1.00  0.00    -0.648 OA
HETATM    3  C   UNL     1     -53.822  44.065   7.398  1.00  0.00     0.172 C 
ENDROOT
BRANCH   3   4
HETATM    4  C   UNL     1     -53.964  44.823   8.696  1.00  0.00     0.117 C 
BRANCH   4   5
HETATM    5  C   UNL     1     -55.195  45.737   8.686  1.00  0.00     0.049 C 
BRANCH   5   6
HETATM    6  C   UNL     1     -54.908  47.135   9.116  1.00  0.00    -0.058 A 
HETATM    7  C   UNL     1     -53.650  47.465   9.623  1.00  0.00     0.007 A 
HETATM    8  C   UNL     1     -53.380  48.773  10.026  1.00  0.00     0.001 A 
HETATM    9  C   UNL     1     -54.368  49.752   9.921  1.00  0.00     0.000 A 
HETATM   10  C   UNL     1     -55.626  49.424   9.415  1.00  0.00     0.001 A 
HETATM   11  C   UNL     1     -55.895  48.116   9.012  1.00  0.00     0.007 A 
ENDBRANCH   5   6
ENDBRANCH   4   5
ENDBRANCH   3   4
TORSDOF 3
ENDMDL
MODEL 6
REMARK VINA RESULT:      -6.4      3.877      5.546
REMARK  3 active torsions:
REMARK  status: ('A' for Active; 'I' for Inactive)
REMARK    1  A    between atoms: C_3  and  C_4 
REMARK    2  A    between atoms: C_3  and  C_5 
REMARK    3  A    between atoms: C_5  and  C_10 
ROOT
HETATM    1  O   UNL     1     -53.928  44.459   5.155  1.00  0.00    -0.648 OA
HETATM    2  O   UNL     1     -54.998  43.073   6.603  1.00  0.00    -0.648 OA
HETATM    3  C   UNL     1     -54.117  43.892   6.372  1.00  0.00     0.172 C 
ENDROOT
BRANCH   3   4
HETATM    4  C   UNL     1     -53.109  44.351   7.398  1.00  0.00     0.117 C 
BRANCH   4   5
HETATM    5  C   UNL     1     -53.767  44.629   8.754  1.00  0.00     0.049 C 
BRANCH   5   6
HETATM    6  C   UNL     1     -54.306  46.013   8.886  1.00  0.00    -0.058 A 
HETATM    7  C   UNL     1     -55.667  46.253   8.695  1.00  0.00     0.007 A 
HETATM    8  C   UNL     1     -56.172  47.548   8.819  1.00  0.00     0.001 A 
HETATM    9  C   UNL     1     -55.315  48.602   9.134  1.00  0.00     0.000 A 
HETATM   10  C   UNL     1     -53.954  48.363   9.325  1.00  0.00     0.001 A 
HETATM   11  C   UNL     1     -53.450  47.069   9.202  1.00  0.00     0.007 A 
ENDBRANCH   5   6
ENDBRANCH   4   5
ENDBRANCH   3   4
TORSDOF 3
ENDMDL
MODEL 7
REMARK VINA RESULT:      -6.1      3.437      5.199
REMARK  3 active torsions:
REMARK  status: ('A' for Active; 'I' for Inactive)
REMARK    1  A    between atoms: C_3  and  C_4 
REMARK    2  A    between atoms: C_3  and  C_5 
REMARK    3  A    between atoms: C_5  and  C_10 
ROOT
HETATM    1  O   UNL     1     -53.770  42.984   7.672  1.00  0.00    -0.648 OA
HETATM    2  O   UNL     1     -54.509  44.876   6.654  1.00  0.00    -0.648 OA
HETATM    3  C   UNL     1     -54.102  44.299   7.655  1.00  0.00     0.172 C 
ENDROOT
BRANCH   3   4
HETATM    4  C   UNL     1     -53.947  44.962   9.002  1.00  0.00     0.117 C 
BRANCH   4   5
HETATM    5  C   UNL     1     -53.072  46.218   8.918  1.00  0.00     0.049 C 
BRANCH   5   6
HETATM    6  C   UNL     1     -53.821  47.488   9.140  1.00  0.00    -0.058 A 
HETATM    7  C   UNL     1     -55.213  47.470   9.225  1.00  0.00     0.007 A 
HETATM    8  C   UNL     1     -55.915  48.658   9.433  1.00  0.00     0.001 A 
HETATM    9  C   UNL     1     -55.224  49.863   9.557  1.00  0.00     0.000 A 
HETATM   10  C   UNL     1     -53.831  49.881   9.472  1.00  0.00     0.001 A 
HETATM   11  C   UNL     1     -53.130  48.693   9.265  1.00  0.00     0.007 A 
ENDBRANCH   5   6
ENDBRANCH   4   5
ENDBRANCH   3   4
TORSDOF 3
ENDMDL
MODEL 8
REMARK VINA RESULT:      -5.7      2.894      4.260
REMARK  3 active torsions:
REMARK  status: ('A' for Active; 'I' for Inactive)
REMARK    1  A    between atoms: C_3  and  C_4 
REMARK    2  A    between atoms: C_3  and  C_5 
REMARK    3  A    between atoms: C_5  and  C_10 
ROOT
HETATM    1  O   UNL     1     -54.132  50.526   8.804  1.00  0.00    -0.648 OA
HETATM    2  O   UNL     1     -55.094  48.583   8.127  1.00  0.00    -0.648 OA
HETATM    3  C   UNL     1     -54.473  49.224   8.965  1.00  0.00     0.172 C 
ENDROOT
BRANCH   3   4
HETATM    4  C   UNL     1     -53.979  48.644  10.268  1.00  0.00     0.117 C 
BRANCH   4   5
HETATM    5  C   UNL     1     -53.608  47.163  10.125  1.00  0.00     0.049 C 
BRANCH   5   6
HETATM    6  C   UNL     1     -52.188  46.864  10.470  1.00  0.00    -0.058 A 
HETATM    7  C   UNL     1     -51.794  46.801  11.807  1.00  0.00     0.007 A 
HETATM    8  C   UNL     1     -50.467  46.521  12.131  1.00  0.00     0.001 A 
HETATM    9  C   UNL     1     -49.533  46.304  11.117  1.00  0.00     0.000 A 
HETATM   10  C   UNL     1     -49.926  46.367   9.781  1.00  0.00     0.001 A 
HETATM   11  C   UNL     1     -51.254  46.646   9.457  1.00  0.00     0.007 A 
ENDBRANCH   5   6
ENDBRANCH   4   5
ENDBRANCH   3   4
TORSDOF 3
ENDMDL
MODEL 9
REMARK VINA RESULT:      -5.6      2.121      3.424
REMARK  3 active torsions:
REMARK  status: ('A' for Active; 'I' for Inactive)
REMARK    1  A    between atoms: C_3  and  C_4 
REMARK    2  A    between atoms: C_3  and  C_5 
REMARK    3  A    between atoms: C_5  and  C_10 
ROOT
HETATM    1  O   UNL     1     -54.264  50.020   8.878  1.00  0.00    -0.648 OA
HETATM    2  O   UNL     1     -52.821  48.391   8.226  1.00  0.00    -0.648 OA
HETATM    3  C   UNL     1     -53.800  48.746   8.871  1.00  0.00     0.172 C 
ENDROOT
BRANCH   3   4
HETATM    4  C   UNL     1     -54.597  47.825   9.763  1.00  0.00     0.117 C 
BRANCH   4   5
HETATM    5  C   UNL     1     -55.188  46.648   8.979  1.00  0.00     0.049 C 
BRANCH   5   6
HETATM    6  C   UNL     1     -54.384  45.396   9.078  1.00  0.00    -0.058 A 
HETATM    7  C   UNL     1     -54.001  44.912  10.329  1.00  0.00     0.007 A 
HETATM    8  C   UNL     1     -53.249  43.740  10.424  1.00  0.00     0.001 A 
HETATM    9  C   UNL     1     -52.880  43.054   9.267  1.00  0.00     0.000 A 
HETATM   10  C   UNL     1     -53.263  43.538   8.016  1.00  0.00     0.001 A 
HETATM   11  C   UNL     1     -54.015  44.709   7.922  1.00  0.00     0.007 A 
ENDBRANCH   5   6
ENDBRANCH   4   5
ENDBRANCH   3   4
TORSDOF 3
ENDMDL
