MODEL 1
REMARK VINA RESULT:      -7.4      0.000      0.000
REMARK  3 active torsions:
REMARK  status: ('A' for Active; 'I' for Inactive)
REMARK    1  A    between atoms: C_3  and  C_4 
REMARK    2  A    between atoms: C_3  and  C_5 
REMARK    3  A    between atoms: C_5  and  C_10 
ROOT
HETATM    1  O   UNL     1     -54.705  51.445   8.003  1.00  0.00    -0.648 OA
HETATM    2  O   UNL     1     -53.697  52.709   9.600  1.00  0.00    -0.648 OA
HETATM    3  C   UNL     1     -54.227  51.660   9.254  1.00  0.00     0.172 C 
ENDROOT
BRANCH   3   4
HETATM    4  C   UNL     1     -54.447  50.487  10.178  1.00  0.00     0.117 C 
BRANCH   4   5
HETATM    5  C   UNL     1     -53.623  49.267   9.749  1.00  0.00     0.049 C 
BRANCH   5   6
HETATM    6  C   UNL     1     -54.452  48.094   9.348  1.00  0.00    -0.058 A 
HETATM    7  C   UNL     1     -55.818  48.252   9.116  1.00  0.00     0.007 A 
HETATM    8  C   UNL     1     -56.594  47.156   8.740  1.00  0.00     0.001 A 
HETATM    9  C   UNL     1     -56.003  45.900   8.596  1.00  0.00     0.000 A 
HETATM   10  C   UNL     1     -54.637  45.741   8.828  1.00  0.00     0.001 A 
HETATM   11  C   UNL     1     -53.861  46.839   9.203  1.00  0.00     0.007 A 
ENDBRANCH   5   6
ENDBRANCH   4   5
ENDBRANCH   3   4
TORSDOF 3
ENDMDL
MODEL 2
REMARK VINA RESULT:      -7.0      1.977      3.116
REMARK  3 active torsions:
REMARK  status: ('A' for Active; 'I' for Inactive)
REMARK    1  A    between atoms: C_3  and  C_4 
REMARK    2  A    between atoms: C_3  and  C_5 
REMARK    3  A    between atoms: C_5  and  C_10 
ROOT
HETATM    1  O   UNL     1     -53.934  51.273  10.511  1.00  0.00    -0.648 OA
HETATM    2  O   UNL     1     -54.446  51.663   8.332  1.00  0.00    -0.648 OA
HETATM    3  C   UNL     1     -54.427  50.913   9.300  1.00  0.00     0.172 C 
ENDROOT
BRANCH   3   4
HETATM    4  C   UNL     1     -54.918  49.486   9.266  1.00  0.00     0.117 C 
BRANCH   4   5
HETATM    5  C   UNL     1     -54.437  48.692  10.486  1.00  0.00     0.049 C 
BRANCH   5   6
HETATM    6  C   UNL     1     -53.207  47.888  10.231  1.00  0.00    -0.058 A 
HETATM    7  C   UNL     1     -52.576  47.226  11.285  1.00  0.00     0.007 A 
HETATM    8  C   UNL     1     -51.426  46.473  11.048  1.00  0.00     0.001 A 
HETATM    9  C   UNL     1     -50.906  46.383   9.757  1.00  0.00     0.000 A 
HETATM   10  C   UNL     1     -51.536  47.045   8.703  1.00  0.00     0.001 A 
HETATM   11  C   UNL     1     -52.687  47.796   8.940  1.00  0.00     0.007 A 
ENDBRANCH   5   6
ENDBRANCH   4   5
ENDBRANCH   3   4
TORSDOF 3
ENDMDL
MODEL 3
REMARK VINA RESULT:      -6.9      1.352      2.405
REMARK  3 active torsions:
REMARK  status: ('A' for Active; 'I' for Inactive)
REMARK    1  A    between atoms: C_3  and  C_4 
REMARK    2  A    between atoms: C_3  and  C_5 
REMARK    3  A    between atoms: C_5  and  C_10 
ROOT
HETATM    1  O   UNL     1     -53.766  51.096  10.422  1.00  0.00    -0.648 OA
HETATM    2  O   UNL     1     -54.499  51.608   8.333  1.00  0.00    -0.648 OA
HETATM    3  C   UNL     1     -54.458  50.837   9.285  1.00  0.00     0.172 C 
ENDROOT
BRANCH   3   4
HETATM    4  C   UNL     1     -55.141  49.491   9.304  1.00  0.00     0.117 C 
BRANCH   4   5
HETATM    5  C   UNL     1     -54.414  48.500  10.221  1.00  0.00     0.049 C 
BRANCH   5   6
HETATM    6  C   UNL     1     -53.818  47.341   9.498  1.00  0.00    -0.058 A 
HETATM    7  C   UNL     1     -52.483  47.382   9.094  1.00  0.00     0.007 A 
HETATM    8  C   UNL     1     -51.924  46.297   8.418  1.00  0.00     0.001 A 
HETATM    9  C   UNL     1     -52.701  45.170   8.146  1.00  0.00     0.000 A 
HETATM   10  C   UNL     1     -54.036  45.129   8.549  1.00  0.00     0.001 A 
HETATM   11  C   UNL     1     -54.593  46.214   9.226  1.00  0.00     0.007 A 
ENDBRANCH   5   6
ENDBRANCH   4   5
ENDBRANCH   3   4
TORSDOF 3
ENDMDL
MODEL 4
REMARK VINA RESULT:      -6.8      1.699      2.528
REMARK  3 active torsions:
REMARK  status: ('A' for Active; 'I' for Inactive)
REMARK    1  A    between atoms: C_3  and  C_4 
REMARK    2  A    between atoms: C_3  and  C_5 
REMARK    3  A    between atoms: C_5  and  C_10 
ROOT
HETATM    1  O   UNL     1     -53.862  51.312  10.537  1.00  0.00    -0.648 OA
HETATM    2  O   UNL     1     -54.476  51.590   8.367  1.00  0.00    -0.648 OA
HETATM    3  C   UNL     1     -54.339  50.869   9.348  1.00  0.00     0.172 C 
ENDROOT
BRANCH   3   4
HETATM    4  C   UNL     1     -54.651  49.391   9.352  1.00  0.00     0.117 C 
BRANCH   4   5
HETATM    5  C   UNL     1     -53.405  48.548   9.059  1.00  0.00     0.049 C 
BRANCH   5   6
HETATM    6  C   UNL     1     -53.358  47.264   9.815  1.00  0.00    -0.058 A 
HETATM    7  C   UNL     1     -54.023  46.141   9.324  1.00  0.00     0.007 A 
HETATM    8  C   UNL     1     -53.979  44.939  10.030  1.00  0.00     0.001 A 
HETATM    9  C   UNL     1     -53.270  44.860  11.229  1.00  0.00     0.000 A 
HETATM   10  C   UNL     1     -52.605  45.983  11.721  1.00  0.00     0.001 A 
HETATM   11  C   UNL     1     -52.648  47.184  11.014  1.00  0.00     0.007 A 
ENDBRANCH   5   6
ENDBRANCH   4   5
ENDBRANCH   3   4
TORSDOF 3
ENDMDL
MODEL 5
REMARK VINA RESULT:      -6.5      3.464      5.406
REMARK  3 active torsions:
REMARK  status: ('A' for Active; 'I' for Inactive)
REMARK    1  A    between atoms: C_3  and  C_4 
REMARK    2  A    between atoms: C_3  and  C_5 
REMARK    3  A    between atoms: C_5  and  C_10 
ROOT
HETATM    1  O   UNL     1     -53.044  44.829   6.537  1.00  0.00    -0.648 OA
HETATM    2  O   UNL     1     -54.239  43.004   7.173  1.00  0.00    -0.648 OA
HETATM    3  C   UNL     1     -53.800  44.123   7.413  1.00  0.00     0.172 C 
ENDROOT
BRANCH   3   4
HETATM    4  C   UNL     1     -54.014  44.845   8.721  1.00  0.00     0.117 C 
BRANCH   4   5
HETATM    5  C   UNL     1     -55.222  45.786   8.658  1.00  0.00     0.049 C 
BRANCH   5   6
HETATM    6  C   UNL     1     -54.928  47.174   9.117  1.00  0.00    -0.058 A 
HETATM    7  C   UNL     1     -53.646  47.505   9.559  1.00  0.00     0.007 A 
HETATM    8  C   UNL     1     -53.369  48.803   9.988  1.00  0.00     0.001 A 
HETATM    9  C   UNL     1     -54.374  49.770   9.975  1.00  0.00     0.000 A 
HETATM   10  C   UNL     1     -55.656  49.440   9.534  1.00  0.00     0.001 A 
HETATM   11  C   UNL     1     -55.932  48.142   9.104  1.00  0.00     0.007 A 
ENDBRANCH   5   6
ENDBRANCH   4   5
ENDBRANCH   3   4
TORSDOF 3
ENDMDL
MODEL 6
REMARK VINA RESULT:      -6.5      3.534      5.233
REMARK  3 active torsions:
REMARK  status: ('A' for Active; 'I' for Inactive)
REMARK    1  A    between atoms: C_3  and  C_4 
REMARK    2  A    between atoms: C_3  and  C_5 
REMARK    3  A    between atoms: C_5  and  C_10 
ROOT
HETATM    1  O   UNL     1     -54.072  42.815   7.380  1.00  0.00    -0.648 OA
HETATM    2  O   UNL     1     -53.253  44.680   6.373  1.00  0.00    -0.648 OA
HETATM    3  C   UNL     1     -53.708  44.121   7.364  1.00  0.00     0.172 C 
ENDROOT
BRANCH   3   4
HETATM    4  C   UNL     1     -53.954  44.816   8.681  1.00  0.00     0.117 C 
BRANCH   4   5
HETATM    5  C   UNL     1     -55.176  45.740   8.615  1.00  0.00     0.049 C 
BRANCH   5   6
HETATM    6  C   UNL     1     -54.907  47.125   9.097  1.00  0.00    -0.058 A 
HETATM    7  C   UNL     1     -55.925  48.080   9.076  1.00  0.00     0.007 A 
HETATM    8  C   UNL     1     -55.675  49.376   9.527  1.00  0.00     0.001 A 
HETATM    9  C   UNL     1     -54.407  49.717  10.000  1.00  0.00     0.000 A 
HETATM   10  C   UNL     1     -53.390  48.763  10.021  1.00  0.00     0.001 A 
HETATM   11  C   UNL     1     -53.641  47.467   9.570  1.00  0.00     0.007 A 
ENDBRANCH   5   6
ENDBRANCH   4   5
ENDBRANCH   3   4
TORSDOF 3
ENDMDL
MODEL 7
REMARK VINA RESULT:      -6.4      3.835      5.415
REMARK  3 active torsions:
REMARK  status: ('A' for Active; 'I' for Inactive)
REMARK    1  A    between atoms: C_3  and  C_4 
REMARK    2  A    between atoms: C_3  and  C_5 
REMARK    3  A    between atoms: C_5  and  C_10 
ROOT
HETATM    1  O   UNL     1     -53.901  44.489   5.227  1.00  0.00    -0.648 OA
HETATM    2  O   UNL     1     -54.930  43.034   6.638  1.00  0.00    -0.648 OA
HETATM    3  C   UNL     1     -54.081  43.893   6.432  1.00  0.00     0.172 C 
ENDROOT
BRANCH   3   4
HETATM    4  C   UNL     1     -53.106  44.377   7.479  1.00  0.00     0.117 C 
BRANCH   4   5
HETATM    5  C   UNL     1     -53.804  44.664   8.813  1.00  0.00     0.049 C 
BRANCH   5   6
HETATM    6  C   UNL     1     -54.332  46.053   8.928  1.00  0.00    -0.058 A 
HETATM    7  C   UNL     1     -55.695  46.298   8.757  1.00  0.00     0.007 A 
HETATM    8  C   UNL     1     -56.190  47.598   8.864  1.00  0.00     0.001 A 
HETATM    9  C   UNL     1     -55.321  48.653   9.142  1.00  0.00     0.000 A 
HETATM   10  C   UNL     1     -53.959  48.410   9.313  1.00  0.00     0.001 A 
HETATM   11  C   UNL     1     -53.465  47.109   9.207  1.00  0.00     0.007 A 
ENDBRANCH   5   6
ENDBRANCH   4   5
ENDBRANCH   3   4
TORSDOF 3
ENDMDL
MODEL 8
REMARK VINA RESULT:      -6.0      3.857      5.709
REMARK  3 active torsions:
REMARK  status: ('A' for Active; 'I' for Inactive)
REMARK    1  A    between atoms: C_3  and  C_4 
REMARK    2  A    between atoms: C_3  and  C_5 
REMARK    3  A    between atoms: C_5  and  C_10 
ROOT
HETATM    1  O   UNL     1     -54.479  44.688   4.972  1.00  0.00    -0.648 OA
HETATM    2  O   UNL     1     -55.456  43.170   6.353  1.00  0.00    -0.648 OA
HETATM    3  C   UNL     1     -54.519  43.912   6.083  1.00  0.00     0.172 C 
ENDROOT
BRANCH   3   4
HETATM    4  C   UNL     1     -53.275  44.034   6.931  1.00  0.00     0.117 C 
BRANCH   4   5
HETATM    5  C   UNL     1     -53.616  44.301   8.401  1.00  0.00     0.049 C 
BRANCH   5   6
HETATM    6  C   UNL     1     -53.832  45.743   8.715  1.00  0.00    -0.058 A 
HETATM    7  C   UNL     1     -52.740  46.605   8.820  1.00  0.00     0.007 A 
HETATM    8  C   UNL     1     -52.940  47.954   9.113  1.00  0.00     0.001 A 
HETATM    9  C   UNL     1     -54.234  48.441   9.302  1.00  0.00     0.000 A 
HETATM   10  C   UNL     1     -55.326  47.580   9.197  1.00  0.00     0.001 A 
HETATM   11  C   UNL     1     -55.125  46.231   8.903  1.00  0.00     0.007 A 
ENDBRANCH   5   6
ENDBRANCH   4   5
ENDBRANCH   3   4
TORSDOF 3
ENDMDL
MODEL 9
REMARK VINA RESULT:      -5.9      3.660      4.995
REMARK  3 active torsions:
REMARK  status: ('A' for Active; 'I' for Inactive)
REMARK    1  A    between atoms: C_3  and  C_4 
REMARK    2  A    between atoms: C_3  and  C_5 
REMARK    3  A    between atoms: C_5  and  C_10 
ROOT
HETATM    1  O   UNL     1     -52.555  48.475   8.181  1.00  0.00    -0.648 OA
HETATM    2  O   UNL     1     -54.815  48.646   8.330  1.00  0.00    -0.648 OA
HETATM    3  C   UNL     1     -53.724  48.492   8.867  1.00  0.00     0.172 C 
ENDROOT
BRANCH   3   4
HETATM    4  C   UNL     1     -53.541  48.271  10.349  1.00  0.00     0.117 C 
BRANCH   4   5
HETATM    5  C   UNL     1     -53.132  46.826  10.659  1.00  0.00     0.049 C 
BRANCH   5   6
HETATM    6  C   UNL     1     -51.774  46.703  11.261  1.00  0.00    -0.058 A 
HETATM    7  C   UNL     1     -50.684  46.361  10.459  1.00  0.00     0.007 A 
HETATM    8  C   UNL     1     -49.412  46.246  11.021  1.00  0.00     0.001 A 
HETATM    9  C   UNL     1     -49.230  46.474  12.385  1.00  0.00     0.000 A 
HETATM   10  C   UNL     1     -50.319  46.816  13.187  1.00  0.00     0.001 A 
HETATM   11  C   UNL     1     -51.590  46.932  12.624  1.00  0.00     0.007 A 
ENDBRANCH   5   6
ENDBRANCH   4   5
ENDBRANCH   3   4
TORSDOF 3
ENDMDL
