MODEL 1
REMARK VINA RESULT:     -17.6      0.000      0.000
REMARK  3 active torsions:
REMARK  status: ('A' for Active; 'I' for Inactive)
REMARK    1  A    between atoms: C_3  and  C_4 
REMARK    2  A    between atoms: C_3  and  C_5 
REMARK    3  A    between atoms: C_5  and  C_10 
ROOT
HETATM    1  O   UNL     1     -55.322  47.545   8.538  1.00  0.00    -0.648 OA
HETATM    2  O   UNL     1     -54.055  47.448   6.655  1.00  0.00    -0.648 OA
HETATM    3  C   UNL     1     -54.243  47.877   7.787  1.00  0.00     0.172 C 
ENDROOT
BRANCH   3   4
HETATM    4  C   UNL     1     -53.321  48.852   8.480  1.00  0.00     0.117 C 
BRANCH   4   5
HETATM    5  C   UNL     1     -54.103  49.966   9.185  1.00  0.00     0.049 C 
BRANCH   5   6
HETATM    6  C   UNL     1     -53.852  50.037  10.653  1.00  0.00    -0.058 A 
HETATM    7  C   UNL     1     -53.917  51.265  11.313  1.00  0.00     0.007 A 
HETATM    8  C   UNL     1     -53.684  51.332  12.687  1.00  0.00     0.001 A 
HETATM    9  C   UNL     1     -53.385  50.171  13.401  1.00  0.00     0.000 A 
HETATM   10  C   UNL     1     -53.320  48.944  12.742  1.00  0.00     0.001 A 
HETATM   11  C   UNL     1     -53.555  48.877  11.369  1.00  0.00     0.007 A 
ENDBRANCH   5   6
ENDBRANCH   4   5
ENDBRANCH   3   4
TORSDOF 3
ENDMDL
MODEL 2
REMARK VINA RESULT:     -17.5      3.772      5.356
REMARK  3 active torsions:
REMARK  status: ('A' for Active; 'I' for Inactive)
REMARK    1  A    between atoms: C_3  and  C_4 
REMARK    2  A    between atoms: C_3  and  C_5 
REMARK    3  A    between atoms: C_5  and  C_10 
ROOT
HETATM    1  O   UNL     1     -54.153  49.025  15.904  1.00  0.00    -0.648 OA
HETATM    2  O   UNL     1     -51.889  48.865  15.806  1.00  0.00    -0.648 OA
HETATM    3  C   UNL     1     -52.974  48.936  15.241  1.00  0.00     0.172 C 
ENDROOT
BRANCH   3   4
HETATM    4  C   UNL     1     -53.143  48.900  13.741  1.00  0.00     0.117 C 
BRANCH   4   5
HETATM    5  C   UNL     1     -53.486  50.284  13.177  1.00  0.00     0.049 C 
BRANCH   5   6
HETATM    6  C   UNL     1     -53.680  50.298  11.699  1.00  0.00    -0.058 A 
HETATM    7  C   UNL     1     -53.690  49.099  10.986  1.00  0.00     0.007 A 
HETATM    8  C   UNL     1     -53.872  49.111   9.603  1.00  0.00     0.001 A 
HETATM    9  C   UNL     1     -54.044  50.323   8.933  1.00  0.00     0.000 A 
HETATM   10  C   UNL     1     -54.033  51.522   9.646  1.00  0.00     0.001 A 
HETATM   11  C   UNL     1     -53.853  51.509  11.029  1.00  0.00     0.007 A 
ENDBRANCH   5   6
ENDBRANCH   4   5
ENDBRANCH   3   4
TORSDOF 3
ENDMDL
MODEL 3
REMARK VINA RESULT:     -17.5      3.773      5.183
REMARK  3 active torsions:
REMARK  status: ('A' for Active; 'I' for Inactive)
REMARK    1  A    between atoms: C_3  and  C_4 
REMARK    2  A    between atoms: C_3  and  C_5 
REMARK    3  A    between atoms: C_5  and  C_10 
ROOT
HETATM    1  O   UNL     1     -54.035  48.940  15.874  1.00  0.00    -0.648 OA
HETATM    2  O   UNL     1     -51.770  48.785  15.952  1.00  0.00    -0.648 OA
HETATM    3  C   UNL     1     -52.805  48.894  15.306  1.00  0.00     0.172 C 
ENDROOT
BRANCH   3   4
HETATM    4  C   UNL     1     -52.851  48.957  13.798  1.00  0.00     0.117 C 
BRANCH   4   5
HETATM    5  C   UNL     1     -53.689  50.142  13.306  1.00  0.00     0.049 C 
BRANCH   5   6
HETATM    6  C   UNL     1     -53.768  50.246  11.821  1.00  0.00    -0.058 A 
HETATM    7  C   UNL     1     -53.845  51.499  11.212  1.00  0.00     0.007 A 
HETATM    8  C   UNL     1     -53.919  51.597   9.823  1.00  0.00     0.001 A 
HETATM    9  C   UNL     1     -53.916  50.441   9.042  1.00  0.00     0.000 A 
HETATM   10  C   UNL     1     -53.840  49.188   9.649  1.00  0.00     0.001 A 
HETATM   11  C   UNL     1     -53.765  49.091  11.039  1.00  0.00     0.007 A 
ENDBRANCH   5   6
ENDBRANCH   4   5
ENDBRANCH   3   4
TORSDOF 3
ENDMDL
MODEL 4
REMARK VINA RESULT:     -17.5      1.103      1.393
REMARK  3 active torsions:
REMARK  status: ('A' for Active; 'I' for Inactive)
REMARK    1  A    between atoms: C_3  and  C_4 
REMARK    2  A    between atoms: C_3  and  C_5 
REMARK    3  A    between atoms: C_5  and  C_10 
ROOT
HETATM    1  O   UNL     1     -52.961  49.067   8.097  1.00  0.00    -0.648 OA
HETATM    2  O   UNL     1     -54.690  47.707   7.529  1.00  0.00    -0.648 OA
HETATM    3  C   UNL     1     -54.220  48.585   8.243  1.00  0.00     0.172 C 
ENDROOT
BRANCH   3   4
HETATM    4  C   UNL     1     -54.963  49.219   9.393  1.00  0.00     0.117 C 
BRANCH   4   5
HETATM    5  C   UNL     1     -54.116  50.289  10.093  1.00  0.00     0.049 C 
BRANCH   5   6
HETATM    6  C   UNL     1     -53.716  49.923  11.482  1.00  0.00    -0.058 A 
HETATM    7  C   UNL     1     -53.753  50.882  12.494  1.00  0.00     0.007 A 
HETATM    8  C   UNL     1     -53.379  50.541  13.794  1.00  0.00     0.001 A 
HETATM    9  C   UNL     1     -52.967  49.239  14.081  1.00  0.00     0.000 A 
HETATM   10  C   UNL     1     -52.930  48.279  13.070  1.00  0.00     0.001 A 
HETATM   11  C   UNL     1     -53.305  48.621  11.771  1.00  0.00     0.007 A 
ENDBRANCH   5   6
ENDBRANCH   4   5
ENDBRANCH   3   4
TORSDOF 3
ENDMDL
MODEL 5
REMARK VINA RESULT:     -17.4      0.118      1.461
REMARK  3 active torsions:
REMARK  status: ('A' for Active; 'I' for Inactive)
REMARK    1  A    between atoms: C_3  and  C_4 
REMARK    2  A    between atoms: C_3  and  C_5 
REMARK    3  A    between atoms: C_5  and  C_10 
ROOT
HETATM    1  O   UNL     1     -55.310  47.348   8.515  1.00  0.00    -0.648 OA
HETATM    2  O   UNL     1     -54.054  47.463   6.625  1.00  0.00    -0.648 OA
HETATM    3  C   UNL     1     -54.263  47.803   7.783  1.00  0.00     0.172 C 
ENDROOT
BRANCH   3   4
HETATM    4  C   UNL     1     -53.406  48.793   8.535  1.00  0.00     0.117 C 
BRANCH   4   5
HETATM    5  C   UNL     1     -54.257  49.850   9.249  1.00  0.00     0.049 C 
BRANCH   5   6
HETATM    6  C   UNL     1     -53.938  49.998  10.698  1.00  0.00    -0.058 A 
HETATM    7  C   UNL     1     -53.599  48.876  11.455  1.00  0.00     0.007 A 
HETATM    8  C   UNL     1     -53.300  49.012  12.811  1.00  0.00     0.001 A 
HETATM    9  C   UNL     1     -53.341  50.272  13.410  1.00  0.00     0.000 A 
HETATM   10  C   UNL     1     -53.680  51.394  12.653  1.00  0.00     0.001 A 
HETATM   11  C   UNL     1     -53.977  51.256  11.298  1.00  0.00     0.007 A 
ENDBRANCH   5   6
ENDBRANCH   4   5
ENDBRANCH   3   4
TORSDOF 3
ENDMDL
MODEL 6
REMARK VINA RESULT:     -17.4      1.012      1.372
REMARK  3 active torsions:
REMARK  status: ('A' for Active; 'I' for Inactive)
REMARK    1  A    between atoms: C_3  and  C_4 
REMARK    2  A    between atoms: C_3  and  C_5 
REMARK    3  A    between atoms: C_5  and  C_10 
ROOT
HETATM    1  O   UNL     1     -54.411  47.885   7.460  1.00  0.00    -0.648 OA
HETATM    2  O   UNL     1     -55.675  46.367   8.583  1.00  0.00    -0.648 OA
HETATM    3  C   UNL     1     -55.148  47.472   8.520  1.00  0.00     0.172 C 
ENDROOT
BRANCH   3   4
HETATM    4  C   UNL     1     -55.222  48.501   9.622  1.00  0.00     0.117 C 
BRANCH   4   5
HETATM    5  C   UNL     1     -53.857  49.147   9.886  1.00  0.00     0.049 C 
BRANCH   5   6
HETATM    6  C   UNL     1     -53.639  49.528  11.310  1.00  0.00    -0.058 A 
HETATM    7  C   UNL     1     -53.812  50.853  11.712  1.00  0.00     0.007 A 
HETATM    8  C   UNL     1     -53.609  51.211  13.045  1.00  0.00     0.001 A 
HETATM    9  C   UNL     1     -53.232  50.243  13.976  1.00  0.00     0.000 A 
HETATM   10  C   UNL     1     -53.058  48.918  13.575  1.00  0.00     0.001 A 
HETATM   11  C   UNL     1     -53.262  48.561  12.243  1.00  0.00     0.007 A 
ENDBRANCH   5   6
ENDBRANCH   4   5
ENDBRANCH   3   4
TORSDOF 3
ENDMDL
MODEL 7
REMARK VINA RESULT:     -17.4      1.156      2.023
REMARK  3 active torsions:
REMARK  status: ('A' for Active; 'I' for Inactive)
REMARK    1  A    between atoms: C_3  and  C_4 
REMARK    2  A    between atoms: C_3  and  C_5 
REMARK    3  A    between atoms: C_5  and  C_10 
ROOT
HETATM    1  O   UNL     1     -54.811  47.758   7.716  1.00  0.00    -0.648 OA
HETATM    2  O   UNL     1     -53.007  49.085   8.099  1.00  0.00    -0.648 OA
HETATM    3  C   UNL     1     -54.128  48.701   8.411  1.00  0.00     0.172 C 
ENDROOT
BRANCH   3   4
HETATM    4  C   UNL     1     -54.905  49.246   9.584  1.00  0.00     0.117 C 
BRANCH   4   5
HETATM    5  C   UNL     1     -54.109  50.312  10.346  1.00  0.00     0.049 C 
BRANCH   5   6
HETATM    6  C   UNL     1     -53.681  49.882  11.708  1.00  0.00    -0.058 A 
HETATM    7  C   UNL     1     -53.244  48.574  11.922  1.00  0.00     0.007 A 
HETATM    8  C   UNL     1     -52.843  48.171  13.196  1.00  0.00     0.001 A 
HETATM    9  C   UNL     1     -52.880  49.077  14.256  1.00  0.00     0.000 A 
HETATM   10  C   UNL     1     -53.317  50.384  14.043  1.00  0.00     0.001 A 
HETATM   11  C   UNL     1     -53.717  50.787  12.769  1.00  0.00     0.007 A 
ENDBRANCH   5   6
ENDBRANCH   4   5
ENDBRANCH   3   4
TORSDOF 3
ENDMDL
MODEL 8
REMARK VINA RESULT:     -17.2      1.165      2.024
REMARK  3 active torsions:
REMARK  status: ('A' for Active; 'I' for Inactive)
REMARK    1  A    between atoms: C_3  and  C_4 
REMARK    2  A    between atoms: C_3  and  C_5 
REMARK    3  A    between atoms: C_5  and  C_10 
ROOT
HETATM    1  O   UNL     1     -53.489  46.899   8.931  1.00  0.00    -0.648 OA
HETATM    2  O   UNL     1     -55.672  46.285   8.792  1.00  0.00    -0.648 OA
HETATM    3  C   UNL     1     -54.821  47.138   9.012  1.00  0.00     0.172 C 
ENDROOT
BRANCH   3   4
HETATM    4  C   UNL     1     -55.141  48.553   9.431  1.00  0.00     0.117 C 
BRANCH   4   5
HETATM    5  C   UNL     1     -53.869  49.357   9.727  1.00  0.00     0.049 C 
BRANCH   5   6
HETATM    6  C   UNL     1     -53.665  49.644  11.175  1.00  0.00    -0.058 A 
HETATM    7  C   UNL     1     -53.302  48.615  12.046  1.00  0.00     0.007 A 
HETATM    8  C   UNL     1     -53.110  48.883  13.402  1.00  0.00     0.001 A 
HETATM    9  C   UNL     1     -53.281  50.180  13.887  1.00  0.00     0.000 A 
HETATM   10  C   UNL     1     -53.643  51.209  13.017  1.00  0.00     0.001 A 
HETATM   11  C   UNL     1     -53.834  50.940  11.662  1.00  0.00     0.007 A 
ENDBRANCH   5   6
ENDBRANCH   4   5
ENDBRANCH   3   4
TORSDOF 3
ENDMDL
MODEL 9
REMARK VINA RESULT:     -17.1      1.144      1.190
REMARK  3 active torsions:
REMARK  status: ('A' for Active; 'I' for Inactive)
REMARK    1  A    between atoms: C_3  and  C_4 
REMARK    2  A    between atoms: C_3  and  C_5 
REMARK    3  A    between atoms: C_5  and  C_10 
ROOT
HETATM    1  O   UNL     1     -54.862  45.734   9.369  1.00  0.00    -0.648 OA
HETATM    2  O   UNL     1     -54.486  47.003   7.522  1.00  0.00    -0.648 OA
HETATM    3  C   UNL     1     -54.783  46.915   8.707  1.00  0.00     0.172 C 
ENDROOT
BRANCH   3   4
HETATM    4  C   UNL     1     -55.131  48.100   9.576  1.00  0.00     0.117 C 
BRANCH   4   5
HETATM    5  C   UNL     1     -53.945  49.060   9.725  1.00  0.00     0.049 C 
BRANCH   5   6
HETATM    6  C   UNL     1     -53.726  49.530  11.123  1.00  0.00    -0.058 A 
HETATM    7  C   UNL     1     -53.871  50.882  11.434  1.00  0.00     0.007 A 
HETATM    8  C   UNL     1     -53.667  51.324  12.742  1.00  0.00     0.001 A 
HETATM    9  C   UNL     1     -53.318  50.412  13.738  1.00  0.00     0.000 A 
HETATM   10  C   UNL     1     -53.173  49.060  13.428  1.00  0.00     0.001 A 
HETATM   11  C   UNL     1     -53.378  48.619  12.120  1.00  0.00     0.007 A 
ENDBRANCH   5   6
ENDBRANCH   4   5
ENDBRANCH   3   4
TORSDOF 3
ENDMDL
