MODEL 1
REMARK VINA RESULT:      -7.4      0.000      0.000
REMARK  3 active torsions:
REMARK  status: ('A' for Active; 'I' for Inactive)
REMARK    1  A    between atoms: C_3  and  C_4 
REMARK    2  A    between atoms: C_3  and  C_5 
REMARK    3  A    between atoms: C_5  and  C_10 
ROOT
HETATM    1  O   UNL     1     -54.696  51.497   7.996  1.00  0.00    -0.648 OA
HETATM    2  O   UNL     1     -53.704  52.724   9.631  1.00  0.00    -0.648 OA
HETATM    3  C   UNL     1     -54.211  51.676   9.250  1.00  0.00     0.172 C 
ENDROOT
BRANCH   3   4
HETATM    4  C   UNL     1     -54.394  50.463  10.130  1.00  0.00     0.117 C 
BRANCH   4   5
HETATM    5  C   UNL     1     -53.594  49.262   9.611  1.00  0.00     0.049 C 
BRANCH   5   6
HETATM    6  C   UNL     1     -54.438  48.081   9.272  1.00  0.00    -0.058 A 
HETATM    7  C   UNL     1     -55.803  48.243   9.037  1.00  0.00     0.007 A 
HETATM    8  C   UNL     1     -56.594  47.139   8.718  1.00  0.00     0.001 A 
HETATM    9  C   UNL     1     -56.018  45.871   8.635  1.00  0.00     0.000 A 
HETATM   10  C   UNL     1     -54.653  45.707   8.869  1.00  0.00     0.001 A 
HETATM   11  C   UNL     1     -53.863  46.812   9.187  1.00  0.00     0.007 A 
ENDBRANCH   5   6
ENDBRANCH   4   5
ENDBRANCH   3   4
TORSDOF 3
ENDMDL
MODEL 2
REMARK VINA RESULT:      -7.0      2.005      3.038
REMARK  3 active torsions:
REMARK  status: ('A' for Active; 'I' for Inactive)
REMARK    1  A    between atoms: C_3  and  C_4 
REMARK    2  A    between atoms: C_3  and  C_5 
REMARK    3  A    between atoms: C_5  and  C_10 
ROOT
HETATM    1  O   UNL     1     -53.913  51.302  10.498  1.00  0.00    -0.648 OA
HETATM    2  O   UNL     1     -54.451  51.700   8.327  1.00  0.00    -0.648 OA
HETATM    3  C   UNL     1     -54.422  50.947   9.292  1.00  0.00     0.172 C 
ENDROOT
BRANCH   3   4
HETATM    4  C   UNL     1     -54.917  49.521   9.259  1.00  0.00     0.117 C 
BRANCH   4   5
HETATM    5  C   UNL     1     -54.431  48.724  10.475  1.00  0.00     0.049 C 
BRANCH   5   6
HETATM    6  C   UNL     1     -53.206  47.916  10.212  1.00  0.00    -0.058 A 
HETATM    7  C   UNL     1     -52.695  47.826   8.917  1.00  0.00     0.007 A 
HETATM    8  C   UNL     1     -51.549  47.070   8.669  1.00  0.00     0.001 A 
HETATM    9  C   UNL     1     -50.914  46.404   9.718  1.00  0.00     0.000 A 
HETATM   10  C   UNL     1     -51.425  46.493  11.013  1.00  0.00     0.001 A 
HETATM   11  C   UNL     1     -52.570  47.250  11.259  1.00  0.00     0.007 A 
ENDBRANCH   5   6
ENDBRANCH   4   5
ENDBRANCH   3   4
TORSDOF 3
ENDMDL
MODEL 3
REMARK VINA RESULT:      -6.9      1.341      2.171
REMARK  3 active torsions:
REMARK  status: ('A' for Active; 'I' for Inactive)
REMARK    1  A    between atoms: C_3  and  C_4 
REMARK    2  A    between atoms: C_3  and  C_5 
REMARK    3  A    between atoms: C_5  and  C_10 
ROOT
HETATM    1  O   UNL     1     -53.704  51.200  10.404  1.00  0.00    -0.648 OA
HETATM    2  O   UNL     1     -54.493  51.583   8.309  1.00  0.00    -0.648 OA
HETATM    3  C   UNL     1     -54.420  50.869   9.301  1.00  0.00     0.172 C 
ENDROOT
BRANCH   3   4
HETATM    4  C   UNL     1     -55.085  49.518   9.415  1.00  0.00     0.117 C 
BRANCH   4   5
HETATM    5  C   UNL     1     -54.268  48.556  10.285  1.00  0.00     0.049 C 
BRANCH   5   6
HETATM    6  C   UNL     1     -53.752  47.369   9.544  1.00  0.00    -0.058 A 
HETATM    7  C   UNL     1     -54.617  46.327   9.209  1.00  0.00     0.007 A 
HETATM    8  C   UNL     1     -54.136  45.216   8.515  1.00  0.00     0.001 A 
HETATM    9  C   UNL     1     -52.789  45.147   8.158  1.00  0.00     0.000 A 
HETATM   10  C   UNL     1     -51.924  46.189   8.493  1.00  0.00     0.001 A 
HETATM   11  C   UNL     1     -52.406  47.300   9.185  1.00  0.00     0.007 A 
ENDBRANCH   5   6
ENDBRANCH   4   5
ENDBRANCH   3   4
TORSDOF 3
ENDMDL
MODEL 4
REMARK VINA RESULT:      -6.6      1.487      2.298
REMARK  3 active torsions:
REMARK  status: ('A' for Active; 'I' for Inactive)
REMARK    1  A    between atoms: C_3  and  C_4 
REMARK    2  A    between atoms: C_3  and  C_5 
REMARK    3  A    between atoms: C_5  and  C_10 
ROOT
HETATM    1  O   UNL     1     -54.392  51.558   8.408  1.00  0.00    -0.648 OA
HETATM    2  O   UNL     1     -53.831  51.624  10.609  1.00  0.00    -0.648 OA
HETATM    3  C   UNL     1     -54.182  50.990   9.621  1.00  0.00     0.172 C 
ENDROOT
BRANCH   3   4
HETATM    4  C   UNL     1     -54.459  49.506   9.631  1.00  0.00     0.117 C 
BRANCH   4   5
HETATM    5  C   UNL     1     -53.169  48.690   9.769  1.00  0.00     0.049 C 
BRANCH   5   6
HETATM    6  C   UNL     1     -53.400  47.243  10.043  1.00  0.00    -0.058 A 
HETATM    7  C   UNL     1     -52.771  46.629  11.127  1.00  0.00     0.007 A 
HETATM    8  C   UNL     1     -52.988  45.275  11.385  1.00  0.00     0.001 A 
HETATM    9  C   UNL     1     -53.833  44.535  10.558  1.00  0.00     0.000 A 
HETATM   10  C   UNL     1     -54.462  45.148   9.474  1.00  0.00     0.001 A 
HETATM   11  C   UNL     1     -54.246  46.502   9.218  1.00  0.00     0.007 A 
ENDBRANCH   5   6
ENDBRANCH   4   5
ENDBRANCH   3   4
TORSDOF 3
ENDMDL
MODEL 5
REMARK VINA RESULT:      -6.5      3.455      5.328
REMARK  3 active torsions:
REMARK  status: ('A' for Active; 'I' for Inactive)
REMARK    1  A    between atoms: C_3  and  C_4 
REMARK    2  A    between atoms: C_3  and  C_5 
REMARK    3  A    between atoms: C_5  and  C_10 
ROOT
HETATM    1  O   UNL     1     -54.104  43.012   7.466  1.00  0.00    -0.648 OA
HETATM    2  O   UNL     1     -53.023  44.872   6.736  1.00  0.00    -0.648 OA
HETATM    3  C   UNL     1     -53.646  44.280   7.609  1.00  0.00     0.172 C 
ENDROOT
BRANCH   3   4
HETATM    4  C   UNL     1     -54.013  44.891   8.940  1.00  0.00     0.117 C 
BRANCH   4   5
HETATM    5  C   UNL     1     -55.223  45.825   8.820  1.00  0.00     0.049 C 
BRANCH   5   6
HETATM    6  C   UNL     1     -54.909  47.254   9.110  1.00  0.00    -0.058 A 
HETATM    7  C   UNL     1     -53.582  47.659   9.261  1.00  0.00     0.007 A 
HETATM    8  C   UNL     1     -53.287  48.996   9.531  1.00  0.00     0.001 A 
HETATM    9  C   UNL     1     -54.319  49.927   9.651  1.00  0.00     0.000 A 
HETATM   10  C   UNL     1     -55.645  49.522   9.500  1.00  0.00     0.001 A 
HETATM   11  C   UNL     1     -55.939  48.186   9.228  1.00  0.00     0.007 A 
ENDBRANCH   5   6
ENDBRANCH   4   5
ENDBRANCH   3   4
TORSDOF 3
ENDMDL
MODEL 6
REMARK VINA RESULT:      -6.4      3.858      5.448
REMARK  3 active torsions:
REMARK  status: ('A' for Active; 'I' for Inactive)
REMARK    1  A    between atoms: C_3  and  C_4 
REMARK    2  A    between atoms: C_3  and  C_5 
REMARK    3  A    between atoms: C_5  and  C_10 
ROOT
HETATM    1  O   UNL     1     -54.047  44.469   5.211  1.00  0.00    -0.648 OA
HETATM    2  O   UNL     1     -54.858  42.898   6.639  1.00  0.00    -0.648 OA
HETATM    3  C   UNL     1     -54.107  43.839   6.410  1.00  0.00     0.172 C 
ENDROOT
BRANCH   3   4
HETATM    4  C   UNL     1     -53.132  44.399   7.418  1.00  0.00     0.117 C 
BRANCH   4   5
HETATM    5  C   UNL     1     -53.805  44.667   8.769  1.00  0.00     0.049 C 
BRANCH   5   6
HETATM    6  C   UNL     1     -54.345  46.050   8.906  1.00  0.00    -0.058 A 
HETATM    7  C   UNL     1     -55.711  46.284   8.747  1.00  0.00     0.007 A 
HETATM    8  C   UNL     1     -56.218  47.577   8.875  1.00  0.00     0.001 A 
HETATM    9  C   UNL     1     -55.357  48.637   9.162  1.00  0.00     0.000 A 
HETATM   10  C   UNL     1     -53.991  48.405   9.320  1.00  0.00     0.001 A 
HETATM   11  C   UNL     1     -53.486  47.111   9.193  1.00  0.00     0.007 A 
ENDBRANCH   5   6
ENDBRANCH   4   5
ENDBRANCH   3   4
TORSDOF 3
ENDMDL
MODEL 7
REMARK VINA RESULT:      -6.4      3.844      5.600
REMARK  3 active torsions:
REMARK  status: ('A' for Active; 'I' for Inactive)
REMARK    1  A    between atoms: C_3  and  C_4 
REMARK    2  A    between atoms: C_3  and  C_5 
REMARK    3  A    between atoms: C_5  and  C_10 
ROOT
HETATM    1  O   UNL     1     -54.391  44.518   5.226  1.00  0.00    -0.648 OA
HETATM    2  O   UNL     1     -54.910  42.766   6.576  1.00  0.00    -0.648 OA
HETATM    3  C   UNL     1     -54.260  43.781   6.356  1.00  0.00     0.172 C 
ENDROOT
BRANCH   3   4
HETATM    4  C   UNL     1     -53.211  44.325   7.295  1.00  0.00     0.117 C 
BRANCH   4   5
HETATM    5  C   UNL     1     -53.785  44.600   8.690  1.00  0.00     0.049 C 
BRANCH   5   6
HETATM    6  C   UNL     1     -54.310  45.984   8.860  1.00  0.00    -0.058 A 
HETATM    7  C   UNL     1     -53.439  47.026   9.181  1.00  0.00     0.007 A 
HETATM    8  C   UNL     1     -53.930  48.323   9.341  1.00  0.00     0.001 A 
HETATM    9  C   UNL     1     -55.292  48.577   9.180  1.00  0.00     0.000 A 
HETATM   10  C   UNL     1     -56.163  47.536   8.859  1.00  0.00     0.001 A 
HETATM   11  C   UNL     1     -55.672  46.240   8.699  1.00  0.00     0.007 A 
ENDBRANCH   5   6
ENDBRANCH   4   5
ENDBRANCH   3   4
TORSDOF 3
ENDMDL
MODEL 8
REMARK VINA RESULT:      -6.2      3.790      5.357
REMARK  3 active torsions:
REMARK  status: ('A' for Active; 'I' for Inactive)
REMARK    1  A    between atoms: C_3  and  C_4 
REMARK    2  A    between atoms: C_3  and  C_5 
REMARK    3  A    between atoms: C_5  and  C_10 
ROOT
HETATM    1  O   UNL     1     -54.290  42.864   7.093  1.00  0.00    -0.648 OA
HETATM    2  O   UNL     1     -53.694  44.470   5.601  1.00  0.00    -0.648 OA
HETATM    3  C   UNL     1     -53.604  43.971   6.716  1.00  0.00     0.172 C 
ENDROOT
BRANCH   3   4
HETATM    4  C   UNL     1     -52.748  44.538   7.823  1.00  0.00     0.117 C 
BRANCH   4   5
HETATM    5  C   UNL     1     -53.578  44.870   9.068  1.00  0.00     0.049 C 
BRANCH   5   6
HETATM    6  C   UNL     1     -54.156  46.244   9.055  1.00  0.00    -0.058 A 
HETATM    7  C   UNL     1     -55.521  46.425   8.829  1.00  0.00     0.007 A 
HETATM    8  C   UNL     1     -56.063  47.710   8.817  1.00  0.00     0.001 A 
HETATM    9  C   UNL     1     -55.239  48.815   9.031  1.00  0.00     0.000 A 
HETATM   10  C   UNL     1     -53.874  48.636   9.257  1.00  0.00     0.001 A 
HETATM   11  C   UNL     1     -53.334  47.350   9.270  1.00  0.00     0.007 A 
ENDBRANCH   5   6
ENDBRANCH   4   5
ENDBRANCH   3   4
TORSDOF 3
ENDMDL
MODEL 9
REMARK VINA RESULT:      -5.8      3.704      5.139
REMARK  3 active torsions:
REMARK  status: ('A' for Active; 'I' for Inactive)
REMARK    1  A    between atoms: C_3  and  C_4 
REMARK    2  A    between atoms: C_3  and  C_5 
REMARK    3  A    between atoms: C_5  and  C_10 
ROOT
HETATM    1  O   UNL     1     -52.598  44.265   6.966  1.00  0.00    -0.648 OA
HETATM    2  O   UNL     1     -54.814  43.763   6.954  1.00  0.00    -0.648 OA
HETATM    3  C   UNL     1     -53.839  44.250   7.513  1.00  0.00     0.172 C 
ENDROOT
BRANCH   3   4
HETATM    4  C   UNL     1     -53.881  44.866   8.891  1.00  0.00     0.117 C 
BRANCH   4   5
HETATM    5  C   UNL     1     -53.023  46.134   8.971  1.00  0.00     0.049 C 
BRANCH   5   6
HETATM    6  C   UNL     1     -53.815  47.383   9.162  1.00  0.00    -0.058 A 
HETATM    7  C   UNL     1     -55.209  47.327   9.189  1.00  0.00     0.007 A 
HETATM    8  C   UNL     1     -55.951  48.495   9.368  1.00  0.00     0.001 A 
HETATM    9  C   UNL     1     -55.298  49.719   9.520  1.00  0.00     0.000 A 
HETATM   10  C   UNL     1     -53.905  49.775   9.493  1.00  0.00     0.001 A 
HETATM   11  C   UNL     1     -53.164  48.607   9.315  1.00  0.00     0.007 A 
ENDBRANCH   5   6
ENDBRANCH   4   5
ENDBRANCH   3   4
TORSDOF 3
ENDMDL
