MODEL 1
REMARK VINA RESULT:     -17.6      0.000      0.000
REMARK  3 active torsions:
REMARK  status: ('A' for Active; 'I' for Inactive)
REMARK    1  A    between atoms: C_3  and  C_4 
REMARK    2  A    between atoms: C_3  and  C_5 
REMARK    3  A    between atoms: C_5  and  C_10 
ROOT
HETATM    1  O   UNL     1     -54.047  47.474   6.727  1.00  0.00    -0.648 OA
HETATM    2  O   UNL     1     -55.402  47.472   8.550  1.00  0.00    -0.648 OA
HETATM    3  C   UNL     1     -54.415  47.897   7.961  1.00  0.00     0.172 C 
ENDROOT
BRANCH   3   4
HETATM    4  C   UNL     1     -53.466  48.918   8.541  1.00  0.00     0.117 C 
BRANCH   4   5
HETATM    5  C   UNL     1     -54.213  50.007   9.320  1.00  0.00     0.049 C 
BRANCH   5   6
HETATM    6  C   UNL     1     -53.897  50.026  10.777  1.00  0.00    -0.058 A 
HETATM    7  C   UNL     1     -53.571  48.840  11.436  1.00  0.00     0.007 A 
HETATM    8  C   UNL     1     -53.275  48.857  12.799  1.00  0.00     0.001 A 
HETATM    9  C   UNL     1     -53.304  50.061  13.503  1.00  0.00     0.000 A 
HETATM   10  C   UNL     1     -53.629  51.247  12.845  1.00  0.00     0.001 A 
HETATM   11  C   UNL     1     -53.925  51.229  11.482  1.00  0.00     0.007 A 
ENDBRANCH   5   6
ENDBRANCH   4   5
ENDBRANCH   3   4
TORSDOF 3
ENDMDL
MODEL 2
REMARK VINA RESULT:     -17.6      3.801      5.239
REMARK  3 active torsions:
REMARK  status: ('A' for Active; 'I' for Inactive)
REMARK    1  A    between atoms: C_3  and  C_4 
REMARK    2  A    between atoms: C_3  and  C_5 
REMARK    3  A    between atoms: C_5  and  C_10 
ROOT
HETATM    1  O   UNL     1     -54.070  48.825  16.034  1.00  0.00    -0.648 OA
HETATM    2  O   UNL     1     -51.800  48.775  15.949  1.00  0.00    -0.648 OA
HETATM    3  C   UNL     1     -52.883  48.811  15.378  1.00  0.00     0.172 C 
ENDROOT
BRANCH   3   4
HETATM    4  C   UNL     1     -53.041  48.811  13.876  1.00  0.00     0.117 C 
BRANCH   4   5
HETATM    5  C   UNL     1     -53.467  50.187  13.352  1.00  0.00     0.049 C 
BRANCH   5   6
HETATM    6  C   UNL     1     -53.662  50.231  11.874  1.00  0.00    -0.058 A 
HETATM    7  C   UNL     1     -53.675  49.047  11.136  1.00  0.00     0.007 A 
HETATM    8  C   UNL     1     -53.858  49.087   9.754  1.00  0.00     0.001 A 
HETATM    9  C   UNL     1     -54.029  50.312   9.109  1.00  0.00     0.000 A 
HETATM   10  C   UNL     1     -54.016  51.497   9.846  1.00  0.00     0.001 A 
HETATM   11  C   UNL     1     -53.834  51.455  11.228  1.00  0.00     0.007 A 
ENDBRANCH   5   6
ENDBRANCH   4   5
ENDBRANCH   3   4
TORSDOF 3
ENDMDL
MODEL 3
REMARK VINA RESULT:     -17.5      3.794      5.439
REMARK  3 active torsions:
REMARK  status: ('A' for Active; 'I' for Inactive)
REMARK    1  A    between atoms: C_3  and  C_4 
REMARK    2  A    between atoms: C_3  and  C_5 
REMARK    3  A    between atoms: C_5  and  C_10 
ROOT
HETATM    1  O   UNL     1     -54.032  48.981  15.986  1.00  0.00    -0.648 OA
HETATM    2  O   UNL     1     -51.790  48.611  16.006  1.00  0.00    -0.648 OA
HETATM    3  C   UNL     1     -52.830  48.795  15.385  1.00  0.00     0.172 C 
ENDROOT
BRANCH   3   4
HETATM    4  C   UNL     1     -52.918  48.805  13.878  1.00  0.00     0.117 C 
BRANCH   4   5
HETATM    5  C   UNL     1     -53.492  50.126  13.353  1.00  0.00     0.049 C 
BRANCH   5   6
HETATM    6  C   UNL     1     -53.687  50.151  11.876  1.00  0.00    -0.058 A 
HETATM    7  C   UNL     1     -53.872  51.366  11.216  1.00  0.00     0.007 A 
HETATM    8  C   UNL     1     -54.055  51.390   9.834  1.00  0.00     0.001 A 
HETATM    9  C   UNL     1     -54.052  50.198   9.110  1.00  0.00     0.000 A 
HETATM   10  C   UNL     1     -53.868  48.982   9.768  1.00  0.00     0.001 A 
HETATM   11  C   UNL     1     -53.684  48.959  11.151  1.00  0.00     0.007 A 
ENDBRANCH   5   6
ENDBRANCH   4   5
ENDBRANCH   3   4
TORSDOF 3
ENDMDL
MODEL 4
REMARK VINA RESULT:     -17.5      1.127      1.974
REMARK  3 active torsions:
REMARK  status: ('A' for Active; 'I' for Inactive)
REMARK    1  A    between atoms: C_3  and  C_4 
REMARK    2  A    between atoms: C_3  and  C_5 
REMARK    3  A    between atoms: C_5  and  C_10 
ROOT
HETATM    1  O   UNL     1     -53.035  49.129   8.256  1.00  0.00    -0.648 OA
HETATM    2  O   UNL     1     -54.813  47.819   7.724  1.00  0.00    -0.648 OA
HETATM    3  C   UNL     1     -54.300  48.677   8.432  1.00  0.00     0.172 C 
ENDROOT
BRANCH   3   4
HETATM    4  C   UNL     1     -54.995  49.317   9.610  1.00  0.00     0.117 C 
BRANCH   4   5
HETATM    5  C   UNL     1     -54.083  50.317  10.330  1.00  0.00     0.049 C 
BRANCH   5   6
HETATM    6  C   UNL     1     -53.668  49.877  11.693  1.00  0.00    -0.058 A 
HETATM    7  C   UNL     1     -53.694  50.781  12.756  1.00  0.00     0.007 A 
HETATM    8  C   UNL     1     -53.306  50.371  14.032  1.00  0.00     0.001 A 
HETATM    9  C   UNL     1     -52.893  49.055  14.245  1.00  0.00     0.000 A 
HETATM   10  C   UNL     1     -52.867  48.151  13.183  1.00  0.00     0.001 A 
HETATM   11  C   UNL     1     -53.255  48.562  11.908  1.00  0.00     0.007 A 
ENDBRANCH   5   6
ENDBRANCH   4   5
ENDBRANCH   3   4
TORSDOF 3
ENDMDL
MODEL 5
REMARK VINA RESULT:     -17.4      0.089      1.459
REMARK  3 active torsions:
REMARK  status: ('A' for Active; 'I' for Inactive)
REMARK    1  A    between atoms: C_3  and  C_4 
REMARK    2  A    between atoms: C_3  and  C_5 
REMARK    3  A    between atoms: C_5  and  C_10 
ROOT
HETATM    1  O   UNL     1     -54.041  47.469   6.731  1.00  0.00    -0.648 OA
HETATM    2  O   UNL     1     -55.376  47.365   8.566  1.00  0.00    -0.648 OA
HETATM    3  C   UNL     1     -54.425  47.858   7.972  1.00  0.00     0.172 C 
ENDROOT
BRANCH   3   4
HETATM    4  C   UNL     1     -53.540  48.936   8.550  1.00  0.00     0.117 C 
BRANCH   4   5
HETATM    5  C   UNL     1     -54.343  49.940   9.386  1.00  0.00     0.049 C 
BRANCH   5   6
HETATM    6  C   UNL     1     -53.959  49.964  10.826  1.00  0.00    -0.058 A 
HETATM    7  C   UNL     1     -53.926  51.175  11.519  1.00  0.00     0.007 A 
HETATM    8  C   UNL     1     -53.568  51.199  12.867  1.00  0.00     0.001 A 
HETATM    9  C   UNL     1     -53.242  50.012  13.522  1.00  0.00     0.000 A 
HETATM   10  C   UNL     1     -53.274  48.801  12.830  1.00  0.00     0.001 A 
HETATM   11  C   UNL     1     -53.634  48.778  11.483  1.00  0.00     0.007 A 
ENDBRANCH   5   6
ENDBRANCH   4   5
ENDBRANCH   3   4
TORSDOF 3
ENDMDL
MODEL 6
REMARK VINA RESULT:     -17.3      1.114      1.485
REMARK  3 active torsions:
REMARK  status: ('A' for Active; 'I' for Inactive)
REMARK    1  A    between atoms: C_3  and  C_4 
REMARK    2  A    between atoms: C_3  and  C_5 
REMARK    3  A    between atoms: C_5  and  C_10 
ROOT
HETATM    1  O   UNL     1     -54.795  47.711   7.740  1.00  0.00    -0.648 OA
HETATM    2  O   UNL     1     -53.006  49.058   8.127  1.00  0.00    -0.648 OA
HETATM    3  C   UNL     1     -54.118  48.653   8.443  1.00  0.00     0.172 C 
ENDROOT
BRANCH   3   4
HETATM    4  C   UNL     1     -54.892  49.168   9.633  1.00  0.00     0.117 C 
BRANCH   4   5
HETATM    5  C   UNL     1     -54.114  50.251  10.389  1.00  0.00     0.049 C 
BRANCH   5   6
HETATM    6  C   UNL     1     -53.676  49.834  11.752  1.00  0.00    -0.058 A 
HETATM    7  C   UNL     1     -53.230  48.531  11.972  1.00  0.00     0.007 A 
HETATM    8  C   UNL     1     -52.819  48.140  13.247  1.00  0.00     0.001 A 
HETATM    9  C   UNL     1     -52.855  49.053  14.301  1.00  0.00     0.000 A 
HETATM   10  C   UNL     1     -53.302  50.356  14.081  1.00  0.00     0.001 A 
HETATM   11  C   UNL     1     -53.711  50.746  12.806  1.00  0.00     0.007 A 
ENDBRANCH   5   6
ENDBRANCH   4   5
ENDBRANCH   3   4
TORSDOF 3
ENDMDL
MODEL 7
REMARK VINA RESULT:     -17.2      4.031      5.697
REMARK  3 active torsions:
REMARK  status: ('A' for Active; 'I' for Inactive)
REMARK    1  A    between atoms: C_3  and  C_4 
REMARK    2  A    between atoms: C_3  and  C_5 
REMARK    3  A    between atoms: C_5  and  C_10 
ROOT
HETATM    1  O   UNL     1     -54.151  48.389  16.477  1.00  0.00    -0.648 OA
HETATM    2  O   UNL     1     -52.515  46.839  16.767  1.00  0.00    -0.648 OA
HETATM    3  C   UNL     1     -53.017  47.743  16.110  1.00  0.00     0.172 C 
ENDROOT
BRANCH   3   4
HETATM    4  C   UNL     1     -52.460  48.234  14.795  1.00  0.00     0.117 C 
BRANCH   4   5
HETATM    5  C   UNL     1     -52.952  49.647  14.464  1.00  0.00     0.049 C 
BRANCH   5   6
HETATM    6  C   UNL     1     -53.314  49.835  13.030  1.00  0.00    -0.058 A 
HETATM    7  C   UNL     1     -53.627  51.107  12.551  1.00  0.00     0.007 A 
HETATM    8  C   UNL     1     -53.966  51.285  11.209  1.00  0.00     0.001 A 
HETATM    9  C   UNL     1     -53.992  50.188  10.346  1.00  0.00     0.000 A 
HETATM   10  C   UNL     1     -53.680  48.916  10.825  1.00  0.00     0.001 A 
HETATM   11  C   UNL     1     -53.340  48.740  12.166  1.00  0.00     0.007 A 
ENDBRANCH   5   6
ENDBRANCH   4   5
ENDBRANCH   3   4
TORSDOF 3
ENDMDL
MODEL 8
REMARK VINA RESULT:     -17.1      4.009      5.338
REMARK  3 active torsions:
REMARK  status: ('A' for Active; 'I' for Inactive)
REMARK    1  A    between atoms: C_3  and  C_4 
REMARK    2  A    between atoms: C_3  and  C_5 
REMARK    3  A    between atoms: C_5  and  C_10 
ROOT
HETATM    1  O   UNL     1     -51.825  47.816  16.381  1.00  0.00    -0.648 OA
HETATM    2  O   UNL     1     -54.085  48.043  16.442  1.00  0.00    -0.648 OA
HETATM    3  C   UNL     1     -53.031  48.077  15.818  1.00  0.00     0.172 C 
ENDROOT
BRANCH   3   4
HETATM    4  C   UNL     1     -52.931  48.442  14.357  1.00  0.00     0.117 C 
BRANCH   4   5
HETATM    5  C   UNL     1     -53.267  49.918  14.118  1.00  0.00     0.049 C 
BRANCH   5   6
HETATM    6  C   UNL     1     -53.542  50.247  12.690  1.00  0.00    -0.058 A 
HETATM    7  C   UNL     1     -53.661  49.224  11.749  1.00  0.00     0.007 A 
HETATM    8  C   UNL     1     -53.919  49.530  10.413  1.00  0.00     0.001 A 
HETATM    9  C   UNL     1     -54.059  50.861  10.018  1.00  0.00     0.000 A 
HETATM   10  C   UNL     1     -53.940  51.885  10.958  1.00  0.00     0.001 A 
HETATM   11  C   UNL     1     -53.683  51.577  12.294  1.00  0.00     0.007 A 
ENDBRANCH   5   6
ENDBRANCH   4   5
ENDBRANCH   3   4
TORSDOF 3
ENDMDL
MODEL 9
REMARK VINA RESULT:     -17.0      1.909      2.715
REMARK  3 active torsions:
REMARK  status: ('A' for Active; 'I' for Inactive)
REMARK    1  A    between atoms: C_3  and  C_4 
REMARK    2  A    between atoms: C_3  and  C_5 
REMARK    3  A    between atoms: C_5  and  C_10 
ROOT
HETATM    1  O   UNL     1     -54.257  51.632   8.924  1.00  0.00    -0.648 OA
HETATM    2  O   UNL     1     -53.349  49.660   8.253  1.00  0.00    -0.648 OA
HETATM    3  C   UNL     1     -53.948  50.323   9.092  1.00  0.00     0.172 C 
ENDROOT
BRANCH   3   4
HETATM    4  C   UNL     1     -54.390  49.782  10.430  1.00  0.00     0.117 C 
BRANCH   4   5
HETATM    5  C   UNL     1     -53.772  50.568  11.592  1.00  0.00     0.049 C 
BRANCH   5   6
HETATM    6  C   UNL     1     -53.336  49.712  12.732  1.00  0.00    -0.058 A 
HETATM    7  C   UNL     1     -53.025  48.369  12.516  1.00  0.00     0.007 A 
HETATM    8  C   UNL     1     -52.617  47.567  13.582  1.00  0.00     0.001 A 
HETATM    9  C   UNL     1     -52.520  48.108  14.864  1.00  0.00     0.000 A 
HETATM   10  C   UNL     1     -52.831  49.450  15.080  1.00  0.00     0.001 A 
HETATM   11  C   UNL     1     -53.238  50.252  14.014  1.00  0.00     0.007 A 
ENDBRANCH   5   6
ENDBRANCH   4   5
ENDBRANCH   3   4
TORSDOF 3
ENDMDL
