MODEL 1
REMARK VINA RESULT:      -7.0      0.000      0.000
REMARK  4 active torsions:
REMARK  status: ('A' for Active; 'I' for Inactive)
REMARK    1  A    between atoms: O_1  and  C_9 
REMARK    2  A    between atoms: O_2  and  C_10 
REMARK    3  A    between atoms: C_3  and  C_5 
REMARK    4  A    between atoms: C_4  and  C_8 
ROOT
HETATM    1  O   UNL     1       5.247  -9.488  58.302  1.00  0.00    -0.358 OA
HETATM    2  H   UNL     1       6.156  -9.343  58.480  1.00  0.00     0.217 HD
ENDROOT
BRANCH   1   3
HETATM    3  C   UNL     1       4.745  -9.220  57.063  1.00  0.00     0.099 A 
HETATM    4  C   UNL     1       3.639  -9.934  56.603  1.00  0.00     0.050 A 
HETATM    5  C   UNL     1       3.132  -9.660  55.343  1.00  0.00    -0.033 A 
HETATM    6  C   UNL     1       3.701  -8.693  54.531  1.00  0.00     0.014 A 
HETATM    7  C   UNL     1       4.808  -7.979  54.991  1.00  0.00     0.040 A 
HETATM    8  C   UNL     1       5.329  -8.243  56.257  1.00  0.00     0.098 A 
BRANCH   5   9
HETATM    9  C   UNL     1       1.963 -10.414  54.856  1.00  0.00     0.012 C 
HETATM   10  C   UNL     1       1.540 -10.453  53.570  1.00  0.00     0.012 C 
BRANCH  10  11
HETATM   11  C   UNL     1       0.397 -11.213  53.087  1.00  0.00    -0.036 A 
HETATM   12  C   UNL     1      -0.865 -11.002  53.640  1.00  0.00     0.011 A 
HETATM   13  C   UNL     1      -1.961 -11.730  53.176  1.00  0.00     0.001 A 
HETATM   14  C   UNL     1      -1.793 -12.669  52.158  1.00  0.00     0.000 A 
HETATM   15  C   UNL     1      -0.530 -12.879  51.604  1.00  0.00     0.001 A 
HETATM   16  C   UNL     1       0.565 -12.151  52.068  1.00  0.00     0.011 A 
ENDBRANCH  10  11
ENDBRANCH   5   9
BRANCH   8  17
HETATM   17  O   UNL     1       6.411  -7.541  56.695  1.00  0.00    -0.358 OA
HETATM   18  H   UNL     1       6.655  -6.741  56.270  1.00  0.00     0.217 HD
ENDBRANCH   8  17
ENDBRANCH   1   3
TORSDOF 4
ENDMDL
MODEL 2
REMARK VINA RESULT:      -6.8      0.843      1.815
REMARK  4 active torsions:
REMARK  status: ('A' for Active; 'I' for Inactive)
REMARK    1  A    between atoms: O_1  and  C_9 
REMARK    2  A    between atoms: O_2  and  C_10 
REMARK    3  A    between atoms: C_3  and  C_5 
REMARK    4  A    between atoms: C_4  and  C_8 
ROOT
HETATM    1  O   UNL     1       5.893  -6.744  54.168  1.00  0.00    -0.358 OA
HETATM    2  H   UNL     1       6.099  -6.808  53.255  1.00  0.00     0.217 HD
ENDROOT
BRANCH   1   3
HETATM    3  C   UNL     1       5.099  -7.682  54.755  1.00  0.00     0.099 A 
HETATM    4  C   UNL     1       4.048  -8.242  54.028  1.00  0.00     0.050 A 
HETATM    5  C   UNL     1       3.242  -9.195  54.628  1.00  0.00    -0.033 A 
HETATM    6  C   UNL     1       3.456  -9.604  55.934  1.00  0.00     0.014 A 
HETATM    7  C   UNL     1       4.507  -9.043  56.661  1.00  0.00     0.040 A 
HETATM    8  C   UNL     1       5.328  -8.083  56.071  1.00  0.00     0.098 A 
BRANCH   5   9
HETATM    9  C   UNL     1       2.132  -9.789  53.861  1.00  0.00     0.012 C 
HETATM   10  C   UNL     1       1.468 -10.920  54.198  1.00  0.00     0.012 C 
BRANCH  10  11
HETATM   11  C   UNL     1       0.359 -11.495  53.450  1.00  0.00    -0.036 A 
HETATM   12  C   UNL     1      -0.954 -11.226  53.833  1.00  0.00     0.011 A 
HETATM   13  C   UNL     1      -2.017 -11.777  53.117  1.00  0.00     0.001 A 
HETATM   14  C   UNL     1      -1.764 -12.597  52.017  1.00  0.00     0.000 A 
HETATM   15  C   UNL     1      -0.451 -12.866  51.633  1.00  0.00     0.001 A 
HETATM   16  C   UNL     1       0.612 -12.314  52.350  1.00  0.00     0.011 A 
ENDBRANCH  10  11
ENDBRANCH   5   9
BRANCH   8  17
HETATM   17  O   UNL     1       6.350  -7.541  56.791  1.00  0.00    -0.358 OA
HETATM   18  H   UNL     1       6.247  -7.393  57.711  1.00  0.00     0.217 HD
ENDBRANCH   8  17
ENDBRANCH   1   3
TORSDOF 4
ENDMDL
MODEL 3
REMARK VINA RESULT:      -6.8      4.597      6.576
REMARK  4 active torsions:
REMARK  status: ('A' for Active; 'I' for Inactive)
REMARK    1  A    between atoms: O_1  and  C_9 
REMARK    2  A    between atoms: O_2  and  C_10 
REMARK    3  A    between atoms: C_3  and  C_5 
REMARK    4  A    between atoms: C_4  and  C_8 
ROOT
HETATM    1  O   UNL     1       4.410  -3.927  51.176  1.00  0.00    -0.358 OA
HETATM    2  H   UNL     1       5.199  -3.703  51.630  1.00  0.00     0.217 HD
ENDROOT
BRANCH   1   3
HETATM    3  C   UNL     1       4.041  -5.234  51.058  1.00  0.00     0.099 A 
HETATM    4  C   UNL     1       4.047  -6.052  52.187  1.00  0.00     0.050 A 
HETATM    5  C   UNL     1       3.671  -7.380  52.063  1.00  0.00    -0.033 A 
HETATM    6  C   UNL     1       3.290  -7.912  50.842  1.00  0.00     0.014 A 
HETATM    7  C   UNL     1       3.284  -7.092  49.712  1.00  0.00     0.040 A 
HETATM    8  C   UNL     1       3.660  -5.754  49.821  1.00  0.00     0.098 A 
BRANCH   5   9
HETATM    9  C   UNL     1       3.677  -8.246  53.255  1.00  0.00     0.012 C 
HETATM   10  C   UNL     1       4.322  -7.974  54.414  1.00  0.00     0.012 C 
BRANCH  10  11
HETATM   11  C   UNL     1       4.311  -8.819  55.599  1.00  0.00    -0.036 A 
HETATM   12  C   UNL     1       5.339  -8.722  56.535  1.00  0.00     0.011 A 
HETATM   13  C   UNL     1       5.328  -9.532  57.671  1.00  0.00     0.001 A 
HETATM   14  C   UNL     1       4.287 -10.439  57.868  1.00  0.00     0.000 A 
HETATM   15  C   UNL     1       3.258 -10.537  56.932  1.00  0.00     0.001 A 
HETATM   16  C   UNL     1       3.269  -9.726  55.797  1.00  0.00     0.011 A 
ENDBRANCH  10  11
ENDBRANCH   5   9
BRANCH   8  17
HETATM   17  O   UNL     1       3.651  -4.964  48.711  1.00  0.00    -0.358 OA
HETATM   18  H   UNL     1       3.153  -4.170  48.704  1.00  0.00     0.217 HD
ENDBRANCH   8  17
ENDBRANCH   1   3
TORSDOF 4
ENDMDL
MODEL 4
REMARK VINA RESULT:      -6.7      2.684      3.672
REMARK  4 active torsions:
REMARK  status: ('A' for Active; 'I' for Inactive)
REMARK    1  A    between atoms: O_1  and  C_9 
REMARK    2  A    between atoms: O_2  and  C_10 
REMARK    3  A    between atoms: C_3  and  C_5 
REMARK    4  A    between atoms: C_4  and  C_8 
ROOT
HETATM    1  O   UNL     1       6.270  -7.622  56.570  1.00  0.00    -0.358 OA
HETATM    2  H   UNL     1       7.143  -7.954  56.490  1.00  0.00     0.217 HD
ENDROOT
BRANCH   1   3
HETATM    3  C   UNL     1       5.206  -8.454  56.397  1.00  0.00     0.099 A 
HETATM    4  C   UNL     1       4.404  -8.316  55.264  1.00  0.00     0.050 A 
HETATM    5  C   UNL     1       3.322  -9.164  55.092  1.00  0.00    -0.033 A 
HETATM    6  C   UNL     1       3.019 -10.146  56.022  1.00  0.00     0.014 A 
HETATM    7  C   UNL     1       3.821 -10.284  57.155  1.00  0.00     0.040 A 
HETATM    8  C   UNL     1       4.914  -9.438  57.342  1.00  0.00     0.098 A 
BRANCH   5   9
HETATM    9  C   UNL     1       2.475  -9.020  53.894  1.00  0.00     0.012 C 
HETATM   10  C   UNL     1       2.397  -7.909  53.124  1.00  0.00     0.012 C 
BRANCH  10  11
HETATM   11  C   UNL     1       1.576  -7.774  51.930  1.00  0.00    -0.036 A 
HETATM   12  C   UNL     1       1.040  -8.906  51.320  1.00  0.00     0.011 A 
HETATM   13  C   UNL     1       0.253  -8.776  50.175  1.00  0.00     0.001 A 
HETATM   14  C   UNL     1       0.003  -7.512  49.642  1.00  0.00     0.000 A 
HETATM   15  C   UNL     1       0.539  -6.378  50.252  1.00  0.00     0.001 A 
HETATM   16  C   UNL     1       1.326  -6.509  51.397  1.00  0.00     0.011 A 
ENDBRANCH  10  11
ENDBRANCH   5   9
BRANCH   8  17
HETATM   17  O   UNL     1       5.688  -9.581  58.454  1.00  0.00    -0.358 OA
HETATM   18  H   UNL     1       6.383  -8.974  58.623  1.00  0.00     0.217 HD
ENDBRANCH   8  17
ENDBRANCH   1   3
TORSDOF 4
ENDMDL
MODEL 5
REMARK VINA RESULT:      -6.7      4.742      6.533
REMARK  4 active torsions:
REMARK  status: ('A' for Active; 'I' for Inactive)
REMARK    1  A    between atoms: O_1  and  C_9 
REMARK    2  A    between atoms: O_2  and  C_10 
REMARK    3  A    between atoms: C_3  and  C_5 
REMARK    4  A    between atoms: C_4  and  C_8 
ROOT
HETATM    1  O   UNL     1       5.151  -3.884  50.262  1.00  0.00    -0.358 OA
HETATM    2  H   UNL     1       5.312  -3.260  49.581  1.00  0.00     0.217 HD
ENDROOT
BRANCH   1   3
HETATM    3  C   UNL     1       4.028  -4.656  50.226  1.00  0.00     0.099 A 
HETATM    4  C   UNL     1       3.853  -5.655  51.183  1.00  0.00     0.050 A 
HETATM    5  C   UNL     1       2.711  -6.438  51.144  1.00  0.00    -0.033 A 
HETATM    6  C   UNL     1       1.740  -6.250  50.174  1.00  0.00     0.014 A 
HETATM    7  C   UNL     1       1.916  -5.250  49.216  1.00  0.00     0.040 A 
HETATM    8  C   UNL     1       3.060  -4.454  49.243  1.00  0.00     0.098 A 
BRANCH   5   9
HETATM    9  C   UNL     1       2.524  -7.494  52.155  1.00  0.00     0.012 C 
HETATM   10  C   UNL     1       3.302  -7.672  53.249  1.00  0.00     0.012 C 
BRANCH  10  11
HETATM   11  C   UNL     1       3.106  -8.702  54.259  1.00  0.00    -0.036 A 
HETATM   12  C   UNL     1       2.160  -9.706  54.056  1.00  0.00     0.011 A 
HETATM   13  C   UNL     1       1.972 -10.693  55.024  1.00  0.00     0.001 A 
HETATM   14  C   UNL     1       2.731 -10.675  56.193  1.00  0.00     0.000 A 
HETATM   15  C   UNL     1       3.678  -9.671  56.396  1.00  0.00     0.001 A 
HETATM   16  C   UNL     1       3.866  -8.684  55.428  1.00  0.00     0.011 A 
ENDBRANCH  10  11
ENDBRANCH   5   9
BRANCH   8  17
HETATM   17  O   UNL     1       3.221  -3.482  48.302  1.00  0.00    -0.358 OA
HETATM   18  H   UNL     1       3.149  -2.579  48.544  1.00  0.00     0.217 HD
ENDBRANCH   8  17
ENDBRANCH   1   3
TORSDOF 4
ENDMDL
MODEL 6
REMARK VINA RESULT:      -6.6      3.722      7.241
REMARK  4 active torsions:
REMARK  status: ('A' for Active; 'I' for Inactive)
REMARK    1  A    between atoms: O_1  and  C_9 
REMARK    2  A    between atoms: O_2  and  C_10 
REMARK    3  A    between atoms: C_3  and  C_5 
REMARK    4  A    between atoms: C_4  and  C_8 
ROOT
HETATM    1  O   UNL     1      -0.639 -13.594  51.403  1.00  0.00    -0.358 OA
HETATM    2  H   UNL     1      -0.015 -14.291  51.467  1.00  0.00     0.217 HD
ENDROOT
BRANCH   1   3
HETATM    3  C   UNL     1      -0.686 -12.632  52.367  1.00  0.00     0.099 A 
HETATM    4  C   UNL     1       0.503 -12.070  52.833  1.00  0.00     0.050 A 
HETATM    5  C   UNL     1       0.451 -11.093  53.814  1.00  0.00    -0.033 A 
HETATM    6  C   UNL     1      -0.755 -10.662  54.341  1.00  0.00     0.014 A 
HETATM    7  C   UNL     1      -1.944 -11.225  53.875  1.00  0.00     0.040 A 
HETATM    8  C   UNL     1      -1.908 -12.209  52.888  1.00  0.00     0.098 A 
BRANCH   5   9
HETATM    9  C   UNL     1       1.706 -10.497  54.306  1.00  0.00     0.012 C 
HETATM   10  C   UNL     1       2.058 -10.385  55.609  1.00  0.00     0.012 C 
BRANCH  10  11
HETATM   11  C   UNL     1       3.306  -9.816  56.095  1.00  0.00    -0.036 A 
HETATM   12  C   UNL     1       3.931  -8.795  55.380  1.00  0.00     0.011 A 
HETATM   13  C   UNL     1       5.128  -8.249  55.846  1.00  0.00     0.001 A 
HETATM   14  C   UNL     1       5.697  -8.725  57.027  1.00  0.00     0.000 A 
HETATM   15  C   UNL     1       5.071  -9.746  57.742  1.00  0.00     0.001 A 
HETATM   16  C   UNL     1       3.875 -10.291  57.276  1.00  0.00     0.011 A 
ENDBRANCH  10  11
ENDBRANCH   5   9
BRANCH   8  17
HETATM   17  O   UNL     1      -3.076 -12.752  52.442  1.00  0.00    -0.358 OA
HETATM   18  H   UNL     1      -3.185 -13.683  52.429  1.00  0.00     0.217 HD
ENDBRANCH   8  17
ENDBRANCH   1   3
TORSDOF 4
ENDMDL
MODEL 7
REMARK VINA RESULT:      -6.6      1.484      2.212
REMARK  4 active torsions:
REMARK  status: ('A' for Active; 'I' for Inactive)
REMARK    1  A    between atoms: O_1  and  C_9 
REMARK    2  A    between atoms: O_2  and  C_10 
REMARK    3  A    between atoms: C_3  and  C_5 
REMARK    4  A    between atoms: C_4  and  C_8 
ROOT
HETATM    1  O   UNL     1       6.208  -7.671  56.469  1.00  0.00    -0.358 OA
HETATM    2  H   UNL     1       7.081  -7.995  56.573  1.00  0.00     0.217 HD
ENDROOT
BRANCH   1   3
HETATM    3  C   UNL     1       5.163  -8.542  56.386  1.00  0.00     0.099 A 
HETATM    4  C   UNL     1       4.341  -8.521  55.260  1.00  0.00     0.050 A 
HETATM    5  C   UNL     1       3.280  -9.408  55.179  1.00  0.00    -0.033 A 
HETATM    6  C   UNL     1       3.017 -10.314  56.193  1.00  0.00     0.014 A 
HETATM    7  C   UNL     1       3.840 -10.335  57.321  1.00  0.00     0.040 A 
HETATM    8  C   UNL     1       4.912  -9.449  57.416  1.00  0.00     0.098 A 
BRANCH   5   9
HETATM    9  C   UNL     1       2.411  -9.388  53.988  1.00  0.00     0.012 C 
HETATM   10  C   UNL     1       1.645 -10.421  53.564  1.00  0.00     0.012 C 
BRANCH  10  11
HETATM   11  C   UNL     1       0.773 -10.394  52.400  1.00  0.00    -0.036 A 
HETATM   12  C   UNL     1      -0.573 -10.733  52.529  1.00  0.00     0.011 A 
HETATM   13  C   UNL     1      -1.410 -10.707  51.412  1.00  0.00     0.001 A 
HETATM   14  C   UNL     1      -0.898 -10.341  50.167  1.00  0.00     0.000 A 
HETATM   15  C   UNL     1       0.448 -10.002  50.038  1.00  0.00     0.001 A 
HETATM   16  C   UNL     1       1.284 -10.028  51.154  1.00  0.00     0.011 A 
ENDBRANCH  10  11
ENDBRANCH   5   9
BRANCH   8  17
HETATM   17  O   UNL     1       5.707  -9.477  58.522  1.00  0.00    -0.358 OA
HETATM   18  H   UNL     1       6.315 -10.180  58.645  1.00  0.00     0.217 HD
ENDBRANCH   8  17
ENDBRANCH   1   3
TORSDOF 4
ENDMDL
MODEL 8
REMARK VINA RESULT:      -6.6      3.253      4.991
REMARK  4 active torsions:
REMARK  status: ('A' for Active; 'I' for Inactive)
REMARK    1  A    between atoms: O_1  and  C_9 
REMARK    2  A    between atoms: O_2  and  C_10 
REMARK    3  A    between atoms: C_3  and  C_5 
REMARK    4  A    between atoms: C_4  and  C_8 
ROOT
HETATM    1  O   UNL     1       5.886  -8.590  57.374  1.00  0.00    -0.358 OA
HETATM    2  H   UNL     1       5.768  -8.054  58.135  1.00  0.00     0.217 HD
ENDROOT
BRANCH   1   3
HETATM    3  C   UNL     1       4.800  -9.064  56.702  1.00  0.00     0.099 A 
HETATM    4  C   UNL     1       4.432  -8.477  55.491  1.00  0.00     0.050 A 
HETATM    5  C   UNL     1       3.327  -8.962  54.811  1.00  0.00    -0.033 A 
HETATM    6  C   UNL     1       2.579 -10.017  55.307  1.00  0.00     0.014 A 
HETATM    7  C   UNL     1       2.947 -10.605  56.518  1.00  0.00     0.040 A 
HETATM    8  C   UNL     1       4.057 -10.128  57.215  1.00  0.00     0.098 A 
BRANCH   5   9
HETATM    9  C   UNL     1       2.938  -8.342  53.531  1.00  0.00     0.012 C 
HETATM   10  C   UNL     1       3.260  -7.085  53.144  1.00  0.00     0.012 C 
BRANCH  10  11
HETATM   11  C   UNL     1       2.893  -6.480  51.872  1.00  0.00    -0.036 A 
HETATM   12  C   UNL     1       3.850  -5.796  51.123  1.00  0.00     0.011 A 
HETATM   13  C   UNL     1       3.498  -5.216  49.904  1.00  0.00     0.001 A 
HETATM   14  C   UNL     1       2.189  -5.323  49.434  1.00  0.00     0.000 A 
HETATM   15  C   UNL     1       1.232  -6.008  50.183  1.00  0.00     0.001 A 
HETATM   16  C   UNL     1       1.584  -6.587  51.402  1.00  0.00     0.011 A 
ENDBRANCH  10  11
ENDBRANCH   5   9
BRANCH   8  17
HETATM   17  O   UNL     1       4.405 -10.708  58.397  1.00  0.00    -0.358 OA
HETATM   18  H   UNL     1       4.549 -10.177  59.156  1.00  0.00     0.217 HD
ENDBRANCH   8  17
ENDBRANCH   1   3
TORSDOF 4
ENDMDL
MODEL 9
REMARK VINA RESULT:      -6.4      3.736      5.473
REMARK  4 active torsions:
REMARK  status: ('A' for Active; 'I' for Inactive)
REMARK    1  A    between atoms: O_1  and  C_9 
REMARK    2  A    between atoms: O_2  and  C_10 
REMARK    3  A    between atoms: C_3  and  C_5 
REMARK    4  A    between atoms: C_4  and  C_8 
ROOT
HETATM    1  O   UNL     1       1.806 -11.490  56.227  1.00  0.00    -0.358 OA
HETATM    2  H   UNL     1       1.629 -11.645  57.135  1.00  0.00     0.217 HD
ENDROOT
BRANCH   1   3
HETATM    3  C   UNL     1       2.624 -10.465  55.858  1.00  0.00     0.099 A 
HETATM    4  C   UNL     1       2.535  -9.949  54.565  1.00  0.00     0.050 A 
HETATM    5  C   UNL     1       3.370  -8.908  54.193  1.00  0.00    -0.033 A 
HETATM    6  C   UNL     1       4.290  -8.369  55.076  1.00  0.00     0.014 A 
HETATM    7  C   UNL     1       4.379  -8.886  56.370  1.00  0.00     0.040 A 
HETATM    8  C   UNL     1       3.546  -9.934  56.759  1.00  0.00     0.098 A 
BRANCH   5   9
HETATM    9  C   UNL     1       3.276  -8.361  52.827  1.00  0.00     0.012 C 
HETATM   10  C   UNL     1       3.749  -7.154  52.436  1.00  0.00     0.012 C 
BRANCH  10  11
HETATM   11  C   UNL     1       3.674  -6.622  51.083  1.00  0.00    -0.036 A 
HETATM   12  C   UNL     1       3.212  -7.426  50.043  1.00  0.00     0.011 A 
HETATM   13  C   UNL     1       3.140  -6.916  48.746  1.00  0.00     0.001 A 
HETATM   14  C   UNL     1       3.530  -5.602  48.492  1.00  0.00     0.000 A 
HETATM   15  C   UNL     1       3.991  -4.796  49.534  1.00  0.00     0.001 A 
HETATM   16  C   UNL     1       4.063  -5.307  50.830  1.00  0.00     0.011 A 
ENDBRANCH  10  11
ENDBRANCH   5   9
BRANCH   8  17
HETATM   17  O   UNL     1       3.643 -10.431  58.024  1.00  0.00    -0.358 OA
HETATM   18  H   UNL     1       3.448  -9.883  58.759  1.00  0.00     0.217 HD
ENDBRANCH   8  17
ENDBRANCH   1   3
TORSDOF 4
ENDMDL
