MODEL 1
REMARK VINA RESULT:      -6.9      0.000      0.000
REMARK  4 active torsions:
REMARK  status: ('A' for Active; 'I' for Inactive)
REMARK    1  A    between atoms: O_1  and  C_9 
REMARK    2  A    between atoms: O_2  and  C_10 
REMARK    3  A    between atoms: C_3  and  C_5 
REMARK    4  A    between atoms: C_4  and  C_8 
ROOT
HETATM    1  O   UNL     1       8.461  -0.087  51.998  1.00  0.00    -0.358 OA
HETATM    2  H   UNL     1       9.291  -0.251  52.400  1.00  0.00     0.217 HD
ENDROOT
BRANCH   1   3
HETATM    3  C   UNL     1       7.368  -0.808  52.376  1.00  0.00     0.099 A 
HETATM    4  C   UNL     1       7.393  -1.511  53.579  1.00  0.00     0.050 A 
HETATM    5  C   UNL     1       6.280  -2.244  53.959  1.00  0.00    -0.033 A 
HETATM    6  C   UNL     1       5.144  -2.292  53.169  1.00  0.00     0.014 A 
HETATM    7  C   UNL     1       5.118  -1.588  51.965  1.00  0.00     0.040 A 
HETATM    8  C   UNL     1       6.231  -0.846  51.569  1.00  0.00     0.098 A 
BRANCH   5   9
HETATM    9  C   UNL     1       6.305  -2.987  55.232  1.00  0.00     0.012 C 
HETATM   10  C   UNL     1       6.786  -2.509  56.405  1.00  0.00     0.012 C 
BRANCH  10  11
HETATM   11  C   UNL     1       6.792  -3.235  57.666  1.00  0.00    -0.036 A 
HETATM   12  C   UNL     1       5.764  -4.128  57.962  1.00  0.00     0.011 A 
HETATM   13  C   UNL     1       5.770  -4.824  59.171  1.00  0.00     0.001 A 
HETATM   14  C   UNL     1       6.807  -4.627  60.083  1.00  0.00     0.000 A 
HETATM   15  C   UNL     1       7.837  -3.734  59.786  1.00  0.00     0.001 A 
HETATM   16  C   UNL     1       7.830  -3.038  58.577  1.00  0.00     0.011 A 
ENDBRANCH  10  11
ENDBRANCH   5   9
BRANCH   8  17
HETATM   17  O   UNL     1       6.195  -0.165  50.389  1.00  0.00    -0.358 OA
HETATM   18  H   UNL     1       6.993   0.122  49.990  1.00  0.00     0.217 HD
ENDBRANCH   8  17
ENDBRANCH   1   3
TORSDOF 4
ENDMDL
MODEL 2
REMARK VINA RESULT:      -6.9      1.163      1.677
REMARK  4 active torsions:
REMARK  status: ('A' for Active; 'I' for Inactive)
REMARK    1  A    between atoms: O_1  and  C_9 
REMARK    2  A    between atoms: O_2  and  C_10 
REMARK    3  A    between atoms: C_3  and  C_5 
REMARK    4  A    between atoms: C_4  and  C_8 
ROOT
HETATM    1  O   UNL     1       5.817   0.962  53.027  1.00  0.00    -0.358 OA
HETATM    2  H   UNL     1       6.446   1.436  53.535  1.00  0.00     0.217 HD
ENDROOT
BRANCH   1   3
HETATM    3  C   UNL     1       5.776  -0.398  53.091  1.00  0.00     0.099 A 
HETATM    4  C   UNL     1       6.183  -1.042  54.259  1.00  0.00     0.050 A 
HETATM    5  C   UNL     1       6.141  -2.426  54.320  1.00  0.00    -0.033 A 
HETATM    6  C   UNL     1       5.703  -3.183  53.246  1.00  0.00     0.014 A 
HETATM    7  C   UNL     1       5.295  -2.538  52.077  1.00  0.00     0.040 A 
HETATM    8  C   UNL     1       5.332  -1.146  52.000  1.00  0.00     0.098 A 
BRANCH   5   9
HETATM    9  C   UNL     1       6.570  -3.107  55.555  1.00  0.00     0.012 C 
HETATM   10  C   UNL     1       6.278  -2.698  56.813  1.00  0.00     0.012 C 
BRANCH  10  11
HETATM   11  C   UNL     1       6.685  -3.382  58.031  1.00  0.00    -0.036 A 
HETATM   12  C   UNL     1       7.905  -3.072  58.631  1.00  0.00     0.011 A 
HETATM   13  C   UNL     1       8.295  -3.727  59.799  1.00  0.00     0.001 A 
HETATM   14  C   UNL     1       7.463  -4.692  60.367  1.00  0.00     0.000 A 
HETATM   15  C   UNL     1       6.242  -5.002  59.768  1.00  0.00     0.001 A 
HETATM   16  C   UNL     1       5.853  -4.346  58.600  1.00  0.00     0.011 A 
ENDBRANCH  10  11
ENDBRANCH   5   9
BRANCH   8  17
HETATM   17  O   UNL     1       4.934  -0.529  50.853  1.00  0.00    -0.358 OA
HETATM   18  H   UNL     1       4.230  -0.887  50.348  1.00  0.00     0.217 HD
ENDBRANCH   8  17
ENDBRANCH   1   3
TORSDOF 4
ENDMDL
MODEL 3
REMARK VINA RESULT:      -6.9      4.341      6.271
REMARK  4 active torsions:
REMARK  status: ('A' for Active; 'I' for Inactive)
REMARK    1  A    between atoms: O_1  and  C_9 
REMARK    2  A    between atoms: O_2  and  C_10 
REMARK    3  A    between atoms: C_3  and  C_5 
REMARK    4  A    between atoms: C_4  and  C_8 
ROOT
HETATM    1  O   UNL     1       8.715  -3.432  59.402  1.00  0.00    -0.358 OA
HETATM    2  H   UNL     1       9.313  -2.765  59.679  1.00  0.00     0.217 HD
ENDROOT
BRANCH   1   3
HETATM    3  C   UNL     1       7.577  -3.092  58.735  1.00  0.00     0.099 A 
HETATM    4  C   UNL     1       6.545  -4.023  58.622  1.00  0.00     0.050 A 
HETATM    5  C   UNL     1       5.389  -3.673  57.943  1.00  0.00    -0.033 A 
HETATM    6  C   UNL     1       5.236  -2.419  57.374  1.00  0.00     0.014 A 
HETATM    7  C   UNL     1       6.269  -1.488  57.488  1.00  0.00     0.040 A 
HETATM    8  C   UNL     1       7.439  -1.825  58.169  1.00  0.00     0.098 A 
BRANCH   5   9
HETATM    9  C   UNL     1       4.297  -4.656  57.823  1.00  0.00     0.012 C 
HETATM   10  C   UNL     1       3.669  -4.988  56.670  1.00  0.00     0.012 C 
BRANCH  10  11
HETATM   11  C   UNL     1       2.604  -5.973  56.549  1.00  0.00    -0.036 A 
HETATM   12  C   UNL     1       2.772  -7.083  55.723  1.00  0.00     0.011 A 
HETATM   13  C   UNL     1       1.752  -8.028  55.607  1.00  0.00     0.001 A 
HETATM   14  C   UNL     1       0.564  -7.860  56.319  1.00  0.00     0.000 A 
HETATM   15  C   UNL     1       0.396  -6.750  57.146  1.00  0.00     0.001 A 
HETATM   16  C   UNL     1       1.417  -5.806  57.262  1.00  0.00     0.011 A 
ENDBRANCH  10  11
ENDBRANCH   5   9
BRANCH   8  17
HETATM   17  O   UNL     1       8.441  -0.907  58.271  1.00  0.00    -0.358 OA
HETATM   18  H   UNL     1       8.380  -0.215  58.900  1.00  0.00     0.217 HD
ENDBRANCH   8  17
ENDBRANCH   1   3
TORSDOF 4
ENDMDL
MODEL 4
REMARK VINA RESULT:      -6.8      0.472      1.290
REMARK  4 active torsions:
REMARK  status: ('A' for Active; 'I' for Inactive)
REMARK    1  A    between atoms: O_1  and  C_9 
REMARK    2  A    between atoms: O_2  and  C_10 
REMARK    3  A    between atoms: C_3  and  C_5 
REMARK    4  A    between atoms: C_4  and  C_8 
ROOT
HETATM    1  O   UNL     1       8.734   0.137  51.613  1.00  0.00    -0.358 OA
HETATM    2  H   UNL     1       9.298  -0.222  50.956  1.00  0.00     0.217 HD
ENDROOT
BRANCH   1   3
HETATM    3  C   UNL     1       7.752  -0.632  52.163  1.00  0.00     0.099 A 
HETATM    4  C   UNL     1       7.975  -1.251  53.392  1.00  0.00     0.050 A 
HETATM    5  C   UNL     1       6.975  -2.033  53.948  1.00  0.00    -0.033 A 
HETATM    6  C   UNL     1       5.760  -2.213  53.308  1.00  0.00     0.014 A 
HETATM    7  C   UNL     1       5.538  -1.594  52.077  1.00  0.00     0.040 A 
HETATM    8  C   UNL     1       6.534  -0.804  51.505  1.00  0.00     0.098 A 
BRANCH   5   9
HETATM    9  C   UNL     1       7.209  -2.687  55.248  1.00  0.00     0.012 C 
HETATM   10  C   UNL     1       6.390  -2.600  56.323  1.00  0.00     0.012 C 
BRANCH  10  11
HETATM   11  C   UNL     1       6.610  -3.261  57.601  1.00  0.00    -0.036 A 
HETATM   12  C   UNL     1       7.760  -2.987  58.339  1.00  0.00     0.011 A 
HETATM   13  C   UNL     1       7.971  -3.621  59.564  1.00  0.00     0.001 A 
HETATM   14  C   UNL     1       7.031  -4.530  60.048  1.00  0.00     0.000 A 
HETATM   15  C   UNL     1       5.880  -4.804  59.310  1.00  0.00     0.001 A 
HETATM   16  C   UNL     1       5.669  -4.170  58.086  1.00  0.00     0.011 A 
ENDBRANCH  10  11
ENDBRANCH   5   9
BRANCH   8  17
HETATM   17  O   UNL     1       6.306  -0.206  50.303  1.00  0.00    -0.358 OA
HETATM   18  H   UNL     1       6.081   0.704  50.267  1.00  0.00     0.217 HD
ENDBRANCH   8  17
ENDBRANCH   1   3
TORSDOF 4
ENDMDL
MODEL 5
REMARK VINA RESULT:      -6.7      0.751      1.677
REMARK  4 active torsions:
REMARK  status: ('A' for Active; 'I' for Inactive)
REMARK    1  A    between atoms: O_1  and  C_9 
REMARK    2  A    between atoms: O_2  and  C_10 
REMARK    3  A    between atoms: C_3  and  C_5 
REMARK    4  A    between atoms: C_4  and  C_8 
ROOT
HETATM    1  O   UNL     1       4.365  -0.955  50.856  1.00  0.00    -0.358 OA
HETATM    2  H   UNL     1       4.494  -0.556  50.018  1.00  0.00     0.217 HD
ENDROOT
BRANCH   1   3
HETATM    3  C   UNL     1       5.419  -1.106  51.707  1.00  0.00     0.099 A 
HETATM    4  C   UNL     1       5.233  -1.776  52.915  1.00  0.00     0.050 A 
HETATM    5  C   UNL     1       6.306  -1.926  53.779  1.00  0.00    -0.033 A 
HETATM    6  C   UNL     1       7.559  -1.424  53.467  1.00  0.00     0.014 A 
HETATM    7  C   UNL     1       7.745  -0.753  52.258  1.00  0.00     0.040 A 
HETATM    8  C   UNL     1       6.674  -0.594  51.379  1.00  0.00     0.098 A 
BRANCH   5   9
HETATM    9  C   UNL     1       6.111  -2.636  55.056  1.00  0.00     0.012 C 
HETATM   10  C   UNL     1       6.977  -2.621  56.097  1.00  0.00     0.012 C 
BRANCH  10  11
HETATM   11  C   UNL     1       6.775  -3.306  57.365  1.00  0.00    -0.036 A 
HETATM   12  C   UNL     1       5.682  -4.153  57.534  1.00  0.00     0.011 A 
HETATM   13  C   UNL     1       5.488  -4.809  58.750  1.00  0.00     0.001 A 
HETATM   14  C   UNL     1       6.390  -4.618  59.796  1.00  0.00     0.000 A 
HETATM   15  C   UNL     1       7.486  -3.770  59.627  1.00  0.00     0.001 A 
HETATM   16  C   UNL     1       7.678  -3.114  58.411  1.00  0.00     0.011 A 
ENDBRANCH  10  11
ENDBRANCH   5   9
BRANCH   8  17
HETATM   17  O   UNL     1       6.867   0.065  50.202  1.00  0.00    -0.358 OA
HETATM   18  H   UNL     1       6.759  -0.388  49.388  1.00  0.00     0.217 HD
ENDBRANCH   8  17
ENDBRANCH   1   3
TORSDOF 4
ENDMDL
MODEL 6
REMARK VINA RESULT:      -6.6      3.310      7.027
REMARK  4 active torsions:
REMARK  status: ('A' for Active; 'I' for Inactive)
REMARK    1  A    between atoms: O_1  and  C_9 
REMARK    2  A    between atoms: O_2  and  C_10 
REMARK    3  A    between atoms: C_3  and  C_5 
REMARK    4  A    between atoms: C_4  and  C_8 
ROOT
HETATM    1  O   UNL     1       8.423  -2.679  59.141  1.00  0.00    -0.358 OA
HETATM    2  H   UNL     1       8.312  -1.852  59.568  1.00  0.00     0.217 HD
ENDROOT
BRANCH   1   3
HETATM    3  C   UNL     1       7.335  -3.362  58.687  1.00  0.00     0.099 A 
HETATM    4  C   UNL     1       6.955  -3.236  57.351  1.00  0.00     0.050 A 
HETATM    5  C   UNL     1       5.848  -3.932  56.893  1.00  0.00    -0.033 A 
HETATM    6  C   UNL     1       5.111  -4.749  57.734  1.00  0.00     0.014 A 
HETATM    7  C   UNL     1       5.491  -4.875  59.071  1.00  0.00     0.040 A 
HETATM    8  C   UNL     1       6.603  -4.181  59.546  1.00  0.00     0.098 A 
BRANCH   5   9
HETATM    9  C   UNL     1       5.446  -3.801  55.481  1.00  0.00     0.012 C 
HETATM   10  C   UNL     1       5.989  -2.934  54.593  1.00  0.00     0.012 C 
BRANCH  10  11
HETATM   11  C   UNL     1       5.606  -2.818  53.194  1.00  0.00    -0.036 A 
HETATM   12  C   UNL     1       5.769  -1.607  52.524  1.00  0.00     0.011 A 
HETATM   13  C   UNL     1       5.402  -1.496  51.182  1.00  0.00     0.001 A 
HETATM   14  C   UNL     1       4.872  -2.598  50.512  1.00  0.00     0.000 A 
HETATM   15  C   UNL     1       4.709  -3.811  51.182  1.00  0.00     0.001 A 
HETATM   16  C   UNL     1       5.077  -3.921  52.523  1.00  0.00     0.011 A 
ENDBRANCH  10  11
ENDBRANCH   5   9
BRANCH   8  17
HETATM   17  O   UNL     1       6.963  -4.310  60.854  1.00  0.00    -0.358 OA
HETATM   18  H   UNL     1       6.310  -4.471  61.506  1.00  0.00     0.217 HD
ENDBRANCH   8  17
ENDBRANCH   1   3
TORSDOF 4
ENDMDL
MODEL 7
REMARK VINA RESULT:      -6.6      3.994      5.939
REMARK  4 active torsions:
REMARK  status: ('A' for Active; 'I' for Inactive)
REMARK    1  A    between atoms: O_1  and  C_9 
REMARK    2  A    between atoms: O_2  and  C_10 
REMARK    3  A    between atoms: C_3  and  C_5 
REMARK    4  A    between atoms: C_4  and  C_8 
ROOT
HETATM    1  O   UNL     1       6.817  -0.542  56.011  1.00  0.00    -0.358 OA
HETATM    2  H   UNL     1       6.787  -0.592  55.075  1.00  0.00     0.217 HD
ENDROOT
BRANCH   1   3
HETATM    3  C   UNL     1       6.687  -1.674  56.757  1.00  0.00     0.099 A 
HETATM    4  C   UNL     1       5.761  -2.645  56.374  1.00  0.00     0.050 A 
HETATM    5  C   UNL     1       5.631  -3.795  57.136  1.00  0.00    -0.033 A 
HETATM    6  C   UNL     1       6.399  -4.001  58.270  1.00  0.00     0.014 A 
HETATM    7  C   UNL     1       7.324  -3.029  58.653  1.00  0.00     0.040 A 
HETATM    8  C   UNL     1       7.468  -1.867  57.897  1.00  0.00     0.098 A 
BRANCH   5   9
HETATM    9  C   UNL     1       4.654  -4.822  56.730  1.00  0.00     0.012 C 
HETATM   10  C   UNL     1       3.431  -4.997  57.285  1.00  0.00     0.012 C 
BRANCH  10  11
HETATM   11  C   UNL     1       2.459  -5.998  56.872  1.00  0.00    -0.036 A 
HETATM   12  C   UNL     1       2.802  -6.950  55.914  1.00  0.00     0.011 A 
HETATM   13  C   UNL     1       1.871  -7.910  55.518  1.00  0.00     0.001 A 
HETATM   14  C   UNL     1       0.595  -7.916  56.081  1.00  0.00     0.000 A 
HETATM   15  C   UNL     1       0.250  -6.963  57.040  1.00  0.00     0.001 A 
HETATM   16  C   UNL     1       1.183  -6.004  57.436  1.00  0.00     0.011 A 
ENDBRANCH  10  11
ENDBRANCH   5   9
BRANCH   8  17
HETATM   17  O   UNL     1       8.373  -0.925  58.282  1.00  0.00    -0.358 OA
HETATM   18  H   UNL     1       8.242  -0.447  59.078  1.00  0.00     0.217 HD
ENDBRANCH   8  17
ENDBRANCH   1   3
TORSDOF 4
ENDMDL
MODEL 8
REMARK VINA RESULT:      -6.6      0.807      2.094
REMARK  4 active torsions:
REMARK  status: ('A' for Active; 'I' for Inactive)
REMARK    1  A    between atoms: O_1  and  C_9 
REMARK    2  A    between atoms: O_2  and  C_10 
REMARK    3  A    between atoms: C_3  and  C_5 
REMARK    4  A    between atoms: C_4  and  C_8 
ROOT
HETATM    1  O   UNL     1       4.371  -1.019  50.738  1.00  0.00    -0.358 OA
HETATM    2  H   UNL     1       4.107  -1.747  50.210  1.00  0.00     0.217 HD
ENDROOT
BRANCH   1   3
HETATM    3  C   UNL     1       5.393  -1.158  51.628  1.00  0.00     0.099 A 
HETATM    4  C   UNL     1       5.184  -1.879  52.804  1.00  0.00     0.050 A 
HETATM    5  C   UNL     1       6.226  -2.017  53.707  1.00  0.00    -0.033 A 
HETATM    6  C   UNL     1       7.468  -1.455  53.468  1.00  0.00     0.014 A 
HETATM    7  C   UNL     1       7.677  -0.733  52.291  1.00  0.00     0.040 A 
HETATM    8  C   UNL     1       6.638  -0.585  51.373  1.00  0.00     0.098 A 
BRANCH   5   9
HETATM    9  C   UNL     1       6.007  -2.780  54.949  1.00  0.00     0.012 C 
HETATM   10  C   UNL     1       6.750  -2.667  56.075  1.00  0.00     0.012 C 
BRANCH  10  11
HETATM   11  C   UNL     1       6.522  -3.406  57.308  1.00  0.00    -0.036 A 
HETATM   12  C   UNL     1       7.393  -3.252  58.385  1.00  0.00     0.011 A 
HETATM   13  C   UNL     1       7.173  -3.960  59.567  1.00  0.00     0.001 A 
HETATM   14  C   UNL     1       6.082  -4.822  59.670  1.00  0.00     0.000 A 
HETATM   15  C   UNL     1       5.211  -4.977  58.592  1.00  0.00     0.001 A 
HETATM   16  C   UNL     1       5.430  -4.269  57.411  1.00  0.00     0.011 A 
ENDBRANCH  10  11
ENDBRANCH   5   9
BRANCH   8  17
HETATM   17  O   UNL     1       6.853   0.123  50.229  1.00  0.00    -0.358 OA
HETATM   18  H   UNL     1       6.135   0.541  49.795  1.00  0.00     0.217 HD
ENDBRANCH   8  17
ENDBRANCH   1   3
TORSDOF 4
ENDMDL
MODEL 9
REMARK VINA RESULT:      -6.5      4.399      6.784
REMARK  4 active torsions:
REMARK  status: ('A' for Active; 'I' for Inactive)
REMARK    1  A    between atoms: O_1  and  C_9 
REMARK    2  A    between atoms: O_2  and  C_10 
REMARK    3  A    between atoms: C_3  and  C_5 
REMARK    4  A    between atoms: C_4  and  C_8 
ROOT
HETATM    1  O   UNL     1       8.435  -2.178  57.278  1.00  0.00    -0.358 OA
HETATM    2  H   UNL     1       8.242  -1.677  56.509  1.00  0.00     0.217 HD
ENDROOT
BRANCH   1   3
HETATM    3  C   UNL     1       7.500  -3.027  57.789  1.00  0.00     0.099 A 
HETATM    4  C   UNL     1       6.466  -3.481  56.971  1.00  0.00     0.050 A 
HETATM    5  C   UNL     1       5.516  -4.343  57.495  1.00  0.00    -0.033 A 
HETATM    6  C   UNL     1       5.572  -4.763  58.814  1.00  0.00     0.014 A 
HETATM    7  C   UNL     1       6.606  -4.308  59.633  1.00  0.00     0.040 A 
HETATM    8  C   UNL     1       7.570  -3.440  59.120  1.00  0.00     0.098 A 
BRANCH   5   9
HETATM    9  C   UNL     1       4.424  -4.825  56.631  1.00  0.00     0.012 C 
HETATM   10  C   UNL     1       3.232  -5.295  57.069  1.00  0.00     0.012 C 
BRANCH  10  11
HETATM   11  C   UNL     1       2.146  -5.752  56.215  1.00  0.00    -0.036 A 
HETATM   12  C   UNL     1       2.199  -5.530  54.840  1.00  0.00     0.011 A 
HETATM   13  C   UNL     1       1.158  -5.968  54.021  1.00  0.00     0.001 A 
HETATM   14  C   UNL     1       0.065  -6.630  54.579  1.00  0.00     0.000 A 
HETATM   15  C   UNL     1       0.011  -6.853  55.955  1.00  0.00     0.001 A 
HETATM   16  C   UNL     1       1.053  -6.415  56.773  1.00  0.00     0.011 A 
ENDBRANCH  10  11
ENDBRANCH   5   9
BRANCH   8  17
HETATM   17  O   UNL     1       8.574  -3.001  59.929  1.00  0.00    -0.358 OA
HETATM   18  H   UNL     1       8.462  -2.217  60.431  1.00  0.00     0.217 HD
ENDBRANCH   8  17
ENDBRANCH   1   3
TORSDOF 4
ENDMDL
