MODEL 1
REMARK VINA RESULT:      -7.0      0.000      0.000
REMARK  4 active torsions:
REMARK  status: ('A' for Active; 'I' for Inactive)
REMARK    1  A    between atoms: O_1  and  C_9 
REMARK    2  A    between atoms: O_2  and  C_10 
REMARK    3  A    between atoms: C_3  and  C_5 
REMARK    4  A    between atoms: C_4  and  C_8 
ROOT
HETATM    1  O   UNL     1       5.249  -9.487  58.306  1.00  0.00    -0.358 OA
HETATM    2  H   UNL     1       6.042  -9.076  58.589  1.00  0.00     0.217 HD
ENDROOT
BRANCH   1   3
HETATM    3  C   UNL     1       4.747  -9.219  57.068  1.00  0.00     0.099 A 
HETATM    4  C   UNL     1       3.642  -9.934  56.607  1.00  0.00     0.050 A 
HETATM    5  C   UNL     1       3.135  -9.660  55.347  1.00  0.00    -0.033 A 
HETATM    6  C   UNL     1       3.703  -8.691  54.536  1.00  0.00     0.014 A 
HETATM    7  C   UNL     1       4.809  -7.976  54.997  1.00  0.00     0.040 A 
HETATM    8  C   UNL     1       5.330  -8.241  56.263  1.00  0.00     0.098 A 
BRANCH   5   9
HETATM    9  C   UNL     1       1.966 -10.414  54.860  1.00  0.00     0.012 C 
HETATM   10  C   UNL     1       1.542 -10.450  53.574  1.00  0.00     0.012 C 
BRANCH  10  11
HETATM   11  C   UNL     1       0.400 -11.211  53.089  1.00  0.00    -0.036 A 
HETATM   12  C   UNL     1       0.568 -12.149  52.073  1.00  0.00     0.011 A 
HETATM   13  C   UNL     1      -0.527 -12.879  51.609  1.00  0.00     0.001 A 
HETATM   14  C   UNL     1      -1.790 -12.668  52.162  1.00  0.00     0.000 A 
HETATM   15  C   UNL     1      -1.958 -11.728  53.180  1.00  0.00     0.001 A 
HETATM   16  C   UNL     1      -0.863 -11.000  53.644  1.00  0.00     0.011 A 
ENDBRANCH  10  11
ENDBRANCH   5   9
BRANCH   8  17
HETATM   17  O   UNL     1       6.412  -7.538  56.702  1.00  0.00    -0.358 OA
HETATM   18  H   UNL     1       7.029  -7.940  57.281  1.00  0.00     0.217 HD
ENDBRANCH   8  17
ENDBRANCH   1   3
TORSDOF 4
ENDMDL
MODEL 2
REMARK VINA RESULT:      -6.8      4.585      6.612
REMARK  4 active torsions:
REMARK  status: ('A' for Active; 'I' for Inactive)
REMARK    1  A    between atoms: O_1  and  C_9 
REMARK    2  A    between atoms: O_2  and  C_10 
REMARK    3  A    between atoms: C_3  and  C_5 
REMARK    4  A    between atoms: C_4  and  C_8 
ROOT
HETATM    1  O   UNL     1       4.406  -3.956  50.993  1.00  0.00    -0.358 OA
HETATM    2  H   UNL     1       5.166  -3.726  51.490  1.00  0.00     0.217 HD
ENDROOT
BRANCH   1   3
HETATM    3  C   UNL     1       4.030  -5.261  50.888  1.00  0.00     0.099 A 
HETATM    4  C   UNL     1       4.104  -6.088  52.008  1.00  0.00     0.050 A 
HETATM    5  C   UNL     1       3.722  -7.415  51.897  1.00  0.00    -0.033 A 
HETATM    6  C   UNL     1       3.269  -7.938  50.698  1.00  0.00     0.014 A 
HETATM    7  C   UNL     1       3.195  -7.111  49.576  1.00  0.00     0.040 A 
HETATM    8  C   UNL     1       3.576  -5.773  49.672  1.00  0.00     0.098 A 
BRANCH   5   9
HETATM    9  C   UNL     1       3.799  -8.290  53.082  1.00  0.00     0.012 C 
HETATM   10  C   UNL     1       4.124  -7.883  54.332  1.00  0.00     0.012 C 
BRANCH  10  11
HETATM   11  C   UNL     1       4.180  -8.742  55.505  1.00  0.00    -0.036 A 
HETATM   12  C   UNL     1       3.197  -9.710  55.709  1.00  0.00     0.011 A 
HETATM   13  C   UNL     1       3.251 -10.534  56.833  1.00  0.00     0.001 A 
HETATM   14  C   UNL     1       4.289 -10.389  57.753  1.00  0.00     0.000 A 
HETATM   15  C   UNL     1       5.273  -9.421  57.549  1.00  0.00     0.001 A 
HETATM   16  C   UNL     1       5.219  -8.598  56.425  1.00  0.00     0.011 A 
ENDBRANCH  10  11
ENDBRANCH   5   9
BRANCH   8  17
HETATM   17  O   UNL     1       3.501  -4.976  48.570  1.00  0.00    -0.358 OA
HETATM   18  H   UNL     1       4.280  -4.761  48.093  1.00  0.00     0.217 HD
ENDBRANCH   8  17
ENDBRANCH   1   3
TORSDOF 4
ENDMDL
MODEL 3
REMARK VINA RESULT:      -6.8      0.851      2.187
REMARK  4 active torsions:
REMARK  status: ('A' for Active; 'I' for Inactive)
REMARK    1  A    between atoms: O_1  and  C_9 
REMARK    2  A    between atoms: O_2  and  C_10 
REMARK    3  A    between atoms: C_3  and  C_5 
REMARK    4  A    between atoms: C_4  and  C_8 
ROOT
HETATM    1  O   UNL     1       5.792  -6.671  54.181  1.00  0.00    -0.358 OA
HETATM    2  H   UNL     1       5.590  -5.767  54.326  1.00  0.00     0.217 HD
ENDROOT
BRANCH   1   3
HETATM    3  C   UNL     1       5.017  -7.640  54.744  1.00  0.00     0.099 A 
HETATM    4  C   UNL     1       3.997  -8.225  53.995  1.00  0.00     0.050 A 
HETATM    5  C   UNL     1       3.211  -9.209  54.571  1.00  0.00    -0.033 A 
HETATM    6  C   UNL     1       3.417  -9.625  55.876  1.00  0.00     0.014 A 
HETATM    7  C   UNL     1       4.438  -9.040  56.627  1.00  0.00     0.040 A 
HETATM    8  C   UNL     1       5.237  -8.048  56.060  1.00  0.00     0.098 A 
BRANCH   5   9
HETATM    9  C   UNL     1       2.133  -9.829  53.779  1.00  0.00     0.012 C 
HETATM   10  C   UNL     1       1.405 -10.905  54.160  1.00  0.00     0.012 C 
BRANCH  10  11
HETATM   11  C   UNL     1       0.328 -11.504  53.387  1.00  0.00    -0.036 A 
HETATM   12  C   UNL     1      -0.999 -11.297  53.762  1.00  0.00     0.011 A 
HETATM   13  C   UNL     1      -2.031 -11.871  53.020  1.00  0.00     0.001 A 
HETATM   14  C   UNL     1      -1.736 -12.653  51.903  1.00  0.00     0.000 A 
HETATM   15  C   UNL     1      -0.408 -12.860  51.527  1.00  0.00     0.001 A 
HETATM   16  C   UNL     1       0.624 -12.285  52.269  1.00  0.00     0.011 A 
ENDBRANCH  10  11
ENDBRANCH   5   9
BRANCH   8  17
HETATM   17  O   UNL     1       6.230  -7.482  56.803  1.00  0.00    -0.358 OA
HETATM   18  H   UNL     1       6.040  -6.755  57.363  1.00  0.00     0.217 HD
ENDBRANCH   8  17
ENDBRANCH   1   3
TORSDOF 4
ENDMDL
MODEL 4
REMARK VINA RESULT:      -6.7      4.512      6.663
REMARK  4 active torsions:
REMARK  status: ('A' for Active; 'I' for Inactive)
REMARK    1  A    between atoms: O_1  and  C_9 
REMARK    2  A    between atoms: O_2  and  C_10 
REMARK    3  A    between atoms: C_3  and  C_5 
REMARK    4  A    between atoms: C_4  and  C_8 
ROOT
HETATM    1  O   UNL     1       4.755  -3.892  50.620  1.00  0.00    -0.358 OA
HETATM    2  H   UNL     1       5.685  -3.823  50.522  1.00  0.00     0.217 HD
ENDROOT
BRANCH   1   3
HETATM    3  C   UNL     1       4.153  -5.112  50.560  1.00  0.00     0.099 A 
HETATM    4  C   UNL     1       4.074  -5.895  51.712  1.00  0.00     0.050 A 
HETATM    5  C   UNL     1       3.461  -7.136  51.647  1.00  0.00    -0.033 A 
HETATM    6  C   UNL     1       2.927  -7.616  50.463  1.00  0.00     0.014 A 
HETATM    7  C   UNL     1       3.006  -6.833  49.310  1.00  0.00     0.040 A 
HETATM    8  C   UNL     1       3.620  -5.582  49.360  1.00  0.00     0.098 A 
BRANCH   5   9
HETATM    9  C   UNL     1       3.376  -7.963  52.864  1.00  0.00     0.012 C 
HETATM   10  C   UNL     1       4.227  -7.895  53.915  1.00  0.00     0.012 C 
BRANCH  10  11
HETATM   11  C   UNL     1       4.131  -8.697  55.125  1.00  0.00    -0.036 A 
HETATM   12  C   UNL     1       5.036  -8.500  56.167  1.00  0.00     0.011 A 
HETATM   13  C   UNL     1       4.943  -9.269  57.327  1.00  0.00     0.001 A 
HETATM   14  C   UNL     1       3.945 -10.236  57.444  1.00  0.00     0.000 A 
HETATM   15  C   UNL     1       3.040 -10.434  56.401  1.00  0.00     0.001 A 
HETATM   16  C   UNL     1       3.132  -9.664  55.242  1.00  0.00     0.011 A 
ENDBRANCH  10  11
ENDBRANCH   5   9
BRANCH   8  17
HETATM   17  O   UNL     1       3.693  -4.828  48.228  1.00  0.00    -0.358 OA
HETATM   18  H   UNL     1       2.969  -4.803  47.633  1.00  0.00     0.217 HD
ENDBRANCH   8  17
ENDBRANCH   1   3
TORSDOF 4
ENDMDL
MODEL 5
REMARK VINA RESULT:      -6.7      4.734      6.519
REMARK  4 active torsions:
REMARK  status: ('A' for Active; 'I' for Inactive)
REMARK    1  A    between atoms: O_1  and  C_9 
REMARK    2  A    between atoms: O_2  and  C_10 
REMARK    3  A    between atoms: C_3  and  C_5 
REMARK    4  A    between atoms: C_4  and  C_8 
ROOT
HETATM    1  O   UNL     1       5.151  -3.885  50.249  1.00  0.00    -0.358 OA
HETATM    2  H   UNL     1       5.596  -3.712  49.442  1.00  0.00     0.217 HD
ENDROOT
BRANCH   1   3
HETATM    3  C   UNL     1       4.013  -4.636  50.250  1.00  0.00     0.099 A 
HETATM    4  C   UNL     1       3.807  -5.564  51.270  1.00  0.00     0.050 A 
HETATM    5  C   UNL     1       2.649  -6.326  51.268  1.00  0.00    -0.033 A 
HETATM    6  C   UNL     1       1.694  -6.185  50.275  1.00  0.00     0.014 A 
HETATM    7  C   UNL     1       1.901  -5.256  49.255  1.00  0.00     0.040 A 
HETATM    8  C   UNL     1       3.061  -4.482  49.243  1.00  0.00     0.098 A 
BRANCH   5   9
HETATM    9  C   UNL     1       2.429  -7.307  52.346  1.00  0.00     0.012 C 
HETATM   10  C   UNL     1       3.402  -7.851  53.116  1.00  0.00     0.012 C 
BRANCH  10  11
HETATM   11  C   UNL     1       3.182  -8.804  54.194  1.00  0.00    -0.036 A 
HETATM   12  C   UNL     1       2.212  -9.796  54.061  1.00  0.00     0.011 A 
HETATM   13  C   UNL     1       2.002 -10.710  55.094  1.00  0.00     0.001 A 
HETATM   14  C   UNL     1       2.764 -10.630  56.259  1.00  0.00     0.000 A 
HETATM   15  C   UNL     1       3.735  -9.638  56.393  1.00  0.00     0.001 A 
HETATM   16  C   UNL     1       3.945  -8.725  55.359  1.00  0.00     0.011 A 
ENDBRANCH  10  11
ENDBRANCH   5   9
BRANCH   8  17
HETATM   17  O   UNL     1       3.253  -3.580  48.241  1.00  0.00    -0.358 OA
HETATM   18  H   UNL     1       2.762  -3.651  47.445  1.00  0.00     0.217 HD
ENDBRANCH   8  17
ENDBRANCH   1   3
TORSDOF 4
ENDMDL
MODEL 6
REMARK VINA RESULT:      -6.7      2.699      3.607
REMARK  4 active torsions:
REMARK  status: ('A' for Active; 'I' for Inactive)
REMARK    1  A    between atoms: O_1  and  C_9 
REMARK    2  A    between atoms: O_2  and  C_10 
REMARK    3  A    between atoms: C_3  and  C_5 
REMARK    4  A    between atoms: C_4  and  C_8 
ROOT
HETATM    1  O   UNL     1       6.272  -7.633  56.574  1.00  0.00    -0.358 OA
HETATM    2  H   UNL     1       7.143  -7.981  56.587  1.00  0.00     0.217 HD
ENDROOT
BRANCH   1   3
HETATM    3  C   UNL     1       5.209  -8.466  56.393  1.00  0.00     0.099 A 
HETATM    4  C   UNL     1       4.405  -8.316  55.263  1.00  0.00     0.050 A 
HETATM    5  C   UNL     1       3.325  -9.164  55.083  1.00  0.00    -0.033 A 
HETATM    6  C   UNL     1       3.026 -10.157  56.000  1.00  0.00     0.014 A 
HETATM    7  C   UNL     1       3.830 -10.308  57.131  1.00  0.00     0.040 A 
HETATM    8  C   UNL     1       4.921  -9.462  57.326  1.00  0.00     0.098 A 
BRANCH   5   9
HETATM    9  C   UNL     1       2.475  -9.007  53.888  1.00  0.00     0.012 C 
HETATM   10  C   UNL     1       2.414  -7.897  53.115  1.00  0.00     0.012 C 
BRANCH  10  11
HETATM   11  C   UNL     1       1.591  -7.749  51.925  1.00  0.00    -0.036 A 
HETATM   12  C   UNL     1       1.048  -8.874  51.307  1.00  0.00     0.011 A 
HETATM   13  C   UNL     1       0.258  -8.733  50.166  1.00  0.00     0.001 A 
HETATM   14  C   UNL     1       0.012  -7.463  49.644  1.00  0.00     0.000 A 
HETATM   15  C   UNL     1       0.554  -6.336  50.261  1.00  0.00     0.001 A 
HETATM   16  C   UNL     1       1.343  -6.479  51.403  1.00  0.00     0.011 A 
ENDBRANCH  10  11
ENDBRANCH   5   9
BRANCH   8  17
HETATM   17  O   UNL     1       5.698  -9.617  58.435  1.00  0.00    -0.358 OA
HETATM   18  H   UNL     1       5.361  -9.387  59.279  1.00  0.00     0.217 HD
ENDBRANCH   8  17
ENDBRANCH   1   3
TORSDOF 4
ENDMDL
MODEL 7
REMARK VINA RESULT:      -6.7      3.281      4.873
REMARK  4 active torsions:
REMARK  status: ('A' for Active; 'I' for Inactive)
REMARK    1  A    between atoms: O_1  and  C_9 
REMARK    2  A    between atoms: O_2  and  C_10 
REMARK    3  A    between atoms: C_3  and  C_5 
REMARK    4  A    between atoms: C_4  and  C_8 
ROOT
HETATM    1  O   UNL     1       5.843  -8.531  57.376  1.00  0.00    -0.358 OA
HETATM    2  H   UNL     1       5.859  -8.588  58.311  1.00  0.00     0.217 HD
ENDROOT
BRANCH   1   3
HETATM    3  C   UNL     1       4.778  -9.023  56.682  1.00  0.00     0.099 A 
HETATM    4  C   UNL     1       4.445  -8.463  55.449  1.00  0.00     0.050 A 
HETATM    5  C   UNL     1       3.362  -8.965  54.747  1.00  0.00    -0.033 A 
HETATM    6  C   UNL     1       2.602 -10.011  55.244  1.00  0.00     0.014 A 
HETATM    7  C   UNL     1       2.935 -10.571  56.478  1.00  0.00     0.040 A 
HETATM    8  C   UNL     1       4.023 -10.077  57.196  1.00  0.00     0.098 A 
BRANCH   5   9
HETATM    9  C   UNL     1       3.010  -8.374  53.443  1.00  0.00     0.012 C 
HETATM   10  C   UNL     1       3.016  -7.050  53.160  1.00  0.00     0.012 C 
BRANCH  10  11
HETATM   11  C   UNL     1       2.688  -6.469  51.867  1.00  0.00    -0.036 A 
HETATM   12  C   UNL     1       3.678  -5.840  51.113  1.00  0.00     0.011 A 
HETATM   13  C   UNL     1       3.363  -5.283  49.873  1.00  0.00     0.001 A 
HETATM   14  C   UNL     1       2.058  -5.355  49.389  1.00  0.00     0.000 A 
HETATM   15  C   UNL     1       1.067  -5.984  50.142  1.00  0.00     0.001 A 
HETATM   16  C   UNL     1       1.382  -6.541  51.381  1.00  0.00     0.011 A 
ENDBRANCH  10  11
ENDBRANCH   5   9
BRANCH   8  17
HETATM   17  O   UNL     1       4.337 -10.631  58.400  1.00  0.00    -0.358 OA
HETATM   18  H   UNL     1       3.725 -11.196  58.830  1.00  0.00     0.217 HD
ENDBRANCH   8  17
ENDBRANCH   1   3
TORSDOF 4
ENDMDL
MODEL 8
REMARK VINA RESULT:      -6.6      3.795      7.238
REMARK  4 active torsions:
REMARK  status: ('A' for Active; 'I' for Inactive)
REMARK    1  A    between atoms: O_1  and  C_9 
REMARK    2  A    between atoms: O_2  and  C_10 
REMARK    3  A    between atoms: C_3  and  C_5 
REMARK    4  A    between atoms: C_4  and  C_8 
ROOT
HETATM    1  O   UNL     1      -0.860 -13.608  51.521  1.00  0.00    -0.358 OA
HETATM    2  H   UNL     1      -0.526 -13.377  50.676  1.00  0.00     0.217 HD
ENDROOT
BRANCH   1   3
HETATM    3  C   UNL     1      -0.864 -12.689  52.526  1.00  0.00     0.099 A 
HETATM    4  C   UNL     1       0.314 -12.438  53.230  1.00  0.00     0.050 A 
HETATM    5  C   UNL     1       0.306 -11.503  54.252  1.00  0.00    -0.033 A 
HETATM    6  C   UNL     1      -0.846 -10.813  54.591  1.00  0.00     0.014 A 
HETATM    7  C   UNL     1      -2.024 -11.064  53.887  1.00  0.00     0.040 A 
HETATM    8  C   UNL     1      -2.032 -12.002  52.855  1.00  0.00     0.098 A 
BRANCH   5   9
HETATM    9  C   UNL     1       1.551 -11.236  54.995  1.00  0.00     0.012 C 
HETATM   10  C   UNL     1       2.072 -10.008  55.230  1.00  0.00     0.012 C 
BRANCH  10  11
HETATM   11  C   UNL     1       3.290  -9.743  55.980  1.00  0.00    -0.036 A 
HETATM   12  C   UNL     1       3.610 -10.525  57.089  1.00  0.00     0.011 A 
HETATM   13  C   UNL     1       4.778 -10.272  57.809  1.00  0.00     0.001 A 
HETATM   14  C   UNL     1       5.625  -9.235  57.418  1.00  0.00     0.000 A 
HETATM   15  C   UNL     1       5.306  -8.453  56.308  1.00  0.00     0.001 A 
HETATM   16  C   UNL     1       4.138  -8.707  55.588  1.00  0.00     0.011 A 
ENDBRANCH  10  11
ENDBRANCH   5   9
BRANCH   8  17
HETATM   17  O   UNL     1      -3.189 -12.240  52.176  1.00  0.00    -0.358 OA
HETATM   18  H   UNL     1      -4.005 -12.274  52.638  1.00  0.00     0.217 HD
ENDBRANCH   8  17
ENDBRANCH   1   3
TORSDOF 4
ENDMDL
MODEL 9
REMARK VINA RESULT:      -6.6      1.522      2.242
REMARK  4 active torsions:
REMARK  status: ('A' for Active; 'I' for Inactive)
REMARK    1  A    between atoms: O_1  and  C_9 
REMARK    2  A    between atoms: O_2  and  C_10 
REMARK    3  A    between atoms: C_3  and  C_5 
REMARK    4  A    between atoms: C_4  and  C_8 
ROOT
HETATM    1  O   UNL     1       6.152  -7.659  56.566  1.00  0.00    -0.358 OA
HETATM    2  H   UNL     1       6.138  -7.028  57.258  1.00  0.00     0.217 HD
ENDROOT
BRANCH   1   3
HETATM    3  C   UNL     1       5.135  -8.558  56.442  1.00  0.00     0.099 A 
HETATM    4  C   UNL     1       4.310  -8.508  55.319  1.00  0.00     0.050 A 
HETATM    5  C   UNL     1       3.276  -9.423  55.197  1.00  0.00    -0.033 A 
HETATM    6  C   UNL     1       3.044 -10.384  56.167  1.00  0.00     0.014 A 
HETATM    7  C   UNL     1       3.870 -10.433  57.291  1.00  0.00     0.040 A 
HETATM    8  C   UNL     1       4.915  -9.519  57.428  1.00  0.00     0.098 A 
BRANCH   5   9
HETATM    9  C   UNL     1       2.404  -9.372  54.009  1.00  0.00     0.012 C 
HETATM   10  C   UNL     1       1.624 -10.389  53.571  1.00  0.00     0.012 C 
BRANCH  10  11
HETATM   11  C   UNL     1       0.748 -10.332  52.410  1.00  0.00    -0.036 A 
HETATM   12  C   UNL     1       1.242  -9.888  51.185  1.00  0.00     0.011 A 
HETATM   13  C   UNL     1       0.403  -9.834  50.072  1.00  0.00     0.001 A 
HETATM   14  C   UNL     1      -0.931 -10.225  50.186  1.00  0.00     0.000 A 
HETATM   15  C   UNL     1      -1.426 -10.670  51.412  1.00  0.00     0.001 A 
HETATM   16  C   UNL     1      -0.586 -10.724  52.524  1.00  0.00     0.011 A 
ENDBRANCH  10  11
ENDBRANCH   5   9
BRANCH   8  17
HETATM   17  O   UNL     1       5.713  -9.576  58.530  1.00  0.00    -0.358 OA
HETATM   18  H   UNL     1       6.160 -10.372  58.745  1.00  0.00     0.217 HD
ENDBRANCH   8  17
ENDBRANCH   1   3
TORSDOF 4
ENDMDL
