MODEL 1
REMARK VINA RESULT:      -6.9      0.000      0.000
REMARK  4 active torsions:
REMARK  status: ('A' for Active; 'I' for Inactive)
REMARK    1  A    between atoms: O_1  and  C_9 
REMARK    2  A    between atoms: O_2  and  C_10 
REMARK    3  A    between atoms: C_3  and  C_5 
REMARK    4  A    between atoms: C_4  and  C_8 
ROOT
HETATM    1  O   UNL     1       8.451  -3.156  59.892  1.00  0.00    -0.358 OA
HETATM    2  H   UNL     1       8.671  -4.006  60.221  1.00  0.00     0.217 HD
ENDROOT
BRANCH   1   3
HETATM    3  C   UNL     1       7.548  -3.031  58.879  1.00  0.00     0.099 A 
HETATM    4  C   UNL     1       6.610  -4.042  58.668  1.00  0.00     0.050 A 
HETATM    5  C   UNL     1       5.694  -3.911  57.637  1.00  0.00    -0.033 A 
HETATM    6  C   UNL     1       5.690  -2.800  56.811  1.00  0.00     0.014 A 
HETATM    7  C   UNL     1       6.629  -1.788  57.022  1.00  0.00     0.040 A 
HETATM    8  C   UNL     1       7.557  -1.905  58.056  1.00  0.00     0.098 A 
BRANCH   5   9
HETATM    9  C   UNL     1       4.702  -4.978  57.414  1.00  0.00     0.012 C 
HETATM   10  C   UNL     1       3.471  -4.800  56.879  1.00  0.00     0.012 C 
BRANCH  10  11
HETATM   11  C   UNL     1       2.499  -5.856  56.640  1.00  0.00    -0.036 A 
HETATM   12  C   UNL     1       2.803  -6.900  55.769  1.00  0.00     0.011 A 
HETATM   13  C   UNL     1       1.871  -7.913  55.540  1.00  0.00     0.001 A 
HETATM   14  C   UNL     1       0.635  -7.880  56.186  1.00  0.00     0.000 A 
HETATM   15  C   UNL     1       0.331  -6.836  57.059  1.00  0.00     0.001 A 
HETATM   16  C   UNL     1       1.263  -5.824  57.287  1.00  0.00     0.011 A 
ENDBRANCH  10  11
ENDBRANCH   5   9
BRANCH   8  17
HETATM   17  O   UNL     1       8.469  -0.912  58.251  1.00  0.00    -0.358 OA
HETATM   18  H   UNL     1       8.875  -0.807  59.089  1.00  0.00     0.217 HD
ENDBRANCH   8  17
ENDBRANCH   1   3
TORSDOF 4
ENDMDL
MODEL 2
REMARK VINA RESULT:      -6.9      4.353      6.381
REMARK  4 active torsions:
REMARK  status: ('A' for Active; 'I' for Inactive)
REMARK    1  A    between atoms: O_1  and  C_9 
REMARK    2  A    between atoms: O_2  and  C_10 
REMARK    3  A    between atoms: C_3  and  C_5 
REMARK    4  A    between atoms: C_4  and  C_8 
ROOT
HETATM    1  O   UNL     1       8.699   0.130  51.892  1.00  0.00    -0.358 OA
HETATM    2  H   UNL     1       9.335   0.277  52.565  1.00  0.00     0.217 HD
ENDROOT
BRANCH   1   3
HETATM    3  C   UNL     1       7.572  -0.584  52.163  1.00  0.00     0.099 A 
HETATM    4  C   UNL     1       7.450  -1.232  53.392  1.00  0.00     0.050 A 
HETATM    5  C   UNL     1       6.302  -1.959  53.664  1.00  0.00    -0.033 A 
HETATM    6  C   UNL     1       5.273  -2.055  52.742  1.00  0.00     0.014 A 
HETATM    7  C   UNL     1       5.395  -1.407  51.512  1.00  0.00     0.040 A 
HETATM    8  C   UNL     1       6.544  -0.672  51.224  1.00  0.00     0.098 A 
BRANCH   5   9
HETATM    9  C   UNL     1       6.172  -2.643  54.963  1.00  0.00     0.012 C 
HETATM   10  C   UNL     1       7.010  -2.485  56.015  1.00  0.00     0.012 C 
BRANCH  10  11
HETATM   11  C   UNL     1       6.870  -3.146  57.304  1.00  0.00    -0.036 A 
HETATM   12  C   UNL     1       5.810  -4.023  57.527  1.00  0.00     0.011 A 
HETATM   13  C   UNL     1       5.677  -4.657  58.763  1.00  0.00     0.001 A 
HETATM   14  C   UNL     1       6.605  -4.412  59.775  1.00  0.00     0.000 A 
HETATM   15  C   UNL     1       7.666  -3.534  59.552  1.00  0.00     0.001 A 
HETATM   16  C   UNL     1       7.799  -2.901  58.316  1.00  0.00     0.011 A 
ENDBRANCH  10  11
ENDBRANCH   5   9
BRANCH   8  17
HETATM   17  O   UNL     1       6.653  -0.044  50.019  1.00  0.00    -0.358 OA
HETATM   18  H   UNL     1       6.158  -0.352  49.284  1.00  0.00     0.217 HD
ENDBRANCH   8  17
ENDBRANCH   1   3
TORSDOF 4
ENDMDL
MODEL 3
REMARK VINA RESULT:      -6.9      4.443      6.287
REMARK  4 active torsions:
REMARK  status: ('A' for Active; 'I' for Inactive)
REMARK    1  A    between atoms: O_1  and  C_9 
REMARK    2  A    between atoms: O_2  and  C_10 
REMARK    3  A    between atoms: C_3  and  C_5 
REMARK    4  A    between atoms: C_4  and  C_8 
ROOT
HETATM    1  O   UNL     1       5.819   0.976  53.026  1.00  0.00    -0.358 OA
HETATM    2  H   UNL     1       6.644   1.420  52.987  1.00  0.00     0.217 HD
ENDROOT
BRANCH   1   3
HETATM    3  C   UNL     1       5.782  -0.384  53.099  1.00  0.00     0.099 A 
HETATM    4  C   UNL     1       6.204  -1.020  54.267  1.00  0.00     0.050 A 
HETATM    5  C   UNL     1       6.165  -2.403  54.337  1.00  0.00    -0.033 A 
HETATM    6  C   UNL     1       5.717  -3.168  53.272  1.00  0.00     0.014 A 
HETATM    7  C   UNL     1       5.296  -2.531  52.104  1.00  0.00     0.040 A 
HETATM    8  C   UNL     1       5.328  -1.140  52.018  1.00  0.00     0.098 A 
BRANCH   5   9
HETATM    9  C   UNL     1       6.609  -3.076  55.571  1.00  0.00     0.012 C 
HETATM   10  C   UNL     1       6.255  -2.714  56.827  1.00  0.00     0.012 C 
BRANCH  10  11
HETATM   11  C   UNL     1       6.678  -3.390  58.045  1.00  0.00    -0.036 A 
HETATM   12  C   UNL     1       5.857  -4.353  58.628  1.00  0.00     0.011 A 
HETATM   13  C   UNL     1       6.262  -5.002  59.795  1.00  0.00     0.001 A 
HETATM   14  C   UNL     1       7.490  -4.686  60.377  1.00  0.00     0.000 A 
HETATM   15  C   UNL     1       8.312  -3.722  59.793  1.00  0.00     0.001 A 
HETATM   16  C   UNL     1       7.906  -3.074  58.626  1.00  0.00     0.011 A 
ENDBRANCH  10  11
ENDBRANCH   5   9
BRANCH   8  17
HETATM   17  O   UNL     1       4.916  -0.530  50.872  1.00  0.00    -0.358 OA
HETATM   18  H   UNL     1       4.818   0.402  50.846  1.00  0.00     0.217 HD
ENDBRANCH   8  17
ENDBRANCH   1   3
TORSDOF 4
ENDMDL
MODEL 4
REMARK VINA RESULT:      -6.7      4.718      6.501
REMARK  4 active torsions:
REMARK  status: ('A' for Active; 'I' for Inactive)
REMARK    1  A    between atoms: O_1  and  C_9 
REMARK    2  A    between atoms: O_2  and  C_10 
REMARK    3  A    between atoms: C_3  and  C_5 
REMARK    4  A    between atoms: C_4  and  C_8 
ROOT
HETATM    1  O   UNL     1       4.248  -0.947  50.842  1.00  0.00    -0.358 OA
HETATM    2  H   UNL     1       3.404  -0.724  51.184  1.00  0.00     0.217 HD
ENDROOT
BRANCH   1   3
HETATM    3  C   UNL     1       5.315  -1.058  51.682  1.00  0.00     0.099 A 
HETATM    4  C   UNL     1       5.139  -1.627  52.943  1.00  0.00     0.050 A 
HETATM    5  C   UNL     1       6.226  -1.738  53.795  1.00  0.00    -0.033 A 
HETATM    6  C   UNL     1       7.484  -1.294  53.421  1.00  0.00     0.014 A 
HETATM    7  C   UNL     1       7.660  -0.724  52.159  1.00  0.00     0.040 A 
HETATM    8  C   UNL     1       6.575  -0.607  51.291  1.00  0.00     0.098 A 
BRANCH   5   9
HETATM    9  C   UNL     1       6.041  -2.340  55.127  1.00  0.00     0.012 C 
HETATM   10  C   UNL     1       7.041  -2.753  55.942  1.00  0.00     0.012 C 
BRANCH  10  11
HETATM   11  C   UNL     1       6.859  -3.330  57.266  1.00  0.00    -0.036 A 
HETATM   12  C   UNL     1       7.773  -3.051  58.280  1.00  0.00     0.011 A 
HETATM   13  C   UNL     1       7.598  -3.604  59.549  1.00  0.00     0.001 A 
HETATM   14  C   UNL     1       6.508  -4.436  59.802  1.00  0.00     0.000 A 
HETATM   15  C   UNL     1       5.592  -4.715  58.787  1.00  0.00     0.001 A 
HETATM   16  C   UNL     1       5.767  -4.161  57.519  1.00  0.00     0.011 A 
ENDBRANCH  10  11
ENDBRANCH   5   9
BRANCH   8  17
HETATM   17  O   UNL     1       6.760  -0.047  50.062  1.00  0.00    -0.358 OA
HETATM   18  H   UNL     1       6.463   0.827  49.896  1.00  0.00     0.217 HD
ENDBRANCH   8  17
ENDBRANCH   1   3
TORSDOF 4
ENDMDL
MODEL 5
REMARK VINA RESULT:      -6.7      1.125      2.133
REMARK  4 active torsions:
REMARK  status: ('A' for Active; 'I' for Inactive)
REMARK    1  A    between atoms: O_1  and  C_9 
REMARK    2  A    between atoms: O_2  and  C_10 
REMARK    3  A    between atoms: C_3  and  C_5 
REMARK    4  A    between atoms: C_4  and  C_8 
ROOT
HETATM    1  O   UNL     1       8.404  -2.157  57.418  1.00  0.00    -0.358 OA
HETATM    2  H   UNL     1       8.703  -1.420  57.915  1.00  0.00     0.217 HD
ENDROOT
BRANCH   1   3
HETATM    3  C   UNL     1       7.500  -3.022  57.958  1.00  0.00     0.099 A 
HETATM    4  C   UNL     1       6.392  -3.412  57.207  1.00  0.00     0.050 A 
HETATM    5  C   UNL     1       5.474  -4.291  57.760  1.00  0.00    -0.033 A 
HETATM    6  C   UNL     1       5.634  -4.789  59.042  1.00  0.00     0.014 A 
HETATM    7  C   UNL     1       6.743  -4.398  59.794  1.00  0.00     0.040 A 
HETATM    8  C   UNL     1       7.675  -3.515  59.251  1.00  0.00     0.098 A 
BRANCH   5   9
HETATM    9  C   UNL     1       4.303  -4.705  56.966  1.00  0.00     0.012 C 
HETATM   10  C   UNL     1       3.437  -5.687  57.309  1.00  0.00     0.012 C 
BRANCH  10  11
HETATM   11  C   UNL     1       2.269  -6.083  56.535  1.00  0.00    -0.036 A 
HETATM   12  C   UNL     1       1.217  -6.754  57.154  1.00  0.00     0.011 A 
HETATM   13  C   UNL     1       0.097  -7.133  56.413  1.00  0.00     0.001 A 
HETATM   14  C   UNL     1       0.033  -6.839  55.051  1.00  0.00     0.000 A 
HETATM   15  C   UNL     1       1.086  -6.166  54.431  1.00  0.00     0.001 A 
HETATM   16  C   UNL     1       2.204  -5.788  55.173  1.00  0.00     0.011 A 
ENDBRANCH  10  11
ENDBRANCH   5   9
BRANCH   8  17
HETATM   17  O   UNL     1       8.753  -3.139  59.996  1.00  0.00    -0.358 OA
HETATM   18  H   UNL     1       8.747  -3.264  60.925  1.00  0.00     0.217 HD
ENDBRANCH   8  17
ENDBRANCH   1   3
TORSDOF 4
ENDMDL
MODEL 6
REMARK VINA RESULT:      -6.6      4.410      6.383
REMARK  4 active torsions:
REMARK  status: ('A' for Active; 'I' for Inactive)
REMARK    1  A    between atoms: O_1  and  C_9 
REMARK    2  A    between atoms: O_2  and  C_10 
REMARK    3  A    between atoms: C_3  and  C_5 
REMARK    4  A    between atoms: C_4  and  C_8 
ROOT
HETATM    1  O   UNL     1       5.703   0.161  52.183  1.00  0.00    -0.358 OA
HETATM    2  H   UNL     1       5.299   0.782  52.757  1.00  0.00     0.217 HD
ENDROOT
BRANCH   1   3
HETATM    3  C   UNL     1       5.545  -1.174  52.403  1.00  0.00     0.099 A 
HETATM    4  C   UNL     1       5.801  -1.694  53.672  1.00  0.00     0.050 A 
HETATM    5  C   UNL     1       5.640  -3.053  53.892  1.00  0.00    -0.033 A 
HETATM    6  C   UNL     1       5.232  -3.905  52.879  1.00  0.00     0.014 A 
HETATM    7  C   UNL     1       4.977  -3.384  51.610  1.00  0.00     0.040 A 
HETATM    8  C   UNL     1       5.134  -2.019  51.373  1.00  0.00     0.098 A 
BRANCH   5   9
HETATM    9  C   UNL     1       5.909  -3.603  55.233  1.00  0.00     0.012 C 
HETATM   10  C   UNL     1       6.389  -2.897  56.284  1.00  0.00     0.012 C 
BRANCH  10  11
HETATM   11  C   UNL     1       6.636  -3.436  57.613  1.00  0.00    -0.036 A 
HETATM   12  C   UNL     1       7.763  -3.038  58.329  1.00  0.00     0.011 A 
HETATM   13  C   UNL     1       7.999  -3.554  59.604  1.00  0.00     0.001 A 
HETATM   14  C   UNL     1       7.105  -4.469  60.160  1.00  0.00     0.000 A 
HETATM   15  C   UNL     1       5.977  -4.868  59.444  1.00  0.00     0.001 A 
HETATM   16  C   UNL     1       5.741  -4.351  58.170  1.00  0.00     0.011 A 
ENDBRANCH  10  11
ENDBRANCH   5   9
BRANCH   8  17
HETATM   17  O   UNL     1       4.883  -1.523  50.129  1.00  0.00    -0.358 OA
HETATM   18  H   UNL     1       4.255  -0.836  50.016  1.00  0.00     0.217 HD
ENDBRANCH   8  17
ENDBRANCH   1   3
TORSDOF 4
ENDMDL
MODEL 7
REMARK VINA RESULT:      -6.6      4.738      6.453
REMARK  4 active torsions:
REMARK  status: ('A' for Active; 'I' for Inactive)
REMARK    1  A    between atoms: O_1  and  C_9 
REMARK    2  A    between atoms: O_2  and  C_10 
REMARK    3  A    between atoms: C_3  and  C_5 
REMARK    4  A    between atoms: C_4  and  C_8 
ROOT
HETATM    1  O   UNL     1       4.031  -1.395  51.011  1.00  0.00    -0.358 OA
HETATM    2  H   UNL     1       3.477  -0.643  50.932  1.00  0.00     0.217 HD
ENDROOT
BRANCH   1   3
HETATM    3  C   UNL     1       5.097  -1.370  51.859  1.00  0.00     0.099 A 
HETATM    4  C   UNL     1       4.998  -1.994  53.102  1.00  0.00     0.050 A 
HETATM    5  C   UNL     1       6.084  -1.965  53.963  1.00  0.00    -0.033 A 
HETATM    6  C   UNL     1       7.265  -1.330  53.614  1.00  0.00     0.014 A 
HETATM    7  C   UNL     1       7.363  -0.706  52.370  1.00  0.00     0.040 A 
HETATM    8  C   UNL     1       6.279  -0.726  51.493  1.00  0.00     0.098 A 
BRANCH   5   9
HETATM    9  C   UNL     1       5.981  -2.625  55.277  1.00  0.00     0.012 C 
HETATM   10  C   UNL     1       6.970  -2.681  56.201  1.00  0.00     0.012 C 
BRANCH  10  11
HETATM   11  C   UNL     1       6.861  -3.315  57.506  1.00  0.00    -0.036 A 
HETATM   12  C   UNL     1       5.765  -4.125  57.800  1.00  0.00     0.011 A 
HETATM   13  C   UNL     1       5.662  -4.733  59.051  1.00  0.00     0.001 A 
HETATM   14  C   UNL     1       6.656  -4.531  60.007  1.00  0.00     0.000 A 
HETATM   15  C   UNL     1       7.754  -3.722  59.714  1.00  0.00     0.001 A 
HETATM   16  C   UNL     1       7.857  -3.114  58.462  1.00  0.00     0.011 A 
ENDBRANCH  10  11
ENDBRANCH   5   9
BRANCH   8  17
HETATM   17  O   UNL     1       6.386  -0.112  50.282  1.00  0.00    -0.358 OA
HETATM   18  H   UNL     1       5.854   0.635  50.086  1.00  0.00     0.217 HD
ENDBRANCH   8  17
ENDBRANCH   1   3
TORSDOF 4
ENDMDL
MODEL 8
REMARK VINA RESULT:      -6.6      3.346      4.870
REMARK  4 active torsions:
REMARK  status: ('A' for Active; 'I' for Inactive)
REMARK    1  A    between atoms: O_1  and  C_9 
REMARK    2  A    between atoms: O_2  and  C_10 
REMARK    3  A    between atoms: C_3  and  C_5 
REMARK    4  A    between atoms: C_4  and  C_8 
ROOT
HETATM    1  O   UNL     1       8.425  -2.680  59.079  1.00  0.00    -0.358 OA
HETATM    2  H   UNL     1       8.701  -1.920  58.606  1.00  0.00     0.217 HD
ENDROOT
BRANCH   1   3
HETATM    3  C   UNL     1       7.324  -3.372  58.672  1.00  0.00     0.099 A 
HETATM    4  C   UNL     1       6.899  -3.267  57.347  1.00  0.00     0.050 A 
HETATM    5  C   UNL     1       5.778  -3.971  56.937  1.00  0.00    -0.033 A 
HETATM    6  C   UNL     1       5.071  -4.776  57.815  1.00  0.00     0.014 A 
HETATM    7  C   UNL     1       5.496  -4.881  59.140  1.00  0.00     0.040 A 
HETATM    8  C   UNL     1       6.622  -4.179  59.567  1.00  0.00     0.098 A 
BRANCH   5   9
HETATM    9  C   UNL     1       5.330  -3.862  55.538  1.00  0.00     0.012 C 
HETATM   10  C   UNL     1       6.001  -3.221  54.551  1.00  0.00     0.012 C 
BRANCH  10  11
HETATM   11  C   UNL     1       5.567  -3.131  53.165  1.00  0.00    -0.036 A 
HETATM   12  C   UNL     1       5.123  -4.270  52.497  1.00  0.00     0.011 A 
HETATM   13  C   UNL     1       4.707  -4.183  51.168  1.00  0.00     0.001 A 
HETATM   14  C   UNL     1       4.737  -2.955  50.508  1.00  0.00     0.000 A 
HETATM   15  C   UNL     1       5.181  -1.814  51.177  1.00  0.00     0.001 A 
HETATM   16  C   UNL     1       5.596  -1.901  52.505  1.00  0.00     0.011 A 
ENDBRANCH  10  11
ENDBRANCH   5   9
BRANCH   8  17
HETATM   17  O   UNL     1       7.026  -4.287  60.864  1.00  0.00    -0.358 OA
HETATM   18  H   UNL     1       7.909  -4.078  61.099  1.00  0.00     0.217 HD
ENDBRANCH   8  17
ENDBRANCH   1   3
TORSDOF 4
ENDMDL
MODEL 9
REMARK VINA RESULT:      -6.5      3.988      7.148
REMARK  4 active torsions:
REMARK  status: ('A' for Active; 'I' for Inactive)
REMARK    1  A    between atoms: O_1  and  C_9 
REMARK    2  A    between atoms: O_2  and  C_10 
REMARK    3  A    between atoms: C_3  and  C_5 
REMARK    4  A    between atoms: C_4  and  C_8 
ROOT
HETATM    1  O   UNL     1      -0.112  -8.333  57.145  1.00  0.00    -0.358 OA
HETATM    2  H   UNL     1       0.228  -9.115  57.533  1.00  0.00     0.217 HD
ENDROOT
BRANCH   1   3
HETATM    3  C   UNL     1       0.738  -7.418  56.601  1.00  0.00     0.099 A 
HETATM    4  C   UNL     1       1.903  -7.072  57.285  1.00  0.00     0.050 A 
HETATM    5  C   UNL     1       2.765  -6.141  56.729  1.00  0.00    -0.033 A 
HETATM    6  C   UNL     1       2.494  -5.546  55.507  1.00  0.00     0.014 A 
HETATM    7  C   UNL     1       1.329  -5.893  54.822  1.00  0.00     0.040 A 
HETATM    8  C   UNL     1       0.451  -6.829  55.369  1.00  0.00     0.098 A 
BRANCH   5   9
HETATM    9  C   UNL     1       3.996  -5.775  57.451  1.00  0.00     0.012 C 
HETATM   10  C   UNL     1       4.596  -4.561  57.406  1.00  0.00     0.012 C 
BRANCH  10  11
HETATM   11  C   UNL     1       5.800  -4.194  58.135  1.00  0.00    -0.036 A 
HETATM   12  C   UNL     1       6.027  -4.706  59.411  1.00  0.00     0.011 A 
HETATM   13  C   UNL     1       7.182  -4.354  60.110  1.00  0.00     0.001 A 
HETATM   14  C   UNL     1       8.110  -3.490  59.530  1.00  0.00     0.000 A 
HETATM   15  C   UNL     1       7.885  -2.978  58.252  1.00  0.00     0.001 A 
HETATM   16  C   UNL     1       6.730  -3.330  57.554  1.00  0.00     0.011 A 
ENDBRANCH  10  11
ENDBRANCH   5   9
BRANCH   8  17
HETATM   17  O   UNL     1      -0.684  -7.158  54.692  1.00  0.00    -0.358 OA
HETATM   18  H   UNL     1      -1.208  -7.880  54.979  1.00  0.00     0.217 HD
ENDBRANCH   8  17
ENDBRANCH   1   3
TORSDOF 4
ENDMDL
