MODEL 1
REMARK VINA RESULT:      -7.0      0.000      0.000
REMARK  4 active torsions:
REMARK  status: ('A' for Active; 'I' for Inactive)
REMARK    1  A    between atoms: O_1  and  C_9 
REMARK    2  A    between atoms: O_2  and  C_10 
REMARK    3  A    between atoms: C_3  and  C_5 
REMARK    4  A    between atoms: C_4  and  C_8 
ROOT
HETATM    1  O   UNL     1       5.293  -9.455  58.281  1.00  0.00    -0.358 OA
HETATM    2  H   UNL     1       5.047  -8.935  59.021  1.00  0.00     0.217 HD
ENDROOT
BRANCH   1   3
HETATM    3  C   UNL     1       4.775  -9.178  57.052  1.00  0.00     0.099 A 
HETATM    4  C   UNL     1       3.662  -9.887  56.601  1.00  0.00     0.050 A 
HETATM    5  C   UNL     1       3.139  -9.603  55.350  1.00  0.00    -0.033 A 
HETATM    6  C   UNL     1       3.698  -8.631  54.537  1.00  0.00     0.014 A 
HETATM    7  C   UNL     1       4.812  -7.922  54.988  1.00  0.00     0.040 A 
HETATM    8  C   UNL     1       5.350  -8.196  56.245  1.00  0.00     0.098 A 
BRANCH   5   9
HETATM    9  C   UNL     1       1.961 -10.351  54.873  1.00  0.00     0.012 C 
HETATM   10  C   UNL     1       1.567 -10.444  53.581  1.00  0.00     0.012 C 
BRANCH  10  11
HETATM   11  C   UNL     1       0.416 -11.198  53.108  1.00  0.00    -0.036 A 
HETATM   12  C   UNL     1      -0.837 -10.994  53.684  1.00  0.00     0.011 A 
HETATM   13  C   UNL     1      -1.940 -11.717  53.231  1.00  0.00     0.001 A 
HETATM   14  C   UNL     1      -1.789 -12.645  52.201  1.00  0.00     0.000 A 
HETATM   15  C   UNL     1      -0.536 -12.850  51.624  1.00  0.00     0.001 A 
HETATM   16  C   UNL     1       0.567 -12.126  52.077  1.00  0.00     0.011 A 
ENDBRANCH  10  11
ENDBRANCH   5   9
BRANCH   8  17
HETATM   17  O   UNL     1       6.439  -7.498  56.674  1.00  0.00    -0.358 OA
HETATM   18  H   UNL     1       6.759  -7.619  57.547  1.00  0.00     0.217 HD
ENDBRANCH   8  17
ENDBRANCH   1   3
TORSDOF 4
ENDMDL
MODEL 2
REMARK VINA RESULT:      -6.8      0.840      1.808
REMARK  4 active torsions:
REMARK  status: ('A' for Active; 'I' for Inactive)
REMARK    1  A    between atoms: O_1  and  C_9 
REMARK    2  A    between atoms: O_2  and  C_10 
REMARK    3  A    between atoms: C_3  and  C_5 
REMARK    4  A    between atoms: C_4  and  C_8 
ROOT
HETATM    1  O   UNL     1       5.880  -6.742  54.147  1.00  0.00    -0.358 OA
HETATM    2  H   UNL     1       6.650  -6.435  54.586  1.00  0.00     0.217 HD
ENDROOT
BRANCH   1   3
HETATM    3  C   UNL     1       5.086  -7.678  54.739  1.00  0.00     0.099 A 
HETATM    4  C   UNL     1       4.033  -8.239  54.016  1.00  0.00     0.050 A 
HETATM    5  C   UNL     1       3.227  -9.189  54.621  1.00  0.00    -0.033 A 
HETATM    6  C   UNL     1       3.445  -9.594  55.928  1.00  0.00     0.014 A 
HETATM    7  C   UNL     1       4.498  -9.032  56.651  1.00  0.00     0.040 A 
HETATM    8  C   UNL     1       5.318  -8.074  56.055  1.00  0.00     0.098 A 
BRANCH   5   9
HETATM    9  C   UNL     1       2.115  -9.784  53.858  1.00  0.00     0.012 C 
HETATM   10  C   UNL     1       1.460 -10.921  54.192  1.00  0.00     0.012 C 
BRANCH  10  11
HETATM   11  C   UNL     1       0.349 -11.497  53.449  1.00  0.00    -0.036 A 
HETATM   12  C   UNL     1      -0.963 -11.216  53.826  1.00  0.00     0.011 A 
HETATM   13  C   UNL     1      -2.028 -11.768  53.114  1.00  0.00     0.001 A 
HETATM   14  C   UNL     1      -1.779 -12.602  52.024  1.00  0.00     0.000 A 
HETATM   15  C   UNL     1      -0.466 -12.883  51.646  1.00  0.00     0.001 A 
HETATM   16  C   UNL     1       0.599 -12.331  52.358  1.00  0.00     0.011 A 
ENDBRANCH  10  11
ENDBRANCH   5   9
BRANCH   8  17
HETATM   17  O   UNL     1       6.342  -7.532  56.772  1.00  0.00    -0.358 OA
HETATM   18  H   UNL     1       6.220  -6.718  57.220  1.00  0.00     0.217 HD
ENDBRANCH   8  17
ENDBRANCH   1   3
TORSDOF 4
ENDMDL
MODEL 3
REMARK VINA RESULT:      -6.8      4.533      6.621
REMARK  4 active torsions:
REMARK  status: ('A' for Active; 'I' for Inactive)
REMARK    1  A    between atoms: O_1  and  C_9 
REMARK    2  A    between atoms: O_2  and  C_10 
REMARK    3  A    between atoms: C_3  and  C_5 
REMARK    4  A    between atoms: C_4  and  C_8 
ROOT
HETATM    1  O   UNL     1       4.523  -3.935  50.737  1.00  0.00    -0.358 OA
HETATM    2  H   UNL     1       5.232  -3.658  50.190  1.00  0.00     0.217 HD
ENDROOT
BRANCH   1   3
HETATM    3  C   UNL     1       4.060  -5.214  50.654  1.00  0.00     0.099 A 
HETATM    4  C   UNL     1       4.038  -6.010  51.799  1.00  0.00     0.050 A 
HETATM    5  C   UNL     1       3.567  -7.310  51.711  1.00  0.00    -0.033 A 
HETATM    6  C   UNL     1       3.118  -7.836  50.511  1.00  0.00     0.014 A 
HETATM    7  C   UNL     1       3.140  -7.039  49.365  1.00  0.00     0.040 A 
HETATM    8  C   UNL     1       3.611  -5.728  49.438  1.00  0.00     0.098 A 
BRANCH   5   9
HETATM    9  C   UNL     1       3.542  -8.152  52.921  1.00  0.00     0.012 C 
HETATM   10  C   UNL     1       4.211  -7.889  54.068  1.00  0.00     0.012 C 
BRANCH  10  11
HETATM   11  C   UNL     1       4.171  -8.710  55.269  1.00  0.00    -0.036 A 
HETATM   12  C   UNL     1       3.173  -9.671  55.424  1.00  0.00     0.011 A 
HETATM   13  C   UNL     1       3.135 -10.458  56.575  1.00  0.00     0.001 A 
HETATM   14  C   UNL     1       4.095 -10.283  57.571  1.00  0.00     0.000 A 
HETATM   15  C   UNL     1       5.094  -9.321  57.416  1.00  0.00     0.001 A 
HETATM   16  C   UNL     1       5.132  -8.535  56.265  1.00  0.00     0.011 A 
ENDBRANCH  10  11
ENDBRANCH   5   9
BRANCH   8  17
HETATM   17  O   UNL     1       3.630  -4.961  48.313  1.00  0.00    -0.358 OA
HETATM   18  H   UNL     1       2.825  -4.703  47.908  1.00  0.00     0.217 HD
ENDBRANCH   8  17
ENDBRANCH   1   3
TORSDOF 4
ENDMDL
MODEL 4
REMARK VINA RESULT:      -6.7      0.829      2.167
REMARK  4 active torsions:
REMARK  status: ('A' for Active; 'I' for Inactive)
REMARK    1  A    between atoms: O_1  and  C_9 
REMARK    2  A    between atoms: O_2  and  C_10 
REMARK    3  A    between atoms: C_3  and  C_5 
REMARK    4  A    between atoms: C_4  and  C_8 
ROOT
HETATM    1  O   UNL     1       5.855  -6.811  54.135  1.00  0.00    -0.358 OA
HETATM    2  H   UNL     1       5.709  -5.898  54.292  1.00  0.00     0.217 HD
ENDROOT
BRANCH   1   3
HETATM    3  C   UNL     1       5.053  -7.740  54.726  1.00  0.00     0.099 A 
HETATM    4  C   UNL     1       3.966  -8.256  54.020  1.00  0.00     0.050 A 
HETATM    5  C   UNL     1       3.152  -9.200  54.624  1.00  0.00    -0.033 A 
HETATM    6  C   UNL     1       3.394  -9.643  55.913  1.00  0.00     0.014 A 
HETATM    7  C   UNL     1       4.481  -9.127  56.620  1.00  0.00     0.040 A 
HETATM    8  C   UNL     1       5.310  -8.176  56.025  1.00  0.00     0.098 A 
BRANCH   5   9
HETATM    9  C   UNL     1       2.004  -9.746  53.878  1.00  0.00     0.012 C 
HETATM   10  C   UNL     1       1.498 -10.993  54.028  1.00  0.00     0.012 C 
BRANCH  10  11
HETATM   11  C   UNL     1       0.352 -11.526  53.306  1.00  0.00    -0.036 A 
HETATM   12  C   UNL     1       0.547 -12.349  52.198  1.00  0.00     0.011 A 
HETATM   13  C   UNL     1      -0.552 -12.859  51.506  1.00  0.00     0.001 A 
HETATM   14  C   UNL     1      -1.845 -12.545  51.923  1.00  0.00     0.000 A 
HETATM   15  C   UNL     1      -2.040 -11.722  53.032  1.00  0.00     0.001 A 
HETATM   16  C   UNL     1      -0.941 -11.212  53.724  1.00  0.00     0.011 A 
ENDBRANCH  10  11
ENDBRANCH   5   9
BRANCH   8  17
HETATM   17  O   UNL     1       6.367  -7.678  56.726  1.00  0.00    -0.358 OA
HETATM   18  H   UNL     1       6.242  -6.961  57.317  1.00  0.00     0.217 HD
ENDBRANCH   8  17
ENDBRANCH   1   3
TORSDOF 4
ENDMDL
MODEL 5
REMARK VINA RESULT:      -6.7      2.691      3.594
REMARK  4 active torsions:
REMARK  status: ('A' for Active; 'I' for Inactive)
REMARK    1  A    between atoms: O_1  and  C_9 
REMARK    2  A    between atoms: O_2  and  C_10 
REMARK    3  A    between atoms: C_3  and  C_5 
REMARK    4  A    between atoms: C_4  and  C_8 
ROOT
HETATM    1  O   UNL     1       6.286  -7.629  56.550  1.00  0.00    -0.358 OA
HETATM    2  H   UNL     1       6.297  -6.787  56.138  1.00  0.00     0.217 HD
ENDROOT
BRANCH   1   3
HETATM    3  C   UNL     1       5.216  -8.455  56.383  1.00  0.00     0.099 A 
HETATM    4  C   UNL     1       4.408  -8.311  55.255  1.00  0.00     0.050 A 
HETATM    5  C   UNL     1       3.320  -9.152  55.090  1.00  0.00    -0.033 A 
HETATM    6  C   UNL     1       3.017 -10.132  56.020  1.00  0.00     0.014 A 
HETATM    7  C   UNL     1       3.825 -10.276  57.149  1.00  0.00     0.040 A 
HETATM    8  C   UNL     1       4.924  -9.437  57.330  1.00  0.00     0.098 A 
BRANCH   5   9
HETATM    9  C   UNL     1       2.467  -9.002  53.897  1.00  0.00     0.012 C 
HETATM   10  C   UNL     1       2.405  -7.897  53.116  1.00  0.00     0.012 C 
BRANCH  10  11
HETATM   11  C   UNL     1       1.578  -7.756  51.928  1.00  0.00    -0.036 A 
HETATM   12  C   UNL     1       1.337  -6.492  51.392  1.00  0.00     0.011 A 
HETATM   13  C   UNL     1       0.544  -6.357  50.252  1.00  0.00     0.001 A 
HETATM   14  C   UNL     1      -0.008  -7.487  49.649  1.00  0.00     0.000 A 
HETATM   15  C   UNL     1       0.233  -8.752  50.185  1.00  0.00     0.001 A 
HETATM   16  C   UNL     1       1.027  -8.887  51.324  1.00  0.00     0.011 A 
ENDBRANCH  10  11
ENDBRANCH   5   9
BRANCH   8  17
HETATM   17  O   UNL     1       5.704  -9.586  58.437  1.00  0.00    -0.358 OA
HETATM   18  H   UNL     1       5.667 -10.380  58.933  1.00  0.00     0.217 HD
ENDBRANCH   8  17
ENDBRANCH   1   3
TORSDOF 4
ENDMDL
MODEL 6
REMARK VINA RESULT:      -6.7      4.441      6.713
REMARK  4 active torsions:
REMARK  status: ('A' for Active; 'I' for Inactive)
REMARK    1  A    between atoms: O_1  and  C_9 
REMARK    2  A    between atoms: O_2  and  C_10 
REMARK    3  A    between atoms: C_3  and  C_5 
REMARK    4  A    between atoms: C_4  and  C_8 
ROOT
HETATM    1  O   UNL     1       5.110  -3.916  50.263  1.00  0.00    -0.358 OA
HETATM    2  H   UNL     1       5.008  -3.005  50.463  1.00  0.00     0.217 HD
ENDROOT
BRANCH   1   3
HETATM    3  C   UNL     1       4.070  -4.775  50.455  1.00  0.00     0.099 A 
HETATM    4  C   UNL     1       4.018  -5.537  51.622  1.00  0.00     0.050 A 
HETATM    5  C   UNL     1       2.960  -6.410  51.814  1.00  0.00    -0.033 A 
HETATM    6  C   UNL     1       1.953  -6.543  50.871  1.00  0.00     0.014 A 
HETATM    7  C   UNL     1       2.006  -5.781  49.704  1.00  0.00     0.040 A 
HETATM    8  C   UNL     1       3.065  -4.897  49.497  1.00  0.00     0.098 A 
BRANCH   5   9
HETATM    9  C   UNL     1       2.902  -7.215  53.048  1.00  0.00     0.012 C 
HETATM   10  C   UNL     1       3.960  -7.832  53.626  1.00  0.00     0.012 C 
BRANCH  10  11
HETATM   11  C   UNL     1       3.907  -8.610  54.855  1.00  0.00    -0.036 A 
HETATM   12  C   UNL     1       4.867  -8.415  55.846  1.00  0.00     0.011 A 
HETATM   13  C   UNL     1       4.816  -9.160  57.024  1.00  0.00     0.001 A 
HETATM   14  C   UNL     1       3.804 -10.102  57.209  1.00  0.00     0.000 A 
HETATM   15  C   UNL     1       2.843 -10.298  56.217  1.00  0.00     0.001 A 
HETATM   16  C   UNL     1       2.894  -9.551  55.040  1.00  0.00     0.011 A 
ENDBRANCH  10  11
ENDBRANCH   5   9
BRANCH   8  17
HETATM   17  O   UNL     1       3.107  -4.160  48.352  1.00  0.00    -0.358 OA
HETATM   18  H   UNL     1       3.177  -3.226  48.398  1.00  0.00     0.217 HD
ENDBRANCH   8  17
ENDBRANCH   1   3
TORSDOF 4
ENDMDL
MODEL 7
REMARK VINA RESULT:      -6.6      1.426      2.169
REMARK  4 active torsions:
REMARK  status: ('A' for Active; 'I' for Inactive)
REMARK    1  A    between atoms: O_1  and  C_9 
REMARK    2  A    between atoms: O_2  and  C_10 
REMARK    3  A    between atoms: C_3  and  C_5 
REMARK    4  A    between atoms: C_4  and  C_8 
ROOT
HETATM    1  O   UNL     1       6.252  -7.713  56.387  1.00  0.00    -0.358 OA
HETATM    2  H   UNL     1       6.361  -7.114  57.100  1.00  0.00     0.217 HD
ENDROOT
BRANCH   1   3
HETATM    3  C   UNL     1       5.194  -8.572  56.375  1.00  0.00     0.099 A 
HETATM    4  C   UNL     1       4.287  -8.528  55.316  1.00  0.00     0.050 A 
HETATM    5  C   UNL     1       3.213  -9.402  55.308  1.00  0.00    -0.033 A 
HETATM    6  C   UNL     1       3.020 -10.318  56.329  1.00  0.00     0.014 A 
HETATM    7  C   UNL     1       3.927 -10.362  57.388  1.00  0.00     0.040 A 
HETATM    8  C   UNL     1       5.014  -9.488  57.411  1.00  0.00     0.098 A 
BRANCH   5   9
HETATM    9  C   UNL     1       2.254  -9.357  54.189  1.00  0.00     0.012 C 
HETATM   10  C   UNL     1       1.628 -10.433  53.655  1.00  0.00     0.012 C 
BRANCH  10  11
HETATM   11  C   UNL     1       0.667 -10.386  52.563  1.00  0.00    -0.036 A 
HETATM   12  C   UNL     1      -0.630 -10.859  52.755  1.00  0.00     0.011 A 
HETATM   13  C   UNL     1      -1.551 -10.814  51.709  1.00  0.00     0.001 A 
HETATM   14  C   UNL     1      -1.173 -10.296  50.470  1.00  0.00     0.000 A 
HETATM   15  C   UNL     1       0.125  -9.823  50.278  1.00  0.00     0.001 A 
HETATM   16  C   UNL     1       1.045  -9.867  51.325  1.00  0.00     0.011 A 
ENDBRANCH  10  11
ENDBRANCH   5   9
BRANCH   8  17
HETATM   17  O   UNL     1       5.892  -9.539  58.451  1.00  0.00    -0.358 OA
HETATM   18  H   UNL     1       6.163  -8.748  58.874  1.00  0.00     0.217 HD
ENDBRANCH   8  17
ENDBRANCH   1   3
TORSDOF 4
ENDMDL
MODEL 8
REMARK VINA RESULT:      -6.6      3.803      7.221
REMARK  4 active torsions:
REMARK  status: ('A' for Active; 'I' for Inactive)
REMARK    1  A    between atoms: O_1  and  C_9 
REMARK    2  A    between atoms: O_2  and  C_10 
REMARK    3  A    between atoms: C_3  and  C_5 
REMARK    4  A    between atoms: C_4  and  C_8 
ROOT
HETATM    1  O   UNL     1      -0.878 -13.638  51.549  1.00  0.00    -0.358 OA
HETATM    2  H   UNL     1      -0.753 -14.543  51.759  1.00  0.00     0.217 HD
ENDROOT
BRANCH   1   3
HETATM    3  C   UNL     1      -0.860 -12.701  52.538  1.00  0.00     0.099 A 
HETATM    4  C   UNL     1       0.331 -12.444  53.217  1.00  0.00     0.050 A 
HETATM    5  C   UNL     1       0.345 -11.491  54.223  1.00  0.00    -0.033 A 
HETATM    6  C   UNL     1      -0.797 -10.789  54.568  1.00  0.00     0.014 A 
HETATM    7  C   UNL     1      -1.989 -11.046  53.889  1.00  0.00     0.040 A 
HETATM    8  C   UNL     1      -2.019 -12.002  52.874  1.00  0.00     0.098 A 
BRANCH   5   9
HETATM    9  C   UNL     1       1.604 -11.218  54.940  1.00  0.00     0.012 C 
HETATM   10  C   UNL     1       2.064  -9.986  55.267  1.00  0.00     0.012 C 
BRANCH  10  11
HETATM   11  C   UNL     1       3.296  -9.718  55.993  1.00  0.00    -0.036 A 
HETATM   12  C   UNL     1       3.618 -10.468  57.122  1.00  0.00     0.011 A 
HETATM   13  C   UNL     1       4.800 -10.210  57.818  1.00  0.00     0.001 A 
HETATM   14  C   UNL     1       5.659  -9.202  57.381  1.00  0.00     0.000 A 
HETATM   15  C   UNL     1       5.337  -8.451  56.251  1.00  0.00     0.001 A 
HETATM   16  C   UNL     1       4.156  -8.709  55.556  1.00  0.00     0.011 A 
ENDBRANCH  10  11
ENDBRANCH   5   9
BRANCH   8  17
HETATM   17  O   UNL     1      -3.189 -12.246  52.219  1.00  0.00    -0.358 OA
HETATM   18  H   UNL     1      -3.632 -13.063  52.341  1.00  0.00     0.217 HD
ENDBRANCH   8  17
ENDBRANCH   1   3
TORSDOF 4
ENDMDL
MODEL 9
REMARK VINA RESULT:      -6.6      3.238      4.915
REMARK  4 active torsions:
REMARK  status: ('A' for Active; 'I' for Inactive)
REMARK    1  A    between atoms: O_1  and  C_9 
REMARK    2  A    between atoms: O_2  and  C_10 
REMARK    3  A    between atoms: C_3  and  C_5 
REMARK    4  A    between atoms: C_4  and  C_8 
ROOT
HETATM    1  O   UNL     1       5.877  -8.592  57.382  1.00  0.00    -0.358 OA
HETATM    2  H   UNL     1       6.455  -7.982  56.967  1.00  0.00     0.217 HD
ENDROOT
BRANCH   1   3
HETATM    3  C   UNL     1       4.796  -9.073  56.705  1.00  0.00     0.099 A 
HETATM    4  C   UNL     1       4.425  -8.482  55.498  1.00  0.00     0.050 A 
HETATM    5  C   UNL     1       3.325  -8.973  54.813  1.00  0.00    -0.033 A 
HETATM    6  C   UNL     1       2.587 -10.038  55.301  1.00  0.00     0.014 A 
HETATM    7  C   UNL     1       2.959 -10.630  56.509  1.00  0.00     0.040 A 
HETATM    8  C   UNL     1       4.063 -10.147  57.210  1.00  0.00     0.098 A 
BRANCH   5   9
HETATM    9  C   UNL     1       2.932  -8.349  53.536  1.00  0.00     0.012 C 
HETATM   10  C   UNL     1       3.260  -7.093  53.148  1.00  0.00     0.012 C 
BRANCH  10  11
HETATM   11  C   UNL     1       2.889  -6.484  51.880  1.00  0.00    -0.036 A 
HETATM   12  C   UNL     1       1.577  -6.575  51.419  1.00  0.00     0.011 A 
HETATM   13  C   UNL     1       1.221  -5.992  50.203  1.00  0.00     0.001 A 
HETATM   14  C   UNL     1       2.180  -5.317  49.448  1.00  0.00     0.000 A 
HETATM   15  C   UNL     1       3.494  -5.225  49.909  1.00  0.00     0.001 A 
HETATM   16  C   UNL     1       3.848  -5.809  51.125  1.00  0.00     0.011 A 
ENDBRANCH  10  11
ENDBRANCH   5   9
BRANCH   8  17
HETATM   17  O   UNL     1       4.415 -10.731  58.389  1.00  0.00    -0.358 OA
HETATM   18  H   UNL     1       5.297 -10.666  58.700  1.00  0.00     0.217 HD
ENDBRANCH   8  17
ENDBRANCH   1   3
TORSDOF 4
ENDMDL
