MODEL 1
REMARK VINA RESULT:      -6.9      0.000      0.000
REMARK  4 active torsions:
REMARK  status: ('A' for Active; 'I' for Inactive)
REMARK    1  A    between atoms: O_1  and  C_9 
REMARK    2  A    between atoms: O_2  and  C_10 
REMARK    3  A    between atoms: C_3  and  C_5 
REMARK    4  A    between atoms: C_4  and  C_8 
ROOT
HETATM    1  O   UNL     1       8.554  -0.066  52.000  1.00  0.00    -0.358 OA
HETATM    2  H   UNL     1       8.675   0.148  51.095  1.00  0.00     0.217 HD
ENDROOT
BRANCH   1   3
HETATM    3  C   UNL     1       7.466  -0.789  52.389  1.00  0.00     0.099 A 
HETATM    4  C   UNL     1       7.512  -1.506  53.585  1.00  0.00     0.050 A 
HETATM    5  C   UNL     1       6.405  -2.240  53.977  1.00  0.00    -0.033 A 
HETATM    6  C   UNL     1       5.254  -2.278  53.207  1.00  0.00     0.014 A 
HETATM    7  C   UNL     1       5.208  -1.560  52.011  1.00  0.00     0.040 A 
HETATM    8  C   UNL     1       6.315  -0.816  51.603  1.00  0.00     0.098 A 
BRANCH   5   9
HETATM    9  C   UNL     1       6.452  -2.997  55.241  1.00  0.00     0.012 C 
HETATM   10  C   UNL     1       6.775  -2.479  56.449  1.00  0.00     0.012 C 
BRANCH  10  11
HETATM   11  C   UNL     1       6.802  -3.222  57.700  1.00  0.00    -0.036 A 
HETATM   12  C   UNL     1       5.781  -4.122  57.999  1.00  0.00     0.011 A 
HETATM   13  C   UNL     1       5.807  -4.835  59.198  1.00  0.00     0.001 A 
HETATM   14  C   UNL     1       6.856  -4.645  60.098  1.00  0.00     0.000 A 
HETATM   15  C   UNL     1       7.878  -3.745  59.799  1.00  0.00     0.001 A 
HETATM   16  C   UNL     1       7.852  -3.033  58.599  1.00  0.00     0.011 A 
ENDBRANCH  10  11
ENDBRANCH   5   9
BRANCH   8  17
HETATM   17  O   UNL     1       6.259  -0.122  50.432  1.00  0.00    -0.358 OA
HETATM   18  H   UNL     1       6.579   0.759  50.394  1.00  0.00     0.217 HD
ENDBRANCH   8  17
ENDBRANCH   1   3
TORSDOF 4
ENDMDL
MODEL 2
REMARK VINA RESULT:      -6.9      0.387      1.267
REMARK  4 active torsions:
REMARK  status: ('A' for Active; 'I' for Inactive)
REMARK    1  A    between atoms: O_1  and  C_9 
REMARK    2  A    between atoms: O_2  and  C_10 
REMARK    3  A    between atoms: C_3  and  C_5 
REMARK    4  A    between atoms: C_4  and  C_8 
ROOT
HETATM    1  O   UNL     1       8.700   0.091  51.890  1.00  0.00    -0.358 OA
HETATM    2  H   UNL     1       8.683   1.011  52.072  1.00  0.00     0.217 HD
ENDROOT
BRANCH   1   3
HETATM    3  C   UNL     1       7.608  -0.677  52.164  1.00  0.00     0.099 A 
HETATM    4  C   UNL     1       7.549  -1.380  53.367  1.00  0.00     0.050 A 
HETATM    5  C   UNL     1       6.438  -2.160  53.642  1.00  0.00    -0.033 A 
HETATM    6  C   UNL     1       5.385  -2.257  52.748  1.00  0.00     0.014 A 
HETATM    7  C   UNL     1       5.444  -1.554  51.544  1.00  0.00     0.040 A 
HETATM    8  C   UNL     1       6.556  -0.764  51.253  1.00  0.00     0.098 A 
BRANCH   5   9
HETATM    9  C   UNL     1       6.374  -2.902  54.914  1.00  0.00     0.012 C 
HETATM   10  C   UNL     1       6.818  -2.443  56.108  1.00  0.00     0.012 C 
BRANCH  10  11
HETATM   11  C   UNL     1       6.737  -3.168  57.367  1.00  0.00    -0.036 A 
HETATM   12  C   UNL     1       7.717  -2.986  58.341  1.00  0.00     0.011 A 
HETATM   13  C   UNL     1       7.639  -3.681  59.549  1.00  0.00     0.001 A 
HETATM   14  C   UNL     1       6.579  -4.558  59.780  1.00  0.00     0.000 A 
HETATM   15  C   UNL     1       5.598  -4.740  58.806  1.00  0.00     0.001 A 
HETATM   16  C   UNL     1       5.676  -4.045  57.599  1.00  0.00     0.011 A 
ENDBRANCH  10  11
ENDBRANCH   5   9
BRANCH   8  17
HETATM   17  O   UNL     1       6.603  -0.083  50.074  1.00  0.00    -0.358 OA
HETATM   18  H   UNL     1       6.203   0.762  50.004  1.00  0.00     0.217 HD
ENDBRANCH   8  17
ENDBRANCH   1   3
TORSDOF 4
ENDMDL
MODEL 3
REMARK VINA RESULT:      -6.9      4.344      6.247
REMARK  4 active torsions:
REMARK  status: ('A' for Active; 'I' for Inactive)
REMARK    1  A    between atoms: O_1  and  C_9 
REMARK    2  A    between atoms: O_2  and  C_10 
REMARK    3  A    between atoms: C_3  and  C_5 
REMARK    4  A    between atoms: C_4  and  C_8 
ROOT
HETATM    1  O   UNL     1       8.720  -3.397  59.423  1.00  0.00    -0.358 OA
HETATM    2  H   UNL     1       9.509  -2.906  59.300  1.00  0.00     0.217 HD
ENDROOT
BRANCH   1   3
HETATM    3  C   UNL     1       7.597  -3.069  58.724  1.00  0.00     0.099 A 
HETATM    4  C   UNL     1       6.570  -4.005  58.598  1.00  0.00     0.050 A 
HETATM    5  C   UNL     1       5.431  -3.668  57.885  1.00  0.00    -0.033 A 
HETATM    6  C   UNL     1       5.290  -2.423  57.295  1.00  0.00     0.014 A 
HETATM    7  C   UNL     1       6.318  -1.487  57.421  1.00  0.00     0.040 A 
HETATM    8  C   UNL     1       7.471  -1.811  58.135  1.00  0.00     0.098 A 
BRANCH   5   9
HETATM    9  C   UNL     1       4.345  -4.656  57.753  1.00  0.00     0.012 C 
HETATM   10  C   UNL     1       3.668  -4.922  56.611  1.00  0.00     0.012 C 
BRANCH  10  11
HETATM   11  C   UNL     1       2.609  -5.911  56.475  1.00  0.00    -0.036 A 
HETATM   12  C   UNL     1       1.422  -5.765  57.192  1.00  0.00     0.011 A 
HETATM   13  C   UNL     1       0.407  -6.713  57.062  1.00  0.00     0.001 A 
HETATM   14  C   UNL     1       0.580  -7.807  56.214  1.00  0.00     0.000 A 
HETATM   15  C   UNL     1       1.768  -7.954  55.497  1.00  0.00     0.001 A 
HETATM   16  C   UNL     1       2.782  -7.005  55.627  1.00  0.00     0.011 A 
ENDBRANCH  10  11
ENDBRANCH   5   9
BRANCH   8  17
HETATM   17  O   UNL     1       8.468  -0.890  58.249  1.00  0.00    -0.358 OA
HETATM   18  H   UNL     1       9.331  -1.162  58.493  1.00  0.00     0.217 HD
ENDBRANCH   8  17
ENDBRANCH   1   3
TORSDOF 4
ENDMDL
MODEL 4
REMARK VINA RESULT:      -6.6      3.348      7.051
REMARK  4 active torsions:
REMARK  status: ('A' for Active; 'I' for Inactive)
REMARK    1  A    between atoms: O_1  and  C_9 
REMARK    2  A    between atoms: O_2  and  C_10 
REMARK    3  A    between atoms: C_3  and  C_5 
REMARK    4  A    between atoms: C_4  and  C_8 
ROOT
HETATM    1  O   UNL     1       8.305  -2.697  59.155  1.00  0.00    -0.358 OA
HETATM    2  H   UNL     1       8.182  -2.027  59.799  1.00  0.00     0.217 HD
ENDROOT
BRANCH   1   3
HETATM    3  C   UNL     1       7.235  -3.402  58.693  1.00  0.00     0.099 A 
HETATM    4  C   UNL     1       6.862  -3.284  57.354  1.00  0.00     0.050 A 
HETATM    5  C   UNL     1       5.773  -4.002  56.888  1.00  0.00    -0.033 A 
HETATM    6  C   UNL     1       5.046  -4.834  57.723  1.00  0.00     0.014 A 
HETATM    7  C   UNL     1       5.419  -4.952  59.063  1.00  0.00     0.040 A 
HETATM    8  C   UNL     1       6.513  -4.236  59.547  1.00  0.00     0.098 A 
BRANCH   5   9
HETATM    9  C   UNL     1       5.379  -3.879  55.473  1.00  0.00     0.012 C 
HETATM   10  C   UNL     1       5.876  -2.969  54.602  1.00  0.00     0.012 C 
BRANCH  10  11
HETATM   11  C   UNL     1       5.501  -2.860  53.200  1.00  0.00    -0.036 A 
HETATM   12  C   UNL     1       5.659  -1.649  52.528  1.00  0.00     0.011 A 
HETATM   13  C   UNL     1       5.301  -1.545  51.183  1.00  0.00     0.001 A 
HETATM   14  C   UNL     1       4.785  -2.653  50.513  1.00  0.00     0.000 A 
HETATM   15  C   UNL     1       4.627  -3.865  51.185  1.00  0.00     0.001 A 
HETATM   16  C   UNL     1       4.986  -3.969  52.529  1.00  0.00     0.011 A 
ENDBRANCH  10  11
ENDBRANCH   5   9
BRANCH   8  17
HETATM   17  O   UNL     1       6.866  -4.358  60.857  1.00  0.00    -0.358 OA
HETATM   18  H   UNL     1       6.668  -3.670  61.462  1.00  0.00     0.217 HD
ENDBRANCH   8  17
ENDBRANCH   1   3
TORSDOF 4
ENDMDL
MODEL 5
REMARK VINA RESULT:      -6.6      1.855      2.852
REMARK  4 active torsions:
REMARK  status: ('A' for Active; 'I' for Inactive)
REMARK    1  A    between atoms: O_1  and  C_9 
REMARK    2  A    between atoms: O_2  and  C_10 
REMARK    3  A    between atoms: C_3  and  C_5 
REMARK    4  A    between atoms: C_4  and  C_8 
ROOT
HETATM    1  O   UNL     1       5.763   0.324  52.649  1.00  0.00    -0.358 OA
HETATM    2  H   UNL     1       5.217   0.899  53.149  1.00  0.00     0.217 HD
ENDROOT
BRANCH   1   3
HETATM    3  C   UNL     1       6.529  -0.608  53.282  1.00  0.00     0.099 A 
HETATM    4  C   UNL     1       5.964  -1.394  54.286  1.00  0.00     0.050 A 
HETATM    5  C   UNL     1       6.746  -2.340  54.927  1.00  0.00    -0.033 A 
HETATM    6  C   UNL     1       8.078  -2.522  54.593  1.00  0.00     0.014 A 
HETATM    7  C   UNL     1       8.644  -1.736  53.589  1.00  0.00     0.040 A 
HETATM    8  C   UNL     1       7.869  -0.780  52.933  1.00  0.00     0.098 A 
BRANCH   5   9
HETATM    9  C   UNL     1       6.149  -3.172  55.988  1.00  0.00     0.012 C 
HETATM   10  C   UNL     1       5.216  -4.133  55.792  1.00  0.00     0.012 C 
BRANCH  10  11
HETATM   11  C   UNL     1       4.641  -4.968  56.837  1.00  0.00    -0.036 A 
HETATM   12  C   UNL     1       3.576  -5.818  56.543  1.00  0.00     0.011 A 
HETATM   13  C   UNL     1       3.025  -6.618  57.545  1.00  0.00     0.001 A 
HETATM   14  C   UNL     1       3.541  -6.567  58.840  1.00  0.00     0.000 A 
HETATM   15  C   UNL     1       4.607  -5.716  59.134  1.00  0.00     0.001 A 
HETATM   16  C   UNL     1       5.157  -4.917  58.132  1.00  0.00     0.011 A 
ENDBRANCH  10  11
ENDBRANCH   5   9
BRANCH   8  17
HETATM   17  O   UNL     1       8.433  -0.017  51.956  1.00  0.00    -0.358 OA
HETATM   18  H   UNL     1       9.248  -0.275  51.571  1.00  0.00     0.217 HD
ENDBRANCH   8  17
ENDBRANCH   1   3
TORSDOF 4
ENDMDL
MODEL 6
REMARK VINA RESULT:      -6.6      4.027      5.873
REMARK  4 active torsions:
REMARK  status: ('A' for Active; 'I' for Inactive)
REMARK    1  A    between atoms: O_1  and  C_9 
REMARK    2  A    between atoms: O_2  and  C_10 
REMARK    3  A    between atoms: C_3  and  C_5 
REMARK    4  A    between atoms: C_4  and  C_8 
ROOT
HETATM    1  O   UNL     1       6.580   0.004  56.431  1.00  0.00    -0.358 OA
HETATM    2  H   UNL     1       6.007   0.683  56.730  1.00  0.00     0.217 HD
ENDROOT
BRANCH   1   3
HETATM    3  C   UNL     1       6.478  -1.251  56.952  1.00  0.00     0.099 A 
HETATM    4  C   UNL     1       5.421  -2.072  56.560  1.00  0.00     0.050 A 
HETATM    5  C   UNL     1       5.320  -3.347  57.092  1.00  0.00    -0.033 A 
HETATM    6  C   UNL     1       6.246  -3.824  58.005  1.00  0.00     0.014 A 
HETATM    7  C   UNL     1       7.304  -3.002  58.397  1.00  0.00     0.040 A 
HETATM    8  C   UNL     1       7.419  -1.716  57.870  1.00  0.00     0.098 A 
BRANCH   5   9
HETATM    9  C   UNL     1       4.203  -4.216  56.677  1.00  0.00     0.012 C 
HETATM   10  C   UNL     1       3.986  -5.474  57.127  1.00  0.00     0.012 C 
BRANCH  10  11
HETATM   11  C   UNL     1       2.873  -6.325  56.733  1.00  0.00    -0.036 A 
HETATM   12  C   UNL     1       1.641  -6.203  57.374  1.00  0.00     0.011 A 
HETATM   13  C   UNL     1       0.574  -7.018  56.996  1.00  0.00     0.001 A 
HETATM   14  C   UNL     1       0.740  -7.954  55.976  1.00  0.00     0.000 A 
HETATM   15  C   UNL     1       1.972  -8.076  55.333  1.00  0.00     0.001 A 
HETATM   16  C   UNL     1       3.039  -7.260  55.712  1.00  0.00     0.011 A 
ENDBRANCH  10  11
ENDBRANCH   5   9
BRANCH   8  17
HETATM   17  O   UNL     1       8.455  -0.923  58.262  1.00  0.00    -0.358 OA
HETATM   18  H   UNL     1       9.014  -0.531  57.620  1.00  0.00     0.217 HD
ENDBRANCH   8  17
ENDBRANCH   1   3
TORSDOF 4
ENDMDL
MODEL 7
REMARK VINA RESULT:      -6.6      3.099      6.811
REMARK  4 active torsions:
REMARK  status: ('A' for Active; 'I' for Inactive)
REMARK    1  A    between atoms: O_1  and  C_9 
REMARK    2  A    between atoms: O_2  and  C_10 
REMARK    3  A    between atoms: C_3  and  C_5 
REMARK    4  A    between atoms: C_4  and  C_8 
ROOT
HETATM    1  O   UNL     1       8.438  -0.957  58.267  1.00  0.00    -0.358 OA
HETATM    2  H   UNL     1       8.628  -0.355  57.574  1.00  0.00     0.217 HD
ENDROOT
BRANCH   1   3
HETATM    3  C   UNL     1       7.555  -1.975  58.063  1.00  0.00     0.099 A 
HETATM    4  C   UNL     1       6.672  -1.909  56.985  1.00  0.00     0.050 A 
HETATM    5  C   UNL     1       5.775  -2.945  56.781  1.00  0.00    -0.033 A 
HETATM    6  C   UNL     1       5.737  -4.044  57.623  1.00  0.00     0.014 A 
HETATM    7  C   UNL     1       6.621  -4.109  58.701  1.00  0.00     0.040 A 
HETATM    8  C   UNL     1       7.529  -3.074  58.920  1.00  0.00     0.098 A 
BRANCH   5   9
HETATM    9  C   UNL     1       4.842  -2.878  55.642  1.00  0.00     0.012 C 
HETATM   10  C   UNL     1       5.108  -2.295  54.449  1.00  0.00     0.012 C 
BRANCH  10  11
HETATM   11  C   UNL     1       4.194  -2.246  53.317  1.00  0.00    -0.036 A 
HETATM   12  C   UNL     1       4.685  -2.014  52.034  1.00  0.00     0.011 A 
HETATM   13  C   UNL     1       3.809  -1.966  50.949  1.00  0.00     0.001 A 
HETATM   14  C   UNL     1       2.441  -2.152  51.150  1.00  0.00     0.000 A 
HETATM   15  C   UNL     1       1.950  -2.385  52.435  1.00  0.00     0.001 A 
HETATM   16  C   UNL     1       2.827  -2.433  53.519  1.00  0.00     0.011 A 
ENDBRANCH  10  11
ENDBRANCH   5   9
BRANCH   8  17
HETATM   17  O   UNL     1       8.386  -3.149  59.977  1.00  0.00    -0.358 OA
HETATM   18  H   UNL     1       8.217  -3.750  60.676  1.00  0.00     0.217 HD
ENDBRANCH   8  17
ENDBRANCH   1   3
TORSDOF 4
ENDMDL
MODEL 8
REMARK VINA RESULT:      -6.5      2.694      3.916
REMARK  4 active torsions:
REMARK  status: ('A' for Active; 'I' for Inactive)
REMARK    1  A    between atoms: O_1  and  C_9 
REMARK    2  A    between atoms: O_2  and  C_10 
REMARK    3  A    between atoms: C_3  and  C_5 
REMARK    4  A    between atoms: C_4  and  C_8 
ROOT
HETATM    1  O   UNL     1       7.679  -0.142  48.516  1.00  0.00    -0.358 OA
HETATM    2  H   UNL     1       7.482   0.590  47.965  1.00  0.00     0.217 HD
ENDROOT
BRANCH   1   3
HETATM    3  C   UNL     1       6.678  -0.774  49.192  1.00  0.00     0.099 A 
HETATM    4  C   UNL     1       6.672  -0.752  50.586  1.00  0.00     0.050 A 
HETATM    5  C   UNL     1       5.654  -1.396  51.269  1.00  0.00    -0.033 A 
HETATM    6  C   UNL     1       4.642  -2.062  50.597  1.00  0.00     0.014 A 
HETATM    7  C   UNL     1       4.648  -2.084  49.202  1.00  0.00     0.040 A 
HETATM    8  C   UNL     1       5.667  -1.440  48.500  1.00  0.00     0.098 A 
BRANCH   5   9
HETATM    9  C   UNL     1       5.645  -1.372  52.743  1.00  0.00     0.012 C 
HETATM   10  C   UNL     1       5.842  -0.271  53.506  1.00  0.00     0.012 C 
BRANCH  10  11
HETATM   11  C   UNL     1       5.814  -0.243  54.961  1.00  0.00    -0.036 A 
HETATM   12  C   UNL     1       5.063   0.724  55.626  1.00  0.00     0.011 A 
HETATM   13  C   UNL     1       5.036   0.750  57.021  1.00  0.00     0.001 A 
HETATM   14  C   UNL     1       5.762  -0.192  57.749  1.00  0.00     0.000 A 
HETATM   15  C   UNL     1       6.514  -1.160  57.084  1.00  0.00     0.001 A 
HETATM   16  C   UNL     1       6.540  -1.186  55.689  1.00  0.00     0.011 A 
ENDBRANCH  10  11
ENDBRANCH   5   9
BRANCH   8  17
HETATM   17  O   UNL     1       5.663  -1.471  47.138  1.00  0.00    -0.358 OA
HETATM   18  H   UNL     1       4.887  -1.240  46.666  1.00  0.00     0.217 HD
ENDBRANCH   8  17
ENDBRANCH   1   3
TORSDOF 4
ENDMDL
MODEL 9
REMARK VINA RESULT:      -6.5      1.847      2.377
REMARK  4 active torsions:
REMARK  status: ('A' for Active; 'I' for Inactive)
REMARK    1  A    between atoms: O_1  and  C_9 
REMARK    2  A    between atoms: O_2  and  C_10 
REMARK    3  A    between atoms: C_3  and  C_5 
REMARK    4  A    between atoms: C_4  and  C_8 
ROOT
HETATM    1  O   UNL     1       6.400   0.661  53.035  1.00  0.00    -0.358 OA
HETATM    2  H   UNL     1       5.847   1.417  53.078  1.00  0.00     0.217 HD
ENDROOT
BRANCH   1   3
HETATM    3  C   UNL     1       5.861  -0.562  52.770  1.00  0.00     0.099 A 
HETATM    4  C   UNL     1       5.436  -1.368  53.826  1.00  0.00     0.050 A 
HETATM    5  C   UNL     1       4.890  -2.611  53.553  1.00  0.00    -0.033 A 
HETATM    6  C   UNL     1       4.756  -3.071  52.254  1.00  0.00     0.014 A 
HETATM    7  C   UNL     1       5.181  -2.265  51.196  1.00  0.00     0.040 A 
HETATM    8  C   UNL     1       5.733  -1.011  51.455  1.00  0.00     0.098 A 
BRANCH   5   9
HETATM    9  C   UNL     1       4.440  -3.462  54.669  1.00  0.00     0.012 C 
HETATM   10  C   UNL     1       5.240  -3.965  55.639  1.00  0.00     0.012 C 
BRANCH  10  11
HETATM   11  C   UNL     1       4.793  -4.789  56.752  1.00  0.00    -0.036 A 
HETATM   12  C   UNL     1       3.751  -5.697  56.572  1.00  0.00     0.011 A 
HETATM   13  C   UNL     1       3.322  -6.487  57.639  1.00  0.00     0.001 A 
HETATM   14  C   UNL     1       3.937  -6.368  58.885  1.00  0.00     0.000 A 
HETATM   15  C   UNL     1       4.981  -5.459  59.065  1.00  0.00     0.001 A 
HETATM   16  C   UNL     1       5.409  -4.670  57.998  1.00  0.00     0.011 A 
ENDBRANCH  10  11
ENDBRANCH   5   9
BRANCH   8  17
HETATM   17  O   UNL     1       6.146  -0.234  50.415  1.00  0.00    -0.358 OA
HETATM   18  H   UNL     1       5.969   0.686  50.418  1.00  0.00     0.217 HD
ENDBRANCH   8  17
ENDBRANCH   1   3
TORSDOF 4
ENDMDL
