MODEL 1
REMARK VINA RESULT:      -6.6      0.000      0.000
REMARK  6 active torsions:
REMARK  status: ('A' for Active; 'I' for Inactive)
REMARK    1  A    between atoms: O_1  and  C_11 
REMARK    2  A    between atoms: O_3  and  C_14 
REMARK    3  A    between atoms: N_5  and  CA_7 
REMARK    4  A    between atoms: C_6  and  CA_7 
REMARK    5  A    between atoms: C_6  and  C_8 
REMARK    6  A    between atoms: CA_7  and  C_12 
ROOT
HETATM    1  O   UNL     1     -53.776  52.290   9.738  1.00  0.00    -0.358 OA
HETATM    2  H   UNL     1     -53.270  52.947  10.173  1.00  0.00     0.217 HD
ENDROOT
BRANCH   1   3
HETATM    3  C   UNL     1     -53.609  50.977  10.062  1.00  0.00     0.099 A 
HETATM    4  C   UNL     1     -53.683  50.584  11.398  1.00  0.00     0.046 A 
HETATM    5  C   UNL     1     -53.512  49.249  11.722  1.00  0.00    -0.053 A 
HETATM    6  C   UNL     1     -53.268  48.295  10.749  1.00  0.00     0.010 A 
HETATM    7  C   UNL     1     -53.194  48.687   9.413  1.00  0.00     0.040 A 
HETATM    8  C   UNL     1     -53.364  50.029   9.069  1.00  0.00     0.098 A 
BRANCH   5   9
HETATM    9  C   UNL     1     -53.594  48.824  13.171  1.00  0.00     0.082 C 
BRANCH   9  10
HETATM   10  CA  UNL     1     -52.242  48.351  13.730  1.00  0.00     0.287 C 
BRANCH  10  11
HETATM   11  N   UNL     1     -52.282  46.908  13.962  1.00  0.00    -0.065 N 
HETATM   12  H   UNL     1     -52.223  46.418  13.069  1.00  0.00     0.275 HD
HETATM   13  H   UNL     1     -53.156  46.662  14.428  1.00  0.00     0.275 HD
HETATM   14  H   UNL     1     -51.496  46.637  14.552  1.00  0.00     0.275 HD
ENDBRANCH  10  11
BRANCH  10  15
HETATM   15  C   UNL     1     -51.919  48.997  15.066  1.00  0.00     0.204 C 
HETATM   16  O   UNL     1     -50.877  48.393  15.693  1.00  0.00    -0.646 OA
HETATM   17  OXT UNL     1     -52.533  49.937  15.556  1.00  0.00    -0.646 OA
ENDBRANCH  10  15
ENDBRANCH   9  10
ENDBRANCH   5   9
BRANCH   8  18
HETATM   18  O   UNL     1     -53.287  50.400   7.760  1.00  0.00    -0.358 OA
HETATM   19  H   UNL     1     -53.366  49.755   7.085  1.00  0.00     0.217 HD
ENDBRANCH   8  18
ENDBRANCH   1   3
TORSDOF 6
ENDMDL
MODEL 2
REMARK VINA RESULT:      -6.4      0.723      1.792
REMARK  6 active torsions:
REMARK  status: ('A' for Active; 'I' for Inactive)
REMARK    1  A    between atoms: O_1  and  C_11 
REMARK    2  A    between atoms: O_3  and  C_14 
REMARK    3  A    between atoms: N_5  and  CA_7 
REMARK    4  A    between atoms: C_6  and  CA_7 
REMARK    5  A    between atoms: C_6  and  C_8 
REMARK    6  A    between atoms: CA_7  and  C_12 
ROOT
HETATM    1  O   UNL     1     -53.440  47.838   8.421  1.00  0.00    -0.358 OA
HETATM    2  H   UNL     1     -54.044  47.122   8.421  1.00  0.00     0.217 HD
ENDROOT
BRANCH   1   3
HETATM    3  C   UNL     1     -53.474  48.757   9.426  1.00  0.00     0.099 A 
HETATM    4  C   UNL     1     -53.529  48.326  10.751  1.00  0.00     0.046 A 
HETATM    5  C   UNL     1     -53.564  49.264  11.768  1.00  0.00    -0.053 A 
HETATM    6  C   UNL     1     -53.547  50.622  11.499  1.00  0.00     0.010 A 
HETATM    7  C   UNL     1     -53.492  51.055  10.175  1.00  0.00     0.040 A 
HETATM    8  C   UNL     1     -53.456  50.122   9.137  1.00  0.00     0.098 A 
BRANCH   5   9
HETATM    9  C   UNL     1     -53.621  48.796  13.204  1.00  0.00     0.082 C 
BRANCH   9  10
HETATM   10  CA  UNL     1     -52.253  48.344  13.740  1.00  0.00     0.287 C 
BRANCH  10  11
HETATM   11  N   UNL     1     -52.263  46.899  13.962  1.00  0.00    -0.065 N 
HETATM   12  H   UNL     1     -51.639  46.669  14.736  1.00  0.00     0.275 HD
HETATM   13  H   UNL     1     -51.946  46.423  13.117  1.00  0.00     0.275 HD
HETATM   14  H   UNL     1     -53.210  46.596  14.187  1.00  0.00     0.275 HD
ENDBRANCH  10  11
BRANCH  10  15
HETATM   15  C   UNL     1     -51.921  48.986  15.076  1.00  0.00     0.204 C 
HETATM   16  O   UNL     1     -50.879  48.377  15.696  1.00  0.00    -0.646 OA
HETATM   17  OXT UNL     1     -52.529  49.928  15.570  1.00  0.00    -0.646 OA
ENDBRANCH  10  15
ENDBRANCH   9  10
ENDBRANCH   5   9
BRANCH   8  18
HETATM   18  O   UNL     1     -53.405  50.556   7.847  1.00  0.00    -0.358 OA
HETATM   19  H   UNL     1     -53.598  51.451   7.646  1.00  0.00     0.217 HD
ENDBRANCH   8  18
ENDBRANCH   1   3
TORSDOF 6
ENDMDL
MODEL 3
REMARK VINA RESULT:      -5.9      3.047      5.839
REMARK  6 active torsions:
REMARK  status: ('A' for Active; 'I' for Inactive)
REMARK    1  A    between atoms: O_1  and  C_11 
REMARK    2  A    between atoms: O_3  and  C_14 
REMARK    3  A    between atoms: N_5  and  CA_7 
REMARK    4  A    between atoms: C_6  and  CA_7 
REMARK    5  A    between atoms: C_6  and  C_8 
REMARK    6  A    between atoms: CA_7  and  C_12 
ROOT
HETATM    1  O   UNL     1     -53.519  51.535  11.577  1.00  0.00    -0.358 OA
HETATM    2  H   UNL     1     -53.232  52.177  10.959  1.00  0.00     0.217 HD
ENDROOT
BRANCH   1   3
HETATM    3  C   UNL     1     -53.409  50.210  11.284  1.00  0.00     0.099 A 
HETATM    4  C   UNL     1     -53.620  49.776   9.975  1.00  0.00     0.046 A 
HETATM    5  C   UNL     1     -53.507  48.428   9.682  1.00  0.00    -0.053 A 
HETATM    6  C   UNL     1     -53.190  47.500  10.659  1.00  0.00     0.010 A 
HETATM    7  C   UNL     1     -52.978  47.932  11.967  1.00  0.00     0.040 A 
HETATM    8  C   UNL     1     -53.088  49.288  12.280  1.00  0.00     0.098 A 
BRANCH   5   9
HETATM    9  C   UNL     1     -53.735  47.958   8.262  1.00  0.00     0.082 C 
BRANCH   9  10
HETATM   10  CA  UNL     1     -52.439  47.509   7.568  1.00  0.00     0.287 C 
BRANCH  10  11
HETATM   11  N   UNL     1     -51.748  48.672   7.013  1.00  0.00    -0.065 N 
HETATM   12  H   UNL     1     -52.419  49.425   6.858  1.00  0.00     0.275 HD
HETATM   13  H   UNL     1     -51.313  48.417   6.126  1.00  0.00     0.275 HD
HETATM   14  H   UNL     1     -51.030  48.984   7.666  1.00  0.00     0.275 HD
ENDBRANCH  10  11
BRANCH  10  15
HETATM   15  C   UNL     1     -52.710  46.569   6.406  1.00  0.00     0.204 C 
HETATM   16  O   UNL     1     -51.922  46.834   5.332  1.00  0.00    -0.646 OA
HETATM   17  OXT UNL     1     -53.557  45.684   6.404  1.00  0.00    -0.646 OA
ENDBRANCH  10  15
ENDBRANCH   9  10
ENDBRANCH   5   9
BRANCH   8  18
HETATM   18  O   UNL     1     -52.881  49.698  13.563  1.00  0.00    -0.358 OA
HETATM   19  H   UNL     1     -53.167  50.549  13.835  1.00  0.00     0.217 HD
ENDBRANCH   8  18
ENDBRANCH   1   3
TORSDOF 6
ENDMDL
MODEL 4
REMARK VINA RESULT:      -5.9      2.753      5.677
REMARK  6 active torsions:
REMARK  status: ('A' for Active; 'I' for Inactive)
REMARK    1  A    between atoms: O_1  and  C_11 
REMARK    2  A    between atoms: O_3  and  C_14 
REMARK    3  A    between atoms: N_5  and  CA_7 
REMARK    4  A    between atoms: C_6  and  CA_7 
REMARK    5  A    between atoms: C_6  and  C_8 
REMARK    6  A    between atoms: CA_7  and  C_12 
ROOT
HETATM    1  O   UNL     1     -52.684  49.621  14.839  1.00  0.00    -0.358 OA
HETATM    2  H   UNL     1     -51.894  50.052  15.095  1.00  0.00     0.217 HD
ENDROOT
BRANCH   1   3
HETATM    3  C   UNL     1     -52.693  48.808  13.746  1.00  0.00     0.099 A 
HETATM    4  C   UNL     1     -53.420  49.183  12.616  1.00  0.00     0.046 A 
HETATM    5  C   UNL     1     -53.425  48.353  11.508  1.00  0.00    -0.053 A 
HETATM    6  C   UNL     1     -52.727  47.157  11.497  1.00  0.00     0.010 A 
HETATM    7  C   UNL     1     -52.000  46.782  12.626  1.00  0.00     0.040 A 
HETATM    8  C   UNL     1     -51.983  47.607  13.751  1.00  0.00     0.098 A 
BRANCH   5   9
HETATM    9  C   UNL     1     -54.213  48.761  10.283  1.00  0.00     0.082 C 
BRANCH   9  10
HETATM   10  CA  UNL     1     -53.438  48.536   8.975  1.00  0.00     0.287 C 
BRANCH  10  11
HETATM   11  N   UNL     1     -53.476  49.752   8.164  1.00  0.00    -0.065 N 
HETATM   12  H   UNL     1     -52.728  50.381   8.459  1.00  0.00     0.275 HD
HETATM   13  H   UNL     1     -54.377  50.215   8.287  1.00  0.00     0.275 HD
HETATM   14  H   UNL     1     -53.349  49.510   7.182  1.00  0.00     0.275 HD
ENDBRANCH  10  11
BRANCH  10  15
HETATM   15  C   UNL     1     -54.050  47.432   8.130  1.00  0.00     0.204 C 
HETATM   16  O   UNL     1     -55.126  46.859   8.729  1.00  0.00    -0.646 OA
HETATM   17  OXT UNL     1     -53.622  47.062   7.044  1.00  0.00    -0.646 OA
ENDBRANCH  10  15
ENDBRANCH   9  10
ENDBRANCH   5   9
BRANCH   8  18
HETATM   18  O   UNL     1     -51.271  47.228  14.849  1.00  0.00    -0.358 OA
HETATM   19  H   UNL     1     -50.618  47.799  15.204  1.00  0.00     0.217 HD
ENDBRANCH   8  18
ENDBRANCH   1   3
TORSDOF 6
ENDMDL
MODEL 5
REMARK VINA RESULT:      -5.9      2.982      4.925
REMARK  6 active torsions:
REMARK  status: ('A' for Active; 'I' for Inactive)
REMARK    1  A    between atoms: O_1  and  C_11 
REMARK    2  A    between atoms: O_3  and  C_14 
REMARK    3  A    between atoms: N_5  and  CA_7 
REMARK    4  A    between atoms: C_6  and  CA_7 
REMARK    5  A    between atoms: C_6  and  C_8 
REMARK    6  A    between atoms: CA_7  and  C_12 
ROOT
HETATM    1  O   UNL     1     -53.508  52.232   9.018  1.00  0.00    -0.358 OA
HETATM    2  H   UNL     1     -54.180  52.847   9.236  1.00  0.00     0.217 HD
ENDROOT
BRANCH   1   3
HETATM    3  C   UNL     1     -53.484  51.009   9.617  1.00  0.00     0.099 A 
HETATM    4  C   UNL     1     -53.460  49.859   8.830  1.00  0.00     0.046 A 
HETATM    5  C   UNL     1     -53.436  48.618   9.444  1.00  0.00    -0.053 A 
HETATM    6  C   UNL     1     -53.437  48.494  10.822  1.00  0.00     0.010 A 
HETATM    7  C   UNL     1     -53.460  49.644  11.611  1.00  0.00     0.040 A 
HETATM    8  C   UNL     1     -53.484  50.902  11.008  1.00  0.00     0.098 A 
BRANCH   5   9
HETATM    9  C   UNL     1     -53.410  47.371   8.589  1.00  0.00     0.082 C 
BRANCH   9  10
HETATM   10  CA  UNL     1     -53.638  46.086   9.402  1.00  0.00     0.287 C 
BRANCH  10  11
HETATM   11  N   UNL     1     -52.528  45.160   9.183  1.00  0.00    -0.065 N 
HETATM   12  H   UNL     1     -52.199  44.805  10.081  1.00  0.00     0.275 HD
HETATM   13  H   UNL     1     -51.766  45.649   8.712  1.00  0.00     0.275 HD
HETATM   14  H   UNL     1     -52.843  44.383   8.603  1.00  0.00     0.275 HD
ENDBRANCH  10  11
BRANCH  10  15
HETATM   15  C   UNL     1     -54.901  45.358   8.977  1.00  0.00     0.204 C 
HETATM   16  O   UNL     1     -55.991  46.167   8.983  1.00  0.00    -0.646 OA
HETATM   17  OXT UNL     1     -54.959  44.169   8.686  1.00  0.00    -0.646 OA
ENDBRANCH  10  15
ENDBRANCH   9  10
ENDBRANCH   5   9
BRANCH   8  18
HETATM   18  O   UNL     1     -53.509  52.018  11.789  1.00  0.00    -0.358 OA
HETATM   19  H   UNL     1     -52.839  52.668  11.699  1.00  0.00     0.217 HD
ENDBRANCH   8  18
ENDBRANCH   1   3
TORSDOF 6
ENDMDL
MODEL 6
REMARK VINA RESULT:      -5.9      3.142      5.168
REMARK  6 active torsions:
REMARK  status: ('A' for Active; 'I' for Inactive)
REMARK    1  A    between atoms: O_1  and  C_11 
REMARK    2  A    between atoms: O_3  and  C_14 
REMARK    3  A    between atoms: N_5  and  CA_7 
REMARK    4  A    between atoms: C_6  and  CA_7 
REMARK    5  A    between atoms: C_6  and  C_8 
REMARK    6  A    between atoms: CA_7  and  C_12 
ROOT
HETATM    1  O   UNL     1     -53.560  51.529   8.837  1.00  0.00    -0.358 OA
HETATM    2  H   UNL     1     -54.385  51.923   8.633  1.00  0.00     0.217 HD
ENDROOT
BRANCH   1   3
HETATM    3  C   UNL     1     -53.490  50.538   9.769  1.00  0.00     0.099 A 
HETATM    4  C   UNL     1     -53.441  49.207   9.354  1.00  0.00     0.046 A 
HETATM    5  C   UNL     1     -53.370  48.204  10.306  1.00  0.00    -0.053 A 
HETATM    6  C   UNL     1     -53.350  48.492  11.660  1.00  0.00     0.010 A 
HETATM    7  C   UNL     1     -53.399  49.822  12.075  1.00  0.00     0.040 A 
HETATM    8  C   UNL     1     -53.469  50.846  11.130  1.00  0.00     0.098 A 
BRANCH   5   9
HETATM    9  C   UNL     1     -53.316  46.761   9.855  1.00  0.00     0.082 C 
BRANCH   9  10
HETATM   10  CA  UNL     1     -54.329  46.445   8.744  1.00  0.00     0.287 C 
BRANCH  10  11
HETATM   11  N   UNL     1     -55.686  46.481   9.289  1.00  0.00    -0.065 N 
HETATM   12  H   UNL     1     -55.800  47.318   9.862  1.00  0.00     0.275 HD
HETATM   13  H   UNL     1     -55.844  45.652   9.863  1.00  0.00     0.275 HD
HETATM   14  H   UNL     1     -56.359  46.498   8.524  1.00  0.00     0.275 HD
ENDBRANCH  10  11
BRANCH  10  15
HETATM   15  C   UNL     1     -54.130  45.054   8.167  1.00  0.00     0.204 C 
HETATM   16  O   UNL     1     -53.760  45.085   6.861  1.00  0.00    -0.646 OA
HETATM   17  OXT UNL     1     -54.306  44.010   8.782  1.00  0.00    -0.646 OA
ENDBRANCH  10  15
ENDBRANCH   9  10
ENDBRANCH   5   9
BRANCH   8  18
HETATM   18  O   UNL     1     -53.519  52.141  11.548  1.00  0.00    -0.358 OA
HETATM   19  H   UNL     1     -52.860  52.748  11.273  1.00  0.00     0.217 HD
ENDBRANCH   8  18
ENDBRANCH   1   3
TORSDOF 6
ENDMDL
MODEL 7
REMARK VINA RESULT:      -5.8      3.193      5.120
REMARK  6 active torsions:
REMARK  status: ('A' for Active; 'I' for Inactive)
REMARK    1  A    between atoms: O_1  and  C_11 
REMARK    2  A    between atoms: O_3  and  C_14 
REMARK    3  A    between atoms: N_5  and  CA_7 
REMARK    4  A    between atoms: C_6  and  CA_7 
REMARK    5  A    between atoms: C_6  and  C_8 
REMARK    6  A    between atoms: CA_7  and  C_12 
ROOT
HETATM    1  O   UNL     1     -53.590  52.200   9.021  1.00  0.00    -0.358 OA
HETATM    2  H   UNL     1     -54.208  52.265   8.320  1.00  0.00     0.217 HD
ENDROOT
BRANCH   1   3
HETATM    3  C   UNL     1     -53.493  51.046   9.739  1.00  0.00     0.099 A 
HETATM    4  C   UNL     1     -53.447  49.823   9.071  1.00  0.00     0.046 A 
HETATM    5  C   UNL     1     -53.349  48.653   9.806  1.00  0.00    -0.053 A 
HETATM    6  C   UNL     1     -53.298  48.671  11.189  1.00  0.00     0.010 A 
HETATM    7  C   UNL     1     -53.344  49.894  11.858  1.00  0.00     0.040 A 
HETATM    8  C   UNL     1     -53.442  51.082  11.133  1.00  0.00     0.098 A 
BRANCH   5   9
HETATM    9  C   UNL     1     -53.297  47.327   9.081  1.00  0.00     0.082 C 
BRANCH   9  10
HETATM   10  CA  UNL     1     -52.482  47.391   7.779  1.00  0.00     0.287 C 
BRANCH  10  11
HETATM   11  N   UNL     1     -53.370  47.214   6.632  1.00  0.00    -0.065 N 
HETATM   12  H   UNL     1     -53.479  48.104   6.145  1.00  0.00     0.275 HD
HETATM   13  H   UNL     1     -54.282  46.889   6.955  1.00  0.00     0.275 HD
HETATM   14  H   UNL     1     -52.970  46.525   5.995  1.00  0.00     0.275 HD
ENDBRANCH  10  11
BRANCH  10  15
HETATM   15  C   UNL     1     -51.444  46.285   7.700  1.00  0.00     0.204 C 
HETATM   16  O   UNL     1     -50.576  46.315   8.744  1.00  0.00    -0.646 OA
HETATM   17  OXT UNL     1     -51.361  45.467   6.792  1.00  0.00    -0.646 OA
ENDBRANCH  10  15
ENDBRANCH   9  10
ENDBRANCH   5   9
BRANCH   8  18
HETATM   18  O   UNL     1     -53.489  52.271  11.797  1.00  0.00    -0.358 OA
HETATM   19  H   UNL     1     -53.552  53.074  11.318  1.00  0.00     0.217 HD
ENDBRANCH   8  18
ENDBRANCH   1   3
TORSDOF 6
ENDMDL
MODEL 8
REMARK VINA RESULT:      -5.7      3.099      6.077
REMARK  6 active torsions:
REMARK  status: ('A' for Active; 'I' for Inactive)
REMARK    1  A    between atoms: O_1  and  C_11 
REMARK    2  A    between atoms: O_3  and  C_14 
REMARK    3  A    between atoms: N_5  and  CA_7 
REMARK    4  A    between atoms: C_6  and  CA_7 
REMARK    5  A    between atoms: C_6  and  C_8 
REMARK    6  A    between atoms: CA_7  and  C_12 
ROOT
HETATM    1  O   UNL     1     -52.522  47.009  12.925  1.00  0.00    -0.358 OA
HETATM    2  H   UNL     1     -52.639  47.147  13.844  1.00  0.00     0.217 HD
ENDROOT
BRANCH   1   3
HETATM    3  C   UNL     1     -52.913  47.964  12.037  1.00  0.00     0.099 A 
HETATM    4  C   UNL     1     -53.130  47.616  10.704  1.00  0.00     0.046 A 
HETATM    5  C   UNL     1     -53.527  48.592   9.806  1.00  0.00    -0.053 A 
HETATM    6  C   UNL     1     -53.711  49.906  10.200  1.00  0.00     0.010 A 
HETATM    7  C   UNL     1     -53.494  50.255  11.532  1.00  0.00     0.040 A 
HETATM    8  C   UNL     1     -53.094  49.284  12.451  1.00  0.00     0.098 A 
BRANCH   5   9
HETATM    9  C   UNL     1     -53.764  48.213   8.361  1.00  0.00     0.082 C 
BRANCH   9  10
HETATM   10  CA  UNL     1     -52.548  47.530   7.716  1.00  0.00     0.287 C 
BRANCH  10  11
HETATM   11  N   UNL     1     -51.715  48.531   7.051  1.00  0.00    -0.065 N 
HETATM   12  H   UNL     1     -52.278  49.356   6.840  1.00  0.00     0.275 HD
HETATM   13  H   UNL     1     -51.343  48.142   6.184  1.00  0.00     0.275 HD
HETATM   14  H   UNL     1     -50.944  48.793   7.664  1.00  0.00     0.275 HD
ENDBRANCH  10  11
BRANCH  10  15
HETATM   15  C   UNL     1     -52.953  46.525   6.652  1.00  0.00     0.204 C 
HETATM   16  O   UNL     1     -53.726  45.527   7.151  1.00  0.00    -0.646 OA
HETATM   17  OXT UNL     1     -52.609  46.573   5.477  1.00  0.00    -0.646 OA
ENDBRANCH  10  15
ENDBRANCH   9  10
ENDBRANCH   5   9
BRANCH   8  18
HETATM   18  O   UNL     1     -52.883  49.638  13.750  1.00  0.00    -0.358 OA
HETATM   19  H   UNL     1     -53.611  49.823  14.310  1.00  0.00     0.217 HD
ENDBRANCH   8  18
ENDBRANCH   1   3
TORSDOF 6
ENDMDL
MODEL 9
REMARK VINA RESULT:      -5.7      2.938      5.426
REMARK  6 active torsions:
REMARK  status: ('A' for Active; 'I' for Inactive)
REMARK    1  A    between atoms: O_1  and  C_11 
REMARK    2  A    between atoms: O_3  and  C_14 
REMARK    3  A    between atoms: N_5  and  CA_7 
REMARK    4  A    between atoms: C_6  and  CA_7 
REMARK    5  A    between atoms: C_6  and  C_8 
REMARK    6  A    between atoms: CA_7  and  C_12 
ROOT
HETATM    1  O   UNL     1     -52.831  49.716  13.492  1.00  0.00    -0.358 OA
HETATM    2  H   UNL     1     -53.374  49.361  14.168  1.00  0.00     0.217 HD
ENDROOT
BRANCH   1   3
HETATM    3  C   UNL     1     -53.101  49.440  12.186  1.00  0.00     0.099 A 
HETATM    4  C   UNL     1     -53.025  48.123  11.732  1.00  0.00     0.046 A 
HETATM    5  C   UNL     1     -53.300  47.848  10.403  1.00  0.00    -0.053 A 
HETATM    6  C   UNL     1     -53.648  48.850   9.514  1.00  0.00     0.010 A 
HETATM    7  C   UNL     1     -53.725  50.167   9.968  1.00  0.00     0.040 A 
HETATM    8  C   UNL     1     -53.451  50.462  11.303  1.00  0.00     0.098 A 
BRANCH   5   9
HETATM    9  C   UNL     1     -53.219  46.420   9.912  1.00  0.00     0.082 C 
BRANCH   9  10
HETATM   10  CA  UNL     1     -54.106  46.161   8.684  1.00  0.00     0.287 C 
BRANCH  10  11
HETATM   11  N   UNL     1     -55.033  45.066   8.967  1.00  0.00    -0.065 N 
HETATM   12  H   UNL     1     -55.970  45.326   8.659  1.00  0.00     0.275 HD
HETATM   13  H   UNL     1     -55.044  44.881   9.970  1.00  0.00     0.275 HD
HETATM   14  H   UNL     1     -54.731  44.228   8.470  1.00  0.00     0.275 HD
ENDBRANCH  10  11
BRANCH  10  15
HETATM   15  C   UNL     1     -53.294  45.739   7.471  1.00  0.00     0.204 C 
HETATM   16  O   UNL     1     -53.414  46.615   6.440  1.00  0.00    -0.646 OA
HETATM   17  OXT UNL     1     -52.624  44.716   7.398  1.00  0.00    -0.646 OA
ENDBRANCH  10  15
ENDBRANCH   9  10
ENDBRANCH   5   9
BRANCH   8  18
HETATM   18  O   UNL     1     -53.527  51.752  11.734  1.00  0.00    -0.358 OA
HETATM   19  H   UNL     1     -53.588  52.451  11.112  1.00  0.00     0.217 HD
ENDBRANCH   8  18
ENDBRANCH   1   3
TORSDOF 6
ENDMDL
