MODEL 1
REMARK VINA RESULT:      -6.6      0.000      0.000
REMARK  6 active torsions:
REMARK  status: ('A' for Active; 'I' for Inactive)
REMARK    1  A    between atoms: O_1  and  C_11 
REMARK    2  A    between atoms: O_3  and  C_14 
REMARK    3  A    between atoms: N_5  and  CA_7 
REMARK    4  A    between atoms: C_6  and  CA_7 
REMARK    5  A    between atoms: C_6  and  C_8 
REMARK    6  A    between atoms: CA_7  and  C_12 
ROOT
HETATM    1  O   UNL     1     -53.787  52.288   9.730  1.00  0.00    -0.358 OA
HETATM    2  H   UNL     1     -53.105  52.906   9.902  1.00  0.00     0.217 HD
ENDROOT
BRANCH   1   3
HETATM    3  C   UNL     1     -53.615  50.977  10.056  1.00  0.00     0.099 A 
HETATM    4  C   UNL     1     -53.689  50.586  11.393  1.00  0.00     0.046 A 
HETATM    5  C   UNL     1     -53.513  49.252  11.720  1.00  0.00    -0.053 A 
HETATM    6  C   UNL     1     -53.263  48.297  10.749  1.00  0.00     0.010 A 
HETATM    7  C   UNL     1     -53.189  48.687   9.412  1.00  0.00     0.040 A 
HETATM    8  C   UNL     1     -53.364  50.027   9.066  1.00  0.00     0.098 A 
BRANCH   5   9
HETATM    9  C   UNL     1     -53.595  48.830  13.169  1.00  0.00     0.082 C 
BRANCH   9  10
HETATM   10  CA  UNL     1     -52.246  48.347  13.727  1.00  0.00     0.287 C 
BRANCH  10  11
HETATM   11  N   UNL     1     -52.298  46.905  13.964  1.00  0.00    -0.065 N 
HETATM   12  H   UNL     1     -53.052  46.695  14.619  1.00  0.00     0.275 HD
HETATM   13  H   UNL     1     -51.409  46.592  14.356  1.00  0.00     0.275 HD
HETATM   14  H   UNL     1     -52.469  46.421  13.083  1.00  0.00     0.275 HD
ENDBRANCH  10  11
BRANCH  10  15
HETATM   15  C   UNL     1     -51.913  48.995  15.060  1.00  0.00     0.204 C 
HETATM   16  O   UNL     1     -50.853  48.405  15.670  1.00  0.00    -0.646 OA
HETATM   17  OXT UNL     1     -52.534  49.924  15.560  1.00  0.00    -0.646 OA
ENDBRANCH  10  15
ENDBRANCH   9  10
ENDBRANCH   5   9
BRANCH   8  18
HETATM   18  O   UNL     1     -53.287  50.396   7.756  1.00  0.00    -0.358 OA
HETATM   19  H   UNL     1     -53.149  51.295   7.530  1.00  0.00     0.217 HD
ENDBRANCH   8  18
ENDBRANCH   1   3
TORSDOF 6
ENDMDL
MODEL 2
REMARK VINA RESULT:      -6.4      0.752      1.999
REMARK  6 active torsions:
REMARK  status: ('A' for Active; 'I' for Inactive)
REMARK    1  A    between atoms: O_1  and  C_11 
REMARK    2  A    between atoms: O_3  and  C_14 
REMARK    3  A    between atoms: N_5  and  CA_7 
REMARK    4  A    between atoms: C_6  and  CA_7 
REMARK    5  A    between atoms: C_6  and  C_8 
REMARK    6  A    between atoms: CA_7  and  C_12 
ROOT
HETATM    1  O   UNL     1     -53.426  47.763   8.448  1.00  0.00    -0.358 OA
HETATM    2  H   UNL     1     -54.227  47.450   8.075  1.00  0.00     0.217 HD
ENDROOT
BRANCH   1   3
HETATM    3  C   UNL     1     -53.457  48.681   9.454  1.00  0.00     0.099 A 
HETATM    4  C   UNL     1     -53.492  48.247  10.779  1.00  0.00     0.046 A 
HETATM    5  C   UNL     1     -53.523  49.185  11.798  1.00  0.00    -0.053 A 
HETATM    6  C   UNL     1     -53.524  50.543  11.531  1.00  0.00     0.010 A 
HETATM    7  C   UNL     1     -53.490  50.977  10.206  1.00  0.00     0.040 A 
HETATM    8  C   UNL     1     -53.457  50.046   9.167  1.00  0.00     0.098 A 
BRANCH   5   9
HETATM    9  C   UNL     1     -53.559  48.714  13.235  1.00  0.00     0.082 C 
BRANCH   9  10
HETATM   10  CA  UNL     1     -52.201  48.183  13.722  1.00  0.00     0.287 C 
BRANCH  10  11
HETATM   11  N   UNL     1     -52.278  46.736  13.917  1.00  0.00    -0.065 N 
HETATM   12  H   UNL     1     -52.900  46.531  14.699  1.00  0.00     0.275 HD
HETATM   13  H   UNL     1     -51.347  46.370  14.118  1.00  0.00     0.275 HD
HETATM   14  H   UNL     1     -52.639  46.298  13.070  1.00  0.00     0.275 HD
ENDBRANCH  10  11
BRANCH  10  15
HETATM   15  C   UNL     1     -51.799  48.781  15.059  1.00  0.00     0.204 C 
HETATM   16  O   UNL     1     -52.531  49.881  15.374  1.00  0.00    -0.646 OA
HETATM   17  OXT UNL     1     -50.902  48.355  15.775  1.00  0.00    -0.646 OA
ENDBRANCH  10  15
ENDBRANCH   9  10
ENDBRANCH   5   9
BRANCH   8  18
HETATM   18  O   UNL     1     -53.426  50.483   7.877  1.00  0.00    -0.358 OA
HETATM   19  H   UNL     1     -52.773  50.158   7.288  1.00  0.00     0.217 HD
ENDBRANCH   8  18
ENDBRANCH   1   3
TORSDOF 6
ENDMDL
MODEL 3
REMARK VINA RESULT:      -6.0      2.898      4.864
REMARK  6 active torsions:
REMARK  status: ('A' for Active; 'I' for Inactive)
REMARK    1  A    between atoms: O_1  and  C_11 
REMARK    2  A    between atoms: O_3  and  C_14 
REMARK    3  A    between atoms: N_5  and  CA_7 
REMARK    4  A    between atoms: C_6  and  CA_7 
REMARK    5  A    between atoms: C_6  and  C_8 
REMARK    6  A    between atoms: CA_7  and  C_12 
ROOT
HETATM    1  O   UNL     1     -53.675  52.025   9.000  1.00  0.00    -0.358 OA
HETATM    2  H   UNL     1     -53.216  52.173   8.197  1.00  0.00     0.217 HD
ENDROOT
BRANCH   1   3
HETATM    3  C   UNL     1     -53.507  50.855   9.676  1.00  0.00     0.099 A 
HETATM    4  C   UNL     1     -53.391  49.661   8.963  1.00  0.00     0.046 A 
HETATM    5  C   UNL     1     -53.221  48.474   9.655  1.00  0.00    -0.053 A 
HETATM    6  C   UNL     1     -53.166  48.444  11.038  1.00  0.00     0.010 A 
HETATM    7  C   UNL     1     -53.282  49.637  11.751  1.00  0.00     0.040 A 
HETATM    8  C   UNL     1     -53.454  50.842  11.070  1.00  0.00     0.098 A 
BRANCH   5   9
HETATM    9  C   UNL     1     -53.093  47.180   8.882  1.00  0.00     0.082 C 
BRANCH   9  10
HETATM   10  CA  UNL     1     -53.784  45.998   9.580  1.00  0.00     0.287 C 
BRANCH  10  11
HETATM   11  N   UNL     1     -52.929  44.814   9.507  1.00  0.00    -0.065 N 
HETATM   12  H   UNL     1     -51.955  45.090   9.628  1.00  0.00     0.275 HD
HETATM   13  H   UNL     1     -53.045  44.367   8.597  1.00  0.00     0.275 HD
HETATM   14  H   UNL     1     -53.192  44.159  10.243  1.00  0.00     0.275 HD
ENDBRANCH  10  11
BRANCH  10  15
HETATM   15  C   UNL     1     -55.097  45.628   8.912  1.00  0.00     0.204 C 
HETATM   16  O   UNL     1     -54.972  44.559   8.084  1.00  0.00    -0.646 OA
HETATM   17  OXT UNL     1     -56.154  46.228   9.065  1.00  0.00    -0.646 OA
ENDBRANCH  10  15
ENDBRANCH   9  10
ENDBRANCH   5   9
BRANCH   8  18
HETATM   18  O   UNL     1     -53.568  52.001  11.777  1.00  0.00    -0.358 OA
HETATM   19  H   UNL     1     -53.905  52.772  11.363  1.00  0.00     0.217 HD
ENDBRANCH   8  18
ENDBRANCH   1   3
TORSDOF 6
ENDMDL
MODEL 4
REMARK VINA RESULT:      -6.0      3.030      5.766
REMARK  6 active torsions:
REMARK  status: ('A' for Active; 'I' for Inactive)
REMARK    1  A    between atoms: O_1  and  C_11 
REMARK    2  A    between atoms: O_3  and  C_14 
REMARK    3  A    between atoms: N_5  and  CA_7 
REMARK    4  A    between atoms: C_6  and  CA_7 
REMARK    5  A    between atoms: C_6  and  C_8 
REMARK    6  A    between atoms: CA_7  and  C_12 
ROOT
HETATM    1  O   UNL     1     -53.531  51.642  11.743  1.00  0.00    -0.358 OA
HETATM    2  H   UNL     1     -52.919  52.024  12.340  1.00  0.00     0.217 HD
ENDROOT
BRANCH   1   3
HETATM    3  C   UNL     1     -53.410  50.332  11.389  1.00  0.00     0.099 A 
HETATM    4  C   UNL     1     -53.635  49.954  10.065  1.00  0.00     0.046 A 
HETATM    5  C   UNL     1     -53.511  48.621   9.711  1.00  0.00    -0.053 A 
HETATM    6  C   UNL     1     -53.170  47.655  10.642  1.00  0.00     0.010 A 
HETATM    7  C   UNL     1     -52.945  48.032  11.965  1.00  0.00     0.040 A 
HETATM    8  C   UNL     1     -53.065  49.370  12.339  1.00  0.00     0.098 A 
BRANCH   5   9
HETATM    9  C   UNL     1     -53.753  48.213   8.276  1.00  0.00     0.082 C 
BRANCH   9  10
HETATM   10  CA  UNL     1     -52.549  47.490   7.650  1.00  0.00     0.287 C 
BRANCH  10  11
HETATM   11  N   UNL     1     -51.668  48.465   7.008  1.00  0.00    -0.065 N 
HETATM   12  H   UNL     1     -52.231  49.159   6.516  1.00  0.00     0.275 HD
HETATM   13  H   UNL     1     -51.060  47.987   6.343  1.00  0.00     0.275 HD
HETATM   14  H   UNL     1     -51.100  48.928   7.717  1.00  0.00     0.275 HD
ENDBRANCH  10  11
BRANCH  10  15
HETATM   15  C   UNL     1     -52.970  46.507   6.571  1.00  0.00     0.204 C 
HETATM   16  O   UNL     1     -53.753  45.511   7.056  1.00  0.00    -0.646 OA
HETATM   17  OXT UNL     1     -52.628  46.570   5.396  1.00  0.00    -0.646 OA
ENDBRANCH  10  15
ENDBRANCH   9  10
ENDBRANCH   5   9
BRANCH   8  18
HETATM   18  O   UNL     1     -52.845  49.726  13.636  1.00  0.00    -0.358 OA
HETATM   19  H   UNL     1     -52.119  50.278  13.854  1.00  0.00     0.217 HD
ENDBRANCH   8  18
ENDBRANCH   1   3
TORSDOF 6
ENDMDL
MODEL 5
REMARK VINA RESULT:      -5.9      2.753      5.679
REMARK  6 active torsions:
REMARK  status: ('A' for Active; 'I' for Inactive)
REMARK    1  A    between atoms: O_1  and  C_11 
REMARK    2  A    between atoms: O_3  and  C_14 
REMARK    3  A    between atoms: N_5  and  CA_7 
REMARK    4  A    between atoms: C_6  and  CA_7 
REMARK    5  A    between atoms: C_6  and  C_8 
REMARK    6  A    between atoms: CA_7  and  C_12 
ROOT
HETATM    1  O   UNL     1     -52.690  49.611  14.844  1.00  0.00    -0.358 OA
HETATM    2  H   UNL     1     -52.513  50.526  14.748  1.00  0.00     0.217 HD
ENDROOT
BRANCH   1   3
HETATM    3  C   UNL     1     -52.695  48.800  13.750  1.00  0.00     0.099 A 
HETATM    4  C   UNL     1     -53.424  49.174  12.621  1.00  0.00     0.046 A 
HETATM    5  C   UNL     1     -53.426  48.346  11.512  1.00  0.00    -0.053 A 
HETATM    6  C   UNL     1     -52.723  47.154  11.498  1.00  0.00     0.010 A 
HETATM    7  C   UNL     1     -51.994  46.779  12.626  1.00  0.00     0.040 A 
HETATM    8  C   UNL     1     -51.980  47.602  13.753  1.00  0.00     0.098 A 
BRANCH   5   9
HETATM    9  C   UNL     1     -54.215  48.753  10.287  1.00  0.00     0.082 C 
BRANCH   9  10
HETATM   10  CA  UNL     1     -53.440  48.531   8.978  1.00  0.00     0.287 C 
BRANCH  10  11
HETATM   11  N   UNL     1     -53.478  49.749   8.171  1.00  0.00    -0.065 N 
HETATM   12  H   UNL     1     -53.212  50.548   8.747  1.00  0.00     0.275 HD
HETATM   13  H   UNL     1     -54.422  49.890   7.810  1.00  0.00     0.275 HD
HETATM   14  H   UNL     1     -52.826  49.661   7.391  1.00  0.00     0.275 HD
ENDBRANCH  10  11
BRANCH  10  15
HETATM   15  C   UNL     1     -54.053  47.429   8.131  1.00  0.00     0.204 C 
HETATM   16  O   UNL     1     -55.126  46.853   8.730  1.00  0.00    -0.646 OA
HETATM   17  OXT UNL     1     -53.627  47.066   7.042  1.00  0.00    -0.646 OA
ENDBRANCH  10  15
ENDBRANCH   9  10
ENDBRANCH   5   9
BRANCH   8  18
HETATM   18  O   UNL     1     -51.266  47.224  14.850  1.00  0.00    -0.358 OA
HETATM   19  H   UNL     1     -50.372  46.959  14.759  1.00  0.00     0.217 HD
ENDBRANCH   8  18
ENDBRANCH   1   3
TORSDOF 6
ENDMDL
MODEL 6
REMARK VINA RESULT:      -5.9      3.131      5.173
REMARK  6 active torsions:
REMARK  status: ('A' for Active; 'I' for Inactive)
REMARK    1  A    between atoms: O_1  and  C_11 
REMARK    2  A    between atoms: O_3  and  C_14 
REMARK    3  A    between atoms: N_5  and  CA_7 
REMARK    4  A    between atoms: C_6  and  CA_7 
REMARK    5  A    between atoms: C_6  and  C_8 
REMARK    6  A    between atoms: CA_7  and  C_12 
ROOT
HETATM    1  O   UNL     1     -53.541  51.539   8.838  1.00  0.00    -0.358 OA
HETATM    2  H   UNL     1     -54.051  51.423   8.061  1.00  0.00     0.217 HD
ENDROOT
BRANCH   1   3
HETATM    3  C   UNL     1     -53.481  50.544   9.767  1.00  0.00     0.099 A 
HETATM    4  C   UNL     1     -53.423  49.215   9.347  1.00  0.00     0.046 A 
HETATM    5  C   UNL     1     -53.362  48.208  10.295  1.00  0.00    -0.053 A 
HETATM    6  C   UNL     1     -53.360  48.490  11.650  1.00  0.00     0.010 A 
HETATM    7  C   UNL     1     -53.417  49.818  12.070  1.00  0.00     0.040 A 
HETATM    8  C   UNL     1     -53.479  50.846  11.129  1.00  0.00     0.098 A 
BRANCH   5   9
HETATM    9  C   UNL     1     -53.297  46.767   9.839  1.00  0.00     0.082 C 
BRANCH   9  10
HETATM   10  CA  UNL     1     -54.307  46.449   8.724  1.00  0.00     0.287 C 
BRANCH  10  11
HETATM   11  N   UNL     1     -55.663  46.452   9.271  1.00  0.00    -0.065 N 
HETATM   12  H   UNL     1     -56.338  46.404   8.508  1.00  0.00     0.275 HD
HETATM   13  H   UNL     1     -55.813  47.309   9.804  1.00  0.00     0.275 HD
HETATM   14  H   UNL     1     -55.784  45.646   9.884  1.00  0.00     0.275 HD
ENDBRANCH  10  11
BRANCH  10  15
HETATM   15  C   UNL     1     -54.082  45.071   8.126  1.00  0.00     0.204 C 
HETATM   16  O   UNL     1     -53.746  45.127   6.812  1.00  0.00    -0.646 OA
HETATM   17  OXT UNL     1     -54.214  44.015   8.733  1.00  0.00    -0.646 OA
ENDBRANCH  10  15
ENDBRANCH   9  10
ENDBRANCH   5   9
BRANCH   8  18
HETATM   18  O   UNL     1     -53.537  52.140  11.551  1.00  0.00    -0.358 OA
HETATM   19  H   UNL     1     -54.180  52.721  11.194  1.00  0.00     0.217 HD
ENDBRANCH   8  18
ENDBRANCH   1   3
TORSDOF 6
ENDMDL
MODEL 7
REMARK VINA RESULT:      -5.9      4.134      5.973
REMARK  6 active torsions:
REMARK  status: ('A' for Active; 'I' for Inactive)
REMARK    1  A    between atoms: O_1  and  C_11 
REMARK    2  A    between atoms: O_3  and  C_14 
REMARK    3  A    between atoms: N_5  and  CA_7 
REMARK    4  A    between atoms: C_6  and  CA_7 
REMARK    5  A    between atoms: C_6  and  C_8 
REMARK    6  A    between atoms: CA_7  and  C_12 
ROOT
HETATM    1  O   UNL     1     -53.531  45.173   5.026  1.00  0.00    -0.358 OA
HETATM    2  H   UNL     1     -53.262  44.737   4.243  1.00  0.00     0.217 HD
ENDROOT
BRANCH   1   3
HETATM    3  C   UNL     1     -52.727  46.115   5.592  1.00  0.00     0.099 A 
HETATM    4  C   UNL     1     -53.074  46.663   6.827  1.00  0.00     0.046 A 
HETATM    5  C   UNL     1     -52.253  47.621   7.398  1.00  0.00    -0.053 A 
HETATM    6  C   UNL     1     -51.095  48.047   6.770  1.00  0.00     0.010 A 
HETATM    7  C   UNL     1     -50.747  47.499   5.536  1.00  0.00     0.040 A 
HETATM    8  C   UNL     1     -51.563  46.534   4.946  1.00  0.00     0.098 A 
BRANCH   5   9
HETATM    9  C   UNL     1     -52.630  48.214   8.737  1.00  0.00     0.082 C 
BRANCH   9  10
HETATM   10  CA  UNL     1     -53.630  49.374   8.615  1.00  0.00     0.287 C 
BRANCH  10  11
HETATM   11  N   UNL     1     -53.057  50.435   7.788  1.00  0.00    -0.065 N 
HETATM   12  H   UNL     1     -53.802  51.044   7.450  1.00  0.00     0.275 HD
HETATM   13  H   UNL     1     -52.569  50.021   6.993  1.00  0.00     0.275 HD
HETATM   14  H   UNL     1     -52.398  50.980   8.344  1.00  0.00     0.275 HD
ENDBRANCH  10  11
BRANCH  10  15
HETATM   15  C   UNL     1     -53.950  49.998   9.962  1.00  0.00     0.204 C 
HETATM   16  O   UNL     1     -53.982  51.354   9.909  1.00  0.00    -0.646 OA
HETATM   17  OXT UNL     1     -54.133  49.370  10.998  1.00  0.00    -0.646 OA
ENDBRANCH  10  15
ENDBRANCH   9  10
ENDBRANCH   5   9
BRANCH   8  18
HETATM   18  O   UNL     1     -51.214  46.007   3.739  1.00  0.00    -0.358 OA
HETATM   19  H   UNL     1     -50.630  45.275   3.698  1.00  0.00     0.217 HD
ENDBRANCH   8  18
ENDBRANCH   1   3
TORSDOF 6
ENDMDL
MODEL 8
REMARK VINA RESULT:      -5.7      3.102      6.103
REMARK  6 active torsions:
REMARK  status: ('A' for Active; 'I' for Inactive)
REMARK    1  A    between atoms: O_1  and  C_11 
REMARK    2  A    between atoms: O_3  and  C_14 
REMARK    3  A    between atoms: N_5  and  CA_7 
REMARK    4  A    between atoms: C_6  and  CA_7 
REMARK    5  A    between atoms: C_6  and  C_8 
REMARK    6  A    between atoms: CA_7  and  C_12 
ROOT
HETATM    1  O   UNL     1     -52.436  46.929  12.840  1.00  0.00    -0.358 OA
HETATM    2  H   UNL     1     -51.569  46.581  12.770  1.00  0.00     0.217 HD
ENDROOT
BRANCH   1   3
HETATM    3  C   UNL     1     -52.845  47.915  11.994  1.00  0.00     0.099 A 
HETATM    4  C   UNL     1     -53.042  47.623  10.644  1.00  0.00     0.046 A 
HETATM    5  C   UNL     1     -53.457  48.629   9.788  1.00  0.00    -0.053 A 
HETATM    6  C   UNL     1     -53.679  49.918  10.240  1.00  0.00     0.010 A 
HETATM    7  C   UNL     1     -53.483  50.210  11.589  1.00  0.00     0.040 A 
HETATM    8  C   UNL     1     -53.065  49.209  12.466  1.00  0.00     0.098 A 
BRANCH   5   9
HETATM    9  C   UNL     1     -53.671  48.311   8.325  1.00  0.00     0.082 C 
BRANCH   9  10
HETATM   10  CA  UNL     1     -52.474  47.586   7.690  1.00  0.00     0.287 C 
BRANCH  10  11
HETATM   11  N   UNL     1     -51.648  48.546   6.958  1.00  0.00    -0.065 N 
HETATM   12  H   UNL     1     -51.749  48.387   5.955  1.00  0.00     0.275 HD
HETATM   13  H   UNL     1     -50.670  48.426   7.225  1.00  0.00     0.275 HD
HETATM   14  H   UNL     1     -51.948  49.494   7.184  1.00  0.00     0.275 HD
ENDBRANCH  10  11
BRANCH  10  15
HETATM   15  C   UNL     1     -52.909  46.533   6.686  1.00  0.00     0.204 C 
HETATM   16  O   UNL     1     -52.337  46.713   5.468  1.00  0.00    -0.646 OA
HETATM   17  OXT UNL     1     -53.706  45.633   6.918  1.00  0.00    -0.646 OA
ENDBRANCH  10  15
ENDBRANCH   9  10
ENDBRANCH   5   9
BRANCH   8  18
HETATM   18  O   UNL     1     -52.874  49.507  13.782  1.00  0.00    -0.358 OA
HETATM   19  H   UNL     1     -52.668  48.826  14.392  1.00  0.00     0.217 HD
ENDBRANCH   8  18
ENDBRANCH   1   3
TORSDOF 6
ENDMDL
MODEL 9
REMARK VINA RESULT:      -5.7      2.965      5.427
REMARK  6 active torsions:
REMARK  status: ('A' for Active; 'I' for Inactive)
REMARK    1  A    between atoms: O_1  and  C_11 
REMARK    2  A    between atoms: O_3  and  C_14 
REMARK    3  A    between atoms: N_5  and  CA_7 
REMARK    4  A    between atoms: C_6  and  CA_7 
REMARK    5  A    between atoms: C_6  and  C_8 
REMARK    6  A    between atoms: CA_7  and  C_12 
ROOT
HETATM    1  O   UNL     1     -52.854  49.710  13.494  1.00  0.00    -0.358 OA
HETATM    2  H   UNL     1     -52.104  50.222  13.725  1.00  0.00     0.217 HD
ENDROOT
BRANCH   1   3
HETATM    3  C   UNL     1     -53.112  49.434  12.186  1.00  0.00     0.099 A 
HETATM    4  C   UNL     1     -53.032  48.117  11.733  1.00  0.00     0.046 A 
HETATM    5  C   UNL     1     -53.296  47.842  10.402  1.00  0.00    -0.053 A 
HETATM    6  C   UNL     1     -53.635  48.844   9.510  1.00  0.00     0.010 A 
HETATM    7  C   UNL     1     -53.716  50.161   9.962  1.00  0.00     0.040 A 
HETATM    8  C   UNL     1     -53.454  50.456  11.300  1.00  0.00     0.098 A 
BRANCH   5   9
HETATM    9  C   UNL     1     -53.210  46.414   9.912  1.00  0.00     0.082 C 
BRANCH   9  10
HETATM   10  CA  UNL     1     -54.079  46.156   8.670  1.00  0.00     0.287 C 
BRANCH  10  11
HETATM   11  N   UNL     1     -55.057  45.108   8.961  1.00  0.00    -0.065 N 
HETATM   12  H   UNL     1     -54.999  44.854   9.948  1.00  0.00     0.275 HD
HETATM   13  H   UNL     1     -54.858  44.289   8.387  1.00  0.00     0.275 HD
HETATM   14  H   UNL     1     -55.994  45.450   8.753  1.00  0.00     0.275 HD
ENDBRANCH  10  11
BRANCH  10  15
HETATM   15  C   UNL     1     -53.259  45.669   7.489  1.00  0.00     0.204 C 
HETATM   16  O   UNL     1     -53.412  46.458   6.394  1.00  0.00    -0.646 OA
HETATM   17  OXT UNL     1     -52.557  44.666   7.491  1.00  0.00    -0.646 OA
ENDBRANCH  10  15
ENDBRANCH   9  10
ENDBRANCH   5   9
BRANCH   8  18
HETATM   18  O   UNL     1     -53.533  51.747  11.729  1.00  0.00    -0.358 OA
HETATM   19  H   UNL     1     -54.057  52.366  11.259  1.00  0.00     0.217 HD
ENDBRANCH   8  18
ENDBRANCH   1   3
TORSDOF 6
ENDMDL
