MODEL 1
REMARK VINA RESULT:      -6.6      0.000      0.000
REMARK  6 active torsions:
REMARK  status: ('A' for Active; 'I' for Inactive)
REMARK    1  A    between atoms: O_1  and  C_11 
REMARK    2  A    between atoms: O_3  and  C_14 
REMARK    3  A    between atoms: N_5  and  CA_7 
REMARK    4  A    between atoms: C_6  and  CA_7 
REMARK    5  A    between atoms: C_6  and  C_8 
REMARK    6  A    between atoms: CA_7  and  C_12 
ROOT
HETATM    1  O   UNL     1     -53.778  52.285   9.745  1.00  0.00    -0.358 OA
HETATM    2  H   UNL     1     -53.065  52.886   9.838  1.00  0.00     0.217 HD
ENDROOT
BRANCH   1   3
HETATM    3  C   UNL     1     -53.608  50.973  10.070  1.00  0.00     0.099 A 
HETATM    4  C   UNL     1     -53.680  50.581  11.407  1.00  0.00     0.046 A 
HETATM    5  C   UNL     1     -53.507  49.246  11.731  1.00  0.00    -0.053 A 
HETATM    6  C   UNL     1     -53.262  48.292  10.759  1.00  0.00     0.010 A 
HETATM    7  C   UNL     1     -53.190  48.683   9.422  1.00  0.00     0.040 A 
HETATM    8  C   UNL     1     -53.363  50.024   9.078  1.00  0.00     0.098 A 
BRANCH   5   9
HETATM    9  C   UNL     1     -53.587  48.822  13.180  1.00  0.00     0.082 C 
BRANCH   9  10
HETATM   10  CA  UNL     1     -52.236  48.343  13.736  1.00  0.00     0.287 C 
BRANCH  10  11
HETATM   11  N   UNL     1     -52.282  46.900  13.969  1.00  0.00    -0.065 N 
HETATM   12  H   UNL     1     -53.253  46.602  14.066  1.00  0.00     0.275 HD
HETATM   13  H   UNL     1     -51.770  46.677  14.823  1.00  0.00     0.275 HD
HETATM   14  H   UNL     1     -51.854  46.415  13.181  1.00  0.00     0.275 HD
ENDBRANCH  10  11
BRANCH  10  15
HETATM   15  C   UNL     1     -51.905  48.988  15.071  1.00  0.00     0.204 C 
HETATM   16  O   UNL     1     -50.846  48.398  15.682  1.00  0.00    -0.646 OA
HETATM   17  OXT UNL     1     -52.528  49.916  15.573  1.00  0.00    -0.646 OA
ENDBRANCH  10  15
ENDBRANCH   9  10
ENDBRANCH   5   9
BRANCH   8  18
HETATM   18  O   UNL     1     -53.288  50.394   7.768  1.00  0.00    -0.358 OA
HETATM   19  H   UNL     1     -52.525  50.186   7.265  1.00  0.00     0.217 HD
ENDBRANCH   8  18
ENDBRANCH   1   3
TORSDOF 6
ENDMDL
MODEL 2
REMARK VINA RESULT:      -6.4      0.709      1.787
REMARK  6 active torsions:
REMARK  status: ('A' for Active; 'I' for Inactive)
REMARK    1  A    between atoms: O_1  and  C_11 
REMARK    2  A    between atoms: O_3  and  C_14 
REMARK    3  A    between atoms: N_5  and  CA_7 
REMARK    4  A    between atoms: C_6  and  CA_7 
REMARK    5  A    between atoms: C_6  and  C_8 
REMARK    6  A    between atoms: CA_7  and  C_12 
ROOT
HETATM    1  O   UNL     1     -53.406  47.895   8.362  1.00  0.00    -0.358 OA
HETATM    2  H   UNL     1     -53.486  48.209   7.483  1.00  0.00     0.217 HD
ENDROOT
BRANCH   1   3
HETATM    3  C   UNL     1     -53.451  48.771   9.404  1.00  0.00     0.099 A 
HETATM    4  C   UNL     1     -53.503  48.283  10.710  1.00  0.00     0.046 A 
HETATM    5  C   UNL     1     -53.549  49.178  11.766  1.00  0.00    -0.053 A 
HETATM    6  C   UNL     1     -53.545  50.546  11.555  1.00  0.00     0.010 A 
HETATM    7  C   UNL     1     -53.492  51.035  10.250  1.00  0.00     0.040 A 
HETATM    8  C   UNL     1     -53.445  50.147   9.174  1.00  0.00     0.098 A 
BRANCH   5   9
HETATM    9  C   UNL     1     -53.605  48.648  13.181  1.00  0.00     0.082 C 
BRANCH   9  10
HETATM   10  CA  UNL     1     -52.218  48.294  13.740  1.00  0.00     0.287 C 
BRANCH  10  11
HETATM   11  N   UNL     1     -52.152  46.861  14.025  1.00  0.00    -0.065 N 
HETATM   12  H   UNL     1     -52.315  46.704  15.020  1.00  0.00     0.275 HD
HETATM   13  H   UNL     1     -51.229  46.506  13.772  1.00  0.00     0.275 HD
HETATM   14  H   UNL     1     -52.864  46.374  13.482  1.00  0.00     0.275 HD
ENDBRANCH  10  11
BRANCH  10  15
HETATM   15  C   UNL     1     -51.928  49.010  15.048  1.00  0.00     0.204 C 
HETATM   16  O   UNL     1     -50.873  48.470  15.710  1.00  0.00    -0.646 OA
HETATM   17  OXT UNL     1     -52.576  49.951  15.488  1.00  0.00    -0.646 OA
ENDBRANCH  10  15
ENDBRANCH   9  10
ENDBRANCH   5   9
BRANCH   8  18
HETATM   18  O   UNL     1     -53.396  50.636   7.903  1.00  0.00    -0.358 OA
HETATM   19  H   UNL     1     -52.890  50.194   7.250  1.00  0.00     0.217 HD
ENDBRANCH   8  18
ENDBRANCH   1   3
TORSDOF 6
ENDMDL
MODEL 3
REMARK VINA RESULT:      -6.0      3.036      5.773
REMARK  6 active torsions:
REMARK  status: ('A' for Active; 'I' for Inactive)
REMARK    1  A    between atoms: O_1  and  C_11 
REMARK    2  A    between atoms: O_3  and  C_14 
REMARK    3  A    between atoms: N_5  and  CA_7 
REMARK    4  A    between atoms: C_6  and  CA_7 
REMARK    5  A    between atoms: C_6  and  C_8 
REMARK    6  A    between atoms: CA_7  and  C_12 
ROOT
HETATM    1  O   UNL     1     -53.527  51.625  11.730  1.00  0.00    -0.358 OA
HETATM    2  H   UNL     1     -53.490  52.286  11.067  1.00  0.00     0.217 HD
ENDROOT
BRANCH   1   3
HETATM    3  C   UNL     1     -53.406  50.312  11.388  1.00  0.00     0.099 A 
HETATM    4  C   UNL     1     -53.628  49.922  10.067  1.00  0.00     0.046 A 
HETATM    5  C   UNL     1     -53.503  48.586   9.725  1.00  0.00    -0.053 A 
HETATM    6  C   UNL     1     -53.166  47.628  10.665  1.00  0.00     0.010 A 
HETATM    7  C   UNL     1     -52.943  48.017  11.986  1.00  0.00     0.040 A 
HETATM    8  C   UNL     1     -53.064  49.359  12.347  1.00  0.00     0.098 A 
BRANCH   5   9
HETATM    9  C   UNL     1     -53.743  48.165   8.293  1.00  0.00     0.082 C 
BRANCH   9  10
HETATM   10  CA  UNL     1     -52.506  47.521   7.646  1.00  0.00     0.287 C 
BRANCH  10  11
HETATM   11  N   UNL     1     -51.698  48.551   6.995  1.00  0.00    -0.065 N 
HETATM   12  H   UNL     1     -50.900  48.114   6.531  1.00  0.00     0.275 HD
HETATM   13  H   UNL     1     -51.364  49.214   7.694  1.00  0.00     0.275 HD
HETATM   14  H   UNL     1     -52.265  49.042   6.305  1.00  0.00     0.275 HD
ENDBRANCH  10  11
BRANCH  10  15
HETATM   15  C   UNL     1     -52.881  46.517   6.570  1.00  0.00     0.204 C 
HETATM   16  O   UNL     1     -53.782  45.601   7.008  1.00  0.00    -0.646 OA
HETATM   17  OXT UNL     1     -52.414  46.498   5.437  1.00  0.00    -0.646 OA
ENDBRANCH  10  15
ENDBRANCH   9  10
ENDBRANCH   5   9
BRANCH   8  18
HETATM   18  O   UNL     1     -52.846  49.726  13.641  1.00  0.00    -0.358 OA
HETATM   19  H   UNL     1     -53.572  49.870  14.216  1.00  0.00     0.217 HD
ENDBRANCH   8  18
ENDBRANCH   1   3
TORSDOF 6
ENDMDL
MODEL 4
REMARK VINA RESULT:      -5.9      2.733      5.664
REMARK  6 active torsions:
REMARK  status: ('A' for Active; 'I' for Inactive)
REMARK    1  A    between atoms: O_1  and  C_11 
REMARK    2  A    between atoms: O_3  and  C_14 
REMARK    3  A    between atoms: N_5  and  CA_7 
REMARK    4  A    between atoms: C_6  and  CA_7 
REMARK    5  A    between atoms: C_6  and  C_8 
REMARK    6  A    between atoms: CA_7  and  C_12 
ROOT
HETATM    1  O   UNL     1     -52.683  49.633  14.902  1.00  0.00    -0.358 OA
HETATM    2  H   UNL     1     -52.594  50.560  14.802  1.00  0.00     0.217 HD
ENDROOT
BRANCH   1   3
HETATM    3  C   UNL     1     -52.692  48.828  13.803  1.00  0.00     0.099 A 
HETATM    4  C   UNL     1     -53.420  49.212  12.676  1.00  0.00     0.046 A 
HETATM    5  C   UNL     1     -53.426  48.390  11.562  1.00  0.00    -0.053 A 
HETATM    6  C   UNL     1     -52.727  47.195  11.541  1.00  0.00     0.010 A 
HETATM    7  C   UNL     1     -51.999  46.811  12.667  1.00  0.00     0.040 A 
HETATM    8  C   UNL     1     -51.982  47.627  13.798  1.00  0.00     0.098 A 
BRANCH   5   9
HETATM    9  C   UNL     1     -54.214  48.807  10.341  1.00  0.00     0.082 C 
BRANCH   9  10
HETATM   10  CA  UNL     1     -53.452  48.565   9.028  1.00  0.00     0.287 C 
BRANCH  10  11
HETATM   11  N   UNL     1     -53.482  49.776   8.209  1.00  0.00    -0.065 N 
HETATM   12  H   UNL     1     -53.823  50.557   8.770  1.00  0.00     0.275 HD
HETATM   13  H   UNL     1     -54.104  49.632   7.413  1.00  0.00     0.275 HD
HETATM   14  H   UNL     1     -52.542  49.983   7.874  1.00  0.00     0.275 HD
ENDBRANCH  10  11
BRANCH  10  15
HETATM   15  C   UNL     1     -54.082  47.462   8.195  1.00  0.00     0.204 C 
HETATM   16  O   UNL     1     -55.145  46.889   8.816  1.00  0.00    -0.646 OA
HETATM   17  OXT UNL     1     -53.677  47.093   7.100  1.00  0.00    -0.646 OA
ENDBRANCH  10  15
ENDBRANCH   9  10
ENDBRANCH   5   9
BRANCH   8  18
HETATM   18  O   UNL     1     -51.269  47.240  14.893  1.00  0.00    -0.358 OA
HETATM   19  H   UNL     1     -51.314  46.353  15.192  1.00  0.00     0.217 HD
ENDBRANCH   8  18
ENDBRANCH   1   3
TORSDOF 6
ENDMDL
MODEL 5
REMARK VINA RESULT:      -5.9      3.144      5.137
REMARK  6 active torsions:
REMARK  status: ('A' for Active; 'I' for Inactive)
REMARK    1  A    between atoms: O_1  and  C_11 
REMARK    2  A    between atoms: O_3  and  C_14 
REMARK    3  A    between atoms: N_5  and  CA_7 
REMARK    4  A    between atoms: C_6  and  CA_7 
REMARK    5  A    between atoms: C_6  and  C_8 
REMARK    6  A    between atoms: CA_7  and  C_12 
ROOT
HETATM    1  O   UNL     1     -53.628  51.523   8.846  1.00  0.00    -0.358 OA
HETATM    2  H   UNL     1     -54.357  51.533   8.259  1.00  0.00     0.217 HD
ENDROOT
BRANCH   1   3
HETATM    3  C   UNL     1     -53.529  50.547   9.792  1.00  0.00     0.099 A 
HETATM    4  C   UNL     1     -53.501  49.210   9.398  1.00  0.00     0.046 A 
HETATM    5  C   UNL     1     -53.400  48.222  10.362  1.00  0.00    -0.053 A 
HETATM    6  C   UNL     1     -53.328  48.531  11.709  1.00  0.00     0.010 A 
HETATM    7  C   UNL     1     -53.355  49.869  12.104  1.00  0.00     0.040 A 
HETATM    8  C   UNL     1     -53.456  50.877  11.145  1.00  0.00     0.098 A 
BRANCH   5   9
HETATM    9  C   UNL     1     -53.370  46.772   9.934  1.00  0.00     0.082 C 
BRANCH   9  10
HETATM   10  CA  UNL     1     -54.360  46.464   8.800  1.00  0.00     0.287 C 
BRANCH  10  11
HETATM   11  N   UNL     1     -55.730  46.556   9.302  1.00  0.00    -0.065 N 
HETATM   12  H   UNL     1     -56.273  47.174   8.699  1.00  0.00     0.275 HD
HETATM   13  H   UNL     1     -55.719  46.932  10.251  1.00  0.00     0.275 HD
HETATM   14  H   UNL     1     -56.153  45.629   9.309  1.00  0.00     0.275 HD
ENDBRANCH  10  11
BRANCH  10  15
HETATM   15  C   UNL     1     -54.190  45.054   8.259  1.00  0.00     0.204 C 
HETATM   16  O   UNL     1     -53.794  45.044   6.960  1.00  0.00    -0.646 OA
HETATM   17  OXT UNL     1     -54.409  44.030   8.894  1.00  0.00    -0.646 OA
ENDBRANCH  10  15
ENDBRANCH   9  10
ENDBRANCH   5   9
BRANCH   8  18
HETATM   18  O   UNL     1     -53.484  52.180  11.543  1.00  0.00    -0.358 OA
HETATM   19  H   UNL     1     -53.147  52.420  12.384  1.00  0.00     0.217 HD
ENDBRANCH   8  18
ENDBRANCH   1   3
TORSDOF 6
ENDMDL
MODEL 6
REMARK VINA RESULT:      -5.9      3.105      5.022
REMARK  6 active torsions:
REMARK  status: ('A' for Active; 'I' for Inactive)
REMARK    1  A    between atoms: O_1  and  C_11 
REMARK    2  A    between atoms: O_3  and  C_14 
REMARK    3  A    between atoms: N_5  and  CA_7 
REMARK    4  A    between atoms: C_6  and  CA_7 
REMARK    5  A    between atoms: C_6  and  C_8 
REMARK    6  A    between atoms: CA_7  and  C_12 
ROOT
HETATM    1  O   UNL     1     -53.590  51.945   9.065  1.00  0.00    -0.358 OA
HETATM    2  H   UNL     1     -54.359  52.469   9.169  1.00  0.00     0.217 HD
ENDROOT
BRANCH   1   3
HETATM    3  C   UNL     1     -53.518  50.717   9.651  1.00  0.00     0.099 A 
HETATM    4  C   UNL     1     -53.505  49.574   8.852  1.00  0.00     0.046 A 
HETATM    5  C   UNL     1     -53.432  48.329   9.452  1.00  0.00    -0.053 A 
HETATM    6  C   UNL     1     -53.373  48.193  10.829  1.00  0.00     0.010 A 
HETATM    7  C   UNL     1     -53.385  49.335  11.628  1.00  0.00     0.040 A 
HETATM    8  C   UNL     1     -53.458  50.598  11.039  1.00  0.00     0.098 A 
BRANCH   5   9
HETATM    9  C   UNL     1     -53.417  47.090   8.585  1.00  0.00     0.082 C 
BRANCH   9  10
HETATM   10  CA  UNL     1     -53.739  45.809   9.371  1.00  0.00     0.287 C 
BRANCH  10  11
HETATM   11  N   UNL     1     -52.689  44.816   9.146  1.00  0.00    -0.065 N 
HETATM   12  H   UNL     1     -52.717  44.506   8.174  1.00  0.00     0.275 HD
HETATM   13  H   UNL     1     -52.840  44.016   9.762  1.00  0.00     0.275 HD
HETATM   14  H   UNL     1     -51.780  45.231   9.345  1.00  0.00     0.275 HD
ENDBRANCH  10  11
BRANCH  10  15
HETATM   15  C   UNL     1     -55.042  45.173   8.920  1.00  0.00     0.204 C 
HETATM   16  O   UNL     1     -56.089  46.035   8.990  1.00  0.00    -0.646 OA
HETATM   17  OXT UNL     1     -55.165  44.009   8.559  1.00  0.00    -0.646 OA
ENDBRANCH  10  15
ENDBRANCH   9  10
ENDBRANCH   5   9
BRANCH   8  18
HETATM   18  O   UNL     1     -53.472  51.707  11.831  1.00  0.00    -0.358 OA
HETATM   19  H   UNL     1     -52.700  52.231  11.916  1.00  0.00     0.217 HD
ENDBRANCH   8  18
ENDBRANCH   1   3
TORSDOF 6
ENDMDL
MODEL 7
REMARK VINA RESULT:      -5.9      3.225      5.091
REMARK  6 active torsions:
REMARK  status: ('A' for Active; 'I' for Inactive)
REMARK    1  A    between atoms: O_1  and  C_11 
REMARK    2  A    between atoms: O_3  and  C_14 
REMARK    3  A    between atoms: N_5  and  CA_7 
REMARK    4  A    between atoms: C_6  and  CA_7 
REMARK    5  A    between atoms: C_6  and  C_8 
REMARK    6  A    between atoms: CA_7  and  C_12 
ROOT
HETATM    1  O   UNL     1     -53.658  52.295   9.032  1.00  0.00    -0.358 OA
HETATM    2  H   UNL     1     -54.362  52.415   8.425  1.00  0.00     0.217 HD
ENDROOT
BRANCH   1   3
HETATM    3  C   UNL     1     -53.550  51.130   9.728  1.00  0.00     0.099 A 
HETATM    4  C   UNL     1     -53.521  49.918   9.039  1.00  0.00     0.046 A 
HETATM    5  C   UNL     1     -53.412  48.736   9.751  1.00  0.00    -0.053 A 
HETATM    6  C   UNL     1     -53.333  48.730  11.133  1.00  0.00     0.010 A 
HETATM    7  C   UNL     1     -53.362  49.941  11.823  1.00  0.00     0.040 A 
HETATM    8  C   UNL     1     -53.471  51.141  11.121  1.00  0.00     0.098 A 
BRANCH   5   9
HETATM    9  C   UNL     1     -53.379  47.422   9.003  1.00  0.00     0.082 C 
BRANCH   9  10
HETATM   10  CA  UNL     1     -52.421  47.444   7.801  1.00  0.00     0.287 C 
BRANCH  10  11
HETATM   11  N   UNL     1     -53.167  47.178   6.572  1.00  0.00    -0.065 N 
HETATM   12  H   UNL     1     -53.870  46.460   6.749  1.00  0.00     0.275 HD
HETATM   13  H   UNL     1     -52.524  46.854   5.848  1.00  0.00     0.275 HD
HETATM   14  H   UNL     1     -53.625  48.034   6.260  1.00  0.00     0.275 HD
ENDBRANCH  10  11
BRANCH  10  15
HETATM   15  C   UNL     1     -51.352  46.371   7.902  1.00  0.00     0.204 C 
HETATM   16  O   UNL     1     -51.525  45.382   6.988  1.00  0.00    -0.646 OA
HETATM   17  OXT UNL     1     -50.444  46.362   8.725  1.00  0.00    -0.646 OA
ENDBRANCH  10  15
ENDBRANCH   9  10
ENDBRANCH   5   9
BRANCH   8  18
HETATM   18  O   UNL     1     -53.501  52.319  11.806  1.00  0.00    -0.358 OA
HETATM   19  H   UNL     1     -53.656  52.319  12.730  1.00  0.00     0.217 HD
ENDBRANCH   8  18
ENDBRANCH   1   3
TORSDOF 6
ENDMDL
MODEL 8
REMARK VINA RESULT:      -5.8      4.195      5.965
REMARK  6 active torsions:
REMARK  status: ('A' for Active; 'I' for Inactive)
REMARK    1  A    between atoms: O_1  and  C_11 
REMARK    2  A    between atoms: O_3  and  C_14 
REMARK    3  A    between atoms: N_5  and  CA_7 
REMARK    4  A    between atoms: C_6  and  CA_7 
REMARK    5  A    between atoms: C_6  and  C_8 
REMARK    6  A    between atoms: CA_7  and  C_12 
ROOT
HETATM    1  O   UNL     1     -53.516  45.177   4.988  1.00  0.00    -0.358 OA
HETATM    2  H   UNL     1     -53.523  45.054   4.059  1.00  0.00     0.217 HD
ENDROOT
BRANCH   1   3
HETATM    3  C   UNL     1     -52.703  46.117   5.544  1.00  0.00     0.099 A 
HETATM    4  C   UNL     1     -53.027  46.656   6.789  1.00  0.00     0.046 A 
HETATM    5  C   UNL     1     -52.198  47.612   7.350  1.00  0.00    -0.053 A 
HETATM    6  C   UNL     1     -51.055  48.047   6.703  1.00  0.00     0.010 A 
HETATM    7  C   UNL     1     -50.729  47.509   5.458  1.00  0.00     0.040 A 
HETATM    8  C   UNL     1     -51.554  46.544   4.878  1.00  0.00     0.098 A 
BRANCH   5   9
HETATM    9  C   UNL     1     -52.549  48.194   8.701  1.00  0.00     0.082 C 
BRANCH   9  10
HETATM   10  CA  UNL     1     -53.595  49.316   8.612  1.00  0.00     0.287 C 
BRANCH  10  11
HETATM   11  N   UNL     1     -53.040  50.450   7.875  1.00  0.00    -0.065 N 
HETATM   12  H   UNL     1     -52.441  50.107   7.124  1.00  0.00     0.275 HD
HETATM   13  H   UNL     1     -52.492  51.033   8.508  1.00  0.00     0.275 HD
HETATM   14  H   UNL     1     -53.800  51.003   7.478  1.00  0.00     0.275 HD
ENDBRANCH  10  11
BRANCH  10  15
HETATM   15  C   UNL     1     -53.989  49.841   9.982  1.00  0.00     0.204 C 
HETATM   16  O   UNL     1     -54.773  48.966  10.664  1.00  0.00    -0.646 OA
HETATM   17  OXT UNL     1     -53.673  50.936  10.430  1.00  0.00    -0.646 OA
ENDBRANCH  10  15
ENDBRANCH   9  10
ENDBRANCH   5   9
BRANCH   8  18
HETATM   18  O   UNL     1     -51.228  46.028   3.660  1.00  0.00    -0.358 OA
HETATM   19  H   UNL     1     -51.696  46.298   2.895  1.00  0.00     0.217 HD
ENDBRANCH   8  18
ENDBRANCH   1   3
TORSDOF 6
ENDMDL
MODEL 9
REMARK VINA RESULT:      -5.8      3.514      5.146
REMARK  6 active torsions:
REMARK  status: ('A' for Active; 'I' for Inactive)
REMARK    1  A    between atoms: O_1  and  C_11 
REMARK    2  A    between atoms: O_3  and  C_14 
REMARK    3  A    between atoms: N_5  and  CA_7 
REMARK    4  A    between atoms: C_6  and  CA_7 
REMARK    5  A    between atoms: C_6  and  C_8 
REMARK    6  A    between atoms: CA_7  and  C_12 
ROOT
HETATM    1  O   UNL     1     -56.853  46.062   9.176  1.00  0.00    -0.358 OA
HETATM    2  H   UNL     1     -57.461  46.600   9.642  1.00  0.00     0.217 HD
ENDROOT
BRANCH   1   3
HETATM    3  C   UNL     1     -55.518  46.320   9.254  1.00  0.00     0.099 A 
HETATM    4  C   UNL     1     -55.084  47.574   9.684  1.00  0.00     0.046 A 
HETATM    5  C   UNL     1     -53.726  47.831   9.761  1.00  0.00    -0.053 A 
HETATM    6  C   UNL     1     -52.788  46.873   9.418  1.00  0.00     0.010 A 
HETATM    7  C   UNL     1     -53.221  45.619   8.988  1.00  0.00     0.040 A 
HETATM    8  C   UNL     1     -54.586  45.343   8.905  1.00  0.00     0.098 A 
BRANCH   5   9
HETATM    9  C   UNL     1     -53.257  49.191  10.229  1.00  0.00     0.082 C 
BRANCH   9  10
HETATM   10  CA  UNL     1     -53.855  50.344   9.407  1.00  0.00     0.287 C 
BRANCH  10  11
HETATM   11  N   UNL     1     -53.090  50.517   8.172  1.00  0.00    -0.065 N 
HETATM   12  H   UNL     1     -53.288  51.436   7.776  1.00  0.00     0.275 HD
HETATM   13  H   UNL     1     -53.357  49.794   7.503  1.00  0.00     0.275 HD
HETATM   14  H   UNL     1     -52.094  50.441   8.376  1.00  0.00     0.275 HD
ENDBRANCH  10  11
BRANCH  10  15
HETATM   15  C   UNL     1     -53.790  51.668  10.147  1.00  0.00     0.204 C 
HETATM   16  O   UNL     1     -53.461  51.513  11.455  1.00  0.00    -0.646 OA
HETATM   17  OXT UNL     1     -54.032  52.761   9.649  1.00  0.00    -0.646 OA
ENDBRANCH  10  15
ENDBRANCH   9  10
ENDBRANCH   5   9
BRANCH   8  18
HETATM   18  O   UNL     1     -54.996  44.114   8.481  1.00  0.00    -0.358 OA
HETATM   19  H   UNL     1     -55.343  44.009   7.617  1.00  0.00     0.217 HD
ENDBRANCH   8  18
ENDBRANCH   1   3
TORSDOF 6
ENDMDL
