MODEL 1
REMARK VINA RESULT:      -6.5      0.000      0.000
REMARK  4 active torsions:
REMARK  status: ('A' for Active; 'I' for Inactive)
REMARK    1  A    between atoms: O_1  and  C_11 
REMARK    2  A    between atoms: C_4  and  C_5 
REMARK    3  A    between atoms: C_4  and  C_6 
REMARK    4  A    between atoms: C_6  and  C_12 
ROOT
ATOM      1  O   UNL A   1     -53.420  50.180   7.945  1.00  0.00    -0.361 OA
ATOM      2  H   UNL A   1     -54.048  49.807   7.358  1.00  0.00     0.217 HD
ENDROOT
BRANCH   1   3
ATOM      3  C   UNL A   1     -53.444  49.850   9.265  1.00  0.00     0.065 A 
ATOM      4  C   UNL A   1     -53.379  48.511   9.650  1.00  0.00     0.037 A 
ATOM      5  C   UNL A   1     -53.405  48.171  11.003  1.00  0.00     0.010 A 
ATOM      6  C   UNL A   1     -53.497  49.172  11.971  1.00  0.00    -0.058 A 
ATOM      7  C   UNL A   1     -53.562  50.510  11.586  1.00  0.00     0.010 A 
ATOM      8  C   UNL A   1     -53.536  50.850  10.234  1.00  0.00     0.037 A 
BRANCH   6   9
ATOM      9  C   UNL A   1     -53.524  48.809  13.417  1.00  0.00     0.049 C 
BRANCH   9  10
ATOM     10  C   UNL A   1     -52.229  48.157  13.915  1.00  0.00     0.117 C 
BRANCH  10  11
ATOM     11  C   UNL A   1     -51.733  48.802  15.187  1.00  0.00     0.172 C 
ATOM     12  O   UNL A   1     -52.446  49.903  15.532  1.00  0.00    -0.648 OA
ATOM     13  O   UNL A   1     -50.804  48.367  15.854  1.00  0.00    -0.648 OA
ENDBRANCH  10  11
ENDBRANCH   9  10
ENDBRANCH   6   9
ENDBRANCH   1   3
TORSDOF 4
ENDMDL
MODEL 2
REMARK VINA RESULT:      -6.5      0.200      1.408
REMARK  4 active torsions:
REMARK  status: ('A' for Active; 'I' for Inactive)
REMARK    1  A    between atoms: O_1  and  C_11 
REMARK    2  A    between atoms: C_4  and  C_5 
REMARK    3  A    between atoms: C_4  and  C_6 
REMARK    4  A    between atoms: C_6  and  C_12 
ROOT
ATOM      1  O   UNL A   1     -53.396  50.404   7.824  1.00  0.00    -0.361 OA
ATOM      2  H   UNL A   1     -54.172  50.732   7.413  1.00  0.00     0.217 HD
ENDROOT
BRANCH   1   3
ATOM      3  C   UNL A   1     -53.430  50.016   9.127  1.00  0.00     0.065 A 
ATOM      4  C   UNL A   1     -53.562  50.970  10.136  1.00  0.00     0.037 A 
ATOM      5  C   UNL A   1     -53.595  50.573  11.473  1.00  0.00     0.010 A 
ATOM      6  C   UNL A   1     -53.496  49.220  11.801  1.00  0.00    -0.058 A 
ATOM      7  C   UNL A   1     -53.363  48.267  10.792  1.00  0.00     0.010 A 
ATOM      8  C   UNL A   1     -53.330  48.663   9.456  1.00  0.00     0.037 A 
BRANCH   6   9
ATOM      9  C   UNL A   1     -53.532  48.795  13.230  1.00  0.00     0.049 C 
BRANCH   9  10
ATOM     10  C   UNL A   1     -52.233  48.141  13.712  1.00  0.00     0.117 C 
BRANCH  10  11
ATOM     11  C   UNL A   1     -51.761  48.734  15.018  1.00  0.00     0.172 C 
ATOM     12  O   UNL A   1     -52.474  49.827  15.389  1.00  0.00    -0.648 OA
ATOM     13  O   UNL A   1     -50.850  48.268  15.689  1.00  0.00    -0.648 OA
ENDBRANCH  10  11
ENDBRANCH   9  10
ENDBRANCH   6   9
ENDBRANCH   1   3
TORSDOF 4
ENDMDL
MODEL 3
REMARK VINA RESULT:      -6.0      1.100      2.063
REMARK  4 active torsions:
REMARK  status: ('A' for Active; 'I' for Inactive)
REMARK    1  A    between atoms: O_1  and  C_11 
REMARK    2  A    between atoms: C_4  and  C_5 
REMARK    3  A    between atoms: C_4  and  C_6 
REMARK    4  A    between atoms: C_6  and  C_12 
ROOT
ATOM      1  O   UNL A   1     -53.828  47.592   7.425  1.00  0.00    -0.361 OA
ATOM      2  H   UNL A   1     -53.421  46.794   7.150  1.00  0.00     0.217 HD
ENDROOT
BRANCH   1   3
ATOM      3  C   UNL A   1     -53.641  48.048   8.693  1.00  0.00     0.065 A 
ATOM      4  C   UNL A   1     -53.786  49.406   8.976  1.00  0.00     0.037 A 
ATOM      5  C   UNL A   1     -53.594  49.874  10.275  1.00  0.00     0.010 A 
ATOM      6  C   UNL A   1     -53.254  48.983  11.294  1.00  0.00    -0.058 A 
ATOM      7  C   UNL A   1     -53.109  47.625  11.012  1.00  0.00     0.010 A 
ATOM      8  C   UNL A   1     -53.301  47.157   9.713  1.00  0.00     0.037 A 
BRANCH   6   9
ATOM      9  C   UNL A   1     -53.049  49.483  12.683  1.00  0.00     0.049 C 
BRANCH   9  10
ATOM     10  C   UNL A   1     -52.639  48.391  13.678  1.00  0.00     0.117 C 
BRANCH  10  11
ATOM     11  C   UNL A   1     -52.080  48.979  14.952  1.00  0.00     0.172 C 
ATOM     12  O   UNL A   1     -50.994  48.308  15.410  1.00  0.00    -0.648 OA
ATOM     13  O   UNL A   1     -52.538  49.971  15.502  1.00  0.00    -0.648 OA
ENDBRANCH  10  11
ENDBRANCH   9  10
ENDBRANCH   6   9
ENDBRANCH   1   3
TORSDOF 4
ENDMDL
MODEL 4
REMARK VINA RESULT:      -6.0      0.875      1.386
REMARK  4 active torsions:
REMARK  status: ('A' for Active; 'I' for Inactive)
REMARK    1  A    between atoms: O_1  and  C_11 
REMARK    2  A    between atoms: C_4  and  C_5 
REMARK    3  A    between atoms: C_4  and  C_6 
REMARK    4  A    between atoms: C_6  and  C_12 
ROOT
ATOM      1  O   UNL A   1     -52.856  48.295   7.434  1.00  0.00    -0.361 OA
ATOM      2  H   UNL A   1     -53.568  47.936   6.942  1.00  0.00     0.217 HD
ENDROOT
BRANCH   1   3
ATOM      3  C   UNL A   1     -52.996  48.519   8.769  1.00  0.00     0.065 A 
ATOM      4  C   UNL A   1     -52.698  47.508   9.681  1.00  0.00     0.037 A 
ATOM      5  C   UNL A   1     -52.842  47.736  11.049  1.00  0.00     0.010 A 
ATOM      6  C   UNL A   1     -53.287  48.977  11.506  1.00  0.00    -0.058 A 
ATOM      7  C   UNL A   1     -53.586  49.989  10.594  1.00  0.00     0.010 A 
ATOM      8  C   UNL A   1     -53.441  49.761   9.226  1.00  0.00     0.037 A 
BRANCH   6   9
ATOM      9  C   UNL A   1     -53.441  49.222  12.968  1.00  0.00     0.049 C 
BRANCH   9  10
ATOM     10  C   UNL A   1     -52.653  48.241  13.845  1.00  0.00     0.117 C 
BRANCH  10  11
ATOM     11  C   UNL A   1     -52.000  48.939  15.013  1.00  0.00     0.172 C 
ATOM     12  O   UNL A   1     -50.797  48.405  15.341  1.00  0.00    -0.648 OA
ATOM     13  O   UNL A   1     -52.486  49.903  15.591  1.00  0.00    -0.648 OA
ENDBRANCH  10  11
ENDBRANCH   9  10
ENDBRANCH   6   9
ENDBRANCH   1   3
TORSDOF 4
ENDMDL
MODEL 5
REMARK VINA RESULT:      -5.9      2.012      4.867
REMARK  4 active torsions:
REMARK  status: ('A' for Active; 'I' for Inactive)
REMARK    1  A    between atoms: O_1  and  C_11 
REMARK    2  A    between atoms: C_4  and  C_5 
REMARK    3  A    between atoms: C_4  and  C_6 
REMARK    4  A    between atoms: C_6  and  C_12 
ROOT
ATOM      1  O   UNL A   1     -51.665  46.386  13.865  1.00  0.00    -0.361 OA
ATOM      2  H   UNL A   1     -50.869  46.663  14.274  1.00  0.00     0.217 HD
ENDROOT
BRANCH   1   3
ATOM      3  C   UNL A   1     -52.283  47.195  12.962  1.00  0.00     0.065 A 
ATOM      4  C   UNL A   1     -52.379  46.804  11.627  1.00  0.00     0.037 A 
ATOM      5  C   UNL A   1     -53.011  47.633  10.700  1.00  0.00     0.010 A 
ATOM      6  C   UNL A   1     -53.548  48.855  11.109  1.00  0.00    -0.058 A 
ATOM      7  C   UNL A   1     -53.451  49.245  12.445  1.00  0.00     0.010 A 
ATOM      8  C   UNL A   1     -52.819  48.417  13.371  1.00  0.00     0.037 A 
BRANCH   6   9
ATOM      9  C   UNL A   1     -54.224  49.741  10.119  1.00  0.00     0.049 C 
BRANCH   9  10
ATOM     10  C   UNL A   1     -53.346  50.896   9.624  1.00  0.00     0.117 C 
BRANCH  10  11
ATOM     11  C   UNL A   1     -53.839  52.229  10.134  1.00  0.00     0.172 C 
ATOM     12  O   UNL A   1     -53.449  52.482  11.408  1.00  0.00    -0.648 OA
ATOM     13  O   UNL A   1     -54.497  53.013   9.464  1.00  0.00    -0.648 OA
ENDBRANCH  10  11
ENDBRANCH   9  10
ENDBRANCH   6   9
ENDBRANCH   1   3
TORSDOF 4
ENDMDL
MODEL 6
REMARK VINA RESULT:      -5.7      1.785      5.229
REMARK  4 active torsions:
REMARK  status: ('A' for Active; 'I' for Inactive)
REMARK    1  A    between atoms: O_1  and  C_11 
REMARK    2  A    between atoms: C_4  and  C_5 
REMARK    3  A    between atoms: C_4  and  C_6 
REMARK    4  A    between atoms: C_6  and  C_12 
ROOT
ATOM      1  O   UNL A   1     -50.870  45.852  14.583  1.00  0.00    -0.361 OA
ATOM      2  H   UNL A   1     -50.909  44.918  14.531  1.00  0.00     0.217 HD
ENDROOT
BRANCH   1   3
ATOM      3  C   UNL A   1     -51.595  46.612  13.718  1.00  0.00     0.065 A 
ATOM      4  C   UNL A   1     -51.755  46.202  12.394  1.00  0.00     0.037 A 
ATOM      5  C   UNL A   1     -52.497  46.980  11.507  1.00  0.00     0.010 A 
ATOM      6  C   UNL A   1     -53.080  48.171  11.942  1.00  0.00    -0.058 A 
ATOM      7  C   UNL A   1     -52.919  48.581  13.265  1.00  0.00     0.010 A 
ATOM      8  C   UNL A   1     -52.177  47.803  14.153  1.00  0.00     0.037 A 
BRANCH   6   9
ATOM      9  C   UNL A   1     -53.873  49.003  10.993  1.00  0.00     0.049 C 
BRANCH   9  10
ATOM     10  C   UNL A   1     -53.586  50.505  11.100  1.00  0.00     0.117 C 
BRANCH  10  11
ATOM     11  C   UNL A   1     -53.660  51.184   9.753  1.00  0.00     0.172 C 
ATOM     12  O   UNL A   1     -53.548  50.315   8.718  1.00  0.00    -0.648 OA
ATOM     13  O   UNL A   1     -53.830  52.387   9.605  1.00  0.00    -0.648 OA
ENDBRANCH  10  11
ENDBRANCH   9  10
ENDBRANCH   6   9
ENDBRANCH   1   3
TORSDOF 4
ENDMDL
MODEL 7
REMARK VINA RESULT:      -5.6      1.836      5.329
REMARK  4 active torsions:
REMARK  status: ('A' for Active; 'I' for Inactive)
REMARK    1  A    between atoms: O_1  and  C_11 
REMARK    2  A    between atoms: C_4  and  C_5 
REMARK    3  A    between atoms: C_4  and  C_6 
REMARK    4  A    between atoms: C_6  and  C_12 
ROOT
ATOM      1  O   UNL A   1     -51.032  45.718  14.405  1.00  0.00    -0.361 OA
ATOM      2  H   UNL A   1     -51.326  44.830  14.344  1.00  0.00     0.217 HD
ENDROOT
BRANCH   1   3
ATOM      3  C   UNL A   1     -51.690  46.700  13.730  1.00  0.00     0.065 A 
ATOM      4  C   UNL A   1     -51.987  47.905  14.366  1.00  0.00     0.037 A 
ATOM      5  C   UNL A   1     -52.663  48.911  13.676  1.00  0.00     0.010 A 
ATOM      6  C   UNL A   1     -53.043  48.712  12.348  1.00  0.00    -0.058 A 
ATOM      7  C   UNL A   1     -52.746  47.506  11.712  1.00  0.00     0.010 A 
ATOM      8  C   UNL A   1     -52.070  46.500  12.402  1.00  0.00     0.037 A 
BRANCH   6   9
ATOM      9  C   UNL A   1     -53.764  49.787  11.610  1.00  0.00     0.049 C 
BRANCH   9  10
ATOM     10  C   UNL A   1     -54.313  49.341  10.250  1.00  0.00     0.117 C 
BRANCH  10  11
ATOM     11  C   UNL A   1     -53.518  49.927   9.108  1.00  0.00     0.172 C 
ATOM     12  O   UNL A   1     -53.532  51.284   9.097  1.00  0.00    -0.648 OA
ATOM     13  O   UNL A   1     -52.901  49.256   8.292  1.00  0.00    -0.648 OA
ENDBRANCH  10  11
ENDBRANCH   9  10
ENDBRANCH   6   9
ENDBRANCH   1   3
TORSDOF 4
ENDMDL
MODEL 8
REMARK VINA RESULT:      -5.6      2.893      5.415
REMARK  4 active torsions:
REMARK  status: ('A' for Active; 'I' for Inactive)
REMARK    1  A    between atoms: O_1  and  C_11 
REMARK    2  A    between atoms: C_4  and  C_5 
REMARK    3  A    between atoms: C_4  and  C_6 
REMARK    4  A    between atoms: C_6  and  C_12 
ROOT
ATOM      1  O   UNL A   1     -53.573  52.026  11.640  1.00  0.00    -0.361 OA
ATOM      2  H   UNL A   1     -52.799  52.485  11.900  1.00  0.00     0.217 HD
ENDROOT
BRANCH   1   3
ATOM      3  C   UNL A   1     -53.487  50.742  11.198  1.00  0.00     0.065 A 
ATOM      4  C   UNL A   1     -53.696  50.452   9.850  1.00  0.00     0.037 A 
ATOM      5  C   UNL A   1     -53.608  49.137   9.396  1.00  0.00     0.010 A 
ATOM      6  C   UNL A   1     -53.311  48.108  10.291  1.00  0.00    -0.058 A 
ATOM      7  C   UNL A   1     -53.102  48.398  11.639  1.00  0.00     0.010 A 
ATOM      8  C   UNL A   1     -53.189  49.713  12.093  1.00  0.00     0.037 A 
BRANCH   6   9
ATOM      9  C   UNL A   1     -53.217  46.702   9.806  1.00  0.00     0.049 C 
BRANCH   9  10
ATOM     10  C   UNL A   1     -52.463  46.556   8.479  1.00  0.00     0.117 C 
BRANCH  10  11
ATOM     11  C   UNL A   1     -53.367  46.060   7.376  1.00  0.00     0.172 C 
ATOM     12  O   UNL A   1     -54.284  45.160   7.810  1.00  0.00    -0.648 OA
ATOM     13  O   UNL A   1     -53.302  46.447   6.217  1.00  0.00    -0.648 OA
ENDBRANCH  10  11
ENDBRANCH   9  10
ENDBRANCH   6   9
ENDBRANCH   1   3
TORSDOF 4
ENDMDL
MODEL 9
REMARK VINA RESULT:      -5.6      2.345      5.803
REMARK  4 active torsions:
REMARK  status: ('A' for Active; 'I' for Inactive)
REMARK    1  A    between atoms: O_1  and  C_11 
REMARK    2  A    between atoms: C_4  and  C_5 
REMARK    3  A    between atoms: C_4  and  C_6 
REMARK    4  A    between atoms: C_6  and  C_12 
ROOT
ATOM      1  O   UNL A   1     -52.953  49.503  13.856  1.00  0.00    -0.361 OA
ATOM      2  H   UNL A   1     -53.320  48.919  14.491  1.00  0.00     0.217 HD
ENDROOT
BRANCH   1   3
ATOM      3  C   UNL A   1     -53.101  49.243  12.529  1.00  0.00     0.065 A 
ATOM      4  C   UNL A   1     -52.873  47.957  12.040  1.00  0.00     0.037 A 
ATOM      5  C   UNL A   1     -53.023  47.690  10.680  1.00  0.00     0.010 A 
ATOM      6  C   UNL A   1     -53.401  48.710   9.806  1.00  0.00    -0.058 A 
ATOM      7  C   UNL A   1     -53.629  49.996  10.295  1.00  0.00     0.010 A 
ATOM      8  C   UNL A   1     -53.479  50.264  11.655  1.00  0.00     0.037 A 
BRANCH   6   9
ATOM      9  C   UNL A   1     -53.562  48.425   8.352  1.00  0.00     0.049 C 
BRANCH   9  10
ATOM     10  C   UNL A   1     -52.450  47.546   7.768  1.00  0.00     0.117 C 
BRANCH  10  11
ATOM     11  C   UNL A   1     -52.991  46.553   6.768  1.00  0.00     0.172 C 
ATOM     12  O   UNL A   1     -53.851  45.662   7.322  1.00  0.00    -0.648 OA
ATOM     13  O   UNL A   1     -52.709  46.562   5.577  1.00  0.00    -0.648 OA
ENDBRANCH  10  11
ENDBRANCH   9  10
ENDBRANCH   6   9
ENDBRANCH   1   3
TORSDOF 4
ENDMDL
