MODEL 1
REMARK VINA RESULT:      -6.5      0.000      0.000
REMARK  4 active torsions:
REMARK  status: ('A' for Active; 'I' for Inactive)
REMARK    1  A    between atoms: O_1  and  C_11 
REMARK    2  A    between atoms: C_4  and  C_5 
REMARK    3  A    between atoms: C_4  and  C_6 
REMARK    4  A    between atoms: C_6  and  C_12 
ROOT
ATOM      1  O   UNL A   1     -53.378  50.404   7.829  1.00  0.00    -0.361 OA
ATOM      2  H   UNL A   1     -52.939  49.868   7.198  1.00  0.00     0.217 HD
ENDROOT
BRANCH   1   3
ATOM      3  C   UNL A   1     -53.429  50.014   9.132  1.00  0.00     0.065 A 
ATOM      4  C   UNL A   1     -53.533  50.970  10.142  1.00  0.00     0.037 A 
ATOM      5  C   UNL A   1     -53.585  50.572  11.478  1.00  0.00     0.010 A 
ATOM      6  C   UNL A   1     -53.532  49.216  11.804  1.00  0.00    -0.058 A 
ATOM      7  C   UNL A   1     -53.428  48.261  10.794  1.00  0.00     0.010 A 
ATOM      8  C   UNL A   1     -53.376  48.658   9.459  1.00  0.00     0.037 A 
BRANCH   6   9
ATOM      9  C   UNL A   1     -53.588  48.790  13.232  1.00  0.00     0.049 C 
BRANCH   9  10
ATOM     10  C   UNL A   1     -52.239  48.321  13.789  1.00  0.00     0.117 C 
BRANCH  10  11
ATOM     11  C   UNL A   1     -51.924  48.977  15.112  1.00  0.00     0.172 C 
ATOM     12  O   UNL A   1     -50.851  48.426  15.732  1.00  0.00    -0.648 OA
ATOM     13  O   UNL A   1     -52.550  49.924  15.569  1.00  0.00    -0.648 OA
ENDBRANCH  10  11
ENDBRANCH   9  10
ENDBRANCH   6   9
ENDBRANCH   1   3
TORSDOF 4
ENDMDL
MODEL 2
REMARK VINA RESULT:      -6.5      0.110      1.678
REMARK  4 active torsions:
REMARK  status: ('A' for Active; 'I' for Inactive)
REMARK    1  A    between atoms: O_1  and  C_11 
REMARK    2  A    between atoms: C_4  and  C_5 
REMARK    3  A    between atoms: C_4  and  C_6 
REMARK    4  A    between atoms: C_6  and  C_12 
ROOT
ATOM      1  O   UNL A   1     -53.401  50.398   7.836  1.00  0.00    -0.361 OA
ATOM      2  H   UNL A   1     -53.890  51.145   7.552  1.00  0.00     0.217 HD
ENDROOT
BRANCH   1   3
ATOM      3  C   UNL A   1     -53.442  50.014   9.141  1.00  0.00     0.065 A 
ATOM      4  C   UNL A   1     -53.363  48.662   9.474  1.00  0.00     0.037 A 
ATOM      5  C   UNL A   1     -53.406  48.268  10.811  1.00  0.00     0.010 A 
ATOM      6  C   UNL A   1     -53.529  49.227  11.817  1.00  0.00    -0.058 A 
ATOM      7  C   UNL A   1     -53.609  50.579  11.484  1.00  0.00     0.010 A 
ATOM      8  C   UNL A   1     -53.566  50.973  10.148  1.00  0.00     0.037 A 
BRANCH   6   9
ATOM      9  C   UNL A   1     -53.575  48.807  13.247  1.00  0.00     0.049 C 
BRANCH   9  10
ATOM     10  C   UNL A   1     -52.277  48.158  13.741  1.00  0.00     0.117 C 
BRANCH  10  11
ATOM     11  C   UNL A   1     -51.773  48.813  15.005  1.00  0.00     0.172 C 
ATOM     12  O   UNL A   1     -52.534  49.867  15.392  1.00  0.00    -0.648 OA
ATOM     13  O   UNL A   1     -50.797  48.423  15.632  1.00  0.00    -0.648 OA
ENDBRANCH  10  11
ENDBRANCH   9  10
ENDBRANCH   6   9
ENDBRANCH   1   3
TORSDOF 4
ENDMDL
MODEL 3
REMARK VINA RESULT:      -6.0      1.047      1.796
REMARK  4 active torsions:
REMARK  status: ('A' for Active; 'I' for Inactive)
REMARK    1  A    between atoms: O_1  and  C_11 
REMARK    2  A    between atoms: C_4  and  C_5 
REMARK    3  A    between atoms: C_4  and  C_6 
REMARK    4  A    between atoms: C_6  and  C_12 
ROOT
ATOM      1  O   UNL A   1     -53.585  47.794   7.438  1.00  0.00    -0.361 OA
ATOM      2  H   UNL A   1     -53.980  48.361   6.805  1.00  0.00     0.217 HD
ENDROOT
BRANCH   1   3
ATOM      3  C   UNL A   1     -53.470  48.197   8.733  1.00  0.00     0.065 A 
ATOM      4  C   UNL A   1     -53.146  47.273   9.725  1.00  0.00     0.037 A 
ATOM      5  C   UNL A   1     -53.030  47.684  11.052  1.00  0.00     0.010 A 
ATOM      6  C   UNL A   1     -53.238  49.022  11.388  1.00  0.00    -0.058 A 
ATOM      7  C   UNL A   1     -53.563  49.947  10.396  1.00  0.00     0.010 A 
ATOM      8  C   UNL A   1     -53.679  49.536   9.069  1.00  0.00     0.037 A 
BRANCH   6   9
ATOM      9  C   UNL A   1     -53.113  49.463  12.807  1.00  0.00     0.049 C 
BRANCH   9  10
ATOM     10  C   UNL A   1     -52.576  48.377  13.746  1.00  0.00     0.117 C 
BRANCH  10  11
ATOM     11  C   UNL A   1     -52.045  48.964  15.032  1.00  0.00     0.172 C 
ATOM     12  O   UNL A   1     -50.990  48.274  15.531  1.00  0.00    -0.648 OA
ATOM     13  O   UNL A   1     -52.499  49.972  15.559  1.00  0.00    -0.648 OA
ENDBRANCH  10  11
ENDBRANCH   9  10
ENDBRANCH   6   9
ENDBRANCH   1   3
TORSDOF 4
ENDMDL
MODEL 4
REMARK VINA RESULT:      -5.7      1.883      5.096
REMARK  4 active torsions:
REMARK  status: ('A' for Active; 'I' for Inactive)
REMARK    1  A    between atoms: O_1  and  C_11 
REMARK    2  A    between atoms: C_4  and  C_5 
REMARK    3  A    between atoms: C_4  and  C_6 
REMARK    4  A    between atoms: C_6  and  C_12 
ROOT
ATOM      1  O   UNL A   1     -50.875  46.245  14.514  1.00  0.00    -0.361 OA
ATOM      2  H   UNL A   1     -51.243  45.628  15.115  1.00  0.00     0.217 HD
ENDROOT
BRANCH   1   3
ATOM      3  C   UNL A   1     -51.691  46.980  13.710  1.00  0.00     0.065 A 
ATOM      4  C   UNL A   1     -51.918  46.578  12.394  1.00  0.00     0.037 A 
ATOM      5  C   UNL A   1     -52.753  47.331  11.568  1.00  0.00     0.010 A 
ATOM      6  C   UNL A   1     -53.362  48.487  12.059  1.00  0.00    -0.058 A 
ATOM      7  C   UNL A   1     -53.135  48.888  13.375  1.00  0.00     0.010 A 
ATOM      8  C   UNL A   1     -52.300  48.136  14.201  1.00  0.00     0.037 A 
BRANCH   6   9
ATOM      9  C   UNL A   1     -54.255  49.291  11.177  1.00  0.00     0.049 C 
BRANCH   9  10
ATOM     10  C   UNL A   1     -53.502  50.156  10.160  1.00  0.00     0.117 C 
BRANCH  10  11
ATOM     11  C   UNL A   1     -53.602  51.625  10.495  1.00  0.00     0.172 C 
ATOM     12  O   UNL A   1     -53.971  52.384   9.433  1.00  0.00    -0.648 OA
ATOM     13  O   UNL A   1     -53.398  52.084  11.611  1.00  0.00    -0.648 OA
ENDBRANCH  10  11
ENDBRANCH   9  10
ENDBRANCH   6   9
ENDBRANCH   1   3
TORSDOF 4
ENDMDL
MODEL 5
REMARK VINA RESULT:      -5.7      1.992      5.230
REMARK  4 active torsions:
REMARK  status: ('A' for Active; 'I' for Inactive)
REMARK    1  A    between atoms: O_1  and  C_11 
REMARK    2  A    between atoms: C_4  and  C_5 
REMARK    3  A    between atoms: C_4  and  C_6 
REMARK    4  A    between atoms: C_6  and  C_12 
ROOT
ATOM      1  O   UNL A   1     -51.186  45.416  13.942  1.00  0.00    -0.361 OA
ATOM      2  H   UNL A   1     -50.576  45.532  14.644  1.00  0.00     0.217 HD
ENDROOT
BRANCH   1   3
ATOM      3  C   UNL A   1     -51.797  46.498  13.387  1.00  0.00     0.065 A 
ATOM      4  C   UNL A   1     -52.071  47.621  14.168  1.00  0.00     0.037 A 
ATOM      5  C   UNL A   1     -52.699  48.730  13.601  1.00  0.00     0.010 A 
ATOM      6  C   UNL A   1     -53.053  48.716  12.251  1.00  0.00    -0.058 A 
ATOM      7  C   UNL A   1     -52.779  47.593  11.471  1.00  0.00     0.010 A 
ATOM      8  C   UNL A   1     -52.152  46.484  12.038  1.00  0.00     0.037 A 
BRANCH   6   9
ATOM      9  C   UNL A   1     -53.724  49.901  11.644  1.00  0.00     0.049 C 
BRANCH   9  10
ATOM     10  C   UNL A   1     -54.189  49.676  10.201  1.00  0.00     0.117 C 
BRANCH  10  11
ATOM     11  C   UNL A   1     -53.647  50.732   9.269  1.00  0.00     0.172 C 
ATOM     12  O   UNL A   1     -53.885  51.994   9.707  1.00  0.00    -0.648 OA
ATOM     13  O   UNL A   1     -53.034  50.483   8.239  1.00  0.00    -0.648 OA
ENDBRANCH  10  11
ENDBRANCH   9  10
ENDBRANCH   6   9
ENDBRANCH   1   3
TORSDOF 4
ENDMDL
MODEL 6
REMARK VINA RESULT:      -5.7      2.941      5.121
REMARK  4 active torsions:
REMARK  status: ('A' for Active; 'I' for Inactive)
REMARK    1  A    between atoms: O_1  and  C_11 
REMARK    2  A    between atoms: C_4  and  C_5 
REMARK    3  A    between atoms: C_4  and  C_6 
REMARK    4  A    between atoms: C_6  and  C_12 
ROOT
ATOM      1  O   UNL A   1     -53.554  52.002  11.702  1.00  0.00    -0.361 OA
ATOM      2  H   UNL A   1     -52.784  52.454  11.984  1.00  0.00     0.217 HD
ENDROOT
BRANCH   1   3
ATOM      3  C   UNL A   1     -53.442  50.837  11.008  1.00  0.00     0.065 A 
ATOM      4  C   UNL A   1     -53.530  50.842   9.616  1.00  0.00     0.037 A 
ATOM      5  C   UNL A   1     -53.416  49.649   8.904  1.00  0.00     0.010 A 
ATOM      6  C   UNL A   1     -53.215  48.447   9.584  1.00  0.00    -0.058 A 
ATOM      7  C   UNL A   1     -53.127  48.441  10.976  1.00  0.00     0.010 A 
ATOM      8  C   UNL A   1     -53.241  49.635  11.688  1.00  0.00     0.037 A 
BRANCH   6   9
ATOM      9  C   UNL A   1     -53.092  47.171   8.824  1.00  0.00     0.049 C 
BRANCH   9  10
ATOM     10  C   UNL A   1     -53.709  45.964   9.539  1.00  0.00     0.117 C 
BRANCH  10  11
ATOM     11  C   UNL A   1     -54.994  45.522   8.881  1.00  0.00     0.172 C 
ATOM     12  O   UNL A   1     -56.006  46.409   9.053  1.00  0.00    -0.648 OA
ATOM     13  O   UNL A   1     -55.110  44.488   8.236  1.00  0.00    -0.648 OA
ENDBRANCH  10  11
ENDBRANCH   9  10
ENDBRANCH   6   9
ENDBRANCH   1   3
TORSDOF 4
ENDMDL
MODEL 7
REMARK VINA RESULT:      -5.7      3.227      5.048
REMARK  4 active torsions:
REMARK  status: ('A' for Active; 'I' for Inactive)
REMARK    1  A    between atoms: O_1  and  C_11 
REMARK    2  A    between atoms: C_4  and  C_5 
REMARK    3  A    between atoms: C_4  and  C_6 
REMARK    4  A    between atoms: C_6  and  C_12 
ROOT
ATOM      1  O   UNL A   1     -53.521  52.310  11.611  1.00  0.00    -0.361 OA
ATOM      2  H   UNL A   1     -52.778  52.874  11.519  1.00  0.00     0.217 HD
ENDROOT
BRANCH   1   3
ATOM      3  C   UNL A   1     -53.494  51.059  11.076  1.00  0.00     0.065 A 
ATOM      4  C   UNL A   1     -53.349  49.948  11.906  1.00  0.00     0.037 A 
ATOM      5  C   UNL A   1     -53.320  48.665  11.358  1.00  0.00     0.010 A 
ATOM      6  C   UNL A   1     -53.437  48.494   9.978  1.00  0.00    -0.058 A 
ATOM      7  C   UNL A   1     -53.582  49.605   9.148  1.00  0.00     0.010 A 
ATOM      8  C   UNL A   1     -53.611  50.887   9.696  1.00  0.00     0.037 A 
BRANCH   6   9
ATOM      9  C   UNL A   1     -53.407  47.123   9.393  1.00  0.00     0.049 C 
BRANCH   9  10
ATOM     10  C   UNL A   1     -54.797  46.509   9.187  1.00  0.00     0.117 C 
BRANCH  10  11
ATOM     11  C   UNL A   1     -54.724  45.011   9.014  1.00  0.00     0.172 C 
ATOM     12  O   UNL A   1     -53.710  44.447   9.716  1.00  0.00    -0.648 OA
ATOM     13  O   UNL A   1     -55.511  44.365   8.334  1.00  0.00    -0.648 OA
ENDBRANCH  10  11
ENDBRANCH   9  10
ENDBRANCH   6   9
ENDBRANCH   1   3
TORSDOF 4
ENDMDL
MODEL 8
REMARK VINA RESULT:      -5.6      1.752      2.496
REMARK  4 active torsions:
REMARK  status: ('A' for Active; 'I' for Inactive)
REMARK    1  A    between atoms: O_1  and  C_11 
REMARK    2  A    between atoms: C_4  and  C_5 
REMARK    3  A    between atoms: C_4  and  C_6 
REMARK    4  A    between atoms: C_6  and  C_12 
ROOT
ATOM      1  O   UNL A   1     -53.958  52.194   9.300  1.00  0.00    -0.361 OA
ATOM      2  H   UNL A   1     -54.061  52.221   8.369  1.00  0.00     0.217 HD
ENDROOT
BRANCH   1   3
ATOM      3  C   UNL A   1     -53.670  51.016   9.918  1.00  0.00     0.065 A 
ATOM      4  C   UNL A   1     -53.502  49.855   9.163  1.00  0.00     0.037 A 
ATOM      5  C   UNL A   1     -53.208  48.648   9.795  1.00  0.00     0.010 A 
ATOM      6  C   UNL A   1     -53.082  48.600  11.184  1.00  0.00    -0.058 A 
ATOM      7  C   UNL A   1     -53.250  49.761  11.939  1.00  0.00     0.010 A 
ATOM      8  C   UNL A   1     -53.544  50.969  11.307  1.00  0.00     0.037 A 
BRANCH   6   9
ATOM      9  C   UNL A   1     -52.767  47.310  11.860  1.00  0.00     0.049 C 
BRANCH   9  10
ATOM     10  C   UNL A   1     -52.385  47.463  13.337  1.00  0.00     0.117 C 
BRANCH  10  11
ATOM     11  C   UNL A   1     -51.207  46.591  13.702  1.00  0.00     0.172 C 
ATOM     12  O   UNL A   1     -50.609  46.033  12.620  1.00  0.00    -0.648 OA
ATOM     13  O   UNL A   1     -50.813  46.423  14.849  1.00  0.00    -0.648 OA
ENDBRANCH  10  11
ENDBRANCH   9  10
ENDBRANCH   6   9
ENDBRANCH   1   3
TORSDOF 4
ENDMDL
MODEL 9
REMARK VINA RESULT:      -5.6      2.338      5.747
REMARK  4 active torsions:
REMARK  status: ('A' for Active; 'I' for Inactive)
REMARK    1  A    between atoms: O_1  and  C_11 
REMARK    2  A    between atoms: C_4  and  C_5 
REMARK    3  A    between atoms: C_4  and  C_6 
REMARK    4  A    between atoms: C_6  and  C_12 
ROOT
ATOM      1  O   UNL A   1     -53.071  49.287  13.998  1.00  0.00    -0.361 OA
ATOM      2  H   UNL A   1     -53.537  48.710  14.570  1.00  0.00     0.217 HD
ENDROOT
BRANCH   1   3
ATOM      3  C   UNL A   1     -53.153  49.120  12.650  1.00  0.00     0.065 A 
ATOM      4  C   UNL A   1     -53.494  50.197  11.832  1.00  0.00     0.037 A 
ATOM      5  C   UNL A   1     -53.579  50.026  10.451  1.00  0.00     0.010 A 
ATOM      6  C   UNL A   1     -53.322  48.777   9.886  1.00  0.00    -0.058 A 
ATOM      7  C   UNL A   1     -52.981  47.700  10.703  1.00  0.00     0.010 A 
ATOM      8  C   UNL A   1     -52.896  47.870  12.084  1.00  0.00     0.037 A 
BRANCH   6   9
ATOM      9  C   UNL A   1     -53.412  48.594   8.409  1.00  0.00     0.049 C 
BRANCH   9  10
ATOM     10  C   UNL A   1     -52.392  47.596   7.847  1.00  0.00     0.117 C 
BRANCH  10  11
ATOM     11  C   UNL A   1     -53.036  46.621   6.891  1.00  0.00     0.172 C 
ATOM     12  O   UNL A   1     -53.943  45.812   7.493  1.00  0.00    -0.648 OA
ATOM     13  O   UNL A   1     -52.788  46.578   5.693  1.00  0.00    -0.648 OA
ENDBRANCH  10  11
ENDBRANCH   9  10
ENDBRANCH   6   9
ENDBRANCH   1   3
TORSDOF 4
ENDMDL
