MODEL 1
REMARK VINA RESULT:      -6.5      0.000      0.000
REMARK  4 active torsions:
REMARK  status: ('A' for Active; 'I' for Inactive)
REMARK    1  A    between atoms: O_1  and  C_11 
REMARK    2  A    between atoms: C_4  and  C_5 
REMARK    3  A    between atoms: C_4  and  C_6 
REMARK    4  A    between atoms: C_6  and  C_12 
ROOT
ATOM      1  O   UNL A   1     -53.397  50.600   7.963  1.00  0.00    -0.361 OA
ATOM      2  H   UNL A   1     -53.462  49.994   7.252  1.00  0.00     0.217 HD
ENDROOT
BRANCH   1   3
ATOM      3  C   UNL A   1     -53.454  50.151   9.246  1.00  0.00     0.065 A 
ATOM      4  C   UNL A   1     -53.442  48.781   9.507  1.00  0.00     0.037 A 
ATOM      5  C   UNL A   1     -53.501  48.319  10.821  1.00  0.00     0.010 A 
ATOM      6  C   UNL A   1     -53.572  49.228  11.877  1.00  0.00    -0.058 A 
ATOM      7  C   UNL A   1     -53.583  50.598  11.617  1.00  0.00     0.010 A 
ATOM      8  C   UNL A   1     -53.524  51.060  10.303  1.00  0.00     0.037 A 
BRANCH   6   9
ATOM      9  C   UNL A   1     -53.634  48.735  13.283  1.00  0.00     0.049 C 
BRANCH   9  10
ATOM     10  C   UNL A   1     -52.283  48.262  13.832  1.00  0.00     0.117 C 
BRANCH  10  11
ATOM     11  C   UNL A   1     -51.916  48.984  15.106  1.00  0.00     0.172 C 
ATOM     12  O   UNL A   1     -50.853  48.428  15.740  1.00  0.00    -0.648 OA
ATOM     13  O   UNL A   1     -52.496  49.981  15.516  1.00  0.00    -0.648 OA
ENDBRANCH  10  11
ENDBRANCH   9  10
ENDBRANCH   6   9
ENDBRANCH   1   3
TORSDOF 4
ENDMDL
MODEL 2
REMARK VINA RESULT:      -6.5      0.230      1.685
REMARK  4 active torsions:
REMARK  status: ('A' for Active; 'I' for Inactive)
REMARK    1  A    between atoms: O_1  and  C_11 
REMARK    2  A    between atoms: C_4  and  C_5 
REMARK    3  A    between atoms: C_4  and  C_6 
REMARK    4  A    between atoms: C_6  and  C_12 
ROOT
ATOM      1  O   UNL A   1     -53.364  50.344   7.817  1.00  0.00    -0.361 OA
ATOM      2  H   UNL A   1     -53.003  51.175   7.579  1.00  0.00     0.217 HD
ENDROOT
BRANCH   1   3
ATOM      3  C   UNL A   1     -53.407  49.972   9.126  1.00  0.00     0.065 A 
ATOM      4  C   UNL A   1     -53.581  50.935  10.120  1.00  0.00     0.037 A 
ATOM      5  C   UNL A   1     -53.624  50.555  11.461  1.00  0.00     0.010 A 
ATOM      6  C   UNL A   1     -53.492  49.210  11.809  1.00  0.00    -0.058 A 
ATOM      7  C   UNL A   1     -53.317  48.248  10.815  1.00  0.00     0.010 A 
ATOM      8  C   UNL A   1     -53.275  48.627   9.474  1.00  0.00     0.037 A 
BRANCH   6   9
ATOM      9  C   UNL A   1     -53.538  48.804  13.242  1.00  0.00     0.049 C 
BRANCH   9  10
ATOM     10  C   UNL A   1     -52.267  48.094  13.724  1.00  0.00     0.117 C 
BRANCH  10  11
ATOM     11  C   UNL A   1     -51.711  48.735  14.973  1.00  0.00     0.172 C 
ATOM     12  O   UNL A   1     -52.483  49.750  15.434  1.00  0.00    -0.648 OA
ATOM     13  O   UNL A   1     -50.685  48.365  15.530  1.00  0.00    -0.648 OA
ENDBRANCH  10  11
ENDBRANCH   9  10
ENDBRANCH   6   9
ENDBRANCH   1   3
TORSDOF 4
ENDMDL
MODEL 3
REMARK VINA RESULT:      -6.2      0.615      1.096
REMARK  4 active torsions:
REMARK  status: ('A' for Active; 'I' for Inactive)
REMARK    1  A    between atoms: O_1  and  C_11 
REMARK    2  A    between atoms: C_4  and  C_5 
REMARK    3  A    between atoms: C_4  and  C_6 
REMARK    4  A    between atoms: C_6  and  C_12 
ROOT
ATOM      1  O   UNL A   1     -53.434  50.290   7.819  1.00  0.00    -0.361 OA
ATOM      2  H   UNL A   1     -53.236  51.169   7.564  1.00  0.00     0.217 HD
ENDROOT
BRANCH   1   3
ATOM      3  C   UNL A   1     -53.423  49.946   9.136  1.00  0.00     0.065 A 
ATOM      4  C   UNL A   1     -53.215  48.618   9.508  1.00  0.00     0.037 A 
ATOM      5  C   UNL A   1     -53.205  48.264  10.857  1.00  0.00     0.010 A 
ATOM      6  C   UNL A   1     -53.405  49.240  11.835  1.00  0.00    -0.058 A 
ATOM      7  C   UNL A   1     -53.614  50.567  11.463  1.00  0.00     0.010 A 
ATOM      8  C   UNL A   1     -53.623  50.921  10.114  1.00  0.00     0.037 A 
BRANCH   6   9
ATOM      9  C   UNL A   1     -53.394  48.862  13.277  1.00  0.00     0.049 C 
BRANCH   9  10
ATOM     10  C   UNL A   1     -52.422  47.725  13.611  1.00  0.00     0.117 C 
BRANCH  10  11
ATOM     11  C   UNL A   1     -51.486  48.102  14.734  1.00  0.00     0.172 C 
ATOM     12  O   UNL A   1     -51.891  49.207  15.409  1.00  0.00    -0.648 OA
ATOM     13  O   UNL A   1     -50.481  47.467  15.026  1.00  0.00    -0.648 OA
ENDBRANCH  10  11
ENDBRANCH   9  10
ENDBRANCH   6   9
ENDBRANCH   1   3
TORSDOF 4
ENDMDL
MODEL 4
REMARK VINA RESULT:      -6.0      1.308      2.250
REMARK  4 active torsions:
REMARK  status: ('A' for Active; 'I' for Inactive)
REMARK    1  A    between atoms: O_1  and  C_11 
REMARK    2  A    between atoms: C_4  and  C_5 
REMARK    3  A    between atoms: C_4  and  C_6 
REMARK    4  A    between atoms: C_6  and  C_12 
ROOT
ATOM      1  O   UNL A   1     -53.731  47.430   7.234  1.00  0.00    -0.361 OA
ATOM      2  H   UNL A   1     -53.831  46.504   7.134  1.00  0.00     0.217 HD
ENDROOT
BRANCH   1   3
ATOM      3  C   UNL A   1     -53.586  47.968   8.475  1.00  0.00     0.065 A 
ATOM      4  C   UNL A   1     -53.665  49.350   8.651  1.00  0.00     0.037 A 
ATOM      5  C   UNL A   1     -53.515  49.902   9.923  1.00  0.00     0.010 A 
ATOM      6  C   UNL A   1     -53.285  49.072  11.021  1.00  0.00    -0.058 A 
ATOM      7  C   UNL A   1     -53.205  47.691  10.845  1.00  0.00     0.010 A 
ATOM      8  C   UNL A   1     -53.356  47.139   9.574  1.00  0.00     0.037 A 
BRANCH   6   9
ATOM      9  C   UNL A   1     -53.125  49.662  12.380  1.00  0.00     0.049 C 
BRANCH   9  10
ATOM     10  C   UNL A   1     -53.314  48.652  13.518  1.00  0.00     0.117 C 
BRANCH  10  11
ATOM     11  C   UNL A   1     -52.248  48.799  14.577  1.00  0.00     0.172 C 
ATOM     12  O   UNL A   1     -52.440  49.881  15.372  1.00  0.00    -0.648 OA
ATOM     13  O   UNL A   1     -51.321  48.014  14.725  1.00  0.00    -0.648 OA
ENDBRANCH  10  11
ENDBRANCH   9  10
ENDBRANCH   6   9
ENDBRANCH   1   3
TORSDOF 4
ENDMDL
MODEL 5
REMARK VINA RESULT:      -5.9      1.828      4.859
REMARK  4 active torsions:
REMARK  status: ('A' for Active; 'I' for Inactive)
REMARK    1  A    between atoms: O_1  and  C_11 
REMARK    2  A    between atoms: C_4  and  C_5 
REMARK    3  A    between atoms: C_4  and  C_6 
REMARK    4  A    between atoms: C_6  and  C_12 
ROOT
ATOM      1  O   UNL A   1     -51.300  46.392  14.328  1.00  0.00    -0.361 OA
ATOM      2  H   UNL A   1     -50.588  45.863  14.025  1.00  0.00     0.217 HD
ENDROOT
BRANCH   1   3
ATOM      3  C   UNL A   1     -52.025  47.127  13.441  1.00  0.00     0.065 A 
ATOM      4  C   UNL A   1     -52.145  46.705  12.118  1.00  0.00     0.037 A 
ATOM      5  C   UNL A   1     -52.886  47.459  11.209  1.00  0.00     0.010 A 
ATOM      6  C   UNL A   1     -53.509  48.637  11.623  1.00  0.00    -0.058 A 
ATOM      7  C   UNL A   1     -53.389  49.059  12.947  1.00  0.00     0.010 A 
ATOM      8  C   UNL A   1     -52.647  48.306  13.856  1.00  0.00     0.037 A 
BRANCH   6   9
ATOM      9  C   UNL A   1     -54.302  49.443  10.652  1.00  0.00     0.049 C 
BRANCH   9  10
ATOM     10  C   UNL A   1     -53.458  50.421   9.826  1.00  0.00     0.117 C 
BRANCH  10  11
ATOM     11  C   UNL A   1     -53.758  51.856  10.185  1.00  0.00     0.172 C 
ATOM     12  O   UNL A   1     -53.426  52.161  11.464  1.00  0.00    -0.648 OA
ATOM     13  O   UNL A   1     -54.226  52.671   9.400  1.00  0.00    -0.648 OA
ENDBRANCH  10  11
ENDBRANCH   9  10
ENDBRANCH   6   9
ENDBRANCH   1   3
TORSDOF 4
ENDMDL
MODEL 6
REMARK VINA RESULT:      -5.8      1.536      2.310
REMARK  4 active torsions:
REMARK  status: ('A' for Active; 'I' for Inactive)
REMARK    1  A    between atoms: O_1  and  C_11 
REMARK    2  A    between atoms: C_4  and  C_5 
REMARK    3  A    between atoms: C_4  and  C_6 
REMARK    4  A    between atoms: C_6  and  C_12 
ROOT
ATOM      1  O   UNL A   1     -53.857  52.169   9.047  1.00  0.00    -0.361 OA
ATOM      2  H   UNL A   1     -53.143  52.716   8.783  1.00  0.00     0.217 HD
ENDROOT
BRANCH   1   3
ATOM      3  C   UNL A   1     -53.616  51.038   9.764  1.00  0.00     0.065 A 
ATOM      4  C   UNL A   1     -53.543  51.096  11.156  1.00  0.00     0.037 A 
ATOM      5  C   UNL A   1     -53.295  49.938  11.892  1.00  0.00     0.010 A 
ATOM      6  C   UNL A   1     -53.120  48.719  11.235  1.00  0.00    -0.058 A 
ATOM      7  C   UNL A   1     -53.193  48.660   9.844  1.00  0.00     0.010 A 
ATOM      8  C   UNL A   1     -53.440  49.818   9.108  1.00  0.00     0.037 A 
BRANCH   6   9
ATOM      9  C   UNL A   1     -52.855  47.480  12.022  1.00  0.00     0.049 C 
BRANCH   9  10
ATOM     10  C   UNL A   1     -52.602  47.737  13.512  1.00  0.00     0.117 C 
BRANCH  10  11
ATOM     11  C   UNL A   1     -51.597  46.765  14.082  1.00  0.00     0.172 C 
ATOM     12  O   UNL A   1     -51.806  45.489  13.672  1.00  0.00    -0.648 OA
ATOM     13  O   UNL A   1     -50.673  47.092  14.815  1.00  0.00    -0.648 OA
ENDBRANCH  10  11
ENDBRANCH   9  10
ENDBRANCH   6   9
ENDBRANCH   1   3
TORSDOF 4
ENDMDL
MODEL 7
REMARK VINA RESULT:      -5.7      1.372      1.810
REMARK  4 active torsions:
REMARK  status: ('A' for Active; 'I' for Inactive)
REMARK    1  A    between atoms: O_1  and  C_11 
REMARK    2  A    between atoms: C_4  and  C_5 
REMARK    3  A    between atoms: C_4  and  C_6 
REMARK    4  A    between atoms: C_6  and  C_12 
ROOT
ATOM      1  O   UNL A   1     -53.838  52.211   9.003  1.00  0.00    -0.361 OA
ATOM      2  H   UNL A   1     -54.167  52.993   9.399  1.00  0.00     0.217 HD
ENDROOT
BRANCH   1   3
ATOM      3  C   UNL A   1     -53.615  51.105   9.765  1.00  0.00     0.065 A 
ATOM      4  C   UNL A   1     -53.433  49.863   9.156  1.00  0.00     0.037 A 
ATOM      5  C   UNL A   1     -53.206  48.730   9.936  1.00  0.00     0.010 A 
ATOM      6  C   UNL A   1     -53.160  48.838  11.327  1.00  0.00    -0.058 A 
ATOM      7  C   UNL A   1     -53.341  50.080  11.935  1.00  0.00     0.010 A 
ATOM      8  C   UNL A   1     -53.569  51.213  11.155  1.00  0.00     0.037 A 
BRANCH   6   9
ATOM      9  C   UNL A   1     -52.916  47.627  12.161  1.00  0.00     0.049 C 
BRANCH   9  10
ATOM     10  C   UNL A   1     -52.598  47.940  13.627  1.00  0.00     0.117 C 
BRANCH  10  11
ATOM     11  C   UNL A   1     -51.500  47.053  14.162  1.00  0.00     0.172 C 
ATOM     12  O   UNL A   1     -50.833  47.609  15.204  1.00  0.00    -0.648 OA
ATOM     13  O   UNL A   1     -51.251  45.937  13.724  1.00  0.00    -0.648 OA
ENDBRANCH  10  11
ENDBRANCH   9  10
ENDBRANCH   6   9
ENDBRANCH   1   3
TORSDOF 4
ENDMDL
MODEL 8
REMARK VINA RESULT:      -5.7      2.414      5.669
REMARK  4 active torsions:
REMARK  status: ('A' for Active; 'I' for Inactive)
REMARK    1  A    between atoms: O_1  and  C_11 
REMARK    2  A    between atoms: C_4  and  C_5 
REMARK    3  A    between atoms: C_4  and  C_6 
REMARK    4  A    between atoms: C_6  and  C_12 
ROOT
ATOM      1  O   UNL A   1     -53.159  49.249  14.025  1.00  0.00    -0.361 OA
ATOM      2  H   UNL A   1     -53.820  48.846  14.552  1.00  0.00     0.217 HD
ENDROOT
BRANCH   1   3
ATOM      3  C   UNL A   1     -53.197  49.120  12.671  1.00  0.00     0.065 A 
ATOM      4  C   UNL A   1     -52.928  47.885  12.080  1.00  0.00     0.037 A 
ATOM      5  C   UNL A   1     -52.966  47.752  10.692  1.00  0.00     0.010 A 
ATOM      6  C   UNL A   1     -53.273  48.855   9.894  1.00  0.00    -0.058 A 
ATOM      7  C   UNL A   1     -53.542  50.089  10.485  1.00  0.00     0.010 A 
ATOM      8  C   UNL A   1     -53.504  50.222  11.872  1.00  0.00     0.037 A 
BRANCH   6   9
ATOM      9  C   UNL A   1     -53.315  48.712   8.410  1.00  0.00     0.049 C 
BRANCH   9  10
ATOM     10  C   UNL A   1     -52.460  47.557   7.877  1.00  0.00     0.117 C 
BRANCH  10  11
ATOM     11  C   UNL A   1     -53.287  46.568   7.091  1.00  0.00     0.172 C 
ATOM     12  O   UNL A   1     -54.119  45.837   7.874  1.00  0.00    -0.648 OA
ATOM     13  O   UNL A   1     -53.236  46.453   5.874  1.00  0.00    -0.648 OA
ENDBRANCH  10  11
ENDBRANCH   9  10
ENDBRANCH   6   9
ENDBRANCH   1   3
TORSDOF 4
ENDMDL
MODEL 9
REMARK VINA RESULT:      -5.7      1.943      5.331
REMARK  4 active torsions:
REMARK  status: ('A' for Active; 'I' for Inactive)
REMARK    1  A    between atoms: O_1  and  C_11 
REMARK    2  A    between atoms: C_4  and  C_5 
REMARK    3  A    between atoms: C_4  and  C_6 
REMARK    4  A    between atoms: C_6  and  C_12 
ROOT
ATOM      1  O   UNL A   1     -51.043  45.538  14.039  1.00  0.00    -0.361 OA
ATOM      2  H   UNL A   1     -50.556  45.665  14.829  1.00  0.00     0.217 HD
ENDROOT
BRANCH   1   3
ATOM      3  C   UNL A   1     -51.701  46.584  13.470  1.00  0.00     0.065 A 
ATOM      4  C   UNL A   1     -51.988  47.721  14.224  1.00  0.00     0.037 A 
ATOM      5  C   UNL A   1     -52.663  48.793  13.641  1.00  0.00     0.010 A 
ATOM      6  C   UNL A   1     -53.052  48.728  12.303  1.00  0.00    -0.058 A 
ATOM      7  C   UNL A   1     -52.765  47.591  11.549  1.00  0.00     0.010 A 
ATOM      8  C   UNL A   1     -52.090  46.519  12.131  1.00  0.00     0.037 A 
BRANCH   6   9
ATOM      9  C   UNL A   1     -53.774  49.875  11.679  1.00  0.00     0.049 C 
BRANCH   9  10
ATOM     10  C   UNL A   1     -54.126  49.653  10.204  1.00  0.00     0.117 C 
BRANCH  10  11
ATOM     11  C   UNL A   1     -53.701  50.823   9.348  1.00  0.00     0.172 C 
ATOM     12  O   UNL A   1     -53.082  50.441   8.203  1.00  0.00    -0.648 OA
ATOM     13  O   UNL A   1     -53.914  51.992   9.638  1.00  0.00    -0.648 OA
ENDBRANCH  10  11
ENDBRANCH   9  10
ENDBRANCH   6   9
ENDBRANCH   1   3
TORSDOF 4
ENDMDL
