MODEL 1
REMARK VINA RESULT:      -6.5      0.000      0.000
REMARK  7 active torsions:
REMARK  status: ('A' for Active; 'I' for Inactive)
REMARK    1  A    between atoms: O_1  and  C_12 
REMARK    2  A    between atoms: O_3  and  C_15 
REMARK    3  A    between atoms: C_5  and  C_6 
REMARK    4  A    between atoms: C_5  and  C_7 
REMARK    5  A    between atoms: C_6  and  C_8 
REMARK    6  A    between atoms: C_7  and  C_9 
REMARK    7  A    between atoms: C_9  and  C_14 
ROOT
HETATM    1  O   UNL     1       8.529  -3.224  59.578  1.00  0.00    -0.358 OA
HETATM    2  H   UNL     1       9.029  -2.516  59.933  1.00  0.00     0.217 HD
ENDROOT
BRANCH   1   3
HETATM    3  C   UNL     1       7.518  -2.971  58.700  1.00  0.00     0.099 A 
HETATM    4  C   UNL     1       6.538  -3.940  58.486  1.00  0.00     0.046 A 
HETATM    5  C   UNL     1       5.498  -3.694  57.588  1.00  0.00    -0.055 A 
HETATM    6  C   UNL     1       5.440  -2.480  56.904  1.00  0.00     0.010 A 
HETATM    7  C   UNL     1       6.421  -1.510  57.119  1.00  0.00     0.040 A 
HETATM    8  C   UNL     1       7.460  -1.757  58.017  1.00  0.00     0.098 A 
BRANCH   5   9
HETATM    9  C   UNL     1       4.439  -4.742  57.356  1.00  0.00     0.038 C 
BRANCH   9  10
HETATM   10  C   UNL     1       4.399  -5.833  58.431  1.00  0.00     0.005 C 
BRANCH  10  11
HETATM   11  C   UNL     1       3.014  -6.478  58.579  1.00  0.00     0.011 C 
BRANCH  11  12
HETATM   12  C   UNL     1       1.881  -5.511  58.234  1.00  0.00     0.113 C 
BRANCH  12  13
HETATM   13  C   UNL     1       1.342  -4.767  59.436  1.00  0.00     0.172 C 
HETATM   14  O   UNL     1       0.024  -5.032  59.633  1.00  0.00    -0.648 OA
HETATM   15  O   UNL     1       1.992  -4.032  60.166  1.00  0.00    -0.648 OA
ENDBRANCH  12  13
ENDBRANCH  11  12
ENDBRANCH  10  11
ENDBRANCH   9  10
ENDBRANCH   5   9
BRANCH   8  16
HETATM   16  O   UNL     1       8.412  -0.803  58.218  1.00  0.00    -0.358 OA
HETATM   17  H   UNL     1       8.537  -0.126  57.583  1.00  0.00     0.217 HD
ENDBRANCH   8  16
ENDBRANCH   1   3
TORSDOF 7
ENDMDL
MODEL 2
REMARK VINA RESULT:      -6.4      1.039      1.943
REMARK  7 active torsions:
REMARK  status: ('A' for Active; 'I' for Inactive)
REMARK    1  A    between atoms: O_1  and  C_12 
REMARK    2  A    between atoms: O_3  and  C_15 
REMARK    3  A    between atoms: C_5  and  C_6 
REMARK    4  A    between atoms: C_5  and  C_7 
REMARK    5  A    between atoms: C_6  and  C_8 
REMARK    6  A    between atoms: C_7  and  C_9 
REMARK    7  A    between atoms: C_9  and  C_14 
ROOT
HETATM    1  O   UNL     1       8.448  -1.684  57.965  1.00  0.00    -0.358 OA
HETATM    2  H   UNL     1       8.160  -0.860  57.622  1.00  0.00     0.217 HD
ENDROOT
BRANCH   1   3
HETATM    3  C   UNL     1       7.550  -2.688  58.170  1.00  0.00     0.099 A 
HETATM    4  C   UNL     1       6.622  -2.990  57.173  1.00  0.00     0.046 A 
HETATM    5  C   UNL     1       5.695  -4.015  57.371  1.00  0.00    -0.055 A 
HETATM    6  C   UNL     1       5.697  -4.736  58.566  1.00  0.00     0.010 A 
HETATM    7  C   UNL     1       6.626  -4.433  59.561  1.00  0.00     0.040 A 
HETATM    8  C   UNL     1       7.552  -3.409  59.363  1.00  0.00     0.098 A 
BRANCH   5   9
HETATM    9  C   UNL     1       4.691  -4.341  56.294  1.00  0.00     0.038 C 
BRANCH   9  10
HETATM   10  C   UNL     1       3.763  -5.509  56.644  1.00  0.00     0.005 C 
BRANCH  10  11
HETATM   11  C   UNL     1       2.296  -5.084  56.797  1.00  0.00     0.011 C 
BRANCH  11  12
HETATM   12  C   UNL     1       1.589  -5.826  57.931  1.00  0.00     0.113 C 
BRANCH  12  13
HETATM   13  C   UNL     1       1.446  -5.000  59.189  1.00  0.00     0.172 C 
HETATM   14  O   UNL     1       0.158  -4.975  59.623  1.00  0.00    -0.648 OA
HETATM   15  O   UNL     1       2.358  -4.433  59.776  1.00  0.00    -0.648 OA
ENDBRANCH  12  13
ENDBRANCH  11  12
ENDBRANCH  10  11
ENDBRANCH   9  10
ENDBRANCH   5   9
BRANCH   8  16
HETATM   16  O   UNL     1       8.454  -3.122  60.344  1.00  0.00    -0.358 OA
HETATM   17  H   UNL     1       9.240  -2.657  60.135  1.00  0.00     0.217 HD
ENDBRANCH   8  16
ENDBRANCH   1   3
TORSDOF 7
ENDMDL
MODEL 3
REMARK VINA RESULT:      -6.2      0.725      1.951
REMARK  7 active torsions:
REMARK  status: ('A' for Active; 'I' for Inactive)
REMARK    1  A    between atoms: O_1  and  C_12 
REMARK    2  A    between atoms: O_3  and  C_15 
REMARK    3  A    between atoms: C_5  and  C_6 
REMARK    4  A    between atoms: C_5  and  C_7 
REMARK    5  A    between atoms: C_6  and  C_8 
REMARK    6  A    between atoms: C_7  and  C_9 
REMARK    7  A    between atoms: C_9  and  C_14 
ROOT
HETATM    1  O   UNL     1       6.420  -0.200  56.480  1.00  0.00    -0.358 OA
HETATM    2  H   UNL     1       5.646   0.327  56.526  1.00  0.00     0.217 HD
ENDROOT
BRANCH   1   3
HETATM    3  C   UNL     1       6.459  -1.409  57.109  1.00  0.00     0.099 A 
HETATM    4  C   UNL     1       5.445  -2.337  56.873  1.00  0.00     0.046 A 
HETATM    5  C   UNL     1       5.472  -3.577  57.512  1.00  0.00    -0.055 A 
HETATM    6  C   UNL     1       6.513  -3.888  58.387  1.00  0.00     0.010 A 
HETATM    7  C   UNL     1       7.528  -2.959  58.622  1.00  0.00     0.040 A 
HETATM    8  C   UNL     1       7.499  -1.719  57.983  1.00  0.00     0.098 A 
BRANCH   5   9
HETATM    9  C   UNL     1       4.375  -4.580  57.258  1.00  0.00     0.038 C 
BRANCH   9  10
HETATM   10  C   UNL     1       4.410  -5.790  58.197  1.00  0.00     0.005 C 
BRANCH  10  11
HETATM   11  C   UNL     1       3.015  -6.358  58.494  1.00  0.00     0.011 C 
BRANCH  11  12
HETATM   12  C   UNL     1       1.899  -5.375  58.144  1.00  0.00     0.113 C 
BRANCH  12  13
HETATM   13  C   UNL     1       1.172  -4.838  59.357  1.00  0.00     0.172 C 
HETATM   14  O   UNL     1       1.982  -4.052  60.114  1.00  0.00    -0.648 OA
HETATM   15  O   UNL     1      -0.000  -5.050  59.635  1.00  0.00    -0.648 OA
ENDBRANCH  12  13
ENDBRANCH  11  12
ENDBRANCH  10  11
ENDBRANCH   9  10
ENDBRANCH   5   9
BRANCH   8  16
HETATM   16  O   UNL     1       8.495  -0.820  58.221  1.00  0.00    -0.358 OA
HETATM   17  H   UNL     1       8.893  -0.361  57.507  1.00  0.00     0.217 HD
ENDBRANCH   8  16
ENDBRANCH   1   3
TORSDOF 7
ENDMDL
MODEL 4
REMARK VINA RESULT:      -6.1      2.904      4.871
REMARK  7 active torsions:
REMARK  status: ('A' for Active; 'I' for Inactive)
REMARK    1  A    between atoms: O_1  and  C_12 
REMARK    2  A    between atoms: O_3  and  C_15 
REMARK    3  A    between atoms: C_5  and  C_6 
REMARK    4  A    between atoms: C_5  and  C_7 
REMARK    5  A    between atoms: C_6  and  C_8 
REMARK    6  A    between atoms: C_7  and  C_9 
REMARK    7  A    between atoms: C_9  and  C_14 
ROOT
HETATM    1  O   UNL     1       8.388  -2.732  59.187  1.00  0.00    -0.358 OA
HETATM    2  H   UNL     1       8.962  -3.183  59.775  1.00  0.00     0.217 HD
ENDROOT
BRANCH   1   3
HETATM    3  C   UNL     1       7.304  -3.374  58.667  1.00  0.00     0.099 A 
HETATM    4  C   UNL     1       6.977  -3.187  57.324  1.00  0.00     0.046 A 
HETATM    5  C   UNL     1       5.868  -3.836  56.780  1.00  0.00    -0.055 A 
HETATM    6  C   UNL     1       5.087  -4.671  57.579  1.00  0.00     0.010 A 
HETATM    7  C   UNL     1       5.415  -4.858  58.922  1.00  0.00     0.040 A 
HETATM    8  C   UNL     1       6.524  -4.208  59.466  1.00  0.00     0.098 A 
BRANCH   5   9
HETATM    9  C   UNL     1       5.514  -3.634  55.328  1.00  0.00     0.038 C 
BRANCH   9  10
HETATM   10  C   UNL     1       6.022  -2.312  54.743  1.00  0.00     0.005 C 
BRANCH  10  11
HETATM   11  C   UNL     1       5.078  -1.133  55.019  1.00  0.00     0.011 C 
BRANCH  11  12
HETATM   12  C   UNL     1       5.829   0.121  55.470  1.00  0.00     0.113 C 
BRANCH  12  13
HETATM   13  C   UNL     1       5.487   0.548  56.879  1.00  0.00     0.172 C 
HETATM   14  O   UNL     1       6.371   0.043  57.779  1.00  0.00    -0.648 OA
HETATM   15  O   UNL     1       4.553   1.272  57.196  1.00  0.00    -0.648 OA
ENDBRANCH  12  13
ENDBRANCH  11  12
ENDBRANCH  10  11
ENDBRANCH   9  10
ENDBRANCH   5   9
BRANCH   8  16
HETATM   16  O   UNL     1       6.834  -4.397  60.779  1.00  0.00    -0.358 OA
HETATM   17  H   UNL     1       7.667  -4.123  61.108  1.00  0.00     0.217 HD
ENDBRANCH   8  16
ENDBRANCH   1   3
TORSDOF 7
ENDMDL
MODEL 5
REMARK VINA RESULT:      -6.1      1.328      1.629
REMARK  7 active torsions:
REMARK  status: ('A' for Active; 'I' for Inactive)
REMARK    1  A    between atoms: O_1  and  C_12 
REMARK    2  A    between atoms: O_3  and  C_15 
REMARK    3  A    between atoms: C_5  and  C_6 
REMARK    4  A    between atoms: C_5  and  C_7 
REMARK    5  A    between atoms: C_6  and  C_8 
REMARK    6  A    between atoms: C_7  and  C_9 
REMARK    7  A    between atoms: C_9  and  C_14 
ROOT
HETATM    1  O   UNL     1       8.750  -3.265  59.676  1.00  0.00    -0.358 OA
HETATM    2  H   UNL     1       9.062  -2.569  60.220  1.00  0.00     0.217 HD
ENDROOT
BRANCH   1   3
HETATM    3  C   UNL     1       7.621  -3.093  58.931  1.00  0.00     0.099 A 
HETATM    4  C   UNL     1       6.635  -4.080  58.945  1.00  0.00     0.046 A 
HETATM    5  C   UNL     1       5.475  -3.916  58.185  1.00  0.00    -0.055 A 
HETATM    6  C   UNL     1       5.304  -2.768  57.412  1.00  0.00     0.010 A 
HETATM    7  C   UNL     1       6.291  -1.782  57.400  1.00  0.00     0.040 A 
HETATM    8  C   UNL     1       7.449  -1.945  58.159  1.00  0.00     0.098 A 
BRANCH   5   9
HETATM    9  C   UNL     1       4.409  -4.983  58.198  1.00  0.00     0.038 C 
BRANCH   9  10
HETATM   10  C   UNL     1       3.987  -5.457  56.803  1.00  0.00     0.005 C 
BRANCH  10  11
HETATM   11  C   UNL     1       2.643  -4.869  56.352  1.00  0.00     0.011 C 
BRANCH  11  12
HETATM   12  C   UNL     1       1.558  -5.936  56.209  1.00  0.00     0.113 C 
BRANCH  12  13
HETATM   13  C   UNL     1       0.809  -6.204  57.495  1.00  0.00     0.172 C 
HETATM   14  O   UNL     1       0.054  -7.330  57.405  1.00  0.00    -0.648 OA
HETATM   15  O   UNL     1       0.872  -5.523  58.510  1.00  0.00    -0.648 OA
ENDBRANCH  12  13
ENDBRANCH  11  12
ENDBRANCH  10  11
ENDBRANCH   9  10
ENDBRANCH   5   9
BRANCH   8  16
HETATM   16  O   UNL     1       8.406  -0.976  58.138  1.00  0.00    -0.358 OA
HETATM   17  H   UNL     1       8.215  -0.137  57.767  1.00  0.00     0.217 HD
ENDBRANCH   8  16
ENDBRANCH   1   3
TORSDOF 7
ENDMDL
MODEL 6
REMARK VINA RESULT:      -6.1      2.281      5.737
REMARK  7 active torsions:
REMARK  status: ('A' for Active; 'I' for Inactive)
REMARK    1  A    between atoms: O_1  and  C_12 
REMARK    2  A    between atoms: O_3  and  C_15 
REMARK    3  A    between atoms: C_5  and  C_6 
REMARK    4  A    between atoms: C_5  and  C_7 
REMARK    5  A    between atoms: C_6  and  C_8 
REMARK    6  A    between atoms: C_7  and  C_9 
REMARK    7  A    between atoms: C_9  and  C_14 
ROOT
HETATM    1  O   UNL     1       3.792  -6.716  59.950  1.00  0.00    -0.358 OA
HETATM    2  H   UNL     1       4.291  -6.451  60.698  1.00  0.00     0.217 HD
ENDROOT
BRANCH   1   3
HETATM    3  C   UNL     1       3.997  -6.111  58.746  1.00  0.00     0.099 A 
HETATM    4  C   UNL     1       4.749  -4.938  58.688  1.00  0.00     0.046 A 
HETATM    5  C   UNL     1       4.964  -4.307  57.462  1.00  0.00    -0.055 A 
HETATM    6  C   UNL     1       4.425  -4.849  56.295  1.00  0.00     0.010 A 
HETATM    7  C   UNL     1       3.673  -6.023  56.354  1.00  0.00     0.040 A 
HETATM    8  C   UNL     1       3.459  -6.653  57.580  1.00  0.00     0.098 A 
BRANCH   5   9
HETATM    9  C   UNL     1       5.776  -3.038  57.399  1.00  0.00     0.038 C 
BRANCH   9  10
HETATM   10  C   UNL     1       7.281  -3.253  57.596  1.00  0.00     0.005 C 
BRANCH  10  11
HETATM   11  C   UNL     1       7.748  -2.943  59.025  1.00  0.00     0.011 C 
BRANCH  11  12
HETATM   12  C   UNL     1       8.620  -4.056  59.608  1.00  0.00     0.113 C 
BRANCH  12  13
HETATM   13  C   UNL     1       8.367  -4.306  61.077  1.00  0.00     0.172 C 
HETATM   14  O   UNL     1       8.683  -5.581  61.425  1.00  0.00    -0.648 OA
HETATM   15  O   UNL     1       7.951  -3.480  61.878  1.00  0.00    -0.648 OA
ENDBRANCH  12  13
ENDBRANCH  11  12
ENDBRANCH  10  11
ENDBRANCH   9  10
ENDBRANCH   5   9
BRANCH   8  16
HETATM   16  O   UNL     1       2.722  -7.798  57.625  1.00  0.00    -0.358 OA
HETATM   17  H   UNL     1       2.734  -8.392  56.900  1.00  0.00     0.217 HD
ENDBRANCH   8  16
ENDBRANCH   1   3
TORSDOF 7
ENDMDL
MODEL 7
REMARK VINA RESULT:      -5.9      1.670      2.426
REMARK  7 active torsions:
REMARK  status: ('A' for Active; 'I' for Inactive)
REMARK    1  A    between atoms: O_1  and  C_12 
REMARK    2  A    between atoms: O_3  and  C_15 
REMARK    3  A    between atoms: C_5  and  C_6 
REMARK    4  A    between atoms: C_5  and  C_7 
REMARK    5  A    between atoms: C_6  and  C_8 
REMARK    6  A    between atoms: C_7  and  C_9 
REMARK    7  A    between atoms: C_9  and  C_14 
ROOT
HETATM    1  O   UNL     1       7.139  -1.199  55.736  1.00  0.00    -0.358 OA
HETATM    2  H   UNL     1       8.021  -1.091  55.436  1.00  0.00     0.217 HD
ENDROOT
BRANCH   1   3
HETATM    3  C   UNL     1       6.852  -2.137  56.682  1.00  0.00     0.099 A 
HETATM    4  C   UNL     1       5.897  -3.115  56.409  1.00  0.00     0.046 A 
HETATM    5  C   UNL     1       5.592  -4.080  57.370  1.00  0.00    -0.055 A 
HETATM    6  C   UNL     1       6.243  -4.065  58.604  1.00  0.00     0.010 A 
HETATM    7  C   UNL     1       7.199  -3.086  58.876  1.00  0.00     0.040 A 
HETATM    8  C   UNL     1       7.503  -2.122  57.915  1.00  0.00     0.098 A 
BRANCH   5   9
HETATM    9  C   UNL     1       4.558  -5.137  57.076  1.00  0.00     0.038 C 
BRANCH   9  10
HETATM   10  C   UNL     1       4.113  -5.932  58.308  1.00  0.00     0.005 C 
BRANCH  10  11
HETATM   11  C   UNL     1       2.712  -5.542  58.799  1.00  0.00     0.011 C 
BRANCH  11  12
HETATM   12  C   UNL     1       1.714  -5.388  57.651  1.00  0.00     0.113 C 
BRANCH  12  13
HETATM   13  C   UNL     1       1.147  -6.704  57.170  1.00  0.00     0.172 C 
HETATM   14  O   UNL     1      -0.125  -6.887  57.611  1.00  0.00    -0.648 OA
HETATM   15  O   UNL     1       1.728  -7.511  56.458  1.00  0.00    -0.648 OA
ENDBRANCH  12  13
ENDBRANCH  11  12
ENDBRANCH  10  11
ENDBRANCH   9  10
ENDBRANCH   5   9
BRANCH   8  16
HETATM   16  O   UNL     1       8.438  -1.171  58.193  1.00  0.00    -0.358 OA
HETATM   17  H   UNL     1       8.170  -0.298  58.405  1.00  0.00     0.217 HD
ENDBRANCH   8  16
ENDBRANCH   1   3
TORSDOF 7
ENDMDL
MODEL 8
REMARK VINA RESULT:      -5.9      2.356      5.335
REMARK  7 active torsions:
REMARK  status: ('A' for Active; 'I' for Inactive)
REMARK    1  A    between atoms: O_1  and  C_12 
REMARK    2  A    between atoms: O_3  and  C_15 
REMARK    3  A    between atoms: C_5  and  C_6 
REMARK    4  A    between atoms: C_5  and  C_7 
REMARK    5  A    between atoms: C_6  and  C_8 
REMARK    6  A    between atoms: C_7  and  C_9 
REMARK    7  A    between atoms: C_9  and  C_14 
ROOT
HETATM    1  O   UNL     1       5.952  -4.920  60.035  1.00  0.00    -0.358 OA
HETATM    2  H   UNL     1       6.822  -4.574  60.092  1.00  0.00     0.217 HD
ENDROOT
BRANCH   1   3
HETATM    3  C   UNL     1       5.338  -5.024  58.823  1.00  0.00     0.099 A 
HETATM    4  C   UNL     1       5.827  -4.290  57.743  1.00  0.00     0.046 A 
HETATM    5  C   UNL     1       5.206  -4.386  56.497  1.00  0.00    -0.055 A 
HETATM    6  C   UNL     1       4.096  -5.216  56.333  1.00  0.00     0.010 A 
HETATM    7  C   UNL     1       3.609  -5.951  57.414  1.00  0.00     0.040 A 
HETATM    8  C   UNL     1       4.230  -5.854  58.659  1.00  0.00     0.098 A 
BRANCH   5   9
HETATM    9  C   UNL     1       5.733  -3.591  55.328  1.00  0.00     0.038 C 
BRANCH   9  10
HETATM   10  C   UNL     1       4.949  -2.304  55.048  1.00  0.00     0.005 C 
BRANCH  10  11
HETATM   11  C   UNL     1       5.818  -1.042  55.138  1.00  0.00     0.011 C 
BRANCH  11  12
HETATM   12  C   UNL     1       5.041   0.164  55.665  1.00  0.00     0.113 C 
BRANCH  12  13
HETATM   13  C   UNL     1       5.333   0.475  57.116  1.00  0.00     0.172 C 
HETATM   14  O   UNL     1       4.490   1.426  57.599  1.00  0.00    -0.648 OA
HETATM   15  O   UNL     1       6.196  -0.059  57.798  1.00  0.00    -0.648 OA
ENDBRANCH  12  13
ENDBRANCH  11  12
ENDBRANCH  10  11
ENDBRANCH   9  10
ENDBRANCH   5   9
BRANCH   8  16
HETATM   16  O   UNL     1       3.744  -6.575  59.708  1.00  0.00    -0.358 OA
HETATM   17  H   UNL     1       3.137  -7.272  59.555  1.00  0.00     0.217 HD
ENDBRANCH   8  16
ENDBRANCH   1   3
TORSDOF 7
ENDMDL
MODEL 9
REMARK VINA RESULT:      -5.9      3.515      5.053
REMARK  7 active torsions:
REMARK  status: ('A' for Active; 'I' for Inactive)
REMARK    1  A    between atoms: O_1  and  C_12 
REMARK    2  A    between atoms: O_3  and  C_15 
REMARK    3  A    between atoms: C_5  and  C_6 
REMARK    4  A    between atoms: C_5  and  C_7 
REMARK    5  A    between atoms: C_6  and  C_8 
REMARK    6  A    between atoms: C_7  and  C_9 
REMARK    7  A    between atoms: C_9  and  C_14 
ROOT
HETATM    1  O   UNL     1       6.835   0.970  55.830  1.00  0.00    -0.358 OA
HETATM    2  H   UNL     1       6.798   1.281  56.713  1.00  0.00     0.217 HD
ENDROOT
BRANCH   1   3
HETATM    3  C   UNL     1       6.091  -0.109  55.456  1.00  0.00     0.099 A 
HETATM    4  C   UNL     1       5.793  -1.095  56.397  1.00  0.00     0.046 A 
HETATM    5  C   UNL     1       5.034  -2.205  56.026  1.00  0.00    -0.055 A 
HETATM    6  C   UNL     1       4.575  -2.330  54.715  1.00  0.00     0.010 A 
HETATM    7  C   UNL     1       4.872  -1.343  53.775  1.00  0.00     0.040 A 
HETATM    8  C   UNL     1       5.631  -0.233  54.146  1.00  0.00     0.098 A 
BRANCH   5   9
HETATM    9  C   UNL     1       4.713  -3.272  57.043  1.00  0.00     0.038 C 
BRANCH   9  10
HETATM   10  C   UNL     1       5.905  -4.166  57.403  1.00  0.00     0.005 C 
BRANCH  10  11
HETATM   11  C   UNL     1       6.266  -4.111  58.894  1.00  0.00     0.011 C 
BRANCH  11  12
HETATM   12  C   UNL     1       7.638  -3.484  59.140  1.00  0.00     0.113 C 
BRANCH  12  13
HETATM   13  C   UNL     1       8.268  -3.914  60.445  1.00  0.00     0.172 C 
HETATM   14  O   UNL     1       9.302  -4.770  60.240  1.00  0.00    -0.648 OA
HETATM   15  O   UNL     1       7.924  -3.538  61.558  1.00  0.00    -0.648 OA
ENDBRANCH  12  13
ENDBRANCH  11  12
ENDBRANCH  10  11
ENDBRANCH   9  10
ENDBRANCH   5   9
BRANCH   8  16
HETATM   16  O   UNL     1       5.916   0.724  53.218  1.00  0.00    -0.358 OA
HETATM   17  H   UNL     1       5.222   1.207  52.816  1.00  0.00     0.217 HD
ENDBRANCH   8  16
ENDBRANCH   1   3
TORSDOF 7
ENDMDL
