MODEL 1
REMARK VINA RESULT:      -6.5      0.000      0.000
REMARK  7 active torsions:
REMARK  status: ('A' for Active; 'I' for Inactive)
REMARK    1  A    between atoms: O_1  and  C_12 
REMARK    2  A    between atoms: O_3  and  C_15 
REMARK    3  A    between atoms: C_5  and  C_6 
REMARK    4  A    between atoms: C_5  and  C_7 
REMARK    5  A    between atoms: C_6  and  C_8 
REMARK    6  A    between atoms: C_7  and  C_9 
REMARK    7  A    between atoms: C_9  and  C_14 
ROOT
HETATM    1  O   UNL     1       5.023  -6.273  52.144  1.00  0.00    -0.358 OA
HETATM    2  H   UNL     1       4.956  -5.641  51.455  1.00  0.00     0.217 HD
ENDROOT
BRANCH   1   3
HETATM    3  C   UNL     1       4.337  -6.089  53.307  1.00  0.00     0.099 A 
HETATM    4  C   UNL     1       3.725  -7.182  53.921  1.00  0.00     0.046 A 
HETATM    5  C   UNL     1       3.018  -7.007  55.111  1.00  0.00    -0.055 A 
HETATM    6  C   UNL     1       2.922  -5.739  55.685  1.00  0.00     0.010 A 
HETATM    7  C   UNL     1       3.535  -4.646  55.070  1.00  0.00     0.040 A 
HETATM    8  C   UNL     1       4.241  -4.822  53.881  1.00  0.00     0.098 A 
BRANCH   5   9
HETATM    9  C   UNL     1       2.355  -8.187  55.775  1.00  0.00     0.038 C 
BRANCH   9  10
HETATM   10  C   UNL     1       2.816  -9.545  55.233  1.00  0.00     0.005 C 
BRANCH  10  11
HETATM   11  C   UNL     1       3.140 -10.555  56.342  1.00  0.00     0.011 C 
BRANCH  11  12
HETATM   12  C   UNL     1       3.677  -9.881  57.605  1.00  0.00     0.113 C 
BRANCH  12  13
HETATM   13  C   UNL     1       5.183  -9.741  57.614  1.00  0.00     0.172 C 
HETATM   14  O   UNL     1       5.569  -8.504  57.206  1.00  0.00    -0.648 OA
HETATM   15  O   UNL     1       5.975 -10.606  57.960  1.00  0.00    -0.648 OA
ENDBRANCH  12  13
ENDBRANCH  11  12
ENDBRANCH  10  11
ENDBRANCH   9  10
ENDBRANCH   5   9
BRANCH   8  16
HETATM   16  O   UNL     1       4.835  -3.748  53.289  1.00  0.00    -0.358 OA
HETATM   17  H   UNL     1       4.397  -3.294  52.595  1.00  0.00     0.217 HD
ENDBRANCH   8  16
ENDBRANCH   1   3
TORSDOF 7
ENDMDL
MODEL 2
REMARK VINA RESULT:      -6.5      3.384      5.258
REMARK  7 active torsions:
REMARK  status: ('A' for Active; 'I' for Inactive)
REMARK    1  A    between atoms: O_1  and  C_12 
REMARK    2  A    between atoms: O_3  and  C_15 
REMARK    3  A    between atoms: C_5  and  C_6 
REMARK    4  A    between atoms: C_5  and  C_7 
REMARK    5  A    between atoms: C_6  and  C_8 
REMARK    6  A    between atoms: C_7  and  C_9 
REMARK    7  A    between atoms: C_9  and  C_14 
ROOT
HETATM    1  O   UNL     1       6.261  -7.670  56.498  1.00  0.00    -0.358 OA
HETATM    2  H   UNL     1       7.114  -7.954  56.233  1.00  0.00     0.217 HD
ENDROOT
BRANCH   1   3
HETATM    3  C   UNL     1       5.191  -8.502  56.356  1.00  0.00     0.099 A 
HETATM    4  C   UNL     1       4.382  -8.390  55.225  1.00  0.00     0.046 A 
HETATM    5  C   UNL     1       3.283  -9.235  55.069  1.00  0.00    -0.055 A 
HETATM    6  C   UNL     1       2.992 -10.189  56.044  1.00  0.00     0.010 A 
HETATM    7  C   UNL     1       3.802 -10.300  57.175  1.00  0.00     0.040 A 
HETATM    8  C   UNL     1       4.901  -9.456  57.330  1.00  0.00     0.098 A 
BRANCH   5   9
HETATM    9  C   UNL     1       2.407  -9.113  53.847  1.00  0.00     0.038 C 
BRANCH   9  10
HETATM   10  C   UNL     1       1.542 -10.350  53.578  1.00  0.00     0.005 C 
BRANCH  10  11
HETATM   11  C   UNL     1       0.041 -10.080  53.751  1.00  0.00     0.011 C 
BRANCH  11  12
HETATM   12  C   UNL     1      -0.646 -11.139  54.614  1.00  0.00     0.113 C 
BRANCH  12  13
HETATM   13  C   UNL     1      -1.329 -10.565  55.835  1.00  0.00     0.172 C 
HETATM   14  O   UNL     1      -0.428 -10.058  56.716  1.00  0.00    -0.648 OA
HETATM   15  O   UNL     1      -2.538 -10.530  56.022  1.00  0.00    -0.648 OA
ENDBRANCH  12  13
ENDBRANCH  11  12
ENDBRANCH  10  11
ENDBRANCH   9  10
ENDBRANCH   5   9
BRANCH   8  16
HETATM   16  O   UNL     1       5.685  -9.573  58.439  1.00  0.00    -0.358 OA
HETATM   17  H   UNL     1       5.292  -9.726  59.276  1.00  0.00     0.217 HD
ENDBRANCH   8  16
ENDBRANCH   1   3
TORSDOF 7
ENDMDL
MODEL 3
REMARK VINA RESULT:      -6.5      3.616      4.517
REMARK  7 active torsions:
REMARK  status: ('A' for Active; 'I' for Inactive)
REMARK    1  A    between atoms: O_1  and  C_12 
REMARK    2  A    between atoms: O_3  and  C_15 
REMARK    3  A    between atoms: C_5  and  C_6 
REMARK    4  A    between atoms: C_5  and  C_7 
REMARK    5  A    between atoms: C_6  and  C_8 
REMARK    6  A    between atoms: C_7  and  C_9 
REMARK    7  A    between atoms: C_9  and  C_14 
ROOT
HETATM    1  O   UNL     1       6.330  -7.580  56.666  1.00  0.00    -0.358 OA
HETATM    2  H   UNL     1       6.530  -7.234  57.514  1.00  0.00     0.217 HD
ENDROOT
BRANCH   1   3
HETATM    3  C   UNL     1       5.032  -7.762  56.291  1.00  0.00     0.099 A 
HETATM    4  C   UNL     1       4.489  -9.046  56.306  1.00  0.00     0.046 A 
HETATM    5  C   UNL     1       3.162  -9.245  55.923  1.00  0.00    -0.055 A 
HETATM    6  C   UNL     1       2.380  -8.161  55.525  1.00  0.00     0.010 A 
HETATM    7  C   UNL     1       2.925  -6.876  55.512  1.00  0.00     0.040 A 
HETATM    8  C   UNL     1       4.251  -6.677  55.894  1.00  0.00     0.098 A 
BRANCH   5   9
HETATM    9  C   UNL     1       2.574 -10.634  55.938  1.00  0.00     0.038 C 
BRANCH   9  10
HETATM   10  C   UNL     1       1.691 -10.947  54.725  1.00  0.00     0.005 C 
BRANCH  10  11
HETATM   11  C   UNL     1       0.407 -11.701  55.098  1.00  0.00     0.011 C 
BRANCH  11  12
HETATM   12  C   UNL     1      -0.855 -10.900  54.774  1.00  0.00     0.113 C 
BRANCH  12  13
HETATM   13  C   UNL     1      -1.675 -10.556  55.997  1.00  0.00     0.172 C 
HETATM   14  O   UNL     1      -0.908  -9.995  56.968  1.00  0.00    -0.648 OA
HETATM   15  O   UNL     1      -2.880 -10.729  56.116  1.00  0.00    -0.648 OA
ENDBRANCH  12  13
ENDBRANCH  11  12
ENDBRANCH  10  11
ENDBRANCH   9  10
ENDBRANCH   5   9
BRANCH   8  16
HETATM   16  O   UNL     1       4.773  -5.419  55.876  1.00  0.00    -0.358 OA
HETATM   17  H   UNL     1       5.089  -5.055  55.072  1.00  0.00     0.217 HD
ENDBRANCH   8  16
ENDBRANCH   1   3
TORSDOF 7
ENDMDL
MODEL 4
REMARK VINA RESULT:      -6.5      3.703      5.424
REMARK  7 active torsions:
REMARK  status: ('A' for Active; 'I' for Inactive)
REMARK    1  A    between atoms: O_1  and  C_12 
REMARK    2  A    between atoms: O_3  and  C_15 
REMARK    3  A    between atoms: C_5  and  C_6 
REMARK    4  A    between atoms: C_5  and  C_7 
REMARK    5  A    between atoms: C_6  and  C_8 
REMARK    6  A    between atoms: C_7  and  C_9 
REMARK    7  A    between atoms: C_9  and  C_14 
ROOT
HETATM    1  O   UNL     1       5.532  -9.547  58.486  1.00  0.00    -0.358 OA
HETATM    2  H   UNL     1       6.375  -9.142  58.541  1.00  0.00     0.217 HD
ENDROOT
BRANCH   1   3
HETATM    3  C   UNL     1       4.807  -9.458  57.335  1.00  0.00     0.099 A 
HETATM    4  C   UNL     1       3.754 -10.346  57.118  1.00  0.00     0.046 A 
HETATM    5  C   UNL     1       3.005 -10.266  55.943  1.00  0.00    -0.055 A 
HETATM    6  C   UNL     1       3.312  -9.300  54.985  1.00  0.00     0.010 A 
HETATM    7  C   UNL     1       4.366  -8.412  55.203  1.00  0.00     0.040 A 
HETATM    8  C   UNL     1       5.113  -8.492  56.378  1.00  0.00     0.098 A 
BRANCH   5   9
HETATM    9  C   UNL     1       1.867 -11.227  55.708  1.00  0.00     0.038 C 
BRANCH   9  10
HETATM   10  C   UNL     1       1.308 -11.190  54.282  1.00  0.00     0.005 C 
BRANCH  10  11
HETATM   11  C   UNL     1      -0.133 -11.712  54.189  1.00  0.00     0.011 C 
BRANCH  11  12
HETATM   12  C   UNL     1      -1.168 -10.605  54.387  1.00  0.00     0.113 C 
BRANCH  12  13
HETATM   13  C   UNL     1      -1.768 -10.587  55.775  1.00  0.00     0.172 C 
HETATM   14  O   UNL     1      -3.025 -11.102  55.779  1.00  0.00    -0.648 OA
HETATM   15  O   UNL     1      -1.209 -10.185  56.786  1.00  0.00    -0.648 OA
ENDBRANCH  12  13
ENDBRANCH  11  12
ENDBRANCH  10  11
ENDBRANCH   9  10
ENDBRANCH   5   9
BRANCH   8  16
HETATM   16  O   UNL     1       6.141  -7.619  56.579  1.00  0.00    -0.358 OA
HETATM   17  H   UNL     1       6.972  -7.935  56.876  1.00  0.00     0.217 HD
ENDBRANCH   8  16
ENDBRANCH   1   3
TORSDOF 7
ENDMDL
MODEL 5
REMARK VINA RESULT:      -6.2      3.606      4.733
REMARK  7 active torsions:
REMARK  status: ('A' for Active; 'I' for Inactive)
REMARK    1  A    between atoms: O_1  and  C_12 
REMARK    2  A    between atoms: O_3  and  C_15 
REMARK    3  A    between atoms: C_5  and  C_6 
REMARK    4  A    between atoms: C_5  and  C_7 
REMARK    5  A    between atoms: C_6  and  C_8 
REMARK    6  A    between atoms: C_7  and  C_9 
REMARK    7  A    between atoms: C_9  and  C_14 
ROOT
HETATM    1  O   UNL     1       5.321  -6.590  54.348  1.00  0.00    -0.358 OA
HETATM    2  H   UNL     1       5.447  -5.801  54.838  1.00  0.00     0.217 HD
ENDROOT
BRANCH   1   3
HETATM    3  C   UNL     1       4.711  -7.662  54.928  1.00  0.00     0.099 A 
HETATM    4  C   UNL     1       3.676  -8.309  54.252  1.00  0.00     0.046 A 
HETATM    5  C   UNL     1       3.042  -9.407  54.836  1.00  0.00    -0.055 A 
HETATM    6  C   UNL     1       3.442  -9.855  56.095  1.00  0.00     0.010 A 
HETATM    7  C   UNL     1       4.478  -9.208  56.769  1.00  0.00     0.040 A 
HETATM    8  C   UNL     1       5.111  -8.110  56.186  1.00  0.00     0.098 A 
BRANCH   5   9
HETATM    9  C   UNL     1       1.923 -10.106  54.106  1.00  0.00     0.038 C 
BRANCH   9  10
HETATM   10  C   UNL     1       1.435 -11.385  54.796  1.00  0.00     0.005 C 
BRANCH  10  11
HETATM   11  C   UNL     1       0.008 -11.778  54.389  1.00  0.00     0.011 C 
BRANCH  11  12
HETATM   12  C   UNL     1      -0.980 -10.621  54.537  1.00  0.00     0.113 C 
BRANCH  12  13
HETATM   13  C   UNL     1      -1.497 -10.452  55.948  1.00  0.00     0.172 C 
HETATM   14  O   UNL     1      -2.811 -10.786  56.038  1.00  0.00    -0.648 OA
HETATM   15  O   UNL     1      -0.835 -10.084  56.909  1.00  0.00    -0.648 OA
ENDBRANCH  12  13
ENDBRANCH  11  12
ENDBRANCH  10  11
ENDBRANCH   9  10
ENDBRANCH   5   9
BRANCH   8  16
HETATM   16  O   UNL     1       6.120  -7.485  56.855  1.00  0.00    -0.358 OA
HETATM   17  H   UNL     1       6.137  -7.495  57.791  1.00  0.00     0.217 HD
ENDBRANCH   8  16
ENDBRANCH   1   3
TORSDOF 7
ENDMDL
MODEL 6
REMARK VINA RESULT:      -6.2      2.776      3.184
REMARK  7 active torsions:
REMARK  status: ('A' for Active; 'I' for Inactive)
REMARK    1  A    between atoms: O_1  and  C_12 
REMARK    2  A    between atoms: O_3  and  C_15 
REMARK    3  A    between atoms: C_5  and  C_6 
REMARK    4  A    between atoms: C_5  and  C_7 
REMARK    5  A    between atoms: C_6  and  C_8 
REMARK    6  A    between atoms: C_7  and  C_9 
REMARK    7  A    between atoms: C_9  and  C_14 
ROOT
HETATM    1  O   UNL     1       5.157  -6.263  52.220  1.00  0.00    -0.358 OA
HETATM    2  H   UNL     1       5.715  -5.575  51.915  1.00  0.00     0.217 HD
ENDROOT
BRANCH   1   3
HETATM    3  C   UNL     1       4.481  -6.121  53.395  1.00  0.00     0.099 A 
HETATM    4  C   UNL     1       3.992  -7.255  54.044  1.00  0.00     0.046 A 
HETATM    5  C   UNL     1       3.296  -7.123  55.247  1.00  0.00    -0.055 A 
HETATM    6  C   UNL     1       3.089  -5.858  55.798  1.00  0.00     0.010 A 
HETATM    7  C   UNL     1       3.580  -4.725  55.148  1.00  0.00     0.040 A 
HETATM    8  C   UNL     1       4.275  -4.858  53.946  1.00  0.00     0.098 A 
BRANCH   5   9
HETATM    9  C   UNL     1       2.766  -8.348  55.949  1.00  0.00     0.038 C 
BRANCH   9  10
HETATM   10  C   UNL     1       2.872  -9.633  55.121  1.00  0.00     0.005 C 
BRANCH  10  11
HETATM   11  C   UNL     1       2.338 -10.868  55.860  1.00  0.00     0.011 C 
BRANCH  11  12
HETATM   12  C   UNL     1       1.141 -11.501  55.149  1.00  0.00     0.113 C 
BRANCH  12  13
HETATM   13  C   UNL     1      -0.171 -10.820  55.465  1.00  0.00     0.172 C 
HETATM   14  O   UNL     1      -1.065 -10.972  54.453  1.00  0.00    -0.648 OA
HETATM   15  O   UNL     1      -0.430 -10.220  56.499  1.00  0.00    -0.648 OA
ENDBRANCH  12  13
ENDBRANCH  11  12
ENDBRANCH  10  11
ENDBRANCH   9  10
ENDBRANCH   5   9
BRANCH   8  16
HETATM   16  O   UNL     1       4.749  -3.744  53.320  1.00  0.00    -0.358 OA
HETATM   17  H   UNL     1       5.459  -3.262  53.696  1.00  0.00     0.217 HD
ENDBRANCH   8  16
ENDBRANCH   1   3
TORSDOF 7
ENDMDL
MODEL 7
REMARK VINA RESULT:      -6.1      3.125      5.018
REMARK  7 active torsions:
REMARK  status: ('A' for Active; 'I' for Inactive)
REMARK    1  A    between atoms: O_1  and  C_12 
REMARK    2  A    between atoms: O_3  and  C_15 
REMARK    3  A    between atoms: C_5  and  C_6 
REMARK    4  A    between atoms: C_5  and  C_7 
REMARK    5  A    between atoms: C_6  and  C_8 
REMARK    6  A    between atoms: C_7  and  C_9 
REMARK    7  A    between atoms: C_9  and  C_14 
ROOT
HETATM    1  O   UNL     1       3.606 -10.627  57.820  1.00  0.00    -0.358 OA
HETATM    2  H   UNL     1       2.854 -11.184  57.777  1.00  0.00     0.217 HD
ENDROOT
BRANCH   1   3
HETATM    3  C   UNL     1       3.902  -9.801  56.776  1.00  0.00     0.099 A 
HETATM    4  C   UNL     1       3.055  -9.766  55.669  1.00  0.00     0.046 A 
HETATM    5  C   UNL     1       3.347  -8.927  54.594  1.00  0.00    -0.055 A 
HETATM    6  C   UNL     1       4.488  -8.124  54.626  1.00  0.00     0.010 A 
HETATM    7  C   UNL     1       5.334  -8.159  55.734  1.00  0.00     0.040 A 
HETATM    8  C   UNL     1       5.041  -8.999  56.809  1.00  0.00     0.098 A 
BRANCH   5   9
HETATM    9  C   UNL     1       2.432  -8.890  53.396  1.00  0.00     0.038 C 
BRANCH   9  10
HETATM   10  C   UNL     1       1.611 -10.169  53.201  1.00  0.00     0.005 C 
BRANCH  10  11
HETATM   11  C   UNL     1       0.109  -9.958  53.431  1.00  0.00     0.011 C 
BRANCH  11  12
HETATM   12  C   UNL     1      -0.530 -11.111  54.205  1.00  0.00     0.113 C 
BRANCH  12  13
HETATM   13  C   UNL     1      -0.268 -11.051  55.693  1.00  0.00     0.172 C 
HETATM   14  O   UNL     1       0.518 -12.081  56.101  1.00  0.00    -0.648 OA
HETATM   15  O   UNL     1      -0.681 -10.186  56.453  1.00  0.00    -0.648 OA
ENDBRANCH  12  13
ENDBRANCH  11  12
ENDBRANCH  10  11
ENDBRANCH   9  10
ENDBRANCH   5   9
BRANCH   8  16
HETATM   16  O   UNL     1       5.876  -9.025  57.886  1.00  0.00    -0.358 OA
HETATM   17  H   UNL     1       6.571  -8.400  57.954  1.00  0.00     0.217 HD
ENDBRANCH   8  16
ENDBRANCH   1   3
TORSDOF 7
ENDMDL
MODEL 8
REMARK VINA RESULT:      -6.1      2.637      3.025
REMARK  7 active torsions:
REMARK  status: ('A' for Active; 'I' for Inactive)
REMARK    1  A    between atoms: O_1  and  C_12 
REMARK    2  A    between atoms: O_3  and  C_15 
REMARK    3  A    between atoms: C_5  and  C_6 
REMARK    4  A    between atoms: C_5  and  C_7 
REMARK    5  A    between atoms: C_6  and  C_8 
REMARK    6  A    between atoms: C_7  and  C_9 
REMARK    7  A    between atoms: C_9  and  C_14 
ROOT
HETATM    1  O   UNL     1       5.214  -6.268  52.125  1.00  0.00    -0.358 OA
HETATM    2  H   UNL     1       6.054  -6.621  51.902  1.00  0.00     0.217 HD
ENDROOT
BRANCH   1   3
HETATM    3  C   UNL     1       4.846  -6.161  53.433  1.00  0.00     0.099 A 
HETATM    4  C   UNL     1       4.867  -7.294  54.245  1.00  0.00     0.046 A 
HETATM    5  C   UNL     1       4.490  -7.198  55.585  1.00  0.00    -0.055 A 
HETATM    6  C   UNL     1       4.093  -5.969  56.112  1.00  0.00     0.010 A 
HETATM    7  C   UNL     1       4.074  -4.835  55.299  1.00  0.00     0.040 A 
HETATM    8  C   UNL     1       4.450  -4.932  53.959  1.00  0.00     0.098 A 
BRANCH   5   9
HETATM    9  C   UNL     1       4.511  -8.424  56.464  1.00  0.00     0.038 C 
BRANCH   9  10
HETATM   10  C   UNL     1       3.541  -9.524  56.018  1.00  0.00     0.005 C 
BRANCH  10  11
HETATM   11  C   UNL     1       2.068  -9.139  56.214  1.00  0.00     0.011 C 
BRANCH  11  12
HETATM   12  C   UNL     1       1.149  -9.815  55.196  1.00  0.00     0.113 C 
BRANCH  12  13
HETATM   13  C   UNL     1       0.352 -10.961  55.777  1.00  0.00     0.172 C 
HETATM   14  O   UNL     1      -0.858 -10.543  56.234  1.00  0.00    -0.648 OA
HETATM   15  O   UNL     1       0.715 -12.128  55.824  1.00  0.00    -0.648 OA
ENDBRANCH  12  13
ENDBRANCH  11  12
ENDBRANCH  10  11
ENDBRANCH   9  10
ENDBRANCH   5   9
BRANCH   8  16
HETATM   16  O   UNL     1       4.427  -3.818  53.174  1.00  0.00    -0.358 OA
HETATM   17  H   UNL     1       4.066  -3.020  53.506  1.00  0.00     0.217 HD
ENDBRANCH   8  16
ENDBRANCH   1   3
TORSDOF 7
ENDMDL
MODEL 9
REMARK VINA RESULT:      -6.1      0.946      1.633
REMARK  7 active torsions:
REMARK  status: ('A' for Active; 'I' for Inactive)
REMARK    1  A    between atoms: O_1  and  C_12 
REMARK    2  A    between atoms: O_3  and  C_15 
REMARK    3  A    between atoms: C_5  and  C_6 
REMARK    4  A    between atoms: C_5  and  C_7 
REMARK    5  A    between atoms: C_6  and  C_8 
REMARK    6  A    between atoms: C_7  and  C_9 
REMARK    7  A    between atoms: C_9  and  C_14 
ROOT
HETATM    1  O   UNL     1       4.814  -4.223  55.103  1.00  0.00    -0.358 OA
HETATM    2  H   UNL     1       4.570  -3.321  55.038  1.00  0.00     0.217 HD
ENDROOT
BRANCH   1   3
HETATM    3  C   UNL     1       4.095  -5.173  54.440  1.00  0.00     0.099 A 
HETATM    4  C   UNL     1       3.530  -6.228  55.155  1.00  0.00     0.046 A 
HETATM    5  C   UNL     1       2.794  -7.208  54.488  1.00  0.00    -0.055 A 
HETATM    6  C   UNL     1       2.623  -7.131  53.106  1.00  0.00     0.010 A 
HETATM    7  C   UNL     1       3.187  -6.074  52.391  1.00  0.00     0.040 A 
HETATM    8  C   UNL     1       3.924  -5.096  53.059  1.00  0.00     0.098 A 
BRANCH   5   9
HETATM    9  C   UNL     1       2.185  -8.350  55.261  1.00  0.00     0.038 C 
BRANCH   9  10
HETATM   10  C   UNL     1       2.773  -9.721  54.911  1.00  0.00     0.005 C 
BRANCH  10  11
HETATM   11  C   UNL     1       2.992 -10.612  56.141  1.00  0.00     0.011 C 
BRANCH  11  12
HETATM   12  C   UNL     1       3.407  -9.810  57.375  1.00  0.00     0.113 C 
BRANCH  12  13
HETATM   13  C   UNL     1       4.851 -10.023  57.769  1.00  0.00     0.172 C 
HETATM   14  O   UNL     1       5.575  -8.880  57.640  1.00  0.00    -0.648 OA
HETATM   15  O   UNL     1       5.330 -11.073  58.175  1.00  0.00    -0.648 OA
ENDBRANCH  12  13
ENDBRANCH  11  12
ENDBRANCH  10  11
ENDBRANCH   9  10
ENDBRANCH   5   9
BRANCH   8  16
HETATM   16  O   UNL     1       4.471  -4.068  52.350  1.00  0.00    -0.358 OA
HETATM   17  H   UNL     1       5.384  -3.877  52.432  1.00  0.00     0.217 HD
ENDBRANCH   8  16
ENDBRANCH   1   3
TORSDOF 7
ENDMDL
