MODEL 1
REMARK VINA RESULT:      -6.4      0.000      0.000
REMARK  7 active torsions:
REMARK  status: ('A' for Active; 'I' for Inactive)
REMARK    1  A    between atoms: O_1  and  C_12 
REMARK    2  A    between atoms: O_3  and  C_15 
REMARK    3  A    between atoms: C_5  and  C_6 
REMARK    4  A    between atoms: C_5  and  C_7 
REMARK    5  A    between atoms: C_6  and  C_8 
REMARK    6  A    between atoms: C_7  and  C_9 
REMARK    7  A    between atoms: C_9  and  C_14 
ROOT
HETATM    1  O   UNL     1       8.473  -1.694  57.894  1.00  0.00    -0.358 OA
HETATM    2  H   UNL     1       8.235  -0.932  57.403  1.00  0.00     0.217 HD
ENDROOT
BRANCH   1   3
HETATM    3  C   UNL     1       7.556  -2.678  58.111  1.00  0.00     0.099 A 
HETATM    4  C   UNL     1       6.594  -2.944  57.136  1.00  0.00     0.046 A 
HETATM    5  C   UNL     1       5.648  -3.948  57.346  1.00  0.00    -0.055 A 
HETATM    6  C   UNL     1       5.664  -4.685  58.531  1.00  0.00     0.010 A 
HETATM    7  C   UNL     1       6.627  -4.418  59.505  1.00  0.00     0.040 A 
HETATM    8  C   UNL     1       7.572  -3.414  59.294  1.00  0.00     0.098 A 
BRANCH   5   9
HETATM    9  C   UNL     1       4.607  -4.236  56.293  1.00  0.00     0.038 C 
BRANCH   9  10
HETATM   10  C   UNL     1       3.785  -5.501  56.562  1.00  0.00     0.005 C 
BRANCH  10  11
HETATM   11  C   UNL     1       2.296  -5.209  56.793  1.00  0.00     0.011 C 
BRANCH  11  12
HETATM   12  C   UNL     1       1.750  -5.913  58.036  1.00  0.00     0.113 C 
BRANCH  12  13
HETATM   13  C   UNL     1       1.545  -4.982  59.209  1.00  0.00     0.172 C 
HETATM   14  O   UNL     1       0.233  -4.901  59.556  1.00  0.00    -0.648 OA
HETATM   15  O   UNL     1       2.429  -4.381  59.803  1.00  0.00    -0.648 OA
ENDBRANCH  12  13
ENDBRANCH  11  12
ENDBRANCH  10  11
ENDBRANCH   9  10
ENDBRANCH   5   9
BRANCH   8  16
HETATM   16  O   UNL     1       8.507  -3.163  60.253  1.00  0.00    -0.358 OA
HETATM   17  H   UNL     1       9.416  -3.142  60.026  1.00  0.00     0.217 HD
ENDBRANCH   8  16
ENDBRANCH   1   3
TORSDOF 7
ENDMDL
MODEL 2
REMARK VINA RESULT:      -6.3      0.682      1.733
REMARK  7 active torsions:
REMARK  status: ('A' for Active; 'I' for Inactive)
REMARK    1  A    between atoms: O_1  and  C_12 
REMARK    2  A    between atoms: O_3  and  C_15 
REMARK    3  A    between atoms: C_5  and  C_6 
REMARK    4  A    between atoms: C_5  and  C_7 
REMARK    5  A    between atoms: C_6  and  C_8 
REMARK    6  A    between atoms: C_7  and  C_9 
REMARK    7  A    between atoms: C_9  and  C_14 
ROOT
HETATM    1  O   UNL     1       8.769  -3.185  59.789  1.00  0.00    -0.358 OA
HETATM    2  H   UNL     1       9.609  -3.374  59.418  1.00  0.00     0.217 HD
ENDROOT
BRANCH   1   3
HETATM    3  C   UNL     1       7.667  -3.132  58.988  1.00  0.00     0.099 A 
HETATM    4  C   UNL     1       6.769  -4.199  58.988  1.00  0.00     0.046 A 
HETATM    5  C   UNL     1       5.639  -4.159  58.170  1.00  0.00    -0.055 A 
HETATM    6  C   UNL     1       5.408  -3.052  57.353  1.00  0.00     0.010 A 
HETATM    7  C   UNL     1       6.307  -1.985  57.355  1.00  0.00     0.040 A 
HETATM    8  C   UNL     1       7.437  -2.026  58.172  1.00  0.00     0.098 A 
BRANCH   5   9
HETATM    9  C   UNL     1       4.668  -5.313  58.169  1.00  0.00     0.038 C 
BRANCH   9  10
HETATM   10  C   UNL     1       3.865  -5.448  56.870  1.00  0.00     0.005 C 
BRANCH  10  11
HETATM   11  C   UNL     1       2.393  -5.046  57.031  1.00  0.00     0.011 C 
BRANCH  11  12
HETATM   12  C   UNL     1       1.699  -5.813  58.157  1.00  0.00     0.113 C 
BRANCH  12  13
HETATM   13  C   UNL     1       1.300  -4.936  59.322  1.00  0.00     0.172 C 
HETATM   14  O   UNL     1      -0.021  -5.065  59.611  1.00  0.00    -0.648 OA
HETATM   15  O   UNL     1       2.053  -4.210  59.956  1.00  0.00    -0.648 OA
ENDBRANCH  12  13
ENDBRANCH  11  12
ENDBRANCH  10  11
ENDBRANCH   9  10
ENDBRANCH   5   9
BRANCH   8  16
HETATM   16  O   UNL     1       8.308  -0.978  58.163  1.00  0.00    -0.358 OA
HETATM   17  H   UNL     1       9.189  -1.100  58.456  1.00  0.00     0.217 HD
ENDBRANCH   8  16
ENDBRANCH   1   3
TORSDOF 7
ENDMDL
MODEL 3
REMARK VINA RESULT:      -6.1      2.792      4.577
REMARK  7 active torsions:
REMARK  status: ('A' for Active; 'I' for Inactive)
REMARK    1  A    between atoms: O_1  and  C_12 
REMARK    2  A    between atoms: O_3  and  C_15 
REMARK    3  A    between atoms: C_5  and  C_6 
REMARK    4  A    between atoms: C_5  and  C_7 
REMARK    5  A    between atoms: C_6  and  C_8 
REMARK    6  A    between atoms: C_7  and  C_9 
REMARK    7  A    between atoms: C_9  and  C_14 
ROOT
HETATM    1  O   UNL     1       8.660  -3.135  59.697  1.00  0.00    -0.358 OA
HETATM    2  H   UNL     1       9.548  -3.363  59.501  1.00  0.00     0.217 HD
ENDROOT
BRANCH   1   3
HETATM    3  C   UNL     1       7.681  -3.350  58.773  1.00  0.00     0.099 A 
HETATM    4  C   UNL     1       7.880  -2.934  57.456  1.00  0.00     0.046 A 
HETATM    5  C   UNL     1       6.885  -3.147  56.501  1.00  0.00    -0.055 A 
HETATM    6  C   UNL     1       5.693  -3.774  56.863  1.00  0.00     0.010 A 
HETATM    7  C   UNL     1       5.496  -4.190  58.180  1.00  0.00     0.040 A 
HETATM    8  C   UNL     1       6.490  -3.977  59.134  1.00  0.00     0.098 A 
BRANCH   5   9
HETATM    9  C   UNL     1       7.099  -2.696  55.077  1.00  0.00     0.038 C 
BRANCH   9  10
HETATM   10  C   UNL     1       6.068  -1.673  54.588  1.00  0.00     0.005 C 
BRANCH  10  11
HETATM   11  C   UNL     1       6.321  -0.260  55.133  1.00  0.00     0.011 C 
BRANCH  11  12
HETATM   12  C   UNL     1       5.043   0.406  55.643  1.00  0.00     0.113 C 
BRANCH  12  13
HETATM   13  C   UNL     1       5.090   0.741  57.117  1.00  0.00     0.172 C 
HETATM   14  O   UNL     1       6.072   0.050  57.752  1.00  0.00    -0.648 OA
HETATM   15  O   UNL     1       4.363   1.543  57.687  1.00  0.00    -0.648 OA
ENDBRANCH  12  13
ENDBRANCH  11  12
ENDBRANCH  10  11
ENDBRANCH   9  10
ENDBRANCH   5   9
BRANCH   8  16
HETATM   16  O   UNL     1       6.286  -4.387  60.418  1.00  0.00    -0.358 OA
HETATM   17  H   UNL     1       6.896  -4.150  61.088  1.00  0.00     0.217 HD
ENDBRANCH   8  16
ENDBRANCH   1   3
TORSDOF 7
ENDMDL
MODEL 4
REMARK VINA RESULT:      -6.0      1.685      2.495
REMARK  7 active torsions:
REMARK  status: ('A' for Active; 'I' for Inactive)
REMARK    1  A    between atoms: O_1  and  C_12 
REMARK    2  A    between atoms: O_3  and  C_15 
REMARK    3  A    between atoms: C_5  and  C_6 
REMARK    4  A    between atoms: C_5  and  C_7 
REMARK    5  A    between atoms: C_6  and  C_8 
REMARK    6  A    between atoms: C_7  and  C_9 
REMARK    7  A    between atoms: C_9  and  C_14 
ROOT
HETATM    1  O   UNL     1       8.446  -3.155  59.889  1.00  0.00    -0.358 OA
HETATM    2  H   UNL     1       8.515  -3.961  60.362  1.00  0.00     0.217 HD
ENDROOT
BRANCH   1   3
HETATM    3  C   UNL     1       7.539  -3.033  58.878  1.00  0.00     0.099 A 
HETATM    4  C   UNL     1       6.609  -4.050  58.667  1.00  0.00     0.046 A 
HETATM    5  C   UNL     1       5.677  -3.938  57.635  1.00  0.00    -0.055 A 
HETATM    6  C   UNL     1       5.677  -2.810  56.813  1.00  0.00     0.010 A 
HETATM    7  C   UNL     1       6.608  -1.793  57.026  1.00  0.00     0.040 A 
HETATM    8  C   UNL     1       7.539  -1.905  58.059  1.00  0.00     0.098 A 
BRANCH   5   9
HETATM    9  C   UNL     1       4.671  -5.038  57.405  1.00  0.00     0.038 C 
BRANCH   9  10
HETATM   10  C   UNL     1       4.317  -5.830  58.668  1.00  0.00     0.005 C 
BRANCH  10  11
HETATM   11  C   UNL     1       2.979  -6.574  58.554  1.00  0.00     0.011 C 
BRANCH  11  12
HETATM   12  C   UNL     1       1.850  -5.670  58.059  1.00  0.00     0.113 C 
BRANCH  12  13
HETATM   13  C   UNL     1       1.032  -6.287  56.947  1.00  0.00     0.172 C 
HETATM   14  O   UNL     1       0.340  -7.372  57.384  1.00  0.00    -0.648 OA
HETATM   15  O   UNL     1       0.967  -5.873  55.798  1.00  0.00    -0.648 OA
ENDBRANCH  12  13
ENDBRANCH  11  12
ENDBRANCH  10  11
ENDBRANCH   9  10
ENDBRANCH   5   9
BRANCH   8  16
HETATM   16  O   UNL     1       8.444  -0.906  58.256  1.00  0.00    -0.358 OA
HETATM   17  H   UNL     1       8.155  -0.062  58.542  1.00  0.00     0.217 HD
ENDBRANCH   8  16
ENDBRANCH   1   3
TORSDOF 7
ENDMDL
MODEL 5
REMARK VINA RESULT:      -5.9      1.603      1.906
REMARK  7 active torsions:
REMARK  status: ('A' for Active; 'I' for Inactive)
REMARK    1  A    between atoms: O_1  and  C_12 
REMARK    2  A    between atoms: O_3  and  C_15 
REMARK    3  A    between atoms: C_5  and  C_6 
REMARK    4  A    between atoms: C_5  and  C_7 
REMARK    5  A    between atoms: C_6  and  C_8 
REMARK    6  A    between atoms: C_7  and  C_9 
REMARK    7  A    between atoms: C_9  and  C_14 
ROOT
HETATM    1  O   UNL     1       8.437  -1.722  57.889  1.00  0.00    -0.358 OA
HETATM    2  H   UNL     1       9.082  -1.500  58.533  1.00  0.00     0.217 HD
ENDROOT
BRANCH   1   3
HETATM    3  C   UNL     1       7.534  -2.710  58.142  1.00  0.00     0.099 A 
HETATM    4  C   UNL     1       6.567  -3.016  57.184  1.00  0.00     0.046 A 
HETATM    5  C   UNL     1       5.635  -4.024  57.432  1.00  0.00    -0.055 A 
HETATM    6  C   UNL     1       5.670  -4.726  58.637  1.00  0.00     0.010 A 
HETATM    7  C   UNL     1       6.639  -4.420  59.594  1.00  0.00     0.040 A 
HETATM    8  C   UNL     1       7.570  -3.412  59.346  1.00  0.00     0.098 A 
BRANCH   5   9
HETATM    9  C   UNL     1       4.588  -4.354  56.397  1.00  0.00     0.038 C 
BRANCH   9  10
HETATM   10  C   UNL     1       3.672  -5.518  56.790  1.00  0.00     0.005 C 
BRANCH  10  11
HETATM   11  C   UNL     1       2.184  -5.208  56.575  1.00  0.00     0.011 C 
BRANCH  11  12
HETATM   12  C   UNL     1       1.293  -5.872  57.625  1.00  0.00     0.113 C 
BRANCH  12  13
HETATM   13  C   UNL     1       0.439  -6.988  57.067  1.00  0.00     0.172 C 
HETATM   14  O   UNL     1       1.087  -7.664  56.082  1.00  0.00    -0.648 OA
HETATM   15  O   UNL     1      -0.686  -7.280  57.448  1.00  0.00    -0.648 OA
ENDBRANCH  12  13
ENDBRANCH  11  12
ENDBRANCH  10  11
ENDBRANCH   9  10
ENDBRANCH   5   9
BRANCH   8  16
HETATM   16  O   UNL     1       8.510  -3.122  60.289  1.00  0.00    -0.358 OA
HETATM   17  H   UNL     1       9.380  -2.894  60.027  1.00  0.00     0.217 HD
ENDBRANCH   8  16
ENDBRANCH   1   3
TORSDOF 7
ENDMDL
MODEL 6
REMARK VINA RESULT:      -5.8      3.331      5.442
REMARK  7 active torsions:
REMARK  status: ('A' for Active; 'I' for Inactive)
REMARK    1  A    between atoms: O_1  and  C_12 
REMARK    2  A    between atoms: O_3  and  C_15 
REMARK    3  A    between atoms: C_5  and  C_6 
REMARK    4  A    between atoms: C_5  and  C_7 
REMARK    5  A    between atoms: C_6  and  C_8 
REMARK    6  A    between atoms: C_7  and  C_9 
REMARK    7  A    between atoms: C_9  and  C_14 
ROOT
HETATM    1  O   UNL     1       4.584  -1.472  53.106  1.00  0.00    -0.358 OA
HETATM    2  H   UNL     1       4.540  -0.864  52.395  1.00  0.00     0.217 HD
ENDROOT
BRANCH   1   3
HETATM    3  C   UNL     1       5.053  -1.068  54.320  1.00  0.00     0.099 A 
HETATM    4  C   UNL     1       4.934  -1.919  55.419  1.00  0.00     0.046 A 
HETATM    5  C   UNL     1       5.409  -1.516  56.667  1.00  0.00    -0.055 A 
HETATM    6  C   UNL     1       6.001  -0.262  56.817  1.00  0.00     0.010 A 
HETATM    7  C   UNL     1       6.121   0.589  55.717  1.00  0.00     0.040 A 
HETATM    8  C   UNL     1       5.646   0.185  54.469  1.00  0.00     0.098 A 
BRANCH   5   9
HETATM    9  C   UNL     1       5.279  -2.436  57.856  1.00  0.00     0.038 C 
BRANCH   9  10
HETATM   10  C   UNL     1       5.249  -3.924  57.489  1.00  0.00     0.005 C 
BRANCH  10  11
HETATM   11  C   UNL     1       5.739  -4.830  58.626  1.00  0.00     0.011 C 
BRANCH  11  12
HETATM   12  C   UNL     1       6.173  -4.037  59.859  1.00  0.00     0.113 C 
BRANCH  12  13
HETATM   13  C   UNL     1       7.638  -4.202  60.192  1.00  0.00     0.172 C 
HETATM   14  O   UNL     1       8.364  -3.128  59.784  1.00  0.00    -0.648 OA
HETATM   15  O   UNL     1       8.132  -5.158  60.773  1.00  0.00    -0.648 OA
ENDBRANCH  12  13
ENDBRANCH  11  12
ENDBRANCH  10  11
ENDBRANCH   9  10
ENDBRANCH   5   9
BRANCH   8  16
HETATM   16  O   UNL     1       5.767   1.025  53.403  1.00  0.00    -0.358 OA
HETATM   17  H   UNL     1       6.542   1.542  53.300  1.00  0.00     0.217 HD
ENDBRANCH   8  16
ENDBRANCH   1   3
TORSDOF 7
ENDMDL
MODEL 7
REMARK VINA RESULT:      -5.8      2.728      3.607
REMARK  7 active torsions:
REMARK  status: ('A' for Active; 'I' for Inactive)
REMARK    1  A    between atoms: O_1  and  C_12 
REMARK    2  A    between atoms: O_3  and  C_15 
REMARK    3  A    between atoms: C_5  and  C_6 
REMARK    4  A    between atoms: C_5  and  C_7 
REMARK    5  A    between atoms: C_6  and  C_8 
REMARK    6  A    between atoms: C_7  and  C_9 
REMARK    7  A    between atoms: C_9  and  C_14 
ROOT
HETATM    1  O   UNL     1       8.818  -3.385  59.357  1.00  0.00    -0.358 OA
HETATM    2  H   UNL     1       8.840  -3.855  60.167  1.00  0.00     0.217 HD
ENDROOT
BRANCH   1   3
HETATM    3  C   UNL     1       7.623  -3.023  58.811  1.00  0.00     0.099 A 
HETATM    4  C   UNL     1       6.542  -3.902  58.885  1.00  0.00     0.046 A 
HETATM    5  C   UNL     1       5.314  -3.545  58.328  1.00  0.00    -0.055 A 
HETATM    6  C   UNL     1       5.167  -2.309  57.696  1.00  0.00     0.010 A 
HETATM    7  C   UNL     1       6.249  -1.431  57.623  1.00  0.00     0.040 A 
HETATM    8  C   UNL     1       7.476  -1.789  58.180  1.00  0.00     0.098 A 
BRANCH   5   9
HETATM    9  C   UNL     1       4.145  -4.495  58.406  1.00  0.00     0.038 C 
BRANCH   9  10
HETATM   10  C   UNL     1       4.143  -5.569  57.313  1.00  0.00     0.005 C 
BRANCH  10  11
HETATM   11  C   UNL     1       3.433  -5.116  56.030  1.00  0.00     0.011 C 
BRANCH  11  12
HETATM   12  C   UNL     1       4.343  -5.189  54.803  1.00  0.00     0.113 C 
BRANCH  12  13
HETATM   13  C   UNL     1       5.088  -3.901  54.534  1.00  0.00     0.172 C 
HETATM   14  O   UNL     1       4.234  -2.881  54.260  1.00  0.00    -0.648 OA
HETATM   15  O   UNL     1       6.303  -3.762  54.570  1.00  0.00    -0.648 OA
ENDBRANCH  12  13
ENDBRANCH  11  12
ENDBRANCH  10  11
ENDBRANCH   9  10
ENDBRANCH   5   9
BRANCH   8  16
HETATM   16  O   UNL     1       8.526  -0.923  58.102  1.00  0.00    -0.358 OA
HETATM   17  H   UNL     1       8.454  -0.146  57.582  1.00  0.00     0.217 HD
ENDBRANCH   8  16
ENDBRANCH   1   3
TORSDOF 7
ENDMDL
MODEL 8
REMARK VINA RESULT:      -5.8      2.778      5.758
REMARK  7 active torsions:
REMARK  status: ('A' for Active; 'I' for Inactive)
REMARK    1  A    between atoms: O_1  and  C_12 
REMARK    2  A    between atoms: O_3  and  C_15 
REMARK    3  A    between atoms: C_5  and  C_6 
REMARK    4  A    between atoms: C_5  and  C_7 
REMARK    5  A    between atoms: C_6  and  C_8 
REMARK    6  A    between atoms: C_7  and  C_9 
REMARK    7  A    between atoms: C_9  and  C_14 
ROOT
HETATM    1  O   UNL     1       3.800  -6.765  59.854  1.00  0.00    -0.358 OA
HETATM    2  H   UNL     1       2.971  -6.662  60.279  1.00  0.00     0.217 HD
ENDROOT
BRANCH   1   3
HETATM    3  C   UNL     1       4.032  -6.153  58.658  1.00  0.00     0.099 A 
HETATM    4  C   UNL     1       4.942  -5.098  58.594  1.00  0.00     0.046 A 
HETATM    5  C   UNL     1       5.187  -4.462  57.376  1.00  0.00    -0.055 A 
HETATM    6  C   UNL     1       4.521  -4.881  56.224  1.00  0.00     0.010 A 
HETATM    7  C   UNL     1       3.612  -5.937  56.289  1.00  0.00     0.040 A 
HETATM    8  C   UNL     1       3.367  -6.572  57.507  1.00  0.00     0.098 A 
BRANCH   5   9
HETATM    9  C   UNL     1       6.170  -3.320  57.306  1.00  0.00     0.038 C 
BRANCH   9  10
HETATM   10  C   UNL     1       5.632  -2.002  57.872  1.00  0.00     0.005 C 
BRANCH  10  11
HETATM   11  C   UNL     1       6.312  -0.767  57.265  1.00  0.00     0.011 C 
BRANCH  11  12
HETATM   12  C   UNL     1       5.333   0.117  56.493  1.00  0.00     0.113 C 
BRANCH  12  13
HETATM   13  C   UNL     1       5.328  -0.153  55.005  1.00  0.00     0.172 C 
HETATM   14  O   UNL     1       4.628  -1.279  54.707  1.00  0.00    -0.648 OA
HETATM   15  O   UNL     1       5.859   0.547  54.154  1.00  0.00    -0.648 OA
ENDBRANCH  12  13
ENDBRANCH  11  12
ENDBRANCH  10  11
ENDBRANCH   9  10
ENDBRANCH   5   9
BRANCH   8  16
HETATM   16  O   UNL     1       2.476  -7.602  57.558  1.00  0.00    -0.358 OA
HETATM   17  H   UNL     1       1.774  -7.583  58.179  1.00  0.00     0.217 HD
ENDBRANCH   8  16
ENDBRANCH   1   3
TORSDOF 7
ENDMDL
MODEL 9
REMARK VINA RESULT:      -5.8      1.871      2.355
REMARK  7 active torsions:
REMARK  status: ('A' for Active; 'I' for Inactive)
REMARK    1  A    between atoms: O_1  and  C_12 
REMARK    2  A    between atoms: O_3  and  C_15 
REMARK    3  A    between atoms: C_5  and  C_6 
REMARK    4  A    between atoms: C_5  and  C_7 
REMARK    5  A    between atoms: C_6  and  C_8 
REMARK    6  A    between atoms: C_7  and  C_9 
REMARK    7  A    between atoms: C_9  and  C_14 
ROOT
HETATM    1  O   UNL     1       6.761  -0.677  55.970  1.00  0.00    -0.358 OA
HETATM    2  H   UNL     1       7.539  -0.154  55.966  1.00  0.00     0.217 HD
ENDROOT
BRANCH   1   3
HETATM    3  C   UNL     1       6.671  -1.759  56.793  1.00  0.00     0.099 A 
HETATM    4  C   UNL     1       5.734  -2.754  56.517  1.00  0.00     0.046 A 
HETATM    5  C   UNL     1       5.631  -3.866  57.353  1.00  0.00    -0.055 A 
HETATM    6  C   UNL     1       6.465  -3.982  58.466  1.00  0.00     0.010 A 
HETATM    7  C   UNL     1       7.403  -2.987  58.740  1.00  0.00     0.040 A 
HETATM    8  C   UNL     1       7.505  -1.875  57.904  1.00  0.00     0.098 A 
BRANCH   5   9
HETATM    9  C   UNL     1       4.616  -4.942  57.056  1.00  0.00     0.038 C 
BRANCH   9  10
HETATM   10  C   UNL     1       4.260  -5.812  58.266  1.00  0.00     0.005 C 
BRANCH  10  11
HETATM   11  C   UNL     1       3.035  -6.704  58.023  1.00  0.00     0.011 C 
BRANCH  11  12
HETATM   12  C   UNL     1       1.727  -5.912  58.023  1.00  0.00     0.113 C 
BRANCH  12  13
HETATM   13  C   UNL     1       0.682  -6.482  57.090  1.00  0.00     0.172 C 
HETATM   14  O   UNL     1       0.919  -6.124  55.801  1.00  0.00    -0.648 OA
HETATM   15  O   UNL     1      -0.255  -7.194  57.424  1.00  0.00    -0.648 OA
ENDBRANCH  12  13
ENDBRANCH  11  12
ENDBRANCH  10  11
ENDBRANCH   9  10
ENDBRANCH   5   9
BRANCH   8  16
HETATM   16  O   UNL     1       8.425  -0.909  58.183  1.00  0.00    -0.358 OA
HETATM   17  H   UNL     1       8.142  -0.057  58.452  1.00  0.00     0.217 HD
ENDBRANCH   8  16
ENDBRANCH   1   3
TORSDOF 7
ENDMDL
