MODEL 1
REMARK VINA RESULT:      -6.4      0.000      0.000
REMARK  7 active torsions:
REMARK  status: ('A' for Active; 'I' for Inactive)
REMARK    1  A    between atoms: O_1  and  C_12 
REMARK    2  A    between atoms: O_3  and  C_15 
REMARK    3  A    between atoms: C_5  and  C_6 
REMARK    4  A    between atoms: C_5  and  C_7 
REMARK    5  A    between atoms: C_6  and  C_8 
REMARK    6  A    between atoms: C_7  and  C_9 
REMARK    7  A    between atoms: C_9  and  C_14 
ROOT
HETATM    1  O   UNL     1       8.467  -3.186  59.768  1.00  0.00    -0.358 OA
HETATM    2  H   UNL     1       9.316  -3.530  59.569  1.00  0.00     0.217 HD
ENDROOT
BRANCH   1   3
HETATM    3  C   UNL     1       7.542  -3.039  58.778  1.00  0.00     0.099 A 
HETATM    4  C   UNL     1       6.610  -4.053  58.556  1.00  0.00     0.046 A 
HETATM    5  C   UNL     1       5.659  -3.916  57.544  1.00  0.00    -0.055 A 
HETATM    6  C   UNL     1       5.642  -2.767  56.753  1.00  0.00     0.010 A 
HETATM    7  C   UNL     1       6.575  -1.754  56.976  1.00  0.00     0.040 A 
HETATM    8  C   UNL     1       7.525  -1.891  57.988  1.00  0.00     0.098 A 
BRANCH   5   9
HETATM    9  C   UNL     1       4.652  -5.013  57.304  1.00  0.00     0.038 C 
BRANCH   9  10
HETATM   10  C   UNL     1       3.444  -4.574  56.468  1.00  0.00     0.005 C 
BRANCH  10  11
HETATM   11  C   UNL     1       2.138  -5.253  56.901  1.00  0.00     0.011 C 
BRANCH  11  12
HETATM   12  C   UNL     1       2.206  -5.790  58.330  1.00  0.00     0.113 C 
BRANCH  12  13
HETATM   13  C   UNL     1       1.498  -4.909  59.335  1.00  0.00     0.172 C 
HETATM   14  O   UNL     1       2.375  -4.119  60.007  1.00  0.00    -0.648 OA
HETATM   15  O   UNL     1       0.290  -4.877  59.525  1.00  0.00    -0.648 OA
ENDBRANCH  12  13
ENDBRANCH  11  12
ENDBRANCH  10  11
ENDBRANCH   9  10
ENDBRANCH   5   9
BRANCH   8  16
HETATM   16  O   UNL     1       8.431  -0.894  58.195  1.00  0.00    -0.358 OA
HETATM   17  H   UNL     1       8.543  -0.534  59.053  1.00  0.00     0.217 HD
ENDBRANCH   8  16
ENDBRANCH   1   3
TORSDOF 7
ENDMDL
MODEL 2
REMARK VINA RESULT:      -6.4      0.810      1.954
REMARK  7 active torsions:
REMARK  status: ('A' for Active; 'I' for Inactive)
REMARK    1  A    between atoms: O_1  and  C_12 
REMARK    2  A    between atoms: O_3  and  C_15 
REMARK    3  A    between atoms: C_5  and  C_6 
REMARK    4  A    between atoms: C_5  and  C_7 
REMARK    5  A    between atoms: C_6  and  C_8 
REMARK    6  A    between atoms: C_7  and  C_9 
REMARK    7  A    between atoms: C_9  and  C_14 
ROOT
HETATM    1  O   UNL     1       8.522  -1.802  57.853  1.00  0.00    -0.358 OA
HETATM    2  H   UNL     1       8.387  -1.174  57.170  1.00  0.00     0.217 HD
ENDROOT
BRANCH   1   3
HETATM    3  C   UNL     1       7.584  -2.760  58.093  1.00  0.00     0.099 A 
HETATM    4  C   UNL     1       6.629  -3.044  57.117  1.00  0.00     0.046 A 
HETATM    5  C   UNL     1       5.661  -4.022  57.351  1.00  0.00    -0.055 A 
HETATM    6  C   UNL     1       5.648  -4.714  58.563  1.00  0.00     0.010 A 
HETATM    7  C   UNL     1       6.604  -4.430  59.538  1.00  0.00     0.040 A 
HETATM    8  C   UNL     1       7.571  -3.452  59.303  1.00  0.00     0.098 A 
BRANCH   5   9
HETATM    9  C   UNL     1       4.628  -4.328  56.296  1.00  0.00     0.038 C 
BRANCH   9  10
HETATM   10  C   UNL     1       3.744  -5.535  56.625  1.00  0.00     0.005 C 
BRANCH  10  11
HETATM   11  C   UNL     1       2.258  -5.173  56.753  1.00  0.00     0.011 C 
BRANCH  11  12
HETATM   12  C   UNL     1       1.580  -5.893  57.919  1.00  0.00     0.113 C 
BRANCH  12  13
HETATM   13  C   UNL     1       1.438  -5.031  59.154  1.00  0.00     0.172 C 
HETATM   14  O   UNL     1       0.152  -4.997  59.590  1.00  0.00    -0.648 OA
HETATM   15  O   UNL     1       2.350  -4.445  59.720  1.00  0.00    -0.648 OA
ENDBRANCH  12  13
ENDBRANCH  11  12
ENDBRANCH  10  11
ENDBRANCH   9  10
ENDBRANCH   5   9
BRANCH   8  16
HETATM   16  O   UNL     1       8.499  -3.183  60.264  1.00  0.00    -0.358 OA
HETATM   17  H   UNL     1       8.350  -3.455  61.148  1.00  0.00     0.217 HD
ENDBRANCH   8  16
ENDBRANCH   1   3
TORSDOF 7
ENDMDL
MODEL 3
REMARK VINA RESULT:      -6.2      1.063      1.292
REMARK  7 active torsions:
REMARK  status: ('A' for Active; 'I' for Inactive)
REMARK    1  A    between atoms: O_1  and  C_12 
REMARK    2  A    between atoms: O_3  and  C_15 
REMARK    3  A    between atoms: C_5  and  C_6 
REMARK    4  A    between atoms: C_5  and  C_7 
REMARK    5  A    between atoms: C_6  and  C_8 
REMARK    6  A    between atoms: C_7  and  C_9 
REMARK    7  A    between atoms: C_9  and  C_14 
ROOT
HETATM    1  O   UNL     1       8.350  -3.325  59.487  1.00  0.00    -0.358 OA
HETATM    2  H   UNL     1       8.735  -4.176  59.412  1.00  0.00     0.217 HD
ENDROOT
BRANCH   1   3
HETATM    3  C   UNL     1       7.378  -2.936  58.613  1.00  0.00     0.099 A 
HETATM    4  C   UNL     1       6.291  -3.778  58.380  1.00  0.00     0.046 A 
HETATM    5  C   UNL     1       5.291  -3.393  57.486  1.00  0.00    -0.055 A 
HETATM    6  C   UNL     1       5.380  -2.167  56.825  1.00  0.00     0.010 A 
HETATM    7  C   UNL     1       6.468  -1.326  57.060  1.00  0.00     0.040 A 
HETATM    8  C   UNL     1       7.467  -1.712  57.954  1.00  0.00     0.098 A 
BRANCH   5   9
HETATM    9  C   UNL     1       4.115  -4.303  57.233  1.00  0.00     0.038 C 
BRANCH   9  10
HETATM   10  C   UNL     1       4.313  -5.732  57.749  1.00  0.00     0.005 C 
BRANCH  10  11
HETATM   11  C   UNL     1       3.301  -6.123  58.834  1.00  0.00     0.011 C 
BRANCH  11  12
HETATM   12  C   UNL     1       2.372  -4.967  59.207  1.00  0.00     0.113 C 
BRANCH  12  13
HETATM   13  C   UNL     1       0.910  -5.275  58.972  1.00  0.00     0.172 C 
HETATM   14  O   UNL     1       0.737  -6.055  57.873  1.00  0.00    -0.648 OA
HETATM   15  O   UNL     1      -0.018  -4.899  59.675  1.00  0.00    -0.648 OA
ENDBRANCH  12  13
ENDBRANCH  11  12
ENDBRANCH  10  11
ENDBRANCH   9  10
ENDBRANCH   5   9
BRANCH   8  16
HETATM   16  O   UNL     1       8.526  -0.882  58.174  1.00  0.00    -0.358 OA
HETATM   17  H   UNL     1       9.360  -1.239  58.408  1.00  0.00     0.217 HD
ENDBRANCH   8  16
ENDBRANCH   1   3
TORSDOF 7
ENDMDL
MODEL 4
REMARK VINA RESULT:      -6.0      2.753      4.521
REMARK  7 active torsions:
REMARK  status: ('A' for Active; 'I' for Inactive)
REMARK    1  A    between atoms: O_1  and  C_12 
REMARK    2  A    between atoms: O_3  and  C_15 
REMARK    3  A    between atoms: C_5  and  C_6 
REMARK    4  A    between atoms: C_5  and  C_7 
REMARK    5  A    between atoms: C_6  and  C_8 
REMARK    6  A    between atoms: C_7  and  C_9 
REMARK    7  A    between atoms: C_9  and  C_14 
ROOT
HETATM    1  O   UNL     1       8.414  -2.758  59.176  1.00  0.00    -0.358 OA
HETATM    2  H   UNL     1       9.227  -3.221  59.228  1.00  0.00     0.217 HD
ENDROOT
BRANCH   1   3
HETATM    3  C   UNL     1       7.325  -3.353  58.613  1.00  0.00     0.099 A 
HETATM    4  C   UNL     1       7.088  -3.196  57.248  1.00  0.00     0.046 A 
HETATM    5  C   UNL     1       5.976  -3.798  56.659  1.00  0.00    -0.055 A 
HETATM    6  C   UNL     1       5.100  -4.557  57.437  1.00  0.00     0.010 A 
HETATM    7  C   UNL     1       5.339  -4.715  58.802  1.00  0.00     0.040 A 
HETATM    8  C   UNL     1       6.451  -4.113  59.390  1.00  0.00     0.098 A 
BRANCH   5   9
HETATM    9  C   UNL     1       5.718  -3.627  55.183  1.00  0.00     0.038 C 
BRANCH   9  10
HETATM   10  C   UNL     1       6.008  -2.215  54.662  1.00  0.00     0.005 C 
BRANCH  10  11
HETATM   11  C   UNL     1       4.993  -1.174  55.154  1.00  0.00     0.011 C 
BRANCH  11  12
HETATM   12  C   UNL     1       5.653   0.156  55.519  1.00  0.00     0.113 C 
BRANCH  12  13
HETATM   13  C   UNL     1       5.412   0.569  56.954  1.00  0.00     0.172 C 
HETATM   14  O   UNL     1       6.323   0.007  57.791  1.00  0.00    -0.648 OA
HETATM   15  O   UNL     1       4.532   1.328  57.337  1.00  0.00    -0.648 OA
ENDBRANCH  12  13
ENDBRANCH  11  12
ENDBRANCH  10  11
ENDBRANCH   9  10
ENDBRANCH   5   9
BRANCH   8  16
HETATM   16  O   UNL     1       6.673  -4.273  60.725  1.00  0.00    -0.358 OA
HETATM   17  H   UNL     1       7.358  -4.841  61.020  1.00  0.00     0.217 HD
ENDBRANCH   8  16
ENDBRANCH   1   3
TORSDOF 7
ENDMDL
MODEL 5
REMARK VINA RESULT:      -5.9      3.506      5.361
REMARK  7 active torsions:
REMARK  status: ('A' for Active; 'I' for Inactive)
REMARK    1  A    between atoms: O_1  and  C_12 
REMARK    2  A    between atoms: O_3  and  C_15 
REMARK    3  A    between atoms: C_5  and  C_6 
REMARK    4  A    between atoms: C_5  and  C_7 
REMARK    5  A    between atoms: C_6  and  C_8 
REMARK    6  A    between atoms: C_7  and  C_9 
REMARK    7  A    between atoms: C_9  and  C_14 
ROOT
HETATM    1  O   UNL     1       5.762   0.883  53.382  1.00  0.00    -0.358 OA
HETATM    2  H   UNL     1       6.268   1.668  53.457  1.00  0.00     0.217 HD
ENDROOT
BRANCH   1   3
HETATM    3  C   UNL     1       6.212  -0.275  53.943  1.00  0.00     0.099 A 
HETATM    4  C   UNL     1       5.540  -0.811  55.041  1.00  0.00     0.046 A 
HETATM    5  C   UNL     1       5.993  -1.994  55.626  1.00  0.00    -0.055 A 
HETATM    6  C   UNL     1       7.117  -2.641  55.113  1.00  0.00     0.010 A 
HETATM    7  C   UNL     1       7.788  -2.104  54.013  1.00  0.00     0.040 A 
HETATM    8  C   UNL     1       7.336  -0.921  53.429  1.00  0.00     0.098 A 
BRANCH   5   9
HETATM    9  C   UNL     1       5.267  -2.574  56.815  1.00  0.00     0.038 C 
BRANCH   9  10
HETATM   10  C   UNL     1       5.776  -3.955  57.240  1.00  0.00     0.005 C 
BRANCH  10  11
HETATM   11  C   UNL     1       6.217  -4.004  58.709  1.00  0.00     0.011 C 
BRANCH  11  12
HETATM   12  C   UNL     1       7.573  -3.335  58.933  1.00  0.00     0.113 C 
BRANCH  12  13
HETATM   13  C   UNL     1       8.295  -3.839  60.162  1.00  0.00     0.172 C 
HETATM   14  O   UNL     1       9.467  -4.444  59.837  1.00  0.00    -0.648 OA
HETATM   15  O   UNL     1       7.906  -3.714  61.316  1.00  0.00    -0.648 OA
ENDBRANCH  12  13
ENDBRANCH  11  12
ENDBRANCH  10  11
ENDBRANCH   9  10
ENDBRANCH   5   9
BRANCH   8  16
HETATM   16  O   UNL     1       8.000  -0.406  52.357  1.00  0.00    -0.358 OA
HETATM   17  H   UNL     1       8.367   0.455  52.403  1.00  0.00     0.217 HD
ENDBRANCH   8  16
ENDBRANCH   1   3
TORSDOF 7
ENDMDL
MODEL 6
REMARK VINA RESULT:      -5.9      1.970      2.607
REMARK  7 active torsions:
REMARK  status: ('A' for Active; 'I' for Inactive)
REMARK    1  A    between atoms: O_1  and  C_12 
REMARK    2  A    between atoms: O_3  and  C_15 
REMARK    3  A    between atoms: C_5  and  C_6 
REMARK    4  A    between atoms: C_5  and  C_7 
REMARK    5  A    between atoms: C_6  and  C_8 
REMARK    6  A    between atoms: C_7  and  C_9 
REMARK    7  A    between atoms: C_9  and  C_14 
ROOT
HETATM    1  O   UNL     1       8.611  -2.029  57.493  1.00  0.00    -0.358 OA
HETATM    2  H   UNL     1       8.472  -1.105  57.576  1.00  0.00     0.217 HD
ENDROOT
BRANCH   1   3
HETATM    3  C   UNL     1       7.622  -2.900  57.840  1.00  0.00     0.099 A 
HETATM    4  C   UNL     1       6.658  -3.254  56.895  1.00  0.00     0.046 A 
HETATM    5  C   UNL     1       5.639  -4.143  57.238  1.00  0.00    -0.055 A 
HETATM    6  C   UNL     1       5.584  -4.677  58.526  1.00  0.00     0.010 A 
HETATM    7  C   UNL     1       6.549  -4.324  59.470  1.00  0.00     0.040 A 
HETATM    8  C   UNL     1       7.567  -3.434  59.126  1.00  0.00     0.098 A 
BRANCH   5   9
HETATM    9  C   UNL     1       4.597  -4.525  56.217  1.00  0.00     0.038 C 
BRANCH   9  10
HETATM   10  C   UNL     1       3.649  -5.635  56.683  1.00  0.00     0.005 C 
BRANCH  10  11
HETATM   11  C   UNL     1       2.181  -5.190  56.729  1.00  0.00     0.011 C 
BRANCH  11  12
HETATM   12  C   UNL     1       1.323  -6.098  57.610  1.00  0.00     0.113 C 
BRANCH  12  13
HETATM   13  C   UNL     1       0.268  -6.858  56.838  1.00  0.00     0.172 C 
HETATM   14  O   UNL     1       0.259  -6.502  55.527  1.00  0.00    -0.648 OA
HETATM   15  O   UNL     1      -0.480  -7.707  57.304  1.00  0.00    -0.648 OA
ENDBRANCH  12  13
ENDBRANCH  11  12
ENDBRANCH  10  11
ENDBRANCH   9  10
ENDBRANCH   5   9
BRANCH   8  16
HETATM   16  O   UNL     1       8.502  -3.095  60.057  1.00  0.00    -0.358 OA
HETATM   17  H   UNL     1       9.122  -3.733  60.352  1.00  0.00     0.217 HD
ENDBRANCH   8  16
ENDBRANCH   1   3
TORSDOF 7
ENDMDL
MODEL 7
REMARK VINA RESULT:      -5.9      1.676      2.562
REMARK  7 active torsions:
REMARK  status: ('A' for Active; 'I' for Inactive)
REMARK    1  A    between atoms: O_1  and  C_12 
REMARK    2  A    between atoms: O_3  and  C_15 
REMARK    3  A    between atoms: C_5  and  C_6 
REMARK    4  A    between atoms: C_5  and  C_7 
REMARK    5  A    between atoms: C_6  and  C_8 
REMARK    6  A    between atoms: C_7  and  C_9 
REMARK    7  A    between atoms: C_9  and  C_14 
ROOT
HETATM    1  O   UNL     1       6.495  -0.570  56.284  1.00  0.00    -0.358 OA
HETATM    2  H   UNL     1       6.111   0.219  56.614  1.00  0.00     0.217 HD
ENDROOT
BRANCH   1   3
HETATM    3  C   UNL     1       6.514  -1.693  57.056  1.00  0.00     0.099 A 
HETATM    4  C   UNL     1       5.545  -2.677  56.858  1.00  0.00     0.046 A 
HETATM    5  C   UNL     1       5.553  -3.831  57.644  1.00  0.00    -0.055 A 
HETATM    6  C   UNL     1       6.529  -3.999  58.627  1.00  0.00     0.010 A 
HETATM    7  C   UNL     1       7.498  -3.015  58.823  1.00  0.00     0.040 A 
HETATM    8  C   UNL     1       7.490  -1.862  58.038  1.00  0.00     0.098 A 
BRANCH   5   9
HETATM    9  C   UNL     1       4.505  -4.894  57.431  1.00  0.00     0.038 C 
BRANCH   9  10
HETATM   10  C   UNL     1       4.293  -5.808  58.643  1.00  0.00     0.005 C 
BRANCH  10  11
HETATM   11  C   UNL     1       2.814  -5.966  59.022  1.00  0.00     0.011 C 
BRANCH  11  12
HETATM   12  C   UNL     1       1.874  -5.504  57.908  1.00  0.00     0.113 C 
BRANCH  12  13
HETATM   13  C   UNL     1       1.089  -6.634  57.280  1.00  0.00     0.172 C 
HETATM   14  O   UNL     1       1.853  -7.347  56.411  1.00  0.00    -0.648 OA
HETATM   15  O   UNL     1      -0.079  -6.908  57.521  1.00  0.00    -0.648 OA
ENDBRANCH  12  13
ENDBRANCH  11  12
ENDBRANCH  10  11
ENDBRANCH   9  10
ENDBRANCH   5   9
BRANCH   8  16
HETATM   16  O   UNL     1       8.441  -0.907  58.239  1.00  0.00    -0.358 OA
HETATM   17  H   UNL     1       9.092  -0.749  57.584  1.00  0.00     0.217 HD
ENDBRANCH   8  16
ENDBRANCH   1   3
TORSDOF 7
ENDMDL
MODEL 8
REMARK VINA RESULT:      -5.8      2.655      3.055
REMARK  7 active torsions:
REMARK  status: ('A' for Active; 'I' for Inactive)
REMARK    1  A    between atoms: O_1  and  C_12 
REMARK    2  A    between atoms: O_3  and  C_15 
REMARK    3  A    between atoms: C_5  and  C_6 
REMARK    4  A    between atoms: C_5  and  C_7 
REMARK    5  A    between atoms: C_6  and  C_8 
REMARK    6  A    between atoms: C_7  and  C_9 
REMARK    7  A    between atoms: C_9  and  C_14 
ROOT
HETATM    1  O   UNL     1       8.804  -3.389  59.458  1.00  0.00    -0.358 OA
HETATM    2  H   UNL     1       9.125  -2.902  60.192  1.00  0.00     0.217 HD
ENDROOT
BRANCH   1   3
HETATM    3  C   UNL     1       7.610  -3.056  58.890  1.00  0.00     0.099 A 
HETATM    4  C   UNL     1       6.525  -3.921  59.021  1.00  0.00     0.046 A 
HETATM    5  C   UNL     1       5.298  -3.593  58.442  1.00  0.00    -0.055 A 
HETATM    6  C   UNL     1       5.158  -2.400  57.732  1.00  0.00     0.010 A 
HETATM    7  C   UNL     1       6.245  -1.535  57.603  1.00  0.00     0.040 A 
HETATM    8  C   UNL     1       7.471  -1.863  58.181  1.00  0.00     0.098 A 
BRANCH   5   9
HETATM    9  C   UNL     1       4.124  -4.530  58.581  1.00  0.00     0.038 C 
BRANCH   9  10
HETATM   10  C   UNL     1       4.116  -5.672  57.560  1.00  0.00     0.005 C 
BRANCH  10  11
HETATM   11  C   UNL     1       2.959  -5.571  56.557  1.00  0.00     0.011 C 
BRANCH  11  12
HETATM   12  C   UNL     1       3.236  -4.557  55.448  1.00  0.00     0.113 C 
BRANCH  12  13
HETATM   13  C   UNL     1       4.390  -4.949  54.553  1.00  0.00     0.172 C 
HETATM   14  O   UNL     1       5.438  -4.095  54.691  1.00  0.00    -0.648 OA
HETATM   15  O   UNL     1       4.412  -5.917  53.805  1.00  0.00    -0.648 OA
ENDBRANCH  12  13
ENDBRANCH  11  12
ENDBRANCH  10  11
ENDBRANCH   9  10
ENDBRANCH   5   9
BRANCH   8  16
HETATM   16  O   UNL     1       8.525  -1.010  58.048  1.00  0.00    -0.358 OA
HETATM   17  H   UNL     1       8.612  -0.492  57.272  1.00  0.00     0.217 HD
ENDBRANCH   8  16
ENDBRANCH   1   3
TORSDOF 7
ENDMDL
MODEL 9
REMARK VINA RESULT:      -5.8      3.571      5.167
REMARK  7 active torsions:
REMARK  status: ('A' for Active; 'I' for Inactive)
REMARK    1  A    between atoms: O_1  and  C_12 
REMARK    2  A    between atoms: O_3  and  C_15 
REMARK    3  A    between atoms: C_5  and  C_6 
REMARK    4  A    between atoms: C_5  and  C_7 
REMARK    5  A    between atoms: C_6  and  C_8 
REMARK    6  A    between atoms: C_7  and  C_9 
REMARK    7  A    between atoms: C_9  and  C_14 
ROOT
HETATM    1  O   UNL     1       7.123  -0.888  52.397  1.00  0.00    -0.358 OA
HETATM    2  H   UNL     1       7.747  -0.257  52.095  1.00  0.00     0.217 HD
ENDROOT
BRANCH   1   3
HETATM    3  C   UNL     1       6.707  -0.869  53.695  1.00  0.00     0.099 A 
HETATM    4  C   UNL     1       7.130  -1.874  54.564  1.00  0.00     0.046 A 
HETATM    5  C   UNL     1       6.711  -1.868  55.895  1.00  0.00    -0.055 A 
HETATM    6  C   UNL     1       5.867  -0.856  56.355  1.00  0.00     0.010 A 
HETATM    7  C   UNL     1       5.445   0.150  55.485  1.00  0.00     0.040 A 
HETATM    8  C   UNL     1       5.865   0.142  54.155  1.00  0.00     0.098 A 
BRANCH   5   9
HETATM    9  C   UNL     1       7.167  -2.955  56.835  1.00  0.00     0.038 C 
BRANCH   9  10
HETATM   10  C   UNL     1       6.025  -3.806  57.401  1.00  0.00     0.005 C 
BRANCH  10  11
HETATM   11  C   UNL     1       5.804  -3.588  58.904  1.00  0.00     0.011 C 
BRANCH  11  12
HETATM   12  C   UNL     1       6.479  -4.664  59.755  1.00  0.00     0.113 C 
BRANCH  12  13
HETATM   13  C   UNL     1       7.833  -4.248  60.283  1.00  0.00     0.172 C 
HETATM   14  O   UNL     1       8.450  -5.271  60.930  1.00  0.00    -0.648 OA
HETATM   15  O   UNL     1       8.342  -3.144  60.142  1.00  0.00    -0.648 OA
ENDBRANCH  12  13
ENDBRANCH  11  12
ENDBRANCH  10  11
ENDBRANCH   9  10
ENDBRANCH   5   9
BRANCH   8  16
HETATM   16  O   UNL     1       5.445   1.129  53.314  1.00  0.00    -0.358 OA
HETATM   17  H   UNL     1       5.660   1.090  52.402  1.00  0.00     0.217 HD
ENDBRANCH   8  16
ENDBRANCH   1   3
TORSDOF 7
ENDMDL
