MODEL 1
REMARK VINA RESULT:      -6.5      0.000      0.000
REMARK  8 active torsions:
REMARK  status: ('A' for Active; 'I' for Inactive)
REMARK    1  A    between atoms: O_1  and  C_2 
REMARK    2  A    between atoms: C_2  and  C_3 
REMARK    3  A    between atoms: C_2  and  C_8 
REMARK    4  A    between atoms: C_3  and  C_4 
REMARK    5  A    between atoms: C_4  and  C_5 
REMARK    6  A    between atoms: C_8  and  C_9 
REMARK    7  A    between atoms: C_11  and  O_16 
REMARK    8  A    between atoms: C_12  and  O_15 
ROOT
HETATM    1  O   UNL     1      32.241  76.798  22.950  1.00  0.00    -0.395 OA
HETATM    2  H   UNL     1      31.460  76.341  23.299  1.00  0.00     0.210 HD
ENDROOT
BRANCH   1   3
HETATM    3  C   UNL     1      32.181  76.825  21.525  1.00  0.00     0.122 C 
BRANCH   3   4
HETATM    4  C   UNL     1      31.361  78.040  21.062  1.00  0.00     0.042 C 
BRANCH   4   5
HETATM    5  C   UNL     1      30.987  78.990  22.203  1.00  0.00     0.116 C 
BRANCH   5   6
HETATM    6  C   UNL     1      32.015  80.037  22.549  1.00  0.00     0.172 C 
HETATM    7  O   UNL     1      31.955  81.214  22.234  1.00  0.00    -0.648 OA
HETATM    8  O   UNL     1      33.010  79.605  23.347  1.00  0.00    -0.648 OA
ENDBRANCH   5   6
ENDBRANCH   4   5
ENDBRANCH   3   4
BRANCH   3   9
HETATM    9  C   UNL     1      31.555  75.519  21.005  1.00  0.00     0.070 C 
BRANCH   9  10
HETATM   10  C   UNL     1      32.402  74.303  21.309  1.00  0.00    -0.053 A 
HETATM   11  C   UNL     1      31.964  73.345  22.236  1.00  0.00     0.046 A 
HETATM   12  C   UNL     1      32.762  72.245  22.516  1.00  0.00     0.099 A 
HETATM   13  C   UNL     1      33.978  72.065  21.866  1.00  0.00     0.098 A 
HETATM   14  C   UNL     1      34.437  73.010  20.961  1.00  0.00     0.040 A 
HETATM   15  C   UNL     1      33.650  74.131  20.684  1.00  0.00     0.010 A 
BRANCH  12  16
HETATM   16  O   UNL     1      32.353  71.354  23.467  1.00  0.00    -0.358 OA
HETATM   17  H   UNL     1      32.546  70.442  23.368  1.00  0.00     0.217 HD
ENDBRANCH  12  16
BRANCH  13  18
HETATM   18  O   UNL     1      34.724  70.943  22.087  1.00  0.00    -0.358 OA
HETATM   19  H   UNL     1      34.476  70.131  21.690  1.00  0.00     0.217 HD
ENDBRANCH  13  18
ENDBRANCH   9  10
ENDBRANCH   3   9
ENDBRANCH   1   3
TORSDOF 8
ENDMDL
MODEL 2
REMARK VINA RESULT:      -6.5      3.108      5.092
REMARK  8 active torsions:
REMARK  status: ('A' for Active; 'I' for Inactive)
REMARK    1  A    between atoms: O_1  and  C_2 
REMARK    2  A    between atoms: C_2  and  C_3 
REMARK    3  A    between atoms: C_2  and  C_8 
REMARK    4  A    between atoms: C_3  and  C_4 
REMARK    5  A    between atoms: C_4  and  C_5 
REMARK    6  A    between atoms: C_8  and  C_9 
REMARK    7  A    between atoms: C_11  and  O_16 
REMARK    8  A    between atoms: C_12  and  O_15 
ROOT
HETATM    1  O   UNL     1      32.903  76.727  22.945  1.00  0.00    -0.395 OA
HETATM    2  H   UNL     1      33.708  76.313  22.598  1.00  0.00     0.210 HD
ENDROOT
BRANCH   1   3
HETATM    3  C   UNL     1      32.092  77.175  21.860  1.00  0.00     0.122 C 
BRANCH   3   4
HETATM    4  C   UNL     1      30.748  77.694  22.396  1.00  0.00     0.042 C 
BRANCH   4   5
HETATM    5  C   UNL     1      30.477  79.157  22.039  1.00  0.00     0.116 C 
BRANCH   5   6
HETATM    6  C   UNL     1      31.594  80.124  22.337  1.00  0.00     0.172 C 
HETATM    7  O   UNL     1      31.939  80.481  23.452  1.00  0.00    -0.648 OA
HETATM    8  O   UNL     1      32.292  80.526  21.257  1.00  0.00    -0.648 OA
ENDBRANCH   5   6
ENDBRANCH   4   5
ENDBRANCH   3   4
BRANCH   3   9
HETATM    9  C   UNL     1      31.871  76.023  20.864  1.00  0.00     0.070 C 
BRANCH   9  10
HETATM   10  C   UNL     1      31.835  76.492  19.426  1.00  0.00    -0.053 A 
HETATM   11  C   UNL     1      32.454  77.696  19.054  1.00  0.00     0.046 A 
HETATM   12  C   UNL     1      32.395  78.119  17.735  1.00  0.00     0.099 A 
HETATM   13  C   UNL     1      31.755  77.350  16.769  1.00  0.00     0.098 A 
HETATM   14  C   UNL     1      31.121  76.168  17.119  1.00  0.00     0.040 A 
HETATM   15  C   UNL     1      31.158  75.739  18.449  1.00  0.00     0.010 A 
BRANCH  12  16
HETATM   16  O   UNL     1      32.947  79.323  17.399  1.00  0.00    -0.358 OA
HETATM   17  H   UNL     1      33.878  79.430  17.407  1.00  0.00     0.217 HD
ENDBRANCH  12  16
BRANCH  13  18
HETATM   18  O   UNL     1      31.767  77.731  15.458  1.00  0.00    -0.358 OA
HETATM   19  H   UNL     1      31.394  77.173  14.805  1.00  0.00     0.217 HD
ENDBRANCH  13  18
ENDBRANCH   9  10
ENDBRANCH   3   9
ENDBRANCH   1   3
TORSDOF 8
ENDMDL
MODEL 3
REMARK VINA RESULT:      -6.5      4.570      6.309
REMARK  8 active torsions:
REMARK  status: ('A' for Active; 'I' for Inactive)
REMARK    1  A    between atoms: O_1  and  C_2 
REMARK    2  A    between atoms: C_2  and  C_3 
REMARK    3  A    between atoms: C_2  and  C_8 
REMARK    4  A    between atoms: C_3  and  C_4 
REMARK    5  A    between atoms: C_4  and  C_5 
REMARK    6  A    between atoms: C_8  and  C_9 
REMARK    7  A    between atoms: C_11  and  O_16 
REMARK    8  A    between atoms: C_12  and  O_15 
ROOT
HETATM    1  O   UNL     1      32.155  78.964  16.640  1.00  0.00    -0.395 OA
HETATM    2  H   UNL     1      33.099  79.185  16.669  1.00  0.00     0.210 HD
ENDROOT
BRANCH   1   3
HETATM    3  C   UNL     1      31.942  77.705  17.275  1.00  0.00     0.122 C 
BRANCH   3   4
HETATM    4  C   UNL     1      31.762  76.610  16.212  1.00  0.00     0.042 C 
BRANCH   4   5
HETATM    5  C   UNL     1      30.295  76.274  15.928  1.00  0.00     0.116 C 
BRANCH   5   6
HETATM    6  C   UNL     1      29.644  77.060  14.819  1.00  0.00     0.172 C 
HETATM    7  O   UNL     1      28.472  77.396  14.788  1.00  0.00    -0.648 OA
HETATM    8  O   UNL     1      30.488  77.476  13.855  1.00  0.00    -0.648 OA
ENDBRANCH   5   6
ENDBRANCH   4   5
ENDBRANCH   3   4
BRANCH   3   9
HETATM    9  C   UNL     1      30.705  77.784  18.188  1.00  0.00     0.070 C 
BRANCH   9  10
HETATM   10  C   UNL     1      31.010  77.404  19.621  1.00  0.00    -0.053 A 
HETATM   11  C   UNL     1      30.865  78.345  20.651  1.00  0.00     0.046 A 
HETATM   12  C   UNL     1      31.166  77.985  21.957  1.00  0.00     0.099 A 
HETATM   13  C   UNL     1      31.582  76.693  22.260  1.00  0.00     0.098 A 
HETATM   14  C   UNL     1      31.750  75.755  21.253  1.00  0.00     0.040 A 
HETATM   15  C   UNL     1      31.467  76.111  19.932  1.00  0.00     0.010 A 
BRANCH  12  16
HETATM   16  O   UNL     1      31.082  78.928  22.942  1.00  0.00    -0.358 OA
HETATM   17  H   UNL     1      31.567  78.820  23.736  1.00  0.00     0.217 HD
ENDBRANCH  12  16
BRANCH  13  18
HETATM   18  O   UNL     1      31.802  76.321  23.555  1.00  0.00    -0.358 OA
HETATM   19  H   UNL     1      31.526  76.878  24.256  1.00  0.00     0.217 HD
ENDBRANCH  13  18
ENDBRANCH   9  10
ENDBRANCH   3   9
ENDBRANCH   1   3
TORSDOF 8
ENDMDL
MODEL 4
REMARK VINA RESULT:      -6.4      3.758      4.809
REMARK  8 active torsions:
REMARK  status: ('A' for Active; 'I' for Inactive)
REMARK    1  A    between atoms: O_1  and  C_2 
REMARK    2  A    between atoms: C_2  and  C_3 
REMARK    3  A    between atoms: C_2  and  C_8 
REMARK    4  A    between atoms: C_3  and  C_4 
REMARK    5  A    between atoms: C_4  and  C_5 
REMARK    6  A    between atoms: C_8  and  C_9 
REMARK    7  A    between atoms: C_11  and  O_16 
REMARK    8  A    between atoms: C_12  and  O_15 
ROOT
HETATM    1  O   UNL     1      32.833  78.897  18.007  1.00  0.00    -0.395 OA
HETATM    2  H   UNL     1      33.682  78.882  17.540  1.00  0.00     0.210 HD
ENDROOT
BRANCH   1   3
HETATM    3  C   UNL     1      32.452  77.564  18.345  1.00  0.00     0.122 C 
BRANCH   3   4
HETATM    4  C   UNL     1      31.991  76.819  17.082  1.00  0.00     0.042 C 
BRANCH   4   5
HETATM    5  C   UNL     1      30.479  76.887  16.854  1.00  0.00     0.116 C 
BRANCH   5   6
HETATM    6  C   UNL     1      29.981  78.101  16.112  1.00  0.00     0.172 C 
HETATM    7  O   UNL     1      30.261  79.257  16.383  1.00  0.00    -0.648 OA
HETATM    8  O   UNL     1      29.247  77.826  15.017  1.00  0.00    -0.648 OA
ENDBRANCH   5   6
ENDBRANCH   4   5
ENDBRANCH   3   4
BRANCH   3   9
HETATM    9  C   UNL     1      31.331  77.592  19.398  1.00  0.00     0.070 C 
BRANCH   9  10
HETATM   10  C   UNL     1      31.440  76.464  20.401  1.00  0.00    -0.053 A 
HETATM   11  C   UNL     1      31.368  76.727  21.777  1.00  0.00     0.046 A 
HETATM   12  C   UNL     1      31.488  75.683  22.683  1.00  0.00     0.099 A 
HETATM   13  C   UNL     1      31.651  74.374  22.241  1.00  0.00     0.098 A 
HETATM   14  C   UNL     1      31.746  74.097  20.886  1.00  0.00     0.040 A 
HETATM   15  C   UNL     1      31.643  75.143  19.964  1.00  0.00     0.010 A 
BRANCH  12  16
HETATM   16  O   UNL     1      31.479  75.960  24.020  1.00  0.00    -0.358 OA
HETATM   17  H   UNL     1      30.706  75.802  24.526  1.00  0.00     0.217 HD
ENDBRANCH  12  16
BRANCH  13  18
HETATM   18  O   UNL     1      31.692  73.341  23.133  1.00  0.00    -0.358 OA
HETATM   19  H   UNL     1      32.102  73.458  23.967  1.00  0.00     0.217 HD
ENDBRANCH  13  18
ENDBRANCH   9  10
ENDBRANCH   3   9
ENDBRANCH   1   3
TORSDOF 8
ENDMDL
MODEL 5
REMARK VINA RESULT:      -6.4      1.510      2.247
REMARK  8 active torsions:
REMARK  status: ('A' for Active; 'I' for Inactive)
REMARK    1  A    between atoms: O_1  and  C_2 
REMARK    2  A    between atoms: C_2  and  C_3 
REMARK    3  A    between atoms: C_2  and  C_8 
REMARK    4  A    between atoms: C_3  and  C_4 
REMARK    5  A    between atoms: C_4  and  C_5 
REMARK    6  A    between atoms: C_8  and  C_9 
REMARK    7  A    between atoms: C_11  and  O_16 
REMARK    8  A    between atoms: C_12  and  O_15 
ROOT
HETATM    1  O   UNL     1      31.652  78.402  19.242  1.00  0.00    -0.395 OA
HETATM    2  H   UNL     1      31.668  79.190  19.807  1.00  0.00     0.210 HD
ENDROOT
BRANCH   1   3
HETATM    3  C   UNL     1      31.349  77.255  20.035  1.00  0.00     0.122 C 
BRANCH   3   4
HETATM    4  C   UNL     1      31.361  77.635  21.525  1.00  0.00     0.042 C 
BRANCH   4   5
HETATM    5  C   UNL     1      31.001  79.100  21.780  1.00  0.00     0.116 C 
BRANCH   5   6
HETATM    6  C   UNL     1      32.021  79.904  22.544  1.00  0.00     0.172 C 
HETATM    7  O   UNL     1      32.955  79.439  23.176  1.00  0.00    -0.648 OA
HETATM    8  O   UNL     1      31.899  81.239  22.409  1.00  0.00    -0.648 OA
ENDBRANCH   5   6
ENDBRANCH   4   5
ENDBRANCH   3   4
BRANCH   3   9
HETATM    9  C   UNL     1      32.370  76.139  19.751  1.00  0.00     0.070 C 
BRANCH   9  10
HETATM   10  C   UNL     1      32.240  74.970  20.702  1.00  0.00    -0.053 A 
HETATM   11  C   UNL     1      33.265  74.676  21.613  1.00  0.00     0.046 A 
HETATM   12  C   UNL     1      33.136  73.589  22.465  1.00  0.00     0.099 A 
HETATM   13  C   UNL     1      31.988  72.804  22.447  1.00  0.00     0.098 A 
HETATM   14  C   UNL     1      30.972  73.066  21.540  1.00  0.00     0.040 A 
HETATM   15  C   UNL     1      31.099  74.148  20.665  1.00  0.00     0.010 A 
BRANCH  12  16
HETATM   16  O   UNL     1      34.168  73.276  23.303  1.00  0.00    -0.358 OA
HETATM   17  H   UNL     1      34.963  73.773  23.273  1.00  0.00     0.217 HD
ENDBRANCH  12  16
BRANCH  13  18
HETATM   18  O   UNL     1      31.832  71.783  23.339  1.00  0.00    -0.358 OA
HETATM   19  H   UNL     1      31.050  71.725  23.853  1.00  0.00     0.217 HD
ENDBRANCH  13  18
ENDBRANCH   9  10
ENDBRANCH   3   9
ENDBRANCH   1   3
TORSDOF 8
ENDMDL
MODEL 6
REMARK VINA RESULT:      -6.4      3.781      5.647
REMARK  8 active torsions:
REMARK  status: ('A' for Active; 'I' for Inactive)
REMARK    1  A    between atoms: O_1  and  C_2 
REMARK    2  A    between atoms: C_2  and  C_3 
REMARK    3  A    between atoms: C_2  and  C_8 
REMARK    4  A    between atoms: C_3  and  C_4 
REMARK    5  A    between atoms: C_4  and  C_5 
REMARK    6  A    between atoms: C_8  and  C_9 
REMARK    7  A    between atoms: C_11  and  O_16 
REMARK    8  A    between atoms: C_12  and  O_15 
ROOT
HETATM    1  O   UNL     1      30.407  74.361  17.061  1.00  0.00    -0.395 OA
HETATM    2  H   UNL     1      30.643  74.154  16.144  1.00  0.00     0.210 HD
ENDROOT
BRANCH   1   3
HETATM    3  C   UNL     1      31.125  75.519  17.487  1.00  0.00     0.122 C 
BRANCH   3   4
HETATM    4  C   UNL     1      32.064  75.989  16.365  1.00  0.00     0.042 C 
BRANCH   4   5
HETATM    5  C   UNL     1      31.488  77.136  15.532  1.00  0.00     0.116 C 
BRANCH   5   6
HETATM    6  C   UNL     1      31.397  78.471  16.226  1.00  0.00     0.172 C 
HETATM    7  O   UNL     1      30.368  79.101  16.410  1.00  0.00    -0.648 OA
HETATM    8  O   UNL     1      32.558  78.915  16.744  1.00  0.00    -0.648 OA
ENDBRANCH   5   6
ENDBRANCH   4   5
ENDBRANCH   3   4
BRANCH   3   9
HETATM    9  C   UNL     1      31.921  75.198  18.764  1.00  0.00     0.070 C 
BRANCH   9  10
HETATM   10  C   UNL     1      31.621  76.155  19.897  1.00  0.00    -0.053 A 
HETATM   11  C   UNL     1      31.822  75.764  21.230  1.00  0.00     0.046 A 
HETATM   12  C   UNL     1      31.524  76.648  22.257  1.00  0.00     0.099 A 
HETATM   13  C   UNL     1      31.057  77.928  21.980  1.00  0.00     0.098 A 
HETATM   14  C   UNL     1      30.833  78.326  20.670  1.00  0.00     0.040 A 
HETATM   15  C   UNL     1      31.113  77.438  19.628  1.00  0.00     0.010 A 
BRANCH  12  16
HETATM   16  O   UNL     1      31.664  76.233  23.551  1.00  0.00    -0.358 OA
HETATM   17  H   UNL     1      31.074  75.597  23.905  1.00  0.00     0.217 HD
ENDBRANCH  12  16
BRANCH  13  18
HETATM   18  O   UNL     1      30.839  78.821  22.989  1.00  0.00    -0.358 OA
HETATM   19  H   UNL     1      31.411  78.838  23.731  1.00  0.00     0.217 HD
ENDBRANCH  13  18
ENDBRANCH   9  10
ENDBRANCH   3   9
ENDBRANCH   1   3
TORSDOF 8
ENDMDL
MODEL 7
REMARK VINA RESULT:      -6.3      4.476      5.961
REMARK  8 active torsions:
REMARK  status: ('A' for Active; 'I' for Inactive)
REMARK    1  A    between atoms: O_1  and  C_2 
REMARK    2  A    between atoms: C_2  and  C_3 
REMARK    3  A    between atoms: C_2  and  C_8 
REMARK    4  A    between atoms: C_3  and  C_4 
REMARK    5  A    between atoms: C_4  and  C_5 
REMARK    6  A    between atoms: C_8  and  C_9 
REMARK    7  A    between atoms: C_11  and  O_16 
REMARK    8  A    between atoms: C_12  and  O_15 
ROOT
HETATM    1  O   UNL     1      32.179  78.925  16.707  1.00  0.00    -0.395 OA
HETATM    2  H   UNL     1      32.323  78.724  15.769  1.00  0.00     0.210 HD
ENDROOT
BRANCH   1   3
HETATM    3  C   UNL     1      31.988  77.709  17.430  1.00  0.00     0.122 C 
BRANCH   3   4
HETATM    4  C   UNL     1      31.816  76.541  16.446  1.00  0.00     0.042 C 
BRANCH   4   5
HETATM    5  C   UNL     1      30.357  76.280  16.064  1.00  0.00     0.116 C 
BRANCH   5   6
HETATM    6  C   UNL     1      29.806  77.135  14.952  1.00  0.00     0.172 C 
HETATM    7  O   UNL     1      28.628  77.408  14.791  1.00  0.00    -0.648 OA
HETATM    8  O   UNL     1      30.739  77.689  14.155  1.00  0.00    -0.648 OA
ENDBRANCH   5   6
ENDBRANCH   4   5
ENDBRANCH   3   4
BRANCH   3   9
HETATM    9  C   UNL     1      30.758  77.834  18.346  1.00  0.00     0.070 C 
BRANCH   9  10
HETATM   10  C   UNL     1      31.037  77.389  19.765  1.00  0.00    -0.053 A 
HETATM   11  C   UNL     1      31.466  76.079  20.028  1.00  0.00     0.046 A 
HETATM   12  C   UNL     1      31.700  75.682  21.336  1.00  0.00     0.099 A 
HETATM   13  C   UNL     1      31.542  76.577  22.389  1.00  0.00     0.098 A 
HETATM   14  C   UNL     1      31.100  77.870  22.152  1.00  0.00     0.040 A 
HETATM   15  C   UNL     1      30.844  78.276  20.839  1.00  0.00     0.010 A 
BRANCH  12  16
HETATM   16  O   UNL     1      32.056  74.387  21.584  1.00  0.00    -0.358 OA
HETATM   17  H   UNL     1      31.579  73.686  21.185  1.00  0.00     0.217 HD
ENDBRANCH  12  16
BRANCH  13  18
HETATM   18  O   UNL     1      31.847  76.206  23.667  1.00  0.00    -0.358 OA
HETATM   19  H   UNL     1      31.372  76.571  24.387  1.00  0.00     0.217 HD
ENDBRANCH  13  18
ENDBRANCH   9  10
ENDBRANCH   3   9
ENDBRANCH   1   3
TORSDOF 8
ENDMDL
MODEL 8
REMARK VINA RESULT:      -6.3      2.033      6.510
REMARK  8 active torsions:
REMARK  status: ('A' for Active; 'I' for Inactive)
REMARK    1  A    between atoms: O_1  and  C_2 
REMARK    2  A    between atoms: C_2  and  C_3 
REMARK    3  A    between atoms: C_2  and  C_8 
REMARK    4  A    between atoms: C_3  and  C_4 
REMARK    5  A    between atoms: C_4  and  C_5 
REMARK    6  A    between atoms: C_8  and  C_9 
REMARK    7  A    between atoms: C_11  and  O_16 
REMARK    8  A    between atoms: C_12  and  O_15 
ROOT
HETATM    1  O   UNL     1      30.383  74.440  24.100  1.00  0.00    -0.395 OA
HETATM    2  H   UNL     1      31.158  74.709  24.616  1.00  0.00     0.210 HD
ENDROOT
BRANCH   1   3
HETATM    3  C   UNL     1      30.797  74.032  22.796  1.00  0.00     0.122 C 
BRANCH   3   4
HETATM    4  C   UNL     1      31.191  72.546  22.818  1.00  0.00     0.042 C 
BRANCH   4   5
HETATM    5  C   UNL     1      32.408  72.228  21.946  1.00  0.00     0.116 C 
BRANCH   5   6
HETATM    6  C   UNL     1      33.380  71.227  22.516  1.00  0.00     0.172 C 
HETATM    7  O   UNL     1      34.569  71.168  22.248  1.00  0.00    -0.648 OA
HETATM    8  O   UNL     1      32.862  70.415  23.458  1.00  0.00    -0.648 OA
ENDBRANCH   5   6
ENDBRANCH   4   5
ENDBRANCH   3   4
BRANCH   3   9
HETATM    9  C   UNL     1      31.979  74.900  22.330  1.00  0.00     0.070 C 
BRANCH   9  10
HETATM   10  C   UNL     1      31.607  75.841  21.205  1.00  0.00    -0.053 A 
HETATM   11  C   UNL     1      31.253  77.171  21.479  1.00  0.00     0.046 A 
HETATM   12  C   UNL     1      30.897  78.016  20.437  1.00  0.00     0.099 A 
HETATM   13  C   UNL     1      30.914  77.566  19.121  1.00  0.00     0.098 A 
HETATM   14  C   UNL     1      31.240  76.250  18.832  1.00  0.00     0.040 A 
HETATM   15  C   UNL     1      31.585  75.385  19.875  1.00  0.00     0.010 A 
BRANCH  12  16
HETATM   16  O   UNL     1      30.495  79.289  20.723  1.00  0.00    -0.358 OA
HETATM   17  H   UNL     1      31.001  79.820  21.305  1.00  0.00     0.217 HD
ENDBRANCH  12  16
BRANCH  13  18
HETATM   18  O   UNL     1      30.637  78.421  18.093  1.00  0.00    -0.358 OA
HETATM   19  H   UNL     1      30.905  78.206  17.221  1.00  0.00     0.217 HD
ENDBRANCH  13  18
ENDBRANCH   9  10
ENDBRANCH   3   9
ENDBRANCH   1   3
TORSDOF 8
ENDMDL
MODEL 9
REMARK VINA RESULT:      -6.2      3.932      5.405
REMARK  8 active torsions:
REMARK  status: ('A' for Active; 'I' for Inactive)
REMARK    1  A    between atoms: O_1  and  C_2 
REMARK    2  A    between atoms: C_2  and  C_3 
REMARK    3  A    between atoms: C_2  and  C_8 
REMARK    4  A    between atoms: C_3  and  C_4 
REMARK    5  A    between atoms: C_4  and  C_5 
REMARK    6  A    between atoms: C_8  and  C_9 
REMARK    7  A    between atoms: C_11  and  O_16 
REMARK    8  A    between atoms: C_12  and  O_15 
ROOT
HETATM    1  O   UNL     1      32.280  74.693  17.088  1.00  0.00    -0.395 OA
HETATM    2  H   UNL     1      33.123  74.684  17.568  1.00  0.00     0.210 HD
ENDROOT
BRANCH   1   3
HETATM    3  C   UNL     1      31.400  75.641  17.690  1.00  0.00     0.122 C 
BRANCH   3   4
HETATM    4  C   UNL     1      30.583  76.356  16.602  1.00  0.00     0.042 C 
BRANCH   4   5
HETATM    5  C   UNL     1      31.450  77.057  15.554  1.00  0.00     0.116 C 
BRANCH   5   6
HETATM    6  C   UNL     1      31.668  78.534  15.763  1.00  0.00     0.172 C 
HETATM    7  O   UNL     1      32.639  79.164  15.378  1.00  0.00    -0.648 OA
HETATM    8  O   UNL     1      30.638  79.177  16.346  1.00  0.00    -0.648 OA
ENDBRANCH   5   6
ENDBRANCH   4   5
ENDBRANCH   3   4
BRANCH   3   9
HETATM    9  C   UNL     1      32.211  76.656  18.515  1.00  0.00     0.070 C 
BRANCH   9  10
HETATM   10  C   UNL     1      32.034  76.473  20.006  1.00  0.00    -0.053 A 
HETATM   11  C   UNL     1      31.297  77.403  20.754  1.00  0.00     0.046 A 
HETATM   12  C   UNL     1      31.160  77.230  22.124  1.00  0.00     0.099 A 
HETATM   13  C   UNL     1      31.720  76.127  22.760  1.00  0.00     0.098 A 
HETATM   14  C   UNL     1      32.468  75.206  22.041  1.00  0.00     0.040 A 
HETATM   15  C   UNL     1      32.628  75.380  20.664  1.00  0.00     0.010 A 
BRANCH  12  16
HETATM   16  O   UNL     1      30.494  78.176  22.850  1.00  0.00    -0.358 OA
HETATM   17  H   UNL     1      29.568  78.275  22.752  1.00  0.00     0.217 HD
ENDBRANCH  12  16
BRANCH  13  18
HETATM   18  O   UNL     1      31.518  75.918  24.094  1.00  0.00    -0.358 OA
HETATM   19  H   UNL     1      30.703  76.161  24.487  1.00  0.00     0.217 HD
ENDBRANCH  13  18
ENDBRANCH   9  10
ENDBRANCH   3   9
ENDBRANCH   1   3
TORSDOF 8
ENDMDL
