MODEL 1
REMARK VINA RESULT:      -7.3      0.000      0.000
REMARK  4 active torsions:
REMARK  status: ('A' for Active; 'I' for Inactive)
REMARK    1  A    between atoms: O_1  and  C_5 
REMARK    2  A    between atoms: O_1  and  C_14 
REMARK    3  A    between atoms: O_2  and  C_18 
REMARK    4  A    between atoms: C_10  and  C_13 
ROOT
HETATM    1  O   UNL     1       4.570  -4.382  59.291  1.00  0.00    -0.343 OA
ENDROOT
BRANCH   1   2
HETATM    2  C   UNL     1       4.412  -5.635  58.637  1.00  0.00     0.129 C 
HETATM    3  C   UNL     1       4.259  -5.410  57.141  1.00  0.00     0.032 C 
HETATM    4  C   UNL     1       2.799  -4.997  56.963  1.00  0.00     0.002 C 
HETATM    5  C   UNL     1       2.052  -5.523  58.188  1.00  0.00     0.002 C 
HETATM    6  C   UNL     1       3.087  -6.272  59.026  1.00  0.00     0.032 C 
ENDBRANCH   1   2
BRANCH   1   7
HETATM    7  C   UNL     1       5.652  -3.626  58.924  1.00  0.00     0.103 A 
HETATM    8  C   UNL     1       5.468  -2.556  58.053  1.00  0.00     0.047 A 
HETATM    9  C   UNL     1       6.561  -1.780  57.671  1.00  0.00    -0.049 A 
HETATM   10  C   UNL     1       7.833  -2.076  58.161  1.00  0.00     0.010 A 
HETATM   11  C   UNL     1       8.010  -3.149  59.034  1.00  0.00     0.040 A 
HETATM   12  C   UNL     1       6.917  -3.926  59.416  1.00  0.00     0.101 A 
BRANCH   9  13
HETATM   13  C   UNL     1       6.368  -0.615  56.724  1.00  0.00     0.045 C 
HETATM   14  C   UNL     1       5.021   0.104  56.817  1.00  0.00     0.132 C 
HETATM   15  N   UNL     1       4.889   0.752  55.543  1.00  0.00    -0.360 N 
HETATM   16  C   UNL     1       5.691   0.176  54.567  1.00  0.00     0.218 C 
HETATM   17  H   UNL     1       4.295   1.519  55.379  1.00  0.00     0.162 HD
HETATM   18  O   UNL     1       5.758   0.481  53.386  1.00  0.00    -0.274 OA
HETATM   19  C   UNL     1       6.447  -0.953  55.222  1.00  0.00     0.113 C 
ENDBRANCH   9  13
BRANCH  12  20
HETATM   20  O   UNL     1       7.104  -4.973  60.268  1.00  0.00    -0.353 OA
HETATM   21  C   UNL     1       8.381  -5.078  60.894  1.00  0.00     0.210 C 
ENDBRANCH  12  20
ENDBRANCH   1   7
TORSDOF 4
ENDMDL
MODEL 2
REMARK VINA RESULT:      -7.1      1.643      2.121
REMARK  4 active torsions:
REMARK  status: ('A' for Active; 'I' for Inactive)
REMARK    1  A    between atoms: O_1  and  C_5 
REMARK    2  A    between atoms: O_1  and  C_14 
REMARK    3  A    between atoms: O_2  and  C_18 
REMARK    4  A    between atoms: C_10  and  C_13 
ROOT
HETATM    1  O   UNL     1       5.191  -4.996  57.181  1.00  0.00    -0.343 OA
ENDROOT
BRANCH   1   2
HETATM    2  C   UNL     1       3.778  -4.956  57.026  1.00  0.00     0.129 C 
HETATM    3  C   UNL     1       3.120  -4.885  58.396  1.00  0.00     0.032 C 
HETATM    4  C   UNL     1       3.145  -6.324  58.907  1.00  0.00     0.002 C 
HETATM    5  C   UNL     1       3.270  -7.216  57.672  1.00  0.00     0.002 C 
HETATM    6  C   UNL     1       3.268  -6.276  56.469  1.00  0.00     0.032 C 
ENDBRANCH   1   2
BRANCH   1   7
HETATM    7  C   UNL     1       5.853  -3.799  57.120  1.00  0.00     0.103 A 
HETATM    8  C   UNL     1       5.937  -3.130  55.903  1.00  0.00     0.047 A 
HETATM    9  C   UNL     1       6.609  -1.911  55.828  1.00  0.00    -0.049 A 
HETATM   10  C   UNL     1       7.195  -1.366  56.970  1.00  0.00     0.010 A 
HETATM   11  C   UNL     1       7.107  -2.041  58.188  1.00  0.00     0.040 A 
HETATM   12  C   UNL     1       6.435  -3.261  58.263  1.00  0.00     0.101 A 
BRANCH   9  13
HETATM   13  C   UNL     1       6.703  -1.179  54.507  1.00  0.00     0.045 C 
HETATM   14  C   UNL     1       5.926   0.135  54.416  1.00  0.00     0.132 C 
HETATM   15  N   UNL     1       5.740   0.328  53.006  1.00  0.00    -0.360 N 
HETATM   16  C   UNL     1       5.869  -0.853  52.286  1.00  0.00     0.218 C 
HETATM   17  H   UNL     1       5.543   1.200  52.595  1.00  0.00     0.162 HD
HETATM   18  O   UNL     1       5.721  -1.008  51.084  1.00  0.00    -0.274 OA
HETATM   19  C   UNL     1       6.179  -1.946  53.278  1.00  0.00     0.113 C 
ENDBRANCH   9  13
BRANCH  12  20
HETATM   20  O   UNL     1       6.358  -3.911  59.458  1.00  0.00    -0.353 OA
HETATM   21  C   UNL     1       7.584  -4.152  60.145  1.00  0.00     0.210 C 
ENDBRANCH  12  20
ENDBRANCH   1   7
TORSDOF 4
ENDMDL
MODEL 3
REMARK VINA RESULT:      -7.0      3.058      6.102
REMARK  4 active torsions:
REMARK  status: ('A' for Active; 'I' for Inactive)
REMARK    1  A    between atoms: O_1  and  C_5 
REMARK    2  A    between atoms: O_1  and  C_14 
REMARK    3  A    between atoms: O_2  and  C_18 
REMARK    4  A    between atoms: C_10  and  C_13 
ROOT
HETATM    1  O   UNL     1       5.972  -3.148  55.001  1.00  0.00    -0.343 OA
ENDROOT
BRANCH   1   2
HETATM    2  C   UNL     1       4.934  -2.338  54.464  1.00  0.00     0.129 C 
HETATM    3  C   UNL     1       5.199  -2.086  52.988  1.00  0.00     0.032 C 
HETATM    4  C   UNL     1       6.243  -0.971  52.972  1.00  0.00     0.002 C 
HETATM    5  C   UNL     1       6.127  -0.255  54.318  1.00  0.00     0.002 C 
HETATM    6  C   UNL     1       4.986  -0.942  55.066  1.00  0.00     0.032 C 
ENDBRANCH   1   2
BRANCH   1   7
HETATM    7  C   UNL     1       5.729  -3.742  56.211  1.00  0.00     0.103 A 
HETATM    8  C   UNL     1       4.695  -4.668  56.317  1.00  0.00     0.047 A 
HETATM    9  C   UNL     1       4.437  -5.279  57.543  1.00  0.00    -0.049 A 
HETATM   10  C   UNL     1       5.212  -4.961  58.658  1.00  0.00     0.010 A 
HETATM   11  C   UNL     1       6.247  -4.033  58.545  1.00  0.00     0.040 A 
HETATM   12  C   UNL     1       6.506  -3.421  57.319  1.00  0.00     0.101 A 
BRANCH   9  13
HETATM   13  C   UNL     1       3.315  -6.287  57.664  1.00  0.00     0.045 C 
HETATM   14  C   UNL     1       3.163  -7.260  56.494  1.00  0.00     0.132 C 
HETATM   15  N   UNL     1       1.800  -7.702  56.590  1.00  0.00    -0.360 N 
HETATM   16  C   UNL     1       1.007  -6.829  57.322  1.00  0.00     0.218 C 
HETATM   17  H   UNL     1       1.466  -8.533  56.182  1.00  0.00     0.162 HD
HETATM   18  O   UNL     1      -0.193  -6.916  57.534  1.00  0.00    -0.274 OA
HETATM   19  C   UNL     1       1.895  -5.698  57.777  1.00  0.00     0.113 C 
ENDBRANCH   9  13
BRANCH  12  20
HETATM   20  O   UNL     1       7.518  -2.515  57.222  1.00  0.00    -0.353 OA
HETATM   21  C   UNL     1       7.367  -1.295  57.945  1.00  0.00     0.210 C 
ENDBRANCH  12  20
ENDBRANCH   1   7
TORSDOF 4
ENDMDL
MODEL 4
REMARK VINA RESULT:      -6.9      3.091      6.081
REMARK  4 active torsions:
REMARK  status: ('A' for Active; 'I' for Inactive)
REMARK    1  A    between atoms: O_1  and  C_5 
REMARK    2  A    between atoms: O_1  and  C_14 
REMARK    3  A    between atoms: O_2  and  C_18 
REMARK    4  A    between atoms: C_10  and  C_13 
ROOT
HETATM    1  O   UNL     1       4.718  -3.800  54.036  1.00  0.00    -0.343 OA
ENDROOT
BRANCH   1   2
HETATM    2  C   UNL     1       4.360  -2.435  53.862  1.00  0.00     0.129 C 
HETATM    3  C   UNL     1       2.901  -2.343  53.443  1.00  0.00     0.032 C 
HETATM    4  C   UNL     1       2.912  -2.656  51.948  1.00  0.00     0.002 C 
HETATM    5  C   UNL     1       4.330  -2.363  51.459  1.00  0.00     0.002 C 
HETATM    6  C   UNL     1       5.098  -1.842  52.672  1.00  0.00     0.032 C 
ENDBRANCH   1   2
BRANCH   1   7
HETATM    7  C   UNL     1       4.663  -4.296  55.312  1.00  0.00     0.103 A 
HETATM    8  C   UNL     1       5.505  -3.762  56.283  1.00  0.00     0.047 A 
HETATM    9  C   UNL     1       5.460  -4.258  57.585  1.00  0.00    -0.049 A 
HETATM   10  C   UNL     1       4.575  -5.285  57.911  1.00  0.00     0.010 A 
HETATM   11  C   UNL     1       3.733  -5.816  56.933  1.00  0.00     0.040 A 
HETATM   12  C   UNL     1       3.779  -5.320  55.630  1.00  0.00     0.101 A 
BRANCH   9  13
HETATM   13  C   UNL     1       6.372  -3.681  58.646  1.00  0.00     0.045 C 
HETATM   14  C   UNL     1       7.760  -3.249  58.170  1.00  0.00     0.132 C 
HETATM   15  N   UNL     1       8.553  -3.260  59.367  1.00  0.00    -0.360 N 
HETATM   16  C   UNL     1       7.999  -4.051  60.365  1.00  0.00     0.218 C 
HETATM   17  H   UNL     1       9.396  -2.763  59.468  1.00  0.00     0.162 HD
HETATM   18  O   UNL     1       8.466  -4.288  61.468  1.00  0.00    -0.274 OA
HETATM   19  C   UNL     1       6.715  -4.623  59.818  1.00  0.00     0.113 C 
ENDBRANCH   9  13
BRANCH  12  20
HETATM   20  O   UNL     1       2.953  -5.848  54.683  1.00  0.00    -0.353 OA
HETATM   21  C   UNL     1       1.590  -6.048  55.052  1.00  0.00     0.210 C 
ENDBRANCH  12  20
ENDBRANCH   1   7
TORSDOF 4
ENDMDL
MODEL 5
REMARK VINA RESULT:      -6.7      3.281      6.140
REMARK  4 active torsions:
REMARK  status: ('A' for Active; 'I' for Inactive)
REMARK    1  A    between atoms: O_1  and  C_5 
REMARK    2  A    between atoms: O_1  and  C_14 
REMARK    3  A    between atoms: O_2  and  C_18 
REMARK    4  A    between atoms: C_10  and  C_13 
ROOT
HETATM    1  O   UNL     1       4.710  -2.542  57.686  1.00  0.00    -0.343 OA
ENDROOT
BRANCH   1   2
HETATM    2  C   UNL     1       5.827  -2.250  56.856  1.00  0.00     0.129 C 
HETATM    3  C   UNL     1       6.813  -1.380  57.621  1.00  0.00     0.032 C 
HETATM    4  C   UNL     1       6.227   0.028  57.535  1.00  0.00     0.002 C 
HETATM    5  C   UNL     1       5.302   0.034  56.318  1.00  0.00     0.002 C 
HETATM    6  C   UNL     1       5.409  -1.357  55.698  1.00  0.00     0.032 C 
ENDBRANCH   1   2
BRANCH   1   7
HETATM    7  C   UNL     1       4.418  -3.865  57.886  1.00  0.00     0.103 A 
HETATM    8  C   UNL     1       3.626  -4.533  56.957  1.00  0.00     0.047 A 
HETATM    9  C   UNL     1       3.320  -5.879  57.150  1.00  0.00    -0.049 A 
HETATM   10  C   UNL     1       3.807  -6.552  58.270  1.00  0.00     0.010 A 
HETATM   11  C   UNL     1       4.601  -5.877  59.197  1.00  0.00     0.040 A 
HETATM   12  C   UNL     1       4.906  -4.530  59.005  1.00  0.00     0.101 A 
BRANCH   9  13
HETATM   13  C   UNL     1       2.460  -6.611  56.143  1.00  0.00     0.045 C 
HETATM   14  C   UNL     1       1.215  -7.301  56.705  1.00  0.00     0.132 C 
HETATM   15  N   UNL     1       0.906  -8.304  55.725  1.00  0.00    -0.360 N 
HETATM   16  C   UNL     1       1.997  -8.623  54.928  1.00  0.00     0.218 C 
HETATM   17  H   UNL     1       0.019  -8.719  55.630  1.00  0.00     0.162 HD
HETATM   18  O   UNL     1       2.050  -9.466  54.046  1.00  0.00    -0.274 OA
HETATM   19  C   UNL     1       3.149  -7.763  55.386  1.00  0.00     0.113 C 
ENDBRANCH   9  13
BRANCH  12  20
HETATM   20  O   UNL     1       5.681  -3.881  59.919  1.00  0.00    -0.353 OA
HETATM   21  C   UNL     1       7.052  -4.267  59.996  1.00  0.00     0.210 C 
ENDBRANCH  12  20
ENDBRANCH   1   7
TORSDOF 4
ENDMDL
MODEL 6
REMARK VINA RESULT:      -6.6      3.195      5.067
REMARK  4 active torsions:
REMARK  status: ('A' for Active; 'I' for Inactive)
REMARK    1  A    between atoms: O_1  and  C_5 
REMARK    2  A    between atoms: O_1  and  C_14 
REMARK    3  A    between atoms: O_2  and  C_18 
REMARK    4  A    between atoms: C_10  and  C_13 
ROOT
HETATM    1  O   UNL     1       4.595  -2.874  56.105  1.00  0.00    -0.343 OA
ENDROOT
BRANCH   1   2
HETATM    2  C   UNL     1       5.472  -3.965  56.354  1.00  0.00     0.129 C 
HETATM    3  C   UNL     1       4.720  -5.060  57.094  1.00  0.00     0.032 C 
HETATM    4  C   UNL     1       4.694  -4.591  58.548  1.00  0.00     0.002 C 
HETATM    5  C   UNL     1       5.851  -3.605  58.701  1.00  0.00     0.002 C 
HETATM    6  C   UNL     1       6.552  -3.560  57.345  1.00  0.00     0.032 C 
ENDBRANCH   1   2
BRANCH   1   7
HETATM    7  C   UNL     1       5.038  -1.910  55.237  1.00  0.00     0.103 A 
HETATM    8  C   UNL     1       5.148  -2.215  53.884  1.00  0.00     0.047 A 
HETATM    9  C   UNL     1       5.599  -1.244  52.992  1.00  0.00    -0.049 A 
HETATM   10  C   UNL     1       5.938   0.027  53.455  1.00  0.00     0.010 A 
HETATM   11  C   UNL     1       5.825   0.326  54.813  1.00  0.00     0.040 A 
HETATM   12  C   UNL     1       5.374  -0.645  55.706  1.00  0.00     0.101 A 
BRANCH   9  13
HETATM   13  C   UNL     1       5.721  -1.569  51.518  1.00  0.00     0.045 C 
HETATM   14  C   UNL     1       6.766  -0.765  50.742  1.00  0.00     0.132 C 
HETATM   15  N   UNL     1       6.329  -0.859  49.379  1.00  0.00    -0.360 N 
HETATM   16  C   UNL     1       4.983  -1.186  49.272  1.00  0.00     0.218 C 
HETATM   17  H   UNL     1       6.917  -0.709  48.604  1.00  0.00     0.162 HD
HETATM   18  O   UNL     1       4.324  -1.291  48.250  1.00  0.00    -0.274 OA
HETATM   19  C   UNL     1       4.452  -1.340  50.675  1.00  0.00     0.113 C 
ENDBRANCH   9  13
BRANCH  12  20
HETATM   20  O   UNL     1       5.269  -0.341  57.030  1.00  0.00    -0.353 OA
HETATM   21  C   UNL     1       4.910   0.999  57.360  1.00  0.00     0.210 C 
ENDBRANCH  12  20
ENDBRANCH   1   7
TORSDOF 4
ENDMDL
MODEL 7
REMARK VINA RESULT:      -6.6      3.239      5.810
REMARK  4 active torsions:
REMARK  status: ('A' for Active; 'I' for Inactive)
REMARK    1  A    between atoms: O_1  and  C_5 
REMARK    2  A    between atoms: O_1  and  C_14 
REMARK    3  A    between atoms: O_2  and  C_18 
REMARK    4  A    between atoms: C_10  and  C_13 
ROOT
HETATM    1  O   UNL     1       4.129  -5.666  54.736  1.00  0.00    -0.343 OA
ENDROOT
BRANCH   1   2
HETATM    2  C   UNL     1       4.260  -4.637  53.764  1.00  0.00     0.129 C 
HETATM    3  C   UNL     1       3.431  -4.989  52.538  1.00  0.00     0.032 C 
HETATM    4  C   UNL     1       4.291  -5.991  51.770  1.00  0.00     0.002 C 
HETATM    5  C   UNL     1       5.730  -5.761  52.229  1.00  0.00     0.002 C 
HETATM    6  C   UNL     1       5.679  -4.599  53.219  1.00  0.00     0.032 C 
ENDBRANCH   1   2
BRANCH   1   7
HETATM    7  C   UNL     1       3.937  -5.270  56.033  1.00  0.00     0.103 A 
HETATM    8  C   UNL     1       4.991  -4.684  56.727  1.00  0.00     0.047 A 
HETATM    9  C   UNL     1       4.809  -4.279  58.048  1.00  0.00    -0.049 A 
HETATM   10  C   UNL     1       3.574  -4.460  58.670  1.00  0.00     0.010 A 
HETATM   11  C   UNL     1       2.521  -5.047  57.969  1.00  0.00     0.040 A 
HETATM   12  C   UNL     1       2.703  -5.454  56.647  1.00  0.00     0.101 A 
BRANCH   9  13
HETATM   13  C   UNL     1       5.952  -3.640  58.808  1.00  0.00     0.045 C 
HETATM   14  C   UNL     1       7.142  -3.182  57.963  1.00  0.00     0.132 C 
HETATM   15  N   UNL     1       8.228  -3.131  58.899  1.00  0.00    -0.360 N 
HETATM   16  C   UNL     1       7.996  -3.904  60.029  1.00  0.00     0.218 C 
HETATM   17  H   UNL     1       9.048  -2.605  58.757  1.00  0.00     0.162 HD
HETATM   18  O   UNL     1       8.752  -4.090  60.970  1.00  0.00    -0.274 OA
HETATM   19  C   UNL     1       6.634  -4.532  59.864  1.00  0.00     0.113 C 
ENDBRANCH   9  13
BRANCH  12  20
HETATM   20  O   UNL     1       1.667  -6.028  55.974  1.00  0.00    -0.353 OA
HETATM   21  C   UNL     1       1.189  -7.279  56.465  1.00  0.00     0.210 C 
ENDBRANCH  12  20
ENDBRANCH   1   7
TORSDOF 4
ENDMDL
MODEL 8
REMARK VINA RESULT:      -6.6      2.814      6.206
REMARK  4 active torsions:
REMARK  status: ('A' for Active; 'I' for Inactive)
REMARK    1  A    between atoms: O_1  and  C_5 
REMARK    2  A    between atoms: O_1  and  C_14 
REMARK    3  A    between atoms: O_2  and  C_18 
REMARK    4  A    between atoms: C_10  and  C_13 
ROOT
HETATM    1  O   UNL     1       4.790  -1.865  54.102  1.00  0.00    -0.343 OA
ENDROOT
BRANCH   1   2
HETATM    2  C   UNL     1       5.689  -2.353  53.115  1.00  0.00     0.129 C 
HETATM    3  C   UNL     1       5.737  -1.379  51.947  1.00  0.00     0.032 C 
HETATM    4  C   UNL     1       4.483  -1.696  51.135  1.00  0.00     0.002 C 
HETATM    5  C   UNL     1       4.085  -3.125  51.500  1.00  0.00     0.002 C 
HETATM    6  C   UNL     1       5.144  -3.623  52.481  1.00  0.00     0.032 C 
ENDBRANCH   1   2
BRANCH   1   7
HETATM    7  C   UNL     1       5.311  -1.614  55.344  1.00  0.00     0.103 A 
HETATM    8  C   UNL     1       5.776  -2.677  56.112  1.00  0.00     0.047 A 
HETATM    9  C   UNL     1       6.308  -2.434  57.377  1.00  0.00    -0.049 A 
HETATM   10  C   UNL     1       6.372  -1.131  57.870  1.00  0.00     0.010 A 
HETATM   11  C   UNL     1       5.905  -0.070  57.095  1.00  0.00     0.040 A 
HETATM   12  C   UNL     1       5.372  -0.312  55.829  1.00  0.00     0.101 A 
BRANCH   9  13
HETATM   13  C   UNL     1       6.816  -3.586  58.218  1.00  0.00     0.045 C 
HETATM   14  C   UNL     1       5.777  -4.275  59.104  1.00  0.00     0.132 C 
HETATM   15  N   UNL     1       6.562  -4.908  60.125  1.00  0.00    -0.360 N 
HETATM   16  C   UNL     1       7.824  -4.342  60.255  1.00  0.00     0.218 C 
HETATM   17  H   UNL     1       6.242  -5.660  60.674  1.00  0.00     0.162 HD
HETATM   18  O   UNL     1       8.690  -4.638  61.063  1.00  0.00    -0.274 OA
HETATM   19  C   UNL     1       7.921  -3.236  59.234  1.00  0.00     0.113 C 
ENDBRANCH   9  13
BRANCH  12  20
HETATM   20  O   UNL     1       4.917   0.733  55.082  1.00  0.00    -0.353 OA
HETATM   21  C   UNL     1       4.051   1.663  55.729  1.00  0.00     0.210 C 
ENDBRANCH  12  20
ENDBRANCH   1   7
TORSDOF 4
ENDMDL
MODEL 9
REMARK VINA RESULT:      -6.6      2.577      4.566
REMARK  4 active torsions:
REMARK  status: ('A' for Active; 'I' for Inactive)
REMARK    1  A    between atoms: O_1  and  C_5 
REMARK    2  A    between atoms: O_1  and  C_14 
REMARK    3  A    between atoms: O_2  and  C_18 
REMARK    4  A    between atoms: C_10  and  C_13 
ROOT
HETATM    1  O   UNL     1       6.151  -4.233  57.438  1.00  0.00    -0.343 OA
ENDROOT
BRANCH   1   2
HETATM    2  C   UNL     1       6.191  -3.209  58.424  1.00  0.00     0.129 C 
HETATM    3  C   UNL     1       7.606  -2.662  58.530  1.00  0.00     0.032 C 
HETATM    4  C   UNL     1       8.348  -3.686  59.389  1.00  0.00     0.002 C 
HETATM    5  C   UNL     1       7.278  -4.432  60.185  1.00  0.00     0.002 C 
HETATM    6  C   UNL     1       5.944  -3.794  59.806  1.00  0.00     0.032 C 
ENDBRANCH   1   2
BRANCH   1   7
HETATM    7  C   UNL     1       5.090  -4.216  56.572  1.00  0.00     0.103 A 
HETATM    8  C   UNL     1       5.074  -3.286  55.537  1.00  0.00     0.047 A 
HETATM    9  C   UNL     1       4.000  -3.258  54.650  1.00  0.00    -0.049 A 
HETATM   10  C   UNL     1       2.946  -4.158  54.800  1.00  0.00     0.010 A 
HETATM   11  C   UNL     1       2.968  -5.089  55.839  1.00  0.00     0.040 A 
HETATM   12  C   UNL     1       4.043  -5.117  56.728  1.00  0.00     0.101 A 
BRANCH   9  13
HETATM   13  C   UNL     1       3.977  -2.248  53.522  1.00  0.00     0.045 C 
HETATM   14  C   UNL     1       2.905  -2.468  52.452  1.00  0.00     0.132 C 
HETATM   15  N   UNL     1       3.414  -1.767  51.308  1.00  0.00    -0.360 N 
HETATM   16  C   UNL     1       4.786  -1.563  51.374  1.00  0.00     0.218 C 
HETATM   17  H   UNL     1       2.853  -1.465  50.558  1.00  0.00     0.162 HD
HETATM   18  O   UNL     1       5.500  -1.039  50.533  1.00  0.00    -0.274 OA
HETATM   19  C   UNL     1       5.261  -2.161  52.675  1.00  0.00     0.113 C 
ENDBRANCH   9  13
BRANCH  12  20
HETATM   20  O   UNL     1       4.052  -6.030  57.739  1.00  0.00    -0.353 OA
HETATM   21  C   UNL     1       2.995  -6.987  57.757  1.00  0.00     0.210 C 
ENDBRANCH  12  20
ENDBRANCH   1   7
TORSDOF 4
ENDMDL
