MODEL 1
REMARK VINA RESULT:      -7.3      0.000      0.000
REMARK  4 active torsions:
REMARK  status: ('A' for Active; 'I' for Inactive)
REMARK    1  A    between atoms: O_1  and  C_5 
REMARK    2  A    between atoms: O_1  and  C_14 
REMARK    3  A    between atoms: O_2  and  C_18 
REMARK    4  A    between atoms: C_10  and  C_13 
ROOT
HETATM    1  O   UNL     1       4.565  -4.332  59.238  1.00  0.00    -0.343 OA
ENDROOT
BRANCH   1   2
HETATM    2  C   UNL     1       4.386  -5.611  58.642  1.00  0.00     0.129 C 
HETATM    3  C   UNL     1       4.221  -5.451  57.138  1.00  0.00     0.032 C 
HETATM    4  C   UNL     1       2.764  -5.027  56.957  1.00  0.00     0.002 C 
HETATM    5  C   UNL     1       2.023  -5.490  58.210  1.00  0.00     0.002 C 
HETATM    6  C   UNL     1       3.057  -6.214  59.071  1.00  0.00     0.032 C 
ENDBRANCH   1   2
BRANCH   1   7
HETATM    7  C   UNL     1       5.648  -3.603  58.822  1.00  0.00     0.103 A 
HETATM    8  C   UNL     1       5.469  -2.608  57.866  1.00  0.00     0.047 A 
HETATM    9  C   UNL     1       6.562  -1.860  57.433  1.00  0.00    -0.049 A 
HETATM   10  C   UNL     1       7.830  -2.110  57.957  1.00  0.00     0.010 A 
HETATM   11  C   UNL     1       8.003  -3.109  58.916  1.00  0.00     0.040 A 
HETATM   12  C   UNL     1       6.909  -3.858  59.348  1.00  0.00     0.101 A 
BRANCH   9  13
HETATM   13  C   UNL     1       6.374  -0.776  56.394  1.00  0.00     0.045 C 
HETATM   14  C   UNL     1       5.012  -0.081  56.394  1.00  0.00     0.132 C 
HETATM   15  N   UNL     1       4.904   0.464  55.070  1.00  0.00    -0.360 N 
HETATM   16  C   UNL     1       5.745  -0.168  54.164  1.00  0.00     0.218 C 
HETATM   17  H   UNL     1       4.300   1.203  54.831  1.00  0.00     0.162 HD
HETATM   18  O   UNL     1       5.840   0.046  52.966  1.00  0.00    -0.274 OA
HETATM   19  C   UNL     1       6.503  -1.227  54.926  1.00  0.00     0.113 C 
ENDBRANCH   9  13
BRANCH  12  20
HETATM   20  O   UNL     1       7.091  -4.831  60.284  1.00  0.00    -0.353 OA
HETATM   21  C   UNL     1       8.373  -4.899  60.908  1.00  0.00     0.210 C 
ENDBRANCH  12  20
ENDBRANCH   1   7
TORSDOF 4
ENDMDL
MODEL 2
REMARK VINA RESULT:      -7.1      1.438      1.870
REMARK  4 active torsions:
REMARK  status: ('A' for Active; 'I' for Inactive)
REMARK    1  A    between atoms: O_1  and  C_5 
REMARK    2  A    between atoms: O_1  and  C_14 
REMARK    3  A    between atoms: O_2  and  C_18 
REMARK    4  A    between atoms: C_10  and  C_13 
ROOT
HETATM    1  O   UNL     1       5.177  -5.003  57.220  1.00  0.00    -0.343 OA
ENDROOT
BRANCH   1   2
HETATM    2  C   UNL     1       3.762  -4.890  57.138  1.00  0.00     0.129 C 
HETATM    3  C   UNL     1       3.173  -4.868  58.541  1.00  0.00     0.032 C 
HETATM    4  C   UNL     1       3.152  -6.334  58.969  1.00  0.00     0.002 C 
HETATM    5  C   UNL     1       3.176  -7.158  57.682  1.00  0.00     0.002 C 
HETATM    6  C   UNL     1       3.163  -6.150  56.534  1.00  0.00     0.032 C 
ENDBRANCH   1   2
BRANCH   1   7
HETATM    7  C   UNL     1       5.895  -3.839  57.153  1.00  0.00     0.103 A 
HETATM    8  C   UNL     1       5.951  -3.144  55.949  1.00  0.00     0.047 A 
HETATM    9  C   UNL     1       6.679  -1.959  55.867  1.00  0.00    -0.049 A 
HETATM   10  C   UNL     1       7.350  -1.473  56.990  1.00  0.00     0.010 A 
HETATM   11  C   UNL     1       7.289  -2.173  58.194  1.00  0.00     0.040 A 
HETATM   12  C   UNL     1       6.561  -3.360  58.276  1.00  0.00     0.101 A 
BRANCH   9  13
HETATM   13  C   UNL     1       6.743  -1.198  54.560  1.00  0.00     0.045 C 
HETATM   14  C   UNL     1       5.954   0.111  54.511  1.00  0.00     0.132 C 
HETATM   15  N   UNL     1       5.741   0.330  53.108  1.00  0.00    -0.360 N 
HETATM   16  C   UNL     1       5.866  -0.834  52.362  1.00  0.00     0.218 C 
HETATM   17  H   UNL     1       5.529   1.209  52.719  1.00  0.00     0.162 HD
HETATM   18  O   UNL     1       5.698  -0.966  51.159  1.00  0.00    -0.274 OA
HETATM   19  C   UNL     1       6.203  -1.944  53.325  1.00  0.00     0.113 C 
ENDBRANCH   9  13
BRANCH  12  20
HETATM   20  O   UNL     1       6.512  -4.036  59.458  1.00  0.00    -0.353 OA
HETATM   21  C   UNL     1       7.705  -4.062  60.239  1.00  0.00     0.210 C 
ENDBRANCH  12  20
ENDBRANCH   1   7
TORSDOF 4
ENDMDL
MODEL 3
REMARK VINA RESULT:      -7.0      2.955      6.040
REMARK  4 active torsions:
REMARK  status: ('A' for Active; 'I' for Inactive)
REMARK    1  A    between atoms: O_1  and  C_5 
REMARK    2  A    between atoms: O_1  and  C_14 
REMARK    3  A    between atoms: O_2  and  C_18 
REMARK    4  A    between atoms: C_10  and  C_13 
ROOT
HETATM    1  O   UNL     1       6.000  -3.159  54.979  1.00  0.00    -0.343 OA
ENDROOT
BRANCH   1   2
HETATM    2  C   UNL     1       4.964  -2.356  54.427  1.00  0.00     0.129 C 
HETATM    3  C   UNL     1       5.261  -2.083  52.960  1.00  0.00     0.032 C 
HETATM    4  C   UNL     1       6.290  -0.954  52.984  1.00  0.00     0.002 C 
HETATM    5  C   UNL     1       6.131  -0.256  54.334  1.00  0.00     0.002 C 
HETATM    6  C   UNL     1       4.982  -0.968  55.045  1.00  0.00     0.032 C 
ENDBRANCH   1   2
BRANCH   1   7
HETATM    7  C   UNL     1       5.748  -3.743  56.192  1.00  0.00     0.103 A 
HETATM    8  C   UNL     1       4.718  -4.672  56.297  1.00  0.00     0.047 A 
HETATM    9  C   UNL     1       4.451  -5.273  57.526  1.00  0.00    -0.049 A 
HETATM   10  C   UNL     1       5.215  -4.943  58.645  1.00  0.00     0.010 A 
HETATM   11  C   UNL     1       6.248  -4.012  58.533  1.00  0.00     0.040 A 
HETATM   12  C   UNL     1       6.514  -3.410  57.304  1.00  0.00     0.101 A 
BRANCH   9  13
HETATM   13  C   UNL     1       3.331  -6.285  57.647  1.00  0.00     0.045 C 
HETATM   14  C   UNL     1       3.173  -7.248  56.469  1.00  0.00     0.132 C 
HETATM   15  N   UNL     1       1.813  -7.694  56.571  1.00  0.00    -0.360 N 
HETATM   16  C   UNL     1       1.022  -6.828  57.316  1.00  0.00     0.218 C 
HETATM   17  H   UNL     1       1.476  -8.522  56.158  1.00  0.00     0.162 HD
HETATM   18  O   UNL     1      -0.175  -6.920  57.535  1.00  0.00    -0.274 OA
HETATM   19  C   UNL     1       1.911  -5.700  57.774  1.00  0.00     0.113 C 
ENDBRANCH   9  13
BRANCH  12  20
HETATM   20  O   UNL     1       7.524  -2.500  57.208  1.00  0.00    -0.353 OA
HETATM   21  C   UNL     1       7.368  -1.281  57.931  1.00  0.00     0.210 C 
ENDBRANCH  12  20
ENDBRANCH   1   7
TORSDOF 4
ENDMDL
MODEL 4
REMARK VINA RESULT:      -6.9      3.006      6.091
REMARK  4 active torsions:
REMARK  status: ('A' for Active; 'I' for Inactive)
REMARK    1  A    between atoms: O_1  and  C_5 
REMARK    2  A    between atoms: O_1  and  C_14 
REMARK    3  A    between atoms: O_2  and  C_18 
REMARK    4  A    between atoms: C_10  and  C_13 
ROOT
HETATM    1  O   UNL     1       4.812  -3.942  53.968  1.00  0.00    -0.343 OA
ENDROOT
BRANCH   1   2
HETATM    2  C   UNL     1       4.520  -2.567  53.751  1.00  0.00     0.129 C 
HETATM    3  C   UNL     1       3.022  -2.392  53.559  1.00  0.00     0.032 C 
HETATM    4  C   UNL     1       2.772  -2.798  52.108  1.00  0.00     0.002 C 
HETATM    5  C   UNL     1       4.109  -2.644  51.384  1.00  0.00     0.002 C 
HETATM    6  C   UNL     1       5.093  -2.106  52.421  1.00  0.00     0.032 C 
ENDBRANCH   1   2
BRANCH   1   7
HETATM    7  C   UNL     1       4.716  -4.399  55.256  1.00  0.00     0.103 A 
HETATM    8  C   UNL     1       5.526  -3.836  56.237  1.00  0.00     0.047 A 
HETATM    9  C   UNL     1       5.439  -4.293  57.551  1.00  0.00    -0.049 A 
HETATM   10  C   UNL     1       4.543  -5.311  57.878  1.00  0.00     0.010 A 
HETATM   11  C   UNL     1       3.733  -5.870  56.890  1.00  0.00     0.040 A 
HETATM   12  C   UNL     1       3.821  -5.414  55.575  1.00  0.00     0.101 A 
BRANCH   9  13
HETATM   13  C   UNL     1       6.317  -3.685  58.623  1.00  0.00     0.045 C 
HETATM   14  C   UNL     1       7.689  -3.191  58.162  1.00  0.00     0.132 C 
HETATM   15  N   UNL     1       8.471  -3.177  59.365  1.00  0.00    -0.360 N 
HETATM   16  C   UNL     1       7.943  -3.996  60.354  1.00  0.00     0.218 C 
HETATM   17  H   UNL     1       9.292  -2.645  59.477  1.00  0.00     0.162 HD
HETATM   18  O   UNL     1       8.410  -4.220  61.460  1.00  0.00    -0.274 OA
HETATM   19  C   UNL     1       6.689  -4.618  59.792  1.00  0.00     0.113 C 
ENDBRANCH   9  13
BRANCH  12  20
HETATM   20  O   UNL     1       3.026  -5.969  54.618  1.00  0.00    -0.353 OA
HETATM   21  C   UNL     1       1.617  -5.828  54.785  1.00  0.00     0.210 C 
ENDBRANCH  12  20
ENDBRANCH   1   7
TORSDOF 4
ENDMDL
MODEL 5
REMARK VINA RESULT:      -6.9      3.275      6.056
REMARK  4 active torsions:
REMARK  status: ('A' for Active; 'I' for Inactive)
REMARK    1  A    between atoms: O_1  and  C_5 
REMARK    2  A    between atoms: O_1  and  C_14 
REMARK    3  A    between atoms: O_2  and  C_18 
REMARK    4  A    between atoms: C_10  and  C_13 
ROOT
HETATM    1  O   UNL     1       4.225  -4.521  54.152  1.00  0.00    -0.343 OA
ENDROOT
BRANCH   1   2
HETATM    2  C   UNL     1       5.471  -4.376  53.483  1.00  0.00     0.129 C 
HETATM    3  C   UNL     1       5.473  -3.078  52.690  1.00  0.00     0.032 C 
HETATM    4  C   UNL     1       4.690  -3.404  51.420  1.00  0.00     0.002 C 
HETATM    5  C   UNL     1       4.758  -4.922  51.252  1.00  0.00     0.002 C 
HETATM    6  C   UNL     1       5.619  -5.437  52.403  1.00  0.00     0.032 C 
ENDBRANCH   1   2
BRANCH   1   7
HETATM    7  C   UNL     1       4.271  -4.886  55.471  1.00  0.00     0.103 A 
HETATM    8  C   UNL     1       5.120  -4.202  56.335  1.00  0.00     0.047 A 
HETATM    9  C   UNL     1       5.177  -4.565  57.680  1.00  0.00    -0.049 A 
HETATM   10  C   UNL     1       4.385  -5.610  58.155  1.00  0.00     0.010 A 
HETATM   11  C   UNL     1       3.535  -6.291  57.284  1.00  0.00     0.040 A 
HETATM   12  C   UNL     1       3.478  -5.928  55.939  1.00  0.00     0.101 A 
BRANCH   9  13
HETATM   13  C   UNL     1       6.099  -3.825  58.625  1.00  0.00     0.045 C 
HETATM   14  C   UNL     1       7.400  -3.301  58.014  1.00  0.00     0.132 C 
HETATM   15  N   UNL     1       8.271  -3.145  59.144  1.00  0.00    -0.360 N 
HETATM   16  C   UNL     1       7.871  -3.905  60.235  1.00  0.00     0.218 C 
HETATM   17  H   UNL     1       9.066  -2.564  59.146  1.00  0.00     0.162 HD
HETATM   18  O   UNL     1       8.434  -4.011  61.313  1.00  0.00    -0.274 OA
HETATM   19  C   UNL     1       6.615  -4.636  59.829  1.00  0.00     0.113 C 
ENDBRANCH   9  13
BRANCH  12  20
HETATM   20  O   UNL     1       2.645  -6.603  55.098  1.00  0.00    -0.353 OA
HETATM   21  C   UNL     1       1.246  -6.365  55.244  1.00  0.00     0.210 C 
ENDBRANCH  12  20
ENDBRANCH   1   7
TORSDOF 4
ENDMDL
MODEL 6
REMARK VINA RESULT:      -6.7      3.256      6.048
REMARK  4 active torsions:
REMARK  status: ('A' for Active; 'I' for Inactive)
REMARK    1  A    between atoms: O_1  and  C_5 
REMARK    2  A    between atoms: O_1  and  C_14 
REMARK    3  A    between atoms: O_2  and  C_18 
REMARK    4  A    between atoms: C_10  and  C_13 
ROOT
HETATM    1  O   UNL     1       4.710  -2.565  57.661  1.00  0.00    -0.343 OA
ENDROOT
BRANCH   1   2
HETATM    2  C   UNL     1       5.779  -2.282  56.767  1.00  0.00     0.129 C 
HETATM    3  C   UNL     1       6.881  -1.545  57.513  1.00  0.00     0.032 C 
HETATM    4  C   UNL     1       6.394  -0.099  57.581  1.00  0.00     0.002 C 
HETATM    5  C   UNL     1       5.382   0.068  56.448  1.00  0.00     0.002 C 
HETATM    6  C   UNL     1       5.339  -1.273  55.718  1.00  0.00     0.032 C 
ENDBRANCH   1   2
BRANCH   1   7
HETATM    7  C   UNL     1       4.411  -3.886  57.868  1.00  0.00     0.103 A 
HETATM    8  C   UNL     1       3.623  -4.557  56.938  1.00  0.00     0.047 A 
HETATM    9  C   UNL     1       3.310  -5.901  57.137  1.00  0.00    -0.049 A 
HETATM   10  C   UNL     1       3.787  -6.568  58.265  1.00  0.00     0.010 A 
HETATM   11  C   UNL     1       4.577  -5.890  59.194  1.00  0.00     0.040 A 
HETATM   12  C   UNL     1       4.889  -4.546  58.995  1.00  0.00     0.101 A 
BRANCH   9  13
HETATM   13  C   UNL     1       2.454  -6.636  56.129  1.00  0.00     0.045 C 
HETATM   14  C   UNL     1       1.198  -7.310  56.686  1.00  0.00     0.132 C 
HETATM   15  N   UNL     1       0.891  -8.320  55.714  1.00  0.00    -0.360 N 
HETATM   16  C   UNL     1       1.987  -8.656  54.929  1.00  0.00     0.218 C 
HETATM   17  H   UNL     1       0.002  -8.730  55.614  1.00  0.00     0.162 HD
HETATM   18  O   UNL     1       2.041  -9.508  54.056  1.00  0.00    -0.274 OA
HETATM   19  C   UNL     1       3.141  -7.801  55.390  1.00  0.00     0.113 C 
ENDBRANCH   9  13
BRANCH  12  20
HETATM   20  O   UNL     1       5.660  -3.894  59.909  1.00  0.00    -0.353 OA
HETATM   21  C   UNL     1       7.028  -4.289  60.002  1.00  0.00     0.210 C 
ENDBRANCH  12  20
ENDBRANCH   1   7
TORSDOF 4
ENDMDL
MODEL 7
REMARK VINA RESULT:      -6.6      1.472      4.030
REMARK  4 active torsions:
REMARK  status: ('A' for Active; 'I' for Inactive)
REMARK    1  A    between atoms: O_1  and  C_5 
REMARK    2  A    between atoms: O_1  and  C_14 
REMARK    3  A    between atoms: O_2  and  C_18 
REMARK    4  A    between atoms: C_10  and  C_13 
ROOT
HETATM    1  O   UNL     1       6.343  -4.735  59.022  1.00  0.00    -0.343 OA
ENDROOT
BRANCH   1   2
HETATM    2  C   UNL     1       6.954  -3.581  59.584  1.00  0.00     0.129 C 
HETATM    3  C   UNL     1       8.358  -3.426  59.020  1.00  0.00     0.032 C 
HETATM    4  C   UNL     1       9.203  -4.413  59.823  1.00  0.00     0.002 C 
HETATM    5  C   UNL     1       8.446  -4.665  61.126  1.00  0.00     0.002 C 
HETATM    6  C   UNL     1       7.201  -3.782  61.070  1.00  0.00     0.032 C 
ENDBRANCH   1   2
BRANCH   1   7
HETATM    7  C   UNL     1       5.618  -4.554  57.874  1.00  0.00     0.103 A 
HETATM    8  C   UNL     1       6.063  -3.635  56.929  1.00  0.00     0.047 A 
HETATM    9  C   UNL     1       5.333  -3.440  55.757  1.00  0.00    -0.049 A 
HETATM   10  C   UNL     1       4.162  -4.165  55.535  1.00  0.00     0.010 A 
HETATM   11  C   UNL     1       3.722  -5.085  56.486  1.00  0.00     0.040 A 
HETATM   12  C   UNL     1       4.451  -5.279  57.659  1.00  0.00     0.101 A 
BRANCH   9  13
HETATM   13  C   UNL     1       5.811  -2.442  54.725  1.00  0.00     0.045 C 
HETATM   14  C   UNL     1       7.269  -1.996  54.854  1.00  0.00     0.132 C 
HETATM   15  N   UNL     1       7.306  -0.739  54.162  1.00  0.00    -0.360 N 
HETATM   16  C   UNL     1       6.050  -0.158  54.046  1.00  0.00     0.218 C 
HETATM   17  H   UNL     1       8.130  -0.333  53.809  1.00  0.00     0.162 HD
HETATM   18  O   UNL     1       5.776   0.924  53.550  1.00  0.00    -0.274 OA
HETATM   19  C   UNL     1       5.065  -1.094  54.701  1.00  0.00     0.113 C 
ENDBRANCH   9  13
BRANCH  12  20
HETATM   20  O   UNL     1       4.010  -6.180  58.581  1.00  0.00    -0.353 OA
HETATM   21  C   UNL     1       2.958  -7.056  58.179  1.00  0.00     0.210 C 
ENDBRANCH  12  20
ENDBRANCH   1   7
TORSDOF 4
ENDMDL
MODEL 8
REMARK VINA RESULT:      -6.6      2.524      4.576
REMARK  4 active torsions:
REMARK  status: ('A' for Active; 'I' for Inactive)
REMARK    1  A    between atoms: O_1  and  C_5 
REMARK    2  A    between atoms: O_1  and  C_14 
REMARK    3  A    between atoms: O_2  and  C_18 
REMARK    4  A    between atoms: C_10  and  C_13 
ROOT
HETATM    1  O   UNL     1       5.820  -4.084  57.058  1.00  0.00    -0.343 OA
ENDROOT
BRANCH   1   2
HETATM    2  C   UNL     1       5.833  -3.062  58.046  1.00  0.00     0.129 C 
HETATM    3  C   UNL     1       7.253  -2.548  58.225  1.00  0.00     0.032 C 
HETATM    4  C   UNL     1       7.926  -3.588  59.118  1.00  0.00     0.002 C 
HETATM    5  C   UNL     1       6.801  -4.310  59.858  1.00  0.00     0.002 C 
HETATM    6  C   UNL     1       5.503  -3.641  59.412  1.00  0.00     0.032 C 
ENDBRANCH   1   2
BRANCH   1   7
HETATM    7  C   UNL     1       5.113  -3.828  55.913  1.00  0.00     0.103 A 
HETATM    8  C   UNL     1       5.752  -3.205  54.845  1.00  0.00     0.047 A 
HETATM    9  C   UNL     1       5.043  -2.938  53.675  1.00  0.00    -0.049 A 
HETATM   10  C   UNL     1       3.698  -3.295  53.577  1.00  0.00     0.010 A 
HETATM   11  C   UNL     1       3.063  -3.921  54.650  1.00  0.00     0.040 A 
HETATM   12  C   UNL     1       3.773  -4.187  55.822  1.00  0.00     0.101 A 
BRANCH   9  13
HETATM   13  C   UNL     1       5.732  -2.261  52.511  1.00  0.00     0.045 C 
HETATM   14  C   UNL     1       6.037  -0.773  52.690  1.00  0.00     0.132 C 
HETATM   15  N   UNL     1       6.169  -0.285  51.346  1.00  0.00    -0.360 N 
HETATM   16  C   UNL     1       5.554  -1.113  50.416  1.00  0.00     0.218 C 
HETATM   17  H   UNL     1       6.644   0.544  51.110  1.00  0.00     0.162 HD
HETATM   18  O   UNL     1       5.463  -0.936  49.211  1.00  0.00    -0.274 OA
HETATM   19  C   UNL     1       4.959  -2.271  51.178  1.00  0.00     0.113 C 
ENDBRANCH   9  13
BRANCH  12  20
HETATM   20  O   UNL     1       3.141  -4.797  56.863  1.00  0.00    -0.353 OA
HETATM   21  C   UNL     1       2.947  -6.207  56.768  1.00  0.00     0.210 C 
ENDBRANCH  12  20
ENDBRANCH   1   7
TORSDOF 4
ENDMDL
MODEL 9
REMARK VINA RESULT:      -6.5      2.044      3.134
REMARK  4 active torsions:
REMARK  status: ('A' for Active; 'I' for Inactive)
REMARK    1  A    between atoms: O_1  and  C_5 
REMARK    2  A    between atoms: O_1  and  C_14 
REMARK    3  A    between atoms: O_2  and  C_18 
REMARK    4  A    between atoms: C_10  and  C_13 
ROOT
HETATM    1  O   UNL     1       3.854  -6.214  56.524  1.00  0.00    -0.343 OA
ENDROOT
BRANCH   1   2
HETATM    2  C   UNL     1       3.236  -6.110  55.247  1.00  0.00     0.129 C 
HETATM    3  C   UNL     1       1.853  -5.496  55.402  1.00  0.00     0.032 C 
HETATM    4  C   UNL     1       0.971  -6.653  55.870  1.00  0.00     0.002 C 
HETATM    5  C   UNL     1       1.682  -7.935  55.439  1.00  0.00     0.002 C 
HETATM    6  C   UNL     1       2.937  -7.493  54.690  1.00  0.00     0.032 C 
ENDBRANCH   1   2
BRANCH   1   7
HETATM    7  C   UNL     1       4.342  -5.056  57.069  1.00  0.00     0.103 A 
HETATM    8  C   UNL     1       5.160  -4.235  56.299  1.00  0.00     0.047 A 
HETATM    9  C   UNL     1       5.664  -3.055  56.843  1.00  0.00    -0.049 A 
HETATM   10  C   UNL     1       5.348  -2.700  58.155  1.00  0.00     0.010 A 
HETATM   11  C   UNL     1       4.527  -3.527  58.921  1.00  0.00     0.040 A 
HETATM   12  C   UNL     1       4.023  -4.708  58.377  1.00  0.00     0.101 A 
BRANCH   9  13
HETATM   13  C   UNL     1       6.554  -2.157  56.011  1.00  0.00     0.045 C 
HETATM   14  C   UNL     1       6.241  -0.661  56.076  1.00  0.00     0.132 C 
HETATM   15  N   UNL     1       6.816  -0.138  54.870  1.00  0.00    -0.360 N 
HETATM   16  C   UNL     1       7.009  -1.116  53.903  1.00  0.00     0.218 C 
HETATM   17  H   UNL     1       7.048   0.810  54.742  1.00  0.00     0.162 HD
HETATM   18  O   UNL     1       7.436  -0.964  52.769  1.00  0.00    -0.274 OA
HETATM   19  C   UNL     1       6.539  -2.422  54.493  1.00  0.00     0.113 C 
ENDBRANCH   9  13
BRANCH  12  20
HETATM   20  O   UNL     1       3.223  -5.508  59.137  1.00  0.00    -0.353 OA
HETATM   21  C   UNL     1       1.844  -5.154  59.219  1.00  0.00     0.210 C 
ENDBRANCH  12  20
ENDBRANCH   1   7
TORSDOF 4
ENDMDL
