MODEL 1
REMARK VINA RESULT:      -7.3      0.000      0.000
REMARK  4 active torsions:
REMARK  status: ('A' for Active; 'I' for Inactive)
REMARK    1  A    between atoms: O_1  and  C_5 
REMARK    2  A    between atoms: O_1  and  C_14 
REMARK    3  A    between atoms: O_2  and  C_18 
REMARK    4  A    between atoms: C_10  and  C_13 
ROOT
HETATM    1  O   UNL     1       2.036  -9.795  55.888  1.00  0.00    -0.343 OA
ENDROOT
BRANCH   1   2
HETATM    2  C   UNL     1       1.861 -10.943  55.068  1.00  0.00     0.129 C 
HETATM    3  C   UNL     1       1.477 -10.508  53.662  1.00  0.00     0.032 C 
HETATM    4  C   UNL     1      -0.016 -10.195  53.753  1.00  0.00     0.002 C 
HETATM    5  C   UNL     1      -0.541 -10.963  54.966  1.00  0.00     0.002 C 
HETATM    6  C   UNL     1       0.649 -11.741  55.523  1.00  0.00     0.032 C 
ENDBRANCH   1   2
BRANCH   1   7
HETATM    7  C   UNL     1       3.242  -9.151  55.800  1.00  0.00     0.103 A 
HETATM    8  C   UNL     1       3.436  -8.211  54.792  1.00  0.00     0.047 A 
HETATM    9  C   UNL     1       4.659  -7.549  54.691  1.00  0.00    -0.049 A 
HETATM   10  C   UNL     1       5.682  -7.829  55.596  1.00  0.00     0.010 A 
HETATM   11  C   UNL     1       5.480  -8.772  56.605  1.00  0.00     0.040 A 
HETATM   12  C   UNL     1       4.257  -9.435  56.706  1.00  0.00     0.101 A 
BRANCH   9  13
HETATM   13  C   UNL     1       4.876  -6.526  53.597  1.00  0.00     0.045 C 
HETATM   14  C   UNL     1       4.437  -5.097  53.924  1.00  0.00     0.132 C 
HETATM   15  N   UNL     1       4.250  -4.493  52.635  1.00  0.00    -0.360 N 
HETATM   16  C   UNL     1       4.061  -5.431  51.629  1.00  0.00     0.218 C 
HETATM   17  H   UNL     1       4.254  -3.521  52.482  1.00  0.00     0.162 HD
HETATM   18  O   UNL     1       3.833  -5.217  50.448  1.00  0.00    -0.274 OA
HETATM   19  C   UNL     1       4.135  -6.793  52.273  1.00  0.00     0.113 C 
ENDBRANCH   9  13
BRANCH  12  20
HETATM   20  O   UNL     1       4.074 -10.355  57.694  1.00  0.00    -0.353 OA
HETATM   21  C   UNL     1       5.226 -10.744  58.439  1.00  0.00     0.210 C 
ENDBRANCH  12  20
ENDBRANCH   1   7
TORSDOF 4
ENDMDL
MODEL 2
REMARK VINA RESULT:      -7.2      2.803      5.739
REMARK  4 active torsions:
REMARK  status: ('A' for Active; 'I' for Inactive)
REMARK    1  A    between atoms: O_1  and  C_5 
REMARK    2  A    between atoms: O_1  and  C_14 
REMARK    3  A    between atoms: O_2  and  C_18 
REMARK    4  A    between atoms: C_10  and  C_13 
ROOT
HETATM    1  O   UNL     1       3.803  -7.844  54.310  1.00  0.00    -0.343 OA
ENDROOT
BRANCH   1   2
HETATM    2  C   UNL     1       2.921  -6.746  54.119  1.00  0.00     0.129 C 
HETATM    3  C   UNL     1       3.552  -5.750  53.157  1.00  0.00     0.032 C 
HETATM    4  C   UNL     1       4.540  -4.963  54.016  1.00  0.00     0.002 C 
HETATM    5  C   UNL     1       4.066  -5.112  55.461  1.00  0.00     0.002 C 
HETATM    6  C   UNL     1       2.786  -5.944  55.404  1.00  0.00     0.032 C 
ENDBRANCH   1   2
BRANCH   1   7
HETATM    7  C   UNL     1       3.263  -8.986  54.842  1.00  0.00     0.103 A 
HETATM    8  C   UNL     1       2.295  -9.677  54.121  1.00  0.00     0.047 A 
HETATM    9  C   UNL     1       1.737 -10.839  54.651  1.00  0.00    -0.049 A 
HETATM   10  C   UNL     1       2.148 -11.305  55.900  1.00  0.00     0.010 A 
HETATM   11  C   UNL     1       3.120 -10.607  56.618  1.00  0.00     0.040 A 
HETATM   12  C   UNL     1       3.678  -9.444  56.087  1.00  0.00     0.101 A 
BRANCH   9  13
HETATM   13  C   UNL     1       0.684 -11.597  53.872  1.00  0.00     0.045 C 
HETATM   14  C   UNL     1       0.588 -11.264  52.382  1.00  0.00     0.132 C 
HETATM   15  N   UNL     1      -0.741 -11.669  52.024  1.00  0.00    -0.360 N 
HETATM   16  C   UNL     1      -1.586 -11.756  53.123  1.00  0.00     0.218 C 
HETATM   17  H   UNL     1      -1.024 -11.864  51.101  1.00  0.00     0.162 HD
HETATM   18  O   UNL     1      -2.776 -12.032  53.125  1.00  0.00    -0.274 OA
HETATM   19  C   UNL     1      -0.771 -11.393  54.339  1.00  0.00     0.113 C 
ENDBRANCH   9  13
BRANCH  12  20
HETATM   20  O   UNL     1       4.625  -8.770  56.799  1.00  0.00    -0.353 OA
HETATM   21  C   UNL     1       5.440  -9.539  57.682  1.00  0.00     0.210 C 
ENDBRANCH  12  20
ENDBRANCH   1   7
TORSDOF 4
ENDMDL
MODEL 3
REMARK VINA RESULT:      -6.9      2.561      6.146
REMARK  4 active torsions:
REMARK  status: ('A' for Active; 'I' for Inactive)
REMARK    1  A    between atoms: O_1  and  C_5 
REMARK    2  A    between atoms: O_1  and  C_14 
REMARK    3  A    between atoms: O_2  and  C_18 
REMARK    4  A    between atoms: C_10  and  C_13 
ROOT
HETATM    1  O   UNL     1       3.032  -7.931  51.544  1.00  0.00    -0.343 OA
ENDROOT
BRANCH   1   2
HETATM    2  C   UNL     1       2.691  -6.556  51.668  1.00  0.00     0.129 C 
HETATM    3  C   UNL     1       1.360  -6.300  50.978  1.00  0.00     0.032 C 
HETATM    4  C   UNL     1       1.711  -6.204  49.494  1.00  0.00     0.002 C 
HETATM    5  C   UNL     1       3.195  -5.846  49.427  1.00  0.00     0.002 C 
HETATM    6  C   UNL     1       3.661  -5.696  50.874  1.00  0.00     0.032 C 
ENDBRANCH   1   2
BRANCH   1   7
HETATM    7  C   UNL     1       2.736  -8.740  52.610  1.00  0.00     0.103 A 
HETATM    8  C   UNL     1       3.382  -8.527  53.823  1.00  0.00     0.047 A 
HETATM    9  C   UNL     1       3.091  -9.344  54.915  1.00  0.00    -0.049 A 
HETATM   10  C   UNL     1       2.155 -10.370  54.789  1.00  0.00     0.010 A 
HETATM   11  C   UNL     1       1.509 -10.577  53.570  1.00  0.00     0.040 A 
HETATM   12  C   UNL     1       1.801  -9.761  52.477  1.00  0.00     0.101 A 
BRANCH   9  13
HETATM   13  C   UNL     1       3.791  -9.117  56.237  1.00  0.00     0.045 C 
HETATM   14  C   UNL     1       5.260  -8.699  56.152  1.00  0.00     0.132 C 
HETATM   15  N   UNL     1       5.795  -9.064  57.433  1.00  0.00    -0.360 N 
HETATM   16  C   UNL     1       5.026 -10.023  58.079  1.00  0.00     0.218 C 
HETATM   17  H   UNL     1       6.617  -8.677  57.812  1.00  0.00     0.162 HD
HETATM   18  O   UNL     1       5.254 -10.556  59.153  1.00  0.00    -0.274 OA
HETATM   19  C   UNL     1       3.859 -10.338  57.176  1.00  0.00     0.113 C 
ENDBRANCH   9  13
BRANCH  12  20
HETATM   20  O   UNL     1       1.165  -9.975  51.291  1.00  0.00    -0.353 OA
HETATM   21  C   UNL     1       1.319 -11.263  50.697  1.00  0.00     0.210 C 
ENDBRANCH  12  20
ENDBRANCH   1   7
TORSDOF 4
ENDMDL
MODEL 4
REMARK VINA RESULT:      -6.9      2.573      6.025
REMARK  4 active torsions:
REMARK  status: ('A' for Active; 'I' for Inactive)
REMARK    1  A    between atoms: O_1  and  C_5 
REMARK    2  A    between atoms: O_1  and  C_14 
REMARK    3  A    between atoms: O_2  and  C_18 
REMARK    4  A    between atoms: C_10  and  C_13 
ROOT
HETATM    1  O   UNL     1       2.319  -7.586  52.035  1.00  0.00    -0.343 OA
ENDROOT
BRANCH   1   2
HETATM    2  C   UNL     1       3.593  -7.377  51.438  1.00  0.00     0.129 C 
HETATM    3  C   UNL     1       3.483  -6.297  50.373  1.00  0.00     0.032 C 
HETATM    4  C   UNL     1       2.898  -7.016  49.159  1.00  0.00     0.002 C 
HETATM    5  C   UNL     1       3.212  -8.500  49.347  1.00  0.00     0.002 C 
HETATM    6  C   UNL     1       4.014  -8.602  50.643  1.00  0.00     0.032 C 
ENDBRANCH   1   2
BRANCH   1   7
HETATM    7  C   UNL     1       2.241  -8.554  53.001  1.00  0.00     0.103 A 
HETATM    8  C   UNL     1       2.982  -8.409  54.169  1.00  0.00     0.047 A 
HETATM    9  C   UNL     1       2.912  -9.388  55.158  1.00  0.00    -0.049 A 
HETATM   10  C   UNL     1       2.101 -10.508  54.976  1.00  0.00     0.010 A 
HETATM   11  C   UNL     1       1.359 -10.647  53.803  1.00  0.00     0.040 A 
HETATM   12  C   UNL     1       1.430  -9.668  52.812  1.00  0.00     0.101 A 
BRANCH   9  13
HETATM   13  C   UNL     1       3.716  -9.236  56.432  1.00  0.00     0.045 C 
HETATM   14  C   UNL     1       5.150  -8.732  56.259  1.00  0.00     0.132 C 
HETATM   15  N   UNL     1       5.815  -9.174  57.452  1.00  0.00    -0.360 N 
HETATM   16  C   UNL     1       5.153 -10.224  58.074  1.00  0.00     0.218 C 
HETATM   17  H   UNL     1       6.648  -8.776  57.792  1.00  0.00     0.162 HD
HETATM   18  O   UNL     1       5.500 -10.833  59.074  1.00  0.00    -0.274 OA
HETATM   19  C   UNL     1       3.926 -10.525  57.249  1.00  0.00     0.113 C 
ENDBRANCH   9  13
BRANCH  12  20
HETATM   20  O   UNL     1       0.702  -9.817  51.670  1.00  0.00    -0.353 OA
HETATM   21  C   UNL     1       0.944 -10.991  50.897  1.00  0.00     0.210 C 
ENDBRANCH  12  20
ENDBRANCH   1   7
TORSDOF 4
ENDMDL
MODEL 5
REMARK VINA RESULT:      -6.8      2.480      5.102
REMARK  4 active torsions:
REMARK  status: ('A' for Active; 'I' for Inactive)
REMARK    1  A    between atoms: O_1  and  C_5 
REMARK    2  A    between atoms: O_1  and  C_14 
REMARK    3  A    between atoms: O_2  and  C_18 
REMARK    4  A    between atoms: C_10  and  C_13 
ROOT
HETATM    1  O   UNL     1       1.199 -10.281  52.899  1.00  0.00    -0.343 OA
ENDROOT
BRANCH   1   2
HETATM    2  C   UNL     1       0.729 -11.244  53.834  1.00  0.00     0.129 C 
HETATM    3  C   UNL     1       0.567 -12.587  53.139  1.00  0.00     0.032 C 
HETATM    4  C   UNL     1      -0.766 -12.476  52.400  1.00  0.00     0.002 C 
HETATM    5  C   UNL     1      -1.559 -11.379  53.109  1.00  0.00     0.002 C 
HETATM    6  C   UNL     1      -0.688 -10.910  54.272  1.00  0.00     0.032 C 
ENDBRANCH   1   2
BRANCH   1   7
HETATM    7  C   UNL     1       1.975  -9.266  53.394  1.00  0.00     0.103 A 
HETATM    8  C   UNL     1       2.687  -9.470  54.572  1.00  0.00     0.047 A 
HETATM    9  C   UNL     1       3.479  -8.445  55.087  1.00  0.00    -0.049 A 
HETATM   10  C   UNL     1       3.557  -7.221  54.422  1.00  0.00     0.010 A 
HETATM   11  C   UNL     1       2.842  -7.024  53.241  1.00  0.00     0.040 A 
HETATM   12  C   UNL     1       2.048  -8.049  52.726  1.00  0.00     0.101 A 
BRANCH   9  13
HETATM   13  C   UNL     1       4.256  -8.660  56.368  1.00  0.00     0.045 C 
HETATM   14  C   UNL     1       5.780  -8.622  56.239  1.00  0.00     0.132 C 
HETATM   15  N   UNL     1       6.241  -9.348  57.388  1.00  0.00    -0.360 N 
HETATM   16  C   UNL     1       5.266 -10.184  57.916  1.00  0.00     0.218 C 
HETATM   17  H   UNL     1       7.148  -9.263  57.761  1.00  0.00     0.162 HD
HETATM   18  O   UNL     1       5.378 -10.952  58.859  1.00  0.00    -0.274 OA
HETATM   19  C   UNL     1       4.029 -10.013  57.070  1.00  0.00     0.113 C 
ENDBRANCH   9  13
BRANCH  12  20
HETATM   20  O   UNL     1       1.353  -7.843  51.573  1.00  0.00    -0.353 OA
HETATM   21  C   UNL     1       1.024  -6.494  51.247  1.00  0.00     0.210 C 
ENDBRANCH  12  20
ENDBRANCH   1   7
TORSDOF 4
ENDMDL
MODEL 6
REMARK VINA RESULT:      -6.6      1.655      3.992
REMARK  4 active torsions:
REMARK  status: ('A' for Active; 'I' for Inactive)
REMARK    1  A    between atoms: O_1  and  C_5 
REMARK    2  A    between atoms: O_1  and  C_14 
REMARK    3  A    between atoms: O_2  and  C_18 
REMARK    4  A    between atoms: C_10  and  C_13 
ROOT
HETATM    1  O   UNL     1       3.281  -9.890  54.984  1.00  0.00    -0.343 OA
ENDROOT
BRANCH   1   2
HETATM    2  C   UNL     1       3.017  -9.299  56.250  1.00  0.00     0.129 C 
HETATM    3  C   UNL     1       3.688  -7.936  56.323  1.00  0.00     0.032 C 
HETATM    4  C   UNL     1       5.150  -8.247  56.638  1.00  0.00     0.002 C 
HETATM    5  C   UNL     1       5.166  -9.636  57.273  1.00  0.00     0.002 C 
HETATM    6  C   UNL     1       3.708 -10.081  57.355  1.00  0.00     0.032 C 
ENDBRANCH   1   2
BRANCH   1   7
HETATM    7  C   UNL     1       2.780  -9.246  53.884  1.00  0.00     0.103 A 
HETATM    8  C   UNL     1       3.558  -8.282  53.250  1.00  0.00     0.047 A 
HETATM    9  C   UNL     1       3.058  -7.619  52.130  1.00  0.00    -0.049 A 
HETATM   10  C   UNL     1       1.784  -7.921  51.650  1.00  0.00     0.010 A 
HETATM   11  C   UNL     1       1.010  -8.889  52.290  1.00  0.00     0.040 A 
HETATM   12  C   UNL     1       1.509  -9.552  53.410  1.00  0.00     0.101 A 
BRANCH   9  13
HETATM   13  C   UNL     1       3.899  -6.569  51.435  1.00  0.00     0.045 C 
HETATM   14  C   UNL     1       4.048  -5.238  52.173  1.00  0.00     0.132 C 
HETATM   15  N   UNL     1       4.392  -4.307  51.136  1.00  0.00    -0.360 N 
HETATM   16  C   UNL     1       4.029  -4.758  49.874  1.00  0.00     0.218 C 
HETATM   17  H   UNL     1       4.836  -3.444  51.301  1.00  0.00     0.162 HD
HETATM   18  O   UNL     1       4.152  -4.168  48.811  1.00  0.00    -0.274 OA
HETATM   19  C   UNL     1       3.393  -6.114  50.053  1.00  0.00     0.113 C 
ENDBRANCH   9  13
BRANCH  12  20
HETATM   20  O   UNL     1       0.743 -10.494  54.028  1.00  0.00    -0.353 OA
HETATM   21  C   UNL     1       0.742 -11.803  53.459  1.00  0.00     0.210 C 
ENDBRANCH  12  20
ENDBRANCH   1   7
TORSDOF 4
ENDMDL
MODEL 7
REMARK VINA RESULT:      -6.6      3.041      6.004
REMARK  4 active torsions:
REMARK  status: ('A' for Active; 'I' for Inactive)
REMARK    1  A    between atoms: O_1  and  C_5 
REMARK    2  A    between atoms: O_1  and  C_14 
REMARK    3  A    between atoms: O_2  and  C_18 
REMARK    4  A    between atoms: C_10  and  C_13 
ROOT
HETATM    1  O   UNL     1       3.136  -7.805  53.352  1.00  0.00    -0.343 OA
ENDROOT
BRANCH   1   2
HETATM    2  C   UNL     1       4.175  -8.019  52.404  1.00  0.00     0.129 C 
HETATM    3  C   UNL     1       4.991  -6.745  52.251  1.00  0.00     0.032 C 
HETATM    4  C   UNL     1       4.157  -5.865  51.321  1.00  0.00     0.002 C 
HETATM    5  C   UNL     1       3.237  -6.810  50.549  1.00  0.00     0.002 C 
HETATM    6  C   UNL     1       3.591  -8.221  51.015  1.00  0.00     0.032 C 
ENDBRANCH   1   2
BRANCH   1   7
HETATM    7  C   UNL     1       2.824  -8.856  54.173  1.00  0.00     0.103 A 
HETATM    8  C   UNL     1       1.898  -9.802  53.742  1.00  0.00     0.047 A 
HETATM    9  C   UNL     1       1.571 -10.875  54.569  1.00  0.00    -0.049 A 
HETATM   10  C   UNL     1       2.169 -10.998  55.823  1.00  0.00     0.010 A 
HETATM   11  C   UNL     1       3.096 -10.047  56.249  1.00  0.00     0.040 A 
HETATM   12  C   UNL     1       3.424  -8.973  55.422  1.00  0.00     0.101 A 
BRANCH   9  13
HETATM   13  C   UNL     1       0.565 -11.907  54.107  1.00  0.00     0.045 C 
HETATM   14  C   UNL     1       0.853 -12.558  52.752  1.00  0.00     0.132 C 
HETATM   15  N   UNL     1      -0.429 -13.042  52.325  1.00  0.00    -0.360 N 
HETATM   16  C   UNL     1      -1.482 -12.400  52.964  1.00  0.00     0.218 C 
HETATM   17  H   UNL     1      -0.550 -13.751  51.653  1.00  0.00     0.162 HD
HETATM   18  O   UNL     1      -2.677 -12.566  52.776  1.00  0.00    -0.274 OA
HETATM   19  C   UNL     1      -0.877 -11.399  53.918  1.00  0.00     0.113 C 
ENDBRANCH   9  13
BRANCH  12  20
HETATM   20  O   UNL     1       4.330  -8.050  55.850  1.00  0.00    -0.353 OA
HETATM   21  C   UNL     1       5.622  -8.531  56.214  1.00  0.00     0.210 C 
ENDBRANCH  12  20
ENDBRANCH   1   7
TORSDOF 4
ENDMDL
MODEL 8
REMARK VINA RESULT:      -6.6      1.945      4.221
REMARK  4 active torsions:
REMARK  status: ('A' for Active; 'I' for Inactive)
REMARK    1  A    between atoms: O_1  and  C_5 
REMARK    2  A    between atoms: O_1  and  C_14 
REMARK    3  A    between atoms: O_2  and  C_18 
REMARK    4  A    between atoms: C_10  and  C_13 
ROOT
HETATM    1  O   UNL     1       3.618  -9.568  55.013  1.00  0.00    -0.343 OA
ENDROOT
BRANCH   1   2
HETATM    2  C   UNL     1       3.543  -8.821  56.220  1.00  0.00     0.129 C 
HETATM    3  C   UNL     1       4.924  -8.289  56.573  1.00  0.00     0.032 C 
HETATM    4  C   UNL     1       5.640  -9.478  57.211  1.00  0.00     0.002 C 
HETATM    5  C   UNL     1       4.546 -10.422  57.709  1.00  0.00     0.002 C 
HETATM    6  C   UNL     1       3.219  -9.736  57.391  1.00  0.00     0.032 C 
ENDBRANCH   1   2
BRANCH   1   7
HETATM    7  C   UNL     1       2.690  -9.278  54.048  1.00  0.00     0.103 A 
HETATM    8  C   UNL     1       2.785  -8.074  53.356  1.00  0.00     0.047 A 
HETATM    9  C   UNL     1       1.846  -7.766  52.373  1.00  0.00    -0.049 A 
HETATM   10  C   UNL     1       0.816  -8.662  52.086  1.00  0.00     0.010 A 
HETATM   11  C   UNL     1       0.727  -9.867  52.782  1.00  0.00     0.040 A 
HETATM   12  C   UNL     1       1.666 -10.175  53.767  1.00  0.00     0.101 A 
BRANCH   9  13
HETATM   13  C   UNL     1       1.944  -6.459  51.616  1.00  0.00     0.045 C 
HETATM   14  C   UNL     1       0.834  -6.192  50.598  1.00  0.00     0.132 C 
HETATM   15  N   UNL     1       1.415  -5.237  49.698  1.00  0.00    -0.360 N 
HETATM   16  C   UNL     1       2.803  -5.241  49.741  1.00  0.00     0.218 C 
HETATM   17  H   UNL     1       0.888  -4.645  49.115  1.00  0.00     0.162 HD
HETATM   18  O   UNL     1       3.569  -4.575  49.062  1.00  0.00    -0.274 OA
HETATM   19  C   UNL     1       3.213  -6.274  50.761  1.00  0.00     0.113 C 
ENDBRANCH   9  13
BRANCH  12  20
HETATM   20  O   UNL     1       1.566 -11.354  54.442  1.00  0.00    -0.353 OA
HETATM   21  C   UNL     1       0.466 -11.497  55.337  1.00  0.00     0.210 C 
ENDBRANCH  12  20
ENDBRANCH   1   7
TORSDOF 4
ENDMDL
MODEL 9
REMARK VINA RESULT:      -6.6      3.140      5.810
REMARK  4 active torsions:
REMARK  status: ('A' for Active; 'I' for Inactive)
REMARK    1  A    between atoms: O_1  and  C_5 
REMARK    2  A    between atoms: O_1  and  C_14 
REMARK    3  A    between atoms: O_2  and  C_18 
REMARK    4  A    between atoms: C_10  and  C_13 
ROOT
HETATM    1  O   UNL     1       0.984 -10.000  51.379  1.00  0.00    -0.343 OA
ENDROOT
BRANCH   1   2
HETATM    2  C   UNL     1       2.147  -9.931  50.564  1.00  0.00     0.129 C 
HETATM    3  C   UNL     1       1.849  -9.106  49.322  1.00  0.00     0.032 C 
HETATM    4  C   UNL     1       1.107 -10.067  48.394  1.00  0.00     0.002 C 
HETATM    5  C   UNL     1       1.487 -11.477  48.845  1.00  0.00     0.002 C 
HETATM    6  C   UNL     1       2.477 -11.302  49.994  1.00  0.00     0.032 C 
ENDBRANCH   1   2
BRANCH   1   7
HETATM    7  C   UNL     1       1.150 -10.470  52.655  1.00  0.00     0.103 A 
HETATM    8  C   UNL     1       1.940  -9.750  53.546  1.00  0.00     0.047 A 
HETATM    9  C   UNL     1       2.117 -10.218  54.846  1.00  0.00    -0.049 A 
HETATM   10  C   UNL     1       1.505 -11.405  55.251  1.00  0.00     0.010 A 
HETATM   11  C   UNL     1       0.714 -12.121  54.353  1.00  0.00     0.040 A 
HETATM   12  C   UNL     1       0.537 -11.653  53.052  1.00  0.00     0.101 A 
BRANCH   9  13
HETATM   13  C   UNL     1       2.975  -9.440  55.821  1.00  0.00     0.045 C 
HETATM   14  C   UNL     1       4.179  -8.715  55.217  1.00  0.00     0.132 C 
HETATM   15  N   UNL     1       5.065  -8.534  56.332  1.00  0.00    -0.360 N 
HETATM   16  C   UNL     1       4.800  -9.416  57.372  1.00  0.00     0.218 C 
HETATM   17  H   UNL     1       5.782  -7.860  56.357  1.00  0.00     0.162 HD
HETATM   18  O   UNL     1       5.411  -9.529  58.423  1.00  0.00    -0.274 OA
HETATM   19  C   UNL     1       3.630 -10.266  56.945  1.00  0.00     0.113 C 
ENDBRANCH   9  13
BRANCH  12  20
HETATM   20  O   UNL     1      -0.237 -12.363  52.184  1.00  0.00    -0.353 OA
HETATM   21  C   UNL     1      -1.589 -12.603  52.569  1.00  0.00     0.210 C 
ENDBRANCH  12  20
ENDBRANCH   1   7
TORSDOF 4
ENDMDL
