MODEL 1
REMARK VINA RESULT:      -7.4      0.000      0.000
REMARK  4 active torsions:
REMARK  status: ('A' for Active; 'I' for Inactive)
REMARK    1  A    between atoms: O_1  and  C_5 
REMARK    2  A    between atoms: O_1  and  C_14 
REMARK    3  A    between atoms: O_2  and  C_18 
REMARK    4  A    between atoms: C_10  and  C_13 
ROOT
HETATM    1  O   UNL     1       4.576  -4.394  59.306  1.00  0.00    -0.343 OA
ENDROOT
BRANCH   1   2
HETATM    2  C   UNL     1       4.413  -5.641  58.642  1.00  0.00     0.129 C 
HETATM    3  C   UNL     1       4.250  -5.401  57.148  1.00  0.00     0.032 C 
HETATM    4  C   UNL     1       2.790  -4.984  56.985  1.00  0.00     0.002 C 
HETATM    5  C   UNL     1       2.051  -5.522  58.209  1.00  0.00     0.002 C 
HETATM    6  C   UNL     1       3.090  -6.280  59.032  1.00  0.00     0.032 C 
ENDBRANCH   1   2
BRANCH   1   7
HETATM    7  C   UNL     1       5.658  -3.637  58.941  1.00  0.00     0.103 A 
HETATM    8  C   UNL     1       5.472  -2.563  58.076  1.00  0.00     0.047 A 
HETATM    9  C   UNL     1       6.564  -1.785  57.695  1.00  0.00    -0.049 A 
HETATM   10  C   UNL     1       7.837  -2.084  58.181  1.00  0.00     0.010 A 
HETATM   11  C   UNL     1       8.016  -3.161  59.048  1.00  0.00     0.040 A 
HETATM   12  C   UNL     1       6.924  -3.940  59.429  1.00  0.00     0.101 A 
BRANCH   9  13
HETATM   13  C   UNL     1       6.369  -0.615  56.755  1.00  0.00     0.045 C 
HETATM   14  C   UNL     1       5.024   0.106  56.857  1.00  0.00     0.132 C 
HETATM   15  N   UNL     1       4.888   0.760  55.586  1.00  0.00    -0.360 N 
HETATM   16  C   UNL     1       5.685   0.188  54.604  1.00  0.00     0.218 C 
HETATM   17  H   UNL     1       4.294   1.529  55.429  1.00  0.00     0.162 HD
HETATM   18  O   UNL     1       5.748   0.498  53.425  1.00  0.00    -0.274 OA
HETATM   19  C   UNL     1       6.442  -0.946  55.251  1.00  0.00     0.113 C 
ENDBRANCH   9  13
BRANCH  12  20
HETATM   20  O   UNL     1       7.112  -4.991  60.275  1.00  0.00    -0.353 OA
HETATM   21  C   UNL     1       8.392  -5.101  60.895  1.00  0.00     0.210 C 
ENDBRANCH  12  20
ENDBRANCH   1   7
TORSDOF 4
ENDMDL
MODEL 2
REMARK VINA RESULT:      -7.1      1.653      2.125
REMARK  4 active torsions:
REMARK  status: ('A' for Active; 'I' for Inactive)
REMARK    1  A    between atoms: O_1  and  C_5 
REMARK    2  A    between atoms: O_1  and  C_14 
REMARK    3  A    between atoms: O_2  and  C_18 
REMARK    4  A    between atoms: C_10  and  C_13 
ROOT
HETATM    1  O   UNL     1       5.210  -4.995  57.208  1.00  0.00    -0.343 OA
ENDROOT
BRANCH   1   2
HETATM    2  C   UNL     1       3.797  -4.945  57.049  1.00  0.00     0.129 C 
HETATM    3  C   UNL     1       3.135  -4.877  58.416  1.00  0.00     0.032 C 
HETATM    4  C   UNL     1       3.149  -6.318  58.921  1.00  0.00     0.002 C 
HETATM    5  C   UNL     1       3.274  -7.205  57.682  1.00  0.00     0.002 C 
HETATM    6  C   UNL     1       3.282  -6.259  56.483  1.00  0.00     0.032 C 
ENDBRANCH   1   2
BRANCH   1   7
HETATM    7  C   UNL     1       5.881  -3.803  57.139  1.00  0.00     0.103 A 
HETATM    8  C   UNL     1       5.952  -3.135  55.921  1.00  0.00     0.047 A 
HETATM    9  C   UNL     1       6.634  -1.922  55.836  1.00  0.00    -0.049 A 
HETATM   10  C   UNL     1       7.242  -1.382  56.970  1.00  0.00     0.010 A 
HETATM   11  C   UNL     1       7.167  -2.057  58.188  1.00  0.00     0.040 A 
HETATM   12  C   UNL     1       6.485  -3.271  58.273  1.00  0.00     0.101 A 
BRANCH   9  13
HETATM   13  C   UNL     1       6.715  -1.189  54.514  1.00  0.00     0.045 C 
HETATM   14  C   UNL     1       5.949   0.132  54.436  1.00  0.00     0.132 C 
HETATM   15  N   UNL     1       5.744   0.327  53.029  1.00  0.00    -0.360 N 
HETATM   16  C   UNL     1       5.850  -0.854  52.306  1.00  0.00     0.218 C 
HETATM   17  H   UNL     1       5.548   1.201  52.621  1.00  0.00     0.162 HD
HETATM   18  O   UNL     1       5.682  -1.008  51.106  1.00  0.00    -0.274 OA
HETATM   19  C   UNL     1       6.165  -1.951  53.293  1.00  0.00     0.113 C 
ENDBRANCH   9  13
BRANCH  12  20
HETATM   20  O   UNL     1       6.420  -3.921  59.468  1.00  0.00    -0.353 OA
HETATM   21  C   UNL     1       7.654  -4.163  60.142  1.00  0.00     0.210 C 
ENDBRANCH  12  20
ENDBRANCH   1   7
TORSDOF 4
ENDMDL
MODEL 3
REMARK VINA RESULT:      -7.0      3.058      6.106
REMARK  4 active torsions:
REMARK  status: ('A' for Active; 'I' for Inactive)
REMARK    1  A    between atoms: O_1  and  C_5 
REMARK    2  A    between atoms: O_1  and  C_14 
REMARK    3  A    between atoms: O_2  and  C_18 
REMARK    4  A    between atoms: C_10  and  C_13 
ROOT
HETATM    1  O   UNL     1       5.994  -3.126  55.005  1.00  0.00    -0.343 OA
ENDROOT
BRANCH   1   2
HETATM    2  C   UNL     1       4.949  -2.336  54.454  1.00  0.00     0.129 C 
HETATM    3  C   UNL     1       5.215  -2.105  52.974  1.00  0.00     0.032 C 
HETATM    4  C   UNL     1       6.247  -0.979  52.942  1.00  0.00     0.002 C 
HETATM    5  C   UNL     1       6.121  -0.244  54.276  1.00  0.00     0.002 C 
HETATM    6  C   UNL     1       4.986  -0.930  55.033  1.00  0.00     0.032 C 
ENDBRANCH   1   2
BRANCH   1   7
HETATM    7  C   UNL     1       5.745  -3.725  56.212  1.00  0.00     0.103 A 
HETATM    8  C   UNL     1       4.716  -4.657  56.307  1.00  0.00     0.047 A 
HETATM    9  C   UNL     1       4.452  -5.272  57.529  1.00  0.00    -0.049 A 
HETATM   10  C   UNL     1       5.216  -4.954  58.651  1.00  0.00     0.010 A 
HETATM   11  C   UNL     1       6.247  -4.020  58.549  1.00  0.00     0.040 A 
HETATM   12  C   UNL     1       6.511  -3.403  57.327  1.00  0.00     0.101 A 
BRANCH   9  13
HETATM   13  C   UNL     1       3.334  -6.287  57.639  1.00  0.00     0.045 C 
HETATM   14  C   UNL     1       3.170  -7.231  56.447  1.00  0.00     0.132 C 
HETATM   15  N   UNL     1       1.811  -7.681  56.549  1.00  0.00    -0.360 N 
HETATM   16  C   UNL     1       1.024  -6.828  57.312  1.00  0.00     0.218 C 
HETATM   17  H   UNL     1       1.473  -8.502  56.124  1.00  0.00     0.162 HD
HETATM   18  O   UNL     1      -0.173  -6.925  57.537  1.00  0.00    -0.274 OA
HETATM   19  C   UNL     1       1.914  -5.706  57.784  1.00  0.00     0.113 C 
ENDBRANCH   9  13
BRANCH  12  20
HETATM   20  O   UNL     1       7.520  -2.491  57.240  1.00  0.00    -0.353 OA
HETATM   21  C   UNL     1       7.335  -1.255  57.928  1.00  0.00     0.210 C 
ENDBRANCH  12  20
ENDBRANCH   1   7
TORSDOF 4
ENDMDL
MODEL 4
REMARK VINA RESULT:      -6.9      3.390      5.989
REMARK  4 active torsions:
REMARK  status: ('A' for Active; 'I' for Inactive)
REMARK    1  A    between atoms: O_1  and  C_5 
REMARK    2  A    between atoms: O_1  and  C_14 
REMARK    3  A    between atoms: O_2  and  C_18 
REMARK    4  A    between atoms: C_10  and  C_13 
ROOT
HETATM    1  O   UNL     1       4.263  -3.849  54.189  1.00  0.00    -0.343 OA
ENDROOT
BRANCH   1   2
HETATM    2  C   UNL     1       5.468  -3.787  53.438  1.00  0.00     0.129 C 
HETATM    3  C   UNL     1       5.290  -2.825  52.273  1.00  0.00     0.032 C 
HETATM    4  C   UNL     1       4.534  -3.634  51.221  1.00  0.00     0.002 C 
HETATM    5  C   UNL     1       4.792  -5.105  51.544  1.00  0.00     0.002 C 
HETATM    6  C   UNL     1       5.732  -5.116  52.748  1.00  0.00     0.032 C 
ENDBRANCH   1   2
BRANCH   1   7
HETATM    7  C   UNL     1       4.346  -4.384  55.448  1.00  0.00     0.103 A 
HETATM    8  C   UNL     1       5.204  -3.804  56.376  1.00  0.00     0.047 A 
HETATM    9  C   UNL     1       5.299  -4.340  57.659  1.00  0.00    -0.049 A 
HETATM   10  C   UNL     1       4.535  -5.453  58.009  1.00  0.00     0.010 A 
HETATM   11  C   UNL     1       3.676  -6.030  57.074  1.00  0.00     0.040 A 
HETATM   12  C   UNL     1       3.581  -5.494  55.789  1.00  0.00     0.101 A 
BRANCH   9  13
HETATM   13  C   UNL     1       6.230  -3.713  58.674  1.00  0.00     0.045 C 
HETATM   14  C   UNL     1       7.576  -3.226  58.133  1.00  0.00     0.132 C 
HETATM   15  N   UNL     1       8.420  -3.191  59.294  1.00  0.00    -0.360 N 
HETATM   16  C   UNL     1       7.945  -3.994  60.323  1.00  0.00     0.218 C 
HETATM   17  H   UNL     1       9.244  -2.656  59.354  1.00  0.00     0.162 HD
HETATM   18  O   UNL     1       8.470  -4.199  61.407  1.00  0.00    -0.274 OA
HETATM   19  C   UNL     1       6.665  -4.626  59.837  1.00  0.00     0.113 C 
ENDBRANCH   9  13
BRANCH  12  20
HETATM   20  O   UNL     1       2.740  -6.067  54.884  1.00  0.00    -0.353 OA
HETATM   21  C   UNL     1       3.132  -7.327  54.342  1.00  0.00     0.210 C 
ENDBRANCH  12  20
ENDBRANCH   1   7
TORSDOF 4
ENDMDL
MODEL 5
REMARK VINA RESULT:      -6.7      3.116      6.048
REMARK  4 active torsions:
REMARK  status: ('A' for Active; 'I' for Inactive)
REMARK    1  A    between atoms: O_1  and  C_5 
REMARK    2  A    between atoms: O_1  and  C_14 
REMARK    3  A    between atoms: O_2  and  C_18 
REMARK    4  A    between atoms: C_10  and  C_13 
ROOT
HETATM    1  O   UNL     1       4.670  -2.793  54.162  1.00  0.00    -0.343 OA
ENDROOT
BRANCH   1   2
HETATM    2  C   UNL     1       5.547  -3.123  53.093  1.00  0.00     0.129 C 
HETATM    3  C   UNL     1       5.065  -2.451  51.816  1.00  0.00     0.032 C 
HETATM    4  C   UNL     1       3.928  -3.343  51.320  1.00  0.00     0.002 C 
HETATM    5  C   UNL     1       4.155  -4.716  51.951  1.00  0.00     0.002 C 
HETATM    6  C   UNL     1       5.444  -4.604  52.761  1.00  0.00     0.032 C 
ENDBRANCH   1   2
BRANCH   1   7
HETATM    7  C   UNL     1       5.250  -2.370  55.329  1.00  0.00     0.103 A 
HETATM    8  C   UNL     1       5.772  -3.314  56.208  1.00  0.00     0.047 A 
HETATM    9  C   UNL     1       6.363  -2.896  57.399  1.00  0.00    -0.049 A 
HETATM   10  C   UNL     1       6.431  -1.537  57.706  1.00  0.00     0.010 A 
HETATM   11  C   UNL     1       5.908  -0.596  56.820  1.00  0.00     0.040 A 
HETATM   12  C   UNL     1       5.315  -1.014  55.629  1.00  0.00     0.101 A 
BRANCH   9  13
HETATM   13  C   UNL     1       6.932  -3.917  58.360  1.00  0.00     0.045 C 
HETATM   14  C   UNL     1       5.921  -4.606  59.279  1.00  0.00     0.132 C 
HETATM   15  N   UNL     1       6.718  -5.073  60.378  1.00  0.00    -0.360 N 
HETATM   16  C   UNL     1       7.924  -4.393  60.488  1.00  0.00     0.218 C 
HETATM   17  H   UNL     1       6.440  -5.794  60.986  1.00  0.00     0.162 HD
HETATM   18  O   UNL     1       8.782  -4.538  61.345  1.00  0.00    -0.274 OA
HETATM   19  C   UNL     1       7.968  -3.384  59.369  1.00  0.00     0.113 C 
ENDBRANCH   9  13
BRANCH  12  20
HETATM   20  O   UNL     1       4.805  -0.085  54.772  1.00  0.00    -0.353 OA
HETATM   21  C   UNL     1       5.729   0.575  53.908  1.00  0.00     0.210 C 
ENDBRANCH  12  20
ENDBRANCH   1   7
TORSDOF 4
ENDMDL
MODEL 6
REMARK VINA RESULT:      -6.6      3.304      6.167
REMARK  4 active torsions:
REMARK  status: ('A' for Active; 'I' for Inactive)
REMARK    1  A    between atoms: O_1  and  C_5 
REMARK    2  A    between atoms: O_1  and  C_14 
REMARK    3  A    between atoms: O_2  and  C_18 
REMARK    4  A    between atoms: C_10  and  C_13 
ROOT
HETATM    1  O   UNL     1       4.700  -2.510  57.588  1.00  0.00    -0.343 OA
ENDROOT
BRANCH   1   2
HETATM    2  C   UNL     1       5.694  -2.207  56.618  1.00  0.00     0.129 C 
HETATM    3  C   UNL     1       7.026  -1.972  57.313  1.00  0.00     0.032 C 
HETATM    4  C   UNL     1       6.934  -0.542  57.843  1.00  0.00     0.002 C 
HETATM    5  C   UNL     1       5.872   0.161  56.998  1.00  0.00     0.002 C 
HETATM    6  C   UNL     1       5.405  -0.863  55.966  1.00  0.00     0.032 C 
ENDBRANCH   1   2
BRANCH   1   7
HETATM    7  C   UNL     1       4.414  -3.835  57.786  1.00  0.00     0.103 A 
HETATM    8  C   UNL     1       3.654  -4.513  56.838  1.00  0.00     0.047 A 
HETATM    9  C   UNL     1       3.354  -5.861  57.028  1.00  0.00    -0.049 A 
HETATM   10  C   UNL     1       3.816  -6.526  58.165  1.00  0.00     0.010 A 
HETATM   11  C   UNL     1       4.578  -5.840  59.111  1.00  0.00     0.040 A 
HETATM   12  C   UNL     1       4.877  -4.491  58.921  1.00  0.00     0.101 A 
BRANCH   9  13
HETATM   13  C   UNL     1       2.528  -6.605  56.001  1.00  0.00     0.045 C 
HETATM   14  C   UNL     1       1.184  -7.147  56.491  1.00  0.00     0.132 C 
HETATM   15  N   UNL     1       0.880  -8.200  55.565  1.00  0.00    -0.360 N 
HETATM   16  C   UNL     1       2.006  -8.668  54.902  1.00  0.00     0.218 C 
HETATM   17  H   UNL     1      -0.027  -8.552  55.416  1.00  0.00     0.162 HD
HETATM   18  O   UNL     1       2.066  -9.583  54.094  1.00  0.00    -0.274 OA
HETATM   19  C   UNL     1       3.182  -7.866  55.402  1.00  0.00     0.113 C 
ENDBRANCH   9  13
BRANCH  12  20
HETATM   20  O   UNL     1       5.621  -3.832  59.853  1.00  0.00    -0.353 OA
HETATM   21  C   UNL     1       6.968  -4.267  60.032  1.00  0.00     0.210 C 
ENDBRANCH  12  20
ENDBRANCH   1   7
TORSDOF 4
ENDMDL
MODEL 7
REMARK VINA RESULT:      -6.6      2.766      4.707
REMARK  4 active torsions:
REMARK  status: ('A' for Active; 'I' for Inactive)
REMARK    1  A    between atoms: O_1  and  C_5 
REMARK    2  A    between atoms: O_1  and  C_14 
REMARK    3  A    between atoms: O_2  and  C_18 
REMARK    4  A    between atoms: C_10  and  C_13 
ROOT
HETATM    1  O   UNL     1       5.886  -4.095  57.073  1.00  0.00    -0.343 OA
ENDROOT
BRANCH   1   2
HETATM    2  C   UNL     1       5.863  -3.082  58.071  1.00  0.00     0.129 C 
HETATM    3  C   UNL     1       7.273  -2.553  58.288  1.00  0.00     0.032 C 
HETATM    4  C   UNL     1       7.938  -3.594  59.186  1.00  0.00     0.002 C 
HETATM    5  C   UNL     1       6.806  -4.337  59.893  1.00  0.00     0.002 C 
HETATM    6  C   UNL     1       5.510  -3.679  59.424  1.00  0.00     0.032 C 
ENDBRANCH   1   2
BRANCH   1   7
HETATM    7  C   UNL     1       5.167  -3.853  55.932  1.00  0.00     0.103 A 
HETATM    8  C   UNL     1       5.787  -3.214  54.863  1.00  0.00     0.047 A 
HETATM    9  C   UNL     1       5.066  -2.962  53.697  1.00  0.00    -0.049 A 
HETATM   10  C   UNL     1       3.729  -3.349  53.604  1.00  0.00     0.010 A 
HETATM   11  C   UNL     1       3.114  -3.990  54.680  1.00  0.00     0.040 A 
HETATM   12  C   UNL     1       3.835  -4.242  55.847  1.00  0.00     0.101 A 
BRANCH   9  13
HETATM   13  C   UNL     1       5.735  -2.267  52.530  1.00  0.00     0.045 C 
HETATM   14  C   UNL     1       6.020  -0.776  52.715  1.00  0.00     0.132 C 
HETATM   15  N   UNL     1       6.132  -0.279  51.373  1.00  0.00    -0.360 N 
HETATM   16  C   UNL     1       5.520  -1.109  50.444  1.00  0.00     0.218 C 
HETATM   17  H   UNL     1       6.592   0.559  51.138  1.00  0.00     0.162 HD
HETATM   18  O   UNL     1       5.415  -0.927  49.241  1.00  0.00    -0.274 OA
HETATM   19  C   UNL     1       4.949  -2.280  51.204  1.00  0.00     0.113 C 
ENDBRANCH   9  13
BRANCH  12  20
HETATM   20  O   UNL     1       3.222  -4.867  56.891  1.00  0.00    -0.353 OA
HETATM   21  C   UNL     1       3.203  -6.293  56.871  1.00  0.00     0.210 C 
ENDBRANCH  12  20
ENDBRANCH   1   7
TORSDOF 4
ENDMDL
MODEL 8
REMARK VINA RESULT:      -6.5      2.680      4.624
REMARK  4 active torsions:
REMARK  status: ('A' for Active; 'I' for Inactive)
REMARK    1  A    between atoms: O_1  and  C_5 
REMARK    2  A    between atoms: O_1  and  C_14 
REMARK    3  A    between atoms: O_2  and  C_18 
REMARK    4  A    between atoms: C_10  and  C_13 
ROOT
HETATM    1  O   UNL     1       5.960  -4.352  57.402  1.00  0.00    -0.343 OA
ENDROOT
BRANCH   1   2
HETATM    2  C   UNL     1       6.012  -3.288  58.344  1.00  0.00     0.129 C 
HETATM    3  C   UNL     1       7.414  -2.698  58.365  1.00  0.00     0.032 C 
HETATM    4  C   UNL     1       8.222  -3.665  59.228  1.00  0.00     0.002 C 
HETATM    5  C   UNL     1       7.212  -4.409  60.101  1.00  0.00     0.002 C 
HETATM    6  C   UNL     1       5.844  -3.823  59.757  1.00  0.00     0.032 C 
ENDBRANCH   1   2
BRANCH   1   7
HETATM    7  C   UNL     1       4.891  -4.365  56.544  1.00  0.00     0.103 A 
HETATM    8  C   UNL     1       4.825  -3.417  55.528  1.00  0.00     0.047 A 
HETATM    9  C   UNL     1       3.743  -3.419  54.650  1.00  0.00    -0.049 A 
HETATM   10  C   UNL     1       2.731  -4.369  54.791  1.00  0.00     0.010 A 
HETATM   11  C   UNL     1       2.804  -5.318  55.810  1.00  0.00     0.040 A 
HETATM   12  C   UNL     1       3.887  -5.315  56.690  1.00  0.00     0.101 A 
BRANCH   9  13
HETATM   13  C   UNL     1       3.665  -2.391  53.542  1.00  0.00     0.045 C 
HETATM   14  C   UNL     1       2.416  -2.453  52.660  1.00  0.00     0.132 C 
HETATM   15  N   UNL     1       2.818  -1.795  51.449  1.00  0.00    -0.360 N 
HETATM   16  C   UNL     1       4.198  -1.763  51.293  1.00  0.00     0.218 C 
HETATM   17  H   UNL     1       2.186  -1.410  50.801  1.00  0.00     0.162 HD
HETATM   18  O   UNL     1       4.827  -1.313  50.348  1.00  0.00    -0.274 OA
HETATM   19  C   UNL     1       4.797  -2.444  52.498  1.00  0.00     0.113 C 
ENDBRANCH   9  13
BRANCH  12  20
HETATM   20  O   UNL     1       3.945  -6.246  57.683  1.00  0.00    -0.353 OA
HETATM   21  C   UNL     1       3.049  -6.080  58.780  1.00  0.00     0.210 C 
ENDBRANCH  12  20
ENDBRANCH   1   7
TORSDOF 4
ENDMDL
MODEL 9
REMARK VINA RESULT:      -6.5      2.633      5.170
REMARK  4 active torsions:
REMARK  status: ('A' for Active; 'I' for Inactive)
REMARK    1  A    between atoms: O_1  and  C_5 
REMARK    2  A    between atoms: O_1  and  C_14 
REMARK    3  A    between atoms: O_2  and  C_18 
REMARK    4  A    between atoms: C_10  and  C_13 
ROOT
HETATM    1  O   UNL     1       3.464  -5.482  56.461  1.00  0.00    -0.343 OA
ENDROOT
BRANCH   1   2
HETATM    2  C   UNL     1       3.184  -6.266  57.613  1.00  0.00     0.129 C 
HETATM    3  C   UNL     1       2.472  -7.544  57.196  1.00  0.00     0.032 C 
HETATM    4  C   UNL     1       1.021  -7.120  56.982  1.00  0.00     0.002 C 
HETATM    5  C   UNL     1       0.825  -5.837  57.789  1.00  0.00     0.002 C 
HETATM    6  C   UNL     1       2.155  -5.571  58.490  1.00  0.00     0.032 C 
ENDBRANCH   1   2
BRANCH   1   7
HETATM    7  C   UNL     1       4.350  -4.448  56.617  1.00  0.00     0.103 A 
HETATM    8  C   UNL     1       5.240  -4.473  57.686  1.00  0.00     0.047 A 
HETATM    9  C   UNL     1       6.144  -3.426  57.857  1.00  0.00    -0.049 A 
HETATM   10  C   UNL     1       6.155  -2.359  56.959  1.00  0.00     0.010 A 
HETATM   11  C   UNL     1       5.261  -2.341  55.889  1.00  0.00     0.040 A 
HETATM   12  C   UNL     1       4.355  -3.387  55.718  1.00  0.00     0.101 A 
BRANCH   9  13
HETATM   13  C   UNL     1       7.115  -3.447  59.018  1.00  0.00     0.045 C 
HETATM   14  C   UNL     1       8.599  -3.452  58.646  1.00  0.00     0.132 C 
HETATM   15  N   UNL     1       9.243  -3.993  59.809  1.00  0.00    -0.360 N 
HETATM   16  C   UNL     1       8.372  -4.722  60.610  1.00  0.00     0.218 C 
HETATM   17  H   UNL     1      10.196  -3.863  60.017  1.00  0.00     0.162 HD
HETATM   18  O   UNL     1       8.640  -5.333  61.633  1.00  0.00    -0.274 OA
HETATM   19  C   UNL     1       7.016  -4.669  59.952  1.00  0.00     0.113 C 
ENDBRANCH   9  13
BRANCH  12  20
HETATM   20  O   UNL     1       3.486  -3.357  54.669  1.00  0.00    -0.353 OA
HETATM   21  C   UNL     1       3.597  -2.257  53.768  1.00  0.00     0.210 C 
ENDBRANCH  12  20
ENDBRANCH   1   7
TORSDOF 4
ENDMDL
