MODEL 1
REMARK VINA RESULT:      -7.3      0.000      0.000
REMARK  4 active torsions:
REMARK  status: ('A' for Active; 'I' for Inactive)
REMARK    1  A    between atoms: O_1  and  C_5 
REMARK    2  A    between atoms: O_1  and  C_14 
REMARK    3  A    between atoms: O_2  and  C_18 
REMARK    4  A    between atoms: C_10  and  C_13 
ROOT
HETATM    1  O   UNL     1       2.047  -9.793  55.850  1.00  0.00    -0.343 OA
ENDROOT
BRANCH   1   2
HETATM    2  C   UNL     1       1.873 -10.931  55.015  1.00  0.00     0.129 C 
HETATM    3  C   UNL     1       1.452 -10.479  53.625  1.00  0.00     0.032 C 
HETATM    4  C   UNL     1      -0.043 -10.192  53.752  1.00  0.00     0.002 C 
HETATM    5  C   UNL     1      -0.531 -10.987  54.962  1.00  0.00     0.002 C 
HETATM    6  C   UNL     1       0.683 -11.755  55.482  1.00  0.00     0.032 C 
ENDBRANCH   1   2
BRANCH   1   7
HETATM    7  C   UNL     1       3.249  -9.142  55.765  1.00  0.00     0.103 A 
HETATM    8  C   UNL     1       3.443  -8.207  54.753  1.00  0.00     0.047 A 
HETATM    9  C   UNL     1       4.663  -7.539  54.655  1.00  0.00    -0.049 A 
HETATM   10  C   UNL     1       5.682  -7.808  55.568  1.00  0.00     0.010 A 
HETATM   11  C   UNL     1       5.481  -8.746  56.580  1.00  0.00     0.040 A 
HETATM   12  C   UNL     1       4.261  -9.416  56.678  1.00  0.00     0.101 A 
BRANCH   9  13
HETATM   13  C   UNL     1       4.881  -6.520  53.557  1.00  0.00     0.045 C 
HETATM   14  C   UNL     1       4.408  -5.098  53.864  1.00  0.00     0.132 C 
HETATM   15  N   UNL     1       4.232  -4.507  52.567  1.00  0.00    -0.360 N 
HETATM   16  C   UNL     1       4.081  -5.457  51.565  1.00  0.00     0.218 C 
HETATM   17  H   UNL     1       4.220  -3.537  52.406  1.00  0.00     0.162 HD
HETATM   18  O   UNL     1       3.871  -5.258  50.379  1.00  0.00    -0.274 OA
HETATM   19  C   UNL     1       4.170  -6.812  52.222  1.00  0.00     0.113 C 
ENDBRANCH   9  13
BRANCH  12  20
HETATM   20  O   UNL     1       4.077 -10.331  57.670  1.00  0.00    -0.353 OA
HETATM   21  C   UNL     1       5.200 -10.620  58.501  1.00  0.00     0.210 C 
ENDBRANCH  12  20
ENDBRANCH   1   7
TORSDOF 4
ENDMDL
MODEL 2
REMARK VINA RESULT:      -7.2      2.813      5.748
REMARK  4 active torsions:
REMARK  status: ('A' for Active; 'I' for Inactive)
REMARK    1  A    between atoms: O_1  and  C_5 
REMARK    2  A    between atoms: O_1  and  C_14 
REMARK    3  A    between atoms: O_2  and  C_18 
REMARK    4  A    between atoms: C_10  and  C_13 
ROOT
HETATM    1  O   UNL     1       3.784  -7.882  54.286  1.00  0.00    -0.343 OA
ENDROOT
BRANCH   1   2
HETATM    2  C   UNL     1       2.905  -6.777  54.120  1.00  0.00     0.129 C 
HETATM    3  C   UNL     1       3.525  -5.775  53.158  1.00  0.00     0.032 C 
HETATM    4  C   UNL     1       4.532  -5.002  54.008  1.00  0.00     0.002 C 
HETATM    5  C   UNL     1       4.081  -5.163  55.459  1.00  0.00     0.002 C 
HETATM    6  C   UNL     1       2.796  -5.987  55.415  1.00  0.00     0.032 C 
ENDBRANCH   1   2
BRANCH   1   7
HETATM    7  C   UNL     1       3.253  -9.016  54.840  1.00  0.00     0.103 A 
HETATM    8  C   UNL     1       2.283  -9.725  54.137  1.00  0.00     0.047 A 
HETATM    9  C   UNL     1       1.734 -10.880  54.691  1.00  0.00    -0.049 A 
HETATM   10  C   UNL     1       2.156 -11.322  55.945  1.00  0.00     0.010 A 
HETATM   11  C   UNL     1       3.129 -10.607  56.644  1.00  0.00     0.040 A 
HETATM   12  C   UNL     1       3.678  -9.451  56.091  1.00  0.00     0.101 A 
BRANCH   9  13
HETATM   13  C   UNL     1       0.680 -11.656  53.932  1.00  0.00     0.045 C 
HETATM   14  C   UNL     1       0.642 -11.426  52.420  1.00  0.00     0.132 C 
HETATM   15  N   UNL     1      -0.690 -11.812  52.047  1.00  0.00    -0.360 N 
HETATM   16  C   UNL     1      -1.570 -11.794  53.121  1.00  0.00     0.218 C 
HETATM   17  H   UNL     1      -0.950 -12.061  51.132  1.00  0.00     0.162 HD
HETATM   18  O   UNL     1      -2.768 -12.029  53.103  1.00  0.00    -0.274 OA
HETATM   19  C   UNL     1      -0.780 -11.372  54.335  1.00  0.00     0.113 C 
ENDBRANCH   9  13
BRANCH  12  20
HETATM   20  O   UNL     1       4.626  -8.761  56.785  1.00  0.00    -0.353 OA
HETATM   21  C   UNL     1       5.497  -9.520  57.621  1.00  0.00     0.210 C 
ENDBRANCH  12  20
ENDBRANCH   1   7
TORSDOF 4
ENDMDL
MODEL 3
REMARK VINA RESULT:      -7.1      2.480      5.156
REMARK  4 active torsions:
REMARK  status: ('A' for Active; 'I' for Inactive)
REMARK    1  A    between atoms: O_1  and  C_5 
REMARK    2  A    between atoms: O_1  and  C_14 
REMARK    3  A    between atoms: O_2  and  C_18 
REMARK    4  A    between atoms: C_10  and  C_13 
ROOT
HETATM    1  O   UNL     1       1.212 -10.271  53.357  1.00  0.00    -0.343 OA
ENDROOT
BRANCH   1   2
HETATM    2  C   UNL     1       0.750 -11.299  54.224  1.00  0.00     0.129 C 
HETATM    3  C   UNL     1       0.476 -12.558  53.416  1.00  0.00     0.032 C 
HETATM    4  C   UNL     1      -0.891 -12.314  52.780  1.00  0.00     0.002 C 
HETATM    5  C   UNL     1      -1.582 -11.257  53.640  1.00  0.00     0.002 C 
HETATM    6  C   UNL     1      -0.619 -10.945  54.784  1.00  0.00     0.032 C 
ENDBRANCH   1   2
BRANCH   1   7
HETATM    7  C   UNL     1       2.039  -9.326  53.904  1.00  0.00     0.103 A 
HETATM    8  C   UNL     1       2.784  -9.650  55.034  1.00  0.00     0.047 A 
HETATM    9  C   UNL     1       3.629  -8.697  55.602  1.00  0.00    -0.049 A 
HETATM   10  C   UNL     1       3.725  -7.425  55.037  1.00  0.00     0.010 A 
HETATM   11  C   UNL     1       2.977  -7.108  53.904  1.00  0.00     0.040 A 
HETATM   12  C   UNL     1       2.131  -8.060  53.337  1.00  0.00     0.101 A 
BRANCH   9  13
HETATM   13  C   UNL     1       4.442  -9.043  56.830  1.00  0.00     0.045 C 
HETATM   14  C   UNL     1       5.960  -9.058  56.643  1.00  0.00     0.132 C 
HETATM   15  N   UNL     1       6.430  -9.889  57.715  1.00  0.00    -0.360 N 
HETATM   16  C   UNL     1       5.439 -10.722  58.217  1.00  0.00     0.218 C 
HETATM   17  H   UNL     1       7.353  -9.871  58.057  1.00  0.00     0.162 HD
HETATM   18  O   UNL     1       5.551 -11.565  59.094  1.00  0.00    -0.274 OA
HETATM   19  C   UNL     1       4.180 -10.435  57.436  1.00  0.00     0.113 C 
ENDBRANCH   9  13
BRANCH  12  20
HETATM   20  O   UNL     1       1.403  -7.737  52.231  1.00  0.00    -0.353 OA
HETATM   21  C   UNL     1       1.737  -6.518  51.570  1.00  0.00     0.210 C 
ENDBRANCH  12  20
ENDBRANCH   1   7
TORSDOF 4
ENDMDL
MODEL 4
REMARK VINA RESULT:      -7.0      3.046      6.025
REMARK  4 active torsions:
REMARK  status: ('A' for Active; 'I' for Inactive)
REMARK    1  A    between atoms: O_1  and  C_5 
REMARK    2  A    between atoms: O_1  and  C_14 
REMARK    3  A    between atoms: O_2  and  C_18 
REMARK    4  A    between atoms: C_10  and  C_13 
ROOT
HETATM    1  O   UNL     1       3.520  -7.945  52.916  1.00  0.00    -0.343 OA
ENDROOT
BRANCH   1   2
HETATM    2  C   UNL     1       2.852  -6.690  52.911  1.00  0.00     0.129 C 
HETATM    3  C   UNL     1       1.931  -6.610  51.703  1.00  0.00     0.032 C 
HETATM    4  C   UNL     1       2.856  -6.259  50.540  1.00  0.00     0.002 C 
HETATM    5  C   UNL     1       4.096  -5.614  51.158  1.00  0.00     0.002 C 
HETATM    6  C   UNL     1       3.842  -5.563  52.663  1.00  0.00     0.032 C 
ENDBRANCH   1   2
BRANCH   1   7
HETATM    7  C   UNL     1       3.147  -8.840  53.883  1.00  0.00     0.103 A 
HETATM    8  C   UNL     1       2.105  -9.725  53.624  1.00  0.00     0.047 A 
HETATM    9  C   UNL     1       1.715 -10.639  54.601  1.00  0.00    -0.049 A 
HETATM   10  C   UNL     1       2.369 -10.666  55.833  1.00  0.00     0.010 A 
HETATM   11  C   UNL     1       3.414  -9.777  56.086  1.00  0.00     0.040 A 
HETATM   12  C   UNL     1       3.803  -8.861  55.109  1.00  0.00     0.101 A 
BRANCH   9  13
HETATM   13  C   UNL     1       0.583 -11.605  54.326  1.00  0.00     0.045 C 
HETATM   14  C   UNL     1       0.753 -12.500  53.097  1.00  0.00     0.132 C 
HETATM   15  N   UNL     1      -0.588 -12.890  52.767  1.00  0.00    -0.360 N 
HETATM   16  C   UNL     1      -1.539 -12.028  53.298  1.00  0.00     0.218 C 
HETATM   17  H   UNL     1      -0.810 -13.680  52.225  1.00  0.00     0.162 HD
HETATM   18  O   UNL     1      -2.750 -12.077  53.149  1.00  0.00    -0.274 OA
HETATM   19  C   UNL     1      -0.795 -10.964  54.065  1.00  0.00     0.113 C 
ENDBRANCH   9  13
BRANCH  12  20
HETATM   20  O   UNL     1       4.824  -7.997  55.370  1.00  0.00    -0.353 OA
HETATM   21  C   UNL     1       4.532  -6.887  56.216  1.00  0.00     0.210 C 
ENDBRANCH  12  20
ENDBRANCH   1   7
TORSDOF 4
ENDMDL
MODEL 5
REMARK VINA RESULT:      -6.9      2.573      6.039
REMARK  4 active torsions:
REMARK  status: ('A' for Active; 'I' for Inactive)
REMARK    1  A    between atoms: O_1  and  C_5 
REMARK    2  A    between atoms: O_1  and  C_14 
REMARK    3  A    between atoms: O_2  and  C_18 
REMARK    4  A    between atoms: C_10  and  C_13 
ROOT
HETATM    1  O   UNL     1       2.262  -7.837  52.001  1.00  0.00    -0.343 OA
ENDROOT
BRANCH   1   2
HETATM    2  C   UNL     1       3.562  -7.595  51.479  1.00  0.00     0.129 C 
HETATM    3  C   UNL     1       3.518  -6.397  50.543  1.00  0.00     0.032 C 
HETATM    4  C   UNL     1       2.963  -6.955  49.234  1.00  0.00     0.002 C 
HETATM    5  C   UNL     1       3.236  -8.458  49.259  1.00  0.00     0.002 C 
HETATM    6  C   UNL     1       3.985  -8.732  50.562  1.00  0.00     0.032 C 
ENDBRANCH   1   2
BRANCH   1   7
HETATM    7  C   UNL     1       2.164  -8.752  53.016  1.00  0.00     0.103 A 
HETATM    8  C   UNL     1       2.930  -8.577  54.164  1.00  0.00     0.047 A 
HETATM    9  C   UNL     1       2.841  -9.502  55.203  1.00  0.00    -0.049 A 
HETATM   10  C   UNL     1       1.985 -10.598  55.090  1.00  0.00     0.010 A 
HETATM   11  C   UNL     1       1.219 -10.767  53.937  1.00  0.00     0.040 A 
HETATM   12  C   UNL     1       1.309  -9.842  52.897  1.00  0.00     0.101 A 
BRANCH   9  13
HETATM   13  C   UNL     1       3.672  -9.318  56.454  1.00  0.00     0.045 C 
HETATM   14  C   UNL     1       5.092  -8.791  56.240  1.00  0.00     0.132 C 
HETATM   15  N   UNL     1       5.793  -9.203  57.423  1.00  0.00    -0.360 N 
HETATM   16  C   UNL     1       5.165 -10.257  58.074  1.00  0.00     0.218 C 
HETATM   17  H   UNL     1       6.626  -8.786  57.738  1.00  0.00     0.162 HD
HETATM   18  O   UNL     1       5.547 -10.845  59.074  1.00  0.00    -0.274 OA
HETATM   19  C   UNL     1       3.925 -10.592  57.284  1.00  0.00     0.113 C 
ENDBRANCH   9  13
BRANCH  12  20
HETATM   20  O   UNL     1       0.556 -10.020  51.775  1.00  0.00    -0.353 OA
HETATM   21  C   UNL     1       1.012 -10.994  50.837  1.00  0.00     0.210 C 
ENDBRANCH  12  20
ENDBRANCH   1   7
TORSDOF 4
ENDMDL
MODEL 6
REMARK VINA RESULT:      -6.6      1.922      4.255
REMARK  4 active torsions:
REMARK  status: ('A' for Active; 'I' for Inactive)
REMARK    1  A    between atoms: O_1  and  C_5 
REMARK    2  A    between atoms: O_1  and  C_14 
REMARK    3  A    between atoms: O_2  and  C_18 
REMARK    4  A    between atoms: C_10  and  C_13 
ROOT
HETATM    1  O   UNL     1       3.624  -9.573  55.016  1.00  0.00    -0.343 OA
ENDROOT
BRANCH   1   2
HETATM    2  C   UNL     1       3.559  -8.830  56.227  1.00  0.00     0.129 C 
HETATM    3  C   UNL     1       4.947  -8.323  56.587  1.00  0.00     0.032 C 
HETATM    4  C   UNL     1       5.641  -9.527  57.221  1.00  0.00     0.002 C 
HETATM    5  C   UNL     1       4.529 -10.454  57.711  1.00  0.00     0.002 C 
HETATM    6  C   UNL     1       3.215  -9.744  57.392  1.00  0.00     0.032 C 
ENDBRANCH   1   2
BRANCH   1   7
HETATM    7  C   UNL     1       2.707  -9.260  54.048  1.00  0.00     0.103 A 
HETATM    8  C   UNL     1       2.834  -8.060  53.355  1.00  0.00     0.047 A 
HETATM    9  C   UNL     1       1.906  -7.729  52.370  1.00  0.00    -0.049 A 
HETATM   10  C   UNL     1       0.854  -8.599  52.081  1.00  0.00     0.010 A 
HETATM   11  C   UNL     1       0.733  -9.801  52.779  1.00  0.00     0.040 A 
HETATM   12  C   UNL     1       1.661 -10.131  53.766  1.00  0.00     0.101 A 
BRANCH   9  13
HETATM   13  C   UNL     1       2.039  -6.426  51.612  1.00  0.00     0.045 C 
HETATM   14  C   UNL     1       0.986  -6.173  50.530  1.00  0.00     0.132 C 
HETATM   15  N   UNL     1       1.612  -5.219  49.659  1.00  0.00    -0.360 N 
HETATM   16  C   UNL     1       2.996  -5.213  49.781  1.00  0.00     0.218 C 
HETATM   17  H   UNL     1       1.116  -4.634  49.043  1.00  0.00     0.162 HD
HETATM   18  O   UNL     1       3.794  -4.546  49.142  1.00  0.00    -0.274 OA
HETATM   19  C   UNL     1       3.353  -6.238  50.829  1.00  0.00     0.113 C 
ENDBRANCH   9  13
BRANCH  12  20
HETATM   20  O   UNL     1       1.530 -11.307  54.442  1.00  0.00    -0.353 OA
HETATM   21  C   UNL     1       0.589 -12.248  53.928  1.00  0.00     0.210 C 
ENDBRANCH  12  20
ENDBRANCH   1   7
TORSDOF 4
ENDMDL
MODEL 7
REMARK VINA RESULT:      -6.6      2.964      5.552
REMARK  4 active torsions:
REMARK  status: ('A' for Active; 'I' for Inactive)
REMARK    1  A    between atoms: O_1  and  C_5 
REMARK    2  A    between atoms: O_1  and  C_14 
REMARK    3  A    between atoms: O_2  and  C_18 
REMARK    4  A    between atoms: C_10  and  C_13 
ROOT
HETATM    1  O   UNL     1       2.225  -7.805  55.376  1.00  0.00    -0.343 OA
ENDROOT
BRANCH   1   2
HETATM    2  C   UNL     1       3.345  -7.256  54.694  1.00  0.00     0.129 C 
HETATM    3  C   UNL     1       4.419  -6.880  55.703  1.00  0.00     0.032 C 
HETATM    4  C   UNL     1       3.955  -5.540  56.273  1.00  0.00     0.002 C 
HETATM    5  C   UNL     1       3.009  -4.938  55.235  1.00  0.00     0.002 C 
HETATM    6  C   UNL     1       2.981  -5.920  54.066  1.00  0.00     0.032 C 
ENDBRANCH   1   2
BRANCH   1   7
HETATM    7  C   UNL     1       1.855  -9.079  55.033  1.00  0.00     0.103 A 
HETATM    8  C   UNL     1       1.297  -9.309  53.780  1.00  0.00     0.047 A 
HETATM    9  C   UNL     1       0.916 -10.600  53.419  1.00  0.00    -0.049 A 
HETATM   10  C   UNL     1       1.094 -11.656  54.313  1.00  0.00     0.010 A 
HETATM   11  C   UNL     1       1.655 -11.419  55.568  1.00  0.00     0.040 A 
HETATM   12  C   UNL     1       2.036 -10.127  55.929  1.00  0.00     0.101 A 
BRANCH   9  13
HETATM   13  C   UNL     1       0.309 -10.857  52.057  1.00  0.00     0.045 C 
HETATM   14  C   UNL     1       0.503  -9.750  51.020  1.00  0.00     0.132 C 
HETATM   15  N   UNL     1      -0.555  -9.974  50.076  1.00  0.00    -0.360 N 
HETATM   16  C   UNL     1      -1.595 -10.725  50.608  1.00  0.00     0.218 C 
HETATM   17  H   UNL     1      -0.544  -9.633  49.152  1.00  0.00     0.162 HD
HETATM   18  O   UNL     1      -2.642 -11.035  50.062  1.00  0.00    -0.274 OA
HETATM   19  C   UNL     1      -1.220 -11.055  52.032  1.00  0.00     0.113 C 
ENDBRANCH   9  13
BRANCH  12  20
HETATM   20  O   UNL     1       2.581  -9.908  57.158  1.00  0.00    -0.353 OA
HETATM   21  C   UNL     1       3.952 -10.261  57.331  1.00  0.00     0.210 C 
ENDBRANCH  12  20
ENDBRANCH   1   7
TORSDOF 4
ENDMDL
MODEL 8
REMARK VINA RESULT:      -6.6      2.205      3.370
REMARK  4 active torsions:
REMARK  status: ('A' for Active; 'I' for Inactive)
REMARK    1  A    between atoms: O_1  and  C_5 
REMARK    2  A    between atoms: O_1  and  C_14 
REMARK    3  A    between atoms: O_2  and  C_18 
REMARK    4  A    between atoms: C_10  and  C_13 
ROOT
HETATM    1  O   UNL     1       0.978 -11.584  53.325  1.00  0.00    -0.343 OA
ENDROOT
BRANCH   1   2
HETATM    2  C   UNL     1       0.438 -11.289  52.044  1.00  0.00     0.129 C 
HETATM    3  C   UNL     1      -0.865 -10.521  52.207  1.00  0.00     0.032 C 
HETATM    4  C   UNL     1      -1.902 -11.595  52.531  1.00  0.00     0.002 C 
HETATM    5  C   UNL     1      -1.335 -12.912  52.005  1.00  0.00     0.002 C 
HETATM    6  C   UNL     1      -0.001 -12.566  51.346  1.00  0.00     0.032 C 
ENDBRANCH   1   2
BRANCH   1   7
HETATM    7  C   UNL     1       1.391 -10.520  54.082  1.00  0.00     0.103 A 
HETATM    8  C   UNL     1       2.266  -9.591  53.527  1.00  0.00     0.047 A 
HETATM    9  C   UNL     1       2.695  -8.505  54.287  1.00  0.00    -0.049 A 
HETATM   10  C   UNL     1       2.248  -8.351  55.599  1.00  0.00     0.010 A 
HETATM   11  C   UNL     1       1.371  -9.284  56.150  1.00  0.00     0.040 A 
HETATM   12  C   UNL     1       0.942 -10.372  55.390  1.00  0.00     0.101 A 
BRANCH   9  13
HETATM   13  C   UNL     1       3.646  -7.491  53.688  1.00  0.00     0.045 C 
HETATM   14  C   UNL     1       4.977  -7.310  54.421  1.00  0.00     0.132 C 
HETATM   15  N   UNL     1       5.419  -6.007  54.013  1.00  0.00    -0.360 N 
HETATM   16  C   UNL     1       4.382  -5.216  53.538  1.00  0.00     0.218 C 
HETATM   17  H   UNL     1       6.356  -5.707  54.064  1.00  0.00     0.162 HD
HETATM   18  O   UNL     1       4.444  -4.055  53.165  1.00  0.00    -0.274 OA
HETATM   19  C   UNL     1       3.123  -6.043  53.615  1.00  0.00     0.113 C 
ENDBRANCH   9  13
BRANCH  12  20
HETATM   20  O   UNL     1       0.086 -11.278  55.940  1.00  0.00    -0.353 OA
HETATM   21  C   UNL     1      -1.278 -10.884  56.070  1.00  0.00     0.210 C 
ENDBRANCH  12  20
ENDBRANCH   1   7
TORSDOF 4
ENDMDL
MODEL 9
REMARK VINA RESULT:      -6.5      1.856      4.178
REMARK  4 active torsions:
REMARK  status: ('A' for Active; 'I' for Inactive)
REMARK    1  A    between atoms: O_1  and  C_5 
REMARK    2  A    between atoms: O_1  and  C_14 
REMARK    3  A    between atoms: O_2  and  C_18 
REMARK    4  A    between atoms: C_10  and  C_13 
ROOT
HETATM    1  O   UNL     1       3.420  -9.351  54.679  1.00  0.00    -0.343 OA
ENDROOT
BRANCH   1   2
HETATM    2  C   UNL     1       3.254  -8.605  55.878  1.00  0.00     0.129 C 
HETATM    3  C   UNL     1       4.596  -8.035  56.310  1.00  0.00     0.032 C 
HETATM    4  C   UNL     1       5.306  -9.203  56.992  1.00  0.00     0.002 C 
HETATM    5  C   UNL     1       4.210 -10.176  57.427  1.00  0.00     0.002 C 
HETATM    6  C   UNL     1       2.886  -9.527  57.029  1.00  0.00     0.032 C 
ENDBRANCH   1   2
BRANCH   1   7
HETATM    7  C   UNL     1       2.708  -8.932  53.586  1.00  0.00     0.103 A 
HETATM    8  C   UNL     1       3.284  -8.015  52.713  1.00  0.00     0.047 A 
HETATM    9  C   UNL     1       2.569  -7.579  51.598  1.00  0.00    -0.049 A 
HETATM   10  C   UNL     1       1.282  -8.062  51.361  1.00  0.00     0.010 A 
HETATM   11  C   UNL     1       0.711  -8.982  52.240  1.00  0.00     0.040 A 
HETATM   12  C   UNL     1       1.426  -9.417  53.356  1.00  0.00     0.101 A 
BRANCH   9  13
HETATM   13  C   UNL     1       3.190  -6.581  50.644  1.00  0.00     0.045 C 
HETATM   14  C   UNL     1       3.959  -5.428  51.292  1.00  0.00     0.132 C 
HETATM   15  N   UNL     1       3.968  -4.410  50.280  1.00  0.00    -0.360 N 
HETATM   16  C   UNL     1       2.962  -4.586  49.338  1.00  0.00     0.218 C 
HETATM   17  H   UNL     1       4.615  -3.669  50.256  1.00  0.00     0.162 HD
HETATM   18  O   UNL     1       2.695  -3.860  48.393  1.00  0.00    -0.274 OA
HETATM   19  C   UNL     1       2.205  -5.832  49.725  1.00  0.00     0.113 C 
ENDBRANCH   9  13
BRANCH  12  20
HETATM   20  O   UNL     1       0.856 -10.315  54.208  1.00  0.00    -0.353 OA
HETATM   21  C   UNL     1       0.945 -11.693  53.852  1.00  0.00     0.210 C 
ENDBRANCH  12  20
ENDBRANCH   1   7
TORSDOF 4
ENDMDL
