MODEL 1
REMARK VINA RESULT:      -7.4      0.000      0.000
REMARK  9 active torsions:
REMARK  status: ('A' for Active; 'I' for Inactive)
REMARK    1  A    between atoms: C_3  and  C_8 
REMARK    2  A    between atoms: C_5  and  O_7 
REMARK    3  A    between atoms: C_8  and  C_9 
REMARK    4  A    between atoms: C_9  and  C_10 
REMARK    5  A    between atoms: C_9  and  O_20 
REMARK    6  A    between atoms: C_10  and  C_11 
REMARK    7  A    between atoms: C_12  and  O_19 
REMARK    8  A    between atoms: C_14  and  O_18 
REMARK    9  A    between atoms: C_16  and  O_17 
ROOT
HETATM    1  C   UNL     1     -53.399  50.049  12.154  1.00  0.00     0.003 A 
HETATM    2  C   UNL     1     -53.774  48.766  11.805  1.00  0.00     0.007 A 
HETATM    3  C   UNL     1     -54.122  48.476  10.498  1.00  0.00    -0.053 A 
HETATM    4  C   UNL     1     -54.097  49.469   9.540  1.00  0.00     0.043 A 
HETATM    5  C   UNL     1     -53.722  50.759   9.888  1.00  0.00     0.066 A 
HETATM    6  C   UNL     1     -53.372  51.046  11.199  1.00  0.00     0.036 A 
ENDROOT
BRANCH   3   7
HETATM    7  C   UNL     1     -54.530  47.075  10.121  1.00  0.00     0.070 C 
BRANCH   7   8
HETATM    8  C   UNL     1     -54.103  46.790   8.679  1.00  0.00     0.127 C 
BRANCH   8   9
HETATM    9  C   UNL     1     -52.624  46.400   8.653  1.00  0.00     0.076 C 
BRANCH   9  10
HETATM   10  C   UNL     1     -52.168  46.258   7.224  1.00  0.00     0.011 A 
HETATM   11  C   UNL     1     -51.717  47.368   6.525  1.00  0.00     0.077 A 
HETATM   12  C   UNL     1     -51.297  47.236   5.210  1.00  0.00     0.073 A 
HETATM   13  C   UNL     1     -51.329  45.994   4.593  1.00  0.00     0.071 A 
HETATM   14  C   UNL     1     -51.779  44.884   5.292  1.00  0.00     0.073 A 
HETATM   15  C   UNL     1     -52.194  45.015   6.608  1.00  0.00     0.077 A 
BRANCH  11  16
HETATM   16  O   UNL     1     -51.687  48.584   7.129  1.00  0.00    -0.360 OA
HETATM   17  H   UNL     1     -52.415  49.167   7.046  1.00  0.00     0.217 HD
ENDBRANCH  11  16
BRANCH  13  18
HETATM   18  O   UNL     1     -50.918  45.865   3.304  1.00  0.00    -0.361 OA
HETATM   19  H   UNL     1     -51.496  45.499   2.663  1.00  0.00     0.217 HD
ENDBRANCH  13  18
BRANCH  15  20
HETATM   20  O   UNL     1     -52.636  43.927   7.293  1.00  0.00    -0.360 OA
HETATM   21  H   UNL     1     -52.295  43.078   7.092  1.00  0.00     0.217 HD
ENDBRANCH  15  20
ENDBRANCH   9  10
ENDBRANCH   8   9
BRANCH   8  22
HETATM   22  O   UNL     1     -54.888  45.717   8.154  1.00  0.00    -0.395 OA
HETATM   23  H   UNL     1     -54.795  45.691   7.188  1.00  0.00     0.210 HD
ENDBRANCH   8  22
ENDBRANCH   7   8
ENDBRANCH   3   7
BRANCH   5  24
HETATM   24  O   UNL     1     -53.696  51.738   8.945  1.00  0.00    -0.361 OA
HETATM   25  H   UNL     1     -53.919  52.618   9.178  1.00  0.00     0.217 HD
ENDBRANCH   5  24
TORSDOF 9
ENDMDL
MODEL 2
REMARK VINA RESULT:      -7.4      0.021      1.848
REMARK  9 active torsions:
REMARK  status: ('A' for Active; 'I' for Inactive)
REMARK    1  A    between atoms: C_3  and  C_8 
REMARK    2  A    between atoms: C_5  and  O_7 
REMARK    3  A    between atoms: C_8  and  C_9 
REMARK    4  A    between atoms: C_9  and  C_10 
REMARK    5  A    between atoms: C_9  and  O_20 
REMARK    6  A    between atoms: C_10  and  C_11 
REMARK    7  A    between atoms: C_12  and  O_19 
REMARK    8  A    between atoms: C_14  and  O_18 
REMARK    9  A    between atoms: C_16  and  O_17 
ROOT
HETATM    1  C   UNL     1     -53.404  50.025  12.155  1.00  0.00     0.003 A 
HETATM    2  C   UNL     1     -53.776  48.741  11.806  1.00  0.00     0.007 A 
HETATM    3  C   UNL     1     -54.124  48.450  10.499  1.00  0.00    -0.053 A 
HETATM    4  C   UNL     1     -54.101  49.444   9.541  1.00  0.00     0.043 A 
HETATM    5  C   UNL     1     -53.728  50.734   9.889  1.00  0.00     0.066 A 
HETATM    6  C   UNL     1     -53.378  51.022  11.200  1.00  0.00     0.036 A 
ENDROOT
BRANCH   3   7
HETATM    7  C   UNL     1     -54.530  47.049  10.122  1.00  0.00     0.070 C 
BRANCH   7   8
HETATM    8  C   UNL     1     -54.105  46.765   8.679  1.00  0.00     0.127 C 
BRANCH   8   9
HETATM    9  C   UNL     1     -52.624  46.381   8.649  1.00  0.00     0.076 C 
BRANCH   9  10
HETATM   10  C   UNL     1     -52.169  46.246   7.219  1.00  0.00     0.011 A 
HETATM   11  C   UNL     1     -52.198  45.007   6.596  1.00  0.00     0.077 A 
HETATM   12  C   UNL     1     -51.780  44.883   5.280  1.00  0.00     0.073 A 
HETATM   13  C   UNL     1     -51.331  45.997   4.587  1.00  0.00     0.071 A 
HETATM   14  C   UNL     1     -51.303  47.236   5.210  1.00  0.00     0.073 A 
HETATM   15  C   UNL     1     -51.727  47.361   6.524  1.00  0.00     0.077 A 
BRANCH  11  16
HETATM   16  O   UNL     1     -52.637  43.915   7.276  1.00  0.00    -0.360 OA
HETATM   17  H   UNL     1     -53.372  43.430   6.958  1.00  0.00     0.217 HD
ENDBRANCH  11  16
BRANCH  13  18
HETATM   18  O   UNL     1     -50.919  45.876   3.298  1.00  0.00    -0.361 OA
HETATM   19  H   UNL     1     -51.432  45.382   2.688  1.00  0.00     0.217 HD
ENDBRANCH  13  18
BRANCH  15  20
HETATM   20  O   UNL     1     -51.698  48.575   7.135  1.00  0.00    -0.360 OA
HETATM   21  H   UNL     1     -50.883  48.933   7.427  1.00  0.00     0.217 HD
ENDBRANCH  15  20
ENDBRANCH   9  10
ENDBRANCH   8   9
BRANCH   8  22
HETATM   22  O   UNL     1     -54.887  45.690   8.156  1.00  0.00    -0.395 OA
HETATM   23  H   UNL     1     -55.830  45.896   8.258  1.00  0.00     0.210 HD
ENDBRANCH   8  22
ENDBRANCH   7   8
ENDBRANCH   3   7
BRANCH   5  24
HETATM   24  O   UNL     1     -53.703  51.713   8.946  1.00  0.00    -0.361 OA
HETATM   25  H   UNL     1     -52.991  51.760   8.338  1.00  0.00     0.217 HD
ENDBRANCH   5  24
TORSDOF 9
ENDMDL
MODEL 3
REMARK VINA RESULT:      -7.3      1.349      1.662
REMARK  9 active torsions:
REMARK  status: ('A' for Active; 'I' for Inactive)
REMARK    1  A    between atoms: C_3  and  C_8 
REMARK    2  A    between atoms: C_5  and  O_7 
REMARK    3  A    between atoms: C_8  and  C_9 
REMARK    4  A    between atoms: C_9  and  C_10 
REMARK    5  A    between atoms: C_9  and  O_20 
REMARK    6  A    between atoms: C_10  and  C_11 
REMARK    7  A    between atoms: C_12  and  O_19 
REMARK    8  A    between atoms: C_14  and  O_18 
REMARK    9  A    between atoms: C_16  and  O_17 
ROOT
HETATM    1  C   UNL     1     -53.393  49.836  11.980  1.00  0.00     0.003 A 
HETATM    2  C   UNL     1     -53.303  48.674  11.237  1.00  0.00     0.007 A 
HETATM    3  C   UNL     1     -53.373  48.727   9.856  1.00  0.00    -0.053 A 
HETATM    4  C   UNL     1     -53.532  49.940   9.218  1.00  0.00     0.043 A 
HETATM    5  C   UNL     1     -53.622  51.108   9.962  1.00  0.00     0.066 A 
HETATM    6  C   UNL     1     -53.552  51.053  11.346  1.00  0.00     0.036 A 
ENDROOT
BRANCH   3   7
HETATM    7  C   UNL     1     -53.274  47.458   9.049  1.00  0.00     0.070 C 
BRANCH   7   8
HETATM    8  C   UNL     1     -52.894  47.799   7.606  1.00  0.00     0.127 C 
BRANCH   8   9
HETATM    9  C   UNL     1     -51.469  47.317   7.327  1.00  0.00     0.076 C 
BRANCH   9  10
HETATM   10  C   UNL     1     -51.513  46.136   6.392  1.00  0.00     0.011 A 
HETATM   11  C   UNL     1     -51.558  46.338   5.020  1.00  0.00     0.077 A 
HETATM   12  C   UNL     1     -51.598  45.252   4.159  1.00  0.00     0.073 A 
HETATM   13  C   UNL     1     -51.595  43.963   4.670  1.00  0.00     0.071 A 
HETATM   14  C   UNL     1     -51.548  43.760   6.042  1.00  0.00     0.073 A 
HETATM   15  C   UNL     1     -51.503  44.846   6.902  1.00  0.00     0.077 A 
BRANCH  11  16
HETATM   16  O   UNL     1     -51.563  47.602   4.520  1.00  0.00    -0.360 OA
HETATM   17  H   UNL     1     -50.761  48.080   4.448  1.00  0.00     0.217 HD
ENDBRANCH  11  16
BRANCH  13  18
HETATM   18  O   UNL     1     -51.635  42.897   3.827  1.00  0.00    -0.361 OA
HETATM   19  H   UNL     1     -51.784  42.037   4.167  1.00  0.00     0.217 HD
ENDBRANCH  13  18
BRANCH  15  20
HETATM   20  O   UNL     1     -51.459  44.648   8.246  1.00  0.00    -0.360 OA
HETATM   21  H   UNL     1     -50.674  44.835   8.721  1.00  0.00     0.217 HD
ENDBRANCH  15  20
ENDBRANCH   9  10
ENDBRANCH   8   9
BRANCH   8  22
HETATM   22  O   UNL     1     -53.800  47.153   6.710  1.00  0.00    -0.395 OA
HETATM   23  H   UNL     1     -53.582  46.209   6.655  1.00  0.00     0.210 HD
ENDBRANCH   8  22
ENDBRANCH   7   8
ENDBRANCH   3   7
BRANCH   5  24
HETATM   24  O   UNL     1     -53.778  52.304   9.335  1.00  0.00    -0.361 OA
HETATM   25  H   UNL     1     -53.042  52.722   8.932  1.00  0.00     0.217 HD
ENDBRANCH   5  24
TORSDOF 9
ENDMDL
MODEL 4
REMARK VINA RESULT:      -7.2      1.404      2.287
REMARK  9 active torsions:
REMARK  status: ('A' for Active; 'I' for Inactive)
REMARK    1  A    between atoms: C_3  and  C_8 
REMARK    2  A    between atoms: C_5  and  O_7 
REMARK    3  A    between atoms: C_8  and  C_9 
REMARK    4  A    between atoms: C_9  and  C_10 
REMARK    5  A    between atoms: C_9  and  O_20 
REMARK    6  A    between atoms: C_10  and  C_11 
REMARK    7  A    between atoms: C_12  and  O_19 
REMARK    8  A    between atoms: C_14  and  O_18 
REMARK    9  A    between atoms: C_16  and  O_17 
ROOT
HETATM    1  C   UNL     1     -53.364  49.752  11.924  1.00  0.00     0.003 A 
HETATM    2  C   UNL     1     -53.276  48.589  11.183  1.00  0.00     0.007 A 
HETATM    3  C   UNL     1     -53.347  48.640   9.802  1.00  0.00    -0.053 A 
HETATM    4  C   UNL     1     -53.508  49.852   9.162  1.00  0.00     0.043 A 
HETATM    5  C   UNL     1     -53.597  51.021   9.905  1.00  0.00     0.066 A 
HETATM    6  C   UNL     1     -53.524  50.968  11.289  1.00  0.00     0.036 A 
ENDROOT
BRANCH   3   7
HETATM    7  C   UNL     1     -53.250  47.370   8.997  1.00  0.00     0.070 C 
BRANCH   7   8
HETATM    8  C   UNL     1     -52.831  47.705   7.564  1.00  0.00     0.127 C 
BRANCH   8   9
HETATM    9  C   UNL     1     -51.412  47.192   7.314  1.00  0.00     0.076 C 
BRANCH   9  10
HETATM   10  C   UNL     1     -51.473  45.909   6.526  1.00  0.00     0.011 A 
HETATM   11  C   UNL     1     -51.490  44.689   7.185  1.00  0.00     0.077 A 
HETATM   12  C   UNL     1     -51.547  43.509   6.460  1.00  0.00     0.073 A 
HETATM   13  C   UNL     1     -51.586  43.548   5.074  1.00  0.00     0.071 A 
HETATM   14  C   UNL     1     -51.570  44.768   4.414  1.00  0.00     0.073 A 
HETATM   15  C   UNL     1     -51.518  45.948   5.140  1.00  0.00     0.077 A 
BRANCH  11  16
HETATM   16  O   UNL     1     -51.451  44.651   8.543  1.00  0.00    -0.360 OA
HETATM   17  H   UNL     1     -50.627  44.612   8.987  1.00  0.00     0.217 HD
ENDBRANCH  11  16
BRANCH  13  18
HETATM   18  O   UNL     1     -51.640  42.392   4.362  1.00  0.00    -0.361 OA
HETATM   19  H   UNL     1     -51.140  41.649   4.637  1.00  0.00     0.217 HD
ENDBRANCH  13  18
BRANCH  15  20
HETATM   20  O   UNL     1     -51.502  47.144   4.493  1.00  0.00    -0.360 OA
HETATM   21  H   UNL     1     -52.290  47.484   4.119  1.00  0.00     0.217 HD
ENDBRANCH  15  20
ENDBRANCH   9  10
ENDBRANCH   8   9
BRANCH   8  22
HETATM   22  O   UNL     1     -53.732  47.081   6.646  1.00  0.00    -0.395 OA
HETATM   23  H   UNL     1     -53.325  47.047   5.766  1.00  0.00     0.210 HD
ENDBRANCH   8  22
ENDBRANCH   7   8
ENDBRANCH   3   7
BRANCH   5  24
HETATM   24  O   UNL     1     -53.754  52.216   9.276  1.00  0.00    -0.361 OA
HETATM   25  H   UNL     1     -54.234  52.905   9.693  1.00  0.00     0.217 HD
ENDBRANCH   5  24
TORSDOF 9
ENDMDL
MODEL 5
REMARK VINA RESULT:      -7.2      1.224      2.457
REMARK  9 active torsions:
REMARK  status: ('A' for Active; 'I' for Inactive)
REMARK    1  A    between atoms: C_3  and  C_8 
REMARK    2  A    between atoms: C_5  and  O_7 
REMARK    3  A    between atoms: C_8  and  C_9 
REMARK    4  A    between atoms: C_9  and  C_10 
REMARK    5  A    between atoms: C_9  and  O_20 
REMARK    6  A    between atoms: C_10  and  C_11 
REMARK    7  A    between atoms: C_12  and  O_19 
REMARK    8  A    between atoms: C_14  and  O_18 
REMARK    9  A    between atoms: C_16  and  O_17 
ROOT
HETATM    1  C   UNL     1     -53.893  50.344  10.101  1.00  0.00     0.003 A 
HETATM    2  C   UNL     1     -54.065  49.035   9.691  1.00  0.00     0.007 A 
HETATM    3  C   UNL     1     -53.811  47.995  10.566  1.00  0.00    -0.053 A 
HETATM    4  C   UNL     1     -53.383  48.262  11.852  1.00  0.00     0.043 A 
HETATM    5  C   UNL     1     -53.209  49.575  12.265  1.00  0.00     0.066 A 
HETATM    6  C   UNL     1     -53.465  50.616  11.385  1.00  0.00     0.036 A 
ENDROOT
BRANCH   3   7
HETATM    7  C   UNL     1     -54.000  46.569  10.116  1.00  0.00     0.070 C 
BRANCH   7   8
HETATM    8  C   UNL     1     -53.697  46.461   8.620  1.00  0.00     0.127 C 
BRANCH   8   9
HETATM    9  C   UNL     1     -52.229  46.075   8.424  1.00  0.00     0.076 C 
BRANCH   9  10
HETATM   10  C   UNL     1     -51.913  46.036   6.952  1.00  0.00     0.011 A 
HETATM   11  C   UNL     1     -51.927  44.828   6.270  1.00  0.00     0.077 A 
HETATM   12  C   UNL     1     -51.635  44.792   4.915  1.00  0.00     0.073 A 
HETATM   13  C   UNL     1     -51.329  45.965   4.241  1.00  0.00     0.071 A 
HETATM   14  C   UNL     1     -51.316  47.173   4.922  1.00  0.00     0.073 A 
HETATM   15  C   UNL     1     -51.613  47.209   6.276  1.00  0.00     0.077 A 
BRANCH  11  16
HETATM   16  O   UNL     1     -52.226  43.679   6.932  1.00  0.00    -0.360 OA
HETATM   17  H   UNL     1     -52.261  43.673   7.868  1.00  0.00     0.217 HD
ENDBRANCH  11  16
BRANCH  13  18
HETATM   18  O   UNL     1     -51.043  45.930   2.913  1.00  0.00    -0.361 OA
HETATM   19  H   UNL     1     -50.182  45.698   2.626  1.00  0.00     0.217 HD
ENDBRANCH  13  18
BRANCH  15  20
HETATM   20  O   UNL     1     -51.599  48.393   6.943  1.00  0.00    -0.360 OA
HETATM   21  H   UNL     1     -51.146  49.129   6.582  1.00  0.00     0.217 HD
ENDBRANCH  15  20
ENDBRANCH   9  10
ENDBRANCH   8   9
BRANCH   8  22
HETATM   22  O   UNL     1     -54.534  45.462   8.036  1.00  0.00    -0.395 OA
HETATM   23  H   UNL     1     -54.993  44.973   8.738  1.00  0.00     0.210 HD
ENDBRANCH   8  22
ENDBRANCH   7   8
ENDBRANCH   3   7
BRANCH   5  24
HETATM   24  O   UNL     1     -52.788  49.840  13.530  1.00  0.00    -0.361 OA
HETATM   25  H   UNL     1     -52.327  50.635  13.714  1.00  0.00     0.217 HD
ENDBRANCH   5  24
TORSDOF 9
ENDMDL
MODEL 6
REMARK VINA RESULT:      -6.9      2.032      3.199
REMARK  9 active torsions:
REMARK  status: ('A' for Active; 'I' for Inactive)
REMARK    1  A    between atoms: C_3  and  C_8 
REMARK    2  A    between atoms: C_5  and  O_7 
REMARK    3  A    between atoms: C_8  and  C_9 
REMARK    4  A    between atoms: C_9  and  C_10 
REMARK    5  A    between atoms: C_9  and  O_20 
REMARK    6  A    between atoms: C_10  and  C_11 
REMARK    7  A    between atoms: C_12  and  O_19 
REMARK    8  A    between atoms: C_14  and  O_18 
REMARK    9  A    between atoms: C_16  and  O_17 
ROOT
HETATM    1  C   UNL     1     -52.257  46.849  12.388  1.00  0.00     0.003 A 
HETATM    2  C   UNL     1     -52.775  47.403  11.233  1.00  0.00     0.007 A 
HETATM    3  C   UNL     1     -53.313  48.677  11.255  1.00  0.00    -0.053 A 
HETATM    4  C   UNL     1     -53.334  49.398  12.432  1.00  0.00     0.043 A 
HETATM    5  C   UNL     1     -52.814  48.844  13.593  1.00  0.00     0.066 A 
HETATM    6  C   UNL     1     -52.275  47.567  13.568  1.00  0.00     0.036 A 
ENDROOT
BRANCH   3   7
HETATM    7  C   UNL     1     -53.877  49.278   9.993  1.00  0.00     0.070 C 
BRANCH   7   8
HETATM    8  C   UNL     1     -53.125  48.722   8.782  1.00  0.00     0.127 C 
BRANCH   8   9
HETATM    9  C   UNL     1     -54.075  47.869   7.939  1.00  0.00     0.076 C 
BRANCH   9  10
HETATM   10  C   UNL     1     -53.412  46.557   7.608  1.00  0.00     0.011 A 
HETATM   11  C   UNL     1     -52.417  46.506   6.643  1.00  0.00     0.077 A 
HETATM   12  C   UNL     1     -51.807  45.298   6.339  1.00  0.00     0.073 A 
HETATM   13  C   UNL     1     -52.192  44.141   7.000  1.00  0.00     0.071 A 
HETATM   14  C   UNL     1     -53.185  44.193   7.967  1.00  0.00     0.073 A 
HETATM   15  C   UNL     1     -53.791  45.401   8.274  1.00  0.00     0.077 A 
BRANCH  11  16
HETATM   16  O   UNL     1     -52.042  47.639   5.994  1.00  0.00    -0.360 OA
HETATM   17  H   UNL     1     -52.611  48.026   5.359  1.00  0.00     0.217 HD
ENDBRANCH  11  16
BRANCH  13  18
HETATM   18  O   UNL     1     -51.595  42.958   6.702  1.00  0.00    -0.361 OA
HETATM   19  H   UNL     1     -51.947  42.413   6.026  1.00  0.00     0.217 HD
ENDBRANCH  13  18
BRANCH  15  20
HETATM   20  O   UNL     1     -54.766  45.451   9.220  1.00  0.00    -0.360 OA
HETATM   21  H   UNL     1     -55.593  45.042   9.062  1.00  0.00     0.217 HD
ENDBRANCH  15  20
ENDBRANCH   9  10
ENDBRANCH   8   9
BRANCH   8  22
HETATM   22  O   UNL     1     -52.629  49.805   7.992  1.00  0.00    -0.395 OA
HETATM   23  H   UNL     1     -53.331  50.123   7.403  1.00  0.00     0.210 HD
ENDBRANCH   8  22
ENDBRANCH   7   8
ENDBRANCH   3   7
BRANCH   5  24
HETATM   24  O   UNL     1     -52.833  49.553  14.753  1.00  0.00    -0.361 OA
HETATM   25  H   UNL     1     -52.234  49.340  15.442  1.00  0.00     0.217 HD
ENDBRANCH   5  24
TORSDOF 9
ENDMDL
MODEL 7
REMARK VINA RESULT:      -6.9      2.061      3.471
REMARK  9 active torsions:
REMARK  status: ('A' for Active; 'I' for Inactive)
REMARK    1  A    between atoms: C_3  and  C_8 
REMARK    2  A    between atoms: C_5  and  O_7 
REMARK    3  A    between atoms: C_8  and  C_9 
REMARK    4  A    between atoms: C_9  and  C_10 
REMARK    5  A    between atoms: C_9  and  O_20 
REMARK    6  A    between atoms: C_10  and  C_11 
REMARK    7  A    between atoms: C_12  and  O_19 
REMARK    8  A    between atoms: C_14  and  O_18 
REMARK    9  A    between atoms: C_16  and  O_17 
ROOT
HETATM    1  C   UNL     1     -52.227  46.802  12.509  1.00  0.00     0.003 A 
HETATM    2  C   UNL     1     -52.769  47.303  11.340  1.00  0.00     0.007 A 
HETATM    3  C   UNL     1     -53.303  48.578  11.314  1.00  0.00    -0.053 A 
HETATM    4  C   UNL     1     -53.296  49.354  12.456  1.00  0.00     0.043 A 
HETATM    5  C   UNL     1     -52.753  48.853  13.631  1.00  0.00     0.066 A 
HETATM    6  C   UNL     1     -52.218  47.574  13.654  1.00  0.00     0.036 A 
ENDROOT
BRANCH   3   7
HETATM    7  C   UNL     1     -53.892  49.122  10.038  1.00  0.00     0.070 C 
BRANCH   7   8
HETATM    8  C   UNL     1     -53.105  48.582   8.841  1.00  0.00     0.127 C 
BRANCH   8   9
HETATM    9  C   UNL     1     -54.018  47.703   7.985  1.00  0.00     0.076 C 
BRANCH   9  10
HETATM   10  C   UNL     1     -53.295  46.433   7.620  1.00  0.00     0.011 A 
HETATM   11  C   UNL     1     -53.567  45.258   8.304  1.00  0.00     0.077 A 
HETATM   12  C   UNL     1     -52.901  44.089   7.968  1.00  0.00     0.073 A 
HETATM   13  C   UNL     1     -51.962  44.096   6.948  1.00  0.00     0.071 A 
HETATM   14  C   UNL     1     -51.690  45.271   6.263  1.00  0.00     0.073 A 
HETATM   15  C   UNL     1     -52.360  46.438   6.596  1.00  0.00     0.077 A 
BRANCH  11  16
HETATM   16  O   UNL     1     -54.487  45.252   9.304  1.00  0.00    -0.360 OA
HETATM   17  H   UNL     1     -54.282  44.854  10.127  1.00  0.00     0.217 HD
ENDBRANCH  11  16
BRANCH  13  18
HETATM   18  O   UNL     1     -51.308  42.951   6.619  1.00  0.00    -0.361 OA
HETATM   19  H   UNL     1     -51.418  42.577   5.767  1.00  0.00     0.217 HD
ENDBRANCH  13  18
BRANCH  15  20
HETATM   20  O   UNL     1     -52.092  47.590   5.925  1.00  0.00    -0.360 OA
HETATM   21  H   UNL     1     -51.233  47.745   5.585  1.00  0.00     0.217 HD
ENDBRANCH  15  20
ENDBRANCH   9  10
ENDBRANCH   8   9
BRANCH   8  22
HETATM   22  O   UNL     1     -52.623  49.675   8.057  1.00  0.00    -0.395 OA
HETATM   23  H   UNL     1     -53.361  50.071   7.566  1.00  0.00     0.210 HD
ENDBRANCH   8  22
ENDBRANCH   7   8
ENDBRANCH   3   7
BRANCH   5  24
HETATM   24  O   UNL     1     -52.744  49.615  14.756  1.00  0.00    -0.361 OA
HETATM   25  H   UNL     1     -52.042  49.534  15.372  1.00  0.00     0.217 HD
ENDBRANCH   5  24
TORSDOF 9
ENDMDL
MODEL 8
REMARK VINA RESULT:      -6.9      4.254      6.694
REMARK  9 active torsions:
REMARK  status: ('A' for Active; 'I' for Inactive)
REMARK    1  A    between atoms: C_3  and  C_8 
REMARK    2  A    between atoms: C_5  and  O_7 
REMARK    3  A    between atoms: C_8  and  C_9 
REMARK    4  A    between atoms: C_9  and  C_10 
REMARK    5  A    between atoms: C_9  and  O_20 
REMARK    6  A    between atoms: C_10  and  C_11 
REMARK    7  A    between atoms: C_12  and  O_19 
REMARK    8  A    between atoms: C_14  and  O_18 
REMARK    9  A    between atoms: C_16  and  O_17 
ROOT
HETATM    1  C   UNL     1     -53.715  50.737  11.246  1.00  0.00     0.003 A 
HETATM    2  C   UNL     1     -53.632  49.382  11.508  1.00  0.00     0.007 A 
HETATM    3  C   UNL     1     -53.381  48.491  10.480  1.00  0.00    -0.053 A 
HETATM    4  C   UNL     1     -53.214  48.954   9.190  1.00  0.00     0.043 A 
HETATM    5  C   UNL     1     -53.297  50.313   8.925  1.00  0.00     0.066 A 
HETATM    6  C   UNL     1     -53.548  51.204   9.958  1.00  0.00     0.036 A 
ENDROOT
BRANCH   3   7
HETATM    7  C   UNL     1     -53.291  47.015  10.769  1.00  0.00     0.070 C 
BRANCH   7   8
HETATM    8  C   UNL     1     -51.952  46.707  11.443  1.00  0.00     0.127 C 
BRANCH   8   9
HETATM    9  C   UNL     1     -52.203  46.112  12.829  1.00  0.00     0.076 C 
BRANCH   9  10
HETATM   10  C   UNL     1     -51.297  46.777  13.833  1.00  0.00     0.011 A 
HETATM   11  C   UNL     1     -50.003  46.309  14.016  1.00  0.00     0.077 A 
HETATM   12  C   UNL     1     -49.169  46.921  14.940  1.00  0.00     0.073 A 
HETATM   13  C   UNL     1     -49.628  48.000  15.681  1.00  0.00     0.071 A 
HETATM   14  C   UNL     1     -50.921  48.468  15.496  1.00  0.00     0.073 A 
HETATM   15  C   UNL     1     -51.753  47.859  14.569  1.00  0.00     0.077 A 
BRANCH  11  16
HETATM   16  O   UNL     1     -49.555  45.251  13.291  1.00  0.00    -0.360 OA
HETATM   17  H   UNL     1     -48.823  44.752  13.595  1.00  0.00     0.217 HD
ENDBRANCH  11  16
BRANCH  13  18
HETATM   18  O   UNL     1     -48.811  48.599  16.586  1.00  0.00    -0.361 OA
HETATM   19  H   UNL     1     -48.493  49.466  16.428  1.00  0.00     0.217 HD
ENDBRANCH  13  18
BRANCH  15  20
HETATM   20  O   UNL     1     -53.020  48.318  14.390  1.00  0.00    -0.360 OA
HETATM   21  H   UNL     1     -53.198  48.955  13.727  1.00  0.00     0.217 HD
ENDBRANCH  15  20
ENDBRANCH   9  10
ENDBRANCH   8   9
BRANCH   8  22
HETATM   22  O   UNL     1     -51.223  45.770  10.647  1.00  0.00    -0.395 OA
HETATM   23  H   UNL     1     -51.843  45.154  10.225  1.00  0.00     0.210 HD
ENDBRANCH   8  22
ENDBRANCH   7   8
ENDBRANCH   3   7
BRANCH   5  24
HETATM   24  O   UNL     1     -53.131  50.770   7.656  1.00  0.00    -0.361 OA
HETATM   25  H   UNL     1     -52.651  51.560   7.501  1.00  0.00     0.217 HD
ENDBRANCH   5  24
TORSDOF 9
ENDMDL
MODEL 9
REMARK VINA RESULT:      -6.9      1.908      2.865
REMARK  9 active torsions:
REMARK  status: ('A' for Active; 'I' for Inactive)
REMARK    1  A    between atoms: C_3  and  C_8 
REMARK    2  A    between atoms: C_5  and  O_7 
REMARK    3  A    between atoms: C_8  and  C_9 
REMARK    4  A    between atoms: C_9  and  C_10 
REMARK    5  A    between atoms: C_9  and  O_20 
REMARK    6  A    between atoms: C_10  and  C_11 
REMARK    7  A    between atoms: C_12  and  O_19 
REMARK    8  A    between atoms: C_14  and  O_18 
REMARK    9  A    between atoms: C_16  and  O_17 
ROOT
HETATM    1  C   UNL     1     -53.196  49.228  12.763  1.00  0.00     0.003 A 
HETATM    2  C   UNL     1     -53.428  49.525  11.434  1.00  0.00     0.007 A 
HETATM    3  C   UNL     1     -53.179  48.578  10.457  1.00  0.00    -0.053 A 
HETATM    4  C   UNL     1     -52.696  47.333  10.809  1.00  0.00     0.043 A 
HETATM    5  C   UNL     1     -52.462  47.033  12.143  1.00  0.00     0.066 A 
HETATM    6  C   UNL     1     -52.714  47.984  13.120  1.00  0.00     0.036 A 
ENDROOT
BRANCH   3   7
HETATM    7  C   UNL     1     -53.433  48.905   9.008  1.00  0.00     0.070 C 
BRANCH   7   8
HETATM    8  C   UNL     1     -52.608  47.970   8.121  1.00  0.00     0.127 C 
BRANCH   8   9
HETATM    9  C   UNL     1     -53.547  47.046   7.343  1.00  0.00     0.076 C 
BRANCH   9  10
HETATM   10  C   UNL     1     -52.739  45.986   6.640  1.00  0.00     0.011 A 
HETATM   11  C   UNL     1     -52.298  46.197   5.342  1.00  0.00     0.077 A 
HETATM   12  C   UNL     1     -51.554  45.222   4.695  1.00  0.00     0.073 A 
HETATM   13  C   UNL     1     -51.252  44.035   5.345  1.00  0.00     0.071 A 
HETATM   14  C   UNL     1     -51.692  43.825   6.644  1.00  0.00     0.073 A 
HETATM   15  C   UNL     1     -52.431  44.802   7.292  1.00  0.00     0.077 A 
BRANCH  11  16
HETATM   16  O   UNL     1     -52.596  47.360   4.704  1.00  0.00    -0.360 OA
HETATM   17  H   UNL     1     -51.958  47.769   4.154  1.00  0.00     0.217 HD
ENDBRANCH  11  16
BRANCH  13  18
HETATM   18  O   UNL     1     -50.524  43.079   4.711  1.00  0.00    -0.361 OA
HETATM   19  H   UNL     1     -50.837  42.707   3.910  1.00  0.00     0.217 HD
ENDBRANCH  13  18
BRANCH  15  20
HETATM   20  O   UNL     1     -52.863  44.595   8.564  1.00  0.00    -0.360 OA
HETATM   21  H   UNL     1     -52.548  45.137   9.260  1.00  0.00     0.217 HD
ENDBRANCH  15  20
ENDBRANCH   9  10
ENDBRANCH   8   9
BRANCH   8  22
HETATM   22  O   UNL     1     -51.835  48.745   7.203  1.00  0.00    -0.395 OA
HETATM   23  H   UNL     1     -52.177  49.653   7.177  1.00  0.00     0.210 HD
ENDBRANCH   8  22
ENDBRANCH   7   8
ENDBRANCH   3   7
BRANCH   5  24
HETATM   24  O   UNL     1     -51.987  45.807  12.492  1.00  0.00    -0.361 OA
HETATM   25  H   UNL     1     -52.525  45.220  12.986  1.00  0.00     0.217 HD
ENDBRANCH   5  24
TORSDOF 9
ENDMDL
