MODEL 1
REMARK VINA RESULT:      -7.4      0.000      0.000
REMARK  9 active torsions:
REMARK  status: ('A' for Active; 'I' for Inactive)
REMARK    1  A    between atoms: C_3  and  C_8 
REMARK    2  A    between atoms: C_5  and  O_7 
REMARK    3  A    between atoms: C_8  and  C_9 
REMARK    4  A    between atoms: C_9  and  C_10 
REMARK    5  A    between atoms: C_9  and  O_20 
REMARK    6  A    between atoms: C_10  and  C_11 
REMARK    7  A    between atoms: C_12  and  O_19 
REMARK    8  A    between atoms: C_14  and  O_18 
REMARK    9  A    between atoms: C_16  and  O_17 
ROOT
HETATM    1  C   UNL     1     -53.382  50.028  12.166  1.00  0.00     0.003 A 
HETATM    2  C   UNL     1     -53.704  48.731  11.816  1.00  0.00     0.007 A 
HETATM    3  C   UNL     1     -54.025  48.426  10.506  1.00  0.00    -0.053 A 
HETATM    4  C   UNL     1     -54.025  49.417   9.545  1.00  0.00     0.043 A 
HETATM    5  C   UNL     1     -53.703  50.721   9.895  1.00  0.00     0.066 A 
HETATM    6  C   UNL     1     -53.380  51.024  11.209  1.00  0.00     0.036 A 
ENDROOT
BRANCH   3   7
HETATM    7  C   UNL     1     -54.376  47.010  10.127  1.00  0.00     0.070 C 
BRANCH   7   8
HETATM    8  C   UNL     1     -53.991  46.762   8.667  1.00  0.00     0.127 C 
BRANCH   8   9
HETATM    9  C   UNL     1     -52.531  46.311   8.594  1.00  0.00     0.076 C 
BRANCH   9  10
HETATM   10  C   UNL     1     -52.114  46.190   7.151  1.00  0.00     0.011 A 
HETATM   11  C   UNL     1     -51.692  47.313   6.454  1.00  0.00     0.077 A 
HETATM   12  C   UNL     1     -51.308  47.201   5.126  1.00  0.00     0.073 A 
HETATM   13  C   UNL     1     -51.348  45.967   4.494  1.00  0.00     0.071 A 
HETATM   14  C   UNL     1     -51.770  44.844   5.191  1.00  0.00     0.073 A 
HETATM   15  C   UNL     1     -52.148  44.956   6.520  1.00  0.00     0.077 A 
BRANCH  11  16
HETATM   16  O   UNL     1     -51.654  48.522   7.073  1.00  0.00    -0.360 OA
HETATM   17  H   UNL     1     -51.222  49.245   6.663  1.00  0.00     0.217 HD
ENDBRANCH  11  16
BRANCH  13  18
HETATM   18  O   UNL     1     -50.974  45.857   3.193  1.00  0.00    -0.361 OA
HETATM   19  H   UNL     1     -50.313  45.241   2.946  1.00  0.00     0.217 HD
ENDBRANCH  13  18
BRANCH  15  20
HETATM   20  O   UNL     1     -52.562  43.855   7.203  1.00  0.00    -0.360 OA
HETATM   21  H   UNL     1     -51.993  43.449   7.826  1.00  0.00     0.217 HD
ENDBRANCH  15  20
ENDBRANCH   9  10
ENDBRANCH   8   9
BRANCH   8  22
HETATM   22  O   UNL     1     -54.832  45.744   8.120  1.00  0.00    -0.395 OA
HETATM   23  H   UNL     1     -55.761  45.966   8.290  1.00  0.00     0.210 HD
ENDBRANCH   8  22
ENDBRANCH   7   8
ENDBRANCH   3   7
BRANCH   5  24
HETATM   24  O   UNL     1     -53.701  51.698   8.950  1.00  0.00    -0.361 OA
HETATM   25  H   UNL     1     -53.402  52.560   9.167  1.00  0.00     0.217 HD
ENDBRANCH   5  24
TORSDOF 9
ENDMDL
MODEL 2
REMARK VINA RESULT:      -7.4      0.021      1.848
REMARK  9 active torsions:
REMARK  status: ('A' for Active; 'I' for Inactive)
REMARK    1  A    between atoms: C_3  and  C_8 
REMARK    2  A    between atoms: C_5  and  O_7 
REMARK    3  A    between atoms: C_8  and  C_9 
REMARK    4  A    between atoms: C_9  and  C_10 
REMARK    5  A    between atoms: C_9  and  O_20 
REMARK    6  A    between atoms: C_10  and  C_11 
REMARK    7  A    between atoms: C_12  and  O_19 
REMARK    8  A    between atoms: C_14  and  O_18 
REMARK    9  A    between atoms: C_16  and  O_17 
ROOT
HETATM    1  C   UNL     1     -53.385  50.025  12.161  1.00  0.00     0.003 A 
HETATM    2  C   UNL     1     -53.720  48.730  11.812  1.00  0.00     0.007 A 
HETATM    3  C   UNL     1     -54.047  48.428  10.502  1.00  0.00    -0.053 A 
HETATM    4  C   UNL     1     -54.041  49.420   9.542  1.00  0.00     0.043 A 
HETATM    5  C   UNL     1     -53.705  50.720   9.891  1.00  0.00     0.066 A 
HETATM    6  C   UNL     1     -53.377  51.020  11.204  1.00  0.00     0.036 A 
ENDROOT
BRANCH   3   7
HETATM    7  C   UNL     1     -54.411  47.016  10.124  1.00  0.00     0.070 C 
BRANCH   7   8
HETATM    8  C   UNL     1     -54.019  46.760   8.667  1.00  0.00     0.127 C 
BRANCH   8   9
HETATM    9  C   UNL     1     -52.553  46.328   8.602  1.00  0.00     0.076 C 
BRANCH   9  10
HETATM   10  C   UNL     1     -52.131  46.199   7.161  1.00  0.00     0.011 A 
HETATM   11  C   UNL     1     -52.173  44.962   6.533  1.00  0.00     0.077 A 
HETATM   12  C   UNL     1     -51.785  44.844   5.208  1.00  0.00     0.073 A 
HETATM   13  C   UNL     1     -51.354  45.962   4.509  1.00  0.00     0.071 A 
HETATM   14  C   UNL     1     -51.314  47.198   5.135  1.00  0.00     0.073 A 
HETATM   15  C   UNL     1     -51.707  47.317   6.460  1.00  0.00     0.077 A 
BRANCH  11  16
HETATM   16  O   UNL     1     -52.593  43.867   7.219  1.00  0.00    -0.360 OA
HETATM   17  H   UNL     1     -53.045  43.179   6.772  1.00  0.00     0.217 HD
ENDBRANCH  11  16
BRANCH  13  18
HETATM   18  O   UNL     1     -50.973  45.846   3.210  1.00  0.00    -0.361 OA
HETATM   19  H   UNL     1     -50.363  45.181   2.959  1.00  0.00     0.217 HD
ENDBRANCH  13  18
BRANCH  15  20
HETATM   20  O   UNL     1     -51.666  48.529   7.074  1.00  0.00    -0.360 OA
HETATM   21  H   UNL     1     -50.893  48.798   7.529  1.00  0.00     0.217 HD
ENDBRANCH  15  20
ENDBRANCH   9  10
ENDBRANCH   8   9
BRANCH   8  22
HETATM   22  O   UNL     1     -54.845  45.727   8.126  1.00  0.00    -0.395 OA
HETATM   23  H   UNL     1     -54.513  45.472   7.251  1.00  0.00     0.210 HD
ENDBRANCH   8  22
ENDBRANCH   7   8
ENDBRANCH   3   7
BRANCH   5  24
HETATM   24  O   UNL     1     -53.697  51.698   8.946  1.00  0.00    -0.361 OA
HETATM   25  H   UNL     1     -53.396  51.509   8.079  1.00  0.00     0.217 HD
ENDBRANCH   5  24
TORSDOF 9
ENDMDL
MODEL 3
REMARK VINA RESULT:      -7.3      1.291      2.187
REMARK  9 active torsions:
REMARK  status: ('A' for Active; 'I' for Inactive)
REMARK    1  A    between atoms: C_3  and  C_8 
REMARK    2  A    between atoms: C_5  and  O_7 
REMARK    3  A    between atoms: C_8  and  C_9 
REMARK    4  A    between atoms: C_9  and  C_10 
REMARK    5  A    between atoms: C_9  and  O_20 
REMARK    6  A    between atoms: C_10  and  C_11 
REMARK    7  A    between atoms: C_12  and  O_19 
REMARK    8  A    between atoms: C_14  and  O_18 
REMARK    9  A    between atoms: C_16  and  O_17 
ROOT
HETATM    1  C   UNL     1     -53.362  49.845  12.034  1.00  0.00     0.003 A 
HETATM    2  C   UNL     1     -53.241  48.674  11.310  1.00  0.00     0.007 A 
HETATM    3  C   UNL     1     -53.307  48.702   9.928  1.00  0.00    -0.053 A 
HETATM    4  C   UNL     1     -53.495  49.901   9.270  1.00  0.00     0.043 A 
HETATM    5  C   UNL     1     -53.618  51.078   9.995  1.00  0.00     0.066 A 
HETATM    6  C   UNL     1     -53.551  51.047  11.380  1.00  0.00     0.036 A 
ENDROOT
BRANCH   3   7
HETATM    7  C   UNL     1     -53.174  47.424   9.142  1.00  0.00     0.070 C 
BRANCH   7   8
HETATM    8  C   UNL     1     -52.752  47.749   7.707  1.00  0.00     0.127 C 
BRANCH   8   9
HETATM    9  C   UNL     1     -51.365  47.161   7.438  1.00  0.00     0.076 C 
BRANCH   9  10
HETATM   10  C   UNL     1     -51.463  46.121   6.351  1.00  0.00     0.011 A 
HETATM   11  C   UNL     1     -51.580  44.780   6.683  1.00  0.00     0.077 A 
HETATM   12  C   UNL     1     -51.670  43.823   5.683  1.00  0.00     0.073 A 
HETATM   13  C   UNL     1     -51.642  44.208   4.351  1.00  0.00     0.071 A 
HETATM   14  C   UNL     1     -51.527  45.550   4.019  1.00  0.00     0.073 A 
HETATM   15  C   UNL     1     -51.442  46.506   5.019  1.00  0.00     0.077 A 
BRANCH  11  16
HETATM   16  O   UNL     1     -51.605  44.403   7.988  1.00  0.00    -0.360 OA
HETATM   17  H   UNL     1     -51.490  43.502   8.218  1.00  0.00     0.217 HD
ENDBRANCH  11  16
BRANCH  13  18
HETATM   18  O   UNL     1     -51.729  43.271   3.371  1.00  0.00    -0.361 OA
HETATM   19  H   UNL     1     -51.867  43.534   2.482  1.00  0.00     0.217 HD
ENDBRANCH  13  18
BRANCH  15  20
HETATM   20  O   UNL     1     -51.327  47.821   4.694  1.00  0.00    -0.360 OA
HETATM   21  H   UNL     1     -51.630  48.479   5.288  1.00  0.00     0.217 HD
ENDBRANCH  15  20
ENDBRANCH   9  10
ENDBRANCH   8   9
BRANCH   8  22
HETATM   22  O   UNL     1     -53.694  47.183   6.794  1.00  0.00    -0.395 OA
HETATM   23  H   UNL     1     -54.590  47.276   7.155  1.00  0.00     0.210 HD
ENDBRANCH   8  22
ENDBRANCH   7   8
ENDBRANCH   3   7
BRANCH   5  24
HETATM   24  O   UNL     1     -53.802  52.259   9.348  1.00  0.00    -0.361 OA
HETATM   25  H   UNL     1     -53.076  52.688   8.938  1.00  0.00     0.217 HD
ENDBRANCH   5  24
TORSDOF 9
ENDMDL
MODEL 4
REMARK VINA RESULT:      -7.3      1.287      1.511
REMARK  9 active torsions:
REMARK  status: ('A' for Active; 'I' for Inactive)
REMARK    1  A    between atoms: C_3  and  C_8 
REMARK    2  A    between atoms: C_5  and  O_7 
REMARK    3  A    between atoms: C_8  and  C_9 
REMARK    4  A    between atoms: C_9  and  C_10 
REMARK    5  A    between atoms: C_9  and  O_20 
REMARK    6  A    between atoms: C_10  and  C_11 
REMARK    7  A    between atoms: C_12  and  O_19 
REMARK    8  A    between atoms: C_14  and  O_18 
REMARK    9  A    between atoms: C_16  and  O_17 
ROOT
HETATM    1  C   UNL     1     -53.408  49.862  12.009  1.00  0.00     0.003 A 
HETATM    2  C   UNL     1     -53.307  48.695  11.276  1.00  0.00     0.007 A 
HETATM    3  C   UNL     1     -53.355  48.738   9.894  1.00  0.00    -0.053 A 
HETATM    4  C   UNL     1     -53.504  49.947   9.245  1.00  0.00     0.043 A 
HETATM    5  C   UNL     1     -53.605  51.120   9.979  1.00  0.00     0.066 A 
HETATM    6  C   UNL     1     -53.556  51.074  11.364  1.00  0.00     0.036 A 
ENDROOT
BRANCH   3   7
HETATM    7  C   UNL     1     -53.244  47.463   9.097  1.00  0.00     0.070 C 
BRANCH   7   8
HETATM    8  C   UNL     1     -52.835  47.793   7.660  1.00  0.00     0.127 C 
BRANCH   8   9
HETATM    9  C   UNL     1     -51.429  47.253   7.393  1.00  0.00     0.076 C 
BRANCH   9  10
HETATM   10  C   UNL     1     -51.495  46.187   6.330  1.00  0.00     0.011 A 
HETATM   11  C   UNL     1     -51.449  46.540   4.990  1.00  0.00     0.077 A 
HETATM   12  C   UNL     1     -51.510  45.559   4.012  1.00  0.00     0.073 A 
HETATM   13  C   UNL     1     -51.616  44.224   4.374  1.00  0.00     0.071 A 
HETATM   14  C   UNL     1     -51.660  43.871   5.715  1.00  0.00     0.073 A 
HETATM   15  C   UNL     1     -51.595  44.852   6.692  1.00  0.00     0.077 A 
BRANCH  11  16
HETATM   16  O   UNL     1     -51.346  47.847   4.635  1.00  0.00    -0.360 OA
HETATM   17  H   UNL     1     -51.167  48.497   5.286  1.00  0.00     0.217 HD
ENDBRANCH  11  16
BRANCH  13  18
HETATM   18  O   UNL     1     -51.676  43.263   3.416  1.00  0.00    -0.361 OA
HETATM   19  H   UNL     1     -51.182  42.473   3.514  1.00  0.00     0.217 HD
ENDBRANCH  13  18
BRANCH  15  20
HETATM   20  O   UNL     1     -51.639  44.506   8.006  1.00  0.00    -0.360 OA
HETATM   21  H   UNL     1     -51.159  45.003   8.638  1.00  0.00     0.217 HD
ENDBRANCH  15  20
ENDBRANCH   9  10
ENDBRANCH   8   9
BRANCH   8  22
HETATM   22  O   UNL     1     -53.758  47.189   6.752  1.00  0.00    -0.395 OA
HETATM   23  H   UNL     1     -54.330  47.874   6.369  1.00  0.00     0.210 HD
ENDBRANCH   8  22
ENDBRANCH   7   8
ENDBRANCH   3   7
BRANCH   5  24
HETATM   24  O   UNL     1     -53.751  52.312   9.341  1.00  0.00    -0.361 OA
HETATM   25  H   UNL     1     -54.436  52.426   8.712  1.00  0.00     0.217 HD
ENDBRANCH   5  24
TORSDOF 9
ENDMDL
MODEL 5
REMARK VINA RESULT:      -7.2      1.156      1.572
REMARK  9 active torsions:
REMARK  status: ('A' for Active; 'I' for Inactive)
REMARK    1  A    between atoms: C_3  and  C_8 
REMARK    2  A    between atoms: C_5  and  O_7 
REMARK    3  A    between atoms: C_8  and  C_9 
REMARK    4  A    between atoms: C_9  and  C_10 
REMARK    5  A    between atoms: C_9  and  O_20 
REMARK    6  A    between atoms: C_10  and  C_11 
REMARK    7  A    between atoms: C_12  and  O_19 
REMARK    8  A    between atoms: C_14  and  O_18 
REMARK    9  A    between atoms: C_16  and  O_17 
ROOT
HETATM    1  C   UNL     1     -53.873  50.368   9.975  1.00  0.00     0.003 A 
HETATM    2  C   UNL     1     -54.055  49.051   9.598  1.00  0.00     0.007 A 
HETATM    3  C   UNL     1     -53.813  48.031  10.500  1.00  0.00    -0.053 A 
HETATM    4  C   UNL     1     -53.389  48.327  11.780  1.00  0.00     0.043 A 
HETATM    5  C   UNL     1     -53.206  49.649  12.161  1.00  0.00     0.066 A 
HETATM    6  C   UNL     1     -53.449  50.670  11.255  1.00  0.00     0.036 A 
ENDROOT
BRANCH   3   7
HETATM    7  C   UNL     1     -54.012  46.596  10.086  1.00  0.00     0.070 C 
BRANCH   7   8
HETATM    8  C   UNL     1     -53.715  46.451   8.591  1.00  0.00     0.127 C 
BRANCH   8   9
HETATM    9  C   UNL     1     -52.246  46.068   8.399  1.00  0.00     0.076 C 
BRANCH   9  10
HETATM   10  C   UNL     1     -51.926  46.033   6.927  1.00  0.00     0.011 A 
HETATM   11  C   UNL     1     -51.612  47.206   6.256  1.00  0.00     0.077 A 
HETATM   12  C   UNL     1     -51.317  47.173   4.902  1.00  0.00     0.073 A 
HETATM   13  C   UNL     1     -51.337  45.967   4.217  1.00  0.00     0.071 A 
HETATM   14  C   UNL     1     -51.649  44.794   4.888  1.00  0.00     0.073 A 
HETATM   15  C   UNL     1     -51.939  44.826   6.243  1.00  0.00     0.077 A 
BRANCH  11  16
HETATM   16  O   UNL     1     -51.595  48.387   6.927  1.00  0.00    -0.360 OA
HETATM   17  H   UNL     1     -51.678  49.194   6.458  1.00  0.00     0.217 HD
ENDBRANCH  11  16
BRANCH  13  18
HETATM   18  O   UNL     1     -51.048  45.934   2.889  1.00  0.00    -0.361 OA
HETATM   19  H   UNL     1     -51.210  45.156   2.394  1.00  0.00     0.217 HD
ENDBRANCH  13  18
BRANCH  15  20
HETATM   20  O   UNL     1     -52.246  43.676   6.900  1.00  0.00    -0.360 OA
HETATM   21  H   UNL     1     -52.081  42.848   6.495  1.00  0.00     0.217 HD
ENDBRANCH  15  20
ENDBRANCH   9  10
ENDBRANCH   8   9
BRANCH   8  22
HETATM   22  O   UNL     1     -54.549  45.431   8.038  1.00  0.00    -0.395 OA
HETATM   23  H   UNL     1     -54.038  44.904   7.404  1.00  0.00     0.210 HD
ENDBRANCH   8  22
ENDBRANCH   7   8
ENDBRANCH   3   7
BRANCH   5  24
HETATM   24  O   UNL     1     -52.789  49.942  13.422  1.00  0.00    -0.361 OA
HETATM   25  H   UNL     1     -51.883  50.116  13.587  1.00  0.00     0.217 HD
ENDBRANCH   5  24
TORSDOF 9
ENDMDL
MODEL 6
REMARK VINA RESULT:      -6.9      3.464      5.058
REMARK  9 active torsions:
REMARK  status: ('A' for Active; 'I' for Inactive)
REMARK    1  A    between atoms: C_3  and  C_8 
REMARK    2  A    between atoms: C_5  and  O_7 
REMARK    3  A    between atoms: C_8  and  C_9 
REMARK    4  A    between atoms: C_9  and  C_10 
REMARK    5  A    between atoms: C_9  and  O_20 
REMARK    6  A    between atoms: C_10  and  C_11 
REMARK    7  A    between atoms: C_12  and  O_19 
REMARK    8  A    between atoms: C_14  and  O_18 
REMARK    9  A    between atoms: C_16  and  O_17 
ROOT
HETATM    1  C   UNL     1     -50.789  46.017  14.349  1.00  0.00     0.003 A 
HETATM    2  C   UNL     1     -51.906  46.672  13.867  1.00  0.00     0.007 A 
HETATM    3  C   UNL     1     -52.162  47.978  14.243  1.00  0.00    -0.053 A 
HETATM    4  C   UNL     1     -51.300  48.630  15.103  1.00  0.00     0.043 A 
HETATM    5  C   UNL     1     -50.178  47.975  15.589  1.00  0.00     0.066 A 
HETATM    6  C   UNL     1     -49.924  46.665  15.209  1.00  0.00     0.036 A 
ENDROOT
BRANCH   3   7
HETATM    7  C   UNL     1     -53.381  48.689  13.715  1.00  0.00     0.070 C 
BRANCH   7   8
HETATM    8  C   UNL     1     -53.089  49.229  12.313  1.00  0.00     0.127 C 
BRANCH   8   9
HETATM    9  C   UNL     1     -54.034  48.569  11.306  1.00  0.00     0.076 C 
BRANCH   9  10
HETATM   10  C   UNL     1     -53.341  48.444   9.974  1.00  0.00     0.011 A 
HETATM   11  C   UNL     1     -53.359  49.505   9.080  1.00  0.00     0.077 A 
HETATM   12  C   UNL     1     -52.721  49.390   7.854  1.00  0.00     0.073 A 
HETATM   13  C   UNL     1     -52.065  48.214   7.522  1.00  0.00     0.071 A 
HETATM   14  C   UNL     1     -52.045  47.154   8.417  1.00  0.00     0.073 A 
HETATM   15  C   UNL     1     -52.679  47.271   9.644  1.00  0.00     0.077 A 
BRANCH  11  16
HETATM   16  O   UNL     1     -54.003  50.656   9.405  1.00  0.00    -0.360 OA
HETATM   17  H   UNL     1     -54.442  50.730  10.230  1.00  0.00     0.217 HD
ENDBRANCH  11  16
BRANCH  13  18
HETATM   18  O   UNL     1     -51.440  48.101   6.321  1.00  0.00    -0.361 OA
HETATM   19  H   UNL     1     -50.541  48.349   6.236  1.00  0.00     0.217 HD
ENDBRANCH  13  18
BRANCH  15  20
HETATM   20  O   UNL     1     -52.660  46.232  10.520  1.00  0.00    -0.360 OA
HETATM   21  H   UNL     1     -51.891  46.059  11.025  1.00  0.00     0.217 HD
ENDBRANCH  15  20
ENDBRANCH   9  10
ENDBRANCH   8   9
BRANCH   8  22
HETATM   22  O   UNL     1     -53.289  50.644  12.296  1.00  0.00    -0.395 OA
HETATM   23  H   UNL     1     -54.238  50.836  12.237  1.00  0.00     0.210 HD
ENDBRANCH   8  22
ENDBRANCH   7   8
ENDBRANCH   3   7
BRANCH   5  24
HETATM   24  O   UNL     1     -49.329  48.616  16.435  1.00  0.00    -0.361 OA
HETATM   25  H   UNL     1     -49.496  48.614  17.357  1.00  0.00     0.217 HD
ENDBRANCH   5  24
TORSDOF 9
ENDMDL
MODEL 7
REMARK VINA RESULT:      -6.9      3.440      5.317
REMARK  9 active torsions:
REMARK  status: ('A' for Active; 'I' for Inactive)
REMARK    1  A    between atoms: C_3  and  C_8 
REMARK    2  A    between atoms: C_5  and  O_7 
REMARK    3  A    between atoms: C_8  and  C_9 
REMARK    4  A    between atoms: C_9  and  C_10 
REMARK    5  A    between atoms: C_9  and  O_20 
REMARK    6  A    between atoms: C_10  and  C_11 
REMARK    7  A    between atoms: C_12  and  O_19 
REMARK    8  A    between atoms: C_14  and  O_18 
REMARK    9  A    between atoms: C_16  and  O_17 
ROOT
HETATM    1  C   UNL     1     -50.784  46.047  14.276  1.00  0.00     0.003 A 
HETATM    2  C   UNL     1     -51.904  46.704  13.804  1.00  0.00     0.007 A 
HETATM    3  C   UNL     1     -52.167  48.002  14.204  1.00  0.00    -0.053 A 
HETATM    4  C   UNL     1     -51.310  48.643  15.076  1.00  0.00     0.043 A 
HETATM    5  C   UNL     1     -50.185  47.986  15.551  1.00  0.00     0.066 A 
HETATM    6  C   UNL     1     -49.923  46.685  15.148  1.00  0.00     0.036 A 
ENDROOT
BRANCH   3   7
HETATM    7  C   UNL     1     -53.390  48.716  13.688  1.00  0.00     0.070 C 
BRANCH   7   8
HETATM    8  C   UNL     1     -53.111  49.256  12.284  1.00  0.00     0.127 C 
BRANCH   8   9
HETATM    9  C   UNL     1     -54.049  48.582  11.282  1.00  0.00     0.076 C 
BRANCH   9  10
HETATM   10  C   UNL     1     -53.347  48.434   9.957  1.00  0.00     0.011 A 
HETATM   11  C   UNL     1     -52.701  47.248   9.642  1.00  0.00     0.077 A 
HETATM   12  C   UNL     1     -52.054  47.112   8.423  1.00  0.00     0.073 A 
HETATM   13  C   UNL     1     -52.053  48.163   7.518  1.00  0.00     0.071 A 
HETATM   14  C   UNL     1     -52.700  49.349   7.832  1.00  0.00     0.073 A 
HETATM   15  C   UNL     1     -53.351  49.482   9.049  1.00  0.00     0.077 A 
BRANCH  11  16
HETATM   16  O   UNL     1     -52.701  46.218  10.529  1.00  0.00    -0.360 OA
HETATM   17  H   UNL     1     -52.681  45.334  10.221  1.00  0.00     0.217 HD
ENDBRANCH  11  16
BRANCH  13  18
HETATM   18  O   UNL     1     -51.419  48.031   6.324  1.00  0.00    -0.361 OA
HETATM   19  H   UNL     1     -51.269  48.784   5.788  1.00  0.00     0.217 HD
ENDBRANCH  13  18
BRANCH  15  20
HETATM   20  O   UNL     1     -53.984  50.645   9.357  1.00  0.00    -0.360 OA
HETATM   21  H   UNL     1     -54.855  50.627   9.702  1.00  0.00     0.217 HD
ENDBRANCH  15  20
ENDBRANCH   9  10
ENDBRANCH   8   9
BRANCH   8  22
HETATM   22  O   UNL     1     -53.330  50.668  12.266  1.00  0.00    -0.395 OA
HETATM   23  H   UNL     1     -54.275  50.851  12.390  1.00  0.00     0.210 HD
ENDBRANCH   8  22
ENDBRANCH   7   8
ENDBRANCH   3   7
BRANCH   5  24
HETATM   24  O   UNL     1     -49.339  48.616  16.409  1.00  0.00    -0.361 OA
HETATM   25  H   UNL     1     -49.280  48.334  17.301  1.00  0.00     0.217 HD
ENDBRANCH   5  24
TORSDOF 9
ENDMDL
MODEL 8
REMARK VINA RESULT:      -6.8      1.853      3.178
REMARK  9 active torsions:
REMARK  status: ('A' for Active; 'I' for Inactive)
REMARK    1  A    between atoms: C_3  and  C_8 
REMARK    2  A    between atoms: C_5  and  O_7 
REMARK    3  A    between atoms: C_8  and  C_9 
REMARK    4  A    between atoms: C_9  and  C_10 
REMARK    5  A    between atoms: C_9  and  O_20 
REMARK    6  A    between atoms: C_10  and  C_11 
REMARK    7  A    between atoms: C_12  and  O_19 
REMARK    8  A    between atoms: C_14  and  O_18 
REMARK    9  A    between atoms: C_16  and  O_17 
ROOT
HETATM    1  C   UNL     1     -53.270  49.339  12.542  1.00  0.00     0.003 A 
HETATM    2  C   UNL     1     -53.423  49.616  11.197  1.00  0.00     0.007 A 
HETATM    3  C   UNL     1     -53.122  48.653  10.251  1.00  0.00    -0.053 A 
HETATM    4  C   UNL     1     -52.667  47.412  10.650  1.00  0.00     0.043 A 
HETATM    5  C   UNL     1     -52.512  47.131  12.000  1.00  0.00     0.066 A 
HETATM    6  C   UNL     1     -52.815  48.099  12.946  1.00  0.00     0.036 A 
ENDROOT
BRANCH   3   7
HETATM    7  C   UNL     1     -53.290  48.958   8.785  1.00  0.00     0.070 C 
BRANCH   7   8
HETATM    8  C   UNL     1     -52.472  47.963   7.959  1.00  0.00     0.127 C 
BRANCH   8   9
HETATM    9  C   UNL     1     -53.416  47.082   7.140  1.00  0.00     0.076 C 
BRANCH   9  10
HETATM   10  C   UNL     1     -52.624  45.999   6.454  1.00  0.00     0.011 A 
HETATM   11  C   UNL     1     -52.416  44.783   7.088  1.00  0.00     0.077 A 
HETATM   12  C   UNL     1     -51.687  43.787   6.457  1.00  0.00     0.073 A 
HETATM   13  C   UNL     1     -51.165  44.006   5.191  1.00  0.00     0.071 A 
HETATM   14  C   UNL     1     -51.373  45.222   4.556  1.00  0.00     0.073 A 
HETATM   15  C   UNL     1     -52.106  46.216   5.186  1.00  0.00     0.077 A 
BRANCH  11  16
HETATM   16  O   UNL     1     -52.927  44.569   8.329  1.00  0.00    -0.360 OA
HETATM   17  H   UNL     1     -53.311  45.278   8.806  1.00  0.00     0.217 HD
ENDBRANCH  11  16
BRANCH  13  18
HETATM   18  O   UNL     1     -50.449  43.030   4.573  1.00  0.00    -0.361 OA
HETATM   19  H   UNL     1     -49.535  43.152   4.410  1.00  0.00     0.217 HD
ENDBRANCH  13  18
BRANCH  15  20
HETATM   20  O   UNL     1     -52.310  47.407   4.563  1.00  0.00    -0.360 OA
HETATM   21  H   UNL     1     -52.387  48.192   5.069  1.00  0.00     0.217 HD
ENDBRANCH  15  20
ENDBRANCH   9  10
ENDBRANCH   8   9
BRANCH   8  22
HETATM   22  O   UNL     1     -51.603  48.678   7.078  1.00  0.00    -0.395 OA
HETATM   23  H   UNL     1     -52.116  49.333   6.579  1.00  0.00     0.210 HD
ENDBRANCH   8  22
ENDBRANCH   7   8
ENDBRANCH   3   7
BRANCH   5  24
HETATM   24  O   UNL     1     -52.065  45.909  12.394  1.00  0.00    -0.361 OA
HETATM   25  H   UNL     1     -51.802  45.277  11.754  1.00  0.00     0.217 HD
ENDBRANCH   5  24
TORSDOF 9
ENDMDL
MODEL 9
REMARK VINA RESULT:      -6.8      1.866      6.346
REMARK  9 active torsions:
REMARK  status: ('A' for Active; 'I' for Inactive)
REMARK    1  A    between atoms: C_3  and  C_8 
REMARK    2  A    between atoms: C_5  and  O_7 
REMARK    3  A    between atoms: C_8  and  C_9 
REMARK    4  A    between atoms: C_9  and  C_10 
REMARK    5  A    between atoms: C_9  and  O_20 
REMARK    6  A    between atoms: C_10  and  C_11 
REMARK    7  A    between atoms: C_12  and  O_19 
REMARK    8  A    between atoms: C_14  and  O_18 
REMARK    9  A    between atoms: C_16  and  O_17 
ROOT
HETATM    1  C   UNL     1     -51.014  47.913   6.009  1.00  0.00     0.003 A 
HETATM    2  C   UNL     1     -51.267  47.265   7.203  1.00  0.00     0.007 A 
HETATM    3  C   UNL     1     -51.614  45.926   7.206  1.00  0.00    -0.053 A 
HETATM    4  C   UNL     1     -51.708  45.235   6.014  1.00  0.00     0.043 A 
HETATM    5  C   UNL     1     -51.454  45.884   4.815  1.00  0.00     0.066 A 
HETATM    6  C   UNL     1     -51.106  47.226   4.815  1.00  0.00     0.036 A 
ENDROOT
BRANCH   3   7
HETATM    7  C   UNL     1     -51.890  45.222   8.509  1.00  0.00     0.070 C 
BRANCH   7   8
HETATM    8  C   UNL     1     -51.875  46.239   9.652  1.00  0.00     0.127 C 
BRANCH   8   9
HETATM    9  C   UNL     1     -53.313  46.605  10.028  1.00  0.00     0.076 C 
BRANCH   9  10
HETATM   10  C   UNL     1     -53.368  48.049  10.454  1.00  0.00     0.011 A 
HETATM   11  C   UNL     1     -53.100  48.395  11.770  1.00  0.00     0.077 A 
HETATM   12  C   UNL     1     -53.151  49.724  12.162  1.00  0.00     0.073 A 
HETATM   13  C   UNL     1     -53.471  50.708  11.238  1.00  0.00     0.071 A 
HETATM   14  C   UNL     1     -53.739  50.362   9.922  1.00  0.00     0.073 A 
HETATM   15  C   UNL     1     -53.683  49.034   9.529  1.00  0.00     0.077 A 
BRANCH  11  16
HETATM   16  O   UNL     1     -52.786  47.431  12.675  1.00  0.00    -0.360 OA
HETATM   17  H   UNL     1     -52.526  46.581  12.382  1.00  0.00     0.217 HD
ENDBRANCH  11  16
BRANCH  13  18
HETATM   18  O   UNL     1     -53.523  52.010  11.622  1.00  0.00    -0.361 OA
HETATM   19  H   UNL     1     -52.736  52.457  11.867  1.00  0.00     0.217 HD
ENDBRANCH  13  18
BRANCH  15  20
HETATM   20  O   UNL     1     -53.946  48.695   8.239  1.00  0.00    -0.360 OA
HETATM   21  H   UNL     1     -54.734  48.236   8.027  1.00  0.00     0.217 HD
ENDBRANCH  15  20
ENDBRANCH   9  10
ENDBRANCH   8   9
BRANCH   8  22
HETATM   22  O   UNL     1     -51.216  45.672  10.786  1.00  0.00    -0.395 OA
HETATM   23  H   UNL     1     -51.579  44.789  10.963  1.00  0.00     0.210 HD
ENDBRANCH   8  22
ENDBRANCH   7   8
ENDBRANCH   3   7
BRANCH   5  24
HETATM   24  O   UNL     1     -51.545  45.204   3.640  1.00  0.00    -0.361 OA
HETATM   25  H   UNL     1     -52.067  45.546   2.941  1.00  0.00     0.217 HD
ENDBRANCH   5  24
TORSDOF 9
ENDMDL
