MODEL 1
REMARK VINA RESULT:      -7.7      0.000      0.000
REMARK  7 active torsions:
REMARK  status: ('A' for Active; 'I' for Inactive)
REMARK    1  A    between atoms: O_5  and  C_13 
REMARK    2  A    between atoms: O_5  and  C_14 
REMARK    3  A    between atoms: O_6  and  C_15 
REMARK    4  A    between atoms: O_6  and  C_22 
REMARK       I    between atoms: N_8  and  C_20 
REMARK    5  A    between atoms: N_8  and  C_21 
REMARK    6  A    between atoms: C_10  and  C_13 
REMARK    7  A    between atoms: C_17  and  C_20 
ROOT
ATOM      1 CL   UNL A   1      -2.406 -11.058  54.636  1.00  0.00    -0.080 Cl
ATOM      2 CL   UNL A   1       1.365 -12.717  51.039  1.00  0.00    -0.080 Cl
ATOM      3  N   UNL A   1      -2.602 -12.939  51.141  1.00  0.00    -0.270 NA
ATOM      4  C   UNL A   1      -0.596 -11.926  52.777  1.00  0.00     0.081 A 
ATOM      5  C   UNL A   1      -1.917 -11.809  53.166  1.00  0.00     0.080 A 
ATOM      6  C   UNL A   1      -0.259 -12.540  51.584  1.00  0.00     0.080 A 
ATOM      7  C   UNL A   1      -2.880 -12.331  52.317  1.00  0.00     0.142 A 
ATOM      8  C   UNL A   1      -1.296 -13.028  50.805  1.00  0.00     0.142 A 
ENDROOT
BRANCH   4   9
ATOM      9  N   UNL A   1       0.426 -11.408  53.609  1.00  0.00    -0.320 N 
ATOM     10  C   UNL A   1       1.014 -10.136  53.583  1.00  0.00     0.256 C 
ATOM     11  O   UNL A   1       0.714  -9.228  52.790  1.00  0.00    -0.267 OA
ATOM     12  H   UNL A   1       0.769 -12.024  54.297  1.00  0.00     0.169 HD
BRANCH  10  13
ATOM     13  C   UNL A   1       2.070  -9.904  54.556  1.00  0.00     0.035 A 
ATOM     14  C   UNL A   1       2.981  -8.866  54.362  1.00  0.00     0.056 A 
ATOM     15  C   UNL A   1       3.994  -8.645  55.295  1.00  0.00     0.103 A 
ATOM     16  C   UNL A   1       4.096  -9.461  56.421  1.00  0.00     0.108 A 
ATOM     17  C   UNL A   1       3.184 -10.498  56.616  1.00  0.00     0.041 A 
ATOM     18  C   UNL A   1       2.171 -10.720  55.682  1.00  0.00     0.020 A 
BRANCH  15  19
ATOM     19  O   UNL A   1       4.879  -7.629  55.095  1.00  0.00    -0.348 OA
BRANCH  19  20
ATOM     20  C   UNL A   1       4.466  -6.570  54.234  1.00  0.00     0.180 C 
BRANCH  20  21
ATOM     21  C   UNL A   1       4.187  -5.349  55.042  1.00  0.00     0.010 A 
ATOM     22  C   UNL A   1       2.864  -4.666  54.892  1.00  0.00     0.007 A 
ATOM     23  C   UNL A   1       3.181  -5.424  56.147  1.00  0.00     0.007 A 
ENDBRANCH  20  21
ENDBRANCH  19  20
ENDBRANCH  15  19
BRANCH  16  24
ATOM     24  O   UNL A   1       5.080  -9.253  57.340  1.00  0.00    -0.287 OA
BRANCH  24  25
ATOM     25  C   UNL A   1       5.567 -10.390  58.043  1.00  0.00     0.505 C 
ATOM     26  F   UNL A   1       6.873 -10.551  57.705  1.00  0.00    -0.184 F 
ATOM     27  F   UNL A   1       5.542 -10.134  59.374  1.00  0.00    -0.184 F 
ENDBRANCH  24  25
ENDBRANCH  16  24
ENDBRANCH  10  13
ENDBRANCH   4   9
TORSDOF 7
ENDMDL
MODEL 2
REMARK VINA RESULT:      -7.7      0.178      1.784
REMARK  7 active torsions:
REMARK  status: ('A' for Active; 'I' for Inactive)
REMARK    1  A    between atoms: O_5  and  C_13 
REMARK    2  A    between atoms: O_5  and  C_14 
REMARK    3  A    between atoms: O_6  and  C_15 
REMARK    4  A    between atoms: O_6  and  C_22 
REMARK       I    between atoms: N_8  and  C_20 
REMARK    5  A    between atoms: N_8  and  C_21 
REMARK    6  A    between atoms: C_10  and  C_13 
REMARK    7  A    between atoms: C_17  and  C_20 
ROOT
ATOM      1 CL   UNL A   1       1.520 -12.853  50.975  1.00  0.00    -0.080 Cl
ATOM      2 CL   UNL A   1      -2.406 -11.194  54.402  1.00  0.00    -0.080 Cl
ATOM      3  N   UNL A   1      -2.444 -13.124  50.928  1.00  0.00    -0.270 NA
ATOM      4  C   UNL A   1      -0.515 -12.064  52.624  1.00  0.00     0.081 A 
ATOM      5  C   UNL A   1      -0.125 -12.688  51.455  1.00  0.00     0.080 A 
ATOM      6  C   UNL A   1      -1.852 -11.958  52.962  1.00  0.00     0.080 A 
ATOM      7  C   UNL A   1      -1.125 -13.200  50.643  1.00  0.00     0.142 A 
ATOM      8  C   UNL A   1      -2.774 -12.503  52.083  1.00  0.00     0.142 A 
ENDROOT
BRANCH   4   9
ATOM      9  N   UNL A   1       0.468 -11.524  53.490  1.00  0.00    -0.320 N 
ATOM     10  C   UNL A   1       1.025 -10.238  53.484  1.00  0.00     0.256 C 
ATOM     11  O   UNL A   1       0.728  -9.336  52.684  1.00  0.00    -0.267 OA
ATOM     12  H   UNL A   1       0.804 -12.133  54.187  1.00  0.00     0.169 HD
BRANCH  10  13
ATOM     13  C   UNL A   1       2.044  -9.983  54.491  1.00  0.00     0.035 A 
ATOM     14  C   UNL A   1       2.929  -8.916  54.332  1.00  0.00     0.056 A 
ATOM     15  C   UNL A   1       3.907  -8.673  55.297  1.00  0.00     0.103 A 
ATOM     16  C   UNL A   1       3.999  -9.496  56.419  1.00  0.00     0.108 A 
ATOM     17  C   UNL A   1       3.114 -10.563  56.578  1.00  0.00     0.041 A 
ATOM     18  C   UNL A   1       2.137 -10.806  55.613  1.00  0.00     0.020 A 
BRANCH  15  19
ATOM     19  O   UNL A   1       4.766  -7.629  55.133  1.00  0.00    -0.348 OA
BRANCH  19  20
ATOM     20  C   UNL A   1       4.350  -6.579  54.262  1.00  0.00     0.180 C 
BRANCH  20  21
ATOM     21  C   UNL A   1       4.128  -5.335  55.052  1.00  0.00     0.010 A 
ATOM     22  C   UNL A   1       2.837  -4.594  54.894  1.00  0.00     0.007 A 
ATOM     23  C   UNL A   1       3.122  -5.347  56.160  1.00  0.00     0.007 A 
ENDBRANCH  20  21
ENDBRANCH  19  20
ENDBRANCH  15  19
BRANCH  16  24
ATOM     24  O   UNL A   1       4.949  -9.268  57.369  1.00  0.00    -0.287 OA
BRANCH  24  25
ATOM     25  C   UNL A   1       5.469 -10.398  58.058  1.00  0.00     0.505 C 
ATOM     26  F   UNL A   1       6.791 -10.487  57.760  1.00  0.00    -0.184 F 
ATOM     27  F   UNL A   1       5.388 -10.181  59.394  1.00  0.00    -0.184 F 
ENDBRANCH  24  25
ENDBRANCH  16  24
ENDBRANCH  10  13
ENDBRANCH   4   9
TORSDOF 7
ENDMDL
MODEL 3
REMARK VINA RESULT:      -7.6      3.556      5.008
REMARK  7 active torsions:
REMARK  status: ('A' for Active; 'I' for Inactive)
REMARK    1  A    between atoms: O_5  and  C_13 
REMARK    2  A    between atoms: O_5  and  C_14 
REMARK    3  A    between atoms: O_6  and  C_15 
REMARK    4  A    between atoms: O_6  and  C_22 
REMARK       I    between atoms: N_8  and  C_20 
REMARK    5  A    between atoms: N_8  and  C_21 
REMARK    6  A    between atoms: C_10  and  C_13 
REMARK    7  A    between atoms: C_17  and  C_20 
ROOT
ATOM      1 CL   UNL A   1       0.672  -6.207  51.259  1.00  0.00    -0.080 Cl
ATOM      2 CL   UNL A   1       4.328  -9.917  49.592  1.00  0.00    -0.080 Cl
ATOM      3  N   UNL A   1       1.987  -7.334  47.683  1.00  0.00    -0.270 NA
ATOM      4  C   UNL A   1       2.481  -8.035  50.326  1.00  0.00     0.081 A 
ATOM      5  C   UNL A   1       1.556  -7.047  50.044  1.00  0.00     0.080 A 
ATOM      6  C   UNL A   1       3.163  -8.679  49.311  1.00  0.00     0.080 A 
ATOM      7  C   UNL A   1       1.345  -6.734  48.711  1.00  0.00     0.142 A 
ATOM      8  C   UNL A   1       2.882  -8.293  48.010  1.00  0.00     0.142 A 
ENDROOT
BRANCH   4   9
ATOM      9  N   UNL A   1       2.733  -8.392  51.674  1.00  0.00    -0.320 N 
ATOM     10  C   UNL A   1       3.663  -7.838  52.565  1.00  0.00     0.256 C 
ATOM     11  O   UNL A   1       4.440  -6.907  52.296  1.00  0.00    -0.267 OA
ATOM     12  H   UNL A   1       2.184  -9.127  52.031  1.00  0.00     0.169 HD
BRANCH  10  13
ATOM     13  C   UNL A   1       3.710  -8.439  53.888  1.00  0.00     0.035 A 
ATOM     14  C   UNL A   1       2.764  -9.396  54.254  1.00  0.00     0.056 A 
ATOM     15  C   UNL A   1       2.809  -9.971  55.524  1.00  0.00     0.103 A 
ATOM     16  C   UNL A   1       3.800  -9.589  56.427  1.00  0.00     0.108 A 
ATOM     17  C   UNL A   1       4.747  -8.632  56.062  1.00  0.00     0.041 A 
ATOM     18  C   UNL A   1       4.701  -8.057  54.792  1.00  0.00     0.020 A 
BRANCH  15  19
ATOM     19  O   UNL A   1       1.880 -10.905  55.870  1.00  0.00    -0.348 OA
BRANCH  19  20
ATOM     20  C   UNL A   1       1.243 -11.611  54.807  1.00  0.00     0.180 C 
BRANCH  20  21
ATOM     21  C   UNL A   1      -0.228 -11.640  55.040  1.00  0.00     0.010 A 
ATOM     22  C   UNL A   1      -0.863 -10.530  55.819  1.00  0.00     0.007 A 
ATOM     23  C   UNL A   1      -1.095 -10.639  54.341  1.00  0.00     0.007 A 
ENDBRANCH  20  21
ENDBRANCH  19  20
ENDBRANCH  15  19
BRANCH  16  24
ATOM     24  O   UNL A   1       3.856 -10.145  57.670  1.00  0.00    -0.287 OA
BRANCH  24  25
ATOM     25  C   UNL A   1       5.100 -10.086  58.357  1.00  0.00     0.505 C 
ATOM     26  F   UNL A   1       4.830  -9.927  59.679  1.00  0.00    -0.184 F 
ATOM     27  F   UNL A   1       5.734 -11.278  58.233  1.00  0.00    -0.184 F 
ENDBRANCH  24  25
ENDBRANCH  16  24
ENDBRANCH  10  13
ENDBRANCH   4   9
TORSDOF 7
ENDMDL
MODEL 4
REMARK VINA RESULT:      -7.5      4.648      5.756
REMARK  7 active torsions:
REMARK  status: ('A' for Active; 'I' for Inactive)
REMARK    1  A    between atoms: O_5  and  C_13 
REMARK    2  A    between atoms: O_5  and  C_14 
REMARK    3  A    between atoms: O_6  and  C_15 
REMARK    4  A    between atoms: O_6  and  C_22 
REMARK       I    between atoms: N_8  and  C_20 
REMARK    5  A    between atoms: N_8  and  C_21 
REMARK    6  A    between atoms: C_10  and  C_13 
REMARK    7  A    between atoms: C_17  and  C_20 
ROOT
ATOM      1 CL   UNL A   1       4.358  -4.674  50.194  1.00  0.00    -0.080 Cl
ATOM      2 CL   UNL A   1      -0.516  -6.718  48.787  1.00  0.00    -0.080 Cl
ATOM      3  N   UNL A   1       1.897  -4.022  47.142  1.00  0.00    -0.270 NA
ATOM      4  C   UNL A   1       1.920  -5.635  49.406  1.00  0.00     0.081 A 
ATOM      5  C   UNL A   1       2.986  -4.790  49.160  1.00  0.00     0.080 A 
ATOM      6  C   UNL A   1       0.842  -5.688  48.541  1.00  0.00     0.080 A 
ATOM      7  C   UNL A   1       2.927  -4.006  48.019  1.00  0.00     0.142 A 
ATOM      8  C   UNL A   1       0.879  -4.865  47.427  1.00  0.00     0.142 A 
ENDROOT
BRANCH   4   9
ATOM      9  N   UNL A   1       1.932  -6.458  50.558  1.00  0.00    -0.320 N 
ATOM     10  C   UNL A   1       2.520  -7.720  50.725  1.00  0.00     0.256 C 
ATOM     11  O   UNL A   1       3.148  -8.335  49.847  1.00  0.00    -0.267 OA
ATOM     12  H   UNL A   1       1.466  -6.096  51.346  1.00  0.00     0.169 HD
BRANCH  10  13
ATOM     13  C   UNL A   1       2.340  -8.337  52.029  1.00  0.00     0.035 A 
ATOM     14  C   UNL A   1       2.516  -7.582  53.189  1.00  0.00     0.056 A 
ATOM     15  C   UNL A   1       2.344  -8.176  54.439  1.00  0.00     0.103 A 
ATOM     16  C   UNL A   1       1.997  -9.523  54.530  1.00  0.00     0.108 A 
ATOM     17  C   UNL A   1       1.821 -10.278  53.371  1.00  0.00     0.041 A 
ATOM     18  C   UNL A   1       1.993  -9.685  52.120  1.00  0.00     0.020 A 
BRANCH  15  19
ATOM     19  O   UNL A   1       2.518  -7.429  55.565  1.00  0.00    -0.348 OA
BRANCH  19  20
ATOM     20  C   UNL A   1       3.858  -7.096  55.921  1.00  0.00     0.180 C 
BRANCH  20  21
ATOM     21  C   UNL A   1       3.953  -5.635  56.198  1.00  0.00     0.010 A 
ATOM     22  C   UNL A   1       3.933  -4.675  55.050  1.00  0.00     0.007 A 
ATOM     23  C   UNL A   1       2.751  -4.773  55.968  1.00  0.00     0.007 A 
ENDBRANCH  20  21
ENDBRANCH  19  20
ENDBRANCH  15  19
BRANCH  16  24
ATOM     24  O   UNL A   1       1.824 -10.113  55.746  1.00  0.00    -0.287 OA
BRANCH  24  25
ATOM     25  C   UNL A   1       2.967 -10.702  56.354  1.00  0.00     0.505 C 
ATOM     26  F   UNL A   1       3.192 -10.048  57.523  1.00  0.00    -0.184 F 
ATOM     27  F   UNL A   1       2.686 -11.988  56.679  1.00  0.00    -0.184 F 
ENDBRANCH  24  25
ENDBRANCH  16  24
ENDBRANCH  10  13
ENDBRANCH   4   9
TORSDOF 7
ENDMDL
MODEL 5
REMARK VINA RESULT:      -7.5      4.638      5.670
REMARK  7 active torsions:
REMARK  status: ('A' for Active; 'I' for Inactive)
REMARK    1  A    between atoms: O_5  and  C_13 
REMARK    2  A    between atoms: O_5  and  C_14 
REMARK    3  A    between atoms: O_6  and  C_15 
REMARK    4  A    between atoms: O_6  and  C_22 
REMARK       I    between atoms: N_8  and  C_20 
REMARK    5  A    between atoms: N_8  and  C_21 
REMARK    6  A    between atoms: C_10  and  C_13 
REMARK    7  A    between atoms: C_17  and  C_20 
ROOT
ATOM      1 CL   UNL A   1      -0.507  -6.670  48.814  1.00  0.00    -0.080 Cl
ATOM      2 CL   UNL A   1       4.363  -4.630  50.240  1.00  0.00    -0.080 Cl
ATOM      3  N   UNL A   1       1.901  -3.956  47.193  1.00  0.00    -0.270 NA
ATOM      4  C   UNL A   1       1.927  -5.589  49.442  1.00  0.00     0.081 A 
ATOM      5  C   UNL A   1       0.850  -5.637  48.577  1.00  0.00     0.080 A 
ATOM      6  C   UNL A   1       2.992  -4.740  49.203  1.00  0.00     0.080 A 
ATOM      7  C   UNL A   1       0.885  -4.804  47.470  1.00  0.00     0.142 A 
ATOM      8  C   UNL A   1       2.931  -3.946  48.069  1.00  0.00     0.142 A 
ENDROOT
BRANCH   4   9
ATOM      9  N   UNL A   1       1.940  -6.420  50.589  1.00  0.00    -0.320 N 
ATOM     10  C   UNL A   1       2.479  -7.706  50.729  1.00  0.00     0.256 C 
ATOM     11  O   UNL A   1       3.054  -8.340  49.829  1.00  0.00    -0.267 OA
ATOM     12  H   UNL A   1       1.514  -6.045  51.393  1.00  0.00     0.169 HD
BRANCH  10  13
ATOM     13  C   UNL A   1       2.314  -8.325  52.035  1.00  0.00     0.035 A 
ATOM     14  C   UNL A   1       2.532  -7.579  53.193  1.00  0.00     0.056 A 
ATOM     15  C   UNL A   1       2.374  -8.174  54.445  1.00  0.00     0.103 A 
ATOM     16  C   UNL A   1       1.998  -9.514  54.538  1.00  0.00     0.108 A 
ATOM     17  C   UNL A   1       1.780 -10.260  53.380  1.00  0.00     0.041 A 
ATOM     18  C   UNL A   1       1.938  -9.665  52.128  1.00  0.00     0.020 A 
BRANCH  15  19
ATOM     19  O   UNL A   1       2.589  -7.436  55.569  1.00  0.00    -0.348 OA
BRANCH  19  20
ATOM     20  C   UNL A   1       3.932  -7.034  55.833  1.00  0.00     0.180 C 
BRANCH  20  21
ATOM     21  C   UNL A   1       3.964  -5.576  56.143  1.00  0.00     0.010 A 
ATOM     22  C   UNL A   1       3.808  -4.592  55.025  1.00  0.00     0.007 A 
ATOM     23  C   UNL A   1       2.702  -4.780  56.022  1.00  0.00     0.007 A 
ENDBRANCH  20  21
ENDBRANCH  19  20
ENDBRANCH  15  19
BRANCH  16  24
ATOM     24  O   UNL A   1       1.839 -10.105  55.755  1.00  0.00    -0.287 OA
BRANCH  24  25
ATOM     25  C   UNL A   1       3.008 -10.598  56.399  1.00  0.00     0.505 C 
ATOM     26  F   UNL A   1       3.152  -9.915  57.565  1.00  0.00    -0.184 F 
ATOM     27  F   UNL A   1       2.815 -11.897  56.735  1.00  0.00    -0.184 F 
ENDBRANCH  24  25
ENDBRANCH  16  24
ENDBRANCH  10  13
ENDBRANCH   4   9
TORSDOF 7
ENDMDL
MODEL 6
REMARK VINA RESULT:      -7.5      1.924      2.369
REMARK  7 active torsions:
REMARK  status: ('A' for Active; 'I' for Inactive)
REMARK    1  A    between atoms: O_5  and  C_13 
REMARK    2  A    between atoms: O_5  and  C_14 
REMARK    3  A    between atoms: O_6  and  C_15 
REMARK    4  A    between atoms: O_6  and  C_22 
REMARK       I    between atoms: N_8  and  C_20 
REMARK    5  A    between atoms: N_8  and  C_21 
REMARK    6  A    between atoms: C_10  and  C_13 
REMARK    7  A    between atoms: C_17  and  C_20 
ROOT
ATOM      1 CL   UNL A   1       1.235 -13.092  51.297  1.00  0.00    -0.080 Cl
ATOM      2 CL   UNL A   1       0.596  -7.682  50.807  1.00  0.00    -0.080 Cl
ATOM      3  N   UNL A   1      -0.569 -10.784  48.611  1.00  0.00    -0.270 NA
ATOM      4  C   UNL A   1       0.862 -10.402  50.964  1.00  0.00     0.081 A 
ATOM      5  C   UNL A   1       0.651 -11.685  50.494  1.00  0.00     0.080 A 
ATOM      6  C   UNL A   1       0.370  -9.306  50.278  1.00  0.00     0.080 A 
ATOM      7  C   UNL A   1      -0.067 -11.822  49.318  1.00  0.00     0.142 A 
ATOM      8  C   UNL A   1      -0.336  -9.550  49.112  1.00  0.00     0.142 A 
ENDROOT
BRANCH   4   9
ATOM      9  N   UNL A   1       1.590 -10.207  52.163  1.00  0.00    -0.320 N 
ATOM     10  C   UNL A   1       1.100 -10.061  53.468  1.00  0.00     0.256 C 
ATOM     11  O   UNL A   1      -0.101 -10.083  53.785  1.00  0.00    -0.267 OA
ATOM     12  H   UNL A   1       2.569 -10.168  52.066  1.00  0.00     0.169 HD
BRANCH  10  13
ATOM     13  C   UNL A   1       2.101  -9.846  54.502  1.00  0.00     0.035 A 
ATOM     14  C   UNL A   1       2.959  -8.749  54.423  1.00  0.00     0.056 A 
ATOM     15  C   UNL A   1       3.920  -8.544  55.414  1.00  0.00     0.103 A 
ATOM     16  C   UNL A   1       4.021  -9.434  56.482  1.00  0.00     0.108 A 
ATOM     17  C   UNL A   1       3.162 -10.530  56.561  1.00  0.00     0.041 A 
ATOM     18  C   UNL A   1       2.202 -10.736  55.570  1.00  0.00     0.020 A 
BRANCH  15  19
ATOM     19  O   UNL A   1       4.753  -7.470  55.327  1.00  0.00    -0.348 OA
BRANCH  19  20
ATOM     20  C   UNL A   1       4.416  -6.464  54.374  1.00  0.00     0.180 C 
BRANCH  20  21
ATOM     21  C   UNL A   1       4.106  -5.190  55.082  1.00  0.00     0.010 A 
ATOM     22  C   UNL A   1       2.782  -4.531  54.847  1.00  0.00     0.007 A 
ATOM     23  C   UNL A   1       3.070  -5.193  56.162  1.00  0.00     0.007 A 
ENDBRANCH  20  21
ENDBRANCH  19  20
ENDBRANCH  15  19
BRANCH  16  24
ATOM     24  O   UNL A   1       4.953  -9.243  57.457  1.00  0.00    -0.287 OA
BRANCH  24  25
ATOM     25  C   UNL A   1       5.142 -10.294  58.396  1.00  0.00     0.505 C 
ATOM     26  F   UNL A   1       6.440 -10.687  58.316  1.00  0.00    -0.184 F 
ATOM     27  F   UNL A   1       4.962  -9.809  59.649  1.00  0.00    -0.184 F 
ENDBRANCH  24  25
ENDBRANCH  16  24
ENDBRANCH  10  13
ENDBRANCH   4   9
TORSDOF 7
ENDMDL
MODEL 7
REMARK VINA RESULT:      -7.5      3.526      5.401
REMARK  7 active torsions:
REMARK  status: ('A' for Active; 'I' for Inactive)
REMARK    1  A    between atoms: O_5  and  C_13 
REMARK    2  A    between atoms: O_5  and  C_14 
REMARK    3  A    between atoms: O_6  and  C_15 
REMARK    4  A    between atoms: O_6  and  C_22 
REMARK       I    between atoms: N_8  and  C_20 
REMARK    5  A    between atoms: N_8  and  C_21 
REMARK    6  A    between atoms: C_10  and  C_13 
REMARK    7  A    between atoms: C_17  and  C_20 
ROOT
ATOM      1 CL   UNL A   1       4.373  -9.883  49.591  1.00  0.00    -0.080 Cl
ATOM      2 CL   UNL A   1       0.686  -6.186  51.219  1.00  0.00    -0.080 Cl
ATOM      3  N   UNL A   1       2.037  -7.315  47.656  1.00  0.00    -0.270 NA
ATOM      4  C   UNL A   1       2.512  -8.008  50.306  1.00  0.00     0.081 A 
ATOM      5  C   UNL A   1       3.206  -8.651  49.298  1.00  0.00     0.080 A 
ATOM      6  C   UNL A   1       1.585  -7.025  50.013  1.00  0.00     0.080 A 
ATOM      7  C   UNL A   1       2.934  -8.269  47.994  1.00  0.00     0.142 A 
ATOM      8  C   UNL A   1       1.385  -6.716  48.678  1.00  0.00     0.142 A 
ENDROOT
BRANCH   4   9
ATOM      9  N   UNL A   1       2.753  -8.362  51.656  1.00  0.00    -0.320 N 
ATOM     10  C   UNL A   1       3.734  -7.867  52.527  1.00  0.00     0.256 C 
ATOM     11  O   UNL A   1       4.578  -7.005  52.233  1.00  0.00    -0.267 OA
ATOM     12  H   UNL A   1       2.152  -9.046  52.032  1.00  0.00     0.169 HD
BRANCH  10  13
ATOM     13  C   UNL A   1       3.751  -8.449  53.860  1.00  0.00     0.035 A 
ATOM     14  C   UNL A   1       2.833  -9.442  54.199  1.00  0.00     0.056 A 
ATOM     15  C   UNL A   1       2.849  -9.998  55.479  1.00  0.00     0.103 A 
ATOM     16  C   UNL A   1       3.783  -9.561  56.418  1.00  0.00     0.108 A 
ATOM     17  C   UNL A   1       4.701  -8.567  56.078  1.00  0.00     0.041 A 
ATOM     18  C   UNL A   1       4.684  -8.011  54.799  1.00  0.00     0.020 A 
BRANCH  15  19
ATOM     19  O   UNL A   1       1.948 -10.968  55.799  1.00  0.00    -0.348 OA
BRANCH  19  20
ATOM     20  C   UNL A   1       0.597 -10.757  55.394  1.00  0.00     0.180 C 
BRANCH  20  21
ATOM     21  C   UNL A   1       0.093 -11.968  54.687  1.00  0.00     0.010 A 
ATOM     22  C   UNL A   1      -0.623 -11.803  53.383  1.00  0.00     0.007 A 
ATOM     23  C   UNL A   1       0.755 -12.395  53.415  1.00  0.00     0.007 A 
ENDBRANCH  20  21
ENDBRANCH  19  20
ENDBRANCH  15  19
BRANCH  16  24
ATOM     24  O   UNL A   1       3.809 -10.098  57.670  1.00  0.00    -0.287 OA
BRANCH  24  25
ATOM     25  C   UNL A   1       5.079 -10.232  58.296  1.00  0.00     0.505 C 
ATOM     26  F   UNL A   1       4.914  -9.968  59.618  1.00  0.00    -0.184 F 
ATOM     27  F   UNL A   1       5.484 -11.523  58.208  1.00  0.00    -0.184 F 
ENDBRANCH  24  25
ENDBRANCH  16  24
ENDBRANCH  10  13
ENDBRANCH   4   9
TORSDOF 7
ENDMDL
MODEL 8
REMARK VINA RESULT:      -7.4      2.028      2.281
REMARK  7 active torsions:
REMARK  status: ('A' for Active; 'I' for Inactive)
REMARK    1  A    between atoms: O_5  and  C_13 
REMARK    2  A    between atoms: O_5  and  C_14 
REMARK    3  A    between atoms: O_6  and  C_15 
REMARK    4  A    between atoms: O_6  and  C_22 
REMARK       I    between atoms: N_8  and  C_20 
REMARK    5  A    between atoms: N_8  and  C_21 
REMARK    6  A    between atoms: C_10  and  C_13 
REMARK    7  A    between atoms: C_17  and  C_20 
ROOT
ATOM      1 CL   UNL A   1       0.604  -7.394  50.858  1.00  0.00    -0.080 Cl
ATOM      2 CL   UNL A   1       1.317 -12.815  50.987  1.00  0.00    -0.080 Cl
ATOM      3  N   UNL A   1      -0.477 -10.352  48.435  1.00  0.00    -0.270 NA
ATOM      4  C   UNL A   1       0.908 -10.113  50.832  1.00  0.00     0.081 A 
ATOM      5  C   UNL A   1       0.412  -8.980  50.216  1.00  0.00     0.080 A 
ATOM      6  C   UNL A   1       0.725 -11.364  50.272  1.00  0.00     0.080 A 
ATOM      7  C   UNL A   1      -0.272  -9.152  49.023  1.00  0.00     0.142 A 
ATOM      8  C   UNL A   1       0.028 -11.430  49.076  1.00  0.00     0.142 A 
ENDROOT
BRANCH   4   9
ATOM      9  N   UNL A   1       1.615  -9.991  52.054  1.00  0.00    -0.320 N 
ATOM     10  C   UNL A   1       1.153 -10.221  53.357  1.00  0.00     0.256 C 
ATOM     11  O   UNL A   1       0.002 -10.583  53.651  1.00  0.00    -0.267 OA
ATOM     12  H   UNL A   1       2.555  -9.708  51.977  1.00  0.00     0.169 HD
BRANCH  10  13
ATOM     13  C   UNL A   1       2.114  -9.985  54.423  1.00  0.00     0.035 A 
ATOM     14  C   UNL A   1       3.013  -8.923  54.327  1.00  0.00     0.056 A 
ATOM     15  C   UNL A   1       3.935  -8.697  55.349  1.00  0.00     0.103 A 
ATOM     16  C   UNL A   1       3.958  -9.532  56.466  1.00  0.00     0.108 A 
ATOM     17  C   UNL A   1       3.059 -10.594  56.561  1.00  0.00     0.041 A 
ATOM     18  C   UNL A   1       2.137 -10.820  55.539  1.00  0.00     0.020 A 
BRANCH  15  19
ATOM     19  O   UNL A   1       4.809  -7.657  55.246  1.00  0.00    -0.348 OA
BRANCH  19  20
ATOM     20  C   UNL A   1       4.500  -6.643  54.292  1.00  0.00     0.180 C 
BRANCH  20  21
ATOM     21  C   UNL A   1       4.212  -5.364  54.999  1.00  0.00     0.010 A 
ATOM     22  C   UNL A   1       2.870  -4.723  54.823  1.00  0.00     0.007 A 
ATOM     23  C   UNL A   1       3.232  -5.364  56.130  1.00  0.00     0.007 A 
ENDBRANCH  20  21
ENDBRANCH  19  20
ENDBRANCH  15  19
BRANCH  16  24
ATOM     24  O   UNL A   1       4.853  -9.321  57.471  1.00  0.00    -0.287 OA
BRANCH  24  25
ATOM     25  C   UNL A   1       5.403 -10.468  58.108  1.00  0.00     0.505 C 
ATOM     26  F   UNL A   1       6.708 -10.555  57.739  1.00  0.00    -0.184 F 
ATOM     27  F   UNL A   1       5.394 -10.278  59.450  1.00  0.00    -0.184 F 
ENDBRANCH  24  25
ENDBRANCH  16  24
ENDBRANCH  10  13
ENDBRANCH   4   9
TORSDOF 7
ENDMDL
MODEL 9
REMARK VINA RESULT:      -7.4      3.403      3.920
REMARK  7 active torsions:
REMARK  status: ('A' for Active; 'I' for Inactive)
REMARK    1  A    between atoms: O_5  and  C_13 
REMARK    2  A    between atoms: O_5  and  C_14 
REMARK    3  A    between atoms: O_6  and  C_15 
REMARK    4  A    between atoms: O_6  and  C_22 
REMARK       I    between atoms: N_8  and  C_20 
REMARK    5  A    between atoms: N_8  and  C_21 
REMARK    6  A    between atoms: C_10  and  C_13 
REMARK    7  A    between atoms: C_17  and  C_20 
ROOT
ATOM      1 CL   UNL A   1       0.598  -6.216  51.032  1.00  0.00    -0.080 Cl
ATOM      2 CL   UNL A   1       4.306  -9.924  49.476  1.00  0.00    -0.080 Cl
ATOM      3  N   UNL A   1       1.924  -7.438  47.490  1.00  0.00    -0.270 NA
ATOM      4  C   UNL A   1       2.433  -8.047  50.153  1.00  0.00     0.081 A 
ATOM      5  C   UNL A   1       1.493  -7.082  49.842  1.00  0.00     0.080 A 
ATOM      6  C   UNL A   1       3.123  -8.713  49.158  1.00  0.00     0.080 A 
ATOM      7  C   UNL A   1       1.275  -6.816  48.500  1.00  0.00     0.142 A 
ATOM      8  C   UNL A   1       2.833  -8.373  47.846  1.00  0.00     0.142 A 
ENDROOT
BRANCH   4   9
ATOM      9  N   UNL A   1       2.693  -8.357  51.511  1.00  0.00    -0.320 N 
ATOM     10  C   UNL A   1       2.172  -9.405  52.283  1.00  0.00     0.256 C 
ATOM     11  O   UNL A   1       1.367 -10.259  51.875  1.00  0.00    -0.267 OA
ATOM     12  H   UNL A   1       3.322  -7.757  51.973  1.00  0.00     0.169 HD
BRANCH  10  13
ATOM     13  C   UNL A   1       2.609  -9.451  53.669  1.00  0.00     0.035 A 
ATOM     14  C   UNL A   1       3.536  -8.521  54.139  1.00  0.00     0.056 A 
ATOM     15  C   UNL A   1       3.956  -8.566  55.469  1.00  0.00     0.103 A 
ATOM     16  C   UNL A   1       3.449  -9.541  56.327  1.00  0.00     0.108 A 
ATOM     17  C   UNL A   1       2.522 -10.471  55.858  1.00  0.00     0.041 A 
ATOM     18  C   UNL A   1       2.102 -10.426  54.528  1.00  0.00     0.020 A 
BRANCH  15  19
ATOM     19  O   UNL A   1       4.862  -7.653  55.917  1.00  0.00    -0.348 OA
BRANCH  19  20
ATOM     20  C   UNL A   1       4.344  -6.462  56.506  1.00  0.00     0.180 C 
BRANCH  20  21
ATOM     21  C   UNL A   1       3.197  -5.963  55.697  1.00  0.00     0.010 A 
ATOM     22  C   UNL A   1       2.579  -4.645  56.046  1.00  0.00     0.007 A 
ATOM     23  C   UNL A   1       3.399  -4.783  54.798  1.00  0.00     0.007 A 
ENDBRANCH  20  21
ENDBRANCH  19  20
ENDBRANCH  15  19
BRANCH  16  24
ATOM     24  O   UNL A   1       3.850  -9.594  57.628  1.00  0.00    -0.287 OA
BRANCH  24  25
ATOM     25  C   UNL A   1       4.994 -10.385  57.927  1.00  0.00     0.505 C 
ATOM     26  F   UNL A   1       5.330 -10.146  59.222  1.00  0.00    -0.184 F 
ATOM     27  F   UNL A   1       4.659 -11.697  57.852  1.00  0.00    -0.184 F 
ENDBRANCH  24  25
ENDBRANCH  16  24
ENDBRANCH  10  13
ENDBRANCH   4   9
TORSDOF 7
ENDMDL
