MODEL 1
REMARK VINA RESULT:      -6.7      0.000      0.000
REMARK  3 active torsions:
REMARK  status: ('A' for Active; 'I' for Inactive)
REMARK    1  A    between atoms: O_5  and  C_15 
REMARK    2  A    between atoms: N_8  and  C_16 
REMARK    3  A    between atoms: N_12  and  C_21 
ROOT
HETATM    1  P   UNL     1      15.854   6.983  20.434  1.00  0.00     0.408 P 
HETATM    2  O   UNL     1      16.384   5.039  16.608  1.00  0.00    -0.353 OA
HETATM    3  O   UNL     1      15.368   7.516  18.974  1.00  0.00    -0.279 OA
HETATM    4  O   UNL     1      17.024   5.894  20.139  1.00  0.00    -0.287 OA
HETATM    5  O   UNL     1      14.613   6.088  20.966  1.00  0.00    -0.624 OA
HETATM    6  O   UNL     1      16.257   8.074  21.384  1.00  0.00    -0.624 OA
HETATM    7  C   UNL     1      15.245   6.532  17.973  1.00  0.00     0.198 C 
HETATM    8  C   UNL     1      16.560   5.803  17.800  1.00  0.00     0.180 C 
HETATM    9  C   UNL     1      14.993   7.013  16.562  1.00  0.00     0.199 C 
HETATM   10  C   UNL     1      15.532   5.831  15.736  1.00  0.00     0.262 C 
HETATM   11  C   UNL     1      16.883   4.994  19.040  1.00  0.00     0.216 C 
ENDROOT
BRANCH   9  12
HETATM   12  O   UNL     1      15.773   8.173  16.293  1.00  0.00    -0.388 OA
HETATM   13  H   UNL     1      15.320   8.957  16.642  1.00  0.00     0.210 HD
ENDBRANCH   9  12
BRANCH  10  14
HETATM   14  N   UNL     1      14.480   4.979  15.178  1.00  0.00    -0.294 N 
HETATM   15  C   UNL     1      14.012   4.990  13.895  1.00  0.00     0.167 A 
HETATM   16  N   UNL     1      14.415   5.774  12.884  1.00  0.00    -0.222 NA
HETATM   17  C   UNL     1      13.030   4.014  13.859  1.00  0.00     0.149 A 
HETATM   18  C   UNL     1      13.717   5.493  11.761  1.00  0.00     0.237 A 
HETATM   19  N   UNL     1      12.737   4.576  11.577  1.00  0.00    -0.222 NA
HETATM   20  C   UNL     1      12.382   3.818  12.642  1.00  0.00     0.155 A 
HETATM   21  N   UNL     1      12.894   3.415  15.086  1.00  0.00    -0.236 NA
HETATM   22  C   UNL     1      13.778   4.017  15.855  1.00  0.00     0.214 A 
BRANCH  20  23
HETATM   23  N   UNL     1      11.371   2.850  12.516  1.00  0.00    -0.382 N 
HETATM   24  H   UNL     1      11.514   2.059  11.947  1.00  0.00     0.157 HD
HETATM   25  H   UNL     1      10.519   2.961  12.997  1.00  0.00     0.157 HD
ENDBRANCH  20  23
ENDBRANCH  10  14
TORSDOF 3
ENDMDL
MODEL 2
REMARK VINA RESULT:      -6.5      5.413      7.028
REMARK  3 active torsions:
REMARK  status: ('A' for Active; 'I' for Inactive)
REMARK    1  A    between atoms: O_5  and  C_15 
REMARK    2  A    between atoms: N_8  and  C_16 
REMARK    3  A    between atoms: N_12  and  C_21 
ROOT
HETATM    1  P   UNL     1      19.361  11.591  17.519  1.00  0.00     0.408 P 
HETATM    2  O   UNL     1      18.900   7.292  17.469  1.00  0.00    -0.353 OA
HETATM    3  O   UNL     1      18.011  10.734  17.826  1.00  0.00    -0.279 OA
HETATM    4  O   UNL     1      20.331  10.598  16.674  1.00  0.00    -0.287 OA
HETATM    5  O   UNL     1      20.092  11.718  18.959  1.00  0.00    -0.624 OA
HETATM    6  O   UNL     1      19.111  12.915  16.855  1.00  0.00    -0.624 OA
HETATM    7  C   UNL     1      18.211   9.388  18.192  1.00  0.00     0.198 C 
HETATM    8  C   UNL     1      18.995   8.670  17.114  1.00  0.00     0.180 C 
HETATM    9  C   UNL     1      16.983   8.511  18.289  1.00  0.00     0.199 C 
HETATM   10  C   UNL     1      17.589   7.112  18.070  1.00  0.00     0.262 C 
HETATM   11  C   UNL     1      20.405   9.217  17.033  1.00  0.00     0.216 C 
ENDROOT
BRANCH   9  12
HETATM   12  O   UNL     1      16.083   8.809  17.226  1.00  0.00    -0.388 OA
HETATM   13  H   UNL     1      16.230   8.189  16.494  1.00  0.00     0.210 HD
ENDBRANCH   9  12
BRANCH  10  14
HETATM   14  N   UNL     1      17.719   6.332  19.302  1.00  0.00    -0.294 N 
HETATM   15  C   UNL     1      16.704   5.824  20.061  1.00  0.00     0.167 A 
HETATM   16  N   UNL     1      15.385   5.930  19.840  1.00  0.00    -0.222 NA
HETATM   17  C   UNL     1      17.329   5.172  21.112  1.00  0.00     0.149 A 
HETATM   18  C   UNL     1      14.691   5.295  20.811  1.00  0.00     0.237 A 
HETATM   19  N   UNL     1      15.161   4.623  21.890  1.00  0.00    -0.222 NA
HETATM   20  C   UNL     1      16.504   4.556  22.050  1.00  0.00     0.155 A 
HETATM   21  N   UNL     1      18.693   5.274  21.006  1.00  0.00    -0.236 NA
HETATM   22  C   UNL     1      18.894   5.976  19.909  1.00  0.00     0.214 A 
BRANCH  20  23
HETATM   23  N   UNL     1      17.053   3.874  23.149  1.00  0.00    -0.382 N 
HETATM   24  H   UNL     1      17.315   2.929  23.062  1.00  0.00     0.157 HD
HETATM   25  H   UNL     1      17.175   4.341  24.007  1.00  0.00     0.157 HD
ENDBRANCH  20  23
ENDBRANCH  10  14
TORSDOF 3
ENDMDL
MODEL 3
REMARK VINA RESULT:      -6.5      2.407      3.529
REMARK  3 active torsions:
REMARK  status: ('A' for Active; 'I' for Inactive)
REMARK    1  A    between atoms: O_5  and  C_15 
REMARK    2  A    between atoms: N_8  and  C_16 
REMARK    3  A    between atoms: N_12  and  C_21 
ROOT
HETATM    1  P   UNL     1      15.449   6.163  17.662  1.00  0.00     0.408 P 
HETATM    2  O   UNL     1      14.470   7.640  13.717  1.00  0.00    -0.353 OA
HETATM    3  O   UNL     1      13.977   6.252  16.973  1.00  0.00    -0.279 OA
HETATM    4  O   UNL     1      16.384   7.210  16.842  1.00  0.00    -0.287 OA
HETATM    5  O   UNL     1      16.011   4.710  17.221  1.00  0.00    -0.624 OA
HETATM    6  O   UNL     1      15.447   6.379  19.148  1.00  0.00    -0.624 OA
HETATM    7  C   UNL     1      13.963   6.330  15.566  1.00  0.00     0.198 C 
HETATM    8  C   UNL     1      14.776   7.521  15.106  1.00  0.00     0.180 C 
HETATM    9  C   UNL     1      12.633   6.614  14.905  1.00  0.00     0.199 C 
HETATM   10  C   UNL     1      13.083   7.229  13.567  1.00  0.00     0.262 C 
HETATM   11  C   UNL     1      16.243   7.314  15.424  1.00  0.00     0.216 C 
ENDROOT
BRANCH   9  12
HETATM   12  O   UNL     1      11.912   7.587  15.654  1.00  0.00    -0.388 OA
HETATM   13  H   UNL     1      11.023   7.691  15.279  1.00  0.00     0.210 HD
ENDBRANCH   9  12
BRANCH  10  14
HETATM   14  N   UNL     1      12.967   6.311  12.433  1.00  0.00    -0.294 N 
HETATM   15  C   UNL     1      13.962   5.940  11.574  1.00  0.00     0.167 A 
HETATM   16  N   UNL     1      15.244   6.334  11.588  1.00  0.00    -0.222 NA
HETATM   17  C   UNL     1      13.363   5.066  10.681  1.00  0.00     0.149 A 
HETATM   18  C   UNL     1      15.928   5.753  10.578  1.00  0.00     0.237 A 
HETATM   19  N   UNL     1      15.481   4.887   9.636  1.00  0.00    -0.222 NA
HETATM   20  C   UNL     1      14.174   4.533   9.683  1.00  0.00     0.155 A 
HETATM   21  N   UNL     1      12.034   4.901  10.979  1.00  0.00    -0.236 NA
HETATM   22  C   UNL     1      11.828   5.660  12.035  1.00  0.00     0.214 A 
BRANCH  20  23
HETATM   23  N   UNL     1      13.649   3.640   8.733  1.00  0.00    -0.382 N 
HETATM   24  H   UNL     1      13.915   2.692   8.749  1.00  0.00     0.157 HD
HETATM   25  H   UNL     1      13.015   3.962   8.052  1.00  0.00     0.157 HD
ENDBRANCH  20  23
ENDBRANCH  10  14
TORSDOF 3
ENDMDL
MODEL 4
REMARK VINA RESULT:      -6.4      2.974      4.655
REMARK  3 active torsions:
REMARK  status: ('A' for Active; 'I' for Inactive)
REMARK    1  A    between atoms: O_5  and  C_15 
REMARK    2  A    between atoms: N_8  and  C_16 
REMARK    3  A    between atoms: N_12  and  C_21 
ROOT
HETATM    1  P   UNL     1      14.235   5.941  16.843  1.00  0.00     0.408 P 
HETATM    2  O   UNL     1      14.694   7.429  12.809  1.00  0.00    -0.353 OA
HETATM    3  O   UNL     1      13.304   5.606  15.550  1.00  0.00    -0.279 OA
HETATM    4  O   UNL     1      15.010   7.324  16.484  1.00  0.00    -0.287 OA
HETATM    5  O   UNL     1      15.402   4.818  16.799  1.00  0.00    -0.624 OA
HETATM    6  O   UNL     1      13.489   5.978  18.146  1.00  0.00    -0.624 OA
HETATM    7  C   UNL     1      13.900   5.829  14.293  1.00  0.00     0.198 C 
HETATM    8  C   UNL     1      14.362   7.267  14.187  1.00  0.00     0.180 C 
HETATM    9  C   UNL     1      13.006   5.722  13.079  1.00  0.00     0.199 C 
HETATM   10  C   UNL     1      13.765   6.597  12.063  1.00  0.00     0.262 C 
HETATM   11  C   UNL     1      15.496   7.530  15.157  1.00  0.00     0.216 C 
ENDROOT
BRANCH   9  12
HETATM   12  O   UNL     1      11.737   6.308  13.351  1.00  0.00    -0.388 OA
HETATM   13  H   UNL     1      11.044   5.804  12.897  1.00  0.00     0.210 HD
ENDBRANCH   9  12
BRANCH  10  14
HETATM   14  N   UNL     1      14.500   5.824  11.060  1.00  0.00    -0.294 N 
HETATM   15  C   UNL     1      13.991   4.868  10.228  1.00  0.00     0.167 A 
HETATM   16  N   UNL     1      12.722   4.440  10.153  1.00  0.00    -0.222 NA
HETATM   17  C   UNL     1      15.069   4.433   9.474  1.00  0.00     0.149 A 
HETATM   18  C   UNL     1      12.602   3.482   9.207  1.00  0.00     0.237 A 
HETATM   19  N   UNL     1      13.557   2.960   8.400  1.00  0.00    -0.222 NA
HETATM   20  C   UNL     1      14.817   3.440   8.531  1.00  0.00     0.155 A 
HETATM   21  N   UNL     1      16.213   5.101   9.829  1.00  0.00    -0.236 NA
HETATM   22  C   UNL     1      15.838   5.929  10.783  1.00  0.00     0.214 A 
BRANCH  20  23
HETATM   23  N   UNL     1      15.852   2.939   7.723  1.00  0.00    -0.382 N 
HETATM   24  H   UNL     1      16.604   2.452   8.133  1.00  0.00     0.157 HD
HETATM   25  H   UNL     1      15.826   3.073   6.748  1.00  0.00     0.157 HD
ENDBRANCH  20  23
ENDBRANCH  10  14
TORSDOF 3
ENDMDL
MODEL 5
REMARK VINA RESULT:      -6.2      3.501      4.576
REMARK  3 active torsions:
REMARK  status: ('A' for Active; 'I' for Inactive)
REMARK    1  A    between atoms: O_5  and  C_15 
REMARK    2  A    between atoms: N_8  and  C_16 
REMARK    3  A    between atoms: N_12  and  C_21 
ROOT
HETATM    1  P   UNL     1      19.396   5.441  15.974  1.00  0.00     0.408 P 
HETATM    2  O   UNL     1      17.440   7.309  12.600  1.00  0.00    -0.353 OA
HETATM    3  O   UNL     1      17.796   5.590  15.712  1.00  0.00    -0.279 OA
HETATM    4  O   UNL     1      20.102   6.573  15.046  1.00  0.00    -0.287 OA
HETATM    5  O   UNL     1      19.791   4.044  15.255  1.00  0.00    -0.624 OA
HETATM    6  O   UNL     1      19.790   5.502  17.422  1.00  0.00    -0.624 OA
HETATM    7  C   UNL     1      17.412   5.812  14.375  1.00  0.00     0.198 C 
HETATM    8  C   UNL     1      18.099   7.049  13.838  1.00  0.00     0.180 C 
HETATM    9  C   UNL     1      15.962   6.153  14.122  1.00  0.00     0.199 C 
HETATM   10  C   UNL     1      16.055   6.906  12.781  1.00  0.00     0.262 C 
HETATM   11  C   UNL     1      19.594   6.821  13.734  1.00  0.00     0.216 C 
ENDROOT
BRANCH   9  12
HETATM   12  O   UNL     1      15.484   7.038  15.129  1.00  0.00    -0.388 OA
HETATM   13  H   UNL     1      16.192   7.213  15.769  1.00  0.00     0.210 HD
ENDBRANCH   9  12
BRANCH  10  14
HETATM   14  N   UNL     1      15.624   6.108  11.631  1.00  0.00    -0.294 N 
HETATM   15  C   UNL     1      14.362   5.654  11.376  1.00  0.00     0.167 A 
HETATM   16  N   UNL     1      13.260   5.841  12.117  1.00  0.00    -0.222 NA
HETATM   17  C   UNL     1      14.462   4.956  10.184  1.00  0.00     0.149 A 
HETATM   18  C   UNL     1      12.196   5.239  11.542  1.00  0.00     0.237 A 
HETATM   19  N   UNL     1      12.142   4.528  10.389  1.00  0.00    -0.222 NA
HETATM   20  C   UNL     1      13.294   4.380   9.692  1.00  0.00     0.155 A 
HETATM   21  N   UNL     1      15.751   4.978   9.714  1.00  0.00    -0.236 NA
HETATM   22  C   UNL     1      16.423   5.678  10.604  1.00  0.00     0.214 A 
BRANCH  20  23
HETATM   23  N   UNL     1      13.304   3.652   8.490  1.00  0.00    -0.382 N 
HETATM   24  H   UNL     1      12.479   3.562   7.961  1.00  0.00     0.157 HD
HETATM   25  H   UNL     1      14.138   3.232   8.175  1.00  0.00     0.157 HD
ENDBRANCH  20  23
ENDBRANCH  10  14
TORSDOF 3
ENDMDL
MODEL 6
REMARK VINA RESULT:      -6.2      1.897      2.605
REMARK  3 active torsions:
REMARK  status: ('A' for Active; 'I' for Inactive)
REMARK    1  A    between atoms: O_5  and  C_15 
REMARK    2  A    between atoms: N_8  and  C_16 
REMARK    3  A    between atoms: N_12  and  C_21 
ROOT
HETATM    1  P   UNL     1      16.291   5.709  19.411  1.00  0.00     0.408 P 
HETATM    2  O   UNL     1      15.456   7.678  15.652  1.00  0.00    -0.353 OA
HETATM    3  O   UNL     1      14.950   5.576  18.497  1.00  0.00    -0.279 OA
HETATM    4  O   UNL     1      17.002   7.097  18.951  1.00  0.00    -0.287 OA
HETATM    5  O   UNL     1      17.279   4.559  18.843  1.00  0.00    -0.624 OA
HETATM    6  O   UNL     1      16.042   5.609  20.888  1.00  0.00    -0.624 OA
HETATM    7  C   UNL     1      15.095   5.934  17.142  1.00  0.00     0.198 C 
HETATM    8  C   UNL     1      15.604   7.355  17.034  1.00  0.00     0.180 C 
HETATM    9  C   UNL     1      13.833   6.015  16.313  1.00  0.00     0.199 C 
HETATM   10  C   UNL     1      14.264   6.981  15.194  1.00  0.00     0.262 C 
HETATM   11  C   UNL     1      17.019   7.451  17.568  1.00  0.00     0.216 C 
ENDROOT
BRANCH   9  12
HETATM   12  O   UNL     1      12.785   6.608  17.073  1.00  0.00    -0.388 OA
HETATM   13  H   UNL     1      11.929   6.380  16.676  1.00  0.00     0.210 HD
ENDBRANCH   9  12
BRANCH  10  14
HETATM   14  N   UNL     1      14.548   6.315  13.922  1.00  0.00    -0.294 N 
HETATM   15  C   UNL     1      13.641   5.952  12.968  1.00  0.00     0.167 A 
HETATM   16  N   UNL     1      12.312   6.129  12.993  1.00  0.00    -0.222 NA
HETATM   17  C   UNL     1      14.389   5.360  11.963  1.00  0.00     0.149 A 
HETATM   18  C   UNL     1      11.748   5.638  11.867  1.00  0.00     0.237 A 
HETATM   19  N   UNL     1      12.346   5.037  10.810  1.00  0.00    -0.222 NA
HETATM   20  C   UNL     1      13.692   4.892  10.852  1.00  0.00     0.155 A 
HETATM   21  N   UNL     1      15.722   5.357  12.287  1.00  0.00    -0.236 NA
HETATM   22  C   UNL     1      15.784   5.937  13.468  1.00  0.00     0.214 A 
BRANCH  20  23
HETATM   23  N   UNL     1      14.371   4.277   9.787  1.00  0.00    -0.382 N 
HETATM   24  H   UNL     1      14.137   3.359   9.517  1.00  0.00     0.157 HD
HETATM   25  H   UNL     1      15.082   4.763   9.309  1.00  0.00     0.157 HD
ENDBRANCH  20  23
ENDBRANCH  10  14
TORSDOF 3
ENDMDL
MODEL 7
REMARK VINA RESULT:      -6.2      1.895      2.365
REMARK  3 active torsions:
REMARK  status: ('A' for Active; 'I' for Inactive)
REMARK    1  A    between atoms: O_5  and  C_15 
REMARK    2  A    between atoms: N_8  and  C_16 
REMARK    3  A    between atoms: N_12  and  C_21 
ROOT
HETATM    1  P   UNL     1      15.997   7.471  19.732  1.00  0.00     0.408 P 
HETATM    2  O   UNL     1      17.262   5.217  16.265  1.00  0.00    -0.353 OA
HETATM    3  O   UNL     1      16.381   8.049  18.260  1.00  0.00    -0.279 OA
HETATM    4  O   UNL     1      16.687   6.002  19.824  1.00  0.00    -0.287 OA
HETATM    5  O   UNL     1      14.412   7.152  19.637  1.00  0.00    -0.624 OA
HETATM    6  O   UNL     1      16.356   8.388  20.866  1.00  0.00    -0.624 OA
HETATM    7  C   UNL     1      16.316   7.120  17.202  1.00  0.00     0.198 C 
HETATM    8  C   UNL     1      17.212   5.936  17.497  1.00  0.00     0.180 C 
HETATM    9  C   UNL     1      16.855   7.564  15.861  1.00  0.00     0.199 C 
HETATM   10  C   UNL     1      17.198   6.213  15.207  1.00  0.00     0.262 C 
HETATM   11  C   UNL     1      16.678   5.150  18.677  1.00  0.00     0.216 C 
ENDROOT
BRANCH   9  12
HETATM   12  O   UNL     1      18.049   8.320  16.040  1.00  0.00    -0.388 OA
HETATM   13  H   UNL     1      17.887   9.244  15.793  1.00  0.00     0.210 HD
ENDBRANCH   9  12
BRANCH  10  14
HETATM   14  N   UNL     1      16.228   5.789  14.196  1.00  0.00    -0.294 N 
HETATM   15  C   UNL     1      16.420   5.744  12.845  1.00  0.00     0.167 A 
HETATM   16  N   UNL     1      17.528   6.074  12.165  1.00  0.00    -0.222 NA
HETATM   17  C   UNL     1      15.222   5.282  12.324  1.00  0.00     0.149 A 
HETATM   18  C   UNL     1      17.338   5.897  10.838  1.00  0.00     0.237 A 
HETATM   19  N   UNL     1      16.232   5.458  10.190  1.00  0.00    -0.222 NA
HETATM   20  C   UNL     1      15.150   5.142  10.941  1.00  0.00     0.155 A 
HETATM   21  N   UNL     1      14.315   5.048  13.326  1.00  0.00    -0.236 NA
HETATM   22  C   UNL     1      14.949   5.361  14.437  1.00  0.00     0.214 A 
BRANCH  20  23
HETATM   23  N   UNL     1      13.973   4.682  10.327  1.00  0.00    -0.382 N 
HETATM   24  H   UNL     1      14.023   4.155   9.497  1.00  0.00     0.157 HD
HETATM   25  H   UNL     1      13.096   4.886  10.727  1.00  0.00     0.157 HD
ENDBRANCH  20  23
ENDBRANCH  10  14
TORSDOF 3
ENDMDL
MODEL 8
REMARK VINA RESULT:      -6.2      4.516      7.097
REMARK  3 active torsions:
REMARK  status: ('A' for Active; 'I' for Inactive)
REMARK    1  A    between atoms: O_5  and  C_15 
REMARK    2  A    between atoms: N_8  and  C_16 
REMARK    3  A    between atoms: N_12  and  C_21 
ROOT
HETATM    1  P   UNL     1      12.727   4.385  11.399  1.00  0.00     0.408 P 
HETATM    2  O   UNL     1      13.555   7.562  14.215  1.00  0.00    -0.353 OA
HETATM    3  O   UNL     1      14.153   4.746  12.098  1.00  0.00    -0.279 OA
HETATM    4  O   UNL     1      11.825   5.732  11.518  1.00  0.00    -0.287 OA
HETATM    5  O   UNL     1      12.025   3.353  12.431  1.00  0.00    -0.624 OA
HETATM    6  O   UNL     1      12.846   3.849  10.002  1.00  0.00    -0.624 OA
HETATM    7  C   UNL     1      14.080   5.499  13.286  1.00  0.00     0.198 C 
HETATM    8  C   UNL     1      13.333   6.792  13.034  1.00  0.00     0.180 C 
HETATM    9  C   UNL     1      15.380   6.021  13.852  1.00  0.00     0.199 C 
HETATM   10  C   UNL     1      14.892   7.227  14.678  1.00  0.00     0.262 C 
HETATM   11  C   UNL     1      11.879   6.509  12.716  1.00  0.00     0.216 C 
ENDROOT
BRANCH   9  12
HETATM   12  O   UNL     1      16.224   6.479  12.800  1.00  0.00    -0.388 OA
HETATM   13  H   UNL     1      17.120   6.625  13.144  1.00  0.00     0.210 HD
ENDBRANCH   9  12
BRANCH  10  14
HETATM   14  N   UNL     1      14.860   6.975  16.119  1.00  0.00    -0.294 N 
HETATM   15  C   UNL     1      15.708   7.488  17.059  1.00  0.00     0.167 A 
HETATM   16  N   UNL     1      16.738   8.324  16.862  1.00  0.00    -0.222 NA
HETATM   17  C   UNL     1      15.275   6.959  18.265  1.00  0.00     0.149 A 
HETATM   18  C   UNL     1      17.344   8.610  18.036  1.00  0.00     0.237 A 
HETATM   19  N   UNL     1      17.037   8.172  19.281  1.00  0.00    -0.222 NA
HETATM   20  C   UNL     1      15.983   7.330  19.404  1.00  0.00     0.155 A 
HETATM   21  N   UNL     1      14.190   6.142  18.075  1.00  0.00    -0.236 NA
HETATM   22  C   UNL     1      13.965   6.173  16.778  1.00  0.00     0.214 A 
BRANCH  20  23
HETATM   23  N   UNL     1      15.614   6.840  20.669  1.00  0.00    -0.382 N 
HETATM   24  H   UNL     1      16.157   7.060  21.460  1.00  0.00     0.157 HD
HETATM   25  H   UNL     1      14.812   6.276  20.764  1.00  0.00     0.157 HD
ENDBRANCH  20  23
ENDBRANCH  10  14
TORSDOF 3
ENDMDL
MODEL 9
REMARK VINA RESULT:      -6.2      5.582      7.871
REMARK  3 active torsions:
REMARK  status: ('A' for Active; 'I' for Inactive)
REMARK    1  A    between atoms: O_5  and  C_15 
REMARK    2  A    between atoms: N_8  and  C_16 
REMARK    3  A    between atoms: N_12  and  C_21 
ROOT
HETATM    1  P   UNL     1      13.033   4.559   9.421  1.00  0.00     0.408 P 
HETATM    2  O   UNL     1      14.743   6.571  12.846  1.00  0.00    -0.353 OA
HETATM    3  O   UNL     1      14.444   5.368   9.495  1.00  0.00    -0.279 OA
HETATM    4  O   UNL     1      12.149   5.099  10.674  1.00  0.00    -0.287 OA
HETATM    5  O   UNL     1      13.418   3.043   9.841  1.00  0.00    -0.624 OA
HETATM    6  O   UNL     1      12.337   4.655   8.094  1.00  0.00    -0.624 OA
HETATM    7  C   UNL     1      14.989   5.533  10.784  1.00  0.00     0.198 C 
HETATM    8  C   UNL     1      13.991   6.234  11.681  1.00  0.00     0.180 C 
HETATM    9  C   UNL     1      16.187   6.446  10.913  1.00  0.00     0.199 C 
HETATM   10  C   UNL     1      16.093   6.865  12.393  1.00  0.00     0.262 C 
HETATM   11  C   UNL     1      12.787   5.347  11.927  1.00  0.00     0.216 C 
ENDROOT
BRANCH   9  12
HETATM   12  O   UNL     1      16.020   7.593  10.086  1.00  0.00    -0.388 OA
HETATM   13  H   UNL     1      15.629   7.327   9.239  1.00  0.00     0.210 HD
ENDBRANCH   9  12
BRANCH  10  14
HETATM   14  N   UNL     1      17.057   6.181  13.257  1.00  0.00    -0.294 N 
HETATM   15  C   UNL     1      18.391   6.010  13.020  1.00  0.00     0.167 A 
HETATM   16  N   UNL     1      19.093   6.429  11.957  1.00  0.00    -0.222 NA
HETATM   17  C   UNL     1      18.867   5.309  14.116  1.00  0.00     0.149 A 
HETATM   18  C   UNL     1      20.391   6.072  12.078  1.00  0.00     0.237 A 
HETATM   19  N   UNL     1      20.995   5.391  13.082  1.00  0.00    -0.222 NA
HETATM   20  C   UNL     1      20.224   5.000  14.124  1.00  0.00     0.155 A 
HETATM   21  N   UNL     1      17.854   5.054  15.007  1.00  0.00    -0.236 NA
HETATM   22  C   UNL     1      16.782   5.591  14.462  1.00  0.00     0.214 A 
BRANCH  20  23
HETATM   23  N   UNL     1      20.791   4.290  15.197  1.00  0.00    -0.382 N 
HETATM   24  H   UNL     1      21.269   3.445  15.030  1.00  0.00     0.157 HD
HETATM   25  H   UNL     1      20.709   4.636  16.115  1.00  0.00     0.157 HD
ENDBRANCH  20  23
ENDBRANCH  10  14
TORSDOF 3
ENDMDL
