MODEL 1
REMARK VINA RESULT:      -6.7      0.000      0.000
REMARK  3 active torsions:
REMARK  status: ('A' for Active; 'I' for Inactive)
REMARK    1  A    between atoms: O_5  and  C_15 
REMARK    2  A    between atoms: N_8  and  C_16 
REMARK    3  A    between atoms: N_12  and  C_21 
ROOT
HETATM    1  P   UNL     1      15.858   6.971  20.439  1.00  0.00     0.408 P 
HETATM    2  O   UNL     1      16.391   5.041  16.606  1.00  0.00    -0.353 OA
HETATM    3  O   UNL     1      15.369   7.507  18.981  1.00  0.00    -0.279 OA
HETATM    4  O   UNL     1      17.032   5.888  20.139  1.00  0.00    -0.287 OA
HETATM    5  O   UNL     1      14.622   6.070  20.970  1.00  0.00    -0.624 OA
HETATM    6  O   UNL     1      16.258   8.061  21.392  1.00  0.00    -0.624 OA
HETATM    7  C   UNL     1      15.248   6.525  17.977  1.00  0.00     0.198 C 
HETATM    8  C   UNL     1      16.565   5.802  17.800  1.00  0.00     0.180 C 
HETATM    9  C   UNL     1      14.992   7.010  16.568  1.00  0.00     0.199 C 
HETATM   10  C   UNL     1      15.534   5.831  15.737  1.00  0.00     0.262 C 
HETATM   11  C   UNL     1      16.893   4.990  19.037  1.00  0.00     0.216 C 
ENDROOT
BRANCH   9  12
HETATM   12  O   UNL     1      15.768   8.173  16.302  1.00  0.00    -0.388 OA
HETATM   13  H   UNL     1      16.114   8.529  17.135  1.00  0.00     0.210 HD
ENDBRANCH   9  12
BRANCH  10  14
HETATM   14  N   UNL     1      14.485   4.978  15.178  1.00  0.00    -0.294 N 
HETATM   15  C   UNL     1      14.014   4.991  13.896  1.00  0.00     0.167 A 
HETATM   16  N   UNL     1      14.411   5.781  12.887  1.00  0.00    -0.222 NA
HETATM   17  C   UNL     1      13.036   4.011  13.859  1.00  0.00     0.149 A 
HETATM   18  C   UNL     1      13.712   5.501  11.765  1.00  0.00     0.237 A 
HETATM   19  N   UNL     1      12.736   4.580  11.580  1.00  0.00    -0.222 NA
HETATM   20  C   UNL     1      12.386   3.817  12.643  1.00  0.00     0.155 A 
HETATM   21  N   UNL     1      12.905   3.407  15.084  1.00  0.00    -0.236 NA
HETATM   22  C   UNL     1      13.788   4.010  15.853  1.00  0.00     0.214 A 
BRANCH  20  23
HETATM   23  N   UNL     1      11.379   2.845  12.515  1.00  0.00    -0.382 N 
HETATM   24  H   UNL     1      10.474   3.107  12.229  1.00  0.00     0.157 HD
HETATM   25  H   UNL     1      11.578   1.901  12.712  1.00  0.00     0.157 HD
ENDBRANCH  20  23
ENDBRANCH  10  14
TORSDOF 3
ENDMDL
MODEL 2
REMARK VINA RESULT:      -6.5      5.419      7.038
REMARK  3 active torsions:
REMARK  status: ('A' for Active; 'I' for Inactive)
REMARK    1  A    between atoms: O_5  and  C_15 
REMARK    2  A    between atoms: N_8  and  C_16 
REMARK    3  A    between atoms: N_12  and  C_21 
ROOT
HETATM    1  P   UNL     1      19.363  11.589  17.520  1.00  0.00     0.408 P 
HETATM    2  O   UNL     1      18.909   7.289  17.480  1.00  0.00    -0.353 OA
HETATM    3  O   UNL     1      18.014  10.730  17.829  1.00  0.00    -0.279 OA
HETATM    4  O   UNL     1      20.335  10.595  16.677  1.00  0.00    -0.287 OA
HETATM    5  O   UNL     1      20.093  11.721  18.959  1.00  0.00    -0.624 OA
HETATM    6  O   UNL     1      19.110  12.910  16.852  1.00  0.00    -0.624 OA
HETATM    7  C   UNL     1      18.216   9.385  18.197  1.00  0.00     0.198 C 
HETATM    8  C   UNL     1      19.001   8.666  17.121  1.00  0.00     0.180 C 
HETATM    9  C   UNL     1      16.990   8.507  18.297  1.00  0.00     0.199 C 
HETATM   10  C   UNL     1      17.598   7.108  18.081  1.00  0.00     0.262 C 
HETATM   11  C   UNL     1      20.411   9.216  17.039  1.00  0.00     0.216 C 
ENDROOT
BRANCH   9  12
HETATM   12  O   UNL     1      16.090   8.800  17.233  1.00  0.00    -0.388 OA
HETATM   13  H   UNL     1      15.729   9.694  17.351  1.00  0.00     0.210 HD
ENDBRANCH   9  12
BRANCH  10  14
HETATM   14  N   UNL     1      17.730   6.331  19.315  1.00  0.00    -0.294 N 
HETATM   15  C   UNL     1      16.715   5.820  20.073  1.00  0.00     0.167 A 
HETATM   16  N   UNL     1      15.397   5.918  19.849  1.00  0.00    -0.222 NA
HETATM   17  C   UNL     1      17.341   5.173  21.127  1.00  0.00     0.149 A 
HETATM   18  C   UNL     1      14.704   5.282  20.819  1.00  0.00     0.237 A 
HETATM   19  N   UNL     1      15.174   4.614  21.900  1.00  0.00    -0.222 NA
HETATM   20  C   UNL     1      16.517   4.555  22.063  1.00  0.00     0.155 A 
HETATM   21  N   UNL     1      18.705   5.282  21.023  1.00  0.00    -0.236 NA
HETATM   22  C   UNL     1      18.905   5.982  19.926  1.00  0.00     0.214 A 
BRANCH  20  23
HETATM   23  N   UNL     1      17.067   3.878  23.165  1.00  0.00    -0.382 N 
HETATM   24  H   UNL     1      17.118   2.894  23.164  1.00  0.00     0.157 HD
HETATM   25  H   UNL     1      17.402   4.387  23.939  1.00  0.00     0.157 HD
ENDBRANCH  20  23
ENDBRANCH  10  14
TORSDOF 3
ENDMDL
MODEL 3
REMARK VINA RESULT:      -6.5      2.386      3.500
REMARK  3 active torsions:
REMARK  status: ('A' for Active; 'I' for Inactive)
REMARK    1  A    between atoms: O_5  and  C_15 
REMARK    2  A    between atoms: N_8  and  C_16 
REMARK    3  A    between atoms: N_12  and  C_21 
ROOT
HETATM    1  P   UNL     1      15.453   6.134  17.700  1.00  0.00     0.408 P 
HETATM    2  O   UNL     1      14.513   7.619  13.749  1.00  0.00    -0.353 OA
HETATM    3  O   UNL     1      13.985   6.244  17.005  1.00  0.00    -0.279 OA
HETATM    4  O   UNL     1      16.407   7.166  16.883  1.00  0.00    -0.287 OA
HETATM    5  O   UNL     1      15.995   4.672  17.264  1.00  0.00    -0.624 OA
HETATM    6  O   UNL     1      15.447   6.352  19.186  1.00  0.00    -0.624 OA
HETATM    7  C   UNL     1      13.979   6.319  15.597  1.00  0.00     0.198 C 
HETATM    8  C   UNL     1      14.811   7.498  15.139  1.00  0.00     0.180 C 
HETATM    9  C   UNL     1      12.656   6.622  14.930  1.00  0.00     0.199 C 
HETATM   10  C   UNL     1      13.121   7.229  13.593  1.00  0.00     0.262 C 
HETATM   11  C   UNL     1      16.274   7.269  15.464  1.00  0.00     0.216 C 
ENDROOT
BRANCH   9  12
HETATM   12  O   UNL     1      11.946   7.607  15.674  1.00  0.00    -0.388 OA
HETATM   13  H   UNL     1      10.994   7.429  15.620  1.00  0.00     0.210 HD
ENDBRANCH   9  12
BRANCH  10  14
HETATM   14  N   UNL     1      12.997   6.310  12.459  1.00  0.00    -0.294 N 
HETATM   15  C   UNL     1      13.985   5.942  11.591  1.00  0.00     0.167 A 
HETATM   16  N   UNL     1      15.266   6.338  11.594  1.00  0.00    -0.222 NA
HETATM   17  C   UNL     1      13.380   5.067  10.703  1.00  0.00     0.149 A 
HETATM   18  C   UNL     1      15.942   5.759  10.578  1.00  0.00     0.237 A 
HETATM   19  N   UNL     1      15.488   4.893   9.640  1.00  0.00    -0.222 NA
HETATM   20  C   UNL     1      14.183   4.536   9.698  1.00  0.00     0.155 A 
HETATM   21  N   UNL     1      12.054   4.899  11.014  1.00  0.00    -0.236 NA
HETATM   22  C   UNL     1      11.856   5.658  12.072  1.00  0.00     0.214 A 
BRANCH  20  23
HETATM   23  N   UNL     1      13.651   3.642   8.753  1.00  0.00    -0.382 N 
HETATM   24  H   UNL     1      12.696   3.403   8.783  1.00  0.00     0.157 HD
HETATM   25  H   UNL     1      14.233   3.254   8.060  1.00  0.00     0.157 HD
ENDBRANCH  20  23
ENDBRANCH  10  14
TORSDOF 3
ENDMDL
MODEL 4
REMARK VINA RESULT:      -6.2      3.505      4.590
REMARK  3 active torsions:
REMARK  status: ('A' for Active; 'I' for Inactive)
REMARK    1  A    between atoms: O_5  and  C_15 
REMARK    2  A    between atoms: N_8  and  C_16 
REMARK    3  A    between atoms: N_12  and  C_21 
ROOT
HETATM    1  P   UNL     1      19.434   5.445  15.936  1.00  0.00     0.408 P 
HETATM    2  O   UNL     1      17.386   7.335  12.630  1.00  0.00    -0.353 OA
HETATM    3  O   UNL     1      17.828   5.553  15.695  1.00  0.00    -0.279 OA
HETATM    4  O   UNL     1      20.096   6.619  15.029  1.00  0.00    -0.287 OA
HETATM    5  O   UNL     1      19.862   4.079  15.180  1.00  0.00    -0.624 OA
HETATM    6  O   UNL     1      19.843   5.483  17.381  1.00  0.00    -0.624 OA
HETATM    7  C   UNL     1      17.423   5.795  14.368  1.00  0.00     0.198 C 
HETATM    8  C   UNL     1      18.067   7.065  13.854  1.00  0.00     0.180 C 
HETATM    9  C   UNL     1      15.960   6.100  14.138  1.00  0.00     0.199 C 
HETATM   10  C   UNL     1      16.016   6.887  12.816  1.00  0.00     0.262 C 
HETATM   11  C   UNL     1      19.566   6.884  13.729  1.00  0.00     0.216 C 
ENDROOT
BRANCH   9  12
HETATM   12  O   UNL     1      15.468   6.946  15.172  1.00  0.00    -0.388 OA
HETATM   13  H   UNL     1      14.715   7.461  14.839  1.00  0.00     0.210 HD
ENDBRANCH   9  12
BRANCH  10  14
HETATM   14  N   UNL     1      15.596   6.105  11.651  1.00  0.00    -0.294 N 
HETATM   15  C   UNL     1      14.338   5.646  11.384  1.00  0.00     0.167 A 
HETATM   16  N   UNL     1      13.231   5.814  12.123  1.00  0.00    -0.222 NA
HETATM   17  C   UNL     1      14.448   4.968  10.181  1.00  0.00     0.149 A 
HETATM   18  C   UNL     1      12.174   5.214  11.533  1.00  0.00     0.237 A 
HETATM   19  N   UNL     1      12.130   4.521  10.369  1.00  0.00    -0.222 NA
HETATM   20  C   UNL     1      13.286   4.392   9.675  1.00  0.00     0.155 A 
HETATM   21  N   UNL     1      15.738   5.006   9.717  1.00  0.00    -0.236 NA
HETATM   22  C   UNL     1      16.402   5.697  10.622  1.00  0.00     0.214 A 
BRANCH  20  23
HETATM   23  N   UNL     1      13.306   3.683   8.461  1.00  0.00    -0.382 N 
HETATM   24  H   UNL     1      13.617   4.125   7.638  1.00  0.00     0.157 HD
HETATM   25  H   UNL     1      13.010   2.745   8.433  1.00  0.00     0.157 HD
ENDBRANCH  20  23
ENDBRANCH  10  14
TORSDOF 3
ENDMDL
MODEL 5
REMARK VINA RESULT:      -6.2      1.918      2.391
REMARK  3 active torsions:
REMARK  status: ('A' for Active; 'I' for Inactive)
REMARK    1  A    between atoms: O_5  and  C_15 
REMARK    2  A    between atoms: N_8  and  C_16 
REMARK    3  A    between atoms: N_12  and  C_21 
ROOT
HETATM    1  P   UNL     1      15.975   7.466  19.746  1.00  0.00     0.408 P 
HETATM    2  O   UNL     1      17.280   5.229  16.282  1.00  0.00    -0.353 OA
HETATM    3  O   UNL     1      16.367   8.050  18.277  1.00  0.00    -0.279 OA
HETATM    4  O   UNL     1      16.673   6.001  19.839  1.00  0.00    -0.287 OA
HETATM    5  O   UNL     1      14.393   7.137  19.637  1.00  0.00    -0.624 OA
HETATM    6  O   UNL     1      16.321   8.382  20.884  1.00  0.00    -0.624 OA
HETATM    7  C   UNL     1      16.315   7.123  17.216  1.00  0.00     0.198 C 
HETATM    8  C   UNL     1      17.216   5.944  17.515  1.00  0.00     0.180 C 
HETATM    9  C   UNL     1      16.862   7.574  15.881  1.00  0.00     0.199 C 
HETATM   10  C   UNL     1      17.218   6.227  15.226  1.00  0.00     0.262 C 
HETATM   11  C   UNL     1      16.678   5.152  18.690  1.00  0.00     0.216 C 
ENDROOT
BRANCH   9  12
HETATM   12  O   UNL     1      18.049   8.337  16.070  1.00  0.00    -0.388 OA
HETATM   13  H   UNL     1      18.805   7.858  15.695  1.00  0.00     0.210 HD
ENDBRANCH   9  12
BRANCH  10  14
HETATM   14  N   UNL     1      16.258   5.799  14.207  1.00  0.00    -0.294 N 
HETATM   15  C   UNL     1      16.464   5.747  12.858  1.00  0.00     0.167 A 
HETATM   16  N   UNL     1      17.580   6.072  12.188  1.00  0.00    -0.222 NA
HETATM   17  C   UNL     1      15.271   5.285  12.326  1.00  0.00     0.149 A 
HETATM   18  C   UNL     1      17.404   5.889  10.861  1.00  0.00     0.237 A 
HETATM   19  N   UNL     1      16.305   5.448  10.202  1.00  0.00    -0.222 NA
HETATM   20  C   UNL     1      15.214   5.138  10.943  1.00  0.00     0.155 A 
HETATM   21  N   UNL     1      14.352   5.057  13.319  1.00  0.00    -0.236 NA
HETATM   22  C   UNL     1      14.975   5.375  14.436  1.00  0.00     0.214 A 
BRANCH  20  23
HETATM   23  N   UNL     1      14.042   4.677  10.319  1.00  0.00    -0.382 N 
HETATM   24  H   UNL     1      13.925   3.716  10.141  1.00  0.00     0.157 HD
HETATM   25  H   UNL     1      13.338   5.315  10.060  1.00  0.00     0.157 HD
ENDBRANCH  20  23
ENDBRANCH  10  14
TORSDOF 3
ENDMDL
MODEL 6
REMARK VINA RESULT:      -6.2      1.906      2.641
REMARK  3 active torsions:
REMARK  status: ('A' for Active; 'I' for Inactive)
REMARK    1  A    between atoms: O_5  and  C_15 
REMARK    2  A    between atoms: N_8  and  C_16 
REMARK    3  A    between atoms: N_12  and  C_21 
ROOT
HETATM    1  P   UNL     1      16.357   5.723  19.320  1.00  0.00     0.408 P 
HETATM    2  O   UNL     1      15.526   7.679  15.554  1.00  0.00    -0.353 OA
HETATM    3  O   UNL     1      15.017   5.586  18.405  1.00  0.00    -0.279 OA
HETATM    4  O   UNL     1      17.067   7.110  18.857  1.00  0.00    -0.287 OA
HETATM    5  O   UNL     1      17.346   4.571  18.757  1.00  0.00    -0.624 OA
HETATM    6  O   UNL     1      16.105   5.627  20.797  1.00  0.00    -0.624 OA
HETATM    7  C   UNL     1      15.163   5.940  17.048  1.00  0.00     0.198 C 
HETATM    8  C   UNL     1      15.672   7.361  16.937  1.00  0.00     0.180 C 
HETATM    9  C   UNL     1      13.903   6.017  16.217  1.00  0.00     0.199 C 
HETATM   10  C   UNL     1      14.336   6.980  15.096  1.00  0.00     0.262 C 
HETATM   11  C   UNL     1      17.086   7.459  17.472  1.00  0.00     0.216 C 
ENDROOT
BRANCH   9  12
HETATM   12  O   UNL     1      12.853   6.612  16.973  1.00  0.00    -0.388 OA
HETATM   13  H   UNL     1      13.210   6.953  17.809  1.00  0.00     0.210 HD
ENDBRANCH   9  12
BRANCH  10  14
HETATM   14  N   UNL     1      14.622   6.310  13.826  1.00  0.00    -0.294 N 
HETATM   15  C   UNL     1      13.716   5.936  12.876  1.00  0.00     0.167 A 
HETATM   16  N   UNL     1      12.385   6.103  12.903  1.00  0.00    -0.222 NA
HETATM   17  C   UNL     1      14.466   5.345  11.872  1.00  0.00     0.149 A 
HETATM   18  C   UNL     1      11.823   5.603  11.780  1.00  0.00     0.237 A 
HETATM   19  N   UNL     1      12.424   5.002  10.724  1.00  0.00    -0.222 NA
HETATM   20  C   UNL     1      13.771   4.867  10.765  1.00  0.00     0.155 A 
HETATM   21  N   UNL     1      15.800   5.353  12.194  1.00  0.00    -0.236 NA
HETATM   22  C   UNL     1      15.860   5.939  13.371  1.00  0.00     0.214 A 
BRANCH  20  23
HETATM   23  N   UNL     1      14.452   4.251   9.701  1.00  0.00    -0.382 N 
HETATM   24  H   UNL     1      15.404   4.017   9.795  1.00  0.00     0.157 HD
HETATM   25  H   UNL     1      13.978   4.054   8.861  1.00  0.00     0.157 HD
ENDBRANCH  20  23
ENDBRANCH  10  14
TORSDOF 3
ENDMDL
MODEL 7
REMARK VINA RESULT:      -6.2      4.517      7.098
REMARK  3 active torsions:
REMARK  status: ('A' for Active; 'I' for Inactive)
REMARK    1  A    between atoms: O_5  and  C_15 
REMARK    2  A    between atoms: N_8  and  C_16 
REMARK    3  A    between atoms: N_12  and  C_21 
ROOT
HETATM    1  P   UNL     1      12.730   4.388  11.400  1.00  0.00     0.408 P 
HETATM    2  O   UNL     1      13.555   7.562  14.219  1.00  0.00    -0.353 OA
HETATM    3  O   UNL     1      14.156   4.751  12.095  1.00  0.00    -0.279 OA
HETATM    4  O   UNL     1      11.824   5.732  11.524  1.00  0.00    -0.287 OA
HETATM    5  O   UNL     1      12.033   3.352  12.432  1.00  0.00    -0.624 OA
HETATM    6  O   UNL     1      12.846   3.854  10.001  1.00  0.00    -0.624 OA
HETATM    7  C   UNL     1      14.084   5.502  13.286  1.00  0.00     0.198 C 
HETATM    8  C   UNL     1      13.333   6.793  13.038  1.00  0.00     0.180 C 
HETATM    9  C   UNL     1      15.384   6.027  13.849  1.00  0.00     0.199 C 
HETATM   10  C   UNL     1      14.895   7.230  14.678  1.00  0.00     0.262 C 
HETATM   11  C   UNL     1      11.879   6.507  12.722  1.00  0.00     0.216 C 
ENDROOT
BRANCH   9  12
HETATM   12  O   UNL     1      16.224   6.489  12.796  1.00  0.00    -0.388 OA
HETATM   13  H   UNL     1      16.486   7.407  12.970  1.00  0.00     0.210 HD
ENDBRANCH   9  12
BRANCH  10  14
HETATM   14  N   UNL     1      14.867   6.975  16.119  1.00  0.00    -0.294 N 
HETATM   15  C   UNL     1      15.715   7.491  17.058  1.00  0.00     0.167 A 
HETATM   16  N   UNL     1      16.740   8.333  16.860  1.00  0.00    -0.222 NA
HETATM   17  C   UNL     1      15.287   6.958  18.263  1.00  0.00     0.149 A 
HETATM   18  C   UNL     1      17.347   8.621  18.033  1.00  0.00     0.237 A 
HETATM   19  N   UNL     1      17.044   8.179  19.278  1.00  0.00    -0.222 NA
HETATM   20  C   UNL     1      15.996   7.331  19.402  1.00  0.00     0.155 A 
HETATM   21  N   UNL     1      14.206   6.135  18.075  1.00  0.00    -0.236 NA
HETATM   22  C   UNL     1      13.978   6.167  16.778  1.00  0.00     0.214 A 
BRANCH  20  23
HETATM   23  N   UNL     1      15.632   6.836  20.667  1.00  0.00    -0.382 N 
HETATM   24  H   UNL     1      14.814   6.298  20.768  1.00  0.00     0.157 HD
HETATM   25  H   UNL     1      16.196   7.027  21.451  1.00  0.00     0.157 HD
ENDBRANCH  20  23
ENDBRANCH  10  14
TORSDOF 3
ENDMDL
MODEL 8
REMARK VINA RESULT:      -6.2      5.471      7.443
REMARK  3 active torsions:
REMARK  status: ('A' for Active; 'I' for Inactive)
REMARK    1  A    between atoms: O_5  and  C_15 
REMARK    2  A    between atoms: N_8  and  C_16 
REMARK    3  A    between atoms: N_12  and  C_21 
ROOT
HETATM    1  P   UNL     1      14.927   5.449  21.311  1.00  0.00     0.408 P 
HETATM    2  O   UNL     1      16.669   8.143  18.412  1.00  0.00    -0.353 OA
HETATM    3  O   UNL     1      16.101   5.121  20.232  1.00  0.00    -0.279 OA
HETATM    4  O   UNL     1      14.165   6.769  20.746  1.00  0.00    -0.287 OA
HETATM    5  O   UNL     1      15.721   5.985  22.616  1.00  0.00    -0.624 OA
HETATM    6  O   UNL     1      14.014   4.291  21.598  1.00  0.00    -0.624 OA
HETATM    7  C   UNL     1      16.801   6.236  19.731  1.00  0.00     0.198 C 
HETATM    8  C   UNL     1      15.833   7.213  19.098  1.00  0.00     0.180 C 
HETATM    9  C   UNL     1      17.756   5.992  18.585  1.00  0.00     0.199 C 
HETATM   10  C   UNL     1      17.817   7.388  17.936  1.00  0.00     0.262 C 
HETATM   11  C   UNL     1      14.929   7.819  20.152  1.00  0.00     0.216 C 
ENDROOT
BRANCH   9  12
HETATM   12  O   UNL     1      17.189   5.066  17.664  1.00  0.00    -0.388 OA
HETATM   13  H   UNL     1      16.966   4.243  18.127  1.00  0.00     0.210 HD
ENDBRANCH   9  12
BRANCH  10  14
HETATM   14  N   UNL     1      19.046   8.122  18.242  1.00  0.00    -0.294 N 
HETATM   15  C   UNL     1      19.220   9.476  18.208  1.00  0.00     0.167 A 
HETATM   16  N   UNL     1      18.312  10.411  17.891  1.00  0.00    -0.222 NA
HETATM   17  C   UNL     1      20.541   9.681  18.573  1.00  0.00     0.149 A 
HETATM   18  C   UNL     1      18.856  11.645  17.969  1.00  0.00     0.237 A 
HETATM   19  N   UNL     1      20.120  11.996  18.308  1.00  0.00    -0.222 NA
HETATM   20  C   UNL     1      20.984  11.000  18.617  1.00  0.00     0.155 A 
HETATM   21  N   UNL     1      21.166   8.486  18.826  1.00  0.00    -0.236 NA
HETATM   22  C   UNL     1      20.242   7.571  18.619  1.00  0.00     0.214 A 
BRANCH  20  23
HETATM   23  N   UNL     1      22.310  11.299  18.975  1.00  0.00    -0.382 N 
HETATM   24  H   UNL     1      22.863  11.865  18.389  1.00  0.00     0.157 HD
HETATM   25  H   UNL     1      22.686  10.943  19.813  1.00  0.00     0.157 HD
ENDBRANCH  20  23
ENDBRANCH  10  14
TORSDOF 3
ENDMDL
MODEL 9
REMARK VINA RESULT:      -6.2      5.585      7.873
REMARK  3 active torsions:
REMARK  status: ('A' for Active; 'I' for Inactive)
REMARK    1  A    between atoms: O_5  and  C_15 
REMARK    2  A    between atoms: N_8  and  C_16 
REMARK    3  A    between atoms: N_12  and  C_21 
ROOT
HETATM    1  P   UNL     1      13.035   4.563   9.422  1.00  0.00     0.408 P 
HETATM    2  O   UNL     1      14.748   6.573  12.846  1.00  0.00    -0.353 OA
HETATM    3  O   UNL     1      14.445   5.372   9.494  1.00  0.00    -0.279 OA
HETATM    4  O   UNL     1      12.152   5.102  10.676  1.00  0.00    -0.287 OA
HETATM    5  O   UNL     1      13.420   3.046   9.840  1.00  0.00    -0.624 OA
HETATM    6  O   UNL     1      12.337   4.660   8.096  1.00  0.00    -0.624 OA
HETATM    7  C   UNL     1      14.992   5.536  10.783  1.00  0.00     0.198 C 
HETATM    8  C   UNL     1      13.995   6.237  11.682  1.00  0.00     0.180 C 
HETATM    9  C   UNL     1      16.190   6.449  10.912  1.00  0.00     0.199 C 
HETATM   10  C   UNL     1      16.098   6.867  12.392  1.00  0.00     0.262 C 
HETATM   11  C   UNL     1      12.792   5.349  11.929  1.00  0.00     0.216 C 
ENDROOT
BRANCH   9  12
HETATM   12  O   UNL     1      16.022   7.596  10.085  1.00  0.00    -0.388 OA
HETATM   13  H   UNL     1      15.407   7.389   9.364  1.00  0.00     0.210 HD
ENDBRANCH   9  12
BRANCH  10  14
HETATM   14  N   UNL     1      17.063   6.183  13.254  1.00  0.00    -0.294 N 
HETATM   15  C   UNL     1      18.397   6.012  13.015  1.00  0.00     0.167 A 
HETATM   16  N   UNL     1      19.098   6.432  11.952  1.00  0.00    -0.222 NA
HETATM   17  C   UNL     1      18.874   5.310  14.111  1.00  0.00     0.149 A 
HETATM   18  C   UNL     1      20.396   6.074  12.071  1.00  0.00     0.237 A 
HETATM   19  N   UNL     1      21.001   5.394  13.074  1.00  0.00    -0.222 NA
HETATM   20  C   UNL     1      20.231   5.001  14.117  1.00  0.00     0.155 A 
HETATM   21  N   UNL     1      17.863   5.055  15.002  1.00  0.00    -0.236 NA
HETATM   22  C   UNL     1      16.790   5.591  14.459  1.00  0.00     0.214 A 
BRANCH  20  23
HETATM   23  N   UNL     1      20.799   4.290  15.188  1.00  0.00    -0.382 N 
HETATM   24  H   UNL     1      20.386   4.331  16.081  1.00  0.00     0.157 HD
HETATM   25  H   UNL     1      21.611   3.750  15.046  1.00  0.00     0.157 HD
ENDBRANCH  20  23
ENDBRANCH  10  14
TORSDOF 3
ENDMDL
