MODEL 1
REMARK VINA RESULT:      -6.7      0.000      0.000
REMARK  3 active torsions:
REMARK  status: ('A' for Active; 'I' for Inactive)
REMARK    1  A    between atoms: O_5  and  C_15 
REMARK    2  A    between atoms: N_8  and  C_16 
REMARK    3  A    between atoms: N_12  and  C_21 
ROOT
HETATM    1  P   UNL     1      15.857   6.975  20.438  1.00  0.00     0.408 P 
HETATM    2  O   UNL     1      16.379   5.034  16.609  1.00  0.00    -0.353 OA
HETATM    3  O   UNL     1      15.357   7.503  18.982  1.00  0.00    -0.279 OA
HETATM    4  O   UNL     1      17.034   5.896  20.136  1.00  0.00    -0.287 OA
HETATM    5  O   UNL     1      14.628   6.069  20.979  1.00  0.00    -0.624 OA
HETATM    6  O   UNL     1      16.257   8.069  21.386  1.00  0.00    -0.624 OA
HETATM    7  C   UNL     1      15.236   6.518  17.982  1.00  0.00     0.198 C 
HETATM    8  C   UNL     1      16.556   5.800  17.800  1.00  0.00     0.180 C 
HETATM    9  C   UNL     1      14.970   6.997  16.573  1.00  0.00     0.199 C 
HETATM   10  C   UNL     1      15.513   5.818  15.743  1.00  0.00     0.262 C 
HETATM   11  C   UNL     1      16.894   4.994  19.038  1.00  0.00     0.216 C 
ENDROOT
BRANCH   9  12
HETATM   12  O   UNL     1      15.739   8.163  16.298  1.00  0.00    -0.388 OA
HETATM   13  H   UNL     1      15.220   8.771  15.747  1.00  0.00     0.210 HD
ENDBRANCH   9  12
BRANCH  10  14
HETATM   14  N   UNL     1      14.465   4.958  15.192  1.00  0.00    -0.294 N 
HETATM   15  C   UNL     1      13.985   4.967  13.913  1.00  0.00     0.167 A 
HETATM   16  N   UNL     1      14.370   5.759  12.901  1.00  0.00    -0.222 NA
HETATM   17  C   UNL     1      13.013   3.981  13.884  1.00  0.00     0.149 A 
HETATM   18  C   UNL     1      13.665   5.473  11.784  1.00  0.00     0.237 A 
HETATM   19  N   UNL     1      12.693   4.546  11.607  1.00  0.00    -0.222 NA
HETATM   20  C   UNL     1      12.355   3.782  12.673  1.00  0.00     0.155 A 
HETATM   21  N   UNL     1      12.894   3.378  15.110  1.00  0.00    -0.236 NA
HETATM   22  C   UNL     1      13.780   3.986  15.873  1.00  0.00     0.214 A 
BRANCH  20  23
HETATM   23  N   UNL     1      11.353   2.804  12.553  1.00  0.00    -0.382 N 
HETATM   24  H   UNL     1      10.671   2.881  11.847  1.00  0.00     0.157 HD
HETATM   25  H   UNL     1      11.333   2.041  13.176  1.00  0.00     0.157 HD
ENDBRANCH  20  23
ENDBRANCH  10  14
TORSDOF 3
ENDMDL
MODEL 2
REMARK VINA RESULT:      -6.5      5.421      7.032
REMARK  3 active torsions:
REMARK  status: ('A' for Active; 'I' for Inactive)
REMARK    1  A    between atoms: O_5  and  C_15 
REMARK    2  A    between atoms: N_8  and  C_16 
REMARK    3  A    between atoms: N_12  and  C_21 
ROOT
HETATM    1  P   UNL     1      19.361  11.589  17.520  1.00  0.00     0.408 P 
HETATM    2  O   UNL     1      18.908   7.289  17.477  1.00  0.00    -0.353 OA
HETATM    3  O   UNL     1      18.013  10.731  17.829  1.00  0.00    -0.279 OA
HETATM    4  O   UNL     1      20.333  10.596  16.676  1.00  0.00    -0.287 OA
HETATM    5  O   UNL     1      20.092  11.720  18.959  1.00  0.00    -0.624 OA
HETATM    6  O   UNL     1      19.109  12.911  16.853  1.00  0.00    -0.624 OA
HETATM    7  C   UNL     1      18.215   9.385  18.196  1.00  0.00     0.198 C 
HETATM    8  C   UNL     1      19.000   8.667  17.119  1.00  0.00     0.180 C 
HETATM    9  C   UNL     1      16.989   8.507  18.295  1.00  0.00     0.199 C 
HETATM   10  C   UNL     1      17.597   7.108  18.079  1.00  0.00     0.262 C 
HETATM   11  C   UNL     1      20.410   9.216  17.038  1.00  0.00     0.216 C 
ENDROOT
BRANCH   9  12
HETATM   12  O   UNL     1      16.088   8.801  17.232  1.00  0.00    -0.388 OA
HETATM   13  H   UNL     1      16.143   8.104  16.560  1.00  0.00     0.210 HD
ENDBRANCH   9  12
BRANCH  10  14
HETATM   14  N   UNL     1      17.729   6.331  19.312  1.00  0.00    -0.294 N 
HETATM   15  C   UNL     1      16.714   5.820  20.071  1.00  0.00     0.167 A 
HETATM   16  N   UNL     1      15.396   5.920  19.848  1.00  0.00    -0.222 NA
HETATM   17  C   UNL     1      17.340   5.172  21.124  1.00  0.00     0.149 A 
HETATM   18  C   UNL     1      14.703   5.284  20.819  1.00  0.00     0.237 A 
HETATM   19  N   UNL     1      15.173   4.615  21.899  1.00  0.00    -0.222 NA
HETATM   20  C   UNL     1      16.516   4.554  22.061  1.00  0.00     0.155 A 
HETATM   21  N   UNL     1      18.704   5.280  21.019  1.00  0.00    -0.236 NA
HETATM   22  C   UNL     1      18.904   5.980  19.922  1.00  0.00     0.214 A 
BRANCH  20  23
HETATM   23  N   UNL     1      17.067   3.876  23.162  1.00  0.00    -0.382 N 
HETATM   24  H   UNL     1      16.853   2.927  23.313  1.00  0.00     0.157 HD
HETATM   25  H   UNL     1      17.666   4.350  23.783  1.00  0.00     0.157 HD
ENDBRANCH  20  23
ENDBRANCH  10  14
TORSDOF 3
ENDMDL
MODEL 3
REMARK VINA RESULT:      -6.5      2.416      3.538
REMARK  3 active torsions:
REMARK  status: ('A' for Active; 'I' for Inactive)
REMARK    1  A    between atoms: O_5  and  C_15 
REMARK    2  A    between atoms: N_8  and  C_16 
REMARK    3  A    between atoms: N_12  and  C_21 
ROOT
HETATM    1  P   UNL     1      15.480   6.149  17.656  1.00  0.00     0.408 P 
HETATM    2  O   UNL     1      14.478   7.637  13.721  1.00  0.00    -0.353 OA
HETATM    3  O   UNL     1      14.004   6.240  16.976  1.00  0.00    -0.279 OA
HETATM    4  O   UNL     1      16.410   7.198  16.833  1.00  0.00    -0.287 OA
HETATM    5  O   UNL     1      16.039   4.697  17.207  1.00  0.00    -0.624 OA
HETATM    6  O   UNL     1      15.486   6.361  19.142  1.00  0.00    -0.624 OA
HETATM    7  C   UNL     1      13.982   6.322  15.569  1.00  0.00     0.198 C 
HETATM    8  C   UNL     1      14.792   7.514  15.107  1.00  0.00     0.180 C 
HETATM    9  C   UNL     1      12.648   6.608  14.916  1.00  0.00     0.199 C 
HETATM   10  C   UNL     1      13.091   7.226  13.577  1.00  0.00     0.262 C 
HETATM   11  C   UNL     1      16.261   7.305  15.416  1.00  0.00     0.216 C 
ENDROOT
BRANCH   9  12
HETATM   12  O   UNL     1      11.932   7.579  15.672  1.00  0.00    -0.388 OA
HETATM   13  H   UNL     1      10.978   7.425  15.576  1.00  0.00     0.210 HD
ENDBRANCH   9  12
BRANCH  10  14
HETATM   14  N   UNL     1      12.968   6.311  12.441  1.00  0.00    -0.294 N 
HETATM   15  C   UNL     1      13.959   5.937  11.580  1.00  0.00     0.167 A 
HETATM   16  N   UNL     1      15.244   6.323  11.594  1.00  0.00    -0.222 NA
HETATM   17  C   UNL     1      13.355   5.068  10.686  1.00  0.00     0.149 A 
HETATM   18  C   UNL     1      15.923   5.740  10.581  1.00  0.00     0.237 A 
HETATM   19  N   UNL     1      15.470   4.879   9.638  1.00  0.00    -0.222 NA
HETATM   20  C   UNL     1      14.161   4.533   9.686  1.00  0.00     0.155 A 
HETATM   21  N   UNL     1      12.025   4.910  10.986  1.00  0.00    -0.236 NA
HETATM   22  C   UNL     1      11.825   5.668  12.044  1.00  0.00     0.214 A 
BRANCH  20  23
HETATM   23  N   UNL     1      13.630   3.644   8.735  1.00  0.00    -0.382 N 
HETATM   24  H   UNL     1      14.095   2.800   8.535  1.00  0.00     0.157 HD
HETATM   25  H   UNL     1      12.791   3.866   8.268  1.00  0.00     0.157 HD
ENDBRANCH  20  23
ENDBRANCH  10  14
TORSDOF 3
ENDMDL
MODEL 4
REMARK VINA RESULT:      -6.2      3.518      4.604
REMARK  3 active torsions:
REMARK  status: ('A' for Active; 'I' for Inactive)
REMARK    1  A    between atoms: O_5  and  C_15 
REMARK    2  A    between atoms: N_8  and  C_16 
REMARK    3  A    between atoms: N_12  and  C_21 
ROOT
HETATM    1  P   UNL     1      19.438   5.443  15.932  1.00  0.00     0.408 P 
HETATM    2  O   UNL     1      17.403   7.335  12.618  1.00  0.00    -0.353 OA
HETATM    3  O   UNL     1      17.832   5.563  15.692  1.00  0.00    -0.279 OA
HETATM    4  O   UNL     1      20.109   6.608  15.018  1.00  0.00    -0.287 OA
HETATM    5  O   UNL     1      19.854   4.070  15.181  1.00  0.00    -0.624 OA
HETATM    6  O   UNL     1      19.848   5.485  17.376  1.00  0.00    -0.624 OA
HETATM    7  C   UNL     1      17.428   5.803  14.363  1.00  0.00     0.198 C 
HETATM    8  C   UNL     1      18.082   7.065  13.843  1.00  0.00     0.180 C 
HETATM    9  C   UNL     1      15.968   6.119  14.134  1.00  0.00     0.199 C 
HETATM   10  C   UNL     1      16.029   6.899  12.807  1.00  0.00     0.262 C 
HETATM   11  C   UNL     1      19.580   6.871  13.718  1.00  0.00     0.216 C 
ENDROOT
BRANCH   9  12
HETATM   12  O   UNL     1      15.484   6.974  15.164  1.00  0.00    -0.388 OA
HETATM   13  H   UNL     1      14.850   7.607  14.789  1.00  0.00     0.210 HD
ENDBRANCH   9  12
BRANCH  10  14
HETATM   14  N   UNL     1      15.601   6.115  11.647  1.00  0.00    -0.294 N 
HETATM   15  C   UNL     1      14.342   5.655  11.389  1.00  0.00     0.167 A 
HETATM   16  N   UNL     1      13.240   5.822  12.136  1.00  0.00    -0.222 NA
HETATM   17  C   UNL     1      14.444   4.975  10.186  1.00  0.00     0.149 A 
HETATM   18  C   UNL     1      12.179   5.220  11.554  1.00  0.00     0.237 A 
HETATM   19  N   UNL     1      12.128   4.526  10.392  1.00  0.00    -0.222 NA
HETATM   20  C   UNL     1      13.279   4.397   9.689  1.00  0.00     0.155 A 
HETATM   21  N   UNL     1      15.731   5.014   9.713  1.00  0.00    -0.236 NA
HETATM   22  C   UNL     1      16.400   5.706  10.612  1.00  0.00     0.214 A 
BRANCH  20  23
HETATM   23  N   UNL     1      13.291   3.687   8.476  1.00  0.00    -0.382 N 
HETATM   24  H   UNL     1      13.972   2.994   8.318  1.00  0.00     0.157 HD
HETATM   25  H   UNL     1      12.619   3.883   7.784  1.00  0.00     0.157 HD
ENDBRANCH  20  23
ENDBRANCH  10  14
TORSDOF 3
ENDMDL
MODEL 5
REMARK VINA RESULT:      -6.2      1.927      2.603
REMARK  3 active torsions:
REMARK  status: ('A' for Active; 'I' for Inactive)
REMARK    1  A    between atoms: O_5  and  C_15 
REMARK    2  A    between atoms: N_8  and  C_16 
REMARK    3  A    between atoms: N_12  and  C_21 
ROOT
HETATM    1  P   UNL     1      16.538   5.602  19.397  1.00  0.00     0.408 P 
HETATM    2  O   UNL     1      15.607   7.636  15.696  1.00  0.00    -0.353 OA
HETATM    3  O   UNL     1      15.166   5.499  18.526  1.00  0.00    -0.279 OA
HETATM    4  O   UNL     1      17.252   6.987  18.934  1.00  0.00    -0.287 OA
HETATM    5  O   UNL     1      17.492   4.447  18.781  1.00  0.00    -0.624 OA
HETATM    6  O   UNL     1      16.335   5.484  20.880  1.00  0.00    -0.624 OA
HETATM    7  C   UNL     1      15.271   5.875  17.172  1.00  0.00     0.198 C 
HETATM    8  C   UNL     1      15.796   7.291  17.067  1.00  0.00     0.180 C 
HETATM    9  C   UNL     1      13.985   5.984  16.386  1.00  0.00     0.199 C 
HETATM   10  C   UNL     1      14.392   6.961  15.267  1.00  0.00     0.262 C 
HETATM   11  C   UNL     1      17.229   7.361  17.556  1.00  0.00     0.216 C 
ENDROOT
BRANCH   9  12
HETATM   12  O   UNL     1      12.970   6.580  17.188  1.00  0.00    -0.388 OA
HETATM   13  H   UNL     1      13.045   7.546  17.140  1.00  0.00     0.210 HD
ENDBRANCH   9  12
BRANCH  10  14
HETATM   14  N   UNL     1      14.625   6.309  13.978  1.00  0.00    -0.294 N 
HETATM   15  C   UNL     1      13.685   5.986  13.042  1.00  0.00     0.167 A 
HETATM   16  N   UNL     1      12.362   6.196  13.105  1.00  0.00    -0.222 NA
HETATM   17  C   UNL     1      14.391   5.393  12.008  1.00  0.00     0.149 A 
HETATM   18  C   UNL     1      11.757   5.739  11.986  1.00  0.00     0.237 A 
HETATM   19  N   UNL     1      12.311   5.142  10.904  1.00  0.00    -0.222 NA
HETATM   20  C   UNL     1      13.654   4.962  10.908  1.00  0.00     0.155 A 
HETATM   21  N   UNL     1      15.732   5.350  12.297  1.00  0.00    -0.236 NA
HETATM   22  C   UNL     1      15.839   5.909  13.485  1.00  0.00     0.214 A 
BRANCH  20  23
HETATM   23  N   UNL     1      14.289   4.348   9.815  1.00  0.00    -0.382 N 
HETATM   24  H   UNL     1      15.167   4.672   9.510  1.00  0.00     0.157 HD
HETATM   25  H   UNL     1      13.856   3.593   9.355  1.00  0.00     0.157 HD
ENDBRANCH  20  23
ENDBRANCH  10  14
TORSDOF 3
ENDMDL
MODEL 6
REMARK VINA RESULT:      -6.2      4.518      7.100
REMARK  3 active torsions:
REMARK  status: ('A' for Active; 'I' for Inactive)
REMARK    1  A    between atoms: O_5  and  C_15 
REMARK    2  A    between atoms: N_8  and  C_16 
REMARK    3  A    between atoms: N_12  and  C_21 
ROOT
HETATM    1  P   UNL     1      12.732   4.383  11.403  1.00  0.00     0.408 P 
HETATM    2  O   UNL     1      13.552   7.555  14.226  1.00  0.00    -0.353 OA
HETATM    3  O   UNL     1      14.157   4.747  12.100  1.00  0.00    -0.279 OA
HETATM    4  O   UNL     1      11.824   5.726  11.528  1.00  0.00    -0.287 OA
HETATM    5  O   UNL     1      12.036   3.345  12.433  1.00  0.00    -0.624 OA
HETATM    6  O   UNL     1      12.849   3.851  10.004  1.00  0.00    -0.624 OA
HETATM    7  C   UNL     1      14.083   5.497  13.291  1.00  0.00     0.198 C 
HETATM    8  C   UNL     1      13.331   6.787  13.044  1.00  0.00     0.180 C 
HETATM    9  C   UNL     1      15.383   6.022  13.856  1.00  0.00     0.199 C 
HETATM   10  C   UNL     1      14.892   7.224  14.685  1.00  0.00     0.262 C 
HETATM   11  C   UNL     1      11.877   6.499  12.728  1.00  0.00     0.216 C 
ENDROOT
BRANCH   9  12
HETATM   12  O   UNL     1      16.222   6.486  12.803  1.00  0.00    -0.388 OA
HETATM   13  H   UNL     1      16.744   7.244  13.114  1.00  0.00     0.210 HD
ENDBRANCH   9  12
BRANCH  10  14
HETATM   14  N   UNL     1      14.864   6.967  16.126  1.00  0.00    -0.294 N 
HETATM   15  C   UNL     1      15.712   7.480  17.066  1.00  0.00     0.167 A 
HETATM   16  N   UNL     1      16.740   8.319  16.869  1.00  0.00    -0.222 NA
HETATM   17  C   UNL     1      15.284   6.946  18.271  1.00  0.00     0.149 A 
HETATM   18  C   UNL     1      17.348   8.604  18.042  1.00  0.00     0.237 A 
HETATM   19  N   UNL     1      17.044   8.162  19.286  1.00  0.00    -0.222 NA
HETATM   20  C   UNL     1      15.993   7.316  19.410  1.00  0.00     0.155 A 
HETATM   21  N   UNL     1      14.200   6.127  18.081  1.00  0.00    -0.236 NA
HETATM   22  C   UNL     1      13.973   6.161  16.785  1.00  0.00     0.214 A 
BRANCH  20  23
HETATM   23  N   UNL     1      15.629   6.821  20.674  1.00  0.00    -0.382 N 
HETATM   24  H   UNL     1      14.712   6.951  21.008  1.00  0.00     0.157 HD
HETATM   25  H   UNL     1      16.290   6.344  21.225  1.00  0.00     0.157 HD
ENDBRANCH  20  23
ENDBRANCH  10  14
TORSDOF 3
ENDMDL
MODEL 7
REMARK VINA RESULT:      -6.2      4.844      6.665
REMARK  3 active torsions:
REMARK  status: ('A' for Active; 'I' for Inactive)
REMARK    1  A    between atoms: O_5  and  C_15 
REMARK    2  A    between atoms: N_8  and  C_16 
REMARK    3  A    between atoms: N_12  and  C_21 
ROOT
HETATM    1  P   UNL     1      20.807   7.996  16.529  1.00  0.00     0.408 P 
HETATM    2  O   UNL     1      17.369   8.956  18.970  1.00  0.00    -0.353 OA
HETATM    3  O   UNL     1      20.326   7.260  17.899  1.00  0.00    -0.279 OA
HETATM    4  O   UNL     1      20.103   9.461  16.544  1.00  0.00    -0.287 OA
HETATM    5  O   UNL     1      20.028   7.201  15.353  1.00  0.00    -0.624 OA
HETATM    6  O   UNL     1      22.296   8.035  16.341  1.00  0.00    -0.624 OA
HETATM    7  C   UNL     1      18.973   7.440  18.249  1.00  0.00     0.198 C 
HETATM    8  C   UNL     1      18.661   8.917  18.367  1.00  0.00     0.180 C 
HETATM    9  C   UNL     1      18.541   6.943  19.609  1.00  0.00     0.199 C 
HETATM   10  C   UNL     1      17.305   7.822  19.877  1.00  0.00     0.262 C 
HETATM   11  C   UNL     1      18.759   9.588  17.012  1.00  0.00     0.216 C 
ENDROOT
BRANCH   9  12
HETATM   12  O   UNL     1      19.545   7.231  20.577  1.00  0.00    -0.388 OA
HETATM   13  H   UNL     1      19.247   7.959  21.146  1.00  0.00     0.210 HD
ENDBRANCH   9  12
BRANCH  10  14
HETATM   14  N   UNL     1      16.035   7.118  19.689  1.00  0.00    -0.294 N 
HETATM   15  C   UNL     1      15.415   6.293  20.584  1.00  0.00     0.167 A 
HETATM   16  N   UNL     1      15.834   5.959  21.814  1.00  0.00    -0.222 NA
HETATM   17  C   UNL     1      14.256   5.875  19.950  1.00  0.00     0.149 A 
HETATM   18  C   UNL     1      14.952   5.119  22.401  1.00  0.00     0.237 A 
HETATM   19  N   UNL     1      13.789   4.629  21.909  1.00  0.00    -0.222 NA
HETATM   20  C   UNL     1      13.428   5.010  20.660  1.00  0.00     0.155 A 
HETATM   21  N   UNL     1      14.162   6.426  18.697  1.00  0.00    -0.236 NA
HETATM   22  C   UNL     1      15.244   7.167  18.571  1.00  0.00     0.214 A 
BRANCH  20  23
HETATM   23  N   UNL     1      12.234   4.535  20.093  1.00  0.00    -0.382 N 
HETATM   24  H   UNL     1      12.250   4.080  19.219  1.00  0.00     0.157 HD
HETATM   25  H   UNL     1      11.380   4.656  20.568  1.00  0.00     0.157 HD
ENDBRANCH  20  23
ENDBRANCH  10  14
TORSDOF 3
ENDMDL
MODEL 8
REMARK VINA RESULT:      -6.2      5.592      7.888
REMARK  3 active torsions:
REMARK  status: ('A' for Active; 'I' for Inactive)
REMARK    1  A    between atoms: O_5  and  C_15 
REMARK    2  A    between atoms: N_8  and  C_16 
REMARK    3  A    between atoms: N_12  and  C_21 
ROOT
HETATM    1  P   UNL     1      13.041   4.565   9.402  1.00  0.00     0.408 P 
HETATM    2  O   UNL     1      14.737   6.586  12.828  1.00  0.00    -0.353 OA
HETATM    3  O   UNL     1      14.457   5.364   9.482  1.00  0.00    -0.279 OA
HETATM    4  O   UNL     1      12.151   5.119  10.644  1.00  0.00    -0.287 OA
HETATM    5  O   UNL     1      13.411   3.048   9.834  1.00  0.00    -0.624 OA
HETATM    6  O   UNL     1      12.356   4.658   8.069  1.00  0.00    -0.624 OA
HETATM    7  C   UNL     1      14.992   5.533  10.774  1.00  0.00     0.198 C 
HETATM    8  C   UNL     1      13.993   6.247  11.659  1.00  0.00     0.180 C 
HETATM    9  C   UNL     1      16.196   6.438  10.908  1.00  0.00     0.199 C 
HETATM   10  C   UNL     1      16.093   6.866  12.384  1.00  0.00     0.262 C 
HETATM   11  C   UNL     1      12.781   5.370  11.901  1.00  0.00     0.216 C 
ENDROOT
BRANCH   9  12
HETATM   12  O   UNL     1      16.045   7.580  10.072  1.00  0.00    -0.388 OA
HETATM   13  H   UNL     1      16.016   7.301   9.143  1.00  0.00     0.210 HD
ENDBRANCH   9  12
BRANCH  10  14
HETATM   14  N   UNL     1      17.045   6.181  13.260  1.00  0.00    -0.294 N 
HETATM   15  C   UNL     1      18.381   6.007  13.039  1.00  0.00     0.167 A 
HETATM   16  N   UNL     1      19.098   6.423  11.985  1.00  0.00    -0.222 NA
HETATM   17  C   UNL     1      18.842   5.305  14.142  1.00  0.00     0.149 A 
HETATM   18  C   UNL     1      20.393   6.063  12.122  1.00  0.00     0.237 A 
HETATM   19  N   UNL     1      20.983   5.382  13.134  1.00  0.00    -0.222 NA
HETATM   20  C   UNL     1      20.199   4.993  14.167  1.00  0.00     0.155 A 
HETATM   21  N   UNL     1      17.819   5.054  15.020  1.00  0.00    -0.236 NA
HETATM   22  C   UNL     1      16.754   5.592  14.462  1.00  0.00     0.214 A 
BRANCH  20  23
HETATM   23  N   UNL     1      20.751   4.282  15.246  1.00  0.00    -0.382 N 
HETATM   24  H   UNL     1      21.606   3.806  15.137  1.00  0.00     0.157 HD
HETATM   25  H   UNL     1      20.283   4.259  16.112  1.00  0.00     0.157 HD
ENDBRANCH  20  23
ENDBRANCH  10  14
TORSDOF 3
ENDMDL
MODEL 9
REMARK VINA RESULT:      -6.2      5.483      7.461
REMARK  3 active torsions:
REMARK  status: ('A' for Active; 'I' for Inactive)
REMARK    1  A    between atoms: O_5  and  C_15 
REMARK    2  A    between atoms: N_8  and  C_16 
REMARK    3  A    between atoms: N_12  and  C_21 
ROOT
HETATM    1  P   UNL     1      14.929   5.450  21.309  1.00  0.00     0.408 P 
HETATM    2  O   UNL     1      16.674   8.143  18.410  1.00  0.00    -0.353 OA
HETATM    3  O   UNL     1      16.104   5.121  20.231  1.00  0.00    -0.279 OA
HETATM    4  O   UNL     1      14.168   6.769  20.744  1.00  0.00    -0.287 OA
HETATM    5  O   UNL     1      15.723   5.987  22.615  1.00  0.00    -0.624 OA
HETATM    6  O   UNL     1      14.017   4.292  21.596  1.00  0.00    -0.624 OA
HETATM    7  C   UNL     1      16.805   6.237  19.730  1.00  0.00     0.198 C 
HETATM    8  C   UNL     1      15.837   7.214  19.096  1.00  0.00     0.180 C 
HETATM    9  C   UNL     1      17.761   5.993  18.585  1.00  0.00     0.199 C 
HETATM   10  C   UNL     1      17.822   7.388  17.935  1.00  0.00     0.262 C 
HETATM   11  C   UNL     1      14.932   7.820  20.150  1.00  0.00     0.216 C 
ENDROOT
BRANCH   9  12
HETATM   12  O   UNL     1      17.194   5.067  17.663  1.00  0.00    -0.388 OA
HETATM   13  H   UNL     1      17.101   4.200  18.091  1.00  0.00     0.210 HD
ENDBRANCH   9  12
BRANCH  10  14
HETATM   14  N   UNL     1      19.050   8.123  18.242  1.00  0.00    -0.294 N 
HETATM   15  C   UNL     1      19.223   9.477  18.211  1.00  0.00     0.167 A 
HETATM   16  N   UNL     1      18.314  10.412  17.896  1.00  0.00    -0.222 NA
HETATM   17  C   UNL     1      20.545   9.682  18.575  1.00  0.00     0.149 A 
HETATM   18  C   UNL     1      18.858  11.646  17.977  1.00  0.00     0.237 A 
HETATM   19  N   UNL     1      20.122  11.997  18.316  1.00  0.00    -0.222 NA
HETATM   20  C   UNL     1      20.987  11.001  18.622  1.00  0.00     0.155 A 
HETATM   21  N   UNL     1      21.171   8.487  18.825  1.00  0.00    -0.236 NA
HETATM   22  C   UNL     1      20.247   7.572  18.617  1.00  0.00     0.214 A 
BRANCH  20  23
HETATM   23  N   UNL     1      22.313  11.301  18.980  1.00  0.00    -0.382 N 
HETATM   24  H   UNL     1      22.949  11.613  18.296  1.00  0.00     0.157 HD
HETATM   25  H   UNL     1      22.606  11.198  19.914  1.00  0.00     0.157 HD
ENDBRANCH  20  23
ENDBRANCH  10  14
TORSDOF 3
ENDMDL
