MODEL 1
REMARK VINA RESULT:      -7.1      0.000      0.000
REMARK  7 active torsions:
REMARK  status: ('A' for Active; 'I' for Inactive)
REMARK    1  A    between atoms: O_1  and  C_2 
REMARK    2  A    between atoms: C_2  and  C_3 
REMARK    3  A    between atoms: C_2  and  C_8 
REMARK    4  A    between atoms: C_3  and  C_4 
REMARK    5  A    between atoms: C_4  and  C_5 
REMARK    6  A    between atoms: C_8  and  C_9 
REMARK    7  A    between atoms: C_11  and  O_15 
ROOT
HETATM    1  O   UNL     1      20.118  -1.614  31.255  1.00  0.00    -0.395 OA
HETATM    2  H   UNL     1      19.901  -2.066  30.425  1.00  0.00     0.210 HD
ENDROOT
BRANCH   1   3
HETATM    3  C   UNL     1      20.933  -2.466  32.063  1.00  0.00     0.122 C 
BRANCH   3   4
HETATM    4  C   UNL     1      21.791  -1.588  32.979  1.00  0.00     0.042 C 
BRANCH   4   5
HETATM    5  C   UNL     1      21.277  -1.587  34.416  1.00  0.00     0.116 C 
BRANCH   5   6
HETATM    6  C   UNL     1      22.424  -1.636  35.380  1.00  0.00     0.172 C 
HETATM    7  O   UNL     1      22.386  -2.052  36.525  1.00  0.00    -0.648 OA
HETATM    8  O   UNL     1      23.577  -1.191  34.845  1.00  0.00    -0.648 OA
ENDBRANCH   5   6
ENDBRANCH   4   5
ENDBRANCH   3   4
BRANCH   3   9
HETATM    9  C   UNL     1      21.818  -3.373  31.189  1.00  0.00     0.070 C 
BRANCH   9  10
HETATM   10  C   UNL     1      21.898  -4.791  31.703  1.00  0.00    -0.053 A 
HETATM   11  C   UNL     1      21.676  -5.073  33.057  1.00  0.00     0.043 A 
HETATM   12  C   UNL     1      21.759  -6.382  33.521  1.00  0.00     0.066 A 
HETATM   13  C   UNL     1      22.064  -7.428  32.657  1.00  0.00     0.036 A 
HETATM   14  C   UNL     1      22.290  -7.157  31.309  1.00  0.00     0.003 A 
HETATM   15  C   UNL     1      22.208  -5.846  30.832  1.00  0.00     0.007 A 
BRANCH  12  16
HETATM   16  O   UNL     1      21.530  -6.599  34.848  1.00  0.00    -0.361 OA
HETATM   17  H   UNL     1      21.749  -7.425  35.232  1.00  0.00     0.217 HD
ENDBRANCH  12  16
ENDBRANCH   9  10
ENDBRANCH   3   9
ENDBRANCH   1   3
TORSDOF 7
ENDMDL
MODEL 2
REMARK VINA RESULT:      -6.8      2.377      4.252
REMARK  7 active torsions:
REMARK  status: ('A' for Active; 'I' for Inactive)
REMARK    1  A    between atoms: O_1  and  C_2 
REMARK    2  A    between atoms: C_2  and  C_3 
REMARK    3  A    between atoms: C_2  and  C_8 
REMARK    4  A    between atoms: C_3  and  C_4 
REMARK    5  A    between atoms: C_4  and  C_5 
REMARK    6  A    between atoms: C_8  and  C_9 
REMARK    7  A    between atoms: C_11  and  O_15 
ROOT
HETATM    1  O   UNL     1      21.942  -1.126  31.066  1.00  0.00    -0.395 OA
HETATM    2  H   UNL     1      22.846  -1.235  31.398  1.00  0.00     0.210 HD
ENDROOT
BRANCH   1   3
HETATM    3  C   UNL     1      21.294  -2.400  31.023  1.00  0.00     0.122 C 
BRANCH   3   4
HETATM    4  C   UNL     1      19.823  -2.182  30.655  1.00  0.00     0.042 C 
BRANCH   4   5
HETATM    5  C   UNL     1      19.401  -3.033  29.461  1.00  0.00     0.116 C 
BRANCH   5   6
HETATM    6  C   UNL     1      19.814  -2.374  28.179  1.00  0.00     0.172 C 
HETATM    7  O   UNL     1      20.875  -2.528  27.599  1.00  0.00    -0.648 OA
HETATM    8  O   UNL     1      18.857  -1.577  27.668  1.00  0.00    -0.648 OA
ENDBRANCH   5   6
ENDBRANCH   4   5
ENDBRANCH   3   4
BRANCH   3   9
HETATM    9  C   UNL     1      21.417  -3.127  32.374  1.00  0.00     0.070 C 
BRANCH   9  10
HETATM   10  C   UNL     1      21.971  -4.526  32.242  1.00  0.00    -0.053 A 
HETATM   11  C   UNL     1      22.473  -5.203  33.362  1.00  0.00     0.043 A 
HETATM   12  C   UNL     1      22.987  -6.489  33.228  1.00  0.00     0.066 A 
HETATM   13  C   UNL     1      23.015  -7.122  31.990  1.00  0.00     0.036 A 
HETATM   14  C   UNL     1      22.520  -6.455  30.870  1.00  0.00     0.003 A 
HETATM   15  C   UNL     1      22.001  -5.164  30.994  1.00  0.00     0.007 A 
BRANCH  12  16
HETATM   16  O   UNL     1      23.461  -7.102  34.351  1.00  0.00    -0.361 OA
HETATM   17  H   UNL     1      24.197  -7.678  34.295  1.00  0.00     0.217 HD
ENDBRANCH  12  16
ENDBRANCH   9  10
ENDBRANCH   3   9
ENDBRANCH   1   3
TORSDOF 7
ENDMDL
MODEL 3
REMARK VINA RESULT:      -6.8      1.255      1.941
REMARK  7 active torsions:
REMARK  status: ('A' for Active; 'I' for Inactive)
REMARK    1  A    between atoms: O_1  and  C_2 
REMARK    2  A    between atoms: C_2  and  C_3 
REMARK    3  A    between atoms: C_2  and  C_8 
REMARK    4  A    between atoms: C_3  and  C_4 
REMARK    5  A    between atoms: C_4  and  C_5 
REMARK    6  A    between atoms: C_8  and  C_9 
REMARK    7  A    between atoms: C_11  and  O_15 
ROOT
HETATM    1  O   UNL     1      20.015  -1.618  31.220  1.00  0.00    -0.395 OA
HETATM    2  H   UNL     1      19.462  -1.095  31.820  1.00  0.00     0.210 HD
ENDROOT
BRANCH   1   3
HETATM    3  C   UNL     1      20.869  -2.474  31.982  1.00  0.00     0.122 C 
BRANCH   3   4
HETATM    4  C   UNL     1      21.773  -1.599  32.858  1.00  0.00     0.042 C 
BRANCH   4   5
HETATM    5  C   UNL     1      21.337  -1.612  34.320  1.00  0.00     0.116 C 
BRANCH   5   6
HETATM    6  C   UNL     1      22.535  -1.616  35.221  1.00  0.00     0.172 C 
HETATM    7  O   UNL     1      23.646  -1.199  34.946  1.00  0.00    -0.648 OA
HETATM    8  O   UNL     1      22.269  -2.115  36.443  1.00  0.00    -0.648 OA
ENDBRANCH   5   6
ENDBRANCH   4   5
ENDBRANCH   3   4
BRANCH   3   9
HETATM    9  C   UNL     1      21.709  -3.377  31.062  1.00  0.00     0.070 C 
BRANCH   9  10
HETATM   10  C   UNL     1      21.930  -4.758  31.633  1.00  0.00    -0.053 A 
HETATM   11  C   UNL     1      22.454  -5.784  30.836  1.00  0.00     0.043 A 
HETATM   12  C   UNL     1      22.646  -7.054  31.370  1.00  0.00     0.066 A 
HETATM   13  C   UNL     1      22.324  -7.329  32.695  1.00  0.00     0.036 A 
HETATM   14  C   UNL     1      21.800  -6.315  33.495  1.00  0.00     0.003 A 
HETATM   15  C   UNL     1      21.603  -5.036  32.969  1.00  0.00     0.007 A 
BRANCH  12  16
HETATM   16  O   UNL     1      23.161  -8.015  30.550  1.00  0.00    -0.361 OA
HETATM   17  H   UNL     1      22.587  -8.572  30.062  1.00  0.00     0.217 HD
ENDBRANCH  12  16
ENDBRANCH   9  10
ENDBRANCH   3   9
ENDBRANCH   1   3
TORSDOF 7
ENDMDL
MODEL 4
REMARK VINA RESULT:      -6.8      2.686      4.329
REMARK  7 active torsions:
REMARK  status: ('A' for Active; 'I' for Inactive)
REMARK    1  A    between atoms: O_1  and  C_2 
REMARK    2  A    between atoms: C_2  and  C_3 
REMARK    3  A    between atoms: C_2  and  C_8 
REMARK    4  A    between atoms: C_3  and  C_4 
REMARK    5  A    between atoms: C_4  and  C_5 
REMARK    6  A    between atoms: C_8  and  C_9 
REMARK    7  A    between atoms: C_11  and  O_15 
ROOT
HETATM    1  O   UNL     1      21.643  -0.724  31.730  1.00  0.00    -0.395 OA
HETATM    2  H   UNL     1      22.016  -0.629  30.840  1.00  0.00     0.210 HD
ENDROOT
BRANCH   1   3
HETATM    3  C   UNL     1      21.106  -2.040  31.883  1.00  0.00     0.122 C 
BRANCH   3   4
HETATM    4  C   UNL     1      21.521  -2.575  33.258  1.00  0.00     0.042 C 
BRANCH   4   5
HETATM    5  C   UNL     1      21.344  -1.529  34.355  1.00  0.00     0.116 C 
BRANCH   5   6
HETATM    6  C   UNL     1      22.406  -1.686  35.400  1.00  0.00     0.172 C 
HETATM    7  O   UNL     1      22.265  -2.186  36.503  1.00  0.00    -0.648 OA
HETATM    8  O   UNL     1      23.609  -1.236  34.996  1.00  0.00    -0.648 OA
ENDBRANCH   5   6
ENDBRANCH   4   5
ENDBRANCH   3   4
BRANCH   3   9
HETATM    9  C   UNL     1      21.602  -2.971  30.762  1.00  0.00     0.070 C 
BRANCH   9  10
HETATM   10  C   UNL     1      20.561  -3.216  29.695  1.00  0.00    -0.053 A 
HETATM   11  C   UNL     1      20.601  -2.512  28.484  1.00  0.00     0.043 A 
HETATM   12  C   UNL     1      19.634  -2.741  27.511  1.00  0.00     0.066 A 
HETATM   13  C   UNL     1      18.614  -3.664  27.720  1.00  0.00     0.036 A 
HETATM   14  C   UNL     1      18.565  -4.367  28.922  1.00  0.00     0.003 A 
HETATM   15  C   UNL     1      19.532  -4.145  29.906  1.00  0.00     0.007 A 
BRANCH  12  16
HETATM   16  O   UNL     1      19.722  -2.030  26.351  1.00  0.00    -0.361 OA
HETATM   17  H   UNL     1      18.952  -1.655  25.970  1.00  0.00     0.217 HD
ENDBRANCH  12  16
ENDBRANCH   9  10
ENDBRANCH   3   9
ENDBRANCH   1   3
TORSDOF 7
ENDMDL
MODEL 5
REMARK VINA RESULT:      -6.7      2.028      5.157
REMARK  7 active torsions:
REMARK  status: ('A' for Active; 'I' for Inactive)
REMARK    1  A    between atoms: O_1  and  C_2 
REMARK    2  A    between atoms: C_2  and  C_3 
REMARK    3  A    between atoms: C_2  and  C_8 
REMARK    4  A    between atoms: C_3  and  C_4 
REMARK    5  A    between atoms: C_4  and  C_5 
REMARK    6  A    between atoms: C_8  and  C_9 
REMARK    7  A    between atoms: C_11  and  O_15 
ROOT
HETATM    1  O   UNL     1      22.504  -6.205  29.279  1.00  0.00    -0.395 OA
HETATM    2  H   UNL     1      23.231  -6.799  29.036  1.00  0.00     0.210 HD
ENDROOT
BRANCH   1   3
HETATM    3  C   UNL     1      22.456  -6.067  30.700  1.00  0.00     0.122 C 
BRANCH   3   4
HETATM    4  C   UNL     1      22.513  -7.466  31.324  1.00  0.00     0.042 C 
BRANCH   4   5
HETATM    5  C   UNL     1      23.492  -7.530  32.493  1.00  0.00     0.116 C 
BRANCH   5   6
HETATM    6  C   UNL     1      22.749  -7.612  33.792  1.00  0.00     0.172 C 
HETATM    7  O   UNL     1      21.543  -7.730  33.927  1.00  0.00    -0.648 OA
HETATM    8  O   UNL     1      23.562  -7.575  34.864  1.00  0.00    -0.648 OA
ENDBRANCH   5   6
ENDBRANCH   4   5
ENDBRANCH   3   4
BRANCH   3   9
HETATM    9  C   UNL     1      21.181  -5.325  31.140  1.00  0.00     0.070 C 
BRANCH   9  10
HETATM   10  C   UNL     1      21.470  -4.095  31.968  1.00  0.00    -0.053 A 
HETATM   11  C   UNL     1      21.386  -2.817  31.400  1.00  0.00     0.043 A 
HETATM   12  C   UNL     1      21.661  -1.692  32.171  1.00  0.00     0.066 A 
HETATM   13  C   UNL     1      22.023  -1.812  33.508  1.00  0.00     0.036 A 
HETATM   14  C   UNL     1      22.112  -3.080  34.080  1.00  0.00     0.003 A 
HETATM   15  C   UNL     1      21.838  -4.216  33.316  1.00  0.00     0.007 A 
BRANCH  12  16
HETATM   16  O   UNL     1      21.562  -0.472  31.568  1.00  0.00    -0.361 OA
HETATM   17  H   UNL     1      21.668  -0.398  30.640  1.00  0.00     0.217 HD
ENDBRANCH  12  16
ENDBRANCH   9  10
ENDBRANCH   3   9
ENDBRANCH   1   3
TORSDOF 7
ENDMDL
MODEL 6
REMARK VINA RESULT:      -6.6      2.469      3.295
REMARK  7 active torsions:
REMARK  status: ('A' for Active; 'I' for Inactive)
REMARK    1  A    between atoms: O_1  and  C_2 
REMARK    2  A    between atoms: C_2  and  C_3 
REMARK    3  A    between atoms: C_2  and  C_8 
REMARK    4  A    between atoms: C_3  and  C_4 
REMARK    5  A    between atoms: C_4  and  C_5 
REMARK    6  A    between atoms: C_8  and  C_9 
REMARK    7  A    between atoms: C_11  and  O_15 
ROOT
HETATM    1  O   UNL     1      21.841  -0.767  31.483  1.00  0.00    -0.395 OA
HETATM    2  H   UNL     1      22.309  -1.065  30.687  1.00  0.00     0.210 HD
ENDROOT
BRANCH   1   3
HETATM    3  C   UNL     1      21.027  -1.831  31.982  1.00  0.00     0.122 C 
BRANCH   3   4
HETATM    4  C   UNL     1      20.994  -1.736  33.511  1.00  0.00     0.042 C 
BRANCH   4   5
HETATM    5  C   UNL     1      22.056  -2.617  34.162  1.00  0.00     0.116 C 
BRANCH   5   6
HETATM    6  C   UNL     1      22.683  -1.907  35.323  1.00  0.00     0.172 C 
HETATM    7  O   UNL     1      22.389  -2.044  36.498  1.00  0.00    -0.648 OA
HETATM    8  O   UNL     1      23.679  -1.078  34.954  1.00  0.00    -0.648 OA
ENDBRANCH   5   6
ENDBRANCH   4   5
ENDBRANCH   3   4
BRANCH   3   9
HETATM    9  C   UNL     1      21.570  -3.199  31.532  1.00  0.00     0.070 C 
BRANCH   9  10
HETATM   10  C   UNL     1      20.737  -3.834  30.444  1.00  0.00    -0.053 A 
HETATM   11  C   UNL     1      21.082  -5.088  29.921  1.00  0.00     0.043 A 
HETATM   12  C   UNL     1      20.312  -5.660  28.914  1.00  0.00     0.066 A 
HETATM   13  C   UNL     1      19.193  -5.005  28.409  1.00  0.00     0.036 A 
HETATM   14  C   UNL     1      18.844  -3.757  28.921  1.00  0.00     0.003 A 
HETATM   15  C   UNL     1      19.611  -3.172  29.932  1.00  0.00     0.007 A 
BRANCH  12  16
HETATM   16  O   UNL     1      20.692  -6.883  28.444  1.00  0.00    -0.361 OA
HETATM   17  H   UNL     1      21.272  -6.944  27.711  1.00  0.00     0.217 HD
ENDBRANCH  12  16
ENDBRANCH   9  10
ENDBRANCH   3   9
ENDBRANCH   1   3
TORSDOF 7
ENDMDL
MODEL 7
REMARK VINA RESULT:      -6.6      3.283      5.963
REMARK  7 active torsions:
REMARK  status: ('A' for Active; 'I' for Inactive)
REMARK    1  A    between atoms: O_1  and  C_2 
REMARK    2  A    between atoms: C_2  and  C_3 
REMARK    3  A    between atoms: C_2  and  C_8 
REMARK    4  A    between atoms: C_3  and  C_4 
REMARK    5  A    between atoms: C_4  and  C_5 
REMARK    6  A    between atoms: C_8  and  C_9 
REMARK    7  A    between atoms: C_11  and  O_15 
ROOT
HETATM    1  O   UNL     1      18.442  -4.143  28.679  1.00  0.00    -0.395 OA
HETATM    2  H   UNL     1      18.392  -4.161  27.711  1.00  0.00     0.210 HD
ENDROOT
BRANCH   1   3
HETATM    3  C   UNL     1      19.749  -3.725  29.080  1.00  0.00     0.122 C 
BRANCH   3   4
HETATM    4  C   UNL     1      20.602  -3.530  27.822  1.00  0.00     0.042 C 
BRANCH   4   5
HETATM    5  C   UNL     1      20.736  -2.057  27.446  1.00  0.00     0.116 C 
BRANCH   5   6
HETATM    6  C   UNL     1      19.818  -1.723  26.309  1.00  0.00     0.172 C 
HETATM    7  O   UNL     1      20.150  -1.461  25.166  1.00  0.00    -0.648 OA
HETATM    8  O   UNL     1      18.517  -1.769  26.656  1.00  0.00    -0.648 OA
ENDBRANCH   5   6
ENDBRANCH   4   5
ENDBRANCH   3   4
BRANCH   3   9
HETATM    9  C   UNL     1      20.394  -4.758  30.021  1.00  0.00     0.070 C 
BRANCH   9  10
HETATM   10  C   UNL     1      20.977  -4.137  31.269  1.00  0.00    -0.053 A 
HETATM   11  C   UNL     1      21.018  -2.745  31.420  1.00  0.00     0.043 A 
HETATM   12  C   UNL     1      21.563  -2.183  32.570  1.00  0.00     0.066 A 
HETATM   13  C   UNL     1      22.076  -2.985  33.584  1.00  0.00     0.036 A 
HETATM   14  C   UNL     1      22.041  -4.371  33.440  1.00  0.00     0.003 A 
HETATM   15  C   UNL     1      21.496  -4.946  32.290  1.00  0.00     0.007 A 
BRANCH  12  16
HETATM   16  O   UNL     1      21.575  -0.822  32.665  1.00  0.00    -0.361 OA
HETATM   17  H   UNL     1      20.938  -0.384  33.194  1.00  0.00     0.217 HD
ENDBRANCH  12  16
ENDBRANCH   9  10
ENDBRANCH   3   9
ENDBRANCH   1   3
TORSDOF 7
ENDMDL
MODEL 8
REMARK VINA RESULT:      -6.5      2.668      4.563
REMARK  7 active torsions:
REMARK  status: ('A' for Active; 'I' for Inactive)
REMARK    1  A    between atoms: O_1  and  C_2 
REMARK    2  A    between atoms: C_2  and  C_3 
REMARK    3  A    between atoms: C_2  and  C_8 
REMARK    4  A    between atoms: C_3  and  C_4 
REMARK    5  A    between atoms: C_4  and  C_5 
REMARK    6  A    between atoms: C_8  and  C_9 
REMARK    7  A    between atoms: C_11  and  O_15 
ROOT
HETATM    1  O   UNL     1      21.687  -0.918  31.172  1.00  0.00    -0.395 OA
HETATM    2  H   UNL     1      22.258  -0.734  30.410  1.00  0.00     0.210 HD
ENDROOT
BRANCH   1   3
HETATM    3  C   UNL     1      21.183  -2.252  31.079  1.00  0.00     0.122 C 
BRANCH   3   4
HETATM    4  C   UNL     1      19.707  -2.184  30.673  1.00  0.00     0.042 C 
BRANCH   4   5
HETATM    5  C   UNL     1      19.391  -3.118  29.508  1.00  0.00     0.116 C 
BRANCH   5   6
HETATM    6  C   UNL     1      19.664  -2.434  28.203  1.00  0.00     0.172 C 
HETATM    7  O   UNL     1      18.948  -1.614  27.655  1.00  0.00    -0.648 OA
HETATM    8  O   UNL     1      20.845  -2.788  27.662  1.00  0.00    -0.648 OA
ENDBRANCH   5   6
ENDBRANCH   4   5
ENDBRANCH   3   4
BRANCH   3   9
HETATM    9  C   UNL     1      21.348  -2.998  32.415  1.00  0.00     0.070 C 
BRANCH   9  10
HETATM   10  C   UNL     1      21.902  -4.394  32.247  1.00  0.00    -0.053 A 
HETATM   11  C   UNL     1      21.995  -4.976  30.976  1.00  0.00     0.043 A 
HETATM   12  C   UNL     1      22.500  -6.264  30.833  1.00  0.00     0.066 A 
HETATM   13  C   UNL     1      22.919  -6.995  31.940  1.00  0.00     0.036 A 
HETATM   14  C   UNL     1      22.827  -6.424  33.209  1.00  0.00     0.003 A 
HETATM   15  C   UNL     1      22.322  -5.131  33.364  1.00  0.00     0.007 A 
BRANCH  12  16
HETATM   16  O   UNL     1      22.571  -6.781  29.573  1.00  0.00    -0.361 OA
HETATM   17  H   UNL     1      23.395  -7.062  29.227  1.00  0.00     0.217 HD
ENDBRANCH  12  16
ENDBRANCH   9  10
ENDBRANCH   3   9
ENDBRANCH   1   3
TORSDOF 7
ENDMDL
MODEL 9
REMARK VINA RESULT:      -6.4      2.942      5.619
REMARK  7 active torsions:
REMARK  status: ('A' for Active; 'I' for Inactive)
REMARK    1  A    between atoms: O_1  and  C_2 
REMARK    2  A    between atoms: C_2  and  C_3 
REMARK    3  A    between atoms: C_2  and  C_8 
REMARK    4  A    between atoms: C_3  and  C_4 
REMARK    5  A    between atoms: C_4  and  C_5 
REMARK    6  A    between atoms: C_8  and  C_9 
REMARK    7  A    between atoms: C_11  and  O_15 
ROOT
HETATM    1  O   UNL     1      20.957  -1.795  28.279  1.00  0.00    -0.395 OA
HETATM    2  H   UNL     1      21.592  -1.961  27.565  1.00  0.00     0.210 HD
ENDROOT
BRANCH   1   3
HETATM    3  C   UNL     1      21.062  -2.830  29.259  1.00  0.00     0.122 C 
BRANCH   3   4
HETATM    4  C   UNL     1      20.623  -4.150  28.617  1.00  0.00     0.042 C 
BRANCH   4   5
HETATM    5  C   UNL     1      19.200  -4.533  29.013  1.00  0.00     0.116 C 
BRANCH   5   6
HETATM    6  C   UNL     1      18.270  -4.357  27.851  1.00  0.00     0.172 C 
HETATM    7  O   UNL     1      17.511  -5.197  27.400  1.00  0.00    -0.648 OA
HETATM    8  O   UNL     1      18.313  -3.116  27.329  1.00  0.00    -0.648 OA
ENDBRANCH   5   6
ENDBRANCH   4   5
ENDBRANCH   3   4
BRANCH   3   9
HETATM    9  C   UNL     1      20.199  -2.510  30.493  1.00  0.00     0.070 C 
BRANCH   9  10
HETATM   10  C   UNL     1      20.943  -2.693  31.795  1.00  0.00    -0.053 A 
HETATM   11  C   UNL     1      21.446  -3.949  32.159  1.00  0.00     0.043 A 
HETATM   12  C   UNL     1      22.123  -4.107  33.364  1.00  0.00     0.066 A 
HETATM   13  C   UNL     1      22.312  -3.031  34.225  1.00  0.00     0.036 A 
HETATM   14  C   UNL     1      21.812  -1.779  33.872  1.00  0.00     0.003 A 
HETATM   15  C   UNL     1      21.131  -1.609  32.665  1.00  0.00     0.007 A 
BRANCH  12  16
HETATM   16  O   UNL     1      22.594  -5.351  33.667  1.00  0.00    -0.361 OA
HETATM   17  H   UNL     1      23.449  -5.451  34.038  1.00  0.00     0.217 HD
ENDBRANCH  12  16
ENDBRANCH   9  10
ENDBRANCH   3   9
ENDBRANCH   1   3
TORSDOF 7
ENDMDL
