MODEL 1
REMARK VINA RESULT:      -8.4      0.000      0.000
REMARK  9 active torsions:
REMARK  status: ('A' for Active; 'I' for Inactive)
REMARK    1  A    between atoms: C_3  and  C_8 
REMARK    2  A    between atoms: C_5  and  O_7 
REMARK    3  A    between atoms: C_8  and  C_9 
REMARK    4  A    between atoms: C_9  and  C_10 
REMARK    5  A    between atoms: C_9  and  O_20 
REMARK    6  A    between atoms: C_10  and  C_11 
REMARK    7  A    between atoms: C_12  and  O_19 
REMARK    8  A    between atoms: C_14  and  O_18 
REMARK    9  A    between atoms: C_16  and  O_17 
ROOT
HETATM    1  C   UNL     1     -55.884  48.125   8.891  1.00  0.00     0.003 A 
HETATM    2  C   UNL     1     -55.175  46.971   9.163  1.00  0.00     0.007 A 
HETATM    3  C   UNL     1     -53.979  47.039   9.856  1.00  0.00    -0.053 A 
HETATM    4  C   UNL     1     -53.492  48.261  10.275  1.00  0.00     0.043 A 
HETATM    5  C   UNL     1     -54.203  49.421  10.003  1.00  0.00     0.066 A 
HETATM    6  C   UNL     1     -55.402  49.350   9.309  1.00  0.00     0.036 A 
ENDROOT
BRANCH   3   7
HETATM    7  C   UNL     1     -53.208  45.779  10.152  1.00  0.00     0.070 C 
BRANCH   7   8
HETATM    8  C   UNL     1     -52.427  45.353   8.906  1.00  0.00     0.127 C 
BRANCH   8   9
HETATM    9  C   UNL     1     -53.013  44.052   8.356  1.00  0.00     0.076 C 
BRANCH   9  10
HETATM   10  C   UNL     1     -52.189  43.585   7.184  1.00  0.00     0.011 A 
HETATM   11  C   UNL     1     -52.590  43.883   5.891  1.00  0.00     0.077 A 
HETATM   12  C   UNL     1     -51.831  43.454   4.812  1.00  0.00     0.073 A 
HETATM   13  C   UNL     1     -50.671  42.726   5.028  1.00  0.00     0.071 A 
HETATM   14  C   UNL     1     -50.268  42.429   6.321  1.00  0.00     0.073 A 
HETATM   15  C   UNL     1     -51.025  42.863   7.399  1.00  0.00     0.077 A 
BRANCH  11  16
HETATM   16  O   UNL     1     -53.728  44.596   5.680  1.00  0.00    -0.360 OA
HETATM   17  H   UNL     1     -53.786  45.483   5.973  1.00  0.00     0.217 HD
ENDBRANCH  11  16
BRANCH  13  18
HETATM   18  O   UNL     1     -49.927  42.304   3.971  1.00  0.00    -0.361 OA
HETATM   19  H   UNL     1     -49.683  42.910   3.300  1.00  0.00     0.217 HD
ENDBRANCH  13  18
BRANCH  15  20
HETATM   20  O   UNL     1     -50.631  42.571   8.667  1.00  0.00    -0.360 OA
HETATM   21  H   UNL     1     -49.788  42.191   8.820  1.00  0.00     0.217 HD
ENDBRANCH  15  20
ENDBRANCH   9  10
ENDBRANCH   8   9
BRANCH   8  22
HETATM   22  O   UNL     1     -52.523  46.376   7.913  1.00  0.00    -0.395 OA
HETATM   23  H   UNL     1     -52.604  45.969   7.036  1.00  0.00     0.210 HD
ENDBRANCH   8  22
ENDBRANCH   7   8
ENDBRANCH   3   7
BRANCH   5  24
HETATM   24  O   UNL     1     -53.725  50.625  10.416  1.00  0.00    -0.361 OA
HETATM   25  H   UNL     1     -52.800  50.769  10.469  1.00  0.00     0.217 HD
ENDBRANCH   5  24
TORSDOF 9
ENDMDL
MODEL 2
REMARK VINA RESULT:      -8.4      0.078      1.850
REMARK  9 active torsions:
REMARK  status: ('A' for Active; 'I' for Inactive)
REMARK    1  A    between atoms: C_3  and  C_8 
REMARK    2  A    between atoms: C_5  and  O_7 
REMARK    3  A    between atoms: C_8  and  C_9 
REMARK    4  A    between atoms: C_9  and  C_10 
REMARK    5  A    between atoms: C_9  and  O_20 
REMARK    6  A    between atoms: C_10  and  C_11 
REMARK    7  A    between atoms: C_12  and  O_19 
REMARK    8  A    between atoms: C_14  and  O_18 
REMARK    9  A    between atoms: C_16  and  O_17 
ROOT
HETATM    1  C   UNL     1     -55.887  48.155   8.879  1.00  0.00     0.003 A 
HETATM    2  C   UNL     1     -55.170  47.010   9.173  1.00  0.00     0.007 A 
HETATM    3  C   UNL     1     -53.983  47.097   9.877  1.00  0.00    -0.053 A 
HETATM    4  C   UNL     1     -53.512  48.327  10.289  1.00  0.00     0.043 A 
HETATM    5  C   UNL     1     -54.230  49.478   9.996  1.00  0.00     0.066 A 
HETATM    6  C   UNL     1     -55.420  49.388   9.289  1.00  0.00     0.036 A 
ENDROOT
BRANCH   3   7
HETATM    7  C   UNL     1     -53.204  45.847  10.196  1.00  0.00     0.070 C 
BRANCH   7   8
HETATM    8  C   UNL     1     -52.426  45.400   8.956  1.00  0.00     0.127 C 
BRANCH   8   9
HETATM    9  C   UNL     1     -53.033  44.105   8.412  1.00  0.00     0.076 C 
BRANCH   9  10
HETATM   10  C   UNL     1     -52.205  43.610   7.254  1.00  0.00     0.011 A 
HETATM   11  C   UNL     1     -51.060  42.864   7.489  1.00  0.00     0.077 A 
HETATM   12  C   UNL     1     -50.298  42.408   6.424  1.00  0.00     0.073 A 
HETATM   13  C   UNL     1     -50.681  42.700   5.123  1.00  0.00     0.071 A 
HETATM   14  C   UNL     1     -51.827  43.446   4.888  1.00  0.00     0.073 A 
HETATM   15  C   UNL     1     -52.591  43.897   5.954  1.00  0.00     0.077 A 
BRANCH  11  16
HETATM   16  O   UNL     1     -50.684  42.579   8.764  1.00  0.00    -0.360 OA
HETATM   17  H   UNL     1     -51.022  43.086   9.476  1.00  0.00     0.217 HD
ENDBRANCH  11  16
BRANCH  13  18
HETATM   18  O   UNL     1     -49.934  42.255   4.079  1.00  0.00    -0.361 OA
HETATM   19  H   UNL     1     -49.174  41.730   4.237  1.00  0.00     0.217 HD
ENDBRANCH  13  18
BRANCH  15  20
HETATM   20  O   UNL     1     -53.713  44.628   5.723  1.00  0.00    -0.360 OA
HETATM   21  H   UNL     1     -53.782  45.499   6.061  1.00  0.00     0.217 HD
ENDBRANCH  15  20
ENDBRANCH   9  10
ENDBRANCH   8   9
BRANCH   8  22
HETATM   22  O   UNL     1     -52.501  46.418   7.956  1.00  0.00    -0.395 OA
HETATM   23  H   UNL     1     -52.134  46.081   7.123  1.00  0.00     0.210 HD
ENDBRANCH   8  22
ENDBRANCH   7   8
ENDBRANCH   3   7
BRANCH   5  24
HETATM   24  O   UNL     1     -53.768  50.690  10.401  1.00  0.00    -0.361 OA
HETATM   25  H   UNL     1     -53.274  51.225   9.811  1.00  0.00     0.217 HD
ENDBRANCH   5  24
TORSDOF 9
ENDMDL
MODEL 3
REMARK VINA RESULT:      -8.3      1.337      2.013
REMARK  9 active torsions:
REMARK  status: ('A' for Active; 'I' for Inactive)
REMARK    1  A    between atoms: C_3  and  C_8 
REMARK    2  A    between atoms: C_5  and  O_7 
REMARK    3  A    between atoms: C_8  and  C_9 
REMARK    4  A    between atoms: C_9  and  C_10 
REMARK    5  A    between atoms: C_9  and  O_20 
REMARK    6  A    between atoms: C_10  and  C_11 
REMARK    7  A    between atoms: C_12  and  O_19 
REMARK    8  A    between atoms: C_14  and  O_18 
REMARK    9  A    between atoms: C_16  and  O_17 
ROOT
HETATM    1  C   UNL     1     -55.650  48.425   9.233  1.00  0.00     0.003 A 
HETATM    2  C   UNL     1     -54.393  47.994   9.613  1.00  0.00     0.007 A 
HETATM    3  C   UNL     1     -54.081  46.647   9.575  1.00  0.00    -0.053 A 
HETATM    4  C   UNL     1     -55.025  45.730   9.159  1.00  0.00     0.043 A 
HETATM    5  C   UNL     1     -56.288  46.160   8.778  1.00  0.00     0.066 A 
HETATM    6  C   UNL     1     -56.598  47.512   8.816  1.00  0.00     0.036 A 
ENDROOT
BRANCH   3   7
HETATM    7  C   UNL     1     -52.709  46.180   9.989  1.00  0.00     0.070 C 
BRANCH   7   8
HETATM    8  C   UNL     1     -51.981  45.596   8.777  1.00  0.00     0.127 C 
BRANCH   8   9
HETATM    9  C   UNL     1     -52.569  44.224   8.441  1.00  0.00     0.076 C 
BRANCH   9  10
HETATM   10  C   UNL     1     -51.852  43.650   7.246  1.00  0.00     0.011 A 
HETATM   11  C   UNL     1     -52.350  43.863   5.969  1.00  0.00     0.077 A 
HETATM   12  C   UNL     1     -51.691  43.334   4.870  1.00  0.00     0.073 A 
HETATM   13  C   UNL     1     -50.533  42.592   5.047  1.00  0.00     0.071 A 
HETATM   14  C   UNL     1     -50.034  42.380   6.324  1.00  0.00     0.073 A 
HETATM   15  C   UNL     1     -50.691  42.912   7.422  1.00  0.00     0.077 A 
BRANCH  11  16
HETATM   16  O   UNL     1     -53.486  44.589   5.796  1.00  0.00    -0.360 OA
HETATM   17  H   UNL     1     -53.886  44.639   4.951  1.00  0.00     0.217 HD
ENDBRANCH  11  16
BRANCH  13  18
HETATM   18  O   UNL     1     -49.887  42.073   3.970  1.00  0.00    -0.361 OA
HETATM   19  H   UNL     1     -49.679  42.621   3.240  1.00  0.00     0.217 HD
ENDBRANCH  13  18
BRANCH  15  20
HETATM   20  O   UNL     1     -50.202  42.703   8.673  1.00  0.00    -0.360 OA
HETATM   21  H   UNL     1     -49.841  41.870   8.902  1.00  0.00     0.217 HD
ENDBRANCH  15  20
ENDBRANCH   9  10
ENDBRANCH   8   9
BRANCH   8  22
HETATM   22  O   UNL     1     -52.142  46.470   7.658  1.00  0.00    -0.395 OA
HETATM   23  H   UNL     1     -52.759  46.073   7.023  1.00  0.00     0.210 HD
ENDBRANCH   8  22
ENDBRANCH   7   8
ENDBRANCH   3   7
BRANCH   5  24
HETATM   24  O   UNL     1     -57.219  45.259   8.367  1.00  0.00    -0.361 OA
HETATM   25  H   UNL     1     -56.979  44.362   8.239  1.00  0.00     0.217 HD
ENDBRANCH   5  24
TORSDOF 9
ENDMDL
MODEL 4
REMARK VINA RESULT:      -8.1      1.820      6.582
REMARK  9 active torsions:
REMARK  status: ('A' for Active; 'I' for Inactive)
REMARK    1  A    between atoms: C_3  and  C_8 
REMARK    2  A    between atoms: C_5  and  O_7 
REMARK    3  A    between atoms: C_8  and  C_9 
REMARK    4  A    between atoms: C_9  and  C_10 
REMARK    5  A    between atoms: C_9  and  O_20 
REMARK    6  A    between atoms: C_10  and  C_11 
REMARK    7  A    between atoms: C_12  and  O_19 
REMARK    8  A    between atoms: C_14  and  O_18 
REMARK    9  A    between atoms: C_16  and  O_17 
ROOT
HETATM    1  C   UNL     1     -50.519  41.784   7.969  1.00  0.00     0.003 A 
HETATM    2  C   UNL     1     -51.346  42.863   8.219  1.00  0.00     0.007 A 
HETATM    3  C   UNL     1     -51.706  43.714   7.191  1.00  0.00    -0.053 A 
HETATM    4  C   UNL     1     -51.240  43.488   5.911  1.00  0.00     0.043 A 
HETATM    5  C   UNL     1     -50.409  42.406   5.658  1.00  0.00     0.066 A 
HETATM    6  C   UNL     1     -50.049  41.554   6.691  1.00  0.00     0.036 A 
ENDROOT
BRANCH   3   7
HETATM    7  C   UNL     1     -52.609  44.889   7.467  1.00  0.00     0.070 C 
BRANCH   7   8
HETATM    8  C   UNL     1     -54.069  44.430   7.436  1.00  0.00     0.127 C 
BRANCH   8   9
HETATM    9  C   UNL     1     -54.926  45.400   8.250  1.00  0.00     0.076 C 
BRANCH   9  10
HETATM   10  C   UNL     1     -54.120  45.934   9.406  1.00  0.00     0.011 A 
HETATM   11  C   UNL     1     -53.694  47.254   9.405  1.00  0.00     0.077 A 
HETATM   12  C   UNL     1     -52.952  47.745  10.468  1.00  0.00     0.073 A 
HETATM   13  C   UNL     1     -52.636  46.915  11.534  1.00  0.00     0.071 A 
HETATM   14  C   UNL     1     -53.063  45.596  11.536  1.00  0.00     0.073 A 
HETATM   15  C   UNL     1     -53.809  45.107  10.475  1.00  0.00     0.077 A 
BRANCH  11  16
HETATM   16  O   UNL     1     -54.003  48.066   8.359  1.00  0.00    -0.360 OA
HETATM   17  H   UNL     1     -54.573  47.760   7.682  1.00  0.00     0.217 HD
ENDBRANCH  11  16
BRANCH  13  18
HETATM   18  O   UNL     1     -51.908  47.396  12.576  1.00  0.00    -0.361 OA
HETATM   19  H   UNL     1     -51.474  46.802  13.156  1.00  0.00     0.217 HD
ENDBRANCH  13  18
BRANCH  15  20
HETATM   20  O   UNL     1     -54.227  43.813  10.477  1.00  0.00    -0.360 OA
HETATM   21  H   UNL     1     -54.089  43.278  11.233  1.00  0.00     0.217 HD
ENDBRANCH  15  20
ENDBRANCH   9  10
ENDBRANCH   8   9
BRANCH   8  22
HETATM   22  O   UNL     1     -54.531  44.405   6.084  1.00  0.00    -0.395 OA
HETATM   23  H   UNL     1     -55.136  45.149   5.935  1.00  0.00     0.210 HD
ENDBRANCH   8  22
ENDBRANCH   7   8
ENDBRANCH   3   7
BRANCH   5  24
HETATM   24  O   UNL     1     -49.949  42.182   4.398  1.00  0.00    -0.361 OA
HETATM   25  H   UNL     1     -50.472  42.424   3.658  1.00  0.00     0.217 HD
ENDBRANCH   5  24
TORSDOF 9
ENDMDL
MODEL 5
REMARK VINA RESULT:      -8.1      1.543      2.256
REMARK  9 active torsions:
REMARK  status: ('A' for Active; 'I' for Inactive)
REMARK    1  A    between atoms: C_3  and  C_8 
REMARK    2  A    between atoms: C_5  and  O_7 
REMARK    3  A    between atoms: C_8  and  C_9 
REMARK    4  A    between atoms: C_9  and  C_10 
REMARK    5  A    between atoms: C_9  and  O_20 
REMARK    6  A    between atoms: C_10  and  C_11 
REMARK    7  A    between atoms: C_12  and  O_19 
REMARK    8  A    between atoms: C_14  and  O_18 
REMARK    9  A    between atoms: C_16  and  O_17 
ROOT
HETATM    1  C   UNL     1     -55.696  47.947   8.801  1.00  0.00     0.003 A 
HETATM    2  C   UNL     1     -55.036  46.829   9.275  1.00  0.00     0.007 A 
HETATM    3  C   UNL     1     -53.952  46.971  10.122  1.00  0.00    -0.053 A 
HETATM    4  C   UNL     1     -53.527  48.231  10.495  1.00  0.00     0.043 A 
HETATM    5  C   UNL     1     -54.187  49.354  10.019  1.00  0.00     0.066 A 
HETATM    6  C   UNL     1     -55.275  49.209   9.170  1.00  0.00     0.036 A 
ENDROOT
BRANCH   3   7
HETATM    7  C   UNL     1     -53.235  45.750  10.639  1.00  0.00     0.070 C 
BRANCH   7   8
HETATM    8  C   UNL     1     -53.577  44.547   9.757  1.00  0.00     0.127 C 
BRANCH   8   9
HETATM    9  C   UNL     1     -52.296  43.996   9.128  1.00  0.00     0.076 C 
BRANCH   9  10
HETATM   10  C   UNL     1     -52.575  43.574   7.709  1.00  0.00     0.011 A 
HETATM   11  C   UNL     1     -52.865  42.248   7.423  1.00  0.00     0.077 A 
HETATM   12  C   UNL     1     -53.122  41.861   6.116  1.00  0.00     0.073 A 
HETATM   13  C   UNL     1     -53.087  42.799   5.096  1.00  0.00     0.071 A 
HETATM   14  C   UNL     1     -52.798  44.125   5.382  1.00  0.00     0.073 A 
HETATM   15  C   UNL     1     -52.547  44.513   6.689  1.00  0.00     0.077 A 
BRANCH  11  16
HETATM   16  O   UNL     1     -52.897  41.329   8.423  1.00  0.00    -0.360 OA
HETATM   17  H   UNL     1     -53.245  41.562   9.262  1.00  0.00     0.217 HD
ENDBRANCH  11  16
BRANCH  13  18
HETATM   18  O   UNL     1     -53.338  42.419   3.815  1.00  0.00    -0.361 OA
HETATM   19  H   UNL     1     -54.094  42.746   3.369  1.00  0.00     0.217 HD
ENDBRANCH  13  18
BRANCH  15  20
HETATM   20  O   UNL     1     -52.262  45.812   6.969  1.00  0.00    -0.360 OA
HETATM   21  H   UNL     1     -51.458  46.034   7.395  1.00  0.00     0.217 HD
ENDBRANCH  15  20
ENDBRANCH   9  10
ENDBRANCH   8   9
BRANCH   8  22
HETATM   22  O   UNL     1     -54.191  43.532  10.555  1.00  0.00    -0.395 OA
HETATM   23  H   UNL     1     -54.784  43.945  11.203  1.00  0.00     0.210 HD
ENDBRANCH   8  22
ENDBRANCH   7   8
ENDBRANCH   3   7
BRANCH   5  24
HETATM   24  O   UNL     1     -53.770  50.595  10.386  1.00  0.00    -0.361 OA
HETATM   25  H   UNL     1     -54.119  50.998  11.157  1.00  0.00     0.217 HD
ENDBRANCH   5  24
TORSDOF 9
ENDMDL
MODEL 6
REMARK VINA RESULT:      -8.0      1.864      6.867
REMARK  9 active torsions:
REMARK  status: ('A' for Active; 'I' for Inactive)
REMARK    1  A    between atoms: C_3  and  C_8 
REMARK    2  A    between atoms: C_5  and  O_7 
REMARK    3  A    between atoms: C_8  and  C_9 
REMARK    4  A    between atoms: C_9  and  C_10 
REMARK    5  A    between atoms: C_9  and  O_20 
REMARK    6  A    between atoms: C_10  and  C_11 
REMARK    7  A    between atoms: C_12  and  O_19 
REMARK    8  A    between atoms: C_14  and  O_18 
REMARK    9  A    between atoms: C_16  and  O_17 
ROOT
HETATM    1  C   UNL     1     -50.273  41.980   7.750  1.00  0.00     0.003 A 
HETATM    2  C   UNL     1     -51.209  42.986   7.902  1.00  0.00     0.007 A 
HETATM    3  C   UNL     1     -51.693  43.656   6.793  1.00  0.00    -0.053 A 
HETATM    4  C   UNL     1     -51.241  43.322   5.532  1.00  0.00     0.043 A 
HETATM    5  C   UNL     1     -50.301  42.314   5.377  1.00  0.00     0.066 A 
HETATM    6  C   UNL     1     -49.818  41.642   6.490  1.00  0.00     0.036 A 
ENDROOT
BRANCH   3   7
HETATM    7  C   UNL     1     -52.714  44.752   6.962  1.00  0.00     0.070 C 
BRANCH   7   8
HETATM    8  C   UNL     1     -53.956  44.189   7.655  1.00  0.00     0.127 C 
BRANCH   8   9
HETATM    9  C   UNL     1     -54.763  45.337   8.267  1.00  0.00     0.076 C 
BRANCH   9  10
HETATM   10  C   UNL     1     -54.019  45.898   9.451  1.00  0.00     0.011 A 
HETATM   11  C   UNL     1     -53.760  45.095  10.552  1.00  0.00     0.077 A 
HETATM   12  C   UNL     1     -53.075  45.611  11.642  1.00  0.00     0.073 A 
HETATM   13  C   UNL     1     -52.650  46.931  11.631  1.00  0.00     0.071 A 
HETATM   14  C   UNL     1     -52.907  47.734  10.530  1.00  0.00     0.073 A 
HETATM   15  C   UNL     1     -53.588  47.216   9.438  1.00  0.00     0.077 A 
BRANCH  11  16
HETATM   16  O   UNL     1     -54.178  43.802  10.562  1.00  0.00    -0.360 OA
HETATM   17  H   UNL     1     -55.065  43.598  10.787  1.00  0.00     0.217 HD
ENDBRANCH  11  16
BRANCH  13  18
HETATM   18  O   UNL     1     -51.980  47.438  12.699  1.00  0.00    -0.361 OA
HETATM   19  H   UNL     1     -51.055  47.309  12.776  1.00  0.00     0.217 HD
ENDBRANCH  13  18
BRANCH  15  20
HETATM   20  O   UNL     1     -53.841  48.003   8.359  1.00  0.00    -0.360 OA
HETATM   21  H   UNL     1     -53.668  48.923   8.400  1.00  0.00     0.217 HD
ENDBRANCH  15  20
ENDBRANCH   9  10
ENDBRANCH   8   9
BRANCH   8  22
HETATM   22  O   UNL     1     -54.762  43.497   6.700  1.00  0.00    -0.395 OA
HETATM   23  H   UNL     1     -54.307  43.482   5.843  1.00  0.00     0.210 HD
ENDBRANCH   8  22
ENDBRANCH   7   8
ENDBRANCH   3   7
BRANCH   5  24
HETATM   24  O   UNL     1     -49.856  41.983   4.136  1.00  0.00    -0.361 OA
HETATM   25  H   UNL     1     -50.393  41.467   3.567  1.00  0.00     0.217 HD
ENDBRANCH   5  24
TORSDOF 9
ENDMDL
MODEL 7
REMARK VINA RESULT:      -8.0      1.605      6.295
REMARK  9 active torsions:
REMARK  status: ('A' for Active; 'I' for Inactive)
REMARK    1  A    between atoms: C_3  and  C_8 
REMARK    2  A    between atoms: C_5  and  O_7 
REMARK    3  A    between atoms: C_8  and  C_9 
REMARK    4  A    between atoms: C_9  and  C_10 
REMARK    5  A    between atoms: C_9  and  O_20 
REMARK    6  A    between atoms: C_10  and  C_11 
REMARK    7  A    between atoms: C_12  and  O_19 
REMARK    8  A    between atoms: C_14  and  O_18 
REMARK    9  A    between atoms: C_16  and  O_17 
ROOT
HETATM    1  C   UNL     1     -50.645  42.486   5.726  1.00  0.00     0.003 A 
HETATM    2  C   UNL     1     -51.133  42.384   7.015  1.00  0.00     0.007 A 
HETATM    3  C   UNL     1     -52.163  43.205   7.434  1.00  0.00    -0.053 A 
HETATM    4  C   UNL     1     -52.706  44.131   6.565  1.00  0.00     0.043 A 
HETATM    5  C   UNL     1     -52.217  44.236   5.271  1.00  0.00     0.066 A 
HETATM    6  C   UNL     1     -51.184  43.410   4.853  1.00  0.00     0.036 A 
ENDROOT
BRANCH   3   7
HETATM    7  C   UNL     1     -52.693  43.091   8.840  1.00  0.00     0.070 C 
BRANCH   7   8
HETATM    8  C   UNL     1     -52.430  44.396   9.593  1.00  0.00     0.127 C 
BRANCH   8   9
HETATM    9  C   UNL     1     -53.711  44.846  10.297  1.00  0.00     0.076 C 
BRANCH   9  10
HETATM   10  C   UNL     1     -54.054  46.250   9.868  1.00  0.00     0.011 A 
HETATM   11  C   UNL     1     -55.131  46.474   9.024  1.00  0.00     0.077 A 
HETATM   12  C   UNL     1     -55.446  47.765   8.629  1.00  0.00     0.073 A 
HETATM   13  C   UNL     1     -54.683  48.833   9.078  1.00  0.00     0.071 A 
HETATM   14  C   UNL     1     -53.607  48.609   9.924  1.00  0.00     0.073 A 
HETATM   15  C   UNL     1     -53.295  47.318  10.322  1.00  0.00     0.077 A 
BRANCH  11  16
HETATM   16  O   UNL     1     -55.877  45.427   8.583  1.00  0.00    -0.360 OA
HETATM   17  H   UNL     1     -56.481  45.006   9.161  1.00  0.00     0.217 HD
ENDBRANCH  11  16
BRANCH  13  18
HETATM   18  O   UNL     1     -54.991  50.099   8.691  1.00  0.00    -0.361 OA
HETATM   19  H   UNL     1     -55.512  50.240   7.925  1.00  0.00     0.217 HD
ENDBRANCH  13  18
BRANCH  15  20
HETATM   20  O   UNL     1     -52.240  47.099  11.150  1.00  0.00    -0.360 OA
HETATM   21  H   UNL     1     -52.349  46.577  11.920  1.00  0.00     0.217 HD
ENDBRANCH  15  20
ENDBRANCH   9  10
ENDBRANCH   8   9
BRANCH   8  22
HETATM   22  O   UNL     1     -51.402  44.187  10.563  1.00  0.00    -0.395 OA
HETATM   23  H   UNL     1     -51.790  44.195  11.453  1.00  0.00     0.210 HD
ENDBRANCH   8  22
ENDBRANCH   7   8
ENDBRANCH   3   7
BRANCH   5  24
HETATM   24  O   UNL     1     -52.751  45.147   4.414  1.00  0.00    -0.361 OA
HETATM   25  H   UNL     1     -52.334  45.978   4.294  1.00  0.00     0.217 HD
ENDBRANCH   5  24
TORSDOF 9
ENDMDL
MODEL 8
REMARK VINA RESULT:      -8.0      1.600      6.481
REMARK  9 active torsions:
REMARK  status: ('A' for Active; 'I' for Inactive)
REMARK    1  A    between atoms: C_3  and  C_8 
REMARK    2  A    between atoms: C_5  and  O_7 
REMARK    3  A    between atoms: C_8  and  C_9 
REMARK    4  A    between atoms: C_9  and  C_10 
REMARK    5  A    between atoms: C_9  and  O_20 
REMARK    6  A    between atoms: C_10  and  C_11 
REMARK    7  A    between atoms: C_12  and  O_19 
REMARK    8  A    between atoms: C_14  and  O_18 
REMARK    9  A    between atoms: C_16  and  O_17 
ROOT
HETATM    1  C   UNL     1     -50.633  42.458   5.771  1.00  0.00     0.003 A 
HETATM    2  C   UNL     1     -51.133  42.363   7.056  1.00  0.00     0.007 A 
HETATM    3  C   UNL     1     -52.167  43.187   7.461  1.00  0.00    -0.053 A 
HETATM    4  C   UNL     1     -52.703  44.107   6.581  1.00  0.00     0.043 A 
HETATM    5  C   UNL     1     -52.203  44.204   5.291  1.00  0.00     0.066 A 
HETATM    6  C   UNL     1     -51.166  43.376   4.888  1.00  0.00     0.036 A 
ENDROOT
BRANCH   3   7
HETATM    7  C   UNL     1     -52.710  43.080   8.863  1.00  0.00     0.070 C 
BRANCH   7   8
HETATM    8  C   UNL     1     -52.403  44.370   9.628  1.00  0.00     0.127 C 
BRANCH   8   9
HETATM    9  C   UNL     1     -53.662  44.841  10.359  1.00  0.00     0.076 C 
BRANCH   9  10
HETATM   10  C   UNL     1     -54.001  46.242   9.921  1.00  0.00     0.011 A 
HETATM   11  C   UNL     1     -53.232  47.311  10.358  1.00  0.00     0.077 A 
HETATM   12  C   UNL     1     -53.544  48.601   9.955  1.00  0.00     0.073 A 
HETATM   13  C   UNL     1     -54.626  48.822   9.116  1.00  0.00     0.071 A 
HETATM   14  C   UNL     1     -55.394  47.754   8.679  1.00  0.00     0.073 A 
HETATM   15  C   UNL     1     -55.079  46.464   9.078  1.00  0.00     0.077 A 
BRANCH  11  16
HETATM   16  O   UNL     1     -52.172  47.094  11.181  1.00  0.00    -0.360 OA
HETATM   17  H   UNL     1     -51.320  47.394  10.936  1.00  0.00     0.217 HD
ENDBRANCH  11  16
BRANCH  13  18
HETATM   18  O   UNL     1     -54.933  50.086   8.722  1.00  0.00    -0.361 OA
HETATM   19  H   UNL     1     -55.747  50.257   8.292  1.00  0.00     0.217 HD
ENDBRANCH  13  18
BRANCH  15  20
HETATM   20  O   UNL     1     -55.833  45.417   8.650  1.00  0.00    -0.360 OA
HETATM   21  H   UNL     1     -55.862  44.625   9.150  1.00  0.00     0.217 HD
ENDBRANCH  15  20
ENDBRANCH   9  10
ENDBRANCH   8   9
BRANCH   8  22
HETATM   22  O   UNL     1     -51.365  44.122  10.579  1.00  0.00    -0.395 OA
HETATM   23  H   UNL     1     -51.160  43.174  10.594  1.00  0.00     0.210 HD
ENDBRANCH   8  22
ENDBRANCH   7   8
ENDBRANCH   3   7
BRANCH   5  24
HETATM   24  O   UNL     1     -52.729  45.109   4.423  1.00  0.00    -0.361 OA
HETATM   25  H   UNL     1     -52.182  45.514   3.779  1.00  0.00     0.217 HD
ENDBRANCH   5  24
TORSDOF 9
ENDMDL
MODEL 9
REMARK VINA RESULT:      -7.9      1.556      6.787
REMARK  9 active torsions:
REMARK  status: ('A' for Active; 'I' for Inactive)
REMARK    1  A    between atoms: C_3  and  C_8 
REMARK    2  A    between atoms: C_5  and  O_7 
REMARK    3  A    between atoms: C_8  and  C_9 
REMARK    4  A    between atoms: C_9  and  C_10 
REMARK    5  A    between atoms: C_9  and  O_20 
REMARK    6  A    between atoms: C_10  and  C_11 
REMARK    7  A    between atoms: C_12  and  O_19 
REMARK    8  A    between atoms: C_14  and  O_18 
REMARK    9  A    between atoms: C_16  and  O_17 
ROOT
HETATM    1  C   UNL     1     -50.017  41.727   7.664  1.00  0.00     0.003 A 
HETATM    2  C   UNL     1     -50.902  42.729   8.013  1.00  0.00     0.007 A 
HETATM    3  C   UNL     1     -51.466  43.528   7.034  1.00  0.00    -0.053 A 
HETATM    4  C   UNL     1     -51.145  43.325   5.707  1.00  0.00     0.043 A 
HETATM    5  C   UNL     1     -50.256  42.320   5.355  1.00  0.00     0.066 A 
HETATM    6  C   UNL     1     -49.693  41.520   6.338  1.00  0.00     0.036 A 
ENDROOT
BRANCH   3   7
HETATM    7  C   UNL     1     -52.432  44.619   7.418  1.00  0.00     0.070 C 
BRANCH   7   8
HETATM    8  C   UNL     1     -53.659  44.002   8.093  1.00  0.00     0.127 C 
BRANCH   8   9
HETATM    9  C   UNL     1     -53.884  44.671   9.450  1.00  0.00     0.076 C 
BRANCH   9  10
HETATM   10  C   UNL     1     -54.183  46.134   9.246  1.00  0.00     0.011 A 
HETATM   11  C   UNL     1     -55.471  46.542   8.932  1.00  0.00     0.077 A 
HETATM   12  C   UNL     1     -55.746  47.888   8.745  1.00  0.00     0.073 A 
HETATM   13  C   UNL     1     -54.732  48.826   8.869  1.00  0.00     0.071 A 
HETATM   14  C   UNL     1     -53.444  48.418   9.184  1.00  0.00     0.073 A 
HETATM   15  C   UNL     1     -53.171  47.073   9.377  1.00  0.00     0.077 A 
BRANCH  11  16
HETATM   16  O   UNL     1     -56.464  45.622   8.809  1.00  0.00    -0.360 OA
HETATM   17  H   UNL     1     -57.320  45.890   8.540  1.00  0.00     0.217 HD
ENDBRANCH  11  16
BRANCH  13  18
HETATM   18  O   UNL     1     -55.001  50.145   8.684  1.00  0.00    -0.361 OA
HETATM   19  H   UNL     1     -55.847  50.413   8.383  1.00  0.00     0.217 HD
ENDBRANCH  13  18
BRANCH  15  20
HETATM   20  O   UNL     1     -51.909  46.673   9.684  1.00  0.00    -0.360 OA
HETATM   21  H   UNL     1     -51.244  47.311   9.853  1.00  0.00     0.217 HD
ENDBRANCH  15  20
ENDBRANCH   9  10
ENDBRANCH   8   9
BRANCH   8  22
HETATM   22  O   UNL     1     -54.807  44.202   7.266  1.00  0.00    -0.395 OA
HETATM   23  H   UNL     1     -54.695  43.718   6.433  1.00  0.00     0.210 HD
ENDBRANCH   8  22
ENDBRANCH   7   8
ENDBRANCH   3   7
BRANCH   5  24
HETATM   24  O   UNL     1     -49.940  42.118   4.048  1.00  0.00    -0.361 OA
HETATM   25  H   UNL     1     -49.887  42.847   3.461  1.00  0.00     0.217 HD
ENDBRANCH   5  24
TORSDOF 9
ENDMDL
