MODEL 1
REMARK VINA RESULT:     -21.0      0.000      0.000
REMARK  9 active torsions:
REMARK  status: ('A' for Active; 'I' for Inactive)
REMARK    1  A    between atoms: C_3  and  C_8 
REMARK    2  A    between atoms: C_5  and  O_7 
REMARK    3  A    between atoms: C_8  and  C_9 
REMARK    4  A    between atoms: C_9  and  C_10 
REMARK    5  A    between atoms: C_9  and  O_20 
REMARK    6  A    between atoms: C_10  and  C_11 
REMARK    7  A    between atoms: C_12  and  O_19 
REMARK    8  A    between atoms: C_14  and  O_18 
REMARK    9  A    between atoms: C_16  and  O_17 
ROOT
HETATM    1  C   UNL     1     -53.612  51.315  12.860  1.00  0.00     0.003 A 
HETATM    2  C   UNL     1     -53.934  51.373  11.518  1.00  0.00     0.007 A 
HETATM    3  C   UNL     1     -53.907  50.225  10.747  1.00  0.00    -0.053 A 
HETATM    4  C   UNL     1     -53.557  49.017  11.318  1.00  0.00     0.043 A 
HETATM    5  C   UNL     1     -53.233  48.956  12.666  1.00  0.00     0.066 A 
HETATM    6  C   UNL     1     -53.262  50.109  13.436  1.00  0.00     0.036 A 
ENDROOT
BRANCH   3   7
HETATM    7  C   UNL     1     -54.260  50.292   9.283  1.00  0.00     0.070 C 
BRANCH   7   8
HETATM    8  C   UNL     1     -53.498  49.203   8.524  1.00  0.00     0.127 C 
BRANCH   8   9
HETATM    9  C   UNL     1     -54.494  48.285   7.814  1.00  0.00     0.076 C 
BRANCH   9  10
HETATM   10  C   UNL     1     -53.772  47.068   7.294  1.00  0.00     0.011 A 
HETATM   11  C   UNL     1     -53.398  47.000   5.961  1.00  0.00     0.077 A 
HETATM   12  C   UNL     1     -52.734  45.880   5.483  1.00  0.00     0.073 A 
HETATM   13  C   UNL     1     -52.445  44.828   6.338  1.00  0.00     0.071 A 
HETATM   14  C   UNL     1     -52.819  44.897   7.672  1.00  0.00     0.073 A 
HETATM   15  C   UNL     1     -53.478  46.018   8.151  1.00  0.00     0.077 A 
BRANCH  11  16
HETATM   16  O   UNL     1     -53.682  48.031   5.122  1.00  0.00    -0.360 OA
HETATM   17  H   UNL     1     -53.772  48.900   5.462  1.00  0.00     0.217 HD
ENDBRANCH  11  16
BRANCH  13  18
HETATM   18  O   UNL     1     -51.796  43.730   5.870  1.00  0.00    -0.361 OA
HETATM   19  H   UNL     1     -51.554  43.679   4.967  1.00  0.00     0.217 HD
ENDBRANCH  13  18
BRANCH  15  20
HETATM   20  O   UNL     1     -53.845  46.084   9.458  1.00  0.00    -0.360 OA
HETATM   21  H   UNL     1     -54.729  45.900   9.706  1.00  0.00     0.217 HD
ENDBRANCH  15  20
ENDBRANCH   9  10
ENDBRANCH   8   9
BRANCH   8  22
HETATM   22  O   UNL     1     -52.637  49.810   7.559  1.00  0.00    -0.395 OA
HETATM   23  H   UNL     1     -52.113  49.124   7.116  1.00  0.00     0.210 HD
ENDBRANCH   8  22
ENDBRANCH   7   8
ENDBRANCH   3   7
BRANCH   5  24
HETATM   24  O   UNL     1     -52.889  47.768  13.230  1.00  0.00    -0.361 OA
HETATM   25  H   UNL     1     -53.435  47.016  13.109  1.00  0.00     0.217 HD
ENDBRANCH   5  24
TORSDOF 9
ENDMDL
MODEL 2
REMARK VINA RESULT:     -20.9      0.942      1.444
REMARK  9 active torsions:
REMARK  status: ('A' for Active; 'I' for Inactive)
REMARK    1  A    between atoms: C_3  and  C_8 
REMARK    2  A    between atoms: C_5  and  O_7 
REMARK    3  A    between atoms: C_8  and  C_9 
REMARK    4  A    between atoms: C_9  and  C_10 
REMARK    5  A    between atoms: C_9  and  O_20 
REMARK    6  A    between atoms: C_10  and  C_11 
REMARK    7  A    between atoms: C_12  and  O_19 
REMARK    8  A    between atoms: C_14  and  O_18 
REMARK    9  A    between atoms: C_16  and  O_17 
ROOT
HETATM    1  C   UNL     1     -52.970  48.019  12.458  1.00  0.00     0.003 A 
HETATM    2  C   UNL     1     -53.339  48.345  11.167  1.00  0.00     0.007 A 
HETATM    3  C   UNL     1     -53.737  49.635  10.865  1.00  0.00    -0.053 A 
HETATM    4  C   UNL     1     -53.767  50.599  11.853  1.00  0.00     0.043 A 
HETATM    5  C   UNL     1     -53.397  50.273  13.150  1.00  0.00     0.066 A 
HETATM    6  C   UNL     1     -52.997  48.979  13.450  1.00  0.00     0.036 A 
ENDROOT
BRANCH   3   7
HETATM    7  C   UNL     1     -54.139  49.988   9.456  1.00  0.00     0.070 C 
BRANCH   7   8
HETATM    8  C   UNL     1     -53.417  49.065   8.472  1.00  0.00     0.127 C 
BRANCH   8   9
HETATM    9  C   UNL     1     -54.435  48.145   7.795  1.00  0.00     0.076 C 
BRANCH   9  10
HETATM   10  C   UNL     1     -53.716  46.986   7.155  1.00  0.00     0.011 A 
HETATM   11  C   UNL     1     -53.404  47.023   5.804  1.00  0.00     0.077 A 
HETATM   12  C   UNL     1     -52.742  45.956   5.215  1.00  0.00     0.073 A 
HETATM   13  C   UNL     1     -52.393  44.852   5.977  1.00  0.00     0.071 A 
HETATM   14  C   UNL     1     -52.703  44.815   7.328  1.00  0.00     0.073 A 
HETATM   15  C   UNL     1     -53.361  45.884   7.918  1.00  0.00     0.077 A 
BRANCH  11  16
HETATM   16  O   UNL     1     -53.748  48.106   5.058  1.00  0.00    -0.360 OA
HETATM   17  H   UNL     1     -54.296  48.001   4.306  1.00  0.00     0.217 HD
ENDBRANCH  11  16
BRANCH  13  18
HETATM   18  O   UNL     1     -51.745  43.806   5.400  1.00  0.00    -0.361 OA
HETATM   19  H   UNL     1     -50.903  43.934   5.011  1.00  0.00     0.217 HD
ENDBRANCH  13  18
BRANCH  15  20
HETATM   20  O   UNL     1     -53.666  45.847   9.242  1.00  0.00    -0.360 OA
HETATM   21  H   UNL     1     -53.308  46.488   9.823  1.00  0.00     0.217 HD
ENDBRANCH  15  20
ENDBRANCH   9  10
ENDBRANCH   8   9
BRANCH   8  22
HETATM   22  O   UNL     1     -52.753  49.852   7.482  1.00  0.00    -0.395 OA
HETATM   23  H   UNL     1     -52.700  49.350   6.652  1.00  0.00     0.210 HD
ENDBRANCH   8  22
ENDBRANCH   7   8
ENDBRANCH   3   7
BRANCH   5  24
HETATM   24  O   UNL     1     -53.425  51.220  14.124  1.00  0.00    -0.361 OA
HETATM   25  H   UNL     1     -54.121  51.848  14.148  1.00  0.00     0.217 HD
ENDBRANCH   5  24
TORSDOF 9
ENDMDL
MODEL 3
REMARK VINA RESULT:     -20.9      0.942      2.342
REMARK  9 active torsions:
REMARK  status: ('A' for Active; 'I' for Inactive)
REMARK    1  A    between atoms: C_3  and  C_8 
REMARK    2  A    between atoms: C_5  and  O_7 
REMARK    3  A    between atoms: C_8  and  C_9 
REMARK    4  A    between atoms: C_9  and  C_10 
REMARK    5  A    between atoms: C_9  and  O_20 
REMARK    6  A    between atoms: C_10  and  C_11 
REMARK    7  A    between atoms: C_12  and  O_19 
REMARK    8  A    between atoms: C_14  and  O_18 
REMARK    9  A    between atoms: C_16  and  O_17 
ROOT
HETATM    1  C   UNL     1     -52.964  48.016  12.479  1.00  0.00     0.003 A 
HETATM    2  C   UNL     1     -53.337  48.346  11.189  1.00  0.00     0.007 A 
HETATM    3  C   UNL     1     -53.739  49.635  10.891  1.00  0.00    -0.053 A 
HETATM    4  C   UNL     1     -53.771  50.595  11.883  1.00  0.00     0.043 A 
HETATM    5  C   UNL     1     -53.398  50.267  13.178  1.00  0.00     0.066 A 
HETATM    6  C   UNL     1     -52.994  48.973  13.474  1.00  0.00     0.036 A 
ENDROOT
BRANCH   3   7
HETATM    7  C   UNL     1     -54.144  49.991   9.484  1.00  0.00     0.070 C 
BRANCH   7   8
HETATM    8  C   UNL     1     -53.424  49.070   8.497  1.00  0.00     0.127 C 
BRANCH   8   9
HETATM    9  C   UNL     1     -54.443  48.150   7.822  1.00  0.00     0.076 C 
BRANCH   9  10
HETATM   10  C   UNL     1     -53.725  46.993   7.177  1.00  0.00     0.011 A 
HETATM   11  C   UNL     1     -53.379  45.882   7.933  1.00  0.00     0.077 A 
HETATM   12  C   UNL     1     -52.718  44.817   7.339  1.00  0.00     0.073 A 
HETATM   13  C   UNL     1     -52.403  44.863   5.990  1.00  0.00     0.071 A 
HETATM   14  C   UNL     1     -52.750  45.973   5.234  1.00  0.00     0.073 A 
HETATM   15  C   UNL     1     -53.415  47.035   5.826  1.00  0.00     0.077 A 
BRANCH  11  16
HETATM   16  O   UNL     1     -53.688  45.838   9.256  1.00  0.00    -0.360 OA
HETATM   17  H   UNL     1     -53.338  46.482   9.840  1.00  0.00     0.217 HD
ENDBRANCH  11  16
BRANCH  13  18
HETATM   18  O   UNL     1     -51.754  43.820   5.408  1.00  0.00    -0.361 OA
HETATM   19  H   UNL     1     -51.300  43.196   5.939  1.00  0.00     0.217 HD
ENDBRANCH  13  18
BRANCH  15  20
HETATM   20  O   UNL     1     -53.754  48.123   5.085  1.00  0.00    -0.360 OA
HETATM   21  H   UNL     1     -53.533  48.157   4.176  1.00  0.00     0.217 HD
ENDBRANCH  15  20
ENDBRANCH   9  10
ENDBRANCH   8   9
BRANCH   8  22
HETATM   22  O   UNL     1     -52.764  49.859   7.505  1.00  0.00    -0.395 OA
HETATM   23  H   UNL     1     -52.766  50.790   7.778  1.00  0.00     0.210 HD
ENDBRANCH   8  22
ENDBRANCH   7   8
ENDBRANCH   3   7
BRANCH   5  24
HETATM   24  O   UNL     1     -53.428  51.211  14.156  1.00  0.00    -0.361 OA
HETATM   25  H   UNL     1     -52.894  51.112  14.920  1.00  0.00     0.217 HD
ENDBRANCH   5  24
TORSDOF 9
ENDMDL
MODEL 4
REMARK VINA RESULT:     -20.8      1.463      2.440
REMARK  9 active torsions:
REMARK  status: ('A' for Active; 'I' for Inactive)
REMARK    1  A    between atoms: C_3  and  C_8 
REMARK    2  A    between atoms: C_5  and  O_7 
REMARK    3  A    between atoms: C_8  and  C_9 
REMARK    4  A    between atoms: C_9  and  C_10 
REMARK    5  A    between atoms: C_9  and  O_20 
REMARK    6  A    between atoms: C_10  and  C_11 
REMARK    7  A    between atoms: C_12  and  O_19 
REMARK    8  A    between atoms: C_14  and  O_18 
REMARK    9  A    between atoms: C_16  and  O_17 
ROOT
HETATM    1  C   UNL     1     -52.984  47.975  12.286  1.00  0.00     0.003 A 
HETATM    2  C   UNL     1     -53.417  48.739  11.219  1.00  0.00     0.007 A 
HETATM    3  C   UNL     1     -53.742  50.070  11.406  1.00  0.00    -0.053 A 
HETATM    4  C   UNL     1     -53.635  50.638  12.660  1.00  0.00     0.043 A 
HETATM    5  C   UNL     1     -53.201  49.872  13.733  1.00  0.00     0.066 A 
HETATM    6  C   UNL     1     -52.875  48.538  13.542  1.00  0.00     0.036 A 
ENDROOT
BRANCH   3   7
HETATM    7  C   UNL     1     -54.213  50.902  10.241  1.00  0.00     0.070 C 
BRANCH   7   8
HETATM    8  C   UNL     1     -53.714  50.279   8.935  1.00  0.00     0.127 C 
BRANCH   8   9
HETATM    9  C   UNL     1     -54.802  49.373   8.354  1.00  0.00     0.076 C 
BRANCH   9  10
HETATM   10  C   UNL     1     -54.218  48.017   8.054  1.00  0.00     0.011 A 
HETATM   11  C   UNL     1     -54.892  46.869   8.447  1.00  0.00     0.077 A 
HETATM   12  C   UNL     1     -54.355  45.621   8.172  1.00  0.00     0.073 A 
HETATM   13  C   UNL     1     -53.144  45.520   7.504  1.00  0.00     0.071 A 
HETATM   14  C   UNL     1     -52.471  46.667   7.110  1.00  0.00     0.073 A 
HETATM   15  C   UNL     1     -53.010  47.914   7.381  1.00  0.00     0.077 A 
BRANCH  11  16
HETATM   16  O   UNL     1     -56.078  46.969   9.102  1.00  0.00    -0.360 OA
HETATM   17  H   UNL     1     -56.094  47.024  10.037  1.00  0.00     0.217 HD
ENDBRANCH  11  16
BRANCH  13  18
HETATM   18  O   UNL     1     -52.616  44.296   7.235  1.00  0.00    -0.361 OA
HETATM   19  H   UNL     1     -53.082  43.697   6.686  1.00  0.00     0.217 HD
ENDBRANCH  13  18
BRANCH  15  20
HETATM   20  O   UNL     1     -52.350  49.038   6.996  1.00  0.00    -0.360 OA
HETATM   21  H   UNL     1     -52.579  49.465   6.194  1.00  0.00     0.217 HD
ENDBRANCH  15  20
ENDBRANCH   9  10
ENDBRANCH   8   9
BRANCH   8  22
HETATM   22  O   UNL     1     -53.408  51.315   8.000  1.00  0.00    -0.395 OA
HETATM   23  H   UNL     1     -53.976  51.225   7.219  1.00  0.00     0.210 HD
ENDBRANCH   8  22
ENDBRANCH   7   8
ENDBRANCH   3   7
BRANCH   5  24
HETATM   24  O   UNL     1     -53.094  50.430  14.968  1.00  0.00    -0.361 OA
HETATM   25  H   UNL     1     -52.844  49.901  15.700  1.00  0.00     0.217 HD
ENDBRANCH   5  24
TORSDOF 9
ENDMDL
MODEL 5
REMARK VINA RESULT:     -20.8      1.455      1.956
REMARK  9 active torsions:
REMARK  status: ('A' for Active; 'I' for Inactive)
REMARK    1  A    between atoms: C_3  and  C_8 
REMARK    2  A    between atoms: C_5  and  O_7 
REMARK    3  A    between atoms: C_8  and  C_9 
REMARK    4  A    between atoms: C_9  and  C_10 
REMARK    5  A    between atoms: C_9  and  O_20 
REMARK    6  A    between atoms: C_10  and  C_11 
REMARK    7  A    between atoms: C_12  and  O_19 
REMARK    8  A    between atoms: C_14  and  O_18 
REMARK    9  A    between atoms: C_16  and  O_17 
ROOT
HETATM    1  C   UNL     1     -52.983  47.982  12.280  1.00  0.00     0.003 A 
HETATM    2  C   UNL     1     -53.414  48.742  11.209  1.00  0.00     0.007 A 
HETATM    3  C   UNL     1     -53.748  50.071  11.392  1.00  0.00    -0.053 A 
HETATM    4  C   UNL     1     -53.651  50.642  12.645  1.00  0.00     0.043 A 
HETATM    5  C   UNL     1     -53.219  49.881  13.722  1.00  0.00     0.066 A 
HETATM    6  C   UNL     1     -52.884  48.548  13.535  1.00  0.00     0.036 A 
ENDROOT
BRANCH   3   7
HETATM    7  C   UNL     1     -54.217  50.897  10.222  1.00  0.00     0.070 C 
BRANCH   7   8
HETATM    8  C   UNL     1     -53.711  50.273   8.920  1.00  0.00     0.127 C 
BRANCH   8   9
HETATM    9  C   UNL     1     -54.796  49.366   8.334  1.00  0.00     0.076 C 
BRANCH   9  10
HETATM   10  C   UNL     1     -54.209  48.011   8.033  1.00  0.00     0.011 A 
HETATM   11  C   UNL     1     -53.000  47.912   7.359  1.00  0.00     0.077 A 
HETATM   12  C   UNL     1     -52.460  46.666   7.083  1.00  0.00     0.073 A 
HETATM   13  C   UNL     1     -53.129  45.517   7.479  1.00  0.00     0.071 A 
HETATM   14  C   UNL     1     -54.336  45.616   8.154  1.00  0.00     0.073 A 
HETATM   15  C   UNL     1     -54.874  46.863   8.435  1.00  0.00     0.077 A 
BRANCH  11  16
HETATM   16  O   UNL     1     -52.346  49.038   6.970  1.00  0.00    -0.360 OA
HETATM   17  H   UNL     1     -52.799  49.857   6.943  1.00  0.00     0.217 HD
ENDBRANCH  11  16
BRANCH  13  18
HETATM   18  O   UNL     1     -52.600  44.295   7.208  1.00  0.00    -0.361 OA
HETATM   19  H   UNL     1     -51.710  44.109   7.434  1.00  0.00     0.217 HD
ENDBRANCH  13  18
BRANCH  15  20
HETATM   20  O   UNL     1     -56.058  46.959   9.095  1.00  0.00    -0.360 OA
HETATM   21  H   UNL     1     -56.500  46.184   9.379  1.00  0.00     0.217 HD
ENDBRANCH  15  20
ENDBRANCH   9  10
ENDBRANCH   8   9
BRANCH   8  22
HETATM   22  O   UNL     1     -53.400  51.308   7.985  1.00  0.00    -0.395 OA
HETATM   23  H   UNL     1     -53.254  50.919   7.108  1.00  0.00     0.210 HD
ENDBRANCH   8  22
ENDBRANCH   7   8
ENDBRANCH   3   7
BRANCH   5  24
HETATM   24  O   UNL     1     -53.123  50.442  14.956  1.00  0.00    -0.361 OA
HETATM   25  H   UNL     1     -52.797  51.316  15.050  1.00  0.00     0.217 HD
ENDBRANCH   5  24
TORSDOF 9
ENDMDL
MODEL 6
REMARK VINA RESULT:     -20.4      1.541      2.860
REMARK  9 active torsions:
REMARK  status: ('A' for Active; 'I' for Inactive)
REMARK    1  A    between atoms: C_3  and  C_8 
REMARK    2  A    between atoms: C_5  and  O_7 
REMARK    3  A    between atoms: C_8  and  C_9 
REMARK    4  A    between atoms: C_9  and  C_10 
REMARK    5  A    between atoms: C_9  and  O_20 
REMARK    6  A    between atoms: C_10  and  C_11 
REMARK    7  A    between atoms: C_12  and  O_19 
REMARK    8  A    between atoms: C_14  and  O_18 
REMARK    9  A    between atoms: C_16  and  O_17 
ROOT
HETATM    1  C   UNL     1     -53.892  50.843  11.763  1.00  0.00     0.003 A 
HETATM    2  C   UNL     1     -53.642  49.569  11.290  1.00  0.00     0.007 A 
HETATM    3  C   UNL     1     -53.172  48.591  12.148  1.00  0.00    -0.053 A 
HETATM    4  C   UNL     1     -52.950  48.887  13.478  1.00  0.00     0.043 A 
HETATM    5  C   UNL     1     -53.200  50.165  13.955  1.00  0.00     0.066 A 
HETATM    6  C   UNL     1     -53.673  51.144  13.093  1.00  0.00     0.036 A 
ENDROOT
BRANCH   3   7
HETATM    7  C   UNL     1     -52.900  47.202  11.630  1.00  0.00     0.070 C 
BRANCH   7   8
HETATM    8  C   UNL     1     -53.276  47.127  10.148  1.00  0.00     0.127 C 
BRANCH   8   9
HETATM    9  C   UNL     1     -52.004  47.130   9.298  1.00  0.00     0.076 C 
BRANCH   9  10
HETATM   10  C   UNL     1     -52.336  46.687   7.897  1.00  0.00     0.011 A 
HETATM   11  C   UNL     1     -52.200  45.353   7.540  1.00  0.00     0.077 A 
HETATM   12  C   UNL     1     -52.506  44.945   6.250  1.00  0.00     0.073 A 
HETATM   13  C   UNL     1     -52.946  45.872   5.317  1.00  0.00     0.071 A 
HETATM   14  C   UNL     1     -53.083  47.205   5.674  1.00  0.00     0.073 A 
HETATM   15  C   UNL     1     -52.783  47.611   6.965  1.00  0.00     0.077 A 
BRANCH  11  16
HETATM   16  O   UNL     1     -51.767  44.446   8.455  1.00  0.00    -0.360 OA
HETATM   17  H   UNL     1     -52.355  43.795   8.783  1.00  0.00     0.217 HD
ENDBRANCH  11  16
BRANCH  13  18
HETATM   18  O   UNL     1     -53.245  45.473   4.052  1.00  0.00    -0.361 OA
HETATM   19  H   UNL     1     -53.964  44.891   3.903  1.00  0.00     0.217 HD
ENDBRANCH  13  18
BRANCH  15  20
HETATM   20  O   UNL     1     -52.916  48.918   7.314  1.00  0.00    -0.360 OA
HETATM   21  H   UNL     1     -53.173  49.146   8.186  1.00  0.00     0.217 HD
ENDBRANCH  15  20
ENDBRANCH   9  10
ENDBRANCH   8   9
BRANCH   8  22
HETATM   22  O   UNL     1     -54.010  45.926   9.904  1.00  0.00    -0.395 OA
HETATM   23  H   UNL     1     -53.800  45.593   9.017  1.00  0.00     0.210 HD
ENDBRANCH   8  22
ENDBRANCH   7   8
ENDBRANCH   3   7
BRANCH   5  24
HETATM   24  O   UNL     1     -52.984  50.458  15.265  1.00  0.00    -0.361 OA
HETATM   25  H   UNL     1     -52.130  50.716  15.552  1.00  0.00     0.217 HD
ENDBRANCH   5  24
TORSDOF 9
ENDMDL
MODEL 7
REMARK VINA RESULT:     -20.3      1.537      2.406
REMARK  9 active torsions:
REMARK  status: ('A' for Active; 'I' for Inactive)
REMARK    1  A    between atoms: C_3  and  C_8 
REMARK    2  A    between atoms: C_5  and  O_7 
REMARK    3  A    between atoms: C_8  and  C_9 
REMARK    4  A    between atoms: C_9  and  C_10 
REMARK    5  A    between atoms: C_9  and  O_20 
REMARK    6  A    between atoms: C_10  and  C_11 
REMARK    7  A    between atoms: C_12  and  O_19 
REMARK    8  A    between atoms: C_14  and  O_18 
REMARK    9  A    between atoms: C_16  and  O_17 
ROOT
HETATM    1  C   UNL     1     -53.849  51.016  11.704  1.00  0.00     0.003 A 
HETATM    2  C   UNL     1     -53.660  49.736  11.220  1.00  0.00     0.007 A 
HETATM    3  C   UNL     1     -53.247  48.726  12.070  1.00  0.00    -0.053 A 
HETATM    4  C   UNL     1     -53.021  48.996  13.405  1.00  0.00     0.043 A 
HETATM    5  C   UNL     1     -53.208  50.280  13.893  1.00  0.00     0.066 A 
HETATM    6  C   UNL     1     -53.624  51.291  13.039  1.00  0.00     0.036 A 
ENDROOT
BRANCH   3   7
HETATM    7  C   UNL     1     -53.043  47.330  11.538  1.00  0.00     0.070 C 
BRANCH   7   8
HETATM    8  C   UNL     1     -53.343  47.307  10.037  1.00  0.00     0.127 C 
BRANCH   8   9
HETATM    9  C   UNL     1     -52.035  47.147   9.259  1.00  0.00     0.076 C 
BRANCH   9  10
HETATM   10  C   UNL     1     -52.340  46.699   7.853  1.00  0.00     0.011 A 
HETATM   11  C   UNL     1     -52.692  47.631   6.888  1.00  0.00     0.077 A 
HETATM   12  C   UNL     1     -52.972  47.218   5.594  1.00  0.00     0.073 A 
HETATM   13  C   UNL     1     -52.900  45.872   5.266  1.00  0.00     0.071 A 
HETATM   14  C   UNL     1     -52.547  44.940   6.230  1.00  0.00     0.073 A 
HETATM   15  C   UNL     1     -52.262  45.354   7.522  1.00  0.00     0.077 A 
BRANCH  11  16
HETATM   16  O   UNL     1     -52.763  48.949   7.211  1.00  0.00    -0.360 OA
HETATM   17  H   UNL     1     -52.750  49.598   6.536  1.00  0.00     0.217 HD
ENDBRANCH  11  16
BRANCH  13  18
HETATM   18  O   UNL     1     -53.176  45.467   3.998  1.00  0.00    -0.361 OA
HETATM   19  H   UNL     1     -54.041  45.564   3.653  1.00  0.00     0.217 HD
ENDBRANCH  13  18
BRANCH  15  20
HETATM   20  O   UNL     1     -51.917  44.440   8.468  1.00  0.00    -0.360 OA
HETATM   21  H   UNL     1     -52.318  44.468   9.313  1.00  0.00     0.217 HD
ENDBRANCH  15  20
ENDBRANCH   9  10
ENDBRANCH   8   9
BRANCH   8  22
HETATM   22  O   UNL     1     -54.210  46.210   9.742  1.00  0.00    -0.395 OA
HETATM   23  H   UNL     1     -55.118  46.535   9.635  1.00  0.00     0.210 HD
ENDBRANCH   8  22
ENDBRANCH   7   8
ENDBRANCH   3   7
BRANCH   5  24
HETATM   24  O   UNL     1     -52.987  50.548  15.208  1.00  0.00    -0.361 OA
HETATM   25  H   UNL     1     -53.530  51.165  15.659  1.00  0.00     0.217 HD
ENDBRANCH   5  24
TORSDOF 9
ENDMDL
MODEL 8
REMARK VINA RESULT:     -19.8      2.782      6.752
REMARK  9 active torsions:
REMARK  status: ('A' for Active; 'I' for Inactive)
REMARK    1  A    between atoms: C_3  and  C_8 
REMARK    2  A    between atoms: C_5  and  O_7 
REMARK    3  A    between atoms: C_8  and  C_9 
REMARK    4  A    between atoms: C_9  and  C_10 
REMARK    5  A    between atoms: C_9  and  O_20 
REMARK    6  A    between atoms: C_10  and  C_11 
REMARK    7  A    between atoms: C_12  and  O_19 
REMARK    8  A    between atoms: C_14  and  O_18 
REMARK    9  A    between atoms: C_16  and  O_17 
ROOT
HETATM    1  C   UNL     1     -54.329  44.010  10.056  1.00  0.00     0.003 A 
HETATM    2  C   UNL     1     -54.138  45.323   9.668  1.00  0.00     0.007 A 
HETATM    3  C   UNL     1     -55.113  45.980   8.940  1.00  0.00    -0.053 A 
HETATM    4  C   UNL     1     -56.279  45.324   8.597  1.00  0.00     0.043 A 
HETATM    5  C   UNL     1     -56.472  44.006   8.984  1.00  0.00     0.066 A 
HETATM    6  C   UNL     1     -55.493  43.350   9.716  1.00  0.00     0.036 A 
ENDROOT
BRANCH   3   7
HETATM    7  C   UNL     1     -54.903  47.411   8.519  1.00  0.00     0.070 C 
BRANCH   7   8
HETATM    8  C   UNL     1     -54.856  48.306   9.760  1.00  0.00     0.127 C 
BRANCH   8   9
HETATM    9  C   UNL     1     -53.399  48.614  10.112  1.00  0.00     0.076 C 
BRANCH   9  10
HETATM   10  C   UNL     1     -53.315  49.071  11.545  1.00  0.00     0.011 A 
HETATM   11  C   UNL     1     -52.956  48.173  12.540  1.00  0.00     0.077 A 
HETATM   12  C   UNL     1     -52.879  48.593  13.859  1.00  0.00     0.073 A 
HETATM   13  C   UNL     1     -53.160  49.912  14.184  1.00  0.00     0.071 A 
HETATM   14  C   UNL     1     -53.517  50.810  13.189  1.00  0.00     0.073 A 
HETATM   15  C   UNL     1     -53.590  50.390  11.870  1.00  0.00     0.077 A 
BRANCH  11  16
HETATM   16  O   UNL     1     -52.682  46.880  12.221  1.00  0.00    -0.360 OA
HETATM   17  H   UNL     1     -53.028  46.185  12.745  1.00  0.00     0.217 HD
ENDBRANCH  11  16
BRANCH  13  18
HETATM   18  O   UNL     1     -53.085  50.324  15.477  1.00  0.00    -0.361 OA
HETATM   19  H   UNL     1     -52.597  49.823  16.100  1.00  0.00     0.217 HD
ENDBRANCH  13  18
BRANCH  15  20
HETATM   20  O   UNL     1     -53.941  51.271  10.895  1.00  0.00    -0.360 OA
HETATM   21  H   UNL     1     -53.583  51.183  10.034  1.00  0.00     0.217 HD
ENDBRANCH  15  20
ENDBRANCH   9  10
ENDBRANCH   8   9
BRANCH   8  22
HETATM   22  O   UNL     1     -55.549  49.526   9.493  1.00  0.00    -0.395 OA
HETATM   23  H   UNL     1     -56.419  49.505   9.922  1.00  0.00     0.210 HD
ENDBRANCH   8  22
ENDBRANCH   7   8
ENDBRANCH   3   7
BRANCH   5  24
HETATM   24  O   UNL     1     -57.620  43.359   8.648  1.00  0.00    -0.361 OA
HETATM   25  H   UNL     1     -58.430  43.601   9.052  1.00  0.00     0.217 HD
ENDBRANCH   5  24
TORSDOF 9
ENDMDL
MODEL 9
REMARK VINA RESULT:     -19.7      2.775      6.596
REMARK  9 active torsions:
REMARK  status: ('A' for Active; 'I' for Inactive)
REMARK    1  A    between atoms: C_3  and  C_8 
REMARK    2  A    between atoms: C_5  and  O_7 
REMARK    3  A    between atoms: C_8  and  C_9 
REMARK    4  A    between atoms: C_9  and  C_10 
REMARK    5  A    between atoms: C_9  and  O_20 
REMARK    6  A    between atoms: C_10  and  C_11 
REMARK    7  A    between atoms: C_12  and  O_19 
REMARK    8  A    between atoms: C_14  and  O_18 
REMARK    9  A    between atoms: C_16  and  O_17 
ROOT
HETATM    1  C   UNL     1     -54.330  44.008  10.028  1.00  0.00     0.003 A 
HETATM    2  C   UNL     1     -54.135  45.323   9.649  1.00  0.00     0.007 A 
HETATM    3  C   UNL     1     -55.106  45.987   8.923  1.00  0.00    -0.053 A 
HETATM    4  C   UNL     1     -56.273  45.337   8.573  1.00  0.00     0.043 A 
HETATM    5  C   UNL     1     -56.471  44.018   8.952  1.00  0.00     0.066 A 
HETATM    6  C   UNL     1     -55.496  43.354   9.681  1.00  0.00     0.036 A 
ENDROOT
BRANCH   3   7
HETATM    7  C   UNL     1     -54.890  47.421   8.512  1.00  0.00     0.070 C 
BRANCH   7   8
HETATM    8  C   UNL     1     -54.844  48.308   9.758  1.00  0.00     0.127 C 
BRANCH   8   9
HETATM    9  C   UNL     1     -53.388  48.614  10.113  1.00  0.00     0.076 C 
BRANCH   9  10
HETATM   10  C   UNL     1     -53.307  49.072  11.546  1.00  0.00     0.011 A 
HETATM   11  C   UNL     1     -53.583  50.392  11.870  1.00  0.00     0.077 A 
HETATM   12  C   UNL     1     -53.508  50.814  13.189  1.00  0.00     0.073 A 
HETATM   13  C   UNL     1     -53.156  49.915  14.185  1.00  0.00     0.071 A 
HETATM   14  C   UNL     1     -52.881  48.595  13.861  1.00  0.00     0.073 A 
HETATM   15  C   UNL     1     -52.961  48.173  12.543  1.00  0.00     0.077 A 
BRANCH  11  16
HETATM   16  O   UNL     1     -53.927  51.273  10.894  1.00  0.00    -0.360 OA
HETATM   17  H   UNL     1     -54.672  51.829  11.006  1.00  0.00     0.217 HD
ENDBRANCH  11  16
BRANCH  13  18
HETATM   18  O   UNL     1     -53.082  50.328  15.477  1.00  0.00    -0.361 OA
HETATM   19  H   UNL     1     -53.622  51.032  15.775  1.00  0.00     0.217 HD
ENDBRANCH  13  18
BRANCH  15  20
HETATM   20  O   UNL     1     -52.690  46.878  12.227  1.00  0.00    -0.360 OA
HETATM   21  H   UNL     1     -51.828  46.536  12.355  1.00  0.00     0.217 HD
ENDBRANCH  15  20
ENDBRANCH   9  10
ENDBRANCH   8   9
BRANCH   8  22
HETATM   22  O   UNL     1     -55.538  49.529   9.498  1.00  0.00    -0.395 OA
HETATM   23  H   UNL     1     -56.455  49.334   9.245  1.00  0.00     0.210 HD
ENDBRANCH   8  22
ENDBRANCH   7   8
ENDBRANCH   3   7
BRANCH   5  24
HETATM   24  O   UNL     1     -57.620  43.376   8.610  1.00  0.00    -0.361 OA
HETATM   25  H   UNL     1     -58.447  43.712   8.896  1.00  0.00     0.217 HD
ENDBRANCH   5  24
TORSDOF 9
ENDMDL
