MODEL 1
REMARK VINA RESULT:      -8.4      0.000      0.000
REMARK  9 active torsions:
REMARK  status: ('A' for Active; 'I' for Inactive)
REMARK    1  A    between atoms: C_3  and  C_8 
REMARK    2  A    between atoms: C_5  and  O_7 
REMARK    3  A    between atoms: C_8  and  C_9 
REMARK    4  A    between atoms: C_9  and  C_10 
REMARK    5  A    between atoms: C_9  and  O_20 
REMARK    6  A    between atoms: C_10  and  C_11 
REMARK    7  A    between atoms: C_12  and  O_19 
REMARK    8  A    between atoms: C_14  and  O_18 
REMARK    9  A    between atoms: C_16  and  O_17 
ROOT
HETATM    1  C   UNL     1     -55.900  48.097   8.906  1.00  0.00     0.003 A 
HETATM    2  C   UNL     1     -55.168  46.958   9.185  1.00  0.00     0.007 A 
HETATM    3  C   UNL     1     -53.974  47.053   9.877  1.00  0.00    -0.053 A 
HETATM    4  C   UNL     1     -53.511  48.286  10.290  1.00  0.00     0.043 A 
HETATM    5  C   UNL     1     -54.243  49.431  10.010  1.00  0.00     0.066 A 
HETATM    6  C   UNL     1     -55.441  49.333   9.317  1.00  0.00     0.036 A 
ENDROOT
BRANCH   3   7
HETATM    7  C   UNL     1     -53.179  45.809  10.180  1.00  0.00     0.070 C 
BRANCH   7   8
HETATM    8  C   UNL     1     -52.410  45.378   8.930  1.00  0.00     0.127 C 
BRANCH   8   9
HETATM    9  C   UNL     1     -53.027  44.096   8.368  1.00  0.00     0.076 C 
BRANCH   9  10
HETATM   10  C   UNL     1     -52.199  43.605   7.209  1.00  0.00     0.011 A 
HETATM   11  C   UNL     1     -51.060  42.848   7.441  1.00  0.00     0.077 A 
HETATM   12  C   UNL     1     -50.298  42.397   6.375  1.00  0.00     0.073 A 
HETATM   13  C   UNL     1     -50.674  42.703   5.075  1.00  0.00     0.071 A 
HETATM   14  C   UNL     1     -51.813  43.459   4.843  1.00  0.00     0.073 A 
HETATM   15  C   UNL     1     -52.578  43.906   5.909  1.00  0.00     0.077 A 
BRANCH  11  16
HETATM   16  O   UNL     1     -50.691  42.550   8.715  1.00  0.00    -0.360 OA
HETATM   17  H   UNL     1     -50.272  41.733   8.902  1.00  0.00     0.217 HD
ENDBRANCH  11  16
BRANCH  13  18
HETATM   18  O   UNL     1     -49.926  42.261   4.030  1.00  0.00    -0.361 OA
HETATM   19  H   UNL     1     -49.556  41.401   4.049  1.00  0.00     0.217 HD
ENDBRANCH  13  18
BRANCH  15  20
HETATM   20  O   UNL     1     -53.694  44.647   5.681  1.00  0.00    -0.360 OA
HETATM   21  H   UNL     1     -53.762  45.163   4.902  1.00  0.00     0.217 HD
ENDBRANCH  15  20
ENDBRANCH   9  10
ENDBRANCH   8   9
BRANCH   8  22
HETATM   22  O   UNL     1     -52.481  46.412   7.946  1.00  0.00    -0.395 OA
HETATM   23  H   UNL     1     -51.977  47.183   8.250  1.00  0.00     0.210 HD
ENDBRANCH   8  22
ENDBRANCH   7   8
ENDBRANCH   3   7
BRANCH   5  24
HETATM   24  O   UNL     1     -53.789  50.646  10.417  1.00  0.00    -0.361 OA
HETATM   25  H   UNL     1     -52.941  50.943  10.149  1.00  0.00     0.217 HD
ENDBRANCH   5  24
TORSDOF 9
ENDMDL
MODEL 2
REMARK VINA RESULT:      -8.4      0.055      1.849
REMARK  9 active torsions:
REMARK  status: ('A' for Active; 'I' for Inactive)
REMARK    1  A    between atoms: C_3  and  C_8 
REMARK    2  A    between atoms: C_5  and  O_7 
REMARK    3  A    between atoms: C_8  and  C_9 
REMARK    4  A    between atoms: C_9  and  C_10 
REMARK    5  A    between atoms: C_9  and  O_20 
REMARK    6  A    between atoms: C_10  and  C_11 
REMARK    7  A    between atoms: C_12  and  O_19 
REMARK    8  A    between atoms: C_14  and  O_18 
REMARK    9  A    between atoms: C_16  and  O_17 
ROOT
HETATM    1  C   UNL     1     -55.883  48.112   8.878  1.00  0.00     0.003 A 
HETATM    2  C   UNL     1     -55.146  46.981   9.174  1.00  0.00     0.007 A 
HETATM    3  C   UNL     1     -53.961  47.090   9.880  1.00  0.00    -0.053 A 
HETATM    4  C   UNL     1     -53.513  48.330  10.290  1.00  0.00     0.043 A 
HETATM    5  C   UNL     1     -54.250  49.466   9.993  1.00  0.00     0.066 A 
HETATM    6  C   UNL     1     -55.438  49.354   9.286  1.00  0.00     0.036 A 
ENDROOT
BRANCH   3   7
HETATM    7  C   UNL     1     -53.160  45.854  10.202  1.00  0.00     0.070 C 
BRANCH   7   8
HETATM    8  C   UNL     1     -52.392  45.405   8.957  1.00  0.00     0.127 C 
BRANCH   8   9
HETATM    9  C   UNL     1     -52.986  44.095   8.436  1.00  0.00     0.076 C 
BRANCH   9  10
HETATM   10  C   UNL     1     -52.169  43.602   7.270  1.00  0.00     0.011 A 
HETATM   11  C   UNL     1     -52.563  43.895   5.973  1.00  0.00     0.077 A 
HETATM   12  C   UNL     1     -51.811  43.441   4.900  1.00  0.00     0.073 A 
HETATM   13  C   UNL     1     -50.666  42.693   5.124  1.00  0.00     0.071 A 
HETATM   14  C   UNL     1     -50.271  42.400   6.421  1.00  0.00     0.073 A 
HETATM   15  C   UNL     1     -51.020  42.859   7.494  1.00  0.00     0.077 A 
BRANCH  11  16
HETATM   16  O   UNL     1     -53.687  44.628   5.754  1.00  0.00    -0.360 OA
HETATM   17  H   UNL     1     -53.858  44.980   4.903  1.00  0.00     0.217 HD
ENDBRANCH  11  16
BRANCH  13  18
HETATM   18  O   UNL     1     -49.929  42.247   4.073  1.00  0.00    -0.361 OA
HETATM   19  H   UNL     1     -49.884  42.752   3.285  1.00  0.00     0.217 HD
ENDBRANCH  13  18
BRANCH  15  20
HETATM   20  O   UNL     1     -50.634  42.571   8.765  1.00  0.00    -0.360 OA
HETATM   21  H   UNL     1     -50.146  41.790   8.940  1.00  0.00     0.217 HD
ENDBRANCH  15  20
ENDBRANCH   9  10
ENDBRANCH   8   9
BRANCH   8  22
HETATM   22  O   UNL     1     -52.495  46.410   7.946  1.00  0.00    -0.395 OA
HETATM   23  H   UNL     1     -53.213  46.181   7.335  1.00  0.00     0.210 HD
ENDBRANCH   8  22
ENDBRANCH   7   8
ENDBRANCH   3   7
BRANCH   5  24
HETATM   24  O   UNL     1     -53.811  50.688  10.397  1.00  0.00    -0.361 OA
HETATM   25  H   UNL     1     -54.401  51.284  10.815  1.00  0.00     0.217 HD
ENDBRANCH   5  24
TORSDOF 9
ENDMDL
MODEL 3
REMARK VINA RESULT:      -8.3      1.345      2.009
REMARK  9 active torsions:
REMARK  status: ('A' for Active; 'I' for Inactive)
REMARK    1  A    between atoms: C_3  and  C_8 
REMARK    2  A    between atoms: C_5  and  O_7 
REMARK    3  A    between atoms: C_8  and  C_9 
REMARK    4  A    between atoms: C_9  and  C_10 
REMARK    5  A    between atoms: C_9  and  O_20 
REMARK    6  A    between atoms: C_10  and  C_11 
REMARK    7  A    between atoms: C_12  and  O_19 
REMARK    8  A    between atoms: C_14  and  O_18 
REMARK    9  A    between atoms: C_16  and  O_17 
ROOT
HETATM    1  C   UNL     1     -55.645  48.424   9.233  1.00  0.00     0.003 A 
HETATM    2  C   UNL     1     -54.389  47.991   9.614  1.00  0.00     0.007 A 
HETATM    3  C   UNL     1     -54.077  46.645   9.576  1.00  0.00    -0.053 A 
HETATM    4  C   UNL     1     -55.022  45.729   9.157  1.00  0.00     0.043 A 
HETATM    5  C   UNL     1     -56.283  46.160   8.773  1.00  0.00     0.066 A 
HETATM    6  C   UNL     1     -56.593  47.512   8.812  1.00  0.00     0.036 A 
ENDROOT
BRANCH   3   7
HETATM    7  C   UNL     1     -52.707  46.177   9.992  1.00  0.00     0.070 C 
BRANCH   7   8
HETATM    8  C   UNL     1     -51.976  45.595   8.780  1.00  0.00     0.127 C 
BRANCH   8   9
HETATM    9  C   UNL     1     -52.556  44.220   8.446  1.00  0.00     0.076 C 
BRANCH   9  10
HETATM   10  C   UNL     1     -51.838  43.648   7.251  1.00  0.00     0.011 A 
HETATM   11  C   UNL     1     -50.678  42.908   7.427  1.00  0.00     0.077 A 
HETATM   12  C   UNL     1     -50.017  42.383   6.327  1.00  0.00     0.073 A 
HETATM   13  C   UNL     1     -50.516  42.597   5.051  1.00  0.00     0.071 A 
HETATM   14  C   UNL     1     -51.677  43.336   4.875  1.00  0.00     0.073 A 
HETATM   15  C   UNL     1     -52.340  43.857   5.975  1.00  0.00     0.077 A 
BRANCH  11  16
HETATM   16  O   UNL     1     -50.189  42.700   8.677  1.00  0.00    -0.360 OA
HETATM   17  H   UNL     1     -50.763  42.428   9.365  1.00  0.00     0.217 HD
ENDBRANCH  11  16
BRANCH  13  18
HETATM   18  O   UNL     1     -49.868  42.083   3.973  1.00  0.00    -0.361 OA
HETATM   19  H   UNL     1     -49.608  41.183   3.968  1.00  0.00     0.217 HD
ENDBRANCH  13  18
BRANCH  15  20
HETATM   20  O   UNL     1     -53.477  44.582   5.803  1.00  0.00    -0.360 OA
HETATM   21  H   UNL     1     -54.110  44.631   6.491  1.00  0.00     0.217 HD
ENDBRANCH  15  20
ENDBRANCH   9  10
ENDBRANCH   8   9
BRANCH   8  22
HETATM   22  O   UNL     1     -52.142  46.467   7.661  1.00  0.00    -0.395 OA
HETATM   23  H   UNL     1     -51.280  46.830   7.402  1.00  0.00     0.210 HD
ENDBRANCH   8  22
ENDBRANCH   7   8
ENDBRANCH   3   7
BRANCH   5  24
HETATM   24  O   UNL     1     -57.214  45.260   8.359  1.00  0.00    -0.361 OA
HETATM   25  H   UNL     1     -58.126  45.455   8.446  1.00  0.00     0.217 HD
ENDBRANCH   5  24
TORSDOF 9
ENDMDL
MODEL 4
REMARK VINA RESULT:      -8.1      1.379      2.319
REMARK  9 active torsions:
REMARK  status: ('A' for Active; 'I' for Inactive)
REMARK    1  A    between atoms: C_3  and  C_8 
REMARK    2  A    between atoms: C_5  and  O_7 
REMARK    3  A    between atoms: C_8  and  C_9 
REMARK    4  A    between atoms: C_9  and  C_10 
REMARK    5  A    between atoms: C_9  and  O_20 
REMARK    6  A    between atoms: C_10  and  C_11 
REMARK    7  A    between atoms: C_12  and  O_19 
REMARK    8  A    between atoms: C_14  and  O_18 
REMARK    9  A    between atoms: C_16  and  O_17 
ROOT
HETATM    1  C   UNL     1     -55.866  48.268   9.281  1.00  0.00     0.003 A 
HETATM    2  C   UNL     1     -54.902  47.362   9.677  1.00  0.00     0.007 A 
HETATM    3  C   UNL     1     -53.578  47.752   9.767  1.00  0.00    -0.053 A 
HETATM    4  C   UNL     1     -53.217  49.049   9.460  1.00  0.00     0.043 A 
HETATM    5  C   UNL     1     -54.184  49.961   9.062  1.00  0.00     0.066 A 
HETATM    6  C   UNL     1     -55.511  49.567   8.973  1.00  0.00     0.036 A 
ENDROOT
BRANCH   3   7
HETATM    7  C   UNL     1     -52.528  46.761  10.200  1.00  0.00     0.070 C 
BRANCH   7   8
HETATM    8  C   UNL     1     -52.165  45.855   9.022  1.00  0.00     0.127 C 
BRANCH   8   9
HETATM    9  C   UNL     1     -53.007  44.579   9.081  1.00  0.00     0.076 C 
BRANCH   9  10
HETATM   10  C   UNL     1     -53.096  43.973   7.704  1.00  0.00     0.011 A 
HETATM   11  C   UNL     1     -54.221  44.189   6.922  1.00  0.00     0.077 A 
HETATM   12  C   UNL     1     -54.303  43.631   5.655  1.00  0.00     0.073 A 
HETATM   13  C   UNL     1     -53.261  42.856   5.171  1.00  0.00     0.071 A 
HETATM   14  C   UNL     1     -52.136  42.640   5.952  1.00  0.00     0.073 A 
HETATM   15  C   UNL     1     -52.052  43.202   7.217  1.00  0.00     0.077 A 
BRANCH  11  16
HETATM   16  O   UNL     1     -55.243  44.949   7.398  1.00  0.00    -0.360 OA
HETATM   17  H   UNL     1     -55.851  44.585   8.011  1.00  0.00     0.217 HD
ENDBRANCH  11  16
BRANCH  13  18
HETATM   18  O   UNL     1     -53.342  42.308   3.930  1.00  0.00    -0.361 OA
HETATM   19  H   UNL     1     -53.420  42.861   3.178  1.00  0.00     0.217 HD
ENDBRANCH  13  18
BRANCH  15  20
HETATM   20  O   UNL     1     -50.949  42.989   7.983  1.00  0.00    -0.360 OA
HETATM   21  H   UNL     1     -50.908  43.339   8.851  1.00  0.00     0.217 HD
ENDBRANCH  15  20
ENDBRANCH   9  10
ENDBRANCH   8   9
BRANCH   8  22
HETATM   22  O   UNL     1     -52.425  46.541   7.796  1.00  0.00    -0.395 OA
HETATM   23  H   UNL     1     -51.754  46.296   7.139  1.00  0.00     0.210 HD
ENDBRANCH   8  22
ENDBRANCH   7   8
ENDBRANCH   3   7
BRANCH   5  24
HETATM   24  O   UNL     1     -53.831  51.239   8.760  1.00  0.00    -0.361 OA
HETATM   25  H   UNL     1     -54.364  51.748   8.181  1.00  0.00     0.217 HD
ENDBRANCH   5  24
TORSDOF 9
ENDMDL
MODEL 5
REMARK VINA RESULT:      -8.1      1.808      6.583
REMARK  9 active torsions:
REMARK  status: ('A' for Active; 'I' for Inactive)
REMARK    1  A    between atoms: C_3  and  C_8 
REMARK    2  A    between atoms: C_5  and  O_7 
REMARK    3  A    between atoms: C_8  and  C_9 
REMARK    4  A    between atoms: C_9  and  C_10 
REMARK    5  A    between atoms: C_9  and  O_20 
REMARK    6  A    between atoms: C_10  and  C_11 
REMARK    7  A    between atoms: C_12  and  O_19 
REMARK    8  A    between atoms: C_14  and  O_18 
REMARK    9  A    between atoms: C_16  and  O_17 
ROOT
HETATM    1  C   UNL     1     -50.474  41.809   7.936  1.00  0.00     0.003 A 
HETATM    2  C   UNL     1     -51.303  42.881   8.203  1.00  0.00     0.007 A 
HETATM    3  C   UNL     1     -51.694  43.727   7.181  1.00  0.00    -0.053 A 
HETATM    4  C   UNL     1     -51.256  43.501   5.891  1.00  0.00     0.043 A 
HETATM    5  C   UNL     1     -50.423  42.425   5.621  1.00  0.00     0.066 A 
HETATM    6  C   UNL     1     -50.033  41.578   6.648  1.00  0.00     0.036 A 
ENDROOT
BRANCH   3   7
HETATM    7  C   UNL     1     -52.599  44.896   7.475  1.00  0.00     0.070 C 
BRANCH   7   8
HETATM    8  C   UNL     1     -54.058  44.433   7.443  1.00  0.00     0.127 C 
BRANCH   8   9
HETATM    9  C   UNL     1     -54.919  45.405   8.253  1.00  0.00     0.076 C 
BRANCH   9  10
HETATM   10  C   UNL     1     -54.118  45.939   9.412  1.00  0.00     0.011 A 
HETATM   11  C   UNL     1     -53.798  45.109  10.476  1.00  0.00     0.077 A 
HETATM   12  C   UNL     1     -53.061  45.600  11.542  1.00  0.00     0.073 A 
HETATM   13  C   UNL     1     -52.645  46.923  11.546  1.00  0.00     0.071 A 
HETATM   14  C   UNL     1     -52.964  47.753  10.481  1.00  0.00     0.073 A 
HETATM   15  C   UNL     1     -53.696  47.260   9.413  1.00  0.00     0.077 A 
BRANCH  11  16
HETATM   16  O   UNL     1     -54.207  43.813  10.472  1.00  0.00    -0.360 OA
HETATM   17  H   UNL     1     -53.792  43.189  11.034  1.00  0.00     0.217 HD
ENDBRANCH  11  16
BRANCH  13  18
HETATM   18  O   UNL     1     -51.923  47.406  12.591  1.00  0.00    -0.361 OA
HETATM   19  H   UNL     1     -51.050  47.101  12.738  1.00  0.00     0.217 HD
ENDBRANCH  13  18
BRANCH  15  20
HETATM   20  O   UNL     1     -54.010  48.074   8.370  1.00  0.00    -0.360 OA
HETATM   21  H   UNL     1     -54.892  48.364   8.251  1.00  0.00     0.217 HD
ENDBRANCH  15  20
ENDBRANCH   9  10
ENDBRANCH   8   9
BRANCH   8  22
HETATM   22  O   UNL     1     -54.517  44.403   6.090  1.00  0.00    -0.395 OA
HETATM   23  H   UNL     1     -55.149  43.674   5.980  1.00  0.00     0.210 HD
ENDBRANCH   8  22
ENDBRANCH   7   8
ENDBRANCH   3   7
BRANCH   5  24
HETATM   24  O   UNL     1     -49.991  42.201   4.352  1.00  0.00    -0.361 OA
HETATM   25  H   UNL     1     -50.596  41.923   3.693  1.00  0.00     0.217 HD
ENDBRANCH   5  24
TORSDOF 9
ENDMDL
MODEL 6
REMARK VINA RESULT:      -8.1      1.813      6.750
REMARK  9 active torsions:
REMARK  status: ('A' for Active; 'I' for Inactive)
REMARK    1  A    between atoms: C_3  and  C_8 
REMARK    2  A    between atoms: C_5  and  O_7 
REMARK    3  A    between atoms: C_8  and  C_9 
REMARK    4  A    between atoms: C_9  and  C_10 
REMARK    5  A    between atoms: C_9  and  O_20 
REMARK    6  A    between atoms: C_10  and  C_11 
REMARK    7  A    between atoms: C_12  and  O_19 
REMARK    8  A    between atoms: C_14  and  O_18 
REMARK    9  A    between atoms: C_16  and  O_17 
ROOT
HETATM    1  C   UNL     1     -50.526  41.741   7.932  1.00  0.00     0.003 A 
HETATM    2  C   UNL     1     -51.345  42.820   8.204  1.00  0.00     0.007 A 
HETATM    3  C   UNL     1     -51.702  43.693   7.193  1.00  0.00    -0.053 A 
HETATM    4  C   UNL     1     -51.239  43.488   5.908  1.00  0.00     0.043 A 
HETATM    5  C   UNL     1     -50.416  42.406   5.633  1.00  0.00     0.066 A 
HETATM    6  C   UNL     1     -50.061  41.531   6.649  1.00  0.00     0.036 A 
ENDROOT
BRANCH   3   7
HETATM    7  C   UNL     1     -52.596  44.868   7.493  1.00  0.00     0.070 C 
BRANCH   7   8
HETATM    8  C   UNL     1     -54.059  44.424   7.436  1.00  0.00     0.127 C 
BRANCH   8   9
HETATM    9  C   UNL     1     -54.919  45.397   8.246  1.00  0.00     0.076 C 
BRANCH   9  10
HETATM   10  C   UNL     1     -54.116  45.932   9.404  1.00  0.00     0.011 A 
HETATM   11  C   UNL     1     -53.691  47.252   9.402  1.00  0.00     0.077 A 
HETATM   12  C   UNL     1     -52.952  47.744  10.467  1.00  0.00     0.073 A 
HETATM   13  C   UNL     1     -52.638  46.916  11.534  1.00  0.00     0.071 A 
HETATM   14  C   UNL     1     -53.065  45.597  11.537  1.00  0.00     0.073 A 
HETATM   15  C   UNL     1     -53.807  45.106  10.474  1.00  0.00     0.077 A 
BRANCH  11  16
HETATM   16  O   UNL     1     -53.998  48.063   8.355  1.00  0.00    -0.360 OA
HETATM   17  H   UNL     1     -54.808  47.951   7.898  1.00  0.00     0.217 HD
ENDBRANCH  11  16
BRANCH  13  18
HETATM   18  O   UNL     1     -51.913  47.398  12.578  1.00  0.00    -0.361 OA
HETATM   19  H   UNL     1     -51.594  46.813  13.236  1.00  0.00     0.217 HD
ENDBRANCH  13  18
BRANCH  15  20
HETATM   20  O   UNL     1     -54.224  43.812  10.477  1.00  0.00    -0.360 OA
HETATM   21  H   UNL     1     -55.022  43.577  10.045  1.00  0.00     0.217 HD
ENDBRANCH  15  20
ENDBRANCH   9  10
ENDBRANCH   8   9
BRANCH   8  22
HETATM   22  O   UNL     1     -54.502  44.416   6.077  1.00  0.00    -0.395 OA
HETATM   23  H   UNL     1     -53.805  44.044   5.513  1.00  0.00     0.210 HD
ENDBRANCH   8  22
ENDBRANCH   7   8
ENDBRANCH   3   7
BRANCH   5  24
HETATM   24  O   UNL     1     -49.960  42.202   4.368  1.00  0.00    -0.361 OA
HETATM   25  H   UNL     1     -50.397  42.602   3.642  1.00  0.00     0.217 HD
ENDBRANCH   5  24
TORSDOF 9
ENDMDL
MODEL 7
REMARK VINA RESULT:      -8.1      1.543      1.830
REMARK  9 active torsions:
REMARK  status: ('A' for Active; 'I' for Inactive)
REMARK    1  A    between atoms: C_3  and  C_8 
REMARK    2  A    between atoms: C_5  and  O_7 
REMARK    3  A    between atoms: C_8  and  C_9 
REMARK    4  A    between atoms: C_9  and  C_10 
REMARK    5  A    between atoms: C_9  and  O_20 
REMARK    6  A    between atoms: C_10  and  C_11 
REMARK    7  A    between atoms: C_12  and  O_19 
REMARK    8  A    between atoms: C_14  and  O_18 
REMARK    9  A    between atoms: C_16  and  O_17 
ROOT
HETATM    1  C   UNL     1     -55.646  47.775   8.820  1.00  0.00     0.003 A 
HETATM    2  C   UNL     1     -54.963  46.672   9.296  1.00  0.00     0.007 A 
HETATM    3  C   UNL     1     -53.876  46.837  10.135  1.00  0.00    -0.053 A 
HETATM    4  C   UNL     1     -53.470  48.106  10.497  1.00  0.00     0.043 A 
HETATM    5  C   UNL     1     -54.153  49.215  10.020  1.00  0.00     0.066 A 
HETATM    6  C   UNL     1     -55.244  49.046   9.179  1.00  0.00     0.036 A 
ENDROOT
BRANCH   3   7
HETATM    7  C   UNL     1     -53.135  45.632  10.654  1.00  0.00     0.070 C 
BRANCH   7   8
HETATM    8  C   UNL     1     -53.506  44.405   9.818  1.00  0.00     0.127 C 
BRANCH   8   9
HETATM    9  C   UNL     1     -52.244  43.824   9.178  1.00  0.00     0.076 C 
BRANCH   9  10
HETATM   10  C   UNL     1     -52.533  43.451   7.747  1.00  0.00     0.011 A 
HETATM   11  C   UNL     1     -52.739  42.122   7.404  1.00  0.00     0.077 A 
HETATM   12  C   UNL     1     -53.005  41.779   6.087  1.00  0.00     0.073 A 
HETATM   13  C   UNL     1     -53.064  42.764   5.112  1.00  0.00     0.071 A 
HETATM   14  C   UNL     1     -52.860  44.092   5.455  1.00  0.00     0.073 A 
HETATM   15  C   UNL     1     -52.599  44.435   6.773  1.00  0.00     0.077 A 
BRANCH  11  16
HETATM   16  O   UNL     1     -52.679  41.158   8.359  1.00  0.00    -0.360 OA
HETATM   17  H   UNL     1     -51.995  41.173   8.998  1.00  0.00     0.217 HD
ENDBRANCH  11  16
BRANCH  13  18
HETATM   18  O   UNL     1     -53.324  42.427   3.822  1.00  0.00    -0.361 OA
HETATM   19  H   UNL     1     -54.054  41.876   3.619  1.00  0.00     0.217 HD
ENDBRANCH  13  18
BRANCH  15  20
HETATM   20  O   UNL     1     -52.397  45.737   7.108  1.00  0.00    -0.360 OA
HETATM   21  H   UNL     1     -52.035  46.332   6.482  1.00  0.00     0.217 HD
ENDBRANCH  15  20
ENDBRANCH   9  10
ENDBRANCH   8   9
BRANCH   8  22
HETATM   22  O   UNL     1     -54.110  43.421  10.659  1.00  0.00    -0.395 OA
HETATM   23  H   UNL     1     -54.499  43.854  11.436  1.00  0.00     0.210 HD
ENDBRANCH   8  22
ENDBRANCH   7   8
ENDBRANCH   3   7
BRANCH   5  24
HETATM   24  O   UNL     1     -53.755  50.465  10.376  1.00  0.00    -0.361 OA
HETATM   25  H   UNL     1     -54.287  50.980  10.951  1.00  0.00     0.217 HD
ENDBRANCH   5  24
TORSDOF 9
ENDMDL
MODEL 8
REMARK VINA RESULT:      -8.0      1.629      6.306
REMARK  9 active torsions:
REMARK  status: ('A' for Active; 'I' for Inactive)
REMARK    1  A    between atoms: C_3  and  C_8 
REMARK    2  A    between atoms: C_5  and  O_7 
REMARK    3  A    between atoms: C_8  and  C_9 
REMARK    4  A    between atoms: C_9  and  C_10 
REMARK    5  A    between atoms: C_9  and  O_20 
REMARK    6  A    between atoms: C_10  and  C_11 
REMARK    7  A    between atoms: C_12  and  O_19 
REMARK    8  A    between atoms: C_14  and  O_18 
REMARK    9  A    between atoms: C_16  and  O_17 
ROOT
HETATM    1  C   UNL     1     -50.647  42.599   6.082  1.00  0.00     0.003 A 
HETATM    2  C   UNL     1     -50.994  42.585   7.419  1.00  0.00     0.007 A 
HETATM    3  C   UNL     1     -52.070  43.332   7.864  1.00  0.00    -0.053 A 
HETATM    4  C   UNL     1     -52.799  44.094   6.972  1.00  0.00     0.043 A 
HETATM    5  C   UNL     1     -52.452  44.109   5.629  1.00  0.00     0.066 A 
HETATM    6  C   UNL     1     -51.373  43.359   5.185  1.00  0.00     0.036 A 
ENDROOT
BRANCH   3   7
HETATM    7  C   UNL     1     -52.447  43.315   9.323  1.00  0.00     0.070 C 
BRANCH   7   8
HETATM    8  C   UNL     1     -52.184  44.693   9.934  1.00  0.00     0.127 C 
BRANCH   8   9
HETATM    9  C   UNL     1     -53.430  45.163  10.689  1.00  0.00     0.076 C 
BRANCH   9  10
HETATM   10  C   UNL     1     -53.880  46.490  10.136  1.00  0.00     0.011 A 
HETATM   11  C   UNL     1     -53.277  47.662  10.567  1.00  0.00     0.077 A 
HETATM   12  C   UNL     1     -53.692  48.884  10.059  1.00  0.00     0.073 A 
HETATM   13  C   UNL     1     -54.711  48.933   9.120  1.00  0.00     0.071 A 
HETATM   14  C   UNL     1     -55.313  47.761   8.688  1.00  0.00     0.073 A 
HETATM   15  C   UNL     1     -54.895  46.540   9.192  1.00  0.00     0.077 A 
BRANCH  11  16
HETATM   16  O   UNL     1     -52.279  47.613  11.489  1.00  0.00    -0.360 OA
HETATM   17  H   UNL     1     -51.566  47.017  11.375  1.00  0.00     0.217 HD
ENDBRANCH  11  16
BRANCH  13  18
HETATM   18  O   UNL     1     -55.118  50.131   8.622  1.00  0.00    -0.361 OA
HETATM   19  H   UNL     1     -55.774  50.626   9.072  1.00  0.00     0.217 HD
ENDBRANCH  13  18
BRANCH  15  20
HETATM   20  O   UNL     1     -55.487  45.391   8.769  1.00  0.00    -0.360 OA
HETATM   21  H   UNL     1     -54.966  44.631   8.600  1.00  0.00     0.217 HD
ENDBRANCH  15  20
ENDBRANCH   9  10
ENDBRANCH   8   9
BRANCH   8  22
HETATM   22  O   UNL     1     -51.082  44.609  10.840  1.00  0.00    -0.395 OA
HETATM   23  H   UNL     1     -51.159  43.799  11.369  1.00  0.00     0.210 HD
ENDBRANCH   8  22
ENDBRANCH   7   8
ENDBRANCH   3   7
BRANCH   5  24
HETATM   24  O   UNL     1     -53.168  44.858   4.749  1.00  0.00    -0.361 OA
HETATM   25  H   UNL     1     -53.599  44.446   4.025  1.00  0.00     0.217 HD
ENDBRANCH   5  24
TORSDOF 9
ENDMDL
MODEL 9
REMARK VINA RESULT:      -8.0      1.636      6.459
REMARK  9 active torsions:
REMARK  status: ('A' for Active; 'I' for Inactive)
REMARK    1  A    between atoms: C_3  and  C_8 
REMARK    2  A    between atoms: C_5  and  O_7 
REMARK    3  A    between atoms: C_8  and  C_9 
REMARK    4  A    between atoms: C_9  and  C_10 
REMARK    5  A    between atoms: C_9  and  O_20 
REMARK    6  A    between atoms: C_10  and  C_11 
REMARK    7  A    between atoms: C_12  and  O_19 
REMARK    8  A    between atoms: C_14  and  O_18 
REMARK    9  A    between atoms: C_16  and  O_17 
ROOT
HETATM    1  C   UNL     1     -50.694  42.633   6.001  1.00  0.00     0.003 A 
HETATM    2  C   UNL     1     -50.998  42.618   7.349  1.00  0.00     0.007 A 
HETATM    3  C   UNL     1     -52.070  43.350   7.827  1.00  0.00    -0.053 A 
HETATM    4  C   UNL     1     -52.839  44.097   6.958  1.00  0.00     0.043 A 
HETATM    5  C   UNL     1     -52.536  44.114   5.604  1.00  0.00     0.066 A 
HETATM    6  C   UNL     1     -51.461  43.379   5.127  1.00  0.00     0.036 A 
ENDROOT
BRANCH   3   7
HETATM    7  C   UNL     1     -52.398  43.331   9.298  1.00  0.00     0.070 C 
BRANCH   7   8
HETATM    8  C   UNL     1     -52.168  44.723   9.891  1.00  0.00     0.127 C 
BRANCH   8   9
HETATM    9  C   UNL     1     -53.421  45.169  10.646  1.00  0.00     0.076 C 
BRANCH   9  10
HETATM   10  C   UNL     1     -53.888  46.496  10.106  1.00  0.00     0.011 A 
HETATM   11  C   UNL     1     -54.914  46.544   9.174  1.00  0.00     0.077 A 
HETATM   12  C   UNL     1     -55.344  47.765   8.677  1.00  0.00     0.073 A 
HETATM   13  C   UNL     1     -54.747  48.938   9.111  1.00  0.00     0.071 A 
HETATM   14  C   UNL     1     -53.722  48.891  10.045  1.00  0.00     0.073 A 
HETATM   15  C   UNL     1     -53.296  47.670  10.545  1.00  0.00     0.077 A 
BRANCH  11  16
HETATM   16  O   UNL     1     -55.498  45.393   8.747  1.00  0.00    -0.360 OA
HETATM   17  H   UNL     1     -54.973  44.708   8.384  1.00  0.00     0.217 HD
ENDBRANCH  11  16
BRANCH  13  18
HETATM   18  O   UNL     1     -55.166  50.135   8.624  1.00  0.00    -0.361 OA
HETATM   19  H   UNL     1     -55.139  50.301   7.702  1.00  0.00     0.217 HD
ENDBRANCH  13  18
BRANCH  15  20
HETATM   20  O   UNL     1     -52.290  47.624  11.459  1.00  0.00    -0.360 OA
HETATM   21  H   UNL     1     -51.639  48.297  11.472  1.00  0.00     0.217 HD
ENDBRANCH  15  20
ENDBRANCH   9  10
ENDBRANCH   8   9
BRANCH   8  22
HETATM   22  O   UNL     1     -51.059  44.680  10.790  1.00  0.00    -0.395 OA
HETATM   23  H   UNL     1     -51.297  45.126  11.619  1.00  0.00     0.210 HD
ENDBRANCH   8  22
ENDBRANCH   7   8
ENDBRANCH   3   7
BRANCH   5  24
HETATM   24  O   UNL     1     -53.293  44.849   4.747  1.00  0.00    -0.361 OA
HETATM   25  H   UNL     1     -53.781  44.423   4.069  1.00  0.00     0.217 HD
ENDBRANCH   5  24
TORSDOF 9
ENDMDL
