MODEL 1
REMARK VINA RESULT:     -21.0      0.000      0.000
REMARK  9 active torsions:
REMARK  status: ('A' for Active; 'I' for Inactive)
REMARK    1  A    between atoms: C_3  and  C_8 
REMARK    2  A    between atoms: C_5  and  O_7 
REMARK    3  A    between atoms: C_8  and  C_9 
REMARK    4  A    between atoms: C_9  and  C_10 
REMARK    5  A    between atoms: C_9  and  O_20 
REMARK    6  A    between atoms: C_10  and  C_11 
REMARK    7  A    between atoms: C_12  and  O_19 
REMARK    8  A    between atoms: C_14  and  O_18 
REMARK    9  A    between atoms: C_16  and  O_17 
ROOT
HETATM    1  C   UNL     1     -52.967  48.016  12.467  1.00  0.00     0.003 A 
HETATM    2  C   UNL     1     -53.340  48.341  11.177  1.00  0.00     0.007 A 
HETATM    3  C   UNL     1     -53.740  49.630  10.874  1.00  0.00    -0.053 A 
HETATM    4  C   UNL     1     -53.769  50.594  11.862  1.00  0.00     0.043 A 
HETATM    5  C   UNL     1     -53.395  50.270  13.158  1.00  0.00     0.066 A 
HETATM    6  C   UNL     1     -52.993  48.977  13.458  1.00  0.00     0.036 A 
ENDROOT
BRANCH   3   7
HETATM    7  C   UNL     1     -54.145  49.981   9.466  1.00  0.00     0.070 C 
BRANCH   7   8
HETATM    8  C   UNL     1     -53.422  49.059   8.481  1.00  0.00     0.127 C 
BRANCH   8   9
HETATM    9  C   UNL     1     -54.439  48.136   7.807  1.00  0.00     0.076 C 
BRANCH   9  10
HETATM   10  C   UNL     1     -53.718  46.979   7.165  1.00  0.00     0.011 A 
HETATM   11  C   UNL     1     -53.365  45.874   7.926  1.00  0.00     0.077 A 
HETATM   12  C   UNL     1     -52.701  44.809   7.335  1.00  0.00     0.073 A 
HETATM   13  C   UNL     1     -52.390  44.849   5.985  1.00  0.00     0.071 A 
HETATM   14  C   UNL     1     -52.743  45.954   5.224  1.00  0.00     0.073 A 
HETATM   15  C   UNL     1     -53.411  47.016   5.813  1.00  0.00     0.077 A 
BRANCH  11  16
HETATM   16  O   UNL     1     -53.669  45.835   9.249  1.00  0.00    -0.360 OA
HETATM   17  H   UNL     1     -53.496  45.061   9.748  1.00  0.00     0.217 HD
ENDBRANCH  11  16
BRANCH  13  18
HETATM   18  O   UNL     1     -51.738  43.806   5.406  1.00  0.00    -0.361 OA
HETATM   19  H   UNL     1     -51.550  43.823   4.489  1.00  0.00     0.217 HD
ENDBRANCH  13  18
BRANCH  15  20
HETATM   20  O   UNL     1     -53.757  48.099   5.068  1.00  0.00    -0.360 OA
HETATM   21  H   UNL     1     -53.128  48.773   4.901  1.00  0.00     0.217 HD
ENDBRANCH  15  20
ENDBRANCH   9  10
ENDBRANCH   8   9
BRANCH   8  22
HETATM   22  O   UNL     1     -52.763  49.848   7.489  1.00  0.00    -0.395 OA
HETATM   23  H   UNL     1     -53.355  50.557   7.193  1.00  0.00     0.210 HD
ENDBRANCH   8  22
ENDBRANCH   7   8
ENDBRANCH   3   7
BRANCH   5  24
HETATM   24  O   UNL     1     -53.422  51.219  14.131  1.00  0.00    -0.361 OA
HETATM   25  H   UNL     1     -54.242  51.513  14.476  1.00  0.00     0.217 HD
ENDBRANCH   5  24
TORSDOF 9
ENDMDL
MODEL 2
REMARK VINA RESULT:     -21.0      0.021      1.848
REMARK  9 active torsions:
REMARK  status: ('A' for Active; 'I' for Inactive)
REMARK    1  A    between atoms: C_3  and  C_8 
REMARK    2  A    between atoms: C_5  and  O_7 
REMARK    3  A    between atoms: C_8  and  C_9 
REMARK    4  A    between atoms: C_9  and  C_10 
REMARK    5  A    between atoms: C_9  and  O_20 
REMARK    6  A    between atoms: C_10  and  C_11 
REMARK    7  A    between atoms: C_12  and  O_19 
REMARK    8  A    between atoms: C_14  and  O_18 
REMARK    9  A    between atoms: C_16  and  O_17 
ROOT
HETATM    1  C   UNL     1     -52.964  48.015  12.477  1.00  0.00     0.003 A 
HETATM    2  C   UNL     1     -53.336  48.345  11.187  1.00  0.00     0.007 A 
HETATM    3  C   UNL     1     -53.738  49.635  10.890  1.00  0.00    -0.053 A 
HETATM    4  C   UNL     1     -53.767  50.596  11.881  1.00  0.00     0.043 A 
HETATM    5  C   UNL     1     -53.394  50.266  13.176  1.00  0.00     0.066 A 
HETATM    6  C   UNL     1     -52.991  48.973  13.472  1.00  0.00     0.036 A 
ENDROOT
BRANCH   3   7
HETATM    7  C   UNL     1     -54.143  49.992   9.483  1.00  0.00     0.070 C 
BRANCH   7   8
HETATM    8  C   UNL     1     -53.424  49.070   8.495  1.00  0.00     0.127 C 
BRANCH   8   9
HETATM    9  C   UNL     1     -54.443  48.149   7.822  1.00  0.00     0.076 C 
BRANCH   9  10
HETATM   10  C   UNL     1     -53.725  46.995   7.172  1.00  0.00     0.011 A 
HETATM   11  C   UNL     1     -53.417  47.042   5.820  1.00  0.00     0.077 A 
HETATM   12  C   UNL     1     -52.755  45.981   5.222  1.00  0.00     0.073 A 
HETATM   13  C   UNL     1     -52.403  44.871   5.975  1.00  0.00     0.071 A 
HETATM   14  C   UNL     1     -52.710  44.824   7.327  1.00  0.00     0.073 A 
HETATM   15  C   UNL     1     -53.366  45.888   7.926  1.00  0.00     0.077 A 
BRANCH  11  16
HETATM   16  O   UNL     1     -53.763  48.130   5.082  1.00  0.00    -0.360 OA
HETATM   17  H   UNL     1     -53.180  48.456   4.426  1.00  0.00     0.217 HD
ENDBRANCH  11  16
BRANCH  13  18
HETATM   18  O   UNL     1     -51.755  43.830   5.389  1.00  0.00    -0.361 OA
HETATM   19  H   UNL     1     -51.272  43.965   4.598  1.00  0.00     0.217 HD
ENDBRANCH  13  18
BRANCH  15  20
HETATM   20  O   UNL     1     -53.668  45.841   9.250  1.00  0.00    -0.360 OA
HETATM   21  H   UNL     1     -52.981  45.848   9.887  1.00  0.00     0.217 HD
ENDBRANCH  15  20
ENDBRANCH   9  10
ENDBRANCH   8   9
BRANCH   8  22
HETATM   22  O   UNL     1     -52.766  49.859   7.502  1.00  0.00    -0.395 OA
HETATM   23  H   UNL     1     -51.923  49.442   7.264  1.00  0.00     0.210 HD
ENDBRANCH   8  22
ENDBRANCH   7   8
ENDBRANCH   3   7
BRANCH   5  24
HETATM   24  O   UNL     1     -53.422  51.211  14.153  1.00  0.00    -0.361 OA
HETATM   25  H   UNL     1     -52.633  51.656  14.398  1.00  0.00     0.217 HD
ENDBRANCH   5  24
TORSDOF 9
ENDMDL
MODEL 3
REMARK VINA RESULT:     -20.9      1.360      2.112
REMARK  9 active torsions:
REMARK  status: ('A' for Active; 'I' for Inactive)
REMARK    1  A    between atoms: C_3  and  C_8 
REMARK    2  A    between atoms: C_5  and  O_7 
REMARK    3  A    between atoms: C_8  and  C_9 
REMARK    4  A    between atoms: C_9  and  C_10 
REMARK    5  A    between atoms: C_9  and  O_20 
REMARK    6  A    between atoms: C_10  and  C_11 
REMARK    7  A    between atoms: C_12  and  O_19 
REMARK    8  A    between atoms: C_14  and  O_18 
REMARK    9  A    between atoms: C_16  and  O_17 
ROOT
HETATM    1  C   UNL     1     -52.987  47.976  12.282  1.00  0.00     0.003 A 
HETATM    2  C   UNL     1     -53.422  48.735  11.211  1.00  0.00     0.007 A 
HETATM    3  C   UNL     1     -53.749  50.066  11.392  1.00  0.00    -0.053 A 
HETATM    4  C   UNL     1     -53.642  50.640  12.643  1.00  0.00     0.043 A 
HETATM    5  C   UNL     1     -53.207  49.881  13.719  1.00  0.00     0.066 A 
HETATM    6  C   UNL     1     -52.879  48.546  13.535  1.00  0.00     0.036 A 
ENDROOT
BRANCH   3   7
HETATM    7  C   UNL     1     -54.222  50.891  10.223  1.00  0.00     0.070 C 
BRANCH   7   8
HETATM    8  C   UNL     1     -53.721  50.264   8.920  1.00  0.00     0.127 C 
BRANCH   8   9
HETATM    9  C   UNL     1     -54.806  49.353   8.342  1.00  0.00     0.076 C 
BRANCH   9  10
HETATM   10  C   UNL     1     -54.217  47.999   8.042  1.00  0.00     0.011 A 
HETATM   11  C   UNL     1     -53.005  47.902   7.373  1.00  0.00     0.077 A 
HETATM   12  C   UNL     1     -52.463  46.656   7.097  1.00  0.00     0.073 A 
HETATM   13  C   UNL     1     -53.132  45.506   7.490  1.00  0.00     0.071 A 
HETATM   14  C   UNL     1     -54.343  45.603   8.160  1.00  0.00     0.073 A 
HETATM   15  C   UNL     1     -54.882  46.849   8.440  1.00  0.00     0.077 A 
BRANCH  11  16
HETATM   16  O   UNL     1     -52.351  49.029   6.988  1.00  0.00    -0.360 OA
HETATM   17  H   UNL     1     -51.915  49.558   7.626  1.00  0.00     0.217 HD
ENDBRANCH  11  16
BRANCH  13  18
HETATM   18  O   UNL     1     -52.602  44.285   7.219  1.00  0.00    -0.361 OA
HETATM   19  H   UNL     1     -52.798  43.859   6.408  1.00  0.00     0.217 HD
ENDBRANCH  13  18
BRANCH  15  20
HETATM   20  O   UNL     1     -56.069  46.944   9.096  1.00  0.00    -0.360 OA
HETATM   21  H   UNL     1     -56.103  46.815  10.023  1.00  0.00     0.217 HD
ENDBRANCH  15  20
ENDBRANCH   9  10
ENDBRANCH   8   9
BRANCH   8  22
HETATM   22  O   UNL     1     -53.418  51.297   7.981  1.00  0.00    -0.395 OA
HETATM   23  H   UNL     1     -53.402  50.926   7.085  1.00  0.00     0.210 HD
ENDBRANCH   8  22
ENDBRANCH   7   8
ENDBRANCH   3   7
BRANCH   5  24
HETATM   24  O   UNL     1     -53.100  50.444  14.952  1.00  0.00    -0.361 OA
HETATM   25  H   UNL     1     -52.311  50.342  15.447  1.00  0.00     0.217 HD
ENDBRANCH   5  24
TORSDOF 9
ENDMDL
MODEL 4
REMARK VINA RESULT:     -20.4      1.329      2.307
REMARK  9 active torsions:
REMARK  status: ('A' for Active; 'I' for Inactive)
REMARK    1  A    between atoms: C_3  and  C_8 
REMARK    2  A    between atoms: C_5  and  O_7 
REMARK    3  A    between atoms: C_8  and  C_9 
REMARK    4  A    between atoms: C_9  and  C_10 
REMARK    5  A    between atoms: C_9  and  O_20 
REMARK    6  A    between atoms: C_10  and  C_11 
REMARK    7  A    between atoms: C_12  and  O_19 
REMARK    8  A    between atoms: C_14  and  O_18 
REMARK    9  A    between atoms: C_16  and  O_17 
ROOT
HETATM    1  C   UNL     1     -53.849  50.993  11.698  1.00  0.00     0.003 A 
HETATM    2  C   UNL     1     -53.655  49.709  11.224  1.00  0.00     0.007 A 
HETATM    3  C   UNL     1     -53.239  48.708  12.083  1.00  0.00    -0.053 A 
HETATM    4  C   UNL     1     -53.017  48.989  13.416  1.00  0.00     0.043 A 
HETATM    5  C   UNL     1     -53.210  50.277  13.894  1.00  0.00     0.066 A 
HETATM    6  C   UNL     1     -53.628  51.279  13.031  1.00  0.00     0.036 A 
ENDROOT
BRANCH   3   7
HETATM    7  C   UNL     1     -53.030  47.309  11.562  1.00  0.00     0.070 C 
BRANCH   7   8
HETATM    8  C   UNL     1     -53.351  47.267  10.067  1.00  0.00     0.127 C 
BRANCH   8   9
HETATM    9  C   UNL     1     -52.050  47.169   9.268  1.00  0.00     0.076 C 
BRANCH   9  10
HETATM   10  C   UNL     1     -52.356  46.712   7.865  1.00  0.00     0.011 A 
HETATM   11  C   UNL     1     -52.271  45.367   7.539  1.00  0.00     0.077 A 
HETATM   12  C   UNL     1     -52.553  44.947   6.248  1.00  0.00     0.073 A 
HETATM   13  C   UNL     1     -52.918  45.872   5.282  1.00  0.00     0.071 A 
HETATM   14  C   UNL     1     -53.005  47.217   5.608  1.00  0.00     0.073 A 
HETATM   15  C   UNL     1     -52.728  47.636   6.900  1.00  0.00     0.077 A 
BRANCH  11  16
HETATM   16  O   UNL     1     -51.912  44.460   8.485  1.00  0.00    -0.360 OA
HETATM   17  H   UNL     1     -52.450  43.711   8.645  1.00  0.00     0.217 HD
ENDBRANCH  11  16
BRANCH  13  18
HETATM   18  O   UNL     1     -53.193  45.461   4.016  1.00  0.00    -0.361 OA
HETATM   19  H   UNL     1     -53.950  45.789   3.571  1.00  0.00     0.217 HD
ENDBRANCH  13  18
BRANCH  15  20
HETATM   20  O   UNL     1     -52.812  48.955   7.219  1.00  0.00    -0.360 OA
HETATM   21  H   UNL     1     -52.053  49.501   7.159  1.00  0.00     0.217 HD
ENDBRANCH  15  20
ENDBRANCH   9  10
ENDBRANCH   8   9
BRANCH   8  22
HETATM   22  O   UNL     1     -54.169  46.128   9.788  1.00  0.00    -0.395 OA
HETATM   23  H   UNL     1     -53.684  45.319  10.016  1.00  0.00     0.210 HD
ENDBRANCH   8  22
ENDBRANCH   7   8
ENDBRANCH   3   7
BRANCH   5  24
HETATM   24  O   UNL     1     -52.992  50.556  15.207  1.00  0.00    -0.361 OA
HETATM   25  H   UNL     1     -52.814  51.436  15.476  1.00  0.00     0.217 HD
ENDBRANCH   5  24
TORSDOF 9
ENDMDL
MODEL 5
REMARK VINA RESULT:     -20.1      1.788      2.265
REMARK  9 active torsions:
REMARK  status: ('A' for Active; 'I' for Inactive)
REMARK    1  A    between atoms: C_3  and  C_8 
REMARK    2  A    between atoms: C_5  and  O_7 
REMARK    3  A    between atoms: C_8  and  C_9 
REMARK    4  A    between atoms: C_9  and  C_10 
REMARK    5  A    between atoms: C_9  and  O_20 
REMARK    6  A    between atoms: C_10  and  C_11 
REMARK    7  A    between atoms: C_12  and  O_19 
REMARK    8  A    between atoms: C_14  and  O_18 
REMARK    9  A    between atoms: C_16  and  O_17 
ROOT
HETATM    1  C   UNL     1     -53.580  51.214  12.959  1.00  0.00     0.003 A 
HETATM    2  C   UNL     1     -53.918  51.323  11.624  1.00  0.00     0.007 A 
HETATM    3  C   UNL     1     -53.918  50.202  10.814  1.00  0.00    -0.053 A 
HETATM    4  C   UNL     1     -53.580  48.970  11.340  1.00  0.00     0.043 A 
HETATM    5  C   UNL     1     -53.240  48.858  12.680  1.00  0.00     0.066 A 
HETATM    6  C   UNL     1     -53.241  49.985  13.490  1.00  0.00     0.036 A 
ENDROOT
BRANCH   3   7
HETATM    7  C   UNL     1     -54.288  50.324   9.359  1.00  0.00     0.070 C 
BRANCH   7   8
HETATM    8  C   UNL     1     -53.542  49.259   8.551  1.00  0.00     0.127 C 
BRANCH   8   9
HETATM    9  C   UNL     1     -54.554  48.351   7.849  1.00  0.00     0.076 C 
BRANCH   9  10
HETATM   10  C   UNL     1     -54.186  46.910   8.089  1.00  0.00     0.011 A 
HETATM   11  C   UNL     1     -55.107  46.045   8.662  1.00  0.00     0.077 A 
HETATM   12  C   UNL     1     -54.768  44.718   8.883  1.00  0.00     0.073 A 
HETATM   13  C   UNL     1     -53.509  44.257   8.531  1.00  0.00     0.071 A 
HETATM   14  C   UNL     1     -52.589  45.121   7.957  1.00  0.00     0.073 A 
HETATM   15  C   UNL     1     -52.929  46.446   7.732  1.00  0.00     0.077 A 
BRANCH  11  16
HETATM   16  O   UNL     1     -56.340  46.498   9.007  1.00  0.00    -0.360 OA
HETATM   17  H   UNL     1     -56.587  47.380   8.810  1.00  0.00     0.217 HD
ENDBRANCH  11  16
BRANCH  13  18
HETATM   18  O   UNL     1     -53.177  42.957   8.748  1.00  0.00    -0.361 OA
HETATM   19  H   UNL     1     -53.500  42.289   8.176  1.00  0.00     0.217 HD
ENDBRANCH  13  18
BRANCH  15  20
HETATM   20  O   UNL     1     -52.026  47.293   7.170  1.00  0.00    -0.360 OA
HETATM   21  H   UNL     1     -51.321  47.633   7.684  1.00  0.00     0.217 HD
ENDBRANCH  15  20
ENDBRANCH   9  10
ENDBRANCH   8   9
BRANCH   8  22
HETATM   22  O   UNL     1     -52.714  49.894   7.576  1.00  0.00    -0.395 OA
HETATM   23  H   UNL     1     -53.257  50.167   6.819  1.00  0.00     0.210 HD
ENDBRANCH   8  22
ENDBRANCH   7   8
ENDBRANCH   3   7
BRANCH   5  24
HETATM   24  O   UNL     1     -52.908  47.647  13.199  1.00  0.00    -0.361 OA
HETATM   25  H   UNL     1     -52.218  47.144  12.812  1.00  0.00     0.217 HD
ENDBRANCH   5  24
TORSDOF 9
ENDMDL
MODEL 6
REMARK VINA RESULT:     -19.9      1.929      2.727
REMARK  9 active torsions:
REMARK  status: ('A' for Active; 'I' for Inactive)
REMARK    1  A    between atoms: C_3  and  C_8 
REMARK    2  A    between atoms: C_5  and  O_7 
REMARK    3  A    between atoms: C_8  and  C_9 
REMARK    4  A    between atoms: C_9  and  C_10 
REMARK    5  A    between atoms: C_9  and  O_20 
REMARK    6  A    between atoms: C_10  and  C_11 
REMARK    7  A    between atoms: C_12  and  O_19 
REMARK    8  A    between atoms: C_14  and  O_18 
REMARK    9  A    between atoms: C_16  and  O_17 
ROOT
HETATM    1  C   UNL     1     -53.759  50.364  11.506  1.00  0.00     0.003 A 
HETATM    2  C   UNL     1     -53.947  49.031  11.192  1.00  0.00     0.007 A 
HETATM    3  C   UNL     1     -54.213  48.656   9.888  1.00  0.00    -0.053 A 
HETATM    4  C   UNL     1     -54.293  49.614   8.897  1.00  0.00     0.043 A 
HETATM    5  C   UNL     1     -54.106  50.952   9.209  1.00  0.00     0.066 A 
HETATM    6  C   UNL     1     -53.837  51.325  10.518  1.00  0.00     0.036 A 
ENDROOT
BRANCH   3   7
HETATM    7  C   UNL     1     -54.417  47.202   9.549  1.00  0.00     0.070 C 
BRANCH   7   8
HETATM    8  C   UNL     1     -54.302  47.009   8.036  1.00  0.00     0.127 C 
BRANCH   8   9
HETATM    9  C   UNL     1     -52.832  47.095   7.621  1.00  0.00     0.076 C 
BRANCH   9  10
HETATM   10  C   UNL     1     -52.482  45.908   6.761  1.00  0.00     0.011 A 
HETATM   11  C   UNL     1     -52.072  44.721   7.350  1.00  0.00     0.077 A 
HETATM   12  C   UNL     1     -51.750  43.629   6.558  1.00  0.00     0.073 A 
HETATM   13  C   UNL     1     -51.839  43.724   5.178  1.00  0.00     0.071 A 
HETATM   14  C   UNL     1     -52.250  44.910   4.589  1.00  0.00     0.073 A 
HETATM   15  C   UNL     1     -52.576  46.000   5.381  1.00  0.00     0.077 A 
BRANCH  11  16
HETATM   16  O   UNL     1     -51.984  44.629   8.703  1.00  0.00    -0.360 OA
HETATM   17  H   UNL     1     -51.789  43.806   9.105  1.00  0.00     0.217 HD
ENDBRANCH  11  16
BRANCH  13  18
HETATM   18  O   UNL     1     -51.523  42.654   4.401  1.00  0.00    -0.361 OA
HETATM   19  H   UNL     1     -51.939  42.540   3.570  1.00  0.00     0.217 HD
ENDBRANCH  13  18
BRANCH  15  20
HETATM   20  O   UNL     1     -52.979  47.163   4.803  1.00  0.00    -0.360 OA
HETATM   21  H   UNL     1     -53.439  47.803   5.310  1.00  0.00     0.217 HD
ENDBRANCH  15  20
ENDBRANCH   9  10
ENDBRANCH   8   9
BRANCH   8  22
HETATM   22  O   UNL     1     -54.824  45.728   7.678  1.00  0.00    -0.395 OA
HETATM   23  H   UNL     1     -54.897  45.175   8.472  1.00  0.00     0.210 HD
ENDBRANCH   8  22
ENDBRANCH   7   8
ENDBRANCH   3   7
BRANCH   5  24
HETATM   24  O   UNL     1     -54.183  51.896   8.234  1.00  0.00    -0.361 OA
HETATM   25  H   UNL     1     -53.932  52.780   8.417  1.00  0.00     0.217 HD
ENDBRANCH   5  24
TORSDOF 9
ENDMDL
MODEL 7
REMARK VINA RESULT:     -19.8      2.868      6.694
REMARK  9 active torsions:
REMARK  status: ('A' for Active; 'I' for Inactive)
REMARK    1  A    between atoms: C_3  and  C_8 
REMARK    2  A    between atoms: C_5  and  O_7 
REMARK    3  A    between atoms: C_8  and  C_9 
REMARK    4  A    between atoms: C_9  and  C_10 
REMARK    5  A    between atoms: C_9  and  O_20 
REMARK    6  A    between atoms: C_10  and  C_11 
REMARK    7  A    between atoms: C_12  and  O_19 
REMARK    8  A    between atoms: C_14  and  O_18 
REMARK    9  A    between atoms: C_16  and  O_17 
ROOT
HETATM    1  C   UNL     1     -54.342  44.024  10.073  1.00  0.00     0.003 A 
HETATM    2  C   UNL     1     -54.148  45.337   9.690  1.00  0.00     0.007 A 
HETATM    3  C   UNL     1     -55.109  45.991   8.941  1.00  0.00    -0.053 A 
HETATM    4  C   UNL     1     -56.266  45.332   8.574  1.00  0.00     0.043 A 
HETATM    5  C   UNL     1     -56.462  44.013   8.957  1.00  0.00     0.066 A 
HETATM    6  C   UNL     1     -55.497  43.360   9.708  1.00  0.00     0.036 A 
ENDROOT
BRANCH   3   7
HETATM    7  C   UNL     1     -54.895  47.424   8.525  1.00  0.00     0.070 C 
BRANCH   7   8
HETATM    8  C   UNL     1     -54.846  48.314   9.769  1.00  0.00     0.127 C 
BRANCH   8   9
HETATM    9  C   UNL     1     -53.388  48.613  10.125  1.00  0.00     0.076 C 
BRANCH   9  10
HETATM   10  C   UNL     1     -53.304  49.068  11.559  1.00  0.00     0.011 A 
HETATM   11  C   UNL     1     -52.948  48.169  12.553  1.00  0.00     0.077 A 
HETATM   12  C   UNL     1     -52.871  48.588  13.872  1.00  0.00     0.073 A 
HETATM   13  C   UNL     1     -53.152  49.906  14.198  1.00  0.00     0.071 A 
HETATM   14  C   UNL     1     -53.507  50.806  13.204  1.00  0.00     0.073 A 
HETATM   15  C   UNL     1     -53.579  50.388  11.885  1.00  0.00     0.077 A 
BRANCH  11  16
HETATM   16  O   UNL     1     -52.674  46.877  12.233  1.00  0.00    -0.360 OA
HETATM   17  H   UNL     1     -52.831  46.566  11.363  1.00  0.00     0.217 HD
ENDBRANCH  11  16
BRANCH  13  18
HETATM   18  O   UNL     1     -53.077  50.317  15.492  1.00  0.00    -0.361 OA
HETATM   19  H   UNL     1     -53.849  50.608  15.935  1.00  0.00     0.217 HD
ENDBRANCH  13  18
BRANCH  15  20
HETATM   20  O   UNL     1     -53.928  51.270  10.911  1.00  0.00    -0.360 OA
HETATM   21  H   UNL     1     -53.474  51.267  10.092  1.00  0.00     0.217 HD
ENDBRANCH  15  20
ENDBRANCH   9  10
ENDBRANCH   8   9
BRANCH   8  22
HETATM   22  O   UNL     1     -55.532  49.539   9.504  1.00  0.00    -0.395 OA
HETATM   23  H   UNL     1     -55.143  49.966   8.724  1.00  0.00     0.210 HD
ENDBRANCH   8  22
ENDBRANCH   7   8
ENDBRANCH   3   7
BRANCH   5  24
HETATM   24  O   UNL     1     -57.601  43.362   8.597  1.00  0.00    -0.361 OA
HETATM   25  H   UNL     1     -58.111  42.917   9.245  1.00  0.00     0.217 HD
ENDBRANCH   5  24
TORSDOF 9
ENDMDL
MODEL 8
REMARK VINA RESULT:     -19.7      1.910      2.793
REMARK  9 active torsions:
REMARK  status: ('A' for Active; 'I' for Inactive)
REMARK    1  A    between atoms: C_3  and  C_8 
REMARK    2  A    between atoms: C_5  and  O_7 
REMARK    3  A    between atoms: C_8  and  C_9 
REMARK    4  A    between atoms: C_9  and  C_10 
REMARK    5  A    between atoms: C_9  and  O_20 
REMARK    6  A    between atoms: C_10  and  C_11 
REMARK    7  A    between atoms: C_12  and  O_19 
REMARK    8  A    between atoms: C_14  and  O_18 
REMARK    9  A    between atoms: C_16  and  O_17 
ROOT
HETATM    1  C   UNL     1     -53.556  49.157  12.518  1.00  0.00     0.003 A 
HETATM    2  C   UNL     1     -53.804  48.864  11.191  1.00  0.00     0.007 A 
HETATM    3  C   UNL     1     -54.004  49.885  10.280  1.00  0.00    -0.053 A 
HETATM    4  C   UNL     1     -53.956  51.201  10.696  1.00  0.00     0.043 A 
HETATM    5  C   UNL     1     -53.707  51.498  12.028  1.00  0.00     0.066 A 
HETATM    6  C   UNL     1     -53.507  50.472  12.939  1.00  0.00     0.036 A 
ENDROOT
BRANCH   3   7
HETATM    7  C   UNL     1     -54.274  49.562   8.833  1.00  0.00     0.070 C 
BRANCH   7   8
HETATM    8  C   UNL     1     -53.255  48.531   8.341  1.00  0.00     0.127 C 
BRANCH   8   9
HETATM    9  C   UNL     1     -53.991  47.330   7.745  1.00  0.00     0.076 C 
BRANCH   9  10
HETATM   10  C   UNL     1     -53.764  46.120   8.614  1.00  0.00     0.011 A 
HETATM   11  C   UNL     1     -52.477  45.769   8.992  1.00  0.00     0.077 A 
HETATM   12  C   UNL     1     -52.268  44.655   9.792  1.00  0.00     0.073 A 
HETATM   13  C   UNL     1     -53.347  43.893  10.213  1.00  0.00     0.071 A 
HETATM   14  C   UNL     1     -54.634  44.245   9.836  1.00  0.00     0.073 A 
HETATM   15  C   UNL     1     -54.843  45.361   9.041  1.00  0.00     0.077 A 
BRANCH  11  16
HETATM   16  O   UNL     1     -51.420  46.516   8.578  1.00  0.00    -0.360 OA
HETATM   17  H   UNL     1     -50.892  46.969   9.205  1.00  0.00     0.217 HD
ENDBRANCH  11  16
BRANCH  13  18
HETATM   18  O   UNL     1     -53.142  42.801  10.996  1.00  0.00    -0.361 OA
HETATM   19  H   UNL     1     -52.928  41.978  10.604  1.00  0.00     0.217 HD
ENDBRANCH  13  18
BRANCH  15  20
HETATM   20  O   UNL     1     -56.105  45.705   8.671  1.00  0.00    -0.360 OA
HETATM   21  H   UNL     1     -56.622  46.254   9.226  1.00  0.00     0.217 HD
ENDBRANCH  15  20
ENDBRANCH   9  10
ENDBRANCH   8   9
BRANCH   8  22
HETATM   22  O   UNL     1     -52.424  49.124   7.342  1.00  0.00    -0.395 OA
HETATM   23  H   UNL     1     -51.498  49.096   7.633  1.00  0.00     0.210 HD
ENDBRANCH   8  22
ENDBRANCH   7   8
ENDBRANCH   3   7
BRANCH   5  24
HETATM   24  O   UNL     1     -53.659  52.793  12.439  1.00  0.00    -0.361 OA
HETATM   25  H   UNL     1     -54.083  53.048  13.235  1.00  0.00     0.217 HD
ENDBRANCH   5  24
TORSDOF 9
ENDMDL
MODEL 9
REMARK VINA RESULT:     -19.6      1.682      3.100
REMARK  9 active torsions:
REMARK  status: ('A' for Active; 'I' for Inactive)
REMARK    1  A    between atoms: C_3  and  C_8 
REMARK    2  A    between atoms: C_5  and  O_7 
REMARK    3  A    between atoms: C_8  and  C_9 
REMARK    4  A    between atoms: C_9  and  C_10 
REMARK    5  A    between atoms: C_9  and  O_20 
REMARK    6  A    between atoms: C_10  and  C_11 
REMARK    7  A    between atoms: C_12  and  O_19 
REMARK    8  A    between atoms: C_14  and  O_18 
REMARK    9  A    between atoms: C_16  and  O_17 
ROOT
HETATM    1  C   UNL     1     -53.649  50.955  13.003  1.00  0.00     0.003 A 
HETATM    2  C   UNL     1     -53.349  49.607  12.955  1.00  0.00     0.007 A 
HETATM    3  C   UNL     1     -53.328  48.944  11.741  1.00  0.00    -0.053 A 
HETATM    4  C   UNL     1     -53.608  49.629  10.575  1.00  0.00     0.043 A 
HETATM    5  C   UNL     1     -53.910  50.982  10.621  1.00  0.00     0.066 A 
HETATM    6  C   UNL     1     -53.929  51.644  11.840  1.00  0.00     0.036 A 
ENDROOT
BRANCH   3   7
HETATM    7  C   UNL     1     -53.001  47.474  11.691  1.00  0.00     0.070 C 
BRANCH   7   8
HETATM    8  C   UNL     1     -53.293  46.933  10.290  1.00  0.00     0.127 C 
BRANCH   8   9
HETATM    9  C   UNL     1     -52.026  47.014   9.437  1.00  0.00     0.076 C 
BRANCH   9  10
HETATM   10  C   UNL     1     -52.351  46.625   8.018  1.00  0.00     0.011 A 
HETATM   11  C   UNL     1     -52.772  47.588   7.113  1.00  0.00     0.077 A 
HETATM   12  C   UNL     1     -53.071  47.230   5.807  1.00  0.00     0.073 A 
HETATM   13  C   UNL     1     -52.948  45.908   5.406  1.00  0.00     0.071 A 
HETATM   14  C   UNL     1     -52.525  44.945   6.310  1.00  0.00     0.073 A 
HETATM   15  C   UNL     1     -52.222  45.304   7.614  1.00  0.00     0.077 A 
BRANCH  11  16
HETATM   16  O   UNL     1     -52.894  48.883   7.508  1.00  0.00    -0.360 OA
HETATM   17  H   UNL     1     -52.237  49.270   8.052  1.00  0.00     0.217 HD
ENDBRANCH  11  16
BRANCH  13  18
HETATM   18  O   UNL     1     -53.242  45.557   4.126  1.00  0.00    -0.361 OA
HETATM   19  H   UNL     1     -54.098  45.716   3.782  1.00  0.00     0.217 HD
ENDBRANCH  13  18
BRANCH  15  20
HETATM   20  O   UNL     1     -51.809  44.360   8.500  1.00  0.00    -0.360 OA
HETATM   21  H   UNL     1     -51.145  44.566   9.128  1.00  0.00     0.217 HD
ENDBRANCH  15  20
ENDBRANCH   9  10
ENDBRANCH   8   9
BRANCH   8  22
HETATM   22  O   UNL     1     -53.717  45.571  10.385  1.00  0.00    -0.395 OA
HETATM   23  H   UNL     1     -53.509  45.229  11.269  1.00  0.00     0.210 HD
ENDBRANCH   8  22
ENDBRANCH   7   8
ENDBRANCH   3   7
BRANCH   5  24
HETATM   24  O   UNL     1     -54.184  51.658   9.474  1.00  0.00    -0.361 OA
HETATM   25  H   UNL     1     -53.489  51.899   8.894  1.00  0.00     0.217 HD
ENDBRANCH   5  24
TORSDOF 9
ENDMDL
