MODEL 1
REMARK VINA RESULT:      -8.4      0.000      0.000
REMARK  9 active torsions:
REMARK  status: ('A' for Active; 'I' for Inactive)
REMARK    1  A    between atoms: C_3  and  C_8 
REMARK    2  A    between atoms: C_5  and  O_7 
REMARK    3  A    between atoms: C_8  and  C_9 
REMARK    4  A    between atoms: C_9  and  C_10 
REMARK    5  A    between atoms: C_9  and  O_20 
REMARK    6  A    between atoms: C_10  and  C_11 
REMARK    7  A    between atoms: C_12  and  O_19 
REMARK    8  A    between atoms: C_14  and  O_18 
REMARK    9  A    between atoms: C_16  and  O_17 
ROOT
HETATM    1  C   UNL     1     -55.908  48.158   8.897  1.00  0.00     0.003 A 
HETATM    2  C   UNL     1     -55.200  47.004   9.173  1.00  0.00     0.007 A 
HETATM    3  C   UNL     1     -54.007  47.072   9.869  1.00  0.00    -0.053 A 
HETATM    4  C   UNL     1     -53.520  48.294  10.288  1.00  0.00     0.043 A 
HETATM    5  C   UNL     1     -54.229  49.454  10.011  1.00  0.00     0.066 A 
HETATM    6  C   UNL     1     -55.426  49.383   9.314  1.00  0.00     0.036 A 
ENDROOT
BRANCH   3   7
HETATM    7  C   UNL     1     -53.237  45.811  10.169  1.00  0.00     0.070 C 
BRANCH   7   8
HETATM    8  C   UNL     1     -52.455  45.382   8.926  1.00  0.00     0.127 C 
BRANCH   8   9
HETATM    9  C   UNL     1     -53.077  44.112   8.344  1.00  0.00     0.076 C 
BRANCH   9  10
HETATM   10  C   UNL     1     -52.234  43.619   7.197  1.00  0.00     0.011 A 
HETATM   11  C   UNL     1     -51.090  42.875   7.446  1.00  0.00     0.077 A 
HETATM   12  C   UNL     1     -50.314  42.421   6.391  1.00  0.00     0.073 A 
HETATM   13  C   UNL     1     -50.681  42.712   5.085  1.00  0.00     0.071 A 
HETATM   14  C   UNL     1     -51.826  43.454   4.836  1.00  0.00     0.073 A 
HETATM   15  C   UNL     1     -52.604  43.903   5.891  1.00  0.00     0.077 A 
BRANCH  11  16
HETATM   16  O   UNL     1     -50.729  42.592   8.726  1.00  0.00    -0.360 OA
HETATM   17  H   UNL     1     -51.371  42.609   9.408  1.00  0.00     0.217 HD
ENDBRANCH  11  16
BRANCH  13  18
HETATM   18  O   UNL     1     -49.920  42.268   4.050  1.00  0.00    -0.361 OA
HETATM   19  H   UNL     1     -49.738  42.834   3.327  1.00  0.00     0.217 HD
ENDBRANCH  13  18
BRANCH  15  20
HETATM   20  O   UNL     1     -53.726  44.632   5.647  1.00  0.00    -0.360 OA
HETATM   21  H   UNL     1     -54.174  44.540   4.830  1.00  0.00     0.217 HD
ENDBRANCH  15  20
ENDBRANCH   9  10
ENDBRANCH   8   9
BRANCH   8  22
HETATM   22  O   UNL     1     -52.502  46.425   7.950  1.00  0.00    -0.395 OA
HETATM   23  H   UNL     1     -51.609  46.589   7.607  1.00  0.00     0.210 HD
ENDBRANCH   8  22
ENDBRANCH   7   8
ENDBRANCH   3   7
BRANCH   5  24
HETATM   24  O   UNL     1     -53.751  50.658  10.424  1.00  0.00    -0.361 OA
HETATM   25  H   UNL     1     -54.296  51.419  10.375  1.00  0.00     0.217 HD
ENDBRANCH   5  24
TORSDOF 9
ENDMDL
MODEL 2
REMARK VINA RESULT:      -8.4      0.038      1.848
REMARK  9 active torsions:
REMARK  status: ('A' for Active; 'I' for Inactive)
REMARK    1  A    between atoms: C_3  and  C_8 
REMARK    2  A    between atoms: C_5  and  O_7 
REMARK    3  A    between atoms: C_8  and  C_9 
REMARK    4  A    between atoms: C_9  and  C_10 
REMARK    5  A    between atoms: C_9  and  O_20 
REMARK    6  A    between atoms: C_10  and  C_11 
REMARK    7  A    between atoms: C_12  and  O_19 
REMARK    8  A    between atoms: C_14  and  O_18 
REMARK    9  A    between atoms: C_16  and  O_17 
ROOT
HETATM    1  C   UNL     1     -55.884  48.166   8.883  1.00  0.00     0.003 A 
HETATM    2  C   UNL     1     -55.176  47.015   9.171  1.00  0.00     0.007 A 
HETATM    3  C   UNL     1     -53.987  47.089   9.873  1.00  0.00    -0.053 A 
HETATM    4  C   UNL     1     -53.505  48.315  10.288  1.00  0.00     0.043 A 
HETATM    5  C   UNL     1     -54.213  49.472   9.999  1.00  0.00     0.066 A 
HETATM    6  C   UNL     1     -55.406  49.395   9.295  1.00  0.00     0.036 A 
ENDROOT
BRANCH   3   7
HETATM    7  C   UNL     1     -53.218  45.832  10.186  1.00  0.00     0.070 C 
BRANCH   7   8
HETATM    8  C   UNL     1     -52.436  45.390   8.947  1.00  0.00     0.127 C 
BRANCH   8   9
HETATM    9  C   UNL     1     -53.042  44.099   8.395  1.00  0.00     0.076 C 
BRANCH   9  10
HETATM   10  C   UNL     1     -52.209  43.607   7.239  1.00  0.00     0.011 A 
HETATM   11  C   UNL     1     -52.593  43.892   5.937  1.00  0.00     0.077 A 
HETATM   12  C   UNL     1     -51.826  43.440   4.874  1.00  0.00     0.073 A 
HETATM   13  C   UNL     1     -50.676  42.702   5.112  1.00  0.00     0.071 A 
HETATM   14  C   UNL     1     -50.292  42.419   6.414  1.00  0.00     0.073 A 
HETATM   15  C   UNL     1     -51.056  42.875   7.477  1.00  0.00     0.077 A 
BRANCH  11  16
HETATM   16  O   UNL     1     -53.720  44.613   5.704  1.00  0.00    -0.360 OA
HETATM   17  H   UNL     1     -54.547  44.306   6.019  1.00  0.00     0.217 HD
ENDBRANCH  11  16
BRANCH  13  18
HETATM   18  O   UNL     1     -49.925  42.258   4.070  1.00  0.00    -0.361 OA
HETATM   19  H   UNL     1     -49.057  42.586   3.946  1.00  0.00     0.217 HD
ENDBRANCH  13  18
BRANCH  15  20
HETATM   20  O   UNL     1     -50.679  42.596   8.754  1.00  0.00    -0.360 OA
HETATM   21  H   UNL     1     -49.912  42.083   8.914  1.00  0.00     0.217 HD
ENDBRANCH  15  20
ENDBRANCH   9  10
ENDBRANCH   8   9
BRANCH   8  22
HETATM   22  O   UNL     1     -52.504  46.413   7.952  1.00  0.00    -0.395 OA
HETATM   23  H   UNL     1     -52.760  47.252   8.367  1.00  0.00     0.210 HD
ENDBRANCH   8  22
ENDBRANCH   7   8
ENDBRANCH   3   7
BRANCH   5  24
HETATM   24  O   UNL     1     -53.740  50.680  10.407  1.00  0.00    -0.361 OA
HETATM   25  H   UNL     1     -52.833  50.888  10.300  1.00  0.00     0.217 HD
ENDBRANCH   5  24
TORSDOF 9
ENDMDL
MODEL 3
REMARK VINA RESULT:      -8.3      1.349      2.023
REMARK  9 active torsions:
REMARK  status: ('A' for Active; 'I' for Inactive)
REMARK    1  A    between atoms: C_3  and  C_8 
REMARK    2  A    between atoms: C_5  and  O_7 
REMARK    3  A    between atoms: C_8  and  C_9 
REMARK    4  A    between atoms: C_9  and  C_10 
REMARK    5  A    between atoms: C_9  and  O_20 
REMARK    6  A    between atoms: C_10  and  C_11 
REMARK    7  A    between atoms: C_12  and  O_19 
REMARK    8  A    between atoms: C_14  and  O_18 
REMARK    9  A    between atoms: C_16  and  O_17 
ROOT
HETATM    1  C   UNL     1     -55.666  48.424   9.234  1.00  0.00     0.003 A 
HETATM    2  C   UNL     1     -54.406  47.998   9.610  1.00  0.00     0.007 A 
HETATM    3  C   UNL     1     -54.089  46.652   9.570  1.00  0.00    -0.053 A 
HETATM    4  C   UNL     1     -55.032  45.732   9.156  1.00  0.00     0.043 A 
HETATM    5  C   UNL     1     -56.297  46.158   8.779  1.00  0.00     0.066 A 
HETATM    6  C   UNL     1     -56.612  47.508   8.818  1.00  0.00     0.036 A 
ENDROOT
BRANCH   3   7
HETATM    7  C   UNL     1     -52.715  46.190   9.980  1.00  0.00     0.070 C 
BRANCH   7   8
HETATM    8  C   UNL     1     -51.989  45.605   8.766  1.00  0.00     0.127 C 
BRANCH   8   9
HETATM    9  C   UNL     1     -52.593  44.243   8.418  1.00  0.00     0.076 C 
BRANCH   9  10
HETATM   10  C   UNL     1     -51.871  43.662   7.231  1.00  0.00     0.011 A 
HETATM   11  C   UNL     1     -50.719  42.912   7.418  1.00  0.00     0.077 A 
HETATM   12  C   UNL     1     -50.054  42.377   6.325  1.00  0.00     0.073 A 
HETATM   13  C   UNL     1     -50.540  42.593   5.044  1.00  0.00     0.071 A 
HETATM   14  C   UNL     1     -51.693  43.341   4.857  1.00  0.00     0.073 A 
HETATM   15  C   UNL     1     -52.360  43.871   5.950  1.00  0.00     0.077 A 
BRANCH  11  16
HETATM   16  O   UNL     1     -50.242  42.702   8.673  1.00  0.00    -0.360 OA
HETATM   17  H   UNL     1     -49.358  42.932   8.883  1.00  0.00     0.217 HD
ENDBRANCH  11  16
BRANCH  13  18
HETATM   18  O   UNL     1     -49.888  42.069   3.973  1.00  0.00    -0.361 OA
HETATM   19  H   UNL     1     -48.952  42.056   3.956  1.00  0.00     0.217 HD
ENDBRANCH  13  18
BRANCH  15  20
HETATM   20  O   UNL     1     -53.489  44.606   5.766  1.00  0.00    -0.360 OA
HETATM   21  H   UNL     1     -54.288  44.349   6.183  1.00  0.00     0.217 HD
ENDBRANCH  15  20
ENDBRANCH   9  10
ENDBRANCH   8   9
BRANCH   8  22
HETATM   22  O   UNL     1     -52.136  46.489   7.653  1.00  0.00    -0.395 OA
HETATM   23  H   UNL     1     -51.338  47.033   7.565  1.00  0.00     0.210 HD
ENDBRANCH   8  22
ENDBRANCH   7   8
ENDBRANCH   3   7
BRANCH   5  24
HETATM   24  O   UNL     1     -57.226  45.254   8.370  1.00  0.00    -0.361 OA
HETATM   25  H   UNL     1     -56.963  44.501   7.877  1.00  0.00     0.217 HD
ENDBRANCH   5  24
TORSDOF 9
ENDMDL
MODEL 4
REMARK VINA RESULT:      -8.1      1.812      6.585
REMARK  9 active torsions:
REMARK  status: ('A' for Active; 'I' for Inactive)
REMARK    1  A    between atoms: C_3  and  C_8 
REMARK    2  A    between atoms: C_5  and  O_7 
REMARK    3  A    between atoms: C_8  and  C_9 
REMARK    4  A    between atoms: C_9  and  C_10 
REMARK    5  A    between atoms: C_9  and  O_20 
REMARK    6  A    between atoms: C_10  and  C_11 
REMARK    7  A    between atoms: C_12  and  O_19 
REMARK    8  A    between atoms: C_14  and  O_18 
REMARK    9  A    between atoms: C_16  and  O_17 
ROOT
HETATM    1  C   UNL     1     -50.467  41.811   7.940  1.00  0.00     0.003 A 
HETATM    2  C   UNL     1     -51.298  42.882   8.206  1.00  0.00     0.007 A 
HETATM    3  C   UNL     1     -51.689  43.727   7.183  1.00  0.00    -0.053 A 
HETATM    4  C   UNL     1     -51.249  43.501   5.894  1.00  0.00     0.043 A 
HETATM    5  C   UNL     1     -50.415  42.426   5.625  1.00  0.00     0.066 A 
HETATM    6  C   UNL     1     -50.025  41.580   6.652  1.00  0.00     0.036 A 
ENDROOT
BRANCH   3   7
HETATM    7  C   UNL     1     -52.596  44.895   7.476  1.00  0.00     0.070 C 
BRANCH   7   8
HETATM    8  C   UNL     1     -54.053  44.431   7.442  1.00  0.00     0.127 C 
BRANCH   8   9
HETATM    9  C   UNL     1     -54.916  45.400   8.252  1.00  0.00     0.076 C 
BRANCH   9  10
HETATM   10  C   UNL     1     -54.116  45.936   9.411  1.00  0.00     0.011 A 
HETATM   11  C   UNL     1     -53.798  45.108  10.477  1.00  0.00     0.077 A 
HETATM   12  C   UNL     1     -53.062  45.602  11.543  1.00  0.00     0.073 A 
HETATM   13  C   UNL     1     -52.643  46.924  11.543  1.00  0.00     0.071 A 
HETATM   14  C   UNL     1     -52.959  47.751  10.476  1.00  0.00     0.073 A 
HETATM   15  C   UNL     1     -53.691  47.256   9.408  1.00  0.00     0.077 A 
BRANCH  11  16
HETATM   16  O   UNL     1     -54.210  43.813  10.477  1.00  0.00    -0.360 OA
HETATM   17  H   UNL     1     -54.004  43.256  11.202  1.00  0.00     0.217 HD
ENDBRANCH  11  16
BRANCH  13  18
HETATM   18  O   UNL     1     -51.921  47.408  12.588  1.00  0.00    -0.361 OA
HETATM   19  H   UNL     1     -52.237  47.302  13.464  1.00  0.00     0.217 HD
ENDBRANCH  13  18
BRANCH  15  20
HETATM   20  O   UNL     1     -54.002  48.068   8.363  1.00  0.00    -0.360 OA
HETATM   21  H   UNL     1     -53.676  47.874   7.507  1.00  0.00     0.217 HD
ENDBRANCH  15  20
ENDBRANCH   9  10
ENDBRANCH   8   9
BRANCH   8  22
HETATM   22  O   UNL     1     -54.512  44.402   6.089  1.00  0.00    -0.395 OA
HETATM   23  H   UNL     1     -53.753  44.310   5.492  1.00  0.00     0.210 HD
ENDBRANCH   8  22
ENDBRANCH   7   8
ENDBRANCH   3   7
BRANCH   5  24
HETATM   24  O   UNL     1     -49.981  42.202   4.356  1.00  0.00    -0.361 OA
HETATM   25  H   UNL     1     -49.073  42.297   4.147  1.00  0.00     0.217 HD
ENDBRANCH   5  24
TORSDOF 9
ENDMDL
MODEL 5
REMARK VINA RESULT:      -8.0      1.643      6.304
REMARK  9 active torsions:
REMARK  status: ('A' for Active; 'I' for Inactive)
REMARK    1  A    between atoms: C_3  and  C_8 
REMARK    2  A    between atoms: C_5  and  O_7 
REMARK    3  A    between atoms: C_8  and  C_9 
REMARK    4  A    between atoms: C_9  and  C_10 
REMARK    5  A    between atoms: C_9  and  O_20 
REMARK    6  A    between atoms: C_10  and  C_11 
REMARK    7  A    between atoms: C_12  and  O_19 
REMARK    8  A    between atoms: C_14  and  O_18 
REMARK    9  A    between atoms: C_16  and  O_17 
ROOT
HETATM    1  C   UNL     1     -50.771  42.643   6.014  1.00  0.00     0.003 A 
HETATM    2  C   UNL     1     -51.062  42.628   7.365  1.00  0.00     0.007 A 
HETATM    3  C   UNL     1     -52.163  43.314   7.845  1.00  0.00    -0.053 A 
HETATM    4  C   UNL     1     -52.973  44.016   6.975  1.00  0.00     0.043 A 
HETATM    5  C   UNL     1     -52.683  44.033   5.618  1.00  0.00     0.066 A 
HETATM    6  C   UNL     1     -51.579  43.343   5.139  1.00  0.00     0.036 A 
ENDROOT
BRANCH   3   7
HETATM    7  C   UNL     1     -52.478  43.296   9.318  1.00  0.00     0.070 C 
BRANCH   7   8
HETATM    8  C   UNL     1     -52.220  44.682   9.913  1.00  0.00     0.127 C 
BRANCH   8   9
HETATM    9  C   UNL     1     -53.465  45.152  10.669  1.00  0.00     0.076 C 
BRANCH   9  10
HETATM   10  C   UNL     1     -53.910  46.485  10.123  1.00  0.00     0.011 A 
HETATM   11  C   UNL     1     -53.297  47.651  10.555  1.00  0.00     0.077 A 
HETATM   12  C   UNL     1     -53.706  48.877  10.053  1.00  0.00     0.073 A 
HETATM   13  C   UNL     1     -54.730  48.937   9.119  1.00  0.00     0.071 A 
HETATM   14  C   UNL     1     -55.342  47.770   8.686  1.00  0.00     0.073 A 
HETATM   15  C   UNL     1     -54.929  46.544   9.185  1.00  0.00     0.077 A 
BRANCH  11  16
HETATM   16  O   UNL     1     -52.295  47.593  11.471  1.00  0.00    -0.360 OA
HETATM   17  H   UNL     1     -52.452  47.858  12.356  1.00  0.00     0.217 HD
ENDBRANCH  11  16
BRANCH  13  18
HETATM   18  O   UNL     1     -55.132  50.138   8.627  1.00  0.00    -0.361 OA
HETATM   19  H   UNL     1     -55.368  50.219   7.725  1.00  0.00     0.217 HD
ENDBRANCH  13  18
BRANCH  15  20
HETATM   20  O   UNL     1     -55.530  45.401   8.761  1.00  0.00    -0.360 OA
HETATM   21  H   UNL     1     -55.756  45.298   7.858  1.00  0.00     0.217 HD
ENDBRANCH  15  20
ENDBRANCH   9  10
ENDBRANCH   8   9
BRANCH   8  22
HETATM   22  O   UNL     1     -51.113  44.615  10.814  1.00  0.00    -0.395 OA
HETATM   23  H   UNL     1     -51.309  45.138  11.607  1.00  0.00     0.210 HD
ENDBRANCH   8  22
ENDBRANCH   7   8
ENDBRANCH   3   7
BRANCH   5  24
HETATM   24  O   UNL     1     -53.480  44.723   4.760  1.00  0.00    -0.361 OA
HETATM   25  H   UNL     1     -53.413  45.657   4.706  1.00  0.00     0.217 HD
ENDBRANCH   5  24
TORSDOF 9
ENDMDL
MODEL 6
REMARK VINA RESULT:      -8.0      1.679      6.421
REMARK  9 active torsions:
REMARK  status: ('A' for Active; 'I' for Inactive)
REMARK    1  A    between atoms: C_3  and  C_8 
REMARK    2  A    between atoms: C_5  and  O_7 
REMARK    3  A    between atoms: C_8  and  C_9 
REMARK    4  A    between atoms: C_9  and  C_10 
REMARK    5  A    between atoms: C_9  and  O_20 
REMARK    6  A    between atoms: C_10  and  C_11 
REMARK    7  A    between atoms: C_12  and  O_19 
REMARK    8  A    between atoms: C_14  and  O_18 
REMARK    9  A    between atoms: C_16  and  O_17 
ROOT
HETATM    1  C   UNL     1     -50.947  42.821   6.013  1.00  0.00     0.003 A 
HETATM    2  C   UNL     1     -51.234  42.768   7.363  1.00  0.00     0.007 A 
HETATM    3  C   UNL     1     -52.402  43.329   7.847  1.00  0.00    -0.053 A 
HETATM    4  C   UNL     1     -53.284  43.944   6.980  1.00  0.00     0.043 A 
HETATM    5  C   UNL     1     -52.997  43.999   5.624  1.00  0.00     0.066 A 
HETATM    6  C   UNL     1     -51.825  43.435   5.142  1.00  0.00     0.036 A 
ENDROOT
BRANCH   3   7
HETATM    7  C   UNL     1     -52.713  43.269   9.320  1.00  0.00     0.070 C 
BRANCH   7   8
HETATM    8  C   UNL     1     -52.276  44.575   9.988  1.00  0.00     0.127 C 
BRANCH   8   9
HETATM    9  C   UNL     1     -53.438  45.144  10.804  1.00  0.00     0.076 C 
BRANCH   9  10
HETATM   10  C   UNL     1     -53.870  46.461  10.213  1.00  0.00     0.011 A 
HETATM   11  C   UNL     1     -54.893  46.500   9.278  1.00  0.00     0.077 A 
HETATM   12  C   UNL     1     -55.290  47.712   8.734  1.00  0.00     0.073 A 
HETATM   13  C   UNL     1     -54.663  48.886   9.125  1.00  0.00     0.071 A 
HETATM   14  C   UNL     1     -53.641  48.847  10.061  1.00  0.00     0.073 A 
HETATM   15  C   UNL     1     -53.247  47.635  10.608  1.00  0.00     0.077 A 
BRANCH  11  16
HETATM   16  O   UNL     1     -55.507  45.350   8.894  1.00  0.00    -0.360 OA
HETATM   17  H   UNL     1     -55.474  44.595   9.447  1.00  0.00     0.217 HD
ENDBRANCH  11  16
BRANCH  13  18
HETATM   18  O   UNL     1     -55.051  50.074   8.592  1.00  0.00    -0.361 OA
HETATM   19  H   UNL     1     -54.943  50.233   7.675  1.00  0.00     0.217 HD
ENDBRANCH  13  18
BRANCH  15  20
HETATM   20  O   UNL     1     -52.244  47.598  11.525  1.00  0.00    -0.360 OA
HETATM   21  H   UNL     1     -51.790  46.795  11.689  1.00  0.00     0.217 HD
ENDBRANCH  15  20
ENDBRANCH   9  10
ENDBRANCH   8   9
BRANCH   8  22
HETATM   22  O   UNL     1     -51.167  44.320  10.852  1.00  0.00    -0.395 OA
HETATM   23  H   UNL     1     -50.746  45.160  11.095  1.00  0.00     0.210 HD
ENDBRANCH   8  22
ENDBRANCH   7   8
ENDBRANCH   3   7
BRANCH   5  24
HETATM   24  O   UNL     1     -53.864  44.604   4.769  1.00  0.00    -0.361 OA
HETATM   25  H   UNL     1     -54.602  44.131   4.437  1.00  0.00     0.217 HD
ENDBRANCH   5  24
TORSDOF 9
ENDMDL
MODEL 7
REMARK VINA RESULT:      -7.9      1.582      2.370
REMARK  9 active torsions:
REMARK  status: ('A' for Active; 'I' for Inactive)
REMARK    1  A    between atoms: C_3  and  C_8 
REMARK    2  A    between atoms: C_5  and  O_7 
REMARK    3  A    between atoms: C_8  and  C_9 
REMARK    4  A    between atoms: C_9  and  C_10 
REMARK    5  A    between atoms: C_9  and  O_20 
REMARK    6  A    between atoms: C_10  and  C_11 
REMARK    7  A    between atoms: C_12  and  O_19 
REMARK    8  A    between atoms: C_14  and  O_18 
REMARK    9  A    between atoms: C_16  and  O_17 
ROOT
HETATM    1  C   UNL     1     -55.448  47.312   8.885  1.00  0.00     0.003 A 
HETATM    2  C   UNL     1     -54.696  46.272   9.400  1.00  0.00     0.007 A 
HETATM    3  C   UNL     1     -53.637  46.536  10.248  1.00  0.00    -0.053 A 
HETATM    4  C   UNL     1     -53.327  47.839  10.583  1.00  0.00     0.043 A 
HETATM    5  C   UNL     1     -54.079  48.884  10.067  1.00  0.00     0.066 A 
HETATM    6  C   UNL     1     -55.142  48.617   9.217  1.00  0.00     0.036 A 
ENDROOT
BRANCH   3   7
HETATM    7  C   UNL     1     -52.820  45.400  10.808  1.00  0.00     0.070 C 
BRANCH   7   8
HETATM    8  C   UNL     1     -53.080  44.133   9.990  1.00  0.00     0.127 C 
BRANCH   8   9
HETATM    9  C   UNL     1     -51.857  43.825   9.123  1.00  0.00     0.076 C 
BRANCH   9  10
HETATM   10  C   UNL     1     -52.307  43.453   7.735  1.00  0.00     0.011 A 
HETATM   11  C   UNL     1     -52.455  44.435   6.766  1.00  0.00     0.077 A 
HETATM   12  C   UNL     1     -52.869  44.092   5.488  1.00  0.00     0.073 A 
HETATM   13  C   UNL     1     -53.137  42.767   5.178  1.00  0.00     0.071 A 
HETATM   14  C   UNL     1     -52.988  41.785   6.146  1.00  0.00     0.073 A 
HETATM   15  C   UNL     1     -52.570  42.127   7.423  1.00  0.00     0.077 A 
BRANCH  11  16
HETATM   16  O   UNL     1     -52.193  45.733   7.070  1.00  0.00    -0.360 OA
HETATM   17  H   UNL     1     -51.635  46.241   6.516  1.00  0.00     0.217 HD
ENDBRANCH  11  16
BRANCH  13  18
HETATM   18  O   UNL     1     -53.544  42.431   3.926  1.00  0.00    -0.361 OA
HETATM   19  H   UNL     1     -54.132  42.991   3.459  1.00  0.00     0.217 HD
ENDBRANCH  13  18
BRANCH  15  20
HETATM   20  O   UNL     1     -52.425  41.165   8.372  1.00  0.00    -0.360 OA
HETATM   21  H   UNL     1     -53.165  40.654   8.636  1.00  0.00     0.217 HD
ENDBRANCH  15  20
ENDBRANCH   9  10
ENDBRANCH   8   9
BRANCH   8  22
HETATM   22  O   UNL     1     -53.324  43.038  10.875  1.00  0.00    -0.395 OA
HETATM   23  H   UNL     1     -52.757  43.122  11.658  1.00  0.00     0.210 HD
ENDBRANCH   8  22
ENDBRANCH   7   8
ENDBRANCH   3   7
BRANCH   5  24
HETATM   24  O   UNL     1     -53.776  50.168  10.396  1.00  0.00    -0.361 OA
HETATM   25  H   UNL     1     -53.243  50.685   9.824  1.00  0.00     0.217 HD
ENDBRANCH   5  24
TORSDOF 9
ENDMDL
MODEL 8
REMARK VINA RESULT:      -7.8      1.570      6.747
REMARK  9 active torsions:
REMARK  status: ('A' for Active; 'I' for Inactive)
REMARK    1  A    between atoms: C_3  and  C_8 
REMARK    2  A    between atoms: C_5  and  O_7 
REMARK    3  A    between atoms: C_8  and  C_9 
REMARK    4  A    between atoms: C_9  and  C_10 
REMARK    5  A    between atoms: C_9  and  O_20 
REMARK    6  A    between atoms: C_10  and  C_11 
REMARK    7  A    between atoms: C_12  and  O_19 
REMARK    8  A    between atoms: C_14  and  O_18 
REMARK    9  A    between atoms: C_16  and  O_17 
ROOT
HETATM    1  C   UNL     1     -49.424  41.947   7.944  1.00  0.00     0.003 A 
HETATM    2  C   UNL     1     -50.345  42.880   8.383  1.00  0.00     0.007 A 
HETATM    3  C   UNL     1     -51.153  43.538   7.474  1.00  0.00    -0.053 A 
HETATM    4  C   UNL     1     -51.041  43.265   6.125  1.00  0.00     0.043 A 
HETATM    5  C   UNL     1     -50.117  42.330   5.682  1.00  0.00     0.066 A 
HETATM    6  C   UNL     1     -49.309  41.670   6.596  1.00  0.00     0.036 A 
ENDROOT
BRANCH   3   7
HETATM    7  C   UNL     1     -52.156  44.555   7.956  1.00  0.00     0.070 C 
BRANCH   7   8
HETATM    8  C   UNL     1     -53.375  43.834   8.536  1.00  0.00     0.127 C 
BRANCH   8   9
HETATM    9  C   UNL     1     -53.831  44.547   9.811  1.00  0.00     0.076 C 
BRANCH   9  10
HETATM   10  C   UNL     1     -54.126  45.991   9.499  1.00  0.00     0.011 A 
HETATM   11  C   UNL     1     -53.162  46.962   9.726  1.00  0.00     0.077 A 
HETATM   12  C   UNL     1     -53.434  48.291   9.439  1.00  0.00     0.073 A 
HETATM   13  C   UNL     1     -54.671  48.650   8.926  1.00  0.00     0.071 A 
HETATM   14  C   UNL     1     -55.636  47.679   8.698  1.00  0.00     0.073 A 
HETATM   15  C   UNL     1     -55.361  46.350   8.980  1.00  0.00     0.077 A 
BRANCH  11  16
HETATM   16  O   UNL     1     -51.950  46.610  10.230  1.00  0.00    -0.360 OA
HETATM   17  H   UNL     1     -51.573  47.102  10.932  1.00  0.00     0.217 HD
ENDBRANCH  11  16
BRANCH  13  18
HETATM   18  O   UNL     1     -54.939  49.953   8.646  1.00  0.00    -0.361 OA
HETATM   19  H   UNL     1     -54.369  50.626   8.962  1.00  0.00     0.217 HD
ENDBRANCH  13  18
BRANCH  15  20
HETATM   20  O   UNL     1     -56.307  45.399   8.758  1.00  0.00    -0.360 OA
HETATM   21  H   UNL     1     -56.869  45.126   9.455  1.00  0.00     0.217 HD
ENDBRANCH  15  20
ENDBRANCH   9  10
ENDBRANCH   8   9
BRANCH   8  22
HETATM   22  O   UNL     1     -54.435  43.846   7.578  1.00  0.00    -0.395 OA
HETATM   23  H   UNL     1     -55.012  43.080   7.725  1.00  0.00     0.210 HD
ENDBRANCH   8  22
ENDBRANCH   7   8
ENDBRANCH   3   7
BRANCH   5  24
HETATM   24  O   UNL     1     -50.006  42.059   4.355  1.00  0.00    -0.361 OA
HETATM   25  H   UNL     1     -49.361  41.449   4.053  1.00  0.00     0.217 HD
ENDBRANCH   5  24
TORSDOF 9
ENDMDL
MODEL 9
REMARK VINA RESULT:      -7.8      2.215      6.824
REMARK  9 active torsions:
REMARK  status: ('A' for Active; 'I' for Inactive)
REMARK    1  A    between atoms: C_3  and  C_8 
REMARK    2  A    between atoms: C_5  and  O_7 
REMARK    3  A    between atoms: C_8  and  C_9 
REMARK    4  A    between atoms: C_9  and  C_10 
REMARK    5  A    between atoms: C_9  and  O_20 
REMARK    6  A    between atoms: C_10  and  C_11 
REMARK    7  A    between atoms: C_12  and  O_19 
REMARK    8  A    between atoms: C_14  and  O_18 
REMARK    9  A    between atoms: C_16  and  O_17 
ROOT
HETATM    1  C   UNL     1     -49.777  41.744   6.305  1.00  0.00     0.003 A 
HETATM    2  C   UNL     1     -50.757  42.671   6.008  1.00  0.00     0.007 A 
HETATM    3  C   UNL     1     -51.999  42.586   6.612  1.00  0.00    -0.053 A 
HETATM    4  C   UNL     1     -52.261  41.573   7.513  1.00  0.00     0.043 A 
HETATM    5  C   UNL     1     -51.278  40.641   7.812  1.00  0.00     0.066 A 
HETATM    6  C   UNL     1     -50.034  40.729   7.205  1.00  0.00     0.036 A 
ENDROOT
BRANCH   3   7
HETATM    7  C   UNL     1     -53.066  43.599   6.287  1.00  0.00     0.070 C 
BRANCH   7   8
HETATM    8  C   UNL     1     -53.380  44.428   7.534  1.00  0.00     0.127 C 
BRANCH   8   9
HETATM    9  C   UNL     1     -52.235  45.408   7.798  1.00  0.00     0.076 C 
BRANCH   9  10
HETATM   10  C   UNL     1     -52.364  45.967   9.191  1.00  0.00     0.011 A 
HETATM   11  C   UNL     1     -51.947  45.218  10.281  1.00  0.00     0.077 A 
HETATM   12  C   UNL     1     -52.065  45.733  11.563  1.00  0.00     0.073 A 
HETATM   13  C   UNL     1     -52.602  46.998  11.755  1.00  0.00     0.071 A 
HETATM   14  C   UNL     1     -53.017  47.748  10.665  1.00  0.00     0.073 A 
HETATM   15  C   UNL     1     -52.894  47.234   9.383  1.00  0.00     0.077 A 
BRANCH  11  16
HETATM   16  O   UNL     1     -51.423  43.979  10.093  1.00  0.00    -0.360 OA
HETATM   17  H   UNL     1     -51.882  43.350   9.571  1.00  0.00     0.217 HD
ENDBRANCH  11  16
BRANCH  13  18
HETATM   18  O   UNL     1     -52.719  47.503  13.011  1.00  0.00    -0.361 OA
HETATM   19  H   UNL     1     -52.233  47.122  13.716  1.00  0.00     0.217 HD
ENDBRANCH  13  18
BRANCH  15  20
HETATM   20  O   UNL     1     -53.303  47.969   8.314  1.00  0.00    -0.360 OA
HETATM   21  H   UNL     1     -54.088  47.736   7.859  1.00  0.00     0.217 HD
ENDBRANCH  15  20
ENDBRANCH   9  10
ENDBRANCH   8   9
BRANCH   8  22
HETATM   22  O   UNL     1     -54.592  45.156   7.328  1.00  0.00    -0.395 OA
HETATM   23  H   UNL     1     -55.327  44.689   7.755  1.00  0.00     0.210 HD
ENDBRANCH   8  22
ENDBRANCH   7   8
ENDBRANCH   3   7
BRANCH   5  24
HETATM   24  O   UNL     1     -51.534  39.643   8.699  1.00  0.00    -0.361 OA
HETATM   25  H   UNL     1     -50.872  39.008   8.894  1.00  0.00     0.217 HD
ENDBRANCH   5  24
TORSDOF 9
ENDMDL
