MODEL 1
REMARK VINA RESULT:     -21.0      0.000      0.000
REMARK  9 active torsions:
REMARK  status: ('A' for Active; 'I' for Inactive)
REMARK    1  A    between atoms: C_3  and  C_8 
REMARK    2  A    between atoms: C_5  and  O_7 
REMARK    3  A    between atoms: C_8  and  C_9 
REMARK    4  A    between atoms: C_9  and  C_10 
REMARK    5  A    between atoms: C_9  and  O_20 
REMARK    6  A    between atoms: C_10  and  C_11 
REMARK    7  A    between atoms: C_12  and  O_19 
REMARK    8  A    between atoms: C_14  and  O_18 
REMARK    9  A    between atoms: C_16  and  O_17 
ROOT
HETATM    1  C   UNL     1     -53.609  51.296  12.874  1.00  0.00     0.003 A 
HETATM    2  C   UNL     1     -53.937  51.362  11.533  1.00  0.00     0.007 A 
HETATM    3  C   UNL     1     -53.911  50.218  10.756  1.00  0.00    -0.053 A 
HETATM    4  C   UNL     1     -53.557  49.008  11.318  1.00  0.00     0.043 A 
HETATM    5  C   UNL     1     -53.227  48.939  12.664  1.00  0.00     0.066 A 
HETATM    6  C   UNL     1     -53.254  50.088  13.442  1.00  0.00     0.036 A 
ENDROOT
BRANCH   3   7
HETATM    7  C   UNL     1     -54.270  50.293   9.294  1.00  0.00     0.070 C 
BRANCH   7   8
HETATM    8  C   UNL     1     -53.512  49.208   8.526  1.00  0.00     0.127 C 
BRANCH   8   9
HETATM    9  C   UNL     1     -54.511  48.286   7.826  1.00  0.00     0.076 C 
BRANCH   9  10
HETATM   10  C   UNL     1     -53.792  47.068   7.306  1.00  0.00     0.011 A 
HETATM   11  C   UNL     1     -53.424  46.996   5.971  1.00  0.00     0.077 A 
HETATM   12  C   UNL     1     -52.762  45.875   5.493  1.00  0.00     0.073 A 
HETATM   13  C   UNL     1     -52.469  44.826   6.350  1.00  0.00     0.071 A 
HETATM   14  C   UNL     1     -52.835  44.898   7.686  1.00  0.00     0.073 A 
HETATM   15  C   UNL     1     -53.493  46.020   8.164  1.00  0.00     0.077 A 
BRANCH  11  16
HETATM   16  O   UNL     1     -53.713  48.025   5.131  1.00  0.00    -0.360 OA
HETATM   17  H   UNL     1     -54.443  47.962   4.547  1.00  0.00     0.217 HD
ENDBRANCH  11  16
BRANCH  13  18
HETATM   18  O   UNL     1     -51.821  43.727   5.882  1.00  0.00    -0.361 OA
HETATM   19  H   UNL     1     -52.161  42.872   6.058  1.00  0.00     0.217 HD
ENDBRANCH  13  18
BRANCH  15  20
HETATM   20  O   UNL     1     -53.853  46.090   9.473  1.00  0.00    -0.360 OA
HETATM   21  H   UNL     1     -53.273  46.478  10.098  1.00  0.00     0.217 HD
ENDBRANCH  15  20
ENDBRANCH   9  10
ENDBRANCH   8   9
BRANCH   8  22
HETATM   22  O   UNL     1     -52.664  49.819   7.551  1.00  0.00    -0.395 OA
HETATM   23  H   UNL     1     -52.728  49.331   6.715  1.00  0.00     0.210 HD
ENDBRANCH   8  22
ENDBRANCH   7   8
ENDBRANCH   3   7
BRANCH   5  24
HETATM   24  O   UNL     1     -52.879  47.748  13.220  1.00  0.00    -0.361 OA
HETATM   25  H   UNL     1     -53.390  46.982  13.045  1.00  0.00     0.217 HD
ENDBRANCH   5  24
TORSDOF 9
ENDMDL
MODEL 2
REMARK VINA RESULT:     -20.9      0.947      1.446
REMARK  9 active torsions:
REMARK  status: ('A' for Active; 'I' for Inactive)
REMARK    1  A    between atoms: C_3  and  C_8 
REMARK    2  A    between atoms: C_5  and  O_7 
REMARK    3  A    between atoms: C_8  and  C_9 
REMARK    4  A    between atoms: C_9  and  C_10 
REMARK    5  A    between atoms: C_9  and  O_20 
REMARK    6  A    between atoms: C_10  and  C_11 
REMARK    7  A    between atoms: C_12  and  O_19 
REMARK    8  A    between atoms: C_14  and  O_18 
REMARK    9  A    between atoms: C_16  and  O_17 
ROOT
HETATM    1  C   UNL     1     -52.964  48.016  12.477  1.00  0.00     0.003 A 
HETATM    2  C   UNL     1     -53.339  48.347  11.189  1.00  0.00     0.007 A 
HETATM    3  C   UNL     1     -53.742  49.636  10.893  1.00  0.00    -0.053 A 
HETATM    4  C   UNL     1     -53.771  50.596  11.886  1.00  0.00     0.043 A 
HETATM    5  C   UNL     1     -53.396  50.266  13.180  1.00  0.00     0.066 A 
HETATM    6  C   UNL     1     -52.991  48.972  13.473  1.00  0.00     0.036 A 
ENDROOT
BRANCH   3   7
HETATM    7  C   UNL     1     -54.150  49.994   9.487  1.00  0.00     0.070 C 
BRANCH   7   8
HETATM    8  C   UNL     1     -53.431  49.075   8.497  1.00  0.00     0.127 C 
BRANCH   8   9
HETATM    9  C   UNL     1     -54.450  48.154   7.823  1.00  0.00     0.076 C 
BRANCH   9  10
HETATM   10  C   UNL     1     -53.732  47.000   7.173  1.00  0.00     0.011 A 
HETATM   11  C   UNL     1     -53.422  47.048   5.822  1.00  0.00     0.077 A 
HETATM   12  C   UNL     1     -52.760  45.986   5.224  1.00  0.00     0.073 A 
HETATM   13  C   UNL     1     -52.409  44.876   5.977  1.00  0.00     0.071 A 
HETATM   14  C   UNL     1     -52.718  44.829   7.328  1.00  0.00     0.073 A 
HETATM   15  C   UNL     1     -53.375  45.893   7.927  1.00  0.00     0.077 A 
BRANCH  11  16
HETATM   16  O   UNL     1     -53.767  48.136   5.084  1.00  0.00    -0.360 OA
HETATM   17  H   UNL     1     -54.669  48.371   4.991  1.00  0.00     0.217 HD
ENDBRANCH  11  16
BRANCH  13  18
HETATM   18  O   UNL     1     -51.762  43.834   5.391  1.00  0.00    -0.361 OA
HETATM   19  H   UNL     1     -51.343  43.951   4.562  1.00  0.00     0.217 HD
ENDBRANCH  13  18
BRANCH  15  20
HETATM   20  O   UNL     1     -53.678  45.846   9.251  1.00  0.00    -0.360 OA
HETATM   21  H   UNL     1     -54.281  46.463   9.616  1.00  0.00     0.217 HD
ENDBRANCH  15  20
ENDBRANCH   9  10
ENDBRANCH   8   9
BRANCH   8  22
HETATM   22  O   UNL     1     -52.774  49.866   7.506  1.00  0.00    -0.395 OA
HETATM   23  H   UNL     1     -52.929  49.480   6.629  1.00  0.00     0.210 HD
ENDBRANCH   8  22
ENDBRANCH   7   8
ENDBRANCH   3   7
BRANCH   5  24
HETATM   24  O   UNL     1     -53.423  51.210  14.158  1.00  0.00    -0.361 OA
HETATM   25  H   UNL     1     -53.168  50.986  15.032  1.00  0.00     0.217 HD
ENDBRANCH   5  24
TORSDOF 9
ENDMDL
MODEL 3
REMARK VINA RESULT:     -20.9      0.946      2.343
REMARK  9 active torsions:
REMARK  status: ('A' for Active; 'I' for Inactive)
REMARK    1  A    between atoms: C_3  and  C_8 
REMARK    2  A    between atoms: C_5  and  O_7 
REMARK    3  A    between atoms: C_8  and  C_9 
REMARK    4  A    between atoms: C_9  and  C_10 
REMARK    5  A    between atoms: C_9  and  O_20 
REMARK    6  A    between atoms: C_10  and  C_11 
REMARK    7  A    between atoms: C_12  and  O_19 
REMARK    8  A    between atoms: C_14  and  O_18 
REMARK    9  A    between atoms: C_16  and  O_17 
ROOT
HETATM    1  C   UNL     1     -52.964  48.016  12.478  1.00  0.00     0.003 A 
HETATM    2  C   UNL     1     -53.337  48.346  11.189  1.00  0.00     0.007 A 
HETATM    3  C   UNL     1     -53.739  49.635  10.891  1.00  0.00    -0.053 A 
HETATM    4  C   UNL     1     -53.771  50.595  11.883  1.00  0.00     0.043 A 
HETATM    5  C   UNL     1     -53.398  50.267  13.178  1.00  0.00     0.066 A 
HETATM    6  C   UNL     1     -52.994  48.973  13.474  1.00  0.00     0.036 A 
ENDROOT
BRANCH   3   7
HETATM    7  C   UNL     1     -54.144  49.991   9.484  1.00  0.00     0.070 C 
BRANCH   7   8
HETATM    8  C   UNL     1     -53.424  49.070   8.497  1.00  0.00     0.127 C 
BRANCH   8   9
HETATM    9  C   UNL     1     -54.443  48.150   7.822  1.00  0.00     0.076 C 
BRANCH   9  10
HETATM   10  C   UNL     1     -53.725  46.993   7.177  1.00  0.00     0.011 A 
HETATM   11  C   UNL     1     -53.378  45.883   7.933  1.00  0.00     0.077 A 
HETATM   12  C   UNL     1     -52.717  44.818   7.339  1.00  0.00     0.073 A 
HETATM   13  C   UNL     1     -52.402  44.864   5.989  1.00  0.00     0.071 A 
HETATM   14  C   UNL     1     -52.750  45.973   5.233  1.00  0.00     0.073 A 
HETATM   15  C   UNL     1     -53.415  47.035   5.826  1.00  0.00     0.077 A 
BRANCH  11  16
HETATM   16  O   UNL     1     -53.686  45.839   9.256  1.00  0.00    -0.360 OA
HETATM   17  H   UNL     1     -54.174  45.117   9.600  1.00  0.00     0.217 HD
ENDBRANCH  11  16
BRANCH  13  18
HETATM   18  O   UNL     1     -51.754  43.821   5.407  1.00  0.00    -0.361 OA
HETATM   19  H   UNL     1     -51.841  43.670   4.487  1.00  0.00     0.217 HD
ENDBRANCH  13  18
BRANCH  15  20
HETATM   20  O   UNL     1     -53.755  48.123   5.085  1.00  0.00    -0.360 OA
HETATM   21  H   UNL     1     -53.209  48.394   4.374  1.00  0.00     0.217 HD
ENDBRANCH  15  20
ENDBRANCH   9  10
ENDBRANCH   8   9
BRANCH   8  22
HETATM   22  O   UNL     1     -52.765  49.859   7.505  1.00  0.00    -0.395 OA
HETATM   23  H   UNL     1     -52.040  50.356   7.916  1.00  0.00     0.210 HD
ENDBRANCH   8  22
ENDBRANCH   7   8
ENDBRANCH   3   7
BRANCH   5  24
HETATM   24  O   UNL     1     -53.427  51.211  14.155  1.00  0.00    -0.361 OA
HETATM   25  H   UNL     1     -52.628  51.592  14.463  1.00  0.00     0.217 HD
ENDBRANCH   5  24
TORSDOF 9
ENDMDL
MODEL 4
REMARK VINA RESULT:     -20.8      1.450      2.432
REMARK  9 active torsions:
REMARK  status: ('A' for Active; 'I' for Inactive)
REMARK    1  A    between atoms: C_3  and  C_8 
REMARK    2  A    between atoms: C_5  and  O_7 
REMARK    3  A    between atoms: C_8  and  C_9 
REMARK    4  A    between atoms: C_9  and  C_10 
REMARK    5  A    between atoms: C_9  and  O_20 
REMARK    6  A    between atoms: C_10  and  C_11 
REMARK    7  A    between atoms: C_12  and  O_19 
REMARK    8  A    between atoms: C_14  and  O_18 
REMARK    9  A    between atoms: C_16  and  O_17 
ROOT
HETATM    1  C   UNL     1     -52.975  47.993  12.280  1.00  0.00     0.003 A 
HETATM    2  C   UNL     1     -53.409  48.756  11.212  1.00  0.00     0.007 A 
HETATM    3  C   UNL     1     -53.745  50.084  11.399  1.00  0.00    -0.053 A 
HETATM    4  C   UNL     1     -53.649  50.651  12.654  1.00  0.00     0.043 A 
HETATM    5  C   UNL     1     -53.215  49.888  13.728  1.00  0.00     0.066 A 
HETATM    6  C   UNL     1     -52.877  48.556  13.537  1.00  0.00     0.036 A 
ENDROOT
BRANCH   3   7
HETATM    7  C   UNL     1     -54.217  50.913  10.232  1.00  0.00     0.070 C 
BRANCH   7   8
HETATM    8  C   UNL     1     -53.708  50.295   8.928  1.00  0.00     0.127 C 
BRANCH   8   9
HETATM    9  C   UNL     1     -54.791  49.392   8.335  1.00  0.00     0.076 C 
BRANCH   9  10
HETATM   10  C   UNL     1     -54.202  48.040   8.024  1.00  0.00     0.011 A 
HETATM   11  C   UNL     1     -54.859  46.887   8.429  1.00  0.00     0.077 A 
HETATM   12  C   UNL     1     -54.317  45.643   8.143  1.00  0.00     0.073 A 
HETATM   13  C   UNL     1     -53.118  45.552   7.453  1.00  0.00     0.071 A 
HETATM   14  C   UNL     1     -52.461  46.704   7.047  1.00  0.00     0.073 A 
HETATM   15  C   UNL     1     -53.006  47.947   7.329  1.00  0.00     0.077 A 
BRANCH  11  16
HETATM   16  O   UNL     1     -56.034  46.978   9.106  1.00  0.00    -0.360 OA
HETATM   17  H   UNL     1     -56.436  47.813   9.236  1.00  0.00     0.217 HD
ENDBRANCH  11  16
BRANCH  13  18
HETATM   18  O   UNL     1     -52.586  44.333   7.174  1.00  0.00    -0.361 OA
HETATM   19  H   UNL     1     -53.042  43.742   6.608  1.00  0.00     0.217 HD
ENDBRANCH  13  18
BRANCH  15  20
HETATM   20  O   UNL     1     -52.362  49.077   6.932  1.00  0.00    -0.360 OA
HETATM   21  H   UNL     1     -51.727  49.476   7.494  1.00  0.00     0.217 HD
ENDBRANCH  15  20
ENDBRANCH   9  10
ENDBRANCH   8   9
BRANCH   8  22
HETATM   22  O   UNL     1     -53.394  51.335   7.999  1.00  0.00    -0.395 OA
HETATM   23  H   UNL     1     -54.197  51.593   7.519  1.00  0.00     0.210 HD
ENDBRANCH   8  22
ENDBRANCH   7   8
ENDBRANCH   3   7
BRANCH   5  24
HETATM   24  O   UNL     1     -53.119  50.444  14.965  1.00  0.00    -0.361 OA
HETATM   25  H   UNL     1     -52.631  50.011  15.637  1.00  0.00     0.217 HD
ENDBRANCH   5  24
TORSDOF 9
ENDMDL
MODEL 5
REMARK VINA RESULT:     -20.4      1.545      2.858
REMARK  9 active torsions:
REMARK  status: ('A' for Active; 'I' for Inactive)
REMARK    1  A    between atoms: C_3  and  C_8 
REMARK    2  A    between atoms: C_5  and  O_7 
REMARK    3  A    between atoms: C_8  and  C_9 
REMARK    4  A    between atoms: C_9  and  C_10 
REMARK    5  A    between atoms: C_9  and  O_20 
REMARK    6  A    between atoms: C_10  and  C_11 
REMARK    7  A    between atoms: C_12  and  O_19 
REMARK    8  A    between atoms: C_14  and  O_18 
REMARK    9  A    between atoms: C_16  and  O_17 
ROOT
HETATM    1  C   UNL     1     -53.866  50.854  11.765  1.00  0.00     0.003 A 
HETATM    2  C   UNL     1     -53.623  49.579  11.289  1.00  0.00     0.007 A 
HETATM    3  C   UNL     1     -53.166  48.594  12.145  1.00  0.00    -0.053 A 
HETATM    4  C   UNL     1     -52.951  48.882  13.478  1.00  0.00     0.043 A 
HETATM    5  C   UNL     1     -53.194  50.161  13.959  1.00  0.00     0.066 A 
HETATM    6  C   UNL     1     -53.652  51.147  13.098  1.00  0.00     0.036 A 
ENDROOT
BRANCH   3   7
HETATM    7  C   UNL     1     -52.903  47.205  11.623  1.00  0.00     0.070 C 
BRANCH   7   8
HETATM    8  C   UNL     1     -53.281  47.137  10.141  1.00  0.00     0.127 C 
BRANCH   8   9
HETATM    9  C   UNL     1     -52.009  47.148   9.290  1.00  0.00     0.076 C 
BRANCH   9  10
HETATM   10  C   UNL     1     -52.337  46.694   7.891  1.00  0.00     0.011 A 
HETATM   11  C   UNL     1     -52.184  45.360   7.541  1.00  0.00     0.077 A 
HETATM   12  C   UNL     1     -52.486  44.942   6.254  1.00  0.00     0.073 A 
HETATM   13  C   UNL     1     -52.941  45.858   5.316  1.00  0.00     0.071 A 
HETATM   14  C   UNL     1     -53.095  47.191   5.667  1.00  0.00     0.073 A 
HETATM   15  C   UNL     1     -52.798  47.607   6.955  1.00  0.00     0.077 A 
BRANCH  11  16
HETATM   16  O   UNL     1     -51.737  44.464   8.460  1.00  0.00    -0.360 OA
HETATM   17  H   UNL     1     -50.851  44.503   8.759  1.00  0.00     0.217 HD
ENDBRANCH  11  16
BRANCH  13  18
HETATM   18  O   UNL     1     -53.236  45.448   4.055  1.00  0.00    -0.361 OA
HETATM   19  H   UNL     1     -54.059  45.038   3.876  1.00  0.00     0.217 HD
ENDBRANCH  13  18
BRANCH  15  20
HETATM   20  O   UNL     1     -52.949  48.914   7.298  1.00  0.00    -0.360 OA
HETATM   21  H   UNL     1     -52.524  49.582   6.796  1.00  0.00     0.217 HD
ENDBRANCH  15  20
ENDBRANCH   9  10
ENDBRANCH   8   9
BRANCH   8  22
HETATM   22  O   UNL     1     -54.011  45.934   9.891  1.00  0.00    -0.395 OA
HETATM   23  H   UNL     1     -53.950  45.709   8.949  1.00  0.00     0.210 HD
ENDBRANCH   8  22
ENDBRANCH   7   8
ENDBRANCH   3   7
BRANCH   5  24
HETATM   24  O   UNL     1     -52.983  50.446  15.271  1.00  0.00    -0.361 OA
HETATM   25  H   UNL     1     -52.111  50.576  15.588  1.00  0.00     0.217 HD
ENDBRANCH   5  24
TORSDOF 9
ENDMDL
MODEL 6
REMARK VINA RESULT:     -20.3      1.521      2.389
REMARK  9 active torsions:
REMARK  status: ('A' for Active; 'I' for Inactive)
REMARK    1  A    between atoms: C_3  and  C_8 
REMARK    2  A    between atoms: C_5  and  O_7 
REMARK    3  A    between atoms: C_8  and  C_9 
REMARK    4  A    between atoms: C_9  and  C_10 
REMARK    5  A    between atoms: C_9  and  O_20 
REMARK    6  A    between atoms: C_10  and  C_11 
REMARK    7  A    between atoms: C_12  and  O_19 
REMARK    8  A    between atoms: C_14  and  O_18 
REMARK    9  A    between atoms: C_16  and  O_17 
ROOT
HETATM    1  C   UNL     1     -53.858  50.968  11.571  1.00  0.00     0.003 A 
HETATM    2  C   UNL     1     -53.654  49.687  11.094  1.00  0.00     0.007 A 
HETATM    3  C   UNL     1     -53.245  48.684  11.953  1.00  0.00    -0.053 A 
HETATM    4  C   UNL     1     -53.038  48.960  13.290  1.00  0.00     0.043 A 
HETATM    5  C   UNL     1     -53.242  50.245  13.771  1.00  0.00     0.066 A 
HETATM    6  C   UNL     1     -53.653  51.250  12.907  1.00  0.00     0.036 A 
ENDROOT
BRANCH   3   7
HETATM    7  C   UNL     1     -53.023  47.288  11.429  1.00  0.00     0.070 C 
BRANCH   7   8
HETATM    8  C   UNL     1     -53.354  47.244   9.936  1.00  0.00     0.127 C 
BRANCH   8   9
HETATM    9  C   UNL     1     -52.056  47.193   9.127  1.00  0.00     0.076 C 
BRANCH   9  10
HETATM   10  C   UNL     1     -52.352  46.700   7.734  1.00  0.00     0.011 A 
HETATM   11  C   UNL     1     -52.758  47.593   6.754  1.00  0.00     0.077 A 
HETATM   12  C   UNL     1     -53.030  47.139   5.472  1.00  0.00     0.073 A 
HETATM   13  C   UNL     1     -52.896  45.792   5.171  1.00  0.00     0.071 A 
HETATM   14  C   UNL     1     -52.488  44.899   6.151  1.00  0.00     0.073 A 
HETATM   15  C   UNL     1     -52.212  45.354   7.431  1.00  0.00     0.077 A 
BRANCH  11  16
HETATM   16  O   UNL     1     -52.890  48.912   7.050  1.00  0.00    -0.360 OA
HETATM   17  H   UNL     1     -52.230  49.521   6.782  1.00  0.00     0.217 HD
ENDBRANCH  11  16
BRANCH  13  18
HETATM   18  O   UNL     1     -53.163  45.346   3.915  1.00  0.00    -0.361 OA
HETATM   19  H   UNL     1     -53.780  45.803   3.378  1.00  0.00     0.217 HD
ENDBRANCH  13  18
BRANCH  15  20
HETATM   20  O   UNL     1     -51.814  44.478   8.392  1.00  0.00    -0.360 OA
HETATM   21  H   UNL     1     -52.275  43.672   8.510  1.00  0.00     0.217 HD
ENDBRANCH  15  20
ENDBRANCH   9  10
ENDBRANCH   8   9
BRANCH   8  22
HETATM   22  O   UNL     1     -54.137  46.082   9.655  1.00  0.00    -0.395 OA
HETATM   23  H   UNL     1     -53.551  45.353   9.395  1.00  0.00     0.210 HD
ENDBRANCH   8  22
ENDBRANCH   7   8
ENDBRANCH   3   7
BRANCH   5  24
HETATM   24  O   UNL     1     -53.039  50.519  15.087  1.00  0.00    -0.361 OA
HETATM   25  H   UNL     1     -53.038  51.408  15.386  1.00  0.00     0.217 HD
ENDBRANCH   5  24
TORSDOF 9
ENDMDL
MODEL 7
REMARK VINA RESULT:     -20.1      1.370      1.998
REMARK  9 active torsions:
REMARK  status: ('A' for Active; 'I' for Inactive)
REMARK    1  A    between atoms: C_3  and  C_8 
REMARK    2  A    between atoms: C_5  and  O_7 
REMARK    3  A    between atoms: C_8  and  C_9 
REMARK    4  A    between atoms: C_9  and  C_10 
REMARK    5  A    between atoms: C_9  and  O_20 
REMARK    6  A    between atoms: C_10  and  C_11 
REMARK    7  A    between atoms: C_12  and  O_19 
REMARK    8  A    between atoms: C_14  and  O_18 
REMARK    9  A    between atoms: C_16  and  O_17 
ROOT
HETATM    1  C   UNL     1     -53.405  50.424  13.581  1.00  0.00     0.003 A 
HETATM    2  C   UNL     1     -53.824  50.860  12.338  1.00  0.00     0.007 A 
HETATM    3  C   UNL     1     -53.823  49.992  11.262  1.00  0.00    -0.053 A 
HETATM    4  C   UNL     1     -53.402  48.687  11.427  1.00  0.00     0.043 A 
HETATM    5  C   UNL     1     -52.980  48.247  12.674  1.00  0.00     0.066 A 
HETATM    6  C   UNL     1     -52.983  49.120  13.752  1.00  0.00     0.036 A 
ENDROOT
BRANCH   3   7
HETATM    7  C   UNL     1     -54.280  50.470   9.908  1.00  0.00     0.070 C 
BRANCH   7   8
HETATM    8  C   UNL     1     -53.627  49.617   8.818  1.00  0.00     0.127 C 
BRANCH   8   9
HETATM    9  C   UNL     1     -54.697  48.773   8.122  1.00  0.00     0.076 C 
BRANCH   9  10
HETATM   10  C   UNL     1     -54.265  47.329   8.106  1.00  0.00     0.011 A 
HETATM   11  C   UNL     1     -55.128  46.342   8.559  1.00  0.00     0.077 A 
HETATM   12  C   UNL     1     -54.732  45.014   8.545  1.00  0.00     0.073 A 
HETATM   13  C   UNL     1     -53.471  44.672   8.078  1.00  0.00     0.071 A 
HETATM   14  C   UNL     1     -52.609  45.659   7.624  1.00  0.00     0.073 A 
HETATM   15  C   UNL     1     -53.008  46.986   7.634  1.00  0.00     0.077 A 
BRANCH  11  16
HETATM   16  O   UNL     1     -56.363  46.678   9.017  1.00  0.00    -0.360 OA
HETATM   17  H   UNL     1     -56.975  47.099   8.447  1.00  0.00     0.217 HD
ENDBRANCH  11  16
BRANCH  13  18
HETATM   18  O   UNL     1     -53.081  43.370   8.065  1.00  0.00    -0.361 OA
HETATM   19  H   UNL     1     -52.953  42.912   8.872  1.00  0.00     0.217 HD
ENDBRANCH  13  18
BRANCH  15  20
HETATM   20  O   UNL     1     -52.161  47.953   7.190  1.00  0.00    -0.360 OA
HETATM   21  H   UNL     1     -52.019  48.723   7.705  1.00  0.00     0.217 HD
ENDBRANCH  15  20
ENDBRANCH   9  10
ENDBRANCH   8   9
BRANCH   8  22
HETATM   22  O   UNL     1     -52.996  50.470   7.861  1.00  0.00    -0.395 OA
HETATM   23  H   UNL     1     -53.178  51.397   8.085  1.00  0.00     0.210 HD
ENDBRANCH   8  22
ENDBRANCH   7   8
ENDBRANCH   3   7
BRANCH   5  24
HETATM   24  O   UNL     1     -52.566  46.963  12.839  1.00  0.00    -0.361 OA
HETATM   25  H   UNL     1     -51.865  46.769  13.429  1.00  0.00     0.217 HD
ENDBRANCH   5  24
TORSDOF 9
ENDMDL
MODEL 8
REMARK VINA RESULT:     -19.9      1.759      2.529
REMARK  9 active torsions:
REMARK  status: ('A' for Active; 'I' for Inactive)
REMARK    1  A    between atoms: C_3  and  C_8 
REMARK    2  A    between atoms: C_5  and  O_7 
REMARK    3  A    between atoms: C_8  and  C_9 
REMARK    4  A    between atoms: C_9  and  C_10 
REMARK    5  A    between atoms: C_9  and  O_20 
REMARK    6  A    between atoms: C_10  and  C_11 
REMARK    7  A    between atoms: C_12  and  O_19 
REMARK    8  A    between atoms: C_14  and  O_18 
REMARK    9  A    between atoms: C_16  and  O_17 
ROOT
HETATM    1  C   UNL     1     -53.669  50.797  11.996  1.00  0.00     0.003 A 
HETATM    2  C   UNL     1     -53.803  49.474  11.616  1.00  0.00     0.007 A 
HETATM    3  C   UNL     1     -54.094  49.156  10.302  1.00  0.00    -0.053 A 
HETATM    4  C   UNL     1     -54.252  50.159   9.367  1.00  0.00     0.043 A 
HETATM    5  C   UNL     1     -54.118  51.487   9.745  1.00  0.00     0.066 A 
HETATM    6  C   UNL     1     -53.825  51.803  11.064  1.00  0.00     0.036 A 
ENDROOT
BRANCH   3   7
HETATM    7  C   UNL     1     -54.239  47.713   9.892  1.00  0.00     0.070 C 
BRANCH   7   8
HETATM    8  C   UNL     1     -54.289  47.619   8.365  1.00  0.00     0.127 C 
BRANCH   8   9
HETATM    9  C   UNL     1     -52.866  47.672   7.804  1.00  0.00     0.076 C 
BRANCH   9  10
HETATM   10  C   UNL     1     -52.649  46.506   6.875  1.00  0.00     0.011 A 
HETATM   11  C   UNL     1     -52.851  46.658   5.511  1.00  0.00     0.077 A 
HETATM   12  C   UNL     1     -52.651  45.585   4.656  1.00  0.00     0.073 A 
HETATM   13  C   UNL     1     -52.249  44.359   5.165  1.00  0.00     0.071 A 
HETATM   14  C   UNL     1     -52.045  44.207   6.529  1.00  0.00     0.073 A 
HETATM   15  C   UNL     1     -52.241  45.282   7.383  1.00  0.00     0.077 A 
BRANCH  11  16
HETATM   16  O   UNL     1     -53.246  47.859   5.013  1.00  0.00    -0.360 OA
HETATM   17  H   UNL     1     -53.972  47.906   4.424  1.00  0.00     0.217 HD
ENDBRANCH  11  16
BRANCH  13  18
HETATM   18  O   UNL     1     -52.054  43.307   4.328  1.00  0.00    -0.361 OA
HETATM   19  H   UNL     1     -51.702  43.450   3.471  1.00  0.00     0.217 HD
ENDBRANCH  13  18
BRANCH  15  20
HETATM   20  O   UNL     1     -52.042  45.133   8.719  1.00  0.00    -0.360 OA
HETATM   21  H   UNL     1     -52.741  44.831   9.265  1.00  0.00     0.217 HD
ENDBRANCH  15  20
ENDBRANCH   9  10
ENDBRANCH   8   9
BRANCH   8  22
HETATM   22  O   UNL     1     -54.905  46.388   7.984  1.00  0.00    -0.395 OA
HETATM   23  H   UNL     1     -54.561  45.669   8.538  1.00  0.00     0.210 HD
ENDBRANCH   8  22
ENDBRANCH   7   8
ENDBRANCH   3   7
BRANCH   5  24
HETATM   24  O   UNL     1     -54.272  52.476   8.825  1.00  0.00    -0.361 OA
HETATM   25  H   UNL     1     -54.837  52.346   8.089  1.00  0.00     0.217 HD
ENDBRANCH   5  24
TORSDOF 9
ENDMDL
MODEL 9
REMARK VINA RESULT:     -19.8      1.873      3.394
REMARK  9 active torsions:
REMARK  status: ('A' for Active; 'I' for Inactive)
REMARK    1  A    between atoms: C_3  and  C_8 
REMARK    2  A    between atoms: C_5  and  O_7 
REMARK    3  A    between atoms: C_8  and  C_9 
REMARK    4  A    between atoms: C_9  and  C_10 
REMARK    5  A    between atoms: C_9  and  O_20 
REMARK    6  A    between atoms: C_10  and  C_11 
REMARK    7  A    between atoms: C_12  and  O_19 
REMARK    8  A    between atoms: C_14  and  O_18 
REMARK    9  A    between atoms: C_16  and  O_17 
ROOT
HETATM    1  C   UNL     1     -53.722  50.214  11.453  1.00  0.00     0.003 A 
HETATM    2  C   UNL     1     -53.974  48.896  11.121  1.00  0.00     0.007 A 
HETATM    3  C   UNL     1     -54.309  48.560   9.822  1.00  0.00    -0.053 A 
HETATM    4  C   UNL     1     -54.393  49.541   8.854  1.00  0.00     0.043 A 
HETATM    5  C   UNL     1     -54.141  50.864   9.185  1.00  0.00     0.066 A 
HETATM    6  C   UNL     1     -53.804  51.199  10.488  1.00  0.00     0.036 A 
ENDROOT
BRANCH   3   7
HETATM    7  C   UNL     1     -54.583  47.122   9.463  1.00  0.00     0.070 C 
BRANCH   7   8
HETATM    8  C   UNL     1     -54.386  46.925   7.959  1.00  0.00     0.127 C 
BRANCH   8   9
HETATM    9  C   UNL     1     -52.896  47.018   7.623  1.00  0.00     0.076 C 
BRANCH   9  10
HETATM   10  C   UNL     1     -52.500  45.844   6.765  1.00  0.00     0.011 A 
HETATM   11  C   UNL     1     -52.085  44.660   7.357  1.00  0.00     0.077 A 
HETATM   12  C   UNL     1     -51.721  43.580   6.567  1.00  0.00     0.073 A 
HETATM   13  C   UNL     1     -51.771  43.684   5.185  1.00  0.00     0.071 A 
HETATM   14  C   UNL     1     -52.187  44.867   4.593  1.00  0.00     0.073 A 
HETATM   15  C   UNL     1     -52.556  45.945   5.383  1.00  0.00     0.077 A 
BRANCH  11  16
HETATM   16  O   UNL     1     -52.036  44.559   8.711  1.00  0.00    -0.360 OA
HETATM   17  H   UNL     1     -52.086  45.330   9.240  1.00  0.00     0.217 HD
ENDBRANCH  11  16
BRANCH  13  18
HETATM   18  O   UNL     1     -51.414  42.626   4.411  1.00  0.00    -0.361 OA
HETATM   19  H   UNL     1     -50.703  42.708   3.805  1.00  0.00     0.217 HD
ENDBRANCH  13  18
BRANCH  15  20
HETATM   20  O   UNL     1     -52.962  47.105   4.803  1.00  0.00    -0.360 OA
HETATM   21  H   UNL     1     -53.499  47.706   5.282  1.00  0.00     0.217 HD
ENDBRANCH  15  20
ENDBRANCH   9  10
ENDBRANCH   8   9
BRANCH   8  22
HETATM   22  O   UNL     1     -54.880  45.639   7.579  1.00  0.00    -0.395 OA
HETATM   23  H   UNL     1     -54.211  45.180   7.046  1.00  0.00     0.210 HD
ENDBRANCH   8  22
ENDBRANCH   7   8
ENDBRANCH   3   7
BRANCH   5  24
HETATM   24  O   UNL     1     -54.223  51.831   8.233  1.00  0.00    -0.361 OA
HETATM   25  H   UNL     1     -53.756  51.735   7.426  1.00  0.00     0.217 HD
ENDBRANCH   5  24
TORSDOF 9
ENDMDL
