MODEL 1
REMARK VINA RESULT:      -7.3      0.000      0.000
REMARK  4 active torsions:
REMARK  status: ('A' for Active; 'I' for Inactive)
REMARK    1  A    between atoms: O_1  and  C_5 
REMARK    2  A    between atoms: O_1  and  C_14 
REMARK    3  A    between atoms: O_2  and  C_18 
REMARK    4  A    between atoms: C_10  and  C_13 
ROOT
HETATM    1  O   UNL     1       2.038  -9.808  55.864  1.00  0.00    -0.343 OA
ENDROOT
BRANCH   1   2
HETATM    2  C   UNL     1       1.864 -10.954  55.041  1.00  0.00     0.129 C 
HETATM    3  C   UNL     1       1.444 -10.516  53.646  1.00  0.00     0.032 C 
HETATM    4  C   UNL     1      -0.051 -10.228  53.769  1.00  0.00     0.002 C 
HETATM    5  C   UNL     1      -0.539 -11.011  54.988  1.00  0.00     0.002 C 
HETATM    6  C   UNL     1       0.675 -11.773  55.516  1.00  0.00     0.032 C 
ENDBRANCH   1   2
BRANCH   1   7
HETATM    7  C   UNL     1       3.239  -9.155  55.769  1.00  0.00     0.103 A 
HETATM    8  C   UNL     1       3.430  -8.232  54.745  1.00  0.00     0.047 A 
HETATM    9  C   UNL     1       4.648  -7.563  54.637  1.00  0.00    -0.049 A 
HETATM   10  C   UNL     1       5.669  -7.818  55.552  1.00  0.00     0.010 A 
HETATM   11  C   UNL     1       5.470  -8.743  56.577  1.00  0.00     0.040 A 
HETATM   12  C   UNL     1       4.252  -9.414  56.685  1.00  0.00     0.101 A 
BRANCH   9  13
HETATM   13  C   UNL     1       4.862  -6.558  53.525  1.00  0.00     0.045 C 
HETATM   14  C   UNL     1       4.411  -5.127  53.824  1.00  0.00     0.132 C 
HETATM   15  N   UNL     1       4.224  -4.548  52.524  1.00  0.00    -0.360 N 
HETATM   16  C   UNL     1       4.046  -5.506  51.534  1.00  0.00     0.218 C 
HETATM   17  H   UNL     1       4.222  -3.578  52.352  1.00  0.00     0.162 HD
HETATM   18  O   UNL     1       3.822  -5.315  50.349  1.00  0.00    -0.274 OA
HETATM   19  C   UNL     1       4.128  -6.855  52.203  1.00  0.00     0.113 C 
ENDBRANCH   9  13
BRANCH  12  20
HETATM   20  O   UNL     1       4.072 -10.317  57.689  1.00  0.00    -0.353 OA
HETATM   21  C   UNL     1       5.201 -10.606  58.511  1.00  0.00     0.210 C 
ENDBRANCH  12  20
ENDBRANCH   1   7
TORSDOF 4
ENDMDL
MODEL 2
REMARK VINA RESULT:      -7.2      2.782      5.716
REMARK  4 active torsions:
REMARK  status: ('A' for Active; 'I' for Inactive)
REMARK    1  A    between atoms: O_1  and  C_5 
REMARK    2  A    between atoms: O_1  and  C_14 
REMARK    3  A    between atoms: O_2  and  C_18 
REMARK    4  A    between atoms: C_10  and  C_13 
ROOT
HETATM    1  O   UNL     1       3.804  -7.849  54.374  1.00  0.00    -0.343 OA
ENDROOT
BRANCH   1   2
HETATM    2  C   UNL     1       2.908  -6.762  54.180  1.00  0.00     0.129 C 
HETATM    3  C   UNL     1       3.489  -5.803  53.153  1.00  0.00     0.032 C 
HETATM    4  C   UNL     1       4.511  -4.979  53.934  1.00  0.00     0.002 C 
HETATM    5  C   UNL     1       4.104  -5.073  55.404  1.00  0.00     0.002 C 
HETATM    6  C   UNL     1       2.827  -5.911  55.438  1.00  0.00     0.032 C 
ENDBRANCH   1   2
BRANCH   1   7
HETATM    7  C   UNL     1       3.278  -8.997  54.903  1.00  0.00     0.103 A 
HETATM    8  C   UNL     1       2.306  -9.690  54.188  1.00  0.00     0.047 A 
HETATM    9  C   UNL     1       1.761 -10.860  54.717  1.00  0.00    -0.049 A 
HETATM   10  C   UNL     1       2.190 -11.331  55.957  1.00  0.00     0.010 A 
HETATM   11  C   UNL     1       3.165 -10.632  56.669  1.00  0.00     0.040 A 
HETATM   12  C   UNL     1       3.710  -9.461  56.141  1.00  0.00     0.101 A 
BRANCH   9  13
HETATM   13  C   UNL     1       0.704 -11.619  53.944  1.00  0.00     0.045 C 
HETATM   14  C   UNL     1       0.647 -11.339  52.441  1.00  0.00     0.132 C 
HETATM   15  N   UNL     1      -0.686 -11.723  52.071  1.00  0.00    -0.360 N 
HETATM   16  C   UNL     1      -1.554 -11.748  53.155  1.00  0.00     0.218 C 
HETATM   17  H   UNL     1      -0.955 -11.944  51.151  1.00  0.00     0.162 HD
HETATM   18  O   UNL     1      -2.750 -11.993  53.142  1.00  0.00    -0.274 OA
HETATM   19  C   UNL     1      -0.753 -11.361  54.373  1.00  0.00     0.113 C 
ENDBRANCH   9  13
BRANCH  12  20
HETATM   20  O   UNL     1       4.660  -8.787  56.846  1.00  0.00    -0.353 OA
HETATM   21  C   UNL     1       5.411  -9.535  57.801  1.00  0.00     0.210 C 
ENDBRANCH  12  20
ENDBRANCH   1   7
TORSDOF 4
ENDMDL
MODEL 3
REMARK VINA RESULT:      -7.0      2.466      5.149
REMARK  4 active torsions:
REMARK  status: ('A' for Active; 'I' for Inactive)
REMARK    1  A    between atoms: O_1  and  C_5 
REMARK    2  A    between atoms: O_1  and  C_14 
REMARK    3  A    between atoms: O_2  and  C_18 
REMARK    4  A    between atoms: C_10  and  C_13 
ROOT
HETATM    1  O   UNL     1       1.256 -10.255  53.318  1.00  0.00    -0.343 OA
ENDROOT
BRANCH   1   2
HETATM    2  C   UNL     1       0.804 -11.289  54.184  1.00  0.00     0.129 C 
HETATM    3  C   UNL     1       0.572 -12.558  53.379  1.00  0.00     0.032 C 
HETATM    4  C   UNL     1      -0.790 -12.348  52.719  1.00  0.00     0.002 C 
HETATM    5  C   UNL     1      -1.519 -11.303  53.563  1.00  0.00     0.002 C 
HETATM    6  C   UNL     1      -0.581 -10.964  54.720  1.00  0.00     0.032 C 
ENDBRANCH   1   2
BRANCH   1   7
HETATM    7  C   UNL     1       2.082  -9.308  53.864  1.00  0.00     0.103 A 
HETATM    8  C   UNL     1       2.819  -9.626  55.001  1.00  0.00     0.047 A 
HETATM    9  C   UNL     1       3.663  -8.672  55.567  1.00  0.00    -0.049 A 
HETATM   10  C   UNL     1       3.765  -7.404  54.995  1.00  0.00     0.010 A 
HETATM   11  C   UNL     1       3.024  -7.092  53.856  1.00  0.00     0.040 A 
HETATM   12  C   UNL     1       2.179  -8.046  53.289  1.00  0.00     0.101 A 
BRANCH   9  13
HETATM   13  C   UNL     1       4.468  -9.011  56.803  1.00  0.00     0.045 C 
HETATM   14  C   UNL     1       5.985  -9.064  56.617  1.00  0.00     0.132 C 
HETATM   15  N   UNL     1       6.436  -9.884  57.705  1.00  0.00    -0.360 N 
HETATM   16  C   UNL     1       5.427 -10.685  58.223  1.00  0.00     0.218 C 
HETATM   17  H   UNL     1       7.359  -9.879  58.047  1.00  0.00     0.162 HD
HETATM   18  O   UNL     1       5.521 -11.512  59.116  1.00  0.00    -0.274 OA
HETATM   19  C   UNL     1       4.175 -10.386  57.436  1.00  0.00     0.113 C 
ENDBRANCH   9  13
BRANCH  12  20
HETATM   20  O   UNL     1       1.459  -7.728  52.177  1.00  0.00    -0.353 OA
HETATM   21  C   UNL     1       1.860  -6.564  51.457  1.00  0.00     0.210 C 
ENDBRANCH  12  20
ENDBRANCH   1   7
TORSDOF 4
ENDMDL
MODEL 4
REMARK VINA RESULT:      -7.0      3.022      5.985
REMARK  4 active torsions:
REMARK  status: ('A' for Active; 'I' for Inactive)
REMARK    1  A    between atoms: O_1  and  C_5 
REMARK    2  A    between atoms: O_1  and  C_14 
REMARK    3  A    between atoms: O_2  and  C_18 
REMARK    4  A    between atoms: C_10  and  C_13 
ROOT
HETATM    1  O   UNL     1       3.552  -7.926  53.002  1.00  0.00    -0.343 OA
ENDROOT
BRANCH   1   2
HETATM    2  C   UNL     1       2.840  -6.696  52.977  1.00  0.00     0.129 C 
HETATM    3  C   UNL     1       1.926  -6.664  51.762  1.00  0.00     0.032 C 
HETATM    4  C   UNL     1       2.846  -6.295  50.601  1.00  0.00     0.002 C 
HETATM    5  C   UNL     1       4.059  -5.599  51.218  1.00  0.00     0.002 C 
HETATM    6  C   UNL     1       3.792  -5.538  52.721  1.00  0.00     0.032 C 
ENDBRANCH   1   2
BRANCH   1   7
HETATM    7  C   UNL     1       3.180  -8.837  53.956  1.00  0.00     0.103 A 
HETATM    8  C   UNL     1       2.140  -9.719  53.682  1.00  0.00     0.047 A 
HETATM    9  C   UNL     1       1.750 -10.649  54.644  1.00  0.00    -0.049 A 
HETATM   10  C   UNL     1       2.401 -10.692  55.877  1.00  0.00     0.010 A 
HETATM   11  C   UNL     1       3.443  -9.805  56.146  1.00  0.00     0.040 A 
HETATM   12  C   UNL     1       3.833  -8.874  55.183  1.00  0.00     0.101 A 
BRANCH   9  13
HETATM   13  C   UNL     1       0.620 -11.612  54.352  1.00  0.00     0.045 C 
HETATM   14  C   UNL     1       0.786 -12.475  53.100  1.00  0.00     0.132 C 
HETATM   15  N   UNL     1      -0.556 -12.862  52.769  1.00  0.00    -0.360 N 
HETATM   16  C   UNL     1      -1.507 -12.019  53.329  1.00  0.00     0.218 C 
HETATM   17  H   UNL     1      -0.778 -13.640  52.208  1.00  0.00     0.162 HD
HETATM   18  O   UNL     1      -2.719 -12.070  53.188  1.00  0.00    -0.274 OA
HETATM   19  C   UNL     1      -0.762 -10.972  54.118  1.00  0.00     0.113 C 
ENDBRANCH   9  13
BRANCH  12  20
HETATM   20  O   UNL     1       4.851  -8.012  55.458  1.00  0.00    -0.353 OA
HETATM   21  C   UNL     1       4.535  -6.867  56.247  1.00  0.00     0.210 C 
ENDBRANCH  12  20
ENDBRANCH   1   7
TORSDOF 4
ENDMDL
MODEL 5
REMARK VINA RESULT:      -6.9      2.431      6.113
REMARK  4 active torsions:
REMARK  status: ('A' for Active; 'I' for Inactive)
REMARK    1  A    between atoms: O_1  and  C_5 
REMARK    2  A    between atoms: O_1  and  C_14 
REMARK    3  A    between atoms: O_2  and  C_18 
REMARK    4  A    between atoms: C_10  and  C_13 
ROOT
HETATM    1  O   UNL     1       2.683  -6.988  52.653  1.00  0.00    -0.343 OA
ENDROOT
BRANCH   1   2
HETATM    2  C   UNL     1       3.944  -6.948  51.998  1.00  0.00     0.129 C 
HETATM    3  C   UNL     1       3.965  -5.793  51.009  1.00  0.00     0.032 C 
HETATM    4  C   UNL     1       3.211  -6.320  49.789  1.00  0.00     0.002 C 
HETATM    5  C   UNL     1       3.283  -7.845  49.867  1.00  0.00     0.002 C 
HETATM    6  C   UNL     1       4.117  -8.167  51.106  1.00  0.00     0.032 C 
ENDBRANCH   1   2
BRANCH   1   7
HETATM    7  C   UNL     1       2.464  -8.037  53.507  1.00  0.00     0.103 A 
HETATM    8  C   UNL     1       3.250  -8.159  54.649  1.00  0.00     0.047 A 
HETATM    9  C   UNL     1       3.037  -9.222  55.524  1.00  0.00    -0.049 A 
HETATM   10  C   UNL     1       2.040 -10.160  55.255  1.00  0.00     0.010 A 
HETATM   11  C   UNL     1       1.255 -10.032  54.109  1.00  0.00     0.040 A 
HETATM   12  C   UNL     1       1.468  -8.968  53.232  1.00  0.00     0.101 A 
BRANCH   9  13
HETATM   13  C   UNL     1       3.889  -9.360  56.768  1.00  0.00     0.045 C 
HETATM   14  C   UNL     1       5.361  -8.974  56.615  1.00  0.00     0.132 C 
HETATM   15  N   UNL     1       6.011  -9.668  57.690  1.00  0.00    -0.360 N 
HETATM   16  C   UNL     1       5.264 -10.739  58.162  1.00  0.00     0.218 C 
HETATM   17  H   UNL     1       6.890  -9.413  58.052  1.00  0.00     0.162 HD
HETATM   18  O   UNL     1       5.577 -11.535  59.034  1.00  0.00    -0.274 OA
HETATM   19  C   UNL     1       3.990 -10.781  57.356  1.00  0.00     0.113 C 
ENDBRANCH   9  13
BRANCH  12  20
HETATM   20  O   UNL     1       0.696  -8.855  52.116  1.00  0.00    -0.353 OA
HETATM   21  C   UNL     1       0.516 -10.033  51.331  1.00  0.00     0.210 C 
ENDBRANCH  12  20
ENDBRANCH   1   7
TORSDOF 4
ENDMDL
MODEL 6
REMARK VINA RESULT:      -6.9      2.648      6.066
REMARK  4 active torsions:
REMARK  status: ('A' for Active; 'I' for Inactive)
REMARK    1  A    between atoms: O_1  and  C_5 
REMARK    2  A    between atoms: O_1  and  C_14 
REMARK    3  A    between atoms: O_2  and  C_18 
REMARK    4  A    between atoms: C_10  and  C_13 
ROOT
HETATM    1  O   UNL     1       2.761  -8.316  51.437  1.00  0.00    -0.343 OA
ENDROOT
BRANCH   1   2
HETATM    2  C   UNL     1       2.611  -6.906  51.553  1.00  0.00     0.129 C 
HETATM    3  C   UNL     1       1.147  -6.536  51.372  1.00  0.00     0.032 C 
HETATM    4  C   UNL     1       0.932  -6.556  49.860  1.00  0.00     0.002 C 
HETATM    5  C   UNL     1       2.311  -6.373  49.228  1.00  0.00     0.002 C 
HETATM    6  C   UNL     1       3.290  -6.204  50.388  1.00  0.00     0.032 C 
ENDBRANCH   1   2
BRANCH   1   7
HETATM    7  C   UNL     1       2.496  -9.059  52.557  1.00  0.00     0.103 A 
HETATM    8  C   UNL     1       3.162  -8.762  53.742  1.00  0.00     0.047 A 
HETATM    9  C   UNL     1       2.902  -9.512  54.888  1.00  0.00    -0.049 A 
HETATM   10  C   UNL     1       1.979 -10.556  54.844  1.00  0.00     0.010 A 
HETATM   11  C   UNL     1       1.314 -10.849  53.653  1.00  0.00     0.040 A 
HETATM   12  C   UNL     1       1.575 -10.099  52.506  1.00  0.00     0.101 A 
BRANCH   9  13
HETATM   13  C   UNL     1       3.623  -9.193  56.180  1.00  0.00     0.045 C 
HETATM   14  C   UNL     1       5.059  -8.688  56.036  1.00  0.00     0.132 C 
HETATM   15  N   UNL     1       5.652  -8.971  57.312  1.00  0.00    -0.360 N 
HETATM   16  C   UNL     1       4.964  -9.951  58.014  1.00  0.00     0.218 C 
HETATM   17  H   UNL     1       6.458  -8.520  57.652  1.00  0.00     0.162 HD
HETATM   18  O   UNL     1       5.254 -10.429  59.100  1.00  0.00    -0.274 OA
HETATM   19  C   UNL     1       3.794 -10.371  57.159  1.00  0.00     0.113 C 
ENDBRANCH   9  13
BRANCH  12  20
HETATM   20  O   UNL     1       0.920 -10.396  51.349  1.00  0.00    -0.353 OA
HETATM   21  C   UNL     1       1.405 -11.508  50.598  1.00  0.00     0.210 C 
ENDBRANCH  12  20
ENDBRANCH   1   7
TORSDOF 4
ENDMDL
MODEL 7
REMARK VINA RESULT:      -6.6      2.938      5.361
REMARK  4 active torsions:
REMARK  status: ('A' for Active; 'I' for Inactive)
REMARK    1  A    between atoms: O_1  and  C_5 
REMARK    2  A    between atoms: O_1  and  C_14 
REMARK    3  A    between atoms: O_2  and  C_18 
REMARK    4  A    between atoms: C_10  and  C_13 
ROOT
HETATM    1  O   UNL     1       2.191  -7.741  55.366  1.00  0.00    -0.343 OA
ENDROOT
BRANCH   1   2
HETATM    2  C   UNL     1       3.401  -7.212  54.838  1.00  0.00     0.129 C 
HETATM    3  C   UNL     1       4.235  -6.629  55.968  1.00  0.00     0.032 C 
HETATM    4  C   UNL     1       3.612  -5.260  56.236  1.00  0.00     0.002 C 
HETATM    5  C   UNL     1       2.866  -4.871  54.960  1.00  0.00     0.002 C 
HETATM    6  C   UNL     1       3.113  -6.002  53.964  1.00  0.00     0.032 C 
ENDBRANCH   1   2
BRANCH   1   7
HETATM    7  C   UNL     1       1.886  -9.035  55.037  1.00  0.00     0.103 A 
HETATM    8  C   UNL     1       1.397  -9.314  53.764  1.00  0.00     0.047 A 
HETATM    9  C   UNL     1       1.082 -10.626  53.417  1.00  0.00    -0.049 A 
HETATM   10  C   UNL     1       1.256 -11.655  54.343  1.00  0.00     0.010 A 
HETATM   11  C   UNL     1       1.747 -11.369  55.617  1.00  0.00     0.040 A 
HETATM   12  C   UNL     1       2.062 -10.055  55.965  1.00  0.00     0.101 A 
BRANCH   9  13
HETATM   13  C   UNL     1       0.551 -10.936  52.034  1.00  0.00     0.045 C 
HETATM   14  C   UNL     1       1.313 -10.302  50.869  1.00  0.00     0.132 C 
HETATM   15  N   UNL     1       0.357 -10.294  49.798  1.00  0.00    -0.360 N 
HETATM   16  C   UNL     1      -0.952 -10.389  50.251  1.00  0.00     0.218 C 
HETATM   17  H   UNL     1       0.603 -10.228  48.847  1.00  0.00     0.162 HD
HETATM   18  O   UNL     1      -1.973 -10.362  49.581  1.00  0.00    -0.274 OA
HETATM   19  C   UNL     1      -0.895 -10.482  51.755  1.00  0.00     0.113 C 
ENDBRANCH   9  13
BRANCH  12  20
HETATM   20  O   UNL     1       2.539  -9.789  57.213  1.00  0.00    -0.353 OA
HETATM   21  C   UNL     1       3.906 -10.107  57.465  1.00  0.00     0.210 C 
ENDBRANCH  12  20
ENDBRANCH   1   7
TORSDOF 4
ENDMDL
MODEL 8
REMARK VINA RESULT:      -6.6      1.590      4.010
REMARK  4 active torsions:
REMARK  status: ('A' for Active; 'I' for Inactive)
REMARK    1  A    between atoms: O_1  and  C_5 
REMARK    2  A    between atoms: O_1  and  C_14 
REMARK    3  A    between atoms: O_2  and  C_18 
REMARK    4  A    between atoms: C_10  and  C_13 
ROOT
HETATM    1  O   UNL     1       3.255  -9.934  55.050  1.00  0.00    -0.343 OA
ENDROOT
BRANCH   1   2
HETATM    2  C   UNL     1       3.038  -9.271  56.289  1.00  0.00     0.129 C 
HETATM    3  C   UNL     1       3.759  -7.932  56.281  1.00  0.00     0.032 C 
HETATM    4  C   UNL     1       5.215  -8.280  56.583  1.00  0.00     0.002 C 
HETATM    5  C   UNL     1       5.195  -9.636  57.287  1.00  0.00     0.002 C 
HETATM    6  C   UNL     1       3.723 -10.023  57.419  1.00  0.00     0.032 C 
ENDBRANCH   1   2
BRANCH   1   7
HETATM    7  C   UNL     1       2.690  -9.367  53.938  1.00  0.00     0.103 A 
HETATM    8  C   UNL     1       3.409  -8.415  53.223  1.00  0.00     0.047 A 
HETATM    9  C   UNL     1       2.844  -7.829  52.091  1.00  0.00    -0.049 A 
HETATM   10  C   UNL     1       1.563  -8.197  51.679  1.00  0.00     0.010 A 
HETATM   11  C   UNL     1       0.848  -9.153  52.401  1.00  0.00     0.040 A 
HETATM   12  C   UNL     1       1.412  -9.738  53.534  1.00  0.00     0.101 A 
BRANCH   9  13
HETATM   13  C   UNL     1       3.621  -6.794  51.307  1.00  0.00     0.045 C 
HETATM   14  C   UNL     1       3.994  -5.521  52.070  1.00  0.00     0.132 C 
HETATM   15  N   UNL     1       4.214  -4.552  51.035  1.00  0.00    -0.360 N 
HETATM   16  C   UNL     1       3.601  -4.901  49.839  1.00  0.00     0.218 C 
HETATM   17  H   UNL     1       4.742  -3.730  51.159  1.00  0.00     0.162 HD
HETATM   18  O   UNL     1       3.576  -4.257  48.802  1.00  0.00    -0.274 OA
HETATM   19  C   UNL     1       2.912  -6.224  50.063  1.00  0.00     0.113 C 
ENDBRANCH   9  13
BRANCH  12  20
HETATM   20  O   UNL     1       0.702 -10.669  54.231  1.00  0.00    -0.353 OA
HETATM   21  C   UNL     1       0.694 -11.998  53.714  1.00  0.00     0.210 C 
ENDBRANCH  12  20
ENDBRANCH   1   7
TORSDOF 4
ENDMDL
MODEL 9
REMARK VINA RESULT:      -6.6      3.001      5.882
REMARK  4 active torsions:
REMARK  status: ('A' for Active; 'I' for Inactive)
REMARK    1  A    between atoms: O_1  and  C_5 
REMARK    2  A    between atoms: O_1  and  C_14 
REMARK    3  A    between atoms: O_2  and  C_18 
REMARK    4  A    between atoms: C_10  and  C_13 
ROOT
HETATM    1  O   UNL     1       1.362 -10.240  51.392  1.00  0.00    -0.343 OA
ENDROOT
BRANCH   1   2
HETATM    2  C   UNL     1       2.141  -9.099  51.055  1.00  0.00     0.129 C 
HETATM    3  C   UNL     1       1.289  -8.120  50.261  1.00  0.00     0.032 C 
HETATM    4  C   UNL     1       1.280  -8.685  48.842  1.00  0.00     0.002 C 
HETATM    5  C   UNL     1       2.512  -9.580  48.728  1.00  0.00     0.002 C 
HETATM    6  C   UNL     1       3.236  -9.478  50.069  1.00  0.00     0.032 C 
ENDBRANCH   1   2
BRANCH   1   7
HETATM    7  C   UNL     1       1.380 -10.634  52.704  1.00  0.00     0.103 A 
HETATM    8  C   UNL     1       2.139  -9.911  53.619  1.00  0.00     0.047 A 
HETATM    9  C   UNL     1       2.168 -10.304  54.956  1.00  0.00    -0.049 A 
HETATM   10  C   UNL     1       1.438 -11.417  55.373  1.00  0.00     0.010 A 
HETATM   11  C   UNL     1       0.678 -12.137  54.451  1.00  0.00     0.040 A 
HETATM   12  C   UNL     1       0.650 -11.745  53.113  1.00  0.00     0.101 A 
BRANCH   9  13
HETATM   13  C   UNL     1       2.991  -9.522  55.957  1.00  0.00     0.045 C 
HETATM   14  C   UNL     1       4.156  -8.717  55.379  1.00  0.00     0.132 C 
HETATM   15  N   UNL     1       5.036  -8.535  56.497  1.00  0.00    -0.360 N 
HETATM   16  C   UNL     1       4.819  -9.467  57.504  1.00  0.00     0.218 C 
HETATM   17  H   UNL     1       5.720  -7.828  56.546  1.00  0.00     0.162 HD
HETATM   18  O   UNL     1       5.439  -9.590  58.549  1.00  0.00    -0.274 OA
HETATM   19  C   UNL     1       3.689 -10.357  57.048  1.00  0.00     0.113 C 
ENDBRANCH   9  13
BRANCH  12  20
HETATM   20  O   UNL     1      -0.094 -12.458  52.221  1.00  0.00    -0.353 OA
HETATM   21  C   UNL     1      -1.488 -12.582  52.494  1.00  0.00     0.210 C 
ENDBRANCH  12  20
ENDBRANCH   1   7
TORSDOF 4
ENDMDL
