MODEL 1
REMARK VINA RESULT:      -6.7      0.000      0.000
REMARK  4 active torsions:
REMARK  status: ('A' for Active; 'I' for Inactive)
REMARK    1  A    between atoms: O_1  and  C_11 
REMARK    2  A    between atoms: C_4  and  C_5 
REMARK    3  A    between atoms: C_4  and  C_6 
REMARK    4  A    between atoms: C_6  and  C_12 
ROOT
ATOM      1  O   UNL A   1      11.038   5.006  11.087  1.00  0.00    -0.361 OA
ATOM      2  H   UNL A   1      10.807   4.469  10.355  1.00  0.00     0.217 HD
ENDROOT
BRANCH   1   3
ATOM      3  C   UNL A   1      12.338   5.357  11.289  1.00  0.00     0.065 A 
ATOM      4  C   UNL A   1      12.900   5.249  12.561  1.00  0.00     0.037 A 
ATOM      5  C   UNL A   1      14.231   5.609  12.769  1.00  0.00     0.010 A 
ATOM      6  C   UNL A   1      15.001   6.079  11.704  1.00  0.00    -0.058 A 
ATOM      7  C   UNL A   1      14.439   6.187  10.433  1.00  0.00     0.010 A 
ATOM      8  C   UNL A   1      13.108   5.826  10.225  1.00  0.00     0.037 A 
BRANCH   6   9
ATOM      9  C   UNL A   1      16.424   6.464  11.926  1.00  0.00     0.049 C 
BRANCH   9  10
ATOM     10  C   UNL A   1      17.410   5.747  10.996  1.00  0.00     0.117 C 
BRANCH  10  11
ATOM     11  C   UNL A   1      18.039   6.701  10.009  1.00  0.00     0.172 C 
ATOM     12  O   UNL A   1      18.520   6.077   8.905  1.00  0.00    -0.648 OA
ATOM     13  O   UNL A   1      18.089   7.913  10.170  1.00  0.00    -0.648 OA
ENDBRANCH  10  11
ENDBRANCH   9  10
ENDBRANCH   6   9
ENDBRANCH   1   3
TORSDOF 4
ENDMDL
MODEL 2
REMARK VINA RESULT:      -6.7      0.074      1.397
REMARK  4 active torsions:
REMARK  status: ('A' for Active; 'I' for Inactive)
REMARK    1  A    between atoms: O_1  and  C_11 
REMARK    2  A    between atoms: C_4  and  C_5 
REMARK    3  A    between atoms: C_4  and  C_6 
REMARK    4  A    between atoms: C_6  and  C_12 
ROOT
ATOM      1  O   UNL A   1      11.029   4.962  11.087  1.00  0.00    -0.361 OA
ATOM      2  H   UNL A   1      10.831   4.257  10.503  1.00  0.00     0.217 HD
ENDROOT
BRANCH   1   3
ATOM      3  C   UNL A   1      12.322   5.338  11.285  1.00  0.00     0.065 A 
ATOM      4  C   UNL A   1      13.086   5.799  10.213  1.00  0.00     0.037 A 
ATOM      5  C   UNL A   1      14.411   6.184  10.415  1.00  0.00     0.010 A 
ATOM      6  C   UNL A   1      14.974   6.107  11.689  1.00  0.00    -0.058 A 
ATOM      7  C   UNL A   1      14.210   5.646  12.761  1.00  0.00     0.010 A 
ATOM      8  C   UNL A   1      12.885   5.261  12.560  1.00  0.00     0.037 A 
BRANCH   6   9
ATOM      9  C   UNL A   1      16.390   6.518  11.905  1.00  0.00     0.049 C 
BRANCH   9  10
ATOM     10  C   UNL A   1      17.387   5.812  10.978  1.00  0.00     0.117 C 
BRANCH  10  11
ATOM     11  C   UNL A   1      18.030   6.778  10.012  1.00  0.00     0.172 C 
ATOM     12  O   UNL A   1      18.634   6.157   8.969  1.00  0.00    -0.648 OA
ATOM     13  O   UNL A   1      17.991   7.995  10.138  1.00  0.00    -0.648 OA
ENDBRANCH  10  11
ENDBRANCH   9  10
ENDBRANCH   6   9
ENDBRANCH   1   3
TORSDOF 4
ENDMDL
MODEL 3
REMARK VINA RESULT:      -6.7      1.062      1.287
REMARK  4 active torsions:
REMARK  status: ('A' for Active; 'I' for Inactive)
REMARK    1  A    between atoms: O_1  and  C_11 
REMARK    2  A    between atoms: C_4  and  C_5 
REMARK    3  A    between atoms: C_4  and  C_6 
REMARK    4  A    between atoms: C_6  and  C_12 
ROOT
ATOM      1  O   UNL A   1      10.999   4.835  11.201  1.00  0.00    -0.361 OA
ATOM      2  H   UNL A   1      10.705   4.140  10.646  1.00  0.00     0.217 HD
ENDROOT
BRANCH   1   3
ATOM      3  C   UNL A   1      12.247   5.354  11.038  1.00  0.00     0.065 A 
ATOM      4  C   UNL A   1      13.049   5.606  12.150  1.00  0.00     0.037 A 
ATOM      5  C   UNL A   1      14.326   6.139  11.984  1.00  0.00     0.010 A 
ATOM      6  C   UNL A   1      14.804   6.420  10.703  1.00  0.00    -0.058 A 
ATOM      7  C   UNL A   1      14.002   6.167   9.590  1.00  0.00     0.010 A 
ATOM      8  C   UNL A   1      12.724   5.634   9.757  1.00  0.00     0.037 A 
BRANCH   6   9
ATOM      9  C   UNL A   1      16.170   6.988  10.524  1.00  0.00     0.049 C 
BRANCH   9  10
ATOM     10  C   UNL A   1      17.246   6.282  11.357  1.00  0.00     0.117 C 
BRANCH  10  11
ATOM     11  C   UNL A   1      18.336   5.706  10.485  1.00  0.00     0.172 C 
ATOM     12  O   UNL A   1      19.230   4.960  11.182  1.00  0.00    -0.648 OA
ATOM     13  O   UNL A   1      18.398   5.869   9.273  1.00  0.00    -0.648 OA
ENDBRANCH  10  11
ENDBRANCH   9  10
ENDBRANCH   6   9
ENDBRANCH   1   3
TORSDOF 4
ENDMDL
MODEL 4
REMARK VINA RESULT:      -6.7      2.596      4.525
REMARK  4 active torsions:
REMARK  status: ('A' for Active; 'I' for Inactive)
REMARK    1  A    between atoms: O_1  and  C_11 
REMARK    2  A    between atoms: C_4  and  C_5 
REMARK    3  A    between atoms: C_4  and  C_6 
REMARK    4  A    between atoms: C_6  and  C_12 
ROOT
ATOM      1  O   UNL A   1      17.143   5.730  13.140  1.00  0.00    -0.361 OA
ATOM      2  H   UNL A   1      17.801   5.088  12.959  1.00  0.00     0.217 HD
ENDROOT
BRANCH   1   3
ATOM      3  C   UNL A   1      16.054   5.834  12.330  1.00  0.00     0.065 A 
ATOM      4  C   UNL A   1      14.772   5.713  12.865  1.00  0.00     0.037 A 
ATOM      5  C   UNL A   1      13.656   5.818  12.036  1.00  0.00     0.010 A 
ATOM      6  C   UNL A   1      13.822   6.043  10.669  1.00  0.00    -0.058 A 
ATOM      7  C   UNL A   1      15.104   6.164  10.133  1.00  0.00     0.010 A 
ATOM      8  C   UNL A   1      16.220   6.059  10.963  1.00  0.00     0.037 A 
BRANCH   6   9
ATOM      9  C   UNL A   1      12.629   6.156   9.782  1.00  0.00     0.049 C 
BRANCH   9  10
ATOM     10  C   UNL A   1      12.706   5.276   8.529  1.00  0.00     0.117 C 
BRANCH  10  11
ATOM     11  C   UNL A   1      12.616   6.097   7.265  1.00  0.00     0.172 C 
ATOM     12  O   UNL A   1      13.668   6.939   7.107  1.00  0.00    -0.648 OA
ATOM     13  O   UNL A   1      11.707   5.999   6.451  1.00  0.00    -0.648 OA
ENDBRANCH  10  11
ENDBRANCH   9  10
ENDBRANCH   6   9
ENDBRANCH   1   3
TORSDOF 4
ENDMDL
MODEL 5
REMARK VINA RESULT:      -6.5      1.397      1.729
REMARK  4 active torsions:
REMARK  status: ('A' for Active; 'I' for Inactive)
REMARK    1  A    between atoms: O_1  and  C_11 
REMARK    2  A    between atoms: C_4  and  C_5 
REMARK    3  A    between atoms: C_4  and  C_6 
REMARK    4  A    between atoms: C_6  and  C_12 
ROOT
ATOM      1  O   UNL A   1      11.341   6.576  14.350  1.00  0.00    -0.361 OA
ATOM      2  H   UNL A   1      11.352   7.301  14.944  1.00  0.00     0.217 HD
ENDROOT
BRANCH   1   3
ATOM      3  C   UNL A   1      12.314   6.456  13.405  1.00  0.00     0.065 A 
ATOM      4  C   UNL A   1      13.654   6.599  13.762  1.00  0.00     0.037 A 
ATOM      5  C   UNL A   1      14.651   6.478  12.795  1.00  0.00     0.010 A 
ATOM      6  C   UNL A   1      14.308   6.214  11.469  1.00  0.00    -0.058 A 
ATOM      7  C   UNL A   1      12.968   6.070  11.112  1.00  0.00     0.010 A 
ATOM      8  C   UNL A   1      11.970   6.192  12.079  1.00  0.00     0.037 A 
BRANCH   6   9
ATOM      9  C   UNL A   1      15.374   6.083  10.435  1.00  0.00     0.049 C 
BRANCH   9  10
ATOM     10  C   UNL A   1      16.794   6.062  11.011  1.00  0.00     0.117 C 
BRANCH  10  11
ATOM     11  C   UNL A   1      17.776   6.756  10.098  1.00  0.00     0.172 C 
ATOM     12  O   UNL A   1      18.300   5.929   9.160  1.00  0.00    -0.648 OA
ATOM     13  O   UNL A   1      18.054   7.946  10.174  1.00  0.00    -0.648 OA
ENDBRANCH  10  11
ENDBRANCH   9  10
ENDBRANCH   6   9
ENDBRANCH   1   3
TORSDOF 4
ENDMDL
MODEL 6
REMARK VINA RESULT:      -6.3      3.250      4.355
REMARK  4 active torsions:
REMARK  status: ('A' for Active; 'I' for Inactive)
REMARK    1  A    between atoms: O_1  and  C_11 
REMARK    2  A    between atoms: C_4  and  C_5 
REMARK    3  A    between atoms: C_4  and  C_6 
REMARK    4  A    between atoms: C_6  and  C_12 
ROOT
ATOM      1  O   UNL A   1      13.996   7.230  15.508  1.00  0.00    -0.361 OA
ATOM      2  H   UNL A   1      13.372   7.622  16.087  1.00  0.00     0.217 HD
ENDROOT
BRANCH   1   3
ATOM      3  C   UNL A   1      13.615   6.846  14.259  1.00  0.00     0.065 A 
ATOM      4  C   UNL A   1      12.262   6.792  13.928  1.00  0.00     0.037 A 
ATOM      5  C   UNL A   1      11.871   6.398  12.648  1.00  0.00     0.010 A 
ATOM      6  C   UNL A   1      12.835   6.056  11.699  1.00  0.00    -0.058 A 
ATOM      7  C   UNL A   1      14.188   6.110  12.030  1.00  0.00     0.010 A 
ATOM      8  C   UNL A   1      14.579   6.505  13.309  1.00  0.00     0.037 A 
BRANCH   6   9
ATOM      9  C   UNL A   1      12.418   5.636  10.331  1.00  0.00     0.049 C 
BRANCH   9  10
ATOM     10  C   UNL A   1      13.466   5.923   9.250  1.00  0.00     0.117 C 
BRANCH  10  11
ATOM     11  C   UNL A   1      13.011   5.446   7.891  1.00  0.00     0.172 C 
ATOM     12  O   UNL A   1      13.180   6.378   6.921  1.00  0.00    -0.648 OA
ATOM     13  O   UNL A   1      12.561   4.328   7.678  1.00  0.00    -0.648 OA
ENDBRANCH  10  11
ENDBRANCH   9  10
ENDBRANCH   6   9
ENDBRANCH   1   3
TORSDOF 4
ENDMDL
MODEL 7
REMARK VINA RESULT:      -6.3      1.561      1.662
REMARK  4 active torsions:
REMARK  status: ('A' for Active; 'I' for Inactive)
REMARK    1  A    between atoms: O_1  and  C_11 
REMARK    2  A    between atoms: C_4  and  C_5 
REMARK    3  A    between atoms: C_4  and  C_6 
REMARK    4  A    between atoms: C_6  and  C_12 
ROOT
ATOM      1  O   UNL A   1      11.074   4.977  10.641  1.00  0.00    -0.361 OA
ATOM      2  H   UNL A   1      10.830   4.365   9.974  1.00  0.00     0.217 HD
ENDROOT
BRANCH   1   3
ATOM      3  C   UNL A   1      12.355   5.430  10.711  1.00  0.00     0.065 A 
ATOM      4  C   UNL A   1      12.971   5.592  11.952  1.00  0.00     0.037 A 
ATOM      5  C   UNL A   1      14.283   6.057  12.025  1.00  0.00     0.010 A 
ATOM      6  C   UNL A   1      14.982   6.362  10.856  1.00  0.00    -0.058 A 
ATOM      7  C   UNL A   1      14.366   6.200   9.615  1.00  0.00     0.010 A 
ATOM      8  C   UNL A   1      13.053   5.735   9.542  1.00  0.00     0.037 A 
BRANCH   6   9
ATOM      9  C   UNL A   1      16.385   6.859  10.933  1.00  0.00     0.049 C 
BRANCH   9  10
ATOM     10  C   UNL A   1      17.439   5.756  10.790  1.00  0.00     0.117 C 
BRANCH  10  11
ATOM     11  C   UNL A   1      18.260   5.602  12.049  1.00  0.00     0.172 C 
ATOM     12  O   UNL A   1      19.316   4.766  11.891  1.00  0.00    -0.648 OA
ATOM     13  O   UNL A   1      18.018   6.188  13.096  1.00  0.00    -0.648 OA
ENDBRANCH  10  11
ENDBRANCH   9  10
ENDBRANCH   6   9
ENDBRANCH   1   3
TORSDOF 4
ENDMDL
MODEL 8
REMARK VINA RESULT:      -6.3      2.783      4.727
REMARK  4 active torsions:
REMARK  status: ('A' for Active; 'I' for Inactive)
REMARK    1  A    between atoms: O_1  and  C_11 
REMARK    2  A    between atoms: C_4  and  C_5 
REMARK    3  A    between atoms: C_4  and  C_6 
REMARK    4  A    between atoms: C_6  and  C_12 
ROOT
ATOM      1  O   UNL A   1      15.908   6.096  14.122  1.00  0.00    -0.361 OA
ATOM      2  H   UNL A   1      16.793   6.300  13.890  1.00  0.00     0.217 HD
ENDROOT
BRANCH   1   3
ATOM      3  C   UNL A   1      14.960   5.988  13.152  1.00  0.00     0.065 A 
ATOM      4  C   UNL A   1      15.294   6.224  11.819  1.00  0.00     0.037 A 
ATOM      5  C   UNL A   1      14.323   6.115  10.825  1.00  0.00     0.010 A 
ATOM      6  C   UNL A   1      13.014   5.770  11.164  1.00  0.00    -0.058 A 
ATOM      7  C   UNL A   1      12.679   5.534  12.497  1.00  0.00     0.010 A 
ATOM      8  C   UNL A   1      13.650   5.644  13.491  1.00  0.00     0.037 A 
BRANCH   6   9
ATOM      9  C   UNL A   1      11.975   5.652  10.101  1.00  0.00     0.049 C 
BRANCH   9  10
ATOM     10  C   UNL A   1      12.308   6.431   8.824  1.00  0.00     0.117 C 
BRANCH  10  11
ATOM     11  C   UNL A   1      12.392   5.520   7.622  1.00  0.00     0.172 C 
ATOM     12  O   UNL A   1      12.154   6.166   6.453  1.00  0.00    -0.648 OA
ATOM     13  O   UNL A   1      12.670   4.330   7.687  1.00  0.00    -0.648 OA
ENDBRANCH  10  11
ENDBRANCH   9  10
ENDBRANCH   6   9
ENDBRANCH   1   3
TORSDOF 4
ENDMDL
MODEL 9
REMARK VINA RESULT:      -6.1      2.927      3.920
REMARK  4 active torsions:
REMARK  status: ('A' for Active; 'I' for Inactive)
REMARK    1  A    between atoms: O_1  and  C_11 
REMARK    2  A    between atoms: C_4  and  C_5 
REMARK    3  A    between atoms: C_4  and  C_6 
REMARK    4  A    between atoms: C_6  and  C_12 
ROOT
ATOM      1  O   UNL A   1      11.955   6.929  16.990  1.00  0.00    -0.361 OA
ATOM      2  H   UNL A   1      11.464   7.713  17.139  1.00  0.00     0.217 HD
ENDROOT
BRANCH   1   3
ATOM      3  C   UNL A   1      12.580   6.734  15.798  1.00  0.00     0.065 A 
ATOM      4  C   UNL A   1      13.963   6.553  15.756  1.00  0.00     0.037 A 
ATOM      5  C   UNL A   1      14.605   6.355  14.535  1.00  0.00     0.010 A 
ATOM      6  C   UNL A   1      13.864   6.338  13.352  1.00  0.00    -0.058 A 
ATOM      7  C   UNL A   1      12.482   6.519  13.393  1.00  0.00     0.010 A 
ATOM      8  C   UNL A   1      11.840   6.718  14.615  1.00  0.00     0.037 A 
BRANCH   6   9
ATOM      9  C   UNL A   1      14.550   6.126  12.045  1.00  0.00     0.049 C 
BRANCH   9  10
ATOM     10  C   UNL A   1      13.588   5.932  10.867  1.00  0.00     0.117 C 
BRANCH  10  11
ATOM     11  C   UNL A   1      14.297   6.067   9.541  1.00  0.00     0.172 C 
ATOM     12  O   UNL A   1      15.634   6.254   9.674  1.00  0.00    -0.648 OA
ATOM     13  O   UNL A   1      13.735   5.991   8.457  1.00  0.00    -0.648 OA
ENDBRANCH  10  11
ENDBRANCH   9  10
ENDBRANCH   6   9
ENDBRANCH   1   3
TORSDOF 4
ENDMDL
