MODEL 1
REMARK VINA RESULT:      -6.7      0.000      0.000
REMARK  4 active torsions:
REMARK  status: ('A' for Active; 'I' for Inactive)
REMARK    1  A    between atoms: O_1  and  C_11 
REMARK    2  A    between atoms: C_4  and  C_5 
REMARK    3  A    between atoms: C_4  and  C_6 
REMARK    4  A    between atoms: C_6  and  C_12 
ROOT
ATOM      1  O   UNL A   1      11.081   5.062  10.543  1.00  0.00    -0.361 OA
ATOM      2  H   UNL A   1      10.640   4.401  11.039  1.00  0.00     0.217 HD
ENDROOT
BRANCH   1   3
ATOM      3  C   UNL A   1      12.357   5.411  10.859  1.00  0.00     0.065 A 
ATOM      4  C   UNL A   1      13.233   5.834   9.860  1.00  0.00     0.037 A 
ATOM      5  C   UNL A   1      14.542   6.191  10.183  1.00  0.00     0.010 A 
ATOM      6  C   UNL A   1      14.976   6.125  11.507  1.00  0.00    -0.058 A 
ATOM      7  C   UNL A   1      14.101   5.702  12.507  1.00  0.00     0.010 A 
ATOM      8  C   UNL A   1      12.792   5.345  12.184  1.00  0.00     0.037 A 
BRANCH   6   9
ATOM      9  C   UNL A   1      16.375   6.507  11.853  1.00  0.00     0.049 C 
BRANCH   9  10
ATOM     10  C   UNL A   1      17.437   5.785  11.016  1.00  0.00     0.117 C 
BRANCH  10  11
ATOM     11  C   UNL A   1      18.090   6.715  10.021  1.00  0.00     0.172 C 
ATOM     12  O   UNL A   1      18.531   6.074   8.910  1.00  0.00    -0.648 OA
ATOM     13  O   UNL A   1      18.189   7.924  10.182  1.00  0.00    -0.648 OA
ENDBRANCH  10  11
ENDBRANCH   9  10
ENDBRANCH   6   9
ENDBRANCH   1   3
TORSDOF 4
ENDMDL
MODEL 2
REMARK VINA RESULT:      -6.7      0.084      1.397
REMARK  4 active torsions:
REMARK  status: ('A' for Active; 'I' for Inactive)
REMARK    1  A    between atoms: O_1  and  C_11 
REMARK    2  A    between atoms: C_4  and  C_5 
REMARK    3  A    between atoms: C_4  and  C_6 
REMARK    4  A    between atoms: C_6  and  C_12 
ROOT
ATOM      1  O   UNL A   1      11.138   5.120  10.427  1.00  0.00    -0.361 OA
ATOM      2  H   UNL A   1      10.535   4.837  11.087  1.00  0.00     0.217 HD
ENDROOT
BRANCH   1   3
ATOM      3  C   UNL A   1      12.411   5.457  10.769  1.00  0.00     0.065 A 
ATOM      4  C   UNL A   1      12.821   5.377  12.100  1.00  0.00     0.037 A 
ATOM      5  C   UNL A   1      14.125   5.723  12.452  1.00  0.00     0.010 A 
ATOM      6  C   UNL A   1      15.021   6.151  11.472  1.00  0.00    -0.058 A 
ATOM      7  C   UNL A   1      14.612   6.230  10.141  1.00  0.00     0.010 A 
ATOM      8  C   UNL A   1      13.308   5.884   9.789  1.00  0.00     0.037 A 
BRANCH   6   9
ATOM      9  C   UNL A   1      16.416   6.520  11.847  1.00  0.00     0.049 C 
BRANCH   9  10
ATOM     10  C   UNL A   1      17.489   5.789  11.033  1.00  0.00     0.117 C 
BRANCH  10  11
ATOM     11  C   UNL A   1      18.126   6.696  10.008  1.00  0.00     0.172 C 
ATOM     12  O   UNL A   1      18.522   6.035   8.892  1.00  0.00    -0.648 OA
ATOM     13  O   UNL A   1      18.251   7.905  10.152  1.00  0.00    -0.648 OA
ENDBRANCH  10  11
ENDBRANCH   9  10
ENDBRANCH   6   9
ENDBRANCH   1   3
TORSDOF 4
ENDMDL
MODEL 3
REMARK VINA RESULT:      -6.6      2.721      4.495
REMARK  4 active torsions:
REMARK  status: ('A' for Active; 'I' for Inactive)
REMARK    1  A    between atoms: O_1  and  C_11 
REMARK    2  A    between atoms: C_4  and  C_5 
REMARK    3  A    between atoms: C_4  and  C_6 
REMARK    4  A    between atoms: C_6  and  C_12 
ROOT
ATOM      1  O   UNL A   1      15.873   6.044  13.972  1.00  0.00    -0.361 OA
ATOM      2  H   UNL A   1      16.635   5.502  13.917  1.00  0.00     0.217 HD
ENDROOT
BRANCH   1   3
ATOM      3  C   UNL A   1      14.979   6.066  12.945  1.00  0.00     0.065 A 
ATOM      4  C   UNL A   1      15.430   6.173  11.630  1.00  0.00     0.037 A 
ATOM      5  C   UNL A   1      14.515   6.197  10.578  1.00  0.00     0.010 A 
ATOM      6  C   UNL A   1      13.147   6.114  10.841  1.00  0.00    -0.058 A 
ATOM      7  C   UNL A   1      12.696   6.007  12.156  1.00  0.00     0.010 A 
ATOM      8  C   UNL A   1      13.611   5.984  13.208  1.00  0.00     0.037 A 
BRANCH   6   9
ATOM      9  C   UNL A   1      12.169   6.138   9.716  1.00  0.00     0.049 C 
BRANCH   9  10
ATOM     10  C   UNL A   1      12.586   5.281   8.516  1.00  0.00     0.117 C 
BRANCH  10  11
ATOM     11  C   UNL A   1      12.580   6.078   7.233  1.00  0.00     0.172 C 
ATOM     12  O   UNL A   1      13.662   6.887   7.110  1.00  0.00    -0.648 OA
ATOM     13  O   UNL A   1      11.709   5.988   6.379  1.00  0.00    -0.648 OA
ENDBRANCH  10  11
ENDBRANCH   9  10
ENDBRANCH   6   9
ENDBRANCH   1   3
TORSDOF 4
ENDMDL
MODEL 4
REMARK VINA RESULT:      -6.5      1.532      1.920
REMARK  4 active torsions:
REMARK  status: ('A' for Active; 'I' for Inactive)
REMARK    1  A    between atoms: O_1  and  C_11 
REMARK    2  A    between atoms: C_4  and  C_5 
REMARK    3  A    between atoms: C_4  and  C_6 
REMARK    4  A    between atoms: C_6  and  C_12 
ROOT
ATOM      1  O   UNL A   1      11.294   6.633  14.306  1.00  0.00    -0.361 OA
ATOM      2  H   UNL A   1      11.414   7.182  15.055  1.00  0.00     0.217 HD
ENDROOT
BRANCH   1   3
ATOM      3  C   UNL A   1      12.297   6.495  13.396  1.00  0.00     0.065 A 
ATOM      4  C   UNL A   1      11.998   6.193  12.068  1.00  0.00     0.037 A 
ATOM      5  C   UNL A   1      13.025   6.051  11.136  1.00  0.00     0.010 A 
ATOM      6  C   UNL A   1      14.354   6.211  11.532  1.00  0.00    -0.058 A 
ATOM      7  C   UNL A   1      14.653   6.513  12.860  1.00  0.00     0.010 A 
ATOM      8  C   UNL A   1      13.626   6.655  13.792  1.00  0.00     0.037 A 
BRANCH   6   9
ATOM      9  C   UNL A   1      15.452   6.060  10.535  1.00  0.00     0.049 C 
BRANCH   9  10
ATOM     10  C   UNL A   1      16.853   6.265  11.124  1.00  0.00     0.117 C 
BRANCH  10  11
ATOM     11  C   UNL A   1      17.809   6.833  10.103  1.00  0.00     0.172 C 
ATOM     12  O   UNL A   1      18.211   5.915   9.189  1.00  0.00    -0.648 OA
ATOM     13  O   UNL A   1      18.167   8.003  10.082  1.00  0.00    -0.648 OA
ENDBRANCH  10  11
ENDBRANCH   9  10
ENDBRANCH   6   9
ENDBRANCH   1   3
TORSDOF 4
ENDMDL
MODEL 5
REMARK VINA RESULT:      -6.5      1.474      2.300
REMARK  4 active torsions:
REMARK  status: ('A' for Active; 'I' for Inactive)
REMARK    1  A    between atoms: O_1  and  C_11 
REMARK    2  A    between atoms: C_4  and  C_5 
REMARK    3  A    between atoms: C_4  and  C_6 
REMARK    4  A    between atoms: C_6  and  C_12 
ROOT
ATOM      1  O   UNL A   1      11.274   6.594  14.163  1.00  0.00    -0.361 OA
ATOM      2  H   UNL A   1      11.348   7.197  14.876  1.00  0.00     0.217 HD
ENDROOT
BRANCH   1   3
ATOM      3  C   UNL A   1      12.295   6.466  13.272  1.00  0.00     0.065 A 
ATOM      4  C   UNL A   1      13.613   6.644  13.691  1.00  0.00     0.037 A 
ATOM      5  C   UNL A   1      14.659   6.514  12.778  1.00  0.00     0.010 A 
ATOM      6  C   UNL A   1      14.388   6.207  11.444  1.00  0.00    -0.058 A 
ATOM      7  C   UNL A   1      13.069   6.030  11.025  1.00  0.00     0.010 A 
ATOM      8  C   UNL A   1      12.023   6.159  11.938  1.00  0.00     0.037 A 
BRANCH   6   9
ATOM      9  C   UNL A   1      15.506   6.068  10.469  1.00  0.00     0.049 C 
BRANCH   9  10
ATOM     10  C   UNL A   1      16.895   6.254  11.090  1.00  0.00     0.117 C 
BRANCH  10  11
ATOM     11  C   UNL A   1      17.917   6.663  10.057  1.00  0.00     0.172 C 
ATOM     12  O   UNL A   1      18.301   7.958  10.179  1.00  0.00    -0.648 OA
ATOM     13  O   UNL A   1      18.375   5.903   9.214  1.00  0.00    -0.648 OA
ENDBRANCH  10  11
ENDBRANCH   9  10
ENDBRANCH   6   9
ENDBRANCH   1   3
TORSDOF 4
ENDMDL
MODEL 6
REMARK VINA RESULT:      -6.5      1.475      2.068
REMARK  4 active torsions:
REMARK  status: ('A' for Active; 'I' for Inactive)
REMARK    1  A    between atoms: O_1  and  C_11 
REMARK    2  A    between atoms: C_4  and  C_5 
REMARK    3  A    between atoms: C_4  and  C_6 
REMARK    4  A    between atoms: C_6  and  C_12 
ROOT
ATOM      1  O   UNL A   1      11.017   4.951  11.086  1.00  0.00    -0.361 OA
ATOM      2  H   UNL A   1      10.748   4.249  10.527  1.00  0.00     0.217 HD
ENDROOT
BRANCH   1   3
ATOM      3  C   UNL A   1      12.290   5.429  11.013  1.00  0.00     0.065 A 
ATOM      4  C   UNL A   1      13.011   5.672  12.181  1.00  0.00     0.037 A 
ATOM      5  C   UNL A   1      14.314   6.163  12.108  1.00  0.00     0.010 A 
ATOM      6  C   UNL A   1      14.898   6.410  10.864  1.00  0.00    -0.058 A 
ATOM      7  C   UNL A   1      14.176   6.166   9.696  1.00  0.00     0.010 A 
ATOM      8  C   UNL A   1      12.873   5.676   9.769  1.00  0.00     0.037 A 
BRANCH   6   9
ATOM      9  C   UNL A   1      16.291   6.933  10.785  1.00  0.00     0.049 C 
BRANCH   9  10
ATOM     10  C   UNL A   1      17.354   5.839  10.634  1.00  0.00     0.117 C 
BRANCH  10  11
ATOM     11  C   UNL A   1      18.137   5.642  11.910  1.00  0.00     0.172 C 
ATOM     12  O   UNL A   1      19.189   4.799  11.758  1.00  0.00    -0.648 OA
ATOM     13  O   UNL A   1      17.872   6.202  12.965  1.00  0.00    -0.648 OA
ENDBRANCH  10  11
ENDBRANCH   9  10
ENDBRANCH   6   9
ENDBRANCH   1   3
TORSDOF 4
ENDMDL
MODEL 7
REMARK VINA RESULT:      -6.5      2.074      4.952
REMARK  4 active torsions:
REMARK  status: ('A' for Active; 'I' for Inactive)
REMARK    1  A    between atoms: O_1  and  C_11 
REMARK    2  A    between atoms: C_4  and  C_5 
REMARK    3  A    between atoms: C_4  and  C_6 
REMARK    4  A    between atoms: C_6  and  C_12 
ROOT
ATOM      1  O   UNL A   1      17.528   6.127  12.508  1.00  0.00    -0.361 OA
ATOM      2  H   UNL A   1      18.065   5.359  12.534  1.00  0.00     0.217 HD
ENDROOT
BRANCH   1   3
ATOM      3  C   UNL A   1      16.295   6.075  11.936  1.00  0.00     0.065 A 
ATOM      4  C   UNL A   1      15.166   5.863  12.728  1.00  0.00     0.037 A 
ATOM      5  C   UNL A   1      13.902   5.808  12.143  1.00  0.00     0.010 A 
ATOM      6  C   UNL A   1      13.765   5.965  10.763  1.00  0.00    -0.058 A 
ATOM      7  C   UNL A   1      14.893   6.177   9.971  1.00  0.00     0.010 A 
ATOM      8  C   UNL A   1      16.157   6.232  10.556  1.00  0.00     0.037 A 
BRANCH   6   9
ATOM      9  C   UNL A   1      12.413   5.908  10.137  1.00  0.00     0.049 C 
BRANCH   9  10
ATOM     10  C   UNL A   1      12.343   6.572   8.757  1.00  0.00     0.117 C 
BRANCH  10  11
ATOM     11  C   UNL A   1      12.306   5.549   7.647  1.00  0.00     0.172 C 
ATOM     12  O   UNL A   1      11.953   6.082   6.450  1.00  0.00    -0.648 OA
ATOM     13  O   UNL A   1      12.588   4.368   7.799  1.00  0.00    -0.648 OA
ENDBRANCH  10  11
ENDBRANCH   9  10
ENDBRANCH   6   9
ENDBRANCH   1   3
TORSDOF 4
ENDMDL
MODEL 8
REMARK VINA RESULT:      -6.4      3.358      4.497
REMARK  4 active torsions:
REMARK  status: ('A' for Active; 'I' for Inactive)
REMARK    1  A    between atoms: O_1  and  C_11 
REMARK    2  A    between atoms: C_4  and  C_5 
REMARK    3  A    between atoms: C_4  and  C_6 
REMARK    4  A    between atoms: C_6  and  C_12 
ROOT
ATOM      1  O   UNL A   1      12.865   7.128  15.530  1.00  0.00    -0.361 OA
ATOM      2  H   UNL A   1      13.375   7.818  15.907  1.00  0.00     0.217 HD
ENDROOT
BRANCH   1   3
ATOM      3  C   UNL A   1      13.025   6.802  14.219  1.00  0.00     0.065 A 
ATOM      4  C   UNL A   1      11.909   6.628  13.402  1.00  0.00     0.037 A 
ATOM      5  C   UNL A   1      12.072   6.292  12.058  1.00  0.00     0.010 A 
ATOM      6  C   UNL A   1      13.354   6.130  11.530  1.00  0.00    -0.058 A 
ATOM      7  C   UNL A   1      14.470   6.305  12.348  1.00  0.00     0.010 A 
ATOM      8  C   UNL A   1      14.307   6.640  13.691  1.00  0.00     0.037 A 
BRANCH   6   9
ATOM      9  C   UNL A   1      13.529   5.772  10.094  1.00  0.00     0.049 C 
BRANCH   9  10
ATOM     10  C   UNL A   1      12.324   6.130   9.217  1.00  0.00     0.117 C 
BRANCH  10  11
ATOM     11  C   UNL A   1      12.523   5.686   7.788  1.00  0.00     0.172 C 
ATOM     12  O   UNL A   1      12.611   4.338   7.661  1.00  0.00    -0.648 OA
ATOM     13  O   UNL A   1      12.574   6.454   6.836  1.00  0.00    -0.648 OA
ENDBRANCH  10  11
ENDBRANCH   9  10
ENDBRANCH   6   9
ENDBRANCH   1   3
TORSDOF 4
ENDMDL
MODEL 9
REMARK VINA RESULT:      -6.3      2.118      4.998
REMARK  4 active torsions:
REMARK  status: ('A' for Active; 'I' for Inactive)
REMARK    1  A    between atoms: O_1  and  C_11 
REMARK    2  A    between atoms: C_4  and  C_5 
REMARK    3  A    between atoms: C_4  and  C_6 
REMARK    4  A    between atoms: C_6  and  C_12 
ROOT
ATOM      1  O   UNL A   1      18.169   5.636  13.168  1.00  0.00    -0.361 OA
ATOM      2  H   UNL A   1      18.893   5.154  12.819  1.00  0.00     0.217 HD
ENDROOT
BRANCH   1   3
ATOM      3  C   UNL A   1      17.026   5.766  12.441  1.00  0.00     0.065 A 
ATOM      4  C   UNL A   1      15.785   5.716  13.075  1.00  0.00     0.037 A 
ATOM      5  C   UNL A   1      14.614   5.849  12.330  1.00  0.00     0.010 A 
ATOM      6  C   UNL A   1      14.683   6.032  10.948  1.00  0.00    -0.058 A 
ATOM      7  C   UNL A   1      15.924   6.083  10.314  1.00  0.00     0.010 A 
ATOM      8  C   UNL A   1      17.095   5.950  11.059  1.00  0.00     0.037 A 
BRANCH   6   9
ATOM      9  C   UNL A   1      13.431   6.175  10.152  1.00  0.00     0.049 C 
BRANCH   9  10
ATOM     10  C   UNL A   1      13.583   5.762   8.683  1.00  0.00     0.117 C 
BRANCH  10  11
ATOM     11  C   UNL A   1      12.467   6.315   7.830  1.00  0.00     0.172 C 
ATOM     12  O   UNL A   1      11.539   6.993   8.551  1.00  0.00    -0.648 OA
ATOM     13  O   UNL A   1      12.414   6.191   6.614  1.00  0.00    -0.648 OA
ENDBRANCH  10  11
ENDBRANCH   9  10
ENDBRANCH   6   9
ENDBRANCH   1   3
TORSDOF 4
ENDMDL
