MODEL 1
REMARK VINA RESULT:      -6.7      0.000      0.000
REMARK  4 active torsions:
REMARK  status: ('A' for Active; 'I' for Inactive)
REMARK    1  A    between atoms: O_1  and  C_11 
REMARK    2  A    between atoms: C_4  and  C_5 
REMARK    3  A    between atoms: C_4  and  C_6 
REMARK    4  A    between atoms: C_6  and  C_12 
ROOT
ATOM      1  O   UNL A   1      11.151   5.139  10.446  1.00  0.00    -0.361 OA
ATOM      2  H   UNL A   1      10.861   4.251  10.512  1.00  0.00     0.217 HD
ENDROOT
BRANCH   1   3
ATOM      3  C   UNL A   1      12.427   5.465  10.793  1.00  0.00     0.065 A 
ATOM      4  C   UNL A   1      13.328   5.889   9.817  1.00  0.00     0.037 A 
ATOM      5  C   UNL A   1      14.635   6.221  10.170  1.00  0.00     0.010 A 
ATOM      6  C   UNL A   1      15.042   6.130  11.502  1.00  0.00    -0.058 A 
ATOM      7  C   UNL A   1      14.141   5.706  12.478  1.00  0.00     0.010 A 
ATOM      8  C   UNL A   1      12.834   5.373  12.124  1.00  0.00     0.037 A 
BRANCH   6   9
ATOM      9  C   UNL A   1      16.440   6.486  11.881  1.00  0.00     0.049 C 
BRANCH   9  10
ATOM     10  C   UNL A   1      17.507   5.774  11.042  1.00  0.00     0.117 C 
BRANCH  10  11
ATOM     11  C   UNL A   1      18.130   6.703  10.028  1.00  0.00     0.172 C 
ATOM     12  O   UNL A   1      18.535   6.062   8.904  1.00  0.00    -0.648 OA
ATOM     13  O   UNL A   1      18.236   7.912  10.186  1.00  0.00    -0.648 OA
ENDBRANCH  10  11
ENDBRANCH   9  10
ENDBRANCH   6   9
ENDBRANCH   1   3
TORSDOF 4
ENDMDL
MODEL 2
REMARK VINA RESULT:      -6.6      2.732      4.672
REMARK  4 active torsions:
REMARK  status: ('A' for Active; 'I' for Inactive)
REMARK    1  A    between atoms: O_1  and  C_11 
REMARK    2  A    between atoms: C_4  and  C_5 
REMARK    3  A    between atoms: C_4  and  C_6 
REMARK    4  A    between atoms: C_6  and  C_12 
ROOT
ATOM      1  O   UNL A   1      15.887   5.808  14.060  1.00  0.00    -0.361 OA
ATOM      2  H   UNL A   1      15.659   6.157  14.900  1.00  0.00     0.217 HD
ENDROOT
BRANCH   1   3
ATOM      3  C   UNL A   1      15.010   5.902  13.024  1.00  0.00     0.065 A 
ATOM      4  C   UNL A   1      13.638   5.830  13.262  1.00  0.00     0.037 A 
ATOM      5  C   UNL A   1      12.739   5.925  12.201  1.00  0.00     0.010 A 
ATOM      6  C   UNL A   1      13.212   6.091  10.899  1.00  0.00    -0.058 A 
ATOM      7  C   UNL A   1      14.584   6.162  10.660  1.00  0.00     0.010 A 
ATOM      8  C   UNL A   1      15.483   6.068  11.721  1.00  0.00     0.037 A 
BRANCH   6   9
ATOM      9  C   UNL A   1      12.250   6.192   9.764  1.00  0.00     0.049 C 
BRANCH   9  10
ATOM     10  C   UNL A   1      12.623   5.320   8.559  1.00  0.00     0.117 C 
BRANCH  10  11
ATOM     11  C   UNL A   1      12.581   6.104   7.269  1.00  0.00     0.172 C 
ATOM     12  O   UNL A   1      13.669   6.895   7.097  1.00  0.00    -0.648 OA
ATOM     13  O   UNL A   1      11.676   6.018   6.449  1.00  0.00    -0.648 OA
ENDBRANCH  10  11
ENDBRANCH   9  10
ENDBRANCH   6   9
ENDBRANCH   1   3
TORSDOF 4
ENDMDL
MODEL 3
REMARK VINA RESULT:      -6.6      1.541      1.986
REMARK  4 active torsions:
REMARK  status: ('A' for Active; 'I' for Inactive)
REMARK    1  A    between atoms: O_1  and  C_11 
REMARK    2  A    between atoms: C_4  and  C_5 
REMARK    3  A    between atoms: C_4  and  C_6 
REMARK    4  A    between atoms: C_6  and  C_12 
ROOT
ATOM      1  O   UNL A   1      11.389   6.557  14.387  1.00  0.00    -0.361 OA
ATOM      2  H   UNL A   1      11.621   6.878  15.236  1.00  0.00     0.217 HD
ENDROOT
BRANCH   1   3
ATOM      3  C   UNL A   1      12.339   6.455  13.417  1.00  0.00     0.065 A 
ATOM      4  C   UNL A   1      11.964   6.223  12.094  1.00  0.00     0.037 A 
ATOM      5  C   UNL A   1      12.936   6.116  11.101  1.00  0.00     0.010 A 
ATOM      6  C   UNL A   1      14.286   6.243  11.430  1.00  0.00    -0.058 A 
ATOM      7  C   UNL A   1      14.662   6.476  12.752  1.00  0.00     0.010 A 
ATOM      8  C   UNL A   1      13.689   6.582  13.746  1.00  0.00     0.037 A 
BRANCH   6   9
ATOM      9  C   UNL A   1      15.326   6.130  10.367  1.00  0.00     0.049 C 
BRANCH   9  10
ATOM     10  C   UNL A   1      16.744   5.923  10.911  1.00  0.00     0.117 C 
BRANCH  10  11
ATOM     11  C   UNL A   1      17.769   6.674  10.095  1.00  0.00     0.172 C 
ATOM     12  O   UNL A   1      18.346   5.906   9.137  1.00  0.00    -0.648 OA
ATOM     13  O   UNL A   1      18.037   7.857  10.259  1.00  0.00    -0.648 OA
ENDBRANCH  10  11
ENDBRANCH   9  10
ENDBRANCH   6   9
ENDBRANCH   1   3
TORSDOF 4
ENDMDL
MODEL 4
REMARK VINA RESULT:      -6.5      1.571      2.239
REMARK  4 active torsions:
REMARK  status: ('A' for Active; 'I' for Inactive)
REMARK    1  A    between atoms: O_1  and  C_11 
REMARK    2  A    between atoms: C_4  and  C_5 
REMARK    3  A    between atoms: C_4  and  C_6 
REMARK    4  A    between atoms: C_6  and  C_12 
ROOT
ATOM      1  O   UNL A   1      11.426   6.572  14.429  1.00  0.00    -0.361 OA
ATOM      2  H   UNL A   1      10.511   6.587  14.229  1.00  0.00     0.217 HD
ENDROOT
BRANCH   1   3
ATOM      3  C   UNL A   1      12.339   6.461  13.426  1.00  0.00     0.065 A 
ATOM      4  C   UNL A   1      13.701   6.560  13.709  1.00  0.00     0.037 A 
ATOM      5  C   UNL A   1      14.638   6.448  12.682  1.00  0.00     0.010 A 
ATOM      6  C   UNL A   1      14.212   6.236  11.370  1.00  0.00    -0.058 A 
ATOM      7  C   UNL A   1      12.850   6.137  11.087  1.00  0.00     0.010 A 
ATOM      8  C   UNL A   1      11.914   6.249  12.114  1.00  0.00     0.037 A 
BRANCH   6   9
ATOM      9  C   UNL A   1      15.213   6.115  10.272  1.00  0.00     0.049 C 
BRANCH   9  10
ATOM     10  C   UNL A   1      16.657   5.967  10.766  1.00  0.00     0.117 C 
BRANCH  10  11
ATOM     11  C   UNL A   1      17.599   6.880  10.018  1.00  0.00     0.172 C 
ATOM     12  O   UNL A   1      18.489   6.204   9.249  1.00  0.00    -0.648 OA
ATOM     13  O   UNL A   1      17.551   8.101  10.073  1.00  0.00    -0.648 OA
ENDBRANCH  10  11
ENDBRANCH   9  10
ENDBRANCH   6   9
ENDBRANCH   1   3
TORSDOF 4
ENDMDL
MODEL 5
REMARK VINA RESULT:      -6.5      1.996      4.718
REMARK  4 active torsions:
REMARK  status: ('A' for Active; 'I' for Inactive)
REMARK    1  A    between atoms: O_1  and  C_11 
REMARK    2  A    between atoms: C_4  and  C_5 
REMARK    3  A    between atoms: C_4  and  C_6 
REMARK    4  A    between atoms: C_6  and  C_12 
ROOT
ATOM      1  O   UNL A   1      17.540   6.329  12.509  1.00  0.00    -0.361 OA
ATOM      2  H   UNL A   1      17.887   5.663  13.069  1.00  0.00     0.217 HD
ENDROOT
BRANCH   1   3
ATOM      3  C   UNL A   1      16.298   6.186  11.971  1.00  0.00     0.065 A 
ATOM      4  C   UNL A   1      16.121   6.275  10.590  1.00  0.00     0.037 A 
ATOM      5  C   UNL A   1      14.849   6.129  10.038  1.00  0.00     0.010 A 
ATOM      6  C   UNL A   1      13.752   5.895  10.867  1.00  0.00    -0.058 A 
ATOM      7  C   UNL A   1      13.928   5.807  12.248  1.00  0.00     0.010 A 
ATOM      8  C   UNL A   1      15.200   5.952  12.800  1.00  0.00     0.037 A 
BRANCH   6   9
ATOM      9  C   UNL A   1      12.391   5.739  10.277  1.00  0.00     0.049 C 
BRANCH   9  10
ATOM     10  C   UNL A   1      12.201   6.494   8.957  1.00  0.00     0.117 C 
BRANCH  10  11
ATOM     11  C   UNL A   1      12.362   5.580   7.765  1.00  0.00     0.172 C 
ATOM     12  O   UNL A   1      12.421   6.254   6.589  1.00  0.00    -0.648 OA
ATOM     13  O   UNL A   1      12.457   4.363   7.847  1.00  0.00    -0.648 OA
ENDBRANCH  10  11
ENDBRANCH   9  10
ENDBRANCH   6   9
ENDBRANCH   1   3
TORSDOF 4
ENDMDL
MODEL 6
REMARK VINA RESULT:      -6.4      3.203      4.398
REMARK  4 active torsions:
REMARK  status: ('A' for Active; 'I' for Inactive)
REMARK    1  A    between atoms: O_1  and  C_11 
REMARK    2  A    between atoms: C_4  and  C_5 
REMARK    3  A    between atoms: C_4  and  C_6 
REMARK    4  A    between atoms: C_6  and  C_12 
ROOT
ATOM      1  O   UNL A   1      12.672   7.073  15.597  1.00  0.00    -0.361 OA
ATOM      2  H   UNL A   1      13.351   6.986  16.236  1.00  0.00     0.217 HD
ENDROOT
BRANCH   1   3
ATOM      3  C   UNL A   1      12.923   6.773  14.294  1.00  0.00     0.065 A 
ATOM      4  C   UNL A   1      11.866   6.593  13.402  1.00  0.00     0.037 A 
ATOM      5  C   UNL A   1      12.122   6.285  12.067  1.00  0.00     0.010 A 
ATOM      6  C   UNL A   1      13.438   6.156  11.621  1.00  0.00    -0.058 A 
ATOM      7  C   UNL A   1      14.496   6.336  12.512  1.00  0.00     0.010 A 
ATOM      8  C   UNL A   1      14.240   6.644  13.848  1.00  0.00     0.037 A 
BRANCH   6   9
ATOM      9  C   UNL A   1      13.713   5.828  10.193  1.00  0.00     0.049 C 
BRANCH   9  10
ATOM     10  C   UNL A   1      12.530   6.103   9.258  1.00  0.00     0.117 C 
BRANCH  10  11
ATOM     11  C   UNL A   1      12.829   5.675   7.841  1.00  0.00     0.172 C 
ATOM     12  O   UNL A   1      12.628   4.349   7.637  1.00  0.00    -0.648 OA
ATOM     13  O   UNL A   1      13.189   6.443   6.959  1.00  0.00    -0.648 OA
ENDBRANCH  10  11
ENDBRANCH   9  10
ENDBRANCH   6   9
ENDBRANCH   1   3
TORSDOF 4
ENDMDL
MODEL 7
REMARK VINA RESULT:      -6.4      2.101      4.770
REMARK  4 active torsions:
REMARK  status: ('A' for Active; 'I' for Inactive)
REMARK    1  A    between atoms: O_1  and  C_11 
REMARK    2  A    between atoms: C_4  and  C_5 
REMARK    3  A    between atoms: C_4  and  C_6 
REMARK    4  A    between atoms: C_6  and  C_12 
ROOT
ATOM      1  O   UNL A   1      17.212   6.147  13.018  1.00  0.00    -0.361 OA
ATOM      2  H   UNL A   1      17.345   5.679  13.818  1.00  0.00     0.217 HD
ENDROOT
BRANCH   1   3
ATOM      3  C   UNL A   1      16.019   6.057  12.369  1.00  0.00     0.065 A 
ATOM      4  C   UNL A   1      14.867   5.707  13.072  1.00  0.00     0.037 A 
ATOM      5  C   UNL A   1      13.644   5.613  12.408  1.00  0.00     0.010 A 
ATOM      6  C   UNL A   1      13.573   5.869  11.038  1.00  0.00    -0.058 A 
ATOM      7  C   UNL A   1      14.725   6.220  10.335  1.00  0.00     0.010 A 
ATOM      8  C   UNL A   1      15.948   6.314  10.999  1.00  0.00     0.037 A 
BRANCH   6   9
ATOM      9  C   UNL A   1      12.266   5.770  10.328  1.00  0.00     0.049 C 
BRANCH   9  10
ATOM     10  C   UNL A   1      12.241   6.494   8.977  1.00  0.00     0.117 C 
BRANCH  10  11
ATOM     11  C   UNL A   1      12.613   5.570   7.843  1.00  0.00     0.172 C 
ATOM     12  O   UNL A   1      13.119   6.229   6.770  1.00  0.00    -0.648 OA
ATOM     13  O   UNL A   1      12.498   4.353   7.889  1.00  0.00    -0.648 OA
ENDBRANCH  10  11
ENDBRANCH   9  10
ENDBRANCH   6   9
ENDBRANCH   1   3
TORSDOF 4
ENDMDL
MODEL 8
REMARK VINA RESULT:      -6.4      1.468      1.785
REMARK  4 active torsions:
REMARK  status: ('A' for Active; 'I' for Inactive)
REMARK    1  A    between atoms: O_1  and  C_11 
REMARK    2  A    between atoms: C_4  and  C_5 
REMARK    3  A    between atoms: C_4  and  C_6 
REMARK    4  A    between atoms: C_6  and  C_12 
ROOT
ATOM      1  O   UNL A   1      11.122   4.999  10.661  1.00  0.00    -0.361 OA
ATOM      2  H   UNL A   1      10.405   5.600  10.713  1.00  0.00     0.217 HD
ENDROOT
BRANCH   1   3
ATOM      3  C   UNL A   1      12.401   5.459  10.743  1.00  0.00     0.065 A 
ATOM      4  C   UNL A   1      13.109   5.762   9.581  1.00  0.00     0.037 A 
ATOM      5  C   UNL A   1      14.419   6.232   9.664  1.00  0.00     0.010 A 
ATOM      6  C   UNL A   1      15.023   6.398  10.911  1.00  0.00    -0.058 A 
ATOM      7  C   UNL A   1      14.315   6.094  12.073  1.00  0.00     0.010 A 
ATOM      8  C   UNL A   1      13.005   5.624  11.990  1.00  0.00     0.037 A 
BRANCH   6   9
ATOM      9  C   UNL A   1      16.424   6.900  11.000  1.00  0.00     0.049 C 
BRANCH   9  10
ATOM     10  C   UNL A   1      17.481   5.847  10.649  1.00  0.00     0.117 C 
BRANCH  10  11
ATOM     11  C   UNL A   1      18.334   5.494  11.844  1.00  0.00     0.172 C 
ATOM     12  O   UNL A   1      17.951   6.139  12.974  1.00  0.00    -0.648 OA
ATOM     13  O   UNL A   1      19.258   4.692  11.808  1.00  0.00    -0.648 OA
ENDBRANCH  10  11
ENDBRANCH   9  10
ENDBRANCH   6   9
ENDBRANCH   1   3
TORSDOF 4
ENDMDL
MODEL 9
REMARK VINA RESULT:      -6.1      2.717      4.876
REMARK  4 active torsions:
REMARK  status: ('A' for Active; 'I' for Inactive)
REMARK    1  A    between atoms: O_1  and  C_11 
REMARK    2  A    between atoms: C_4  and  C_5 
REMARK    3  A    between atoms: C_4  and  C_6 
REMARK    4  A    between atoms: C_6  and  C_12 
ROOT
ATOM      1  O   UNL A   1      13.669   6.077   7.895  1.00  0.00    -0.361 OA
ATOM      2  H   UNL A   1      12.833   5.964   7.486  1.00  0.00     0.217 HD
ENDROOT
BRANCH   1   3
ATOM      3  C   UNL A   1      13.782   5.990   9.248  1.00  0.00     0.065 A 
ATOM      4  C   UNL A   1      12.655   5.725  10.026  1.00  0.00     0.037 A 
ATOM      5  C   UNL A   1      12.769   5.637  11.413  1.00  0.00     0.010 A 
ATOM      6  C   UNL A   1      14.011   5.816  12.024  1.00  0.00    -0.058 A 
ATOM      7  C   UNL A   1      15.137   6.081  11.246  1.00  0.00     0.010 A 
ATOM      8  C   UNL A   1      15.024   6.169   9.859  1.00  0.00     0.037 A 
BRANCH   6   9
ATOM      9  C   UNL A   1      14.133   5.721  13.506  1.00  0.00     0.049 C 
BRANCH   9  10
ATOM     10  C   UNL A   1      13.768   7.017  14.240  1.00  0.00     0.117 C 
BRANCH  10  11
ATOM     11  C   UNL A   1      12.415   6.920  14.902  1.00  0.00     0.172 C 
ATOM     12  O   UNL A   1      12.496   6.697  16.237  1.00  0.00    -0.648 OA
ATOM     13  O   UNL A   1      11.354   7.054  14.307  1.00  0.00    -0.648 OA
ENDBRANCH  10  11
ENDBRANCH   9  10
ENDBRANCH   6   9
ENDBRANCH   1   3
TORSDOF 4
ENDMDL
