MODEL 1
REMARK VINA RESULT:      -6.6      0.000      0.000
REMARK  7 active torsions:
REMARK  status: ('A' for Active; 'I' for Inactive)
REMARK    1  A    between atoms: O_1  and  C_12 
REMARK    2  A    between atoms: O_3  and  C_15 
REMARK    3  A    between atoms: C_5  and  C_6 
REMARK    4  A    between atoms: C_5  and  C_7 
REMARK    5  A    between atoms: C_6  and  C_8 
REMARK    6  A    between atoms: C_7  and  C_9 
REMARK    7  A    between atoms: C_9  and  C_14 
ROOT
HETATM    1  O   UNL     1     -53.849  51.765   9.782  1.00  0.00    -0.358 OA
HETATM    2  H   UNL     1     -54.723  52.101   9.823  1.00  0.00     0.217 HD
ENDROOT
BRANCH   1   3
HETATM    3  C   UNL     1     -53.589  50.488  10.181  1.00  0.00     0.099 A 
HETATM    4  C   UNL     1     -53.458  50.209  11.541  1.00  0.00     0.046 A 
HETATM    5  C   UNL     1     -53.191  48.906  11.962  1.00  0.00    -0.055 A 
HETATM    6  C   UNL     1     -53.054  47.883  11.023  1.00  0.00     0.010 A 
HETATM    7  C   UNL     1     -53.186  48.164   9.663  1.00  0.00     0.040 A 
HETATM    8  C   UNL     1     -53.453  49.466   9.242  1.00  0.00     0.098 A 
BRANCH   5   9
HETATM    9  C   UNL     1     -53.047  48.604  13.433  1.00  0.00     0.038 C 
BRANCH   9  10
HETATM   10  C   UNL     1     -52.566  47.180  13.731  1.00  0.00     0.005 C 
BRANCH  10  11
HETATM   11  C   UNL     1     -51.144  47.136  14.308  1.00  0.00     0.011 C 
BRANCH  11  12
HETATM   12  C   UNL     1     -50.918  48.201  15.381  1.00  0.00     0.113 C 
BRANCH  12  13
HETATM   13  C   UNL     1     -49.711  47.929  16.250  1.00  0.00     0.172 C 
HETATM   14  O   UNL     1     -48.564  48.345  15.651  1.00  0.00    -0.648 OA
HETATM   15  O   UNL     1     -49.735  47.420  17.362  1.00  0.00    -0.648 OA
ENDBRANCH  12  13
ENDBRANCH  11  12
ENDBRANCH  10  11
ENDBRANCH   9  10
ENDBRANCH   5   9
BRANCH   8  16
HETATM   16  O   UNL     1     -53.579  49.728   7.911  1.00  0.00    -0.358 OA
HETATM   17  H   UNL     1     -52.819  49.914   7.396  1.00  0.00     0.217 HD
ENDBRANCH   8  16
ENDBRANCH   1   3
TORSDOF 7
ENDMDL
MODEL 2
REMARK VINA RESULT:      -6.5      2.582      3.496
REMARK  7 active torsions:
REMARK  status: ('A' for Active; 'I' for Inactive)
REMARK    1  A    between atoms: O_1  and  C_12 
REMARK    2  A    between atoms: O_3  and  C_15 
REMARK    3  A    between atoms: C_5  and  C_6 
REMARK    4  A    between atoms: C_5  and  C_7 
REMARK    5  A    between atoms: C_6  and  C_8 
REMARK    6  A    between atoms: C_7  and  C_9 
REMARK    7  A    between atoms: C_9  and  C_14 
ROOT
HETATM    1  O   UNL     1     -56.741  46.046   9.192  1.00  0.00    -0.358 OA
HETATM    2  H   UNL     1     -57.164  45.952   8.361  1.00  0.00     0.217 HD
ENDROOT
BRANCH   1   3
HETATM    3  C   UNL     1     -55.533  46.670   9.276  1.00  0.00     0.099 A 
HETATM    4  C   UNL     1     -55.430  47.874   9.974  1.00  0.00     0.046 A 
HETATM    5  C   UNL     1     -54.199  48.524  10.065  1.00  0.00    -0.055 A 
HETATM    6  C   UNL     1     -53.071  47.971   9.458  1.00  0.00     0.010 A 
HETATM    7  C   UNL     1     -53.175  46.767   8.761  1.00  0.00     0.040 A 
HETATM    8  C   UNL     1     -54.406  46.117   8.670  1.00  0.00     0.098 A 
BRANCH   5   9
HETATM    9  C   UNL     1     -54.088  49.826  10.819  1.00  0.00     0.038 C 
BRANCH   9  10
HETATM   10  C   UNL     1     -53.105  49.782  11.994  1.00  0.00     0.005 C 
BRANCH  10  11
HETATM   11  C   UNL     1     -53.561  48.844  13.121  1.00  0.00     0.011 C 
BRANCH  11  12
HETATM   12  C   UNL     1     -52.384  48.207  13.860  1.00  0.00     0.113 C 
BRANCH  12  13
HETATM   13  C   UNL     1     -52.000  48.946  15.123  1.00  0.00     0.172 C 
HETATM   14  O   UNL     1     -50.921  48.377  15.722  1.00  0.00    -0.648 OA
HETATM   15  O   UNL     1     -52.559  49.942  15.562  1.00  0.00    -0.648 OA
ENDBRANCH  12  13
ENDBRANCH  11  12
ENDBRANCH  10  11
ENDBRANCH   9  10
ENDBRANCH   5   9
BRANCH   8  16
HETATM   16  O   UNL     1     -54.494  44.942   7.985  1.00  0.00    -0.358 OA
HETATM   17  H   UNL     1     -54.284  44.135   8.412  1.00  0.00     0.217 HD
ENDBRANCH   8  16
ENDBRANCH   1   3
TORSDOF 7
ENDMDL
MODEL 3
REMARK VINA RESULT:      -6.4      4.189      6.284
REMARK  7 active torsions:
REMARK  status: ('A' for Active; 'I' for Inactive)
REMARK    1  A    between atoms: O_1  and  C_12 
REMARK    2  A    between atoms: O_3  and  C_15 
REMARK    3  A    between atoms: C_5  and  C_6 
REMARK    4  A    between atoms: C_5  and  C_7 
REMARK    5  A    between atoms: C_6  and  C_8 
REMARK    6  A    between atoms: C_7  and  C_9 
REMARK    7  A    between atoms: C_9  and  C_14 
ROOT
HETATM    1  O   UNL     1     -53.502  45.171   4.979  1.00  0.00    -0.358 OA
HETATM    2  H   UNL     1     -53.751  45.279   4.082  1.00  0.00     0.217 HD
ENDROOT
BRANCH   1   3
HETATM    3  C   UNL     1     -52.741  46.120   5.594  1.00  0.00     0.099 A 
HETATM    4  C   UNL     1     -53.107  46.578   6.859  1.00  0.00     0.046 A 
HETATM    5  C   UNL     1     -52.338  47.551   7.499  1.00  0.00    -0.055 A 
HETATM    6  C   UNL     1     -51.203  48.066   6.871  1.00  0.00     0.010 A 
HETATM    7  C   UNL     1     -50.837  47.607   5.606  1.00  0.00     0.040 A 
HETATM    8  C   UNL     1     -51.607  46.635   4.967  1.00  0.00     0.098 A 
BRANCH   5   9
HETATM    9  C   UNL     1     -52.734  48.047   8.867  1.00  0.00     0.038 C 
BRANCH   9  10
HETATM   10  C   UNL     1     -54.249  48.152   9.074  1.00  0.00     0.005 C 
BRANCH  10  11
HETATM   11  C   UNL     1     -54.627  48.906  10.356  1.00  0.00     0.011 C 
BRANCH  11  12
HETATM   12  C   UNL     1     -53.483  49.774  10.881  1.00  0.00     0.113 C 
BRANCH  12  13
HETATM   13  C   UNL     1     -53.609  51.230  10.490  1.00  0.00     0.172 C 
HETATM   14  O   UNL     1     -53.459  52.047  11.565  1.00  0.00    -0.648 OA
HETATM   15  O   UNL     1     -53.800  51.648   9.357  1.00  0.00    -0.648 OA
ENDBRANCH  12  13
ENDBRANCH  11  12
ENDBRANCH  10  11
ENDBRANCH   9  10
ENDBRANCH   5   9
BRANCH   8  16
HETATM   16  O   UNL     1     -51.240  46.195   3.731  1.00  0.00    -0.358 OA
HETATM   17  H   UNL     1     -51.003  46.811   3.066  1.00  0.00     0.217 HD
ENDBRANCH   8  16
ENDBRANCH   1   3
TORSDOF 7
ENDMDL
MODEL 4
REMARK VINA RESULT:      -6.4      0.902      1.962
REMARK  7 active torsions:
REMARK  status: ('A' for Active; 'I' for Inactive)
REMARK    1  A    between atoms: O_1  and  C_12 
REMARK    2  A    between atoms: O_3  and  C_15 
REMARK    3  A    between atoms: C_5  and  C_6 
REMARK    4  A    between atoms: C_5  and  C_7 
REMARK    5  A    between atoms: C_6  and  C_8 
REMARK    6  A    between atoms: C_7  and  C_9 
REMARK    7  A    between atoms: C_9  and  C_14 
ROOT
HETATM    1  O   UNL     1     -53.426  50.049   7.840  1.00  0.00    -0.358 OA
HETATM    2  H   UNL     1     -53.454  49.216   7.412  1.00  0.00     0.217 HD
ENDROOT
BRANCH   1   3
HETATM    3  C   UNL     1     -53.420  50.115   9.202  1.00  0.00     0.099 A 
HETATM    4  C   UNL     1     -53.200  48.954   9.942  1.00  0.00     0.046 A 
HETATM    5  C   UNL     1     -53.193  49.007  11.337  1.00  0.00    -0.055 A 
HETATM    6  C   UNL     1     -53.406  50.221  11.989  1.00  0.00     0.010 A 
HETATM    7  C   UNL     1     -53.624  51.383  11.247  1.00  0.00     0.040 A 
HETATM    8  C   UNL     1     -53.632  51.329   9.854  1.00  0.00     0.098 A 
BRANCH   5   9
HETATM    9  C   UNL     1     -52.957  47.751  12.138  1.00  0.00     0.038 C 
BRANCH   9  10
HETATM   10  C   UNL     1     -52.638  48.007  13.615  1.00  0.00     0.005 C 
BRANCH  10  11
HETATM   11  C   UNL     1     -51.414  47.225  14.108  1.00  0.00     0.011 C 
BRANCH  11  12
HETATM   12  C   UNL     1     -50.770  47.865  15.339  1.00  0.00     0.113 C 
BRANCH  12  13
HETATM   13  C   UNL     1     -49.264  47.733  15.364  1.00  0.00     0.172 C 
HETATM   14  O   UNL     1     -48.838  46.754  14.523  1.00  0.00    -0.648 OA
HETATM   15  O   UNL     1     -48.501  48.419  16.030  1.00  0.00    -0.648 OA
ENDBRANCH  12  13
ENDBRANCH  11  12
ENDBRANCH  10  11
ENDBRANCH   9  10
ENDBRANCH   5   9
BRANCH   8  16
HETATM   16  O   UNL     1     -53.848  52.469   9.140  1.00  0.00    -0.358 OA
HETATM   17  H   UNL     1     -53.809  52.450   8.204  1.00  0.00     0.217 HD
ENDBRANCH   8  16
ENDBRANCH   1   3
TORSDOF 7
ENDMDL
MODEL 5
REMARK VINA RESULT:      -6.3      4.201      5.384
REMARK  7 active torsions:
REMARK  status: ('A' for Active; 'I' for Inactive)
REMARK    1  A    between atoms: O_1  and  C_12 
REMARK    2  A    between atoms: O_3  and  C_15 
REMARK    3  A    between atoms: C_5  and  C_6 
REMARK    4  A    between atoms: C_5  and  C_7 
REMARK    5  A    between atoms: C_6  and  C_8 
REMARK    6  A    between atoms: C_7  and  C_9 
REMARK    7  A    between atoms: C_9  and  C_14 
ROOT
HETATM    1  O   UNL     1     -53.415  50.375   7.729  1.00  0.00    -0.358 OA
HETATM    2  H   UNL     1     -52.778  50.931   7.324  1.00  0.00     0.217 HD
ENDROOT
BRANCH   1   3
HETATM    3  C   UNL     1     -53.393  50.185   9.079  1.00  0.00     0.099 A 
HETATM    4  C   UNL     1     -53.123  48.915   9.587  1.00  0.00     0.046 A 
HETATM    5  C   UNL     1     -53.100  48.706  10.966  1.00  0.00    -0.055 A 
HETATM    6  C   UNL     1     -53.347  49.768  11.837  1.00  0.00     0.010 A 
HETATM    7  C   UNL     1     -53.615  51.039  11.327  1.00  0.00     0.040 A 
HETATM    8  C   UNL     1     -53.639  51.247   9.948  1.00  0.00     0.098 A 
BRANCH   5   9
HETATM    9  C   UNL     1     -52.809  47.332  11.516  1.00  0.00     0.038 C 
BRANCH   9  10
HETATM   10  C   UNL     1     -52.145  46.387  10.509  1.00  0.00     0.005 C 
BRANCH  10  11
HETATM   11  C   UNL     1     -52.784  44.992  10.484  1.00  0.00     0.011 C 
BRANCH  11  12
HETATM   12  C   UNL     1     -53.221  44.577   9.079  1.00  0.00     0.113 C 
BRANCH  12  13
HETATM   13  C   UNL     1     -54.233  45.517   8.464  1.00  0.00     0.172 C 
HETATM   14  O   UNL     1     -53.786  46.027   7.286  1.00  0.00    -0.648 OA
HETATM   15  O   UNL     1     -55.330  45.786   8.933  1.00  0.00    -0.648 OA
ENDBRANCH  12  13
ENDBRANCH  11  12
ENDBRANCH  10  11
ENDBRANCH   9  10
ENDBRANCH   5   9
BRANCH   8  16
HETATM   16  O   UNL     1     -53.903  52.492   9.462  1.00  0.00    -0.358 OA
HETATM   17  H   UNL     1     -53.708  53.248   9.981  1.00  0.00     0.217 HD
ENDBRANCH   8  16
ENDBRANCH   1   3
TORSDOF 7
ENDMDL
MODEL 6
REMARK VINA RESULT:      -6.2      0.677      1.730
REMARK  7 active torsions:
REMARK  status: ('A' for Active; 'I' for Inactive)
REMARK    1  A    between atoms: O_1  and  C_12 
REMARK    2  A    between atoms: O_3  and  C_15 
REMARK    3  A    between atoms: C_5  and  C_6 
REMARK    4  A    between atoms: C_5  and  C_7 
REMARK    5  A    between atoms: C_6  and  C_8 
REMARK    6  A    between atoms: C_7  and  C_9 
REMARK    7  A    between atoms: C_9  and  C_14 
ROOT
HETATM    1  O   UNL     1     -52.860  47.421   8.634  1.00  0.00    -0.358 OA
HETATM    2  H   UNL     1     -53.395  47.425   7.864  1.00  0.00     0.217 HD
ENDROOT
BRANCH   1   3
HETATM    3  C   UNL     1     -53.072  48.344   9.615  1.00  0.00     0.099 A 
HETATM    4  C   UNL     1     -52.946  47.964  10.951  1.00  0.00     0.046 A 
HETATM    5  C   UNL     1     -53.162  48.898  11.965  1.00  0.00    -0.055 A 
HETATM    6  C   UNL     1     -53.505  50.211  11.642  1.00  0.00     0.010 A 
HETATM    7  C   UNL     1     -53.630  50.590  10.305  1.00  0.00     0.040 A 
HETATM    8  C   UNL     1     -53.414  49.656   9.292  1.00  0.00     0.098 A 
BRANCH   5   9
HETATM    9  C   UNL     1     -53.027  48.487  13.410  1.00  0.00     0.038 C 
BRANCH   9  10
HETATM   10  C   UNL     1     -52.403  47.101  13.606  1.00  0.00     0.005 C 
BRANCH  10  11
HETATM   11  C   UNL     1     -50.993  47.158  14.209  1.00  0.00     0.011 C 
BRANCH  11  12
HETATM   12  C   UNL     1     -50.913  48.092  15.417  1.00  0.00     0.113 C 
BRANCH  12  13
HETATM   13  C   UNL     1     -49.627  47.949  16.200  1.00  0.00     0.172 C 
HETATM   14  O   UNL     1     -48.544  48.232  15.431  1.00  0.00    -0.648 OA
HETATM   15  O   UNL     1     -49.545  47.640  17.381  1.00  0.00    -0.648 OA
ENDBRANCH  12  13
ENDBRANCH  11  12
ENDBRANCH  10  11
ENDBRANCH   9  10
ENDBRANCH   5   9
BRANCH   8  16
HETATM   16  O   UNL     1     -53.540  50.038   7.990  1.00  0.00    -0.358 OA
HETATM   17  H   UNL     1     -52.911  50.619   7.609  1.00  0.00     0.217 HD
ENDBRANCH   8  16
ENDBRANCH   1   3
TORSDOF 7
ENDMDL
MODEL 7
REMARK VINA RESULT:      -6.2      3.759      5.599
REMARK  7 active torsions:
REMARK  status: ('A' for Active; 'I' for Inactive)
REMARK    1  A    between atoms: O_1  and  C_12 
REMARK    2  A    between atoms: O_3  and  C_15 
REMARK    3  A    between atoms: C_5  and  C_6 
REMARK    4  A    between atoms: C_5  and  C_7 
REMARK    5  A    between atoms: C_6  and  C_8 
REMARK    6  A    between atoms: C_7  and  C_9 
REMARK    7  A    between atoms: C_9  and  C_14 
ROOT
HETATM    1  O   UNL     1     -53.471  45.120   4.889  1.00  0.00    -0.358 OA
HETATM    2  H   UNL     1     -53.970  45.359   4.132  1.00  0.00     0.217 HD
ENDROOT
BRANCH   1   3
HETATM    3  C   UNL     1     -52.740  46.062   5.549  1.00  0.00     0.099 A 
HETATM    4  C   UNL     1     -53.116  46.441   6.838  1.00  0.00     0.046 A 
HETATM    5  C   UNL     1     -52.377  47.406   7.524  1.00  0.00    -0.055 A 
HETATM    6  C   UNL     1     -51.264  47.992   6.920  1.00  0.00     0.010 A 
HETATM    7  C   UNL     1     -50.889  47.612   5.631  1.00  0.00     0.040 A 
HETATM    8  C   UNL     1     -51.628  46.647   4.946  1.00  0.00     0.098 A 
BRANCH   5   9
HETATM    9  C   UNL     1     -52.783  47.817   8.917  1.00  0.00     0.038 C 
BRANCH   9  10
HETATM   10  C   UNL     1     -53.398  49.218   8.997  1.00  0.00     0.005 C 
BRANCH  10  11
HETATM   11  C   UNL     1     -54.223  49.439  10.272  1.00  0.00     0.011 C 
BRANCH  11  12
HETATM   12  C   UNL     1     -53.371  49.938  11.439  1.00  0.00     0.113 C 
BRANCH  12  13
HETATM   13  C   UNL     1     -53.377  49.004  12.628  1.00  0.00     0.172 C 
HETATM   14  O   UNL     1     -52.855  47.791  12.309  1.00  0.00    -0.648 OA
HETATM   15  O   UNL     1     -53.776  49.284  13.750  1.00  0.00    -0.648 OA
ENDBRANCH  12  13
ENDBRANCH  11  12
ENDBRANCH  10  11
ENDBRANCH   9  10
ENDBRANCH   5   9
BRANCH   8  16
HETATM   16  O   UNL     1     -51.253  46.285   3.687  1.00  0.00    -0.358 OA
HETATM   17  H   UNL     1     -51.602  45.506   3.300  1.00  0.00     0.217 HD
ENDBRANCH   8  16
ENDBRANCH   1   3
TORSDOF 7
ENDMDL
MODEL 8
REMARK VINA RESULT:      -6.2      4.078      6.724
REMARK  7 active torsions:
REMARK  status: ('A' for Active; 'I' for Inactive)
REMARK    1  A    between atoms: O_1  and  C_12 
REMARK    2  A    between atoms: O_3  and  C_15 
REMARK    3  A    between atoms: C_5  and  C_6 
REMARK    4  A    between atoms: C_5  and  C_7 
REMARK    5  A    between atoms: C_6  and  C_8 
REMARK    6  A    between atoms: C_7  and  C_9 
REMARK    7  A    between atoms: C_9  and  C_14 
ROOT
HETATM    1  O   UNL     1     -53.250  50.704   7.868  1.00  0.00    -0.358 OA
HETATM    2  H   UNL     1     -53.942  50.770   7.239  1.00  0.00     0.217 HD
ENDROOT
BRANCH   1   3
HETATM    3  C   UNL     1     -53.399  49.908   8.964  1.00  0.00     0.099 A 
HETATM    4  C   UNL     1     -53.429  48.523   8.806  1.00  0.00     0.046 A 
HETATM    5  C   UNL     1     -53.583  47.697   9.920  1.00  0.00    -0.055 A 
HETATM    6  C   UNL     1     -53.708  48.257  11.191  1.00  0.00     0.010 A 
HETATM    7  C   UNL     1     -53.677  49.643  11.349  1.00  0.00     0.040 A 
HETATM    8  C   UNL     1     -53.523  50.468  10.235  1.00  0.00     0.098 A 
BRANCH   5   9
HETATM    9  C   UNL     1     -53.617  46.199   9.748  1.00  0.00     0.038 C 
BRANCH   9  10
HETATM   10  C   UNL     1     -54.877  45.682   9.045  1.00  0.00     0.005 C 
BRANCH  10  11
HETATM   11  C   UNL     1     -54.632  44.394   8.248  1.00  0.00     0.011 C 
BRANCH  11  12
HETATM   12  C   UNL     1     -55.027  43.141   9.029  1.00  0.00     0.113 C 
BRANCH  12  13
HETATM   13  C   UNL     1     -56.383  42.595   8.641  1.00  0.00     0.172 C 
HETATM   14  O   UNL     1     -56.998  41.996   9.694  1.00  0.00    -0.648 OA
HETATM   15  O   UNL     1     -56.895  42.685   7.533  1.00  0.00    -0.648 OA
ENDBRANCH  12  13
ENDBRANCH  11  12
ENDBRANCH  10  11
ENDBRANCH   9  10
ENDBRANCH   5   9
BRANCH   8  16
HETATM   16  O   UNL     1     -53.495  51.820  10.401  1.00  0.00    -0.358 OA
HETATM   17  H   UNL     1     -54.255  52.269  10.716  1.00  0.00     0.217 HD
ENDBRANCH   8  16
ENDBRANCH   1   3
TORSDOF 7
ENDMDL
MODEL 9
REMARK VINA RESULT:      -6.1      3.792      6.322
REMARK  7 active torsions:
REMARK  status: ('A' for Active; 'I' for Inactive)
REMARK    1  A    between atoms: O_1  and  C_12 
REMARK    2  A    between atoms: O_3  and  C_15 
REMARK    3  A    between atoms: C_5  and  C_6 
REMARK    4  A    between atoms: C_5  and  C_7 
REMARK    5  A    between atoms: C_6  and  C_8 
REMARK    6  A    between atoms: C_7  and  C_9 
REMARK    7  A    between atoms: C_9  and  C_14 
ROOT
HETATM    1  O   UNL     1     -53.619  52.072   9.031  1.00  0.00    -0.358 OA
HETATM    2  H   UNL     1     -54.029  52.030   8.189  1.00  0.00     0.217 HD
ENDROOT
BRANCH   1   3
HETATM    3  C   UNL     1     -53.504  50.945   9.789  1.00  0.00     0.099 A 
HETATM    4  C   UNL     1     -53.457  49.700   9.163  1.00  0.00     0.046 A 
HETATM    5  C   UNL     1     -53.342  48.539   9.928  1.00  0.00    -0.055 A 
HETATM    6  C   UNL     1     -53.275  48.623  11.319  1.00  0.00     0.010 A 
HETATM    7  C   UNL     1     -53.322  49.870  11.945  1.00  0.00     0.040 A 
HETATM    8  C   UNL     1     -53.437  51.030  11.179  1.00  0.00     0.098 A 
BRANCH   5   9
HETATM    9  C   UNL     1     -53.292  47.192   9.251  1.00  0.00     0.038 C 
BRANCH   9  10
HETATM   10  C   UNL     1     -51.902  46.547   9.252  1.00  0.00     0.005 C 
BRANCH  10  11
HETATM   11  C   UNL     1     -51.131  46.782   7.946  1.00  0.00     0.011 C 
BRANCH  11  12
HETATM   12  C   UNL     1     -52.047  47.197   6.795  1.00  0.00     0.113 C 
BRANCH  12  13
HETATM   13  C   UNL     1     -52.440  46.046   5.897  1.00  0.00     0.172 C 
HETATM   14  O   UNL     1     -51.473  45.780   4.979  1.00  0.00    -0.648 OA
HETATM   15  O   UNL     1     -53.478  45.403   5.977  1.00  0.00    -0.648 OA
ENDBRANCH  12  13
ENDBRANCH  11  12
ENDBRANCH  10  11
ENDBRANCH   9  10
ENDBRANCH   5   9
BRANCH   8  16
HETATM   16  O   UNL     1     -53.482  52.241  11.802  1.00  0.00    -0.358 OA
HETATM   17  H   UNL     1     -54.066  52.376  12.522  1.00  0.00     0.217 HD
ENDBRANCH   8  16
ENDBRANCH   1   3
TORSDOF 7
ENDMDL
