MODEL 1
REMARK VINA RESULT:      -6.5      0.000      0.000
REMARK  4 active torsions:
REMARK  status: ('A' for Active; 'I' for Inactive)
REMARK    1  A    between atoms: O_1  and  C_8 
REMARK    2  A    between atoms: O_2  and  C_9 
REMARK    3  A    between atoms: C_5  and  C_11 
REMARK    4  A    between atoms: C_12  and  C_13 
ROOT
ATOM      1  O   UNL A   1     -53.505  50.446   7.969  1.00  0.00    -0.358 OA
ATOM      2  H   UNL A   1     -53.317  50.199   7.085  1.00  0.00     0.217 HD
ENDROOT
BRANCH   1   3
ATOM      3  C   UNL A   1     -53.520  49.504   8.952  1.00  0.00     0.099 A 
ATOM      4  C   UNL A   1     -53.253  49.879  10.268  1.00  0.00     0.050 A 
ATOM      5  C   UNL A   1     -53.268  48.923  11.284  1.00  0.00    -0.033 A 
ATOM      6  C   UNL A   1     -53.552  47.591  10.982  1.00  0.00     0.014 A 
ATOM      7  C   UNL A   1     -53.820  47.215   9.666  1.00  0.00     0.040 A 
ATOM      8  C   UNL A   1     -53.804  48.172   8.651  1.00  0.00     0.098 A 
BRANCH   5   9
ATOM      9  C   UNL A   1     -52.988  49.314  12.656  1.00  0.00     0.018 C 
ATOM     10  C   UNL A   1     -52.407  48.501  13.534  1.00  0.00     0.085 C 
BRANCH  10  11
ATOM     11  C   UNL A   1     -52.183  48.991  14.908  1.00  0.00     0.198 C 
ATOM     12  O   UNL A   1     -51.172  48.280  15.463  1.00  0.00    -0.645 OA
ATOM     13  O   UNL A   1     -52.794  49.885  15.469  1.00  0.00    -0.645 OA
ENDBRANCH  10  11
ENDBRANCH   5   9
BRANCH   8  14
ATOM     14  O   UNL A   1     -54.068  47.793   7.370  1.00  0.00    -0.358 OA
ATOM     15  H   UNL A   1     -54.943  47.844   7.037  1.00  0.00     0.217 HD
ENDBRANCH   8  14
ENDBRANCH   1   3
TORSDOF 4
ENDMDL
MODEL 2
REMARK VINA RESULT:      -6.3      1.896      2.933
REMARK  4 active torsions:
REMARK  status: ('A' for Active; 'I' for Inactive)
REMARK    1  A    between atoms: O_1  and  C_8 
REMARK    2  A    between atoms: O_2  and  C_9 
REMARK    3  A    between atoms: C_5  and  C_11 
REMARK    4  A    between atoms: C_12  and  C_13 
ROOT
ATOM      1  O   UNL A   1     -53.587  49.863   7.869  1.00  0.00    -0.358 OA
ATOM      2  H   UNL A   1     -52.899  50.239   7.355  1.00  0.00     0.217 HD
ENDROOT
BRANCH   1   3
ATOM      3  C   UNL A   1     -53.473  49.812   9.225  1.00  0.00     0.099 A 
ATOM      4  C   UNL A   1     -53.158  48.602   9.843  1.00  0.00     0.050 A 
ATOM      5  C   UNL A   1     -53.037  48.538  11.231  1.00  0.00    -0.033 A 
ATOM      6  C   UNL A   1     -53.229  49.686  12.001  1.00  0.00     0.014 A 
ATOM      7  C   UNL A   1     -53.543  50.896  11.383  1.00  0.00     0.040 A 
ATOM      8  C   UNL A   1     -53.665  50.959   9.995  1.00  0.00     0.098 A 
BRANCH   5   9
ATOM      9  C   UNL A   1     -52.711  47.276  11.875  1.00  0.00     0.018 C 
ATOM     10  C   UNL A   1     -52.228  47.202  13.112  1.00  0.00     0.085 C 
BRANCH  10  11
ATOM     11  C   UNL A   1     -51.912  45.870  13.668  1.00  0.00     0.198 C 
ATOM     12  O   UNL A   1     -50.964  46.012  14.624  1.00  0.00    -0.645 OA
ATOM     13  O   UNL A   1     -52.411  44.808  13.334  1.00  0.00    -0.645 OA
ENDBRANCH  10  11
ENDBRANCH   5   9
BRANCH   8  14
ATOM     14  O   UNL A   1     -53.970  52.147   9.403  1.00  0.00    -0.358 OA
ATOM     15  H   UNL A   1     -54.826  52.286   9.046  1.00  0.00     0.217 HD
ENDBRANCH   8  14
ENDBRANCH   1   3
TORSDOF 4
ENDMDL
MODEL 3
REMARK VINA RESULT:      -6.2      2.659      4.983
REMARK  4 active torsions:
REMARK  status: ('A' for Active; 'I' for Inactive)
REMARK    1  A    between atoms: O_1  and  C_8 
REMARK    2  A    between atoms: O_2  and  C_9 
REMARK    3  A    between atoms: C_5  and  C_11 
REMARK    4  A    between atoms: C_12  and  C_13 
ROOT
ATOM      1  O   UNL A   1     -53.510  51.619   8.848  1.00  0.00    -0.358 OA
ATOM      2  H   UNL A   1     -53.739  52.488   9.114  1.00  0.00     0.217 HD
ENDROOT
BRANCH   1   3
ATOM      3  C   UNL A   1     -53.494  50.609   9.761  1.00  0.00     0.099 A 
ATOM      4  C   UNL A   1     -53.493  49.285   9.321  1.00  0.00     0.050 A 
ATOM      5  C   UNL A   1     -53.475  48.242  10.247  1.00  0.00    -0.033 A 
ATOM      6  C   UNL A   1     -53.455  48.523  11.613  1.00  0.00     0.014 A 
ATOM      7  C   UNL A   1     -53.455  49.847  12.053  1.00  0.00     0.040 A 
ATOM      8  C   UNL A   1     -53.474  50.889  11.126  1.00  0.00     0.098 A 
BRANCH   5   9
ATOM      9  C   UNL A   1     -53.476  46.862   9.788  1.00  0.00     0.018 C 
ATOM     10  C   UNL A   1     -54.538  46.289   9.230  1.00  0.00     0.085 C 
BRANCH  10  11
ATOM     11  C   UNL A   1     -54.440  44.875   8.813  1.00  0.00     0.198 C 
ATOM     12  O   UNL A   1     -53.678  44.210   9.713  1.00  0.00    -0.645 OA
ATOM     13  O   UNL A   1     -54.952  44.372   7.827  1.00  0.00    -0.645 OA
ENDBRANCH  10  11
ENDBRANCH   5   9
BRANCH   8  14
ATOM     14  O   UNL A   1     -53.472  52.178  11.568  1.00  0.00    -0.358 OA
ATOM     15  H   UNL A   1     -54.174  52.754  11.336  1.00  0.00     0.217 HD
ENDBRANCH   8  14
ENDBRANCH   1   3
TORSDOF 4
ENDMDL
MODEL 4
REMARK VINA RESULT:      -6.1      2.509      5.373
REMARK  4 active torsions:
REMARK  status: ('A' for Active; 'I' for Inactive)
REMARK    1  A    between atoms: O_1  and  C_8 
REMARK    2  A    between atoms: O_2  and  C_9 
REMARK    3  A    between atoms: C_5  and  C_11 
REMARK    4  A    between atoms: C_12  and  C_13 
ROOT
ATOM      1  O   UNL A   1     -53.708  51.857   9.035  1.00  0.00    -0.358 OA
ATOM      2  H   UNL A   1     -54.009  51.802   8.150  1.00  0.00     0.217 HD
ENDROOT
BRANCH   1   3
ATOM      3  C   UNL A   1     -53.630  50.732   9.800  1.00  0.00     0.099 A 
ATOM      4  C   UNL A   1     -53.690  49.480   9.188  1.00  0.00     0.050 A 
ATOM      5  C   UNL A   1     -53.610  48.321   9.961  1.00  0.00    -0.033 A 
ATOM      6  C   UNL A   1     -53.468  48.416  11.345  1.00  0.00     0.014 A 
ATOM      7  C   UNL A   1     -53.408  49.668  11.957  1.00  0.00     0.040 A 
ATOM      8  C   UNL A   1     -53.489  50.826  11.184  1.00  0.00     0.098 A 
BRANCH   5   9
ATOM      9  C   UNL A   1     -53.673  47.016   9.323  1.00  0.00     0.018 C 
ATOM     10  C   UNL A   1     -53.253  46.801   8.079  1.00  0.00     0.085 C 
BRANCH  10  11
ATOM     11  C   UNL A   1     -53.378  45.441   7.518  1.00  0.00     0.198 C 
ATOM     12  O   UNL A   1     -53.519  45.536   6.174  1.00  0.00    -0.645 OA
ATOM     13  O   UNL A   1     -53.360  44.393   8.143  1.00  0.00    -0.645 OA
ENDBRANCH  10  11
ENDBRANCH   5   9
BRANCH   8  14
ATOM     14  O   UNL A   1     -53.428  52.043  11.793  1.00  0.00    -0.358 OA
ATOM     15  H   UNL A   1     -54.180  52.383  12.236  1.00  0.00     0.217 HD
ENDBRANCH   8  14
ENDBRANCH   1   3
TORSDOF 4
ENDMDL
MODEL 5
REMARK VINA RESULT:      -6.0      2.259      5.483
REMARK  4 active torsions:
REMARK  status: ('A' for Active; 'I' for Inactive)
REMARK    1  A    between atoms: O_1  and  C_8 
REMARK    2  A    between atoms: O_2  and  C_9 
REMARK    3  A    between atoms: C_5  and  C_11 
REMARK    4  A    between atoms: C_12  and  C_13 
ROOT
ATOM      1  O   UNL A   1     -52.890  49.718  13.429  1.00  0.00    -0.358 OA
ATOM      2  H   UNL A   1     -52.034  50.004  13.680  1.00  0.00     0.217 HD
ENDROOT
BRANCH   1   3
ATOM      3  C   UNL A   1     -53.186  49.527  12.114  1.00  0.00     0.099 A 
ATOM      4  C   UNL A   1     -53.209  48.232  11.596  1.00  0.00     0.050 A 
ATOM      5  C   UNL A   1     -53.512  48.024  10.250  1.00  0.00    -0.033 A 
ATOM      6  C   UNL A   1     -53.795  49.112   9.423  1.00  0.00     0.014 A 
ATOM      7  C   UNL A   1     -53.773  50.406   9.942  1.00  0.00     0.040 A 
ATOM      8  C   UNL A   1     -53.469  50.614  11.287  1.00  0.00     0.098 A 
BRANCH   5   9
ATOM      9  C   UNL A   1     -53.534  46.675   9.710  1.00  0.00     0.018 C 
ATOM     10  C   UNL A   1     -54.603  46.154   9.113  1.00  0.00     0.085 C 
BRANCH  10  11
ATOM     11  C   UNL A   1     -54.526  44.766   8.613  1.00  0.00     0.198 C 
ATOM     12  O   UNL A   1     -55.785  44.295   8.446  1.00  0.00    -0.645 OA
ATOM     13  O   UNL A   1     -53.510  44.133   8.384  1.00  0.00    -0.645 OA
ENDBRANCH  10  11
ENDBRANCH   5   9
BRANCH   8  14
ATOM     14  O   UNL A   1     -53.452  51.883  11.782  1.00  0.00    -0.358 OA
ATOM     15  H   UNL A   1     -53.042  52.570  11.294  1.00  0.00     0.217 HD
ENDBRANCH   8  14
ENDBRANCH   1   3
TORSDOF 4
ENDMDL
MODEL 6
REMARK VINA RESULT:      -5.8      2.874      4.052
REMARK  4 active torsions:
REMARK  status: ('A' for Active; 'I' for Inactive)
REMARK    1  A    between atoms: O_1  and  C_8 
REMARK    2  A    between atoms: O_2  and  C_9 
REMARK    3  A    between atoms: C_5  and  C_11 
REMARK    4  A    between atoms: C_12  and  C_13 
ROOT
ATOM      1  O   UNL A   1     -54.776  46.101   8.236  1.00  0.00    -0.358 OA
ATOM      2  H   UNL A   1     -55.704  46.215   8.182  1.00  0.00     0.217 HD
ENDROOT
BRANCH   1   3
ATOM      3  C   UNL A   1     -54.088  46.616   9.292  1.00  0.00     0.099 A 
ATOM      4  C   UNL A   1     -54.215  47.970   9.602  1.00  0.00     0.050 A 
ATOM      5  C   UNL A   1     -53.516  48.508  10.683  1.00  0.00    -0.033 A 
ATOM      6  C   UNL A   1     -52.691  47.691  11.455  1.00  0.00     0.014 A 
ATOM      7  C   UNL A   1     -52.564  46.336  11.146  1.00  0.00     0.040 A 
ATOM      8  C   UNL A   1     -53.263  45.799  10.065  1.00  0.00     0.098 A 
BRANCH   5   9
ATOM      9  C   UNL A   1     -53.648  49.920  11.003  1.00  0.00     0.018 C 
ATOM     10  C   UNL A   1     -53.699  50.869  10.073  1.00  0.00     0.085 C 
BRANCH  10  11
ATOM     11  C   UNL A   1     -53.817  52.276  10.505  1.00  0.00     0.198 C 
ATOM     12  O   UNL A   1     -54.418  52.984   9.520  1.00  0.00    -0.645 OA
ATOM     13  O   UNL A   1     -53.441  52.742  11.568  1.00  0.00    -0.645 OA
ENDBRANCH  10  11
ENDBRANCH   5   9
BRANCH   8  14
ATOM     14  O   UNL A   1     -53.131  44.475   9.775  1.00  0.00    -0.358 OA
ATOM     15  H   UNL A   1     -53.305  44.167   8.907  1.00  0.00     0.217 HD
ENDBRANCH   8  14
ENDBRANCH   1   3
TORSDOF 4
ENDMDL
MODEL 7
REMARK VINA RESULT:      -5.8      2.569      4.615
REMARK  4 active torsions:
REMARK  status: ('A' for Active; 'I' for Inactive)
REMARK    1  A    between atoms: O_1  and  C_8 
REMARK    2  A    between atoms: O_2  and  C_9 
REMARK    3  A    between atoms: C_5  and  C_11 
REMARK    4  A    between atoms: C_12  and  C_13 
ROOT
ATOM      1  O   UNL A   1     -52.376  45.841  10.282  1.00  0.00    -0.358 OA
ATOM      2  H   UNL A   1     -51.717  45.976   9.629  1.00  0.00     0.217 HD
ENDROOT
BRANCH   1   3
ATOM      3  C   UNL A   1     -52.503  46.721  11.313  1.00  0.00     0.099 A 
ATOM      4  C   UNL A   1     -52.903  48.031  11.052  1.00  0.00     0.050 A 
ATOM      5  C   UNL A   1     -53.039  48.942  12.101  1.00  0.00    -0.033 A 
ATOM      6  C   UNL A   1     -52.777  48.540  13.411  1.00  0.00     0.014 A 
ATOM      7  C   UNL A   1     -52.378  47.229  13.672  1.00  0.00     0.040 A 
ATOM      8  C   UNL A   1     -52.241  46.320  12.623  1.00  0.00     0.098 A 
BRANCH   5   9
ATOM      9  C   UNL A   1     -53.454  50.308  11.829  1.00  0.00     0.018 C 
ATOM     10  C   UNL A   1     -53.441  50.835  10.607  1.00  0.00     0.085 C 
BRANCH  10  11
ATOM     11  C   UNL A   1     -53.866  52.240  10.441  1.00  0.00     0.198 C 
ATOM     12  O   UNL A   1     -53.687  52.890  11.615  1.00  0.00    -0.645 OA
ATOM     13  O   UNL A   1     -54.308  52.748   9.424  1.00  0.00    -0.645 OA
ENDBRANCH  10  11
ENDBRANCH   5   9
BRANCH   8  14
ATOM     14  O   UNL A   1     -51.853  45.042  12.891  1.00  0.00    -0.358 OA
ATOM     15  H   UNL A   1     -51.830  44.735  13.776  1.00  0.00     0.217 HD
ENDBRANCH   8  14
ENDBRANCH   1   3
TORSDOF 4
ENDMDL
MODEL 8
REMARK VINA RESULT:      -5.8      3.266      5.078
REMARK  4 active torsions:
REMARK  status: ('A' for Active; 'I' for Inactive)
REMARK    1  A    between atoms: O_1  and  C_8 
REMARK    2  A    between atoms: O_2  and  C_9 
REMARK    3  A    between atoms: C_5  and  C_11 
REMARK    4  A    between atoms: C_12  and  C_13 
ROOT
ATOM      1  O   UNL A   1     -53.468  45.063   5.250  1.00  0.00    -0.358 OA
ATOM      2  H   UNL A   1     -53.055  44.411   4.720  1.00  0.00     0.217 HD
ENDROOT
BRANCH   1   3
ATOM      3  C   UNL A   1     -52.741  46.109   5.732  1.00  0.00     0.099 A 
ATOM      4  C   UNL A   1     -53.154  46.753   6.899  1.00  0.00     0.050 A 
ATOM      5  C   UNL A   1     -52.416  47.824   7.403  1.00  0.00    -0.033 A 
ATOM      6  C   UNL A   1     -51.264  48.250   6.742  1.00  0.00     0.014 A 
ATOM      7  C   UNL A   1     -50.850  47.605   5.577  1.00  0.00     0.040 A 
ATOM      8  C   UNL A   1     -51.589  46.535   5.072  1.00  0.00     0.098 A 
BRANCH   5   9
ATOM      9  C   UNL A   1     -52.848  48.497   8.618  1.00  0.00     0.018 C 
ATOM     10  C   UNL A   1     -53.232  49.770   8.639  1.00  0.00     0.085 C 
BRANCH  10  11
ATOM     11  C   UNL A   1     -53.637  50.363   9.930  1.00  0.00     0.198 C 
ATOM     12  O   UNL A   1     -53.918  51.674   9.736  1.00  0.00    -0.645 OA
ATOM     13  O   UNL A   1     -53.712  49.787  11.002  1.00  0.00    -0.645 OA
ENDBRANCH  10  11
ENDBRANCH   5   9
BRANCH   8  14
ATOM     14  O   UNL A   1     -51.174  45.912   3.934  1.00  0.00    -0.358 OA
ATOM     15  H   UNL A   1     -51.803  45.540   3.347  1.00  0.00     0.217 HD
ENDBRANCH   8  14
ENDBRANCH   1   3
TORSDOF 4
ENDMDL
MODEL 9
REMARK VINA RESULT:      -5.8      1.378      1.896
REMARK  4 active torsions:
REMARK  status: ('A' for Active; 'I' for Inactive)
REMARK    1  A    between atoms: O_1  and  C_8 
REMARK    2  A    between atoms: O_2  and  C_9 
REMARK    3  A    between atoms: C_5  and  C_11 
REMARK    4  A    between atoms: C_12  and  C_13 
ROOT
ATOM      1  O   UNL A   1     -52.127  45.968   9.300  1.00  0.00    -0.358 OA
ATOM      2  H   UNL A   1     -52.103  45.113   9.684  1.00  0.00     0.217 HD
ENDROOT
BRANCH   1   3
ATOM      3  C   UNL A   1     -52.903  46.941   9.852  1.00  0.00     0.099 A 
ATOM      4  C   UNL A   1     -52.548  47.487  11.085  1.00  0.00     0.050 A 
ATOM      5  C   UNL A   1     -53.335  48.487  11.659  1.00  0.00    -0.033 A 
ATOM      6  C   UNL A   1     -54.477  48.940  10.997  1.00  0.00     0.014 A 
ATOM      7  C   UNL A   1     -54.831  48.394   9.764  1.00  0.00     0.040 A 
ATOM      8  C   UNL A   1     -54.045  47.395   9.191  1.00  0.00     0.098 A 
BRANCH   5   9
ATOM      9  C   UNL A   1     -52.965  49.054  12.945  1.00  0.00     0.018 C 
ATOM     10  C   UNL A   1     -52.332  48.358  13.885  1.00  0.00     0.085 C 
BRANCH  10  11
ATOM     11  C   UNL A   1     -52.017  49.025  15.165  1.00  0.00     0.198 C 
ATOM     12  O   UNL A   1     -51.001  48.359  15.762  1.00  0.00    -0.645 OA
ATOM     13  O   UNL A   1     -52.569  50.011  15.624  1.00  0.00    -0.645 OA
ENDBRANCH  10  11
ENDBRANCH   5   9
BRANCH   8  14
ATOM     14  O   UNL A   1     -54.401  46.871   7.986  1.00  0.00    -0.358 OA
ATOM     15  H   UNL A   1     -55.303  46.704   7.795  1.00  0.00     0.217 HD
ENDBRANCH   8  14
ENDBRANCH   1   3
TORSDOF 4
ENDMDL
