MODEL 1
REMARK VINA RESULT:      -7.2      0.000      0.000
REMARK  6 active torsions:
REMARK  status: ('A' for Active; 'I' for Inactive)
REMARK    1  A    between atoms: O_1  and  C_11 
REMARK    2  A    between atoms: C_4  and  C_5 
REMARK    3  A    between atoms: C_4  and  C_6 
REMARK    4  A    between atoms: C_5  and  C_7 
REMARK    5  A    between atoms: C_6  and  C_8 
REMARK    6  A    between atoms: C_8  and  C_12 
ROOT
HETATM    1  O   UNL     1     -53.622  49.899  10.398  1.00  0.00    -0.361 OA
HETATM    2  H   UNL     1     -53.005  49.808  11.097  1.00  0.00     0.217 HD
ENDROOT
BRANCH   1   3
HETATM    3  C   UNL     1     -54.252  48.801   9.900  1.00  0.00     0.066 A 
HETATM    4  C   UNL     1     -53.557  47.599   9.763  1.00  0.00     0.043 A 
HETATM    5  C   UNL     1     -54.213  46.489   9.253  1.00  0.00    -0.056 A 
HETATM    6  C   UNL     1     -55.547  46.552   8.876  1.00  0.00     0.007 A 
HETATM    7  C   UNL     1     -56.241  47.753   9.013  1.00  0.00     0.003 A 
HETATM    8  C   UNL     1     -55.594  48.878   9.525  1.00  0.00     0.036 A 
BRANCH   5   9
HETATM    9  C   UNL     1     -53.463  45.190   9.103  1.00  0.00     0.038 C 
BRANCH   9  10
HETATM   10  C   UNL     1     -52.252  45.276   8.165  1.00  0.00     0.005 C 
BRANCH  10  11
HETATM   11  C   UNL     1     -52.426  44.442   6.888  1.00  0.00     0.011 C 
BRANCH  11  12
HETATM   12  C   UNL     1     -53.636  43.509   6.962  1.00  0.00     0.113 C 
BRANCH  12  13
HETATM   13  C   UNL     1     -54.822  44.003   6.164  1.00  0.00     0.172 C 
HETATM   14  O   UNL     1     -54.434  44.532   4.975  1.00  0.00    -0.648 OA
HETATM   15  O   UNL     1     -55.992  43.928   6.511  1.00  0.00    -0.648 OA
ENDBRANCH  12  13
ENDBRANCH  11  12
ENDBRANCH  10  11
ENDBRANCH   9  10
ENDBRANCH   5   9
ENDBRANCH   1   3
TORSDOF 6
ENDMDL
MODEL 2
REMARK VINA RESULT:      -7.0      1.908      2.448
REMARK  6 active torsions:
REMARK  status: ('A' for Active; 'I' for Inactive)
REMARK    1  A    between atoms: O_1  and  C_11 
REMARK    2  A    between atoms: C_4  and  C_5 
REMARK    3  A    between atoms: C_4  and  C_6 
REMARK    4  A    between atoms: C_5  and  C_7 
REMARK    5  A    between atoms: C_6  and  C_8 
REMARK    6  A    between atoms: C_8  and  C_12 
ROOT
HETATM    1  O   UNL     1     -57.457  45.268   8.548  1.00  0.00    -0.361 OA
HETATM    2  H   UNL     1     -57.877  44.832   9.263  1.00  0.00     0.217 HD
ENDROOT
BRANCH   1   3
HETATM    3  C   UNL     1     -56.430  46.128   8.784  1.00  0.00     0.066 A 
HETATM    4  C   UNL     1     -55.128  45.643   8.910  1.00  0.00     0.043 A 
HETATM    5  C   UNL     1     -54.092  46.533   9.151  1.00  0.00    -0.056 A 
HETATM    6  C   UNL     1     -54.326  47.895   9.269  1.00  0.00     0.007 A 
HETATM    7  C   UNL     1     -55.627  48.379   9.142  1.00  0.00     0.003 A 
HETATM    8  C   UNL     1     -56.680  47.496   8.899  1.00  0.00     0.036 A 
BRANCH   5   9
HETATM    9  C   UNL     1     -52.685  46.010   9.289  1.00  0.00     0.038 C 
BRANCH   9  10
HETATM   10  C   UNL     1     -52.035  45.612   7.958  1.00  0.00     0.005 C 
BRANCH  10  11
HETATM   11  C   UNL     1     -52.010  44.094   7.736  1.00  0.00     0.011 C 
BRANCH  11  12
HETATM   12  C   UNL     1     -52.355  43.711   6.295  1.00  0.00     0.113 C 
BRANCH  12  13
HETATM   13  C   UNL     1     -53.835  43.799   5.991  1.00  0.00     0.172 C 
HETATM   14  O   UNL     1     -54.557  42.985   6.803  1.00  0.00    -0.648 OA
HETATM   15  O   UNL     1     -54.344  44.519   5.144  1.00  0.00    -0.648 OA
ENDBRANCH  12  13
ENDBRANCH  11  12
ENDBRANCH  10  11
ENDBRANCH   9  10
ENDBRANCH   5   9
ENDBRANCH   1   3
TORSDOF 6
ENDMDL
MODEL 3
REMARK VINA RESULT:      -6.9      1.366      5.731
REMARK  6 active torsions:
REMARK  status: ('A' for Active; 'I' for Inactive)
REMARK    1  A    between atoms: O_1  and  C_11 
REMARK    2  A    between atoms: C_4  and  C_5 
REMARK    3  A    between atoms: C_4  and  C_6 
REMARK    4  A    between atoms: C_5  and  C_7 
REMARK    5  A    between atoms: C_6  and  C_8 
REMARK    6  A    between atoms: C_8  and  C_12 
ROOT
HETATM    1  O   UNL     1     -55.284  43.917   6.704  1.00  0.00    -0.361 OA
HETATM    2  H   UNL     1     -55.236  43.678   5.800  1.00  0.00     0.217 HD
ENDROOT
BRANCH   1   3
HETATM    3  C   UNL     1     -54.165  44.329   7.359  1.00  0.00     0.066 A 
HETATM    4  C   UNL     1     -54.278  45.055   8.546  1.00  0.00     0.043 A 
HETATM    5  C   UNL     1     -53.128  45.468   9.202  1.00  0.00    -0.056 A 
HETATM    6  C   UNL     1     -51.869  45.173   8.700  1.00  0.00     0.007 A 
HETATM    7  C   UNL     1     -51.757  44.447   7.515  1.00  0.00     0.003 A 
HETATM    8  C   UNL     1     -52.905  44.025   6.844  1.00  0.00     0.036 A 
BRANCH   5   9
HETATM    9  C   UNL     1     -53.249  46.254  10.482  1.00  0.00     0.038 C 
BRANCH   9  10
HETATM   10  C   UNL     1     -52.804  47.716  10.359  1.00  0.00     0.005 C 
BRANCH  10  11
HETATM   11  C   UNL     1     -53.418  48.428   9.146  1.00  0.00     0.011 C 
BRANCH  11  12
HETATM   12  C   UNL     1     -54.518  49.413   9.545  1.00  0.00     0.113 C 
BRANCH  12  13
HETATM   13  C   UNL     1     -54.071  50.858   9.506  1.00  0.00     0.172 C 
HETATM   14  O   UNL     1     -54.017  51.394  10.752  1.00  0.00    -0.648 OA
HETATM   15  O   UNL     1     -53.769  51.481   8.498  1.00  0.00    -0.648 OA
ENDBRANCH  12  13
ENDBRANCH  11  12
ENDBRANCH  10  11
ENDBRANCH   9  10
ENDBRANCH   5   9
ENDBRANCH   1   3
TORSDOF 6
ENDMDL
MODEL 4
REMARK VINA RESULT:      -6.7      1.348      1.496
REMARK  6 active torsions:
REMARK  status: ('A' for Active; 'I' for Inactive)
REMARK    1  A    between atoms: O_1  and  C_11 
REMARK    2  A    between atoms: C_4  and  C_5 
REMARK    3  A    between atoms: C_4  and  C_6 
REMARK    4  A    between atoms: C_5  and  C_7 
REMARK    5  A    between atoms: C_6  and  C_8 
REMARK    6  A    between atoms: C_8  and  C_12 
ROOT
HETATM    1  O   UNL     1     -53.720  50.555  10.402  1.00  0.00    -0.361 OA
HETATM    2  H   UNL     1     -53.118  51.048   9.880  1.00  0.00     0.217 HD
ENDROOT
BRANCH   1   3
HETATM    3  C   UNL     1     -54.229  49.384   9.931  1.00  0.00     0.066 A 
HETATM    4  C   UNL     1     -53.389  48.288   9.732  1.00  0.00     0.043 A 
HETATM    5  C   UNL     1     -53.922  47.101   9.251  1.00  0.00    -0.056 A 
HETATM    6  C   UNL     1     -55.274  46.985   8.964  1.00  0.00     0.007 A 
HETATM    7  C   UNL     1     -56.113  48.081   9.163  1.00  0.00     0.003 A 
HETATM    8  C   UNL     1     -55.591  49.281   9.647  1.00  0.00     0.036 A 
BRANCH   5   9
HETATM    9  C   UNL     1     -53.016  45.917   9.035  1.00  0.00     0.038 C 
BRANCH   9  10
HETATM   10  C   UNL     1     -53.738  44.565   9.073  1.00  0.00     0.005 C 
BRANCH  10  11
HETATM   11  C   UNL     1     -53.268  43.604   7.974  1.00  0.00     0.011 C 
BRANCH  11  12
HETATM   12  C   UNL     1     -53.975  43.854   6.640  1.00  0.00     0.113 C 
BRANCH  12  13
HETATM   13  C   UNL     1     -53.069  43.679   5.440  1.00  0.00     0.172 C 
HETATM   14  O   UNL     1     -52.755  44.875   4.877  1.00  0.00    -0.648 OA
HETATM   15  O   UNL     1     -52.642  42.612   5.023  1.00  0.00    -0.648 OA
ENDBRANCH  12  13
ENDBRANCH  11  12
ENDBRANCH  10  11
ENDBRANCH   9  10
ENDBRANCH   5   9
ENDBRANCH   1   3
TORSDOF 6
ENDMDL
MODEL 5
REMARK VINA RESULT:      -6.6      2.662      5.885
REMARK  6 active torsions:
REMARK  status: ('A' for Active; 'I' for Inactive)
REMARK    1  A    between atoms: O_1  and  C_11 
REMARK    2  A    between atoms: C_4  and  C_5 
REMARK    3  A    between atoms: C_4  and  C_6 
REMARK    4  A    between atoms: C_5  and  C_7 
REMARK    5  A    between atoms: C_6  and  C_8 
REMARK    6  A    between atoms: C_8  and  C_12 
ROOT
HETATM    1  O   UNL     1     -52.753  42.218  11.174  1.00  0.00    -0.361 OA
HETATM    2  H   UNL     1     -53.218  41.405  11.204  1.00  0.00     0.217 HD
ENDROOT
BRANCH   1   3
HETATM    3  C   UNL     1     -52.992  43.102  10.168  1.00  0.00     0.066 A 
HETATM    4  C   UNL     1     -53.329  44.424  10.465  1.00  0.00     0.043 A 
HETATM    5  C   UNL     1     -53.570  45.313   9.429  1.00  0.00    -0.056 A 
HETATM    6  C   UNL     1     -53.484  44.914   8.104  1.00  0.00     0.007 A 
HETATM    7  C   UNL     1     -53.147  43.594   7.807  1.00  0.00     0.003 A 
HETATM    8  C   UNL     1     -52.901  42.687   8.839  1.00  0.00     0.036 A 
BRANCH   5   9
HETATM    9  C   UNL     1     -53.936  46.740   9.749  1.00  0.00     0.038 C 
BRANCH   9  10
HETATM   10  C   UNL     1     -55.238  47.212   9.091  1.00  0.00     0.005 C 
BRANCH  10  11
HETATM   11  C   UNL     1     -55.344  48.740   9.002  1.00  0.00     0.011 C 
BRANCH  11  12
HETATM   12  C   UNL     1     -54.146  49.444   9.643  1.00  0.00     0.113 C 
BRANCH  12  13
HETATM   13  C   UNL     1     -54.166  50.946   9.459  1.00  0.00     0.172 C 
HETATM   14  O   UNL     1     -53.835  51.591  10.608  1.00  0.00    -0.648 OA
HETATM   15  O   UNL     1     -54.421  51.530   8.415  1.00  0.00    -0.648 OA
ENDBRANCH  12  13
ENDBRANCH  11  12
ENDBRANCH  10  11
ENDBRANCH   9  10
ENDBRANCH   5   9
ENDBRANCH   1   3
TORSDOF 6
ENDMDL
MODEL 6
REMARK VINA RESULT:      -6.5      1.778      5.107
REMARK  6 active torsions:
REMARK  status: ('A' for Active; 'I' for Inactive)
REMARK    1  A    between atoms: O_1  and  C_11 
REMARK    2  A    between atoms: C_4  and  C_5 
REMARK    3  A    between atoms: C_4  and  C_6 
REMARK    4  A    between atoms: C_5  and  C_7 
REMARK    5  A    between atoms: C_6  and  C_8 
REMARK    6  A    between atoms: C_8  and  C_12 
ROOT
HETATM    1  O   UNL     1     -54.351  44.459   5.876  1.00  0.00    -0.361 OA
HETATM    2  H   UNL     1     -54.501  43.858   5.173  1.00  0.00     0.217 HD
ENDROOT
BRANCH   1   3
HETATM    3  C   UNL     1     -53.826  44.016   7.050  1.00  0.00     0.066 A 
HETATM    4  C   UNL     1     -54.002  44.758   8.218  1.00  0.00     0.043 A 
HETATM    5  C   UNL     1     -53.461  44.293   9.407  1.00  0.00    -0.056 A 
HETATM    6  C   UNL     1     -52.748  43.104   9.456  1.00  0.00     0.007 A 
HETATM    7  C   UNL     1     -52.572  42.363   8.289  1.00  0.00     0.003 A 
HETATM    8  C   UNL     1     -53.112  42.818   7.085  1.00  0.00     0.036 A 
BRANCH   5   9
HETATM    9  C   UNL     1     -53.649  45.095  10.670  1.00  0.00     0.038 C 
BRANCH   9  10
HETATM   10  C   UNL     1     -52.362  45.747  11.190  1.00  0.00     0.005 C 
BRANCH  10  11
HETATM   11  C   UNL     1     -52.168  47.180  10.678  1.00  0.00     0.011 C 
BRANCH  11  12
HETATM   12  C   UNL     1     -53.487  47.831  10.257  1.00  0.00     0.113 C 
BRANCH  12  13
HETATM   13  C   UNL     1     -53.479  48.334   8.830  1.00  0.00     0.172 C 
HETATM   14  O   UNL     1     -54.737  48.588   8.387  1.00  0.00    -0.648 OA
HETATM   15  O   UNL     1     -52.481  48.518   8.148  1.00  0.00    -0.648 OA
ENDBRANCH  12  13
ENDBRANCH  11  12
ENDBRANCH  10  11
ENDBRANCH   9  10
ENDBRANCH   5   9
ENDBRANCH   1   3
TORSDOF 6
ENDMDL
MODEL 7
REMARK VINA RESULT:      -6.5      4.513      5.748
REMARK  6 active torsions:
REMARK  status: ('A' for Active; 'I' for Inactive)
REMARK    1  A    between atoms: O_1  and  C_11 
REMARK    2  A    between atoms: C_4  and  C_5 
REMARK    3  A    between atoms: C_4  and  C_6 
REMARK    4  A    between atoms: C_5  and  C_7 
REMARK    5  A    between atoms: C_6  and  C_8 
REMARK    6  A    between atoms: C_8  and  C_12 
ROOT
HETATM    1  O   UNL     1     -49.763  49.278  16.218  1.00  0.00    -0.361 OA
HETATM    2  H   UNL     1     -49.319  48.946  16.973  1.00  0.00     0.217 HD
ENDROOT
BRANCH   1   3
HETATM    3  C   UNL     1     -50.653  48.494  15.553  1.00  0.00     0.066 A 
HETATM    4  C   UNL     1     -50.313  47.948  14.315  1.00  0.00     0.043 A 
HETATM    5  C   UNL     1     -51.231  47.150  13.648  1.00  0.00    -0.056 A 
HETATM    6  C   UNL     1     -52.481  46.886  14.189  1.00  0.00     0.007 A 
HETATM    7  C   UNL     1     -52.820  47.432  15.426  1.00  0.00     0.003 A 
HETATM    8  C   UNL     1     -51.906  48.236  16.109  1.00  0.00     0.036 A 
BRANCH   5   9
HETATM    9  C   UNL     1     -50.865  46.561  12.309  1.00  0.00     0.038 C 
BRANCH   9  10
HETATM   10  C   UNL     1     -52.045  45.920  11.569  1.00  0.00     0.005 C 
BRANCH  10  11
HETATM   11  C   UNL     1     -52.263  46.509  10.169  1.00  0.00     0.011 C 
BRANCH  11  12
HETATM   12  C   UNL     1     -53.063  47.813  10.204  1.00  0.00     0.113 C 
BRANCH  12  13
HETATM   13  C   UNL     1     -53.408  48.342   8.829  1.00  0.00     0.172 C 
HETATM   14  O   UNL     1     -52.318  48.361   8.018  1.00  0.00    -0.648 OA
HETATM   15  O   UNL     1     -54.519  48.694   8.461  1.00  0.00    -0.648 OA
ENDBRANCH  12  13
ENDBRANCH  11  12
ENDBRANCH  10  11
ENDBRANCH   9  10
ENDBRANCH   5   9
ENDBRANCH   1   3
TORSDOF 6
ENDMDL
MODEL 8
REMARK VINA RESULT:      -6.4      2.250      2.737
REMARK  6 active torsions:
REMARK  status: ('A' for Active; 'I' for Inactive)
REMARK    1  A    between atoms: O_1  and  C_11 
REMARK    2  A    between atoms: C_4  and  C_5 
REMARK    3  A    between atoms: C_4  and  C_6 
REMARK    4  A    between atoms: C_5  and  C_7 
REMARK    5  A    between atoms: C_6  and  C_8 
REMARK    6  A    between atoms: C_8  and  C_12 
ROOT
HETATM    1  O   UNL     1     -51.793  48.578   7.266  1.00  0.00    -0.361 OA
HETATM    2  H   UNL     1     -51.073  49.175   7.214  1.00  0.00     0.217 HD
ENDROOT
BRANCH   1   3
HETATM    3  C   UNL     1     -52.101  47.985   8.452  1.00  0.00     0.066 A 
HETATM    4  C   UNL     1     -51.339  46.911   8.914  1.00  0.00     0.043 A 
HETATM    5  C   UNL     1     -51.666  46.318  10.124  1.00  0.00    -0.056 A 
HETATM    6  C   UNL     1     -52.735  46.772  10.882  1.00  0.00     0.007 A 
HETATM    7  C   UNL     1     -53.495  47.845  10.421  1.00  0.00     0.003 A 
HETATM    8  C   UNL     1     -53.178  48.453   9.205  1.00  0.00     0.036 A 
BRANCH   5   9
HETATM    9  C   UNL     1     -50.845  45.156  10.623  1.00  0.00     0.038 C 
BRANCH   9  10
HETATM   10  C   UNL     1     -51.483  43.786  10.364  1.00  0.00     0.005 C 
BRANCH  10  11
HETATM   11  C   UNL     1     -51.521  43.417   8.875  1.00  0.00     0.011 C 
BRANCH  11  12
HETATM   12  C   UNL     1     -52.935  43.085   8.394  1.00  0.00     0.113 C 
BRANCH  12  13
HETATM   13  C   UNL     1     -53.730  44.306   7.985  1.00  0.00     0.172 C 
HETATM   14  O   UNL     1     -53.281  44.820   6.811  1.00  0.00    -0.648 OA
HETATM   15  O   UNL     1     -54.675  44.777   8.602  1.00  0.00    -0.648 OA
ENDBRANCH  12  13
ENDBRANCH  11  12
ENDBRANCH  10  11
ENDBRANCH   9  10
ENDBRANCH   5   9
ENDBRANCH   1   3
TORSDOF 6
ENDMDL
MODEL 9
REMARK VINA RESULT:      -6.4      1.938      5.568
REMARK  6 active torsions:
REMARK  status: ('A' for Active; 'I' for Inactive)
REMARK    1  A    between atoms: O_1  and  C_11 
REMARK    2  A    between atoms: C_4  and  C_5 
REMARK    3  A    between atoms: C_4  and  C_6 
REMARK    4  A    between atoms: C_5  and  C_7 
REMARK    5  A    between atoms: C_6  and  C_8 
REMARK    6  A    between atoms: C_8  and  C_12 
ROOT
HETATM    1  O   UNL     1     -51.610  43.735   7.091  1.00  0.00    -0.361 OA
HETATM    2  H   UNL     1     -50.959  44.268   6.679  1.00  0.00     0.217 HD
ENDROOT
BRANCH   1   3
HETATM    3  C   UNL     1     -52.404  44.260   8.063  1.00  0.00     0.066 A 
HETATM    4  C   UNL     1     -53.664  44.763   7.739  1.00  0.00     0.043 A 
HETATM    5  C   UNL     1     -54.461  45.296   8.741  1.00  0.00    -0.056 A 
HETATM    6  C   UNL     1     -54.029  45.336  10.059  1.00  0.00     0.007 A 
HETATM    7  C   UNL     1     -52.771  44.832  10.382  1.00  0.00     0.003 A 
HETATM    8  C   UNL     1     -51.957  44.293   9.384  1.00  0.00     0.036 A 
BRANCH   5   9
HETATM    9  C   UNL     1     -55.822  45.842   8.392  1.00  0.00     0.038 C 
BRANCH   9  10
HETATM   10  C   UNL     1     -56.138  47.191   9.048  1.00  0.00     0.005 C 
BRANCH  10  11
HETATM   11  C   UNL     1     -55.025  48.229   8.847  1.00  0.00     0.011 C 
BRANCH  11  12
HETATM   12  C   UNL     1     -55.533  49.664   9.005  1.00  0.00     0.113 C 
BRANCH  12  13
HETATM   13  C   UNL     1     -54.442  50.648   9.366  1.00  0.00     0.172 C 
HETATM   14  O   UNL     1     -54.315  51.616   8.423  1.00  0.00    -0.648 OA
HETATM   15  O   UNL     1     -53.762  50.612  10.382  1.00  0.00    -0.648 OA
ENDBRANCH  12  13
ENDBRANCH  11  12
ENDBRANCH  10  11
ENDBRANCH   9  10
ENDBRANCH   5   9
ENDBRANCH   1   3
TORSDOF 6
ENDMDL
