MODEL 1
REMARK VINA RESULT:      -7.2      0.000      0.000
REMARK  6 active torsions:
REMARK  status: ('A' for Active; 'I' for Inactive)
REMARK    1  A    between atoms: O_1  and  C_11 
REMARK    2  A    between atoms: C_4  and  C_5 
REMARK    3  A    between atoms: C_4  and  C_6 
REMARK    4  A    between atoms: C_5  and  C_7 
REMARK    5  A    between atoms: C_6  and  C_8 
REMARK    6  A    between atoms: C_8  and  C_12 
ROOT
HETATM    1  O   UNL     1     -53.781  50.361  10.412  1.00  0.00    -0.361 OA
HETATM    2  H   UNL     1     -53.629  51.073   9.823  1.00  0.00     0.217 HD
ENDROOT
BRANCH   1   3
HETATM    3  C   UNL     1     -54.251  49.175   9.938  1.00  0.00     0.066 A 
HETATM    4  C   UNL     1     -53.419  48.054   9.914  1.00  0.00     0.043 A 
HETATM    5  C   UNL     1     -53.912  46.853   9.427  1.00  0.00    -0.056 A 
HETATM    6  C   UNL     1     -55.216  46.745   8.965  1.00  0.00     0.007 A 
HETATM    7  C   UNL     1     -56.046  47.864   8.990  1.00  0.00     0.003 A 
HETATM    8  C   UNL     1     -55.564  49.080   9.477  1.00  0.00     0.036 A 
BRANCH   5   9
HETATM    9  C   UNL     1     -53.015  45.642   9.399  1.00  0.00     0.038 C 
BRANCH   9  10
HETATM   10  C   UNL     1     -52.895  44.989   8.017  1.00  0.00     0.005 C 
BRANCH  10  11
HETATM   11  C   UNL     1     -53.302  43.509   8.018  1.00  0.00     0.011 C 
BRANCH  11  12
HETATM   12  C   UNL     1     -53.888  43.067   6.675  1.00  0.00     0.113 C 
BRANCH  12  13
HETATM   13  C   UNL     1     -54.949  44.006   6.146  1.00  0.00     0.172 C 
HETATM   14  O   UNL     1     -54.553  44.600   4.990  1.00  0.00    -0.648 OA
HETATM   15  O   UNL     1     -56.040  44.207   6.660  1.00  0.00    -0.648 OA
ENDBRANCH  12  13
ENDBRANCH  11  12
ENDBRANCH  10  11
ENDBRANCH   9  10
ENDBRANCH   5   9
ENDBRANCH   1   3
TORSDOF 6
ENDMDL
MODEL 2
REMARK VINA RESULT:      -7.1      1.980      2.535
REMARK  6 active torsions:
REMARK  status: ('A' for Active; 'I' for Inactive)
REMARK    1  A    between atoms: O_1  and  C_11 
REMARK    2  A    between atoms: C_4  and  C_5 
REMARK    3  A    between atoms: C_4  and  C_6 
REMARK    4  A    between atoms: C_5  and  C_7 
REMARK    5  A    between atoms: C_6  and  C_8 
REMARK    6  A    between atoms: C_8  and  C_12 
ROOT
HETATM    1  O   UNL     1     -57.320  45.315   8.516  1.00  0.00    -0.361 OA
HETATM    2  H   UNL     1     -57.924  45.527   7.831  1.00  0.00     0.217 HD
ENDROOT
BRANCH   1   3
HETATM    3  C   UNL     1     -56.241  46.112   8.740  1.00  0.00     0.066 A 
HETATM    4  C   UNL     1     -54.967  45.551   8.841  1.00  0.00     0.043 A 
HETATM    5  C   UNL     1     -53.877  46.377   9.071  1.00  0.00    -0.056 A 
HETATM    6  C   UNL     1     -54.029  47.749   9.202  1.00  0.00     0.007 A 
HETATM    7  C   UNL     1     -55.301  48.310   9.100  1.00  0.00     0.003 A 
HETATM    8  C   UNL     1     -56.408  47.492   8.869  1.00  0.00     0.036 A 
BRANCH   5   9
HETATM    9  C   UNL     1     -52.501  45.771   9.182  1.00  0.00     0.038 C 
BRANCH   9  10
HETATM   10  C   UNL     1     -52.348  44.435   8.444  1.00  0.00     0.005 C 
BRANCH  10  11
HETATM   11  C   UNL     1     -52.226  44.603   6.923  1.00  0.00     0.011 C 
BRANCH  11  12
HETATM   12  C   UNL     1     -52.931  43.482   6.156  1.00  0.00     0.113 C 
BRANCH  12  13
HETATM   13  C   UNL     1     -54.344  43.835   5.745  1.00  0.00     0.172 C 
HETATM   14  O   UNL     1     -55.259  43.123   6.453  1.00  0.00    -0.648 OA
HETATM   15  O   UNL     1     -54.651  44.666   4.902  1.00  0.00    -0.648 OA
ENDBRANCH  12  13
ENDBRANCH  11  12
ENDBRANCH  10  11
ENDBRANCH   9  10
ENDBRANCH   5   9
ENDBRANCH   1   3
TORSDOF 6
ENDMDL
MODEL 3
REMARK VINA RESULT:      -6.9      1.532      5.766
REMARK  6 active torsions:
REMARK  status: ('A' for Active; 'I' for Inactive)
REMARK    1  A    between atoms: O_1  and  C_11 
REMARK    2  A    between atoms: C_4  and  C_5 
REMARK    3  A    between atoms: C_4  and  C_6 
REMARK    4  A    between atoms: C_5  and  C_7 
REMARK    5  A    between atoms: C_6  and  C_8 
REMARK    6  A    between atoms: C_8  and  C_12 
ROOT
HETATM    1  O   UNL     1     -53.671  44.667   6.459  1.00  0.00    -0.361 OA
HETATM    2  H   UNL     1     -53.765  43.934   5.882  1.00  0.00     0.217 HD
ENDROOT
BRANCH   1   3
HETATM    3  C   UNL     1     -53.388  44.465   7.774  1.00  0.00     0.066 A 
HETATM    4  C   UNL     1     -53.339  45.549   8.652  1.00  0.00     0.043 A 
HETATM    5  C   UNL     1     -53.048  45.327   9.990  1.00  0.00    -0.056 A 
HETATM    6  C   UNL     1     -52.806  44.049  10.471  1.00  0.00     0.007 A 
HETATM    7  C   UNL     1     -52.856  42.967   9.594  1.00  0.00     0.003 A 
HETATM    8  C   UNL     1     -53.147  43.174   8.245  1.00  0.00     0.036 A 
BRANCH   5   9
HETATM    9  C   UNL     1     -52.994  46.497  10.939  1.00  0.00     0.038 C 
BRANCH   9  10
HETATM   10  C   UNL     1     -53.065  47.864  10.246  1.00  0.00     0.005 C 
BRANCH  10  11
HETATM   11  C   UNL     1     -54.443  48.526  10.371  1.00  0.00     0.011 C 
BRANCH  11  12
HETATM   12  C   UNL     1     -54.746  49.465   9.201  1.00  0.00     0.113 C 
BRANCH  12  13
HETATM   13  C   UNL     1     -54.296  50.889   9.444  1.00  0.00     0.172 C 
HETATM   14  O   UNL     1     -54.492  51.665   8.347  1.00  0.00    -0.648 OA
HETATM   15  O   UNL     1     -53.833  51.318  10.491  1.00  0.00    -0.648 OA
ENDBRANCH  12  13
ENDBRANCH  11  12
ENDBRANCH  10  11
ENDBRANCH   9  10
ENDBRANCH   5   9
ENDBRANCH   1   3
TORSDOF 6
ENDMDL
MODEL 4
REMARK VINA RESULT:      -6.9      1.350      2.014
REMARK  6 active torsions:
REMARK  status: ('A' for Active; 'I' for Inactive)
REMARK    1  A    between atoms: O_1  and  C_11 
REMARK    2  A    between atoms: C_4  and  C_5 
REMARK    3  A    between atoms: C_4  and  C_6 
REMARK    4  A    between atoms: C_5  and  C_7 
REMARK    5  A    between atoms: C_6  and  C_8 
REMARK    6  A    between atoms: C_8  and  C_12 
ROOT
HETATM    1  O   UNL     1     -55.063  48.560   8.237  1.00  0.00    -0.361 OA
HETATM    2  H   UNL     1     -55.580  49.272   8.558  1.00  0.00     0.217 HD
ENDROOT
BRANCH   1   3
HETATM    3  C   UNL     1     -54.328  47.808   9.100  1.00  0.00     0.066 A 
HETATM    4  C   UNL     1     -54.393  46.416   9.044  1.00  0.00     0.043 A 
HETATM    5  C   UNL     1     -53.637  45.664   9.932  1.00  0.00    -0.056 A 
HETATM    6  C   UNL     1     -52.819  46.271  10.873  1.00  0.00     0.007 A 
HETATM    7  C   UNL     1     -52.754  47.662  10.928  1.00  0.00     0.003 A 
HETATM    8  C   UNL     1     -53.508  48.432  10.041  1.00  0.00     0.036 A 
BRANCH   5   9
HETATM    9  C   UNL     1     -53.708  44.159   9.873  1.00  0.00     0.038 C 
BRANCH   9  10
HETATM   10  C   UNL     1     -52.617  43.518   9.007  1.00  0.00     0.005 C 
BRANCH  10  11
HETATM   11  C   UNL     1     -53.182  42.750   7.805  1.00  0.00     0.011 C 
BRANCH  11  12
HETATM   12  C   UNL     1     -53.221  43.603   6.535  1.00  0.00     0.113 C 
BRANCH  12  13
HETATM   13  C   UNL     1     -54.611  43.755   5.959  1.00  0.00     0.172 C 
HETATM   14  O   UNL     1     -54.636  44.675   4.960  1.00  0.00    -0.648 OA
HETATM   15  O   UNL     1     -55.599  43.127   6.312  1.00  0.00    -0.648 OA
ENDBRANCH  12  13
ENDBRANCH  11  12
ENDBRANCH  10  11
ENDBRANCH   9  10
ENDBRANCH   5   9
ENDBRANCH   1   3
TORSDOF 6
ENDMDL
MODEL 5
REMARK VINA RESULT:      -6.6      1.646      5.231
REMARK  6 active torsions:
REMARK  status: ('A' for Active; 'I' for Inactive)
REMARK    1  A    between atoms: O_1  and  C_11 
REMARK    2  A    between atoms: C_4  and  C_5 
REMARK    3  A    between atoms: C_4  and  C_6 
REMARK    4  A    between atoms: C_5  and  C_7 
REMARK    5  A    between atoms: C_6  and  C_8 
REMARK    6  A    between atoms: C_8  and  C_12 
ROOT
HETATM    1  O   UNL     1     -54.939  44.467   5.684  1.00  0.00    -0.361 OA
HETATM    2  H   UNL     1     -54.737  44.077   4.856  1.00  0.00     0.217 HD
ENDROOT
BRANCH   1   3
HETATM    3  C   UNL     1     -54.268  44.076   6.801  1.00  0.00     0.066 A 
HETATM    4  C   UNL     1     -54.363  44.829   7.972  1.00  0.00     0.043 A 
HETATM    5  C   UNL     1     -53.673  44.417   9.102  1.00  0.00    -0.056 A 
HETATM    6  C   UNL     1     -52.892  43.271   9.090  1.00  0.00     0.007 A 
HETATM    7  C   UNL     1     -52.798  42.518   7.921  1.00  0.00     0.003 A 
HETATM    8  C   UNL     1     -53.487  42.920   6.775  1.00  0.00     0.036 A 
BRANCH   5   9
HETATM    9  C   UNL     1     -53.773  45.231  10.367  1.00  0.00     0.038 C 
BRANCH   9  10
HETATM   10  C   UNL     1     -52.426  45.757  10.876  1.00  0.00     0.005 C 
BRANCH  10  11
HETATM   11  C   UNL     1     -52.286  47.279  10.734  1.00  0.00     0.011 C 
BRANCH  11  12
HETATM   12  C   UNL     1     -53.588  47.943  10.282  1.00  0.00     0.113 C 
BRANCH  12  13
HETATM   13  C   UNL     1     -53.556  48.407   8.843  1.00  0.00     0.172 C 
HETATM   14  O   UNL     1     -54.801  48.707   8.390  1.00  0.00    -0.648 OA
HETATM   15  O   UNL     1     -52.550  48.526   8.158  1.00  0.00    -0.648 OA
ENDBRANCH  12  13
ENDBRANCH  11  12
ENDBRANCH  10  11
ENDBRANCH   9  10
ENDBRANCH   5   9
ENDBRANCH   1   3
TORSDOF 6
ENDMDL
MODEL 6
REMARK VINA RESULT:      -6.6      2.335      6.977
REMARK  6 active torsions:
REMARK  status: ('A' for Active; 'I' for Inactive)
REMARK    1  A    between atoms: O_1  and  C_11 
REMARK    2  A    between atoms: C_4  and  C_5 
REMARK    3  A    between atoms: C_4  and  C_6 
REMARK    4  A    between atoms: C_5  and  C_7 
REMARK    5  A    between atoms: C_6  and  C_8 
REMARK    6  A    between atoms: C_8  and  C_12 
ROOT
HETATM    1  O   UNL     1     -56.730  45.224   8.005  1.00  0.00    -0.361 OA
HETATM    2  H   UNL     1     -57.102  45.476   7.183  1.00  0.00     0.217 HD
ENDROOT
BRANCH   1   3
HETATM    3  C   UNL     1     -55.741  45.974   8.563  1.00  0.00     0.066 A 
HETATM    4  C   UNL     1     -56.020  47.257   9.034  1.00  0.00     0.043 A 
HETATM    5  C   UNL     1     -55.002  48.010   9.599  1.00  0.00    -0.056 A 
HETATM    6  C   UNL     1     -53.713  47.511   9.705  1.00  0.00     0.007 A 
HETATM    7  C   UNL     1     -53.434  46.228   9.235  1.00  0.00     0.003 A 
HETATM    8  C   UNL     1     -54.449  45.459   8.664  1.00  0.00     0.036 A 
BRANCH   5   9
HETATM    9  C   UNL     1     -55.302  49.397  10.107  1.00  0.00     0.038 C 
BRANCH   9  10
HETATM   10  C   UNL     1     -54.813  50.518   9.181  1.00  0.00     0.005 C 
BRANCH  10  11
HETATM   11  C   UNL     1     -53.660  51.331   9.784  1.00  0.00     0.011 C 
BRANCH  11  12
HETATM   12  C   UNL     1     -53.989  52.822   9.885  1.00  0.00     0.113 C 
BRANCH  12  13
HETATM   13  C   UNL     1     -54.000  53.338  11.307  1.00  0.00     0.172 C 
HETATM   14  O   UNL     1     -54.210  52.333  12.197  1.00  0.00    -0.648 OA
HETATM   15  O   UNL     1     -53.821  54.500  11.642  1.00  0.00    -0.648 OA
ENDBRANCH  12  13
ENDBRANCH  11  12
ENDBRANCH  10  11
ENDBRANCH   9  10
ENDBRANCH   5   9
ENDBRANCH   1   3
TORSDOF 6
ENDMDL
MODEL 7
REMARK VINA RESULT:      -6.5      2.262      2.830
REMARK  6 active torsions:
REMARK  status: ('A' for Active; 'I' for Inactive)
REMARK    1  A    between atoms: O_1  and  C_11 
REMARK    2  A    between atoms: C_4  and  C_5 
REMARK    3  A    between atoms: C_4  and  C_6 
REMARK    4  A    between atoms: C_5  and  C_7 
REMARK    5  A    between atoms: C_6  and  C_8 
REMARK    6  A    between atoms: C_8  and  C_12 
ROOT
HETATM    1  O   UNL     1     -57.092  45.305   8.442  1.00  0.00    -0.361 OA
HETATM    2  H   UNL     1     -57.955  45.409   8.791  1.00  0.00     0.217 HD
ENDROOT
BRANCH   1   3
HETATM    3  C   UNL     1     -56.128  46.223   8.724  1.00  0.00     0.066 A 
HETATM    4  C   UNL     1     -54.799  45.821   8.859  1.00  0.00     0.043 A 
HETATM    5  C   UNL     1     -53.828  46.769   9.147  1.00  0.00    -0.056 A 
HETATM    6  C   UNL     1     -54.155  48.108   9.304  1.00  0.00     0.007 A 
HETATM    7  C   UNL     1     -55.483  48.509   9.170  1.00  0.00     0.003 A 
HETATM    8  C   UNL     1     -56.470  47.567   8.879  1.00  0.00     0.036 A 
BRANCH   5   9
HETATM    9  C   UNL     1     -52.392  46.335   9.294  1.00  0.00     0.038 C 
BRANCH   9  10
HETATM   10  C   UNL     1     -52.224  44.872   9.719  1.00  0.00     0.005 C 
BRANCH  10  11
HETATM   11  C   UNL     1     -51.647  43.988   8.604  1.00  0.00     0.011 C 
BRANCH  11  12
HETATM   12  C   UNL     1     -52.276  42.593   8.583  1.00  0.00     0.113 C 
BRANCH  12  13
HETATM   13  C   UNL     1     -53.202  42.373   7.407  1.00  0.00     0.172 C 
HETATM   14  O   UNL     1     -52.745  41.384   6.595  1.00  0.00    -0.648 OA
HETATM   15  O   UNL     1     -54.245  42.976   7.202  1.00  0.00    -0.648 OA
ENDBRANCH  12  13
ENDBRANCH  11  12
ENDBRANCH  10  11
ENDBRANCH   9  10
ENDBRANCH   5   9
ENDBRANCH   1   3
TORSDOF 6
ENDMDL
MODEL 8
REMARK VINA RESULT:      -6.5      2.234      2.874
REMARK  6 active torsions:
REMARK  status: ('A' for Active; 'I' for Inactive)
REMARK    1  A    between atoms: O_1  and  C_11 
REMARK    2  A    between atoms: C_4  and  C_5 
REMARK    3  A    between atoms: C_4  and  C_6 
REMARK    4  A    between atoms: C_5  and  C_7 
REMARK    5  A    between atoms: C_6  and  C_8 
REMARK    6  A    between atoms: C_8  and  C_12 
ROOT
HETATM    1  O   UNL     1     -51.778  48.529   7.230  1.00  0.00    -0.361 OA
HETATM    2  H   UNL     1     -51.220  48.041   6.657  1.00  0.00     0.217 HD
ENDROOT
BRANCH   1   3
HETATM    3  C   UNL     1     -52.106  48.027   8.451  1.00  0.00     0.066 A 
HETATM    4  C   UNL     1     -51.367  46.977   8.996  1.00  0.00     0.043 A 
HETATM    5  C   UNL     1     -51.715  46.476  10.242  1.00  0.00    -0.056 A 
HETATM    6  C   UNL     1     -52.783  47.000  10.955  1.00  0.00     0.007 A 
HETATM    7  C   UNL     1     -53.521  48.049  10.410  1.00  0.00     0.003 A 
HETATM    8  C   UNL     1     -53.183  48.564   9.158  1.00  0.00     0.036 A 
BRANCH   5   9
HETATM    9  C   UNL     1     -50.918  45.340  10.831  1.00  0.00     0.038 C 
BRANCH   9  10
HETATM   10  C   UNL     1     -51.586  43.968  10.681  1.00  0.00     0.005 C 
BRANCH  10  11
HETATM   11  C   UNL     1     -51.612  43.472   9.229  1.00  0.00     0.011 C 
BRANCH  11  12
HETATM   12  C   UNL     1     -53.031  43.171   8.742  1.00  0.00     0.113 C 
BRANCH  12  13
HETATM   13  C   UNL     1     -53.702  44.357   8.084  1.00  0.00     0.172 C 
HETATM   14  O   UNL     1     -54.733  44.823   8.835  1.00  0.00    -0.648 OA
HETATM   15  O   UNL     1     -53.366  44.865   7.024  1.00  0.00    -0.648 OA
ENDBRANCH  12  13
ENDBRANCH  11  12
ENDBRANCH  10  11
ENDBRANCH   9  10
ENDBRANCH   5   9
ENDBRANCH   1   3
TORSDOF 6
ENDMDL
MODEL 9
REMARK VINA RESULT:      -6.5      1.520      5.765
REMARK  6 active torsions:
REMARK  status: ('A' for Active; 'I' for Inactive)
REMARK    1  A    between atoms: O_1  and  C_11 
REMARK    2  A    between atoms: C_4  and  C_5 
REMARK    3  A    between atoms: C_4  and  C_6 
REMARK    4  A    between atoms: C_5  and  C_7 
REMARK    5  A    between atoms: C_6  and  C_8 
REMARK    6  A    between atoms: C_8  and  C_12 
ROOT
HETATM    1  O   UNL     1     -55.758  42.523   6.159  1.00  0.00    -0.361 OA
HETATM    2  H   UNL     1     -56.428  43.044   6.554  1.00  0.00     0.217 HD
ENDROOT
BRANCH   1   3
HETATM    3  C   UNL     1     -54.487  43.000   6.073  1.00  0.00     0.066 A 
HETATM    4  C   UNL     1     -53.984  43.831   7.074  1.00  0.00     0.043 A 
HETATM    5  C   UNL     1     -52.686  44.310   6.971  1.00  0.00    -0.056 A 
HETATM    6  C   UNL     1     -51.880  43.978   5.893  1.00  0.00     0.007 A 
HETATM    7  C   UNL     1     -52.383  43.147   4.893  1.00  0.00     0.003 A 
HETATM    8  C   UNL     1     -53.687  42.657   4.982  1.00  0.00     0.036 A 
BRANCH   5   9
HETATM    9  C   UNL     1     -52.142  45.210   8.052  1.00  0.00     0.038 C 
BRANCH   9  10
HETATM   10  C   UNL     1     -52.472  44.743   9.475  1.00  0.00     0.005 C 
BRANCH  10  11
HETATM   11  C   UNL     1     -53.151  45.830  10.318  1.00  0.00     0.011 C 
BRANCH  11  12
HETATM   12  C   UNL     1     -54.009  46.773   9.472  1.00  0.00     0.113 C 
BRANCH  12  13
HETATM   13  C   UNL     1     -53.592  48.223   9.582  1.00  0.00     0.172 C 
HETATM   14  O   UNL     1     -53.430  48.786   8.356  1.00  0.00    -0.648 OA
HETATM   15  O   UNL     1     -53.434  48.839  10.626  1.00  0.00    -0.648 OA
ENDBRANCH  12  13
ENDBRANCH  11  12
ENDBRANCH  10  11
ENDBRANCH   9  10
ENDBRANCH   5   9
ENDBRANCH   1   3
TORSDOF 6
ENDMDL
