MODEL 1
REMARK VINA RESULT:     -19.0      0.000      0.000
REMARK  6 active torsions:
REMARK  status: ('A' for Active; 'I' for Inactive)
REMARK    1  A    between atoms: O_1  and  C_11 
REMARK    2  A    between atoms: C_4  and  C_5 
REMARK    3  A    between atoms: C_4  and  C_6 
REMARK    4  A    between atoms: C_5  and  C_7 
REMARK    5  A    between atoms: C_6  and  C_8 
REMARK    6  A    between atoms: C_8  and  C_12 
ROOT
HETATM    1  O   UNL     1     -54.087  51.840   8.158  1.00  0.00    -0.361 OA
HETATM    2  H   UNL     1     -53.869  51.595   7.281  1.00  0.00     0.217 HD
ENDROOT
BRANCH   1   3
HETATM    3  C   UNL     1     -53.966  50.935   9.168  1.00  0.00     0.066 A 
HETATM    4  C   UNL     1     -53.860  51.373  10.488  1.00  0.00     0.043 A 
HETATM    5  C   UNL     1     -53.736  50.439  11.506  1.00  0.00    -0.056 A 
HETATM    6  C   UNL     1     -53.715  49.079  11.235  1.00  0.00     0.007 A 
HETATM    7  C   UNL     1     -53.821  48.642   9.915  1.00  0.00     0.003 A 
HETATM    8  C   UNL     1     -53.947  49.570   8.881  1.00  0.00     0.036 A 
BRANCH   5   9
HETATM    9  C   UNL     1     -53.620  50.910  12.933  1.00  0.00     0.038 C 
BRANCH   9  10
HETATM   10  C   UNL     1     -53.937  49.829  13.973  1.00  0.00     0.005 C 
BRANCH  10  11
HETATM   11  C   UNL     1     -52.710  49.412  14.795  1.00  0.00     0.011 C 
BRANCH  11  12
HETATM   12  C   UNL     1     -52.602  47.894  14.950  1.00  0.00     0.113 C 
BRANCH  12  13
HETATM   13  C   UNL     1     -52.764  47.425  16.379  1.00  0.00     0.172 C 
HETATM   14  O   UNL     1     -54.042  47.587  16.811  1.00  0.00    -0.648 OA
HETATM   15  O   UNL     1     -51.882  46.937  17.071  1.00  0.00    -0.648 OA
ENDBRANCH  12  13
ENDBRANCH  11  12
ENDBRANCH  10  11
ENDBRANCH   9  10
ENDBRANCH   5   9
ENDBRANCH   1   3
TORSDOF 6
ENDMDL
MODEL 2
REMARK VINA RESULT:     -18.6      3.343      6.743
REMARK  6 active torsions:
REMARK  status: ('A' for Active; 'I' for Inactive)
REMARK    1  A    between atoms: O_1  and  C_11 
REMARK    2  A    between atoms: C_4  and  C_5 
REMARK    3  A    between atoms: C_4  and  C_6 
REMARK    4  A    between atoms: C_5  and  C_7 
REMARK    5  A    between atoms: C_6  and  C_8 
REMARK    6  A    between atoms: C_8  and  C_12 
ROOT
HETATM    1  O   UNL     1     -53.787  52.835  12.295  1.00  0.00    -0.361 OA
HETATM    2  H   UNL     1     -54.543  53.283  11.969  1.00  0.00     0.217 HD
ENDROOT
BRANCH   1   3
HETATM    3  C   UNL     1     -53.705  51.481  12.201  1.00  0.00     0.066 A 
HETATM    4  C   UNL     1     -53.888  50.854  10.968  1.00  0.00     0.043 A 
HETATM    5  C   UNL     1     -53.802  49.472  10.888  1.00  0.00    -0.056 A 
HETATM    6  C   UNL     1     -53.537  48.702  12.011  1.00  0.00     0.007 A 
HETATM    7  C   UNL     1     -53.354  49.329  13.243  1.00  0.00     0.003 A 
HETATM    8  C   UNL     1     -53.438  50.718  13.338  1.00  0.00     0.036 A 
BRANCH   5   9
HETATM    9  C   UNL     1     -54.001  48.794   9.556  1.00  0.00     0.038 C 
BRANCH   9  10
HETATM   10  C   UNL     1     -53.197  49.423   8.412  1.00  0.00     0.005 C 
BRANCH  10  11
HETATM   11  C   UNL     1     -52.238  48.431   7.740  1.00  0.00     0.011 C 
BRANCH  11  12
HETATM   12  C   UNL     1     -52.978  47.299   7.024  1.00  0.00     0.113 C 
BRANCH  12  13
HETATM   13  C   UNL     1     -52.896  47.390   5.516  1.00  0.00     0.172 C 
HETATM   14  O   UNL     1     -53.656  46.435   4.920  1.00  0.00    -0.648 OA
HETATM   15  O   UNL     1     -52.254  48.220   4.889  1.00  0.00    -0.648 OA
ENDBRANCH  12  13
ENDBRANCH  11  12
ENDBRANCH  10  11
ENDBRANCH   9  10
ENDBRANCH   5   9
ENDBRANCH   1   3
TORSDOF 6
ENDMDL
MODEL 3
REMARK VINA RESULT:     -18.2      2.360      6.208
REMARK  6 active torsions:
REMARK  status: ('A' for Active; 'I' for Inactive)
REMARK    1  A    between atoms: O_1  and  C_11 
REMARK    2  A    between atoms: C_4  and  C_5 
REMARK    3  A    between atoms: C_4  and  C_6 
REMARK    4  A    between atoms: C_5  and  C_7 
REMARK    5  A    between atoms: C_6  and  C_8 
REMARK    6  A    between atoms: C_8  and  C_12 
ROOT
HETATM    1  O   UNL     1     -52.945  50.475  15.454  1.00  0.00    -0.361 OA
HETATM    2  H   UNL     1     -53.076  51.399  15.537  1.00  0.00     0.217 HD
ENDROOT
BRANCH   1   3
HETATM    3  C   UNL     1     -53.050  49.880  14.235  1.00  0.00     0.066 A 
HETATM    4  C   UNL     1     -53.480  50.619  13.132  1.00  0.00     0.043 A 
HETATM    5  C   UNL     1     -53.582  49.998  11.896  1.00  0.00    -0.056 A 
HETATM    6  C   UNL     1     -53.266  48.657  11.737  1.00  0.00     0.007 A 
HETATM    7  C   UNL     1     -52.836  47.920  12.839  1.00  0.00     0.003 A 
HETATM    8  C   UNL     1     -52.728  48.531  14.089  1.00  0.00     0.036 A 
BRANCH   5   9
HETATM    9  C   UNL     1     -54.048  50.795  10.704  1.00  0.00     0.038 C 
BRANCH   9  10
HETATM   10  C   UNL     1     -54.614  49.938   9.566  1.00  0.00     0.005 C 
BRANCH  10  11
HETATM   11  C   UNL     1     -53.686  49.878   8.345  1.00  0.00     0.011 C 
BRANCH  11  12
HETATM   12  C   UNL     1     -53.081  48.487   8.143  1.00  0.00     0.113 C 
BRANCH  12  13
HETATM   13  C   UNL     1     -53.891  47.611   7.213  1.00  0.00     0.172 C 
HETATM   14  O   UNL     1     -54.866  46.944   7.884  1.00  0.00    -0.648 OA
HETATM   15  O   UNL     1     -53.727  47.514   6.005  1.00  0.00    -0.648 OA
ENDBRANCH  12  13
ENDBRANCH  11  12
ENDBRANCH  10  11
ENDBRANCH   9  10
ENDBRANCH   5   9
ENDBRANCH   1   3
TORSDOF 6
ENDMDL
MODEL 4
REMARK VINA RESULT:     -18.2      2.925      6.963
REMARK  6 active torsions:
REMARK  status: ('A' for Active; 'I' for Inactive)
REMARK    1  A    between atoms: O_1  and  C_11 
REMARK    2  A    between atoms: C_4  and  C_5 
REMARK    3  A    between atoms: C_4  and  C_6 
REMARK    4  A    between atoms: C_5  and  C_7 
REMARK    5  A    between atoms: C_6  and  C_8 
REMARK    6  A    between atoms: C_8  and  C_12 
ROOT
HETATM    1  O   UNL     1     -53.442  50.320  14.498  1.00  0.00    -0.361 OA
HETATM    2  H   UNL     1     -52.775  50.798  14.950  1.00  0.00     0.217 HD
ENDROOT
BRANCH   1   3
HETATM    3  C   UNL     1     -53.586  50.461  13.152  1.00  0.00     0.066 A 
HETATM    4  C   UNL     1     -53.585  49.335  12.328  1.00  0.00     0.043 A 
HETATM    5  C   UNL     1     -53.732  49.495  10.958  1.00  0.00    -0.056 A 
HETATM    6  C   UNL     1     -53.880  50.753  10.393  1.00  0.00     0.007 A 
HETATM    7  C   UNL     1     -53.881  51.878  11.217  1.00  0.00     0.003 A 
HETATM    8  C   UNL     1     -53.734  51.732  12.597  1.00  0.00     0.036 A 
BRANCH   5   9
HETATM    9  C   UNL     1     -53.729  48.279  10.067  1.00  0.00     0.038 C 
BRANCH   9  10
HETATM   10  C   UNL     1     -54.005  48.590   8.591  1.00  0.00     0.005 C 
BRANCH  10  11
HETATM   11  C   UNL     1     -52.757  48.456   7.708  1.00  0.00     0.011 C 
BRANCH  11  12
HETATM   12  C   UNL     1     -52.725  47.131   6.943  1.00  0.00     0.113 C 
BRANCH  12  13
HETATM   13  C   UNL     1     -52.896  47.299   5.449  1.00  0.00     0.172 C 
HETATM   14  O   UNL     1     -53.755  46.376   4.942  1.00  0.00    -0.648 OA
HETATM   15  O   UNL     1     -52.361  48.159   4.765  1.00  0.00    -0.648 OA
ENDBRANCH  12  13
ENDBRANCH  11  12
ENDBRANCH  10  11
ENDBRANCH   9  10
ENDBRANCH   5   9
ENDBRANCH   1   3
TORSDOF 6
ENDMDL
MODEL 5
REMARK VINA RESULT:     -18.0      0.938      1.629
REMARK  6 active torsions:
REMARK  status: ('A' for Active; 'I' for Inactive)
REMARK    1  A    between atoms: O_1  and  C_11 
REMARK    2  A    between atoms: C_4  and  C_5 
REMARK    3  A    between atoms: C_4  and  C_6 
REMARK    4  A    between atoms: C_5  and  C_7 
REMARK    5  A    between atoms: C_6  and  C_8 
REMARK    6  A    between atoms: C_8  and  C_12 
ROOT
HETATM    1  O   UNL     1     -54.342  49.413   8.055  1.00  0.00    -0.361 OA
HETATM    2  H   UNL     1     -54.271  48.480   8.005  1.00  0.00     0.217 HD
ENDROOT
BRANCH   1   3
HETATM    3  C   UNL     1     -54.130  50.050   9.238  1.00  0.00     0.066 A 
HETATM    4  C   UNL     1     -53.891  49.309  10.396  1.00  0.00     0.043 A 
HETATM    5  C   UNL     1     -53.677  49.973  11.595  1.00  0.00    -0.056 A 
HETATM    6  C   UNL     1     -53.696  51.358  11.664  1.00  0.00     0.007 A 
HETATM    7  C   UNL     1     -53.934  52.097  10.507  1.00  0.00     0.003 A 
HETATM    8  C   UNL     1     -54.150  51.444   9.293  1.00  0.00     0.036 A 
BRANCH   5   9
HETATM    9  C   UNL     1     -53.421  49.173  12.848  1.00  0.00     0.038 C 
BRANCH   9  10
HETATM   10  C   UNL     1     -53.265  50.029  14.111  1.00  0.00     0.005 C 
BRANCH  10  11
HETATM   11  C   UNL     1     -52.514  49.303  15.235  1.00  0.00     0.011 C 
BRANCH  11  12
HETATM   12  C   UNL     1     -52.822  47.804  15.268  1.00  0.00     0.113 C 
BRANCH  12  13
HETATM   13  C   UNL     1     -52.961  47.252  16.669  1.00  0.00     0.172 C 
HETATM   14  O   UNL     1     -54.223  47.416  17.144  1.00  0.00    -0.648 OA
HETATM   15  O   UNL     1     -52.074  46.702  17.307  1.00  0.00    -0.648 OA
ENDBRANCH  12  13
ENDBRANCH  11  12
ENDBRANCH  10  11
ENDBRANCH   9  10
ENDBRANCH   5   9
ENDBRANCH   1   3
TORSDOF 6
ENDMDL
MODEL 6
REMARK VINA RESULT:     -17.9      2.716      6.613
REMARK  6 active torsions:
REMARK  status: ('A' for Active; 'I' for Inactive)
REMARK    1  A    between atoms: O_1  and  C_11 
REMARK    2  A    between atoms: C_4  and  C_5 
REMARK    3  A    between atoms: C_4  and  C_6 
REMARK    4  A    between atoms: C_5  and  C_7 
REMARK    5  A    between atoms: C_6  and  C_8 
REMARK    6  A    between atoms: C_8  and  C_12 
ROOT
HETATM    1  O   UNL     1     -52.573  46.952  13.049  1.00  0.00    -0.361 OA
HETATM    2  H   UNL     1     -52.975  46.455  13.734  1.00  0.00     0.217 HD
ENDROOT
BRANCH   1   3
HETATM    3  C   UNL     1     -52.969  48.232  12.815  1.00  0.00     0.066 A 
HETATM    4  C   UNL     1     -53.321  48.629  11.524  1.00  0.00     0.043 A 
HETATM    5  C   UNL     1     -53.722  49.937  11.301  1.00  0.00    -0.056 A 
HETATM    6  C   UNL     1     -53.780  50.858  12.336  1.00  0.00     0.007 A 
HETATM    7  C   UNL     1     -53.429  50.462  13.626  1.00  0.00     0.003 A 
HETATM    8  C   UNL     1     -53.024  49.148  13.866  1.00  0.00     0.036 A 
BRANCH   5   9
HETATM    9  C   UNL     1     -54.101  50.367   9.906  1.00  0.00     0.038 C 
BRANCH   9  10
HETATM   10  C   UNL     1     -54.111  49.224   8.884  1.00  0.00     0.005 C 
BRANCH  10  11
HETATM   11  C   UNL     1     -52.942  49.298   7.893  1.00  0.00     0.011 C 
BRANCH  11  12
HETATM   12  C   UNL     1     -52.492  47.914   7.420  1.00  0.00     0.113 C 
BRANCH  12  13
HETATM   13  C   UNL     1     -53.408  47.312   6.376  1.00  0.00     0.172 C 
HETATM   14  O   UNL     1     -54.281  46.432   6.931  1.00  0.00    -0.648 OA
HETATM   15  O   UNL     1     -53.400  47.583   5.184  1.00  0.00    -0.648 OA
ENDBRANCH  12  13
ENDBRANCH  11  12
ENDBRANCH  10  11
ENDBRANCH   9  10
ENDBRANCH   5   9
ENDBRANCH   1   3
TORSDOF 6
ENDMDL
MODEL 7
REMARK VINA RESULT:     -17.6      2.922      5.778
REMARK  6 active torsions:
REMARK  status: ('A' for Active; 'I' for Inactive)
REMARK    1  A    between atoms: O_1  and  C_11 
REMARK    2  A    between atoms: C_4  and  C_5 
REMARK    3  A    between atoms: C_4  and  C_6 
REMARK    4  A    between atoms: C_5  and  C_7 
REMARK    5  A    between atoms: C_6  and  C_8 
REMARK    6  A    between atoms: C_8  and  C_12 
ROOT
HETATM    1  O   UNL     1     -52.560  46.973  13.320  1.00  0.00    -0.361 OA
HETATM    2  H   UNL     1     -52.086  46.794  14.108  1.00  0.00     0.217 HD
ENDROOT
BRANCH   1   3
HETATM    3  C   UNL     1     -52.948  48.245  13.033  1.00  0.00     0.066 A 
HETATM    4  C   UNL     1     -53.307  48.588  11.729  1.00  0.00     0.043 A 
HETATM    5  C   UNL     1     -53.700  49.889  11.453  1.00  0.00    -0.056 A 
HETATM    6  C   UNL     1     -53.742  50.854  12.448  1.00  0.00     0.007 A 
HETATM    7  C   UNL     1     -53.383  50.511  13.750  1.00  0.00     0.003 A 
HETATM    8  C   UNL     1     -52.986  49.206  14.044  1.00  0.00     0.036 A 
BRANCH   5   9
HETATM    9  C   UNL     1     -54.087  50.261  10.044  1.00  0.00     0.038 C 
BRANCH   9  10
HETATM   10  C   UNL     1     -53.546  49.303   8.976  1.00  0.00     0.005 C 
BRANCH  10  11
HETATM   11  C   UNL     1     -54.657  48.558   8.224  1.00  0.00     0.011 C 
BRANCH  11  12
HETATM   12  C   UNL     1     -55.386  47.547   9.112  1.00  0.00     0.113 C 
BRANCH  12  13
HETATM   13  C   UNL     1     -54.840  46.141   8.991  1.00  0.00     0.172 C 
HETATM   14  O   UNL     1     -55.085  45.619   7.761  1.00  0.00    -0.648 OA
HETATM   15  O   UNL     1     -54.233  45.538   9.864  1.00  0.00    -0.648 OA
ENDBRANCH  12  13
ENDBRANCH  11  12
ENDBRANCH  10  11
ENDBRANCH   9  10
ENDBRANCH   5   9
ENDBRANCH   1   3
TORSDOF 6
ENDMDL
MODEL 8
REMARK VINA RESULT:     -17.6      4.032      6.635
REMARK  6 active torsions:
REMARK  status: ('A' for Active; 'I' for Inactive)
REMARK    1  A    between atoms: O_1  and  C_11 
REMARK    2  A    between atoms: C_4  and  C_5 
REMARK    3  A    between atoms: C_4  and  C_6 
REMARK    4  A    between atoms: C_5  and  C_7 
REMARK    5  A    between atoms: C_6  and  C_8 
REMARK    6  A    between atoms: C_8  and  C_12 
ROOT
HETATM    1  O   UNL     1     -54.057  52.691   9.512  1.00  0.00    -0.361 OA
HETATM    2  H   UNL     1     -53.361  52.928   8.931  1.00  0.00     0.217 HD
ENDROOT
BRANCH   1   3
HETATM    3  C   UNL     1     -53.919  51.618  10.336  1.00  0.00     0.066 A 
HETATM    4  C   UNL     1     -53.919  50.327   9.807  1.00  0.00     0.043 A 
HETATM    5  C   UNL     1     -53.778  49.242  10.660  1.00  0.00    -0.056 A 
HETATM    6  C   UNL     1     -53.638  49.418  12.029  1.00  0.00     0.007 A 
HETATM    7  C   UNL     1     -53.638  50.708  12.557  1.00  0.00     0.003 A 
HETATM    8  C   UNL     1     -53.778  51.809  11.711  1.00  0.00     0.036 A 
BRANCH   5   9
HETATM    9  C   UNL     1     -53.779  47.847  10.089  1.00  0.00     0.038 C 
BRANCH   9  10
HETATM   10  C   UNL     1     -54.760  47.651   8.927  1.00  0.00     0.005 C 
BRANCH  10  11
HETATM   11  C   UNL     1     -54.123  46.950   7.720  1.00  0.00     0.011 C 
BRANCH  11  12
HETATM   12  C   UNL     1     -53.232  47.889   6.904  1.00  0.00     0.113 C 
BRANCH  12  13
HETATM   13  C   UNL     1     -53.049  47.444   5.470  1.00  0.00     0.172 C 
HETATM   14  O   UNL     1     -53.854  46.392   5.170  1.00  0.00    -0.648 OA
HETATM   15  O   UNL     1     -52.297  47.961   4.656  1.00  0.00    -0.648 OA
ENDBRANCH  12  13
ENDBRANCH  11  12
ENDBRANCH  10  11
ENDBRANCH   9  10
ENDBRANCH   5   9
ENDBRANCH   1   3
TORSDOF 6
ENDMDL
MODEL 9
REMARK VINA RESULT:     -17.3      3.719      5.864
REMARK  6 active torsions:
REMARK  status: ('A' for Active; 'I' for Inactive)
REMARK    1  A    between atoms: O_1  and  C_11 
REMARK    2  A    between atoms: C_4  and  C_5 
REMARK    3  A    between atoms: C_4  and  C_6 
REMARK    4  A    between atoms: C_5  and  C_7 
REMARK    5  A    between atoms: C_6  and  C_8 
REMARK    6  A    between atoms: C_8  and  C_12 
ROOT
HETATM    1  O   UNL     1     -54.017  52.013  12.989  1.00  0.00    -0.361 OA
HETATM    2  H   UNL     1     -53.870  52.481  13.787  1.00  0.00     0.217 HD
ENDROOT
BRANCH   1   3
HETATM    3  C   UNL     1     -53.655  50.705  12.892  1.00  0.00     0.066 A 
HETATM    4  C   UNL     1     -53.697  50.058  11.656  1.00  0.00     0.043 A 
HETATM    5  C   UNL     1     -53.327  48.724  11.574  1.00  0.00    -0.056 A 
HETATM    6  C   UNL     1     -52.915  48.022  12.697  1.00  0.00     0.007 A 
HETATM    7  C   UNL     1     -52.873  48.668  13.931  1.00  0.00     0.003 A 
HETATM    8  C   UNL     1     -53.242  50.010  14.030  1.00  0.00     0.036 A 
BRANCH   5   9
HETATM    9  C   UNL     1     -53.373  48.025  10.239  1.00  0.00     0.038 C 
BRANCH   9  10
HETATM   10  C   UNL     1     -54.754  48.049   9.573  1.00  0.00     0.005 C 
BRANCH  10  11
HETATM   11  C   UNL     1     -54.901  46.997   8.464  1.00  0.00     0.011 C 
BRANCH  11  12
HETATM   12  C   UNL     1     -54.752  45.569   8.993  1.00  0.00     0.113 C 
BRANCH  12  13
HETATM   13  C   UNL     1     -55.981  44.716   8.768  1.00  0.00     0.172 C 
HETATM   14  O   UNL     1     -57.115  45.462   8.808  1.00  0.00    -0.648 OA
HETATM   15  O   UNL     1     -55.980  43.512   8.554  1.00  0.00    -0.648 OA
ENDBRANCH  12  13
ENDBRANCH  11  12
ENDBRANCH  10  11
ENDBRANCH   9  10
ENDBRANCH   5   9
ENDBRANCH   1   3
TORSDOF 6
ENDMDL
