MODEL 1
REMARK VINA RESULT:      -7.0      0.000      0.000
REMARK  6 active torsions:
REMARK  status: ('A' for Active; 'I' for Inactive)
REMARK    1  A    between atoms: O_1  and  C_11 
REMARK    2  A    between atoms: C_4  and  C_5 
REMARK    3  A    between atoms: C_4  and  C_6 
REMARK    4  A    between atoms: C_5  and  C_7 
REMARK    5  A    between atoms: C_6  and  C_8 
REMARK    6  A    between atoms: C_8  and  C_12 
ROOT
HETATM    1  O   UNL     1     -53.677  49.908  10.398  1.00  0.00    -0.361 OA
HETATM    2  H   UNL     1     -54.056  50.749  10.237  1.00  0.00     0.217 HD
ENDROOT
BRANCH   1   3
HETATM    3  C   UNL     1     -54.264  48.789   9.894  1.00  0.00     0.066 A 
HETATM    4  C   UNL     1     -53.599  47.564   9.952  1.00  0.00     0.043 A 
HETATM    5  C   UNL     1     -54.211  46.433   9.433  1.00  0.00    -0.056 A 
HETATM    6  C   UNL     1     -55.471  46.497   8.858  1.00  0.00     0.007 A 
HETATM    7  C   UNL     1     -56.136  47.721   8.800  1.00  0.00     0.003 A 
HETATM    8  C   UNL     1     -55.533  48.868   9.318  1.00  0.00     0.036 A 
BRANCH   5   9
HETATM    9  C   UNL     1     -53.492  45.109   9.494  1.00  0.00     0.038 C 
BRANCH   9  10
HETATM   10  C   UNL     1     -52.217  45.054   8.644  1.00  0.00     0.005 C 
BRANCH  10  11
HETATM   11  C   UNL     1     -52.485  44.642   7.191  1.00  0.00     0.011 C 
BRANCH  11  12
HETATM   12  C   UNL     1     -53.580  43.578   7.080  1.00  0.00     0.113 C 
BRANCH  12  13
HETATM   13  C   UNL     1     -54.745  44.006   6.215  1.00  0.00     0.172 C 
HETATM   14  O   UNL     1     -54.322  44.488   5.017  1.00  0.00    -0.648 OA
HETATM   15  O   UNL     1     -55.925  43.919   6.520  1.00  0.00    -0.648 OA
ENDBRANCH  12  13
ENDBRANCH  11  12
ENDBRANCH  10  11
ENDBRANCH   9  10
ENDBRANCH   5   9
ENDBRANCH   1   3
TORSDOF 6
ENDMDL
MODEL 2
REMARK VINA RESULT:      -7.0      1.881      2.302
REMARK  6 active torsions:
REMARK  status: ('A' for Active; 'I' for Inactive)
REMARK    1  A    between atoms: O_1  and  C_11 
REMARK    2  A    between atoms: C_4  and  C_5 
REMARK    3  A    between atoms: C_4  and  C_6 
REMARK    4  A    between atoms: C_5  and  C_7 
REMARK    5  A    between atoms: C_6  and  C_8 
REMARK    6  A    between atoms: C_8  and  C_12 
ROOT
HETATM    1  O   UNL     1     -57.438  45.330   8.558  1.00  0.00    -0.361 OA
HETATM    2  H   UNL     1     -57.610  45.027   7.688  1.00  0.00     0.217 HD
ENDROOT
BRANCH   1   3
HETATM    3  C   UNL     1     -56.398  46.176   8.790  1.00  0.00     0.066 A 
HETATM    4  C   UNL     1     -55.105  45.672   8.932  1.00  0.00     0.043 A 
HETATM    5  C   UNL     1     -54.056  46.548   9.169  1.00  0.00    -0.056 A 
HETATM    6  C   UNL     1     -54.269  47.915   9.266  1.00  0.00     0.007 A 
HETATM    7  C   UNL     1     -55.561  48.419   9.123  1.00  0.00     0.003 A 
HETATM    8  C   UNL     1     -56.626  47.550   8.884  1.00  0.00     0.036 A 
BRANCH   5   9
HETATM    9  C   UNL     1     -52.659  46.003   9.325  1.00  0.00     0.038 C 
BRANCH   9  10
HETATM   10  C   UNL     1     -51.965  45.682   7.996  1.00  0.00     0.005 C 
BRANCH  10  11
HETATM   11  C   UNL     1     -51.978  44.184   7.662  1.00  0.00     0.011 C 
BRANCH  11  12
HETATM   12  C   UNL     1     -52.428  43.913   6.224  1.00  0.00     0.113 C 
BRANCH  12  13
HETATM   13  C   UNL     1     -53.928  43.782   6.081  1.00  0.00     0.172 C 
HETATM   14  O   UNL     1     -54.399  44.554   5.068  1.00  0.00    -0.648 OA
HETATM   15  O   UNL     1     -54.646  43.063   6.762  1.00  0.00    -0.648 OA
ENDBRANCH  12  13
ENDBRANCH  11  12
ENDBRANCH  10  11
ENDBRANCH   9  10
ENDBRANCH   5   9
ENDBRANCH   1   3
TORSDOF 6
ENDMDL
MODEL 3
REMARK VINA RESULT:      -6.8      1.317      6.026
REMARK  6 active torsions:
REMARK  status: ('A' for Active; 'I' for Inactive)
REMARK    1  A    between atoms: O_1  and  C_11 
REMARK    2  A    between atoms: C_4  and  C_5 
REMARK    3  A    between atoms: C_4  and  C_6 
REMARK    4  A    between atoms: C_5  and  C_7 
REMARK    5  A    between atoms: C_6  and  C_8 
REMARK    6  A    between atoms: C_8  and  C_12 
ROOT
HETATM    1  O   UNL     1     -55.175  43.109   6.312  1.00  0.00    -0.361 OA
HETATM    2  H   UNL     1     -55.075  42.278   5.891  1.00  0.00     0.217 HD
ENDROOT
BRANCH   1   3
HETATM    3  C   UNL     1     -54.111  43.696   6.923  1.00  0.00     0.066 A 
HETATM    4  C   UNL     1     -54.303  44.799   7.755  1.00  0.00     0.043 A 
HETATM    5  C   UNL     1     -53.208  45.386   8.371  1.00  0.00    -0.056 A 
HETATM    6  C   UNL     1     -51.925  44.896   8.175  1.00  0.00     0.007 A 
HETATM    7  C   UNL     1     -51.733  43.793   7.344  1.00  0.00     0.003 A 
HETATM    8  C   UNL     1     -52.826  43.192   6.718  1.00  0.00     0.036 A 
BRANCH   5   9
HETATM    9  C   UNL     1     -53.415  46.579   9.268  1.00  0.00     0.038 C 
BRANCH   9  10
HETATM   10  C   UNL     1     -54.836  47.153   9.222  1.00  0.00     0.005 C 
BRANCH  10  11
HETATM   11  C   UNL     1     -54.865  48.653   8.899  1.00  0.00     0.011 C 
BRANCH  11  12
HETATM   12  C   UNL     1     -54.443  49.513  10.092  1.00  0.00     0.113 C 
BRANCH  12  13
HETATM   13  C   UNL     1     -54.093  50.935   9.711  1.00  0.00     0.172 C 
HETATM   14  O   UNL     1     -53.910  51.712  10.810  1.00  0.00    -0.648 OA
HETATM   15  O   UNL     1     -53.964  51.353   8.570  1.00  0.00    -0.648 OA
ENDBRANCH  12  13
ENDBRANCH  11  12
ENDBRANCH  10  11
ENDBRANCH   9  10
ENDBRANCH   5   9
ENDBRANCH   1   3
TORSDOF 6
ENDMDL
MODEL 4
REMARK VINA RESULT:      -6.4      1.969      2.313
REMARK  6 active torsions:
REMARK  status: ('A' for Active; 'I' for Inactive)
REMARK    1  A    between atoms: O_1  and  C_11 
REMARK    2  A    between atoms: C_4  and  C_5 
REMARK    3  A    between atoms: C_4  and  C_6 
REMARK    4  A    between atoms: C_5  and  C_7 
REMARK    5  A    between atoms: C_6  and  C_8 
REMARK    6  A    between atoms: C_8  and  C_12 
ROOT
HETATM    1  O   UNL     1     -52.310  48.454   7.906  1.00  0.00    -0.361 OA
HETATM    2  H   UNL     1     -51.883  48.188   7.116  1.00  0.00     0.217 HD
ENDROOT
BRANCH   1   3
HETATM    3  C   UNL     1     -52.539  47.548   8.895  1.00  0.00     0.066 A 
HETATM    4  C   UNL     1     -52.617  46.188   8.592  1.00  0.00     0.043 A 
HETATM    5  C   UNL     1     -52.851  45.277   9.610  1.00  0.00    -0.056 A 
HETATM    6  C   UNL     1     -53.008  45.692  10.924  1.00  0.00     0.007 A 
HETATM    7  C   UNL     1     -52.929  47.050  11.227  1.00  0.00     0.003 A 
HETATM    8  C   UNL     1     -52.694  47.979  10.213  1.00  0.00     0.036 A 
BRANCH   5   9
HETATM    9  C   UNL     1     -52.937  43.808   9.283  1.00  0.00     0.038 C 
BRANCH   9  10
HETATM   10  C   UNL     1     -52.497  43.461   7.856  1.00  0.00     0.005 C 
BRANCH  10  11
HETATM   11  C   UNL     1     -53.371  42.380   7.206  1.00  0.00     0.011 C 
BRANCH  11  12
HETATM   12  C   UNL     1     -53.841  42.776   5.805  1.00  0.00     0.113 C 
BRANCH  12  13
HETATM   13  C   UNL     1     -54.857  43.896   5.809  1.00  0.00     0.172 C 
HETATM   14  O   UNL     1     -54.657  44.751   4.772  1.00  0.00    -0.648 OA
HETATM   15  O   UNL     1     -55.766  44.028   6.616  1.00  0.00    -0.648 OA
ENDBRANCH  12  13
ENDBRANCH  11  12
ENDBRANCH  10  11
ENDBRANCH   9  10
ENDBRANCH   5   9
ENDBRANCH   1   3
TORSDOF 6
ENDMDL
MODEL 5
REMARK VINA RESULT:      -6.4      1.570      5.826
REMARK  6 active torsions:
REMARK  status: ('A' for Active; 'I' for Inactive)
REMARK    1  A    between atoms: O_1  and  C_11 
REMARK    2  A    between atoms: C_4  and  C_5 
REMARK    3  A    between atoms: C_4  and  C_6 
REMARK    4  A    between atoms: C_5  and  C_7 
REMARK    5  A    between atoms: C_6  and  C_8 
REMARK    6  A    between atoms: C_8  and  C_12 
ROOT
HETATM    1  O   UNL     1     -55.552  42.262   6.230  1.00  0.00    -0.361 OA
HETATM    2  H   UNL     1     -55.941  41.838   5.491  1.00  0.00     0.217 HD
ENDROOT
BRANCH   1   3
HETATM    3  C   UNL     1     -54.296  42.776   6.135  1.00  0.00     0.066 A 
HETATM    4  C   UNL     1     -53.692  43.354   7.252  1.00  0.00     0.043 A 
HETATM    5  C   UNL     1     -52.411  43.875   7.139  1.00  0.00    -0.056 A 
HETATM    6  C   UNL     1     -51.721  43.833   5.937  1.00  0.00     0.007 A 
HETATM    7  C   UNL     1     -52.325  43.255   4.821  1.00  0.00     0.003 A 
HETATM    8  C   UNL     1     -53.612  42.726   4.919  1.00  0.00     0.036 A 
BRANCH   5   9
HETATM    9  C   UNL     1     -51.758  44.502   8.345  1.00  0.00     0.038 C 
BRANCH   9  10
HETATM   10  C   UNL     1     -51.988  46.013   8.462  1.00  0.00     0.005 C 
BRANCH  10  11
HETATM   11  C   UNL     1     -53.143  46.372   9.406  1.00  0.00     0.011 C 
BRANCH  11  12
HETATM   12  C   UNL     1     -52.923  47.711  10.112  1.00  0.00     0.113 C 
BRANCH  12  13
HETATM   13  C   UNL     1     -53.711  48.848   9.499  1.00  0.00     0.172 C 
HETATM   14  O   UNL     1     -53.783  49.912  10.340  1.00  0.00    -0.648 OA
HETATM   15  O   UNL     1     -54.212  48.844   8.383  1.00  0.00    -0.648 OA
ENDBRANCH  12  13
ENDBRANCH  11  12
ENDBRANCH  10  11
ENDBRANCH   9  10
ENDBRANCH   5   9
ENDBRANCH   1   3
TORSDOF 6
ENDMDL
MODEL 6
REMARK VINA RESULT:      -6.3      2.201      2.727
REMARK  6 active torsions:
REMARK  status: ('A' for Active; 'I' for Inactive)
REMARK    1  A    between atoms: O_1  and  C_11 
REMARK    2  A    between atoms: C_4  and  C_5 
REMARK    3  A    between atoms: C_4  and  C_6 
REMARK    4  A    between atoms: C_5  and  C_7 
REMARK    5  A    between atoms: C_6  and  C_8 
REMARK    6  A    between atoms: C_8  and  C_12 
ROOT
HETATM    1  O   UNL     1     -51.761  48.600   7.224  1.00  0.00    -0.361 OA
HETATM    2  H   UNL     1     -52.408  49.131   6.804  1.00  0.00     0.217 HD
ENDROOT
BRANCH   1   3
HETATM    3  C   UNL     1     -52.035  48.009   8.419  1.00  0.00     0.066 A 
HETATM    4  C   UNL     1     -51.210  46.993   8.901  1.00  0.00     0.043 A 
HETATM    5  C   UNL     1     -51.503  46.400  10.119  1.00  0.00    -0.056 A 
HETATM    6  C   UNL     1     -52.601  46.798  10.867  1.00  0.00     0.007 A 
HETATM    7  C   UNL     1     -53.425  47.814  10.386  1.00  0.00     0.003 A 
HETATM    8  C   UNL     1     -53.142  48.421   9.161  1.00  0.00     0.036 A 
BRANCH   5   9
HETATM    9  C   UNL     1     -50.613  45.300  10.640  1.00  0.00     0.038 C 
BRANCH   9  10
HETATM   10  C   UNL     1     -51.161  43.889  10.398  1.00  0.00     0.005 C 
BRANCH  10  11
HETATM   11  C   UNL     1     -51.626  43.667   8.953  1.00  0.00     0.011 C 
BRANCH  11  12
HETATM   12  C   UNL     1     -53.137  43.449   8.854  1.00  0.00     0.113 C 
BRANCH  12  13
HETATM   13  C   UNL     1     -53.837  44.483   8.001  1.00  0.00     0.172 C 
HETATM   14  O   UNL     1     -53.058  44.876   6.959  1.00  0.00    -0.648 OA
HETATM   15  O   UNL     1     -54.966  44.912   8.188  1.00  0.00    -0.648 OA
ENDBRANCH  12  13
ENDBRANCH  11  12
ENDBRANCH  10  11
ENDBRANCH   9  10
ENDBRANCH   5   9
ENDBRANCH   1   3
TORSDOF 6
ENDMDL
MODEL 7
REMARK VINA RESULT:      -6.3      2.194      3.122
REMARK  6 active torsions:
REMARK  status: ('A' for Active; 'I' for Inactive)
REMARK    1  A    between atoms: O_1  and  C_11 
REMARK    2  A    between atoms: C_4  and  C_5 
REMARK    3  A    between atoms: C_4  and  C_6 
REMARK    4  A    between atoms: C_5  and  C_7 
REMARK    5  A    between atoms: C_6  and  C_8 
REMARK    6  A    between atoms: C_8  and  C_12 
ROOT
HETATM    1  O   UNL     1     -52.830  48.150   8.259  1.00  0.00    -0.361 OA
HETATM    2  H   UNL     1     -52.801  48.419   7.362  1.00  0.00     0.217 HD
ENDROOT
BRANCH   1   3
HETATM    3  C   UNL     1     -52.231  46.990   8.641  1.00  0.00     0.066 A 
HETATM    4  C   UNL     1     -52.929  45.785   8.563  1.00  0.00     0.043 A 
HETATM    5  C   UNL     1     -52.305  44.611   8.957  1.00  0.00    -0.056 A 
HETATM    6  C   UNL     1     -51.001  44.613   9.427  1.00  0.00     0.007 A 
HETATM    7  C   UNL     1     -50.303  45.817   9.505  1.00  0.00     0.003 A 
HETATM    8  C   UNL     1     -50.918  47.007   9.112  1.00  0.00     0.036 A 
BRANCH   5   9
HETATM    9  C   UNL     1     -53.060  43.308   8.874  1.00  0.00     0.038 C 
BRANCH   9  10
HETATM   10  C   UNL     1     -52.477  42.315   7.862  1.00  0.00     0.005 C 
BRANCH  10  11
HETATM   11  C   UNL     1     -52.855  42.648   6.412  1.00  0.00     0.011 C 
BRANCH  11  12
HETATM   12  C   UNL     1     -54.362  42.552   6.167  1.00  0.00     0.113 C 
BRANCH  12  13
HETATM   13  C   UNL     1     -55.033  43.900   6.023  1.00  0.00     0.172 C 
HETATM   14  O   UNL     1     -54.489  44.618   5.006  1.00  0.00    -0.648 OA
HETATM   15  O   UNL     1     -55.961  44.308   6.706  1.00  0.00    -0.648 OA
ENDBRANCH  12  13
ENDBRANCH  11  12
ENDBRANCH  10  11
ENDBRANCH   9  10
ENDBRANCH   5   9
ENDBRANCH   1   3
TORSDOF 6
ENDMDL
MODEL 8
REMARK VINA RESULT:      -6.2      1.689      5.447
REMARK  6 active torsions:
REMARK  status: ('A' for Active; 'I' for Inactive)
REMARK    1  A    between atoms: O_1  and  C_11 
REMARK    2  A    between atoms: C_4  and  C_5 
REMARK    3  A    between atoms: C_4  and  C_6 
REMARK    4  A    between atoms: C_5  and  C_7 
REMARK    5  A    between atoms: C_6  and  C_8 
REMARK    6  A    between atoms: C_8  and  C_12 
ROOT
HETATM    1  O   UNL     1     -54.028  44.459   5.142  1.00  0.00    -0.361 OA
HETATM    2  H   UNL     1     -53.485  44.473   4.378  1.00  0.00     0.217 HD
ENDROOT
BRANCH   1   3
HETATM    3  C   UNL     1     -53.586  43.859   6.280  1.00  0.00     0.066 A 
HETATM    4  C   UNL     1     -53.801  44.465   7.518  1.00  0.00     0.043 A 
HETATM    5  C   UNL     1     -53.344  43.841   8.669  1.00  0.00    -0.056 A 
HETATM    6  C   UNL     1     -52.678  42.626   8.612  1.00  0.00     0.007 A 
HETATM    7  C   UNL     1     -52.463  42.020   7.375  1.00  0.00     0.003 A 
HETATM    8  C   UNL     1     -52.918  42.636   6.208  1.00  0.00     0.036 A 
BRANCH   5   9
HETATM    9  C   UNL     1     -53.575  44.496  10.007  1.00  0.00     0.038 C 
BRANCH   9  10
HETATM   10  C   UNL     1     -52.348  45.232  10.558  1.00  0.00     0.005 C 
BRANCH  10  11
HETATM   11  C   UNL     1     -52.176  46.636   9.962  1.00  0.00     0.011 C 
BRANCH  11  12
HETATM   12  C   UNL     1     -53.131  47.655  10.587  1.00  0.00     0.113 C 
BRANCH  12  13
HETATM   13  C   UNL     1     -53.526  48.765   9.638  1.00  0.00     0.172 C 
HETATM   14  O   UNL     1     -53.676  49.946  10.292  1.00  0.00    -0.648 OA
HETATM   15  O   UNL     1     -53.676  48.647   8.431  1.00  0.00    -0.648 OA
ENDBRANCH  12  13
ENDBRANCH  11  12
ENDBRANCH  10  11
ENDBRANCH   9  10
ENDBRANCH   5   9
ENDBRANCH   1   3
TORSDOF 6
ENDMDL
MODEL 9
REMARK VINA RESULT:      -6.2      3.740      5.800
REMARK  6 active torsions:
REMARK  status: ('A' for Active; 'I' for Inactive)
REMARK    1  A    between atoms: O_1  and  C_11 
REMARK    2  A    between atoms: C_4  and  C_5 
REMARK    3  A    between atoms: C_4  and  C_6 
REMARK    4  A    between atoms: C_5  and  C_7 
REMARK    5  A    between atoms: C_6  and  C_8 
REMARK    6  A    between atoms: C_8  and  C_12 
ROOT
HETATM    1  O   UNL     1     -48.723  45.655  11.340  1.00  0.00    -0.361 OA
HETATM    2  H   UNL     1     -48.564  44.756  11.132  1.00  0.00     0.217 HD
ENDROOT
BRANCH   1   3
HETATM    3  C   UNL     1     -49.999  46.104  11.487  1.00  0.00     0.066 A 
HETATM    4  C   UNL     1     -50.752  46.447  10.364  1.00  0.00     0.043 A 
HETATM    5  C   UNL     1     -52.051  46.904  10.530  1.00  0.00    -0.056 A 
HETATM    6  C   UNL     1     -52.614  47.025  11.792  1.00  0.00     0.007 A 
HETATM    7  C   UNL     1     -51.861  46.682  12.914  1.00  0.00     0.003 A 
HETATM    8  C   UNL     1     -50.553  46.220  12.762  1.00  0.00     0.036 A 
BRANCH   5   9
HETATM    9  C   UNL     1     -52.865  47.277   9.318  1.00  0.00     0.038 C 
BRANCH   9  10
HETATM   10  C   UNL     1     -54.347  47.531   9.618  1.00  0.00     0.005 C 
BRANCH  10  11
HETATM   11  C   UNL     1     -54.941  48.670   8.778  1.00  0.00     0.011 C 
BRANCH  11  12
HETATM   12  C   UNL     1     -55.283  49.899   9.623  1.00  0.00     0.113 C 
BRANCH  12  13
HETATM   13  C   UNL     1     -54.157  50.906   9.698  1.00  0.00     0.172 C 
HETATM   14  O   UNL     1     -53.627  51.150   8.471  1.00  0.00    -0.648 OA
HETATM   15  O   UNL     1     -53.768  51.461  10.715  1.00  0.00    -0.648 OA
ENDBRANCH  12  13
ENDBRANCH  11  12
ENDBRANCH  10  11
ENDBRANCH   9  10
ENDBRANCH   5   9
ENDBRANCH   1   3
TORSDOF 6
ENDMDL
