MODEL 1
REMARK VINA RESULT:      -7.2      0.000      0.000
REMARK  4 active torsions:
REMARK  status: ('A' for Active; 'I' for Inactive)
REMARK    1  A    between atoms: O_1  and  C_5 
REMARK    2  A    between atoms: O_1  and  C_14 
REMARK    3  A    between atoms: O_2  and  C_18 
REMARK    4  A    between atoms: C_10  and  C_13 
ROOT
HETATM    1  O   UNL     1     -51.642  46.341   7.362  1.00  0.00    -0.343 OA
ENDROOT
BRANCH   1   2
HETATM    2  C   UNL     1     -52.465  46.605   6.233  1.00  0.00     0.129 C 
HETATM    3  C   UNL     1     -53.097  45.308   5.752  1.00  0.00     0.032 C 
HETATM    4  C   UNL     1     -51.997  44.623   4.943  1.00  0.00     0.002 C 
HETATM    5  C   UNL     1     -51.029  45.726   4.516  1.00  0.00     0.002 C 
HETATM    6  C   UNL     1     -51.615  47.033   5.047  1.00  0.00     0.032 C 
ENDBRANCH   1   2
BRANCH   1   7
HETATM    7  C   UNL     1     -52.103  46.776   8.577  1.00  0.00     0.103 A 
HETATM    8  C   UNL     1     -52.666  48.044   8.675  1.00  0.00     0.047 A 
HETATM    9  C   UNL     1     -53.136  48.499   9.905  1.00  0.00    -0.049 A 
HETATM   10  C   UNL     1     -53.042  47.684  11.033  1.00  0.00     0.010 A 
HETATM   11  C   UNL     1     -52.477  46.413  10.929  1.00  0.00     0.040 A 
HETATM   12  C   UNL     1     -52.005  45.958   9.698  1.00  0.00     0.101 A 
BRANCH   9  13
HETATM   13  C   UNL     1     -53.750  49.878  10.018  1.00  0.00     0.045 C 
HETATM   14  C   UNL     1     -53.374  50.868   8.915  1.00  0.00     0.132 C 
HETATM   15  N   UNL     1     -53.617  52.152   9.508  1.00  0.00    -0.360 N 
HETATM   16  C   UNL     1     -53.633  52.103  10.896  1.00  0.00     0.218 C 
HETATM   17  H   UNL     1     -53.756  52.977   8.989  1.00  0.00     0.162 HD
HETATM   18  O   UNL     1     -53.771  53.038  11.670  1.00  0.00    -0.274 OA
HETATM   19  C   UNL     1     -53.393  50.668  11.292  1.00  0.00     0.113 C 
ENDBRANCH   9  13
BRANCH  12  20
HETATM   20  O   UNL     1     -51.454  44.715   9.609  1.00  0.00    -0.353 OA
HETATM   21  C   UNL     1     -52.270  43.615  10.007  1.00  0.00     0.210 C 
ENDBRANCH  12  20
ENDBRANCH   1   7
TORSDOF 4
ENDMDL
MODEL 2
REMARK VINA RESULT:      -7.2      2.859      3.902
REMARK  4 active torsions:
REMARK  status: ('A' for Active; 'I' for Inactive)
REMARK    1  A    between atoms: O_1  and  C_5 
REMARK    2  A    between atoms: O_1  and  C_14 
REMARK    3  A    between atoms: O_2  and  C_18 
REMARK    4  A    between atoms: C_10  and  C_13 
ROOT
HETATM    1  O   UNL     1     -51.382  44.963  11.394  1.00  0.00    -0.343 OA
ENDROOT
BRANCH   1   2
HETATM    2  C   UNL     1     -50.615  45.096  10.204  1.00  0.00     0.129 C 
HETATM    3  C   UNL     1     -50.619  43.776   9.449  1.00  0.00     0.032 C 
HETATM    4  C   UNL     1     -49.579  42.920  10.169  1.00  0.00     0.002 C 
HETATM    5  C   UNL     1     -48.650  43.893  10.894  1.00  0.00     0.002 C 
HETATM    6  C   UNL     1     -49.145  45.294  10.540  1.00  0.00     0.032 C 
ENDBRANCH   1   2
BRANCH   1   7
HETATM    7  C   UNL     1     -51.918  46.111  11.915  1.00  0.00     0.103 A 
HETATM    8  C   UNL     1     -52.525  47.025  11.059  1.00  0.00     0.047 A 
HETATM    9  C   UNL     1     -53.074  48.197  11.576  1.00  0.00    -0.049 A 
HETATM   10  C   UNL     1     -53.013  48.452  12.946  1.00  0.00     0.010 A 
HETATM   11  C   UNL     1     -52.404  47.531  13.799  1.00  0.00     0.040 A 
HETATM   12  C   UNL     1     -51.855  46.358  13.282  1.00  0.00     0.101 A 
BRANCH   9  13
HETATM   13  C   UNL     1     -53.735  49.196  10.651  1.00  0.00     0.045 C 
HETATM   14  C   UNL     1     -53.281  49.154   9.190  1.00  0.00     0.132 C 
HETATM   15  N   UNL     1     -53.618  50.457   8.689  1.00  0.00    -0.360 N 
HETATM   16  C   UNL     1     -53.769  51.395   9.702  1.00  0.00     0.218 C 
HETATM   17  H   UNL     1     -53.730  50.662   7.733  1.00  0.00     0.162 HD
HETATM   18  O   UNL     1     -54.008  52.586   9.580  1.00  0.00    -0.274 OA
HETATM   19  C   UNL     1     -53.527  50.680  11.008  1.00  0.00     0.113 C 
ENDBRANCH   9  13
BRANCH  12  20
HETATM   20  O   UNL     1     -51.261  45.468  14.125  1.00  0.00    -0.353 OA
HETATM   21  C   UNL     1     -50.243  45.972  14.988  1.00  0.00     0.210 C 
ENDBRANCH  12  20
ENDBRANCH   1   7
TORSDOF 4
ENDMDL
MODEL 3
REMARK VINA RESULT:      -7.1      2.844      3.771
REMARK  4 active torsions:
REMARK  status: ('A' for Active; 'I' for Inactive)
REMARK    1  A    between atoms: O_1  and  C_5 
REMARK    2  A    between atoms: O_1  and  C_14 
REMARK    3  A    between atoms: O_2  and  C_18 
REMARK    4  A    between atoms: C_10  and  C_13 
ROOT
HETATM    1  O   UNL     1     -51.696  44.901  11.551  1.00  0.00    -0.343 OA
ENDROOT
BRANCH   1   2
HETATM    2  C   UNL     1     -51.969  44.648  10.179  1.00  0.00     0.129 C 
HETATM    3  C   UNL     1     -52.955  43.495  10.062  1.00  0.00     0.032 C 
HETATM    4  C   UNL     1     -52.101  42.243  10.249  1.00  0.00     0.002 C 
HETATM    5  C   UNL     1     -50.667  42.645   9.905  1.00  0.00     0.002 C 
HETATM    6  C   UNL     1     -50.729  44.111   9.481  1.00  0.00     0.032 C 
ENDBRANCH   1   2
BRANCH   1   7
HETATM    7  C   UNL     1     -52.097  46.113  12.048  1.00  0.00     0.103 A 
HETATM    8  C   UNL     1     -52.690  47.035  11.190  1.00  0.00     0.047 A 
HETATM    9  C   UNL     1     -53.101  48.272  11.683  1.00  0.00    -0.049 A 
HETATM   10  C   UNL     1     -52.918  48.583  13.030  1.00  0.00     0.010 A 
HETATM   11  C   UNL     1     -52.324  47.655  13.885  1.00  0.00     0.040 A 
HETATM   12  C   UNL     1     -51.911  46.417  13.392  1.00  0.00     0.101 A 
BRANCH   9  13
HETATM   13  C   UNL     1     -53.747  49.279  10.756  1.00  0.00     0.045 C 
HETATM   14  C   UNL     1     -53.286  49.235   9.298  1.00  0.00     0.132 C 
HETATM   15  N   UNL     1     -53.606  50.542   8.797  1.00  0.00    -0.360 N 
HETATM   16  C   UNL     1     -53.751  51.480   9.810  1.00  0.00     0.218 C 
HETATM   17  H   UNL     1     -53.710  50.750   7.841  1.00  0.00     0.162 HD
HETATM   18  O   UNL     1     -53.976  52.674   9.689  1.00  0.00    -0.274 OA
HETATM   19  C   UNL     1     -53.524  50.761  11.117  1.00  0.00     0.113 C 
ENDBRANCH   9  13
BRANCH  12  20
HETATM   20  O   UNL     1     -51.330  45.519  14.236  1.00  0.00    -0.353 OA
HETATM   21  C   UNL     1     -50.269  45.998  15.060  1.00  0.00     0.210 C 
ENDBRANCH  12  20
ENDBRANCH   1   7
TORSDOF 4
ENDMDL
MODEL 4
REMARK VINA RESULT:      -7.1      2.936      5.291
REMARK  4 active torsions:
REMARK  status: ('A' for Active; 'I' for Inactive)
REMARK    1  A    between atoms: O_1  and  C_5 
REMARK    2  A    between atoms: O_1  and  C_14 
REMARK    3  A    between atoms: O_2  and  C_18 
REMARK    4  A    between atoms: C_10  and  C_13 
ROOT
HETATM    1  O   UNL     1     -53.085  47.916   8.745  1.00  0.00    -0.343 OA
ENDROOT
BRANCH   1   2
HETATM    2  C   UNL     1     -52.367  46.725   8.450  1.00  0.00     0.129 C 
HETATM    3  C   UNL     1     -51.067  47.079   7.744  1.00  0.00     0.032 C 
HETATM    4  C   UNL     1     -51.476  47.337   6.295  1.00  0.00     0.002 C 
HETATM    5  C   UNL     1     -52.803  46.607   6.088  1.00  0.00     0.002 C 
HETATM    6  C   UNL     1     -53.110  45.903   7.408  1.00  0.00     0.032 C 
ENDBRANCH   1   2
BRANCH   1   7
HETATM    7  C   UNL     1     -53.096  48.322  10.054  1.00  0.00     0.103 A 
HETATM    8  C   UNL     1     -52.744  47.416  11.048  1.00  0.00     0.047 A 
HETATM    9  C   UNL     1     -52.752  47.816  12.383  1.00  0.00    -0.049 A 
HETATM   10  C   UNL     1     -53.113  49.121  12.719  1.00  0.00     0.010 A 
HETATM   11  C   UNL     1     -53.464  50.026  11.717  1.00  0.00     0.040 A 
HETATM   12  C   UNL     1     -53.457  49.625  10.381  1.00  0.00     0.101 A 
BRANCH   9  13
HETATM   13  C   UNL     1     -52.370  46.835  13.470  1.00  0.00     0.045 C 
HETATM   14  C   UNL     1     -51.219  47.264  14.382  1.00  0.00     0.132 C 
HETATM   15  N   UNL     1     -50.727  46.028  14.920  1.00  0.00    -0.360 N 
HETATM   16  C   UNL     1     -51.083  44.931  14.146  1.00  0.00     0.218 C 
HETATM   17  H   UNL     1     -50.196  45.964  15.746  1.00  0.00     0.162 HD
HETATM   18  O   UNL     1     -50.773  43.764  14.326  1.00  0.00    -0.274 OA
HETATM   19  C   UNL     1     -51.895  45.451  12.986  1.00  0.00     0.113 C 
ENDBRANCH   9  13
BRANCH  12  20
HETATM   20  O   UNL     1     -53.804  50.517   9.411  1.00  0.00    -0.353 OA
HETATM   21  C   UNL     1     -53.645  51.901   9.718  1.00  0.00     0.210 C 
ENDBRANCH  12  20
ENDBRANCH   1   7
TORSDOF 4
ENDMDL
MODEL 5
REMARK VINA RESULT:      -6.9      1.379      1.843
REMARK  4 active torsions:
REMARK  status: ('A' for Active; 'I' for Inactive)
REMARK    1  A    between atoms: O_1  and  C_5 
REMARK    2  A    between atoms: O_1  and  C_14 
REMARK    3  A    between atoms: O_2  and  C_18 
REMARK    4  A    between atoms: C_10  and  C_13 
ROOT
HETATM    1  O   UNL     1     -51.623  45.727   8.688  1.00  0.00    -0.343 OA
ENDROOT
BRANCH   1   2
HETATM    2  C   UNL     1     -52.613  45.292   7.764  1.00  0.00     0.129 C 
HETATM    3  C   UNL     1     -53.498  44.246   8.425  1.00  0.00     0.032 C 
HETATM    4  C   UNL     1     -52.685  42.955   8.349  1.00  0.00     0.002 C 
HETATM    5  C   UNL     1     -51.684  43.144   7.211  1.00  0.00     0.002 C 
HETATM    6  C   UNL     1     -51.969  44.524   6.621  1.00  0.00     0.032 C 
ENDBRANCH   1   2
BRANCH   1   7
HETATM    7  C   UNL     1     -52.063  46.429   9.779  1.00  0.00     0.103 A 
HETATM    8  C   UNL     1     -52.662  47.671   9.591  1.00  0.00     0.047 A 
HETATM    9  C   UNL     1     -53.112  48.395  10.693  1.00  0.00    -0.049 A 
HETATM   10  C   UNL     1     -52.961  47.876  11.979  1.00  0.00     0.010 A 
HETATM   11  C   UNL     1     -52.360  46.630  12.161  1.00  0.00     0.040 A 
HETATM   12  C   UNL     1     -51.909  45.905  11.058  1.00  0.00     0.101 A 
BRANCH   9  13
HETATM   13  C   UNL     1     -53.765  49.746  10.495  1.00  0.00     0.045 C 
HETATM   14  C   UNL     1     -53.425  50.466   9.189  1.00  0.00     0.132 C 
HETATM   15  N   UNL     1     -53.701  51.845   9.476  1.00  0.00    -0.360 N 
HETATM   16  C   UNL     1     -53.705  52.116  10.838  1.00  0.00     0.218 C 
HETATM   17  H   UNL     1     -53.868  52.525   8.783  1.00  0.00     0.162 HD
HETATM   18  O   UNL     1     -53.864  53.199  11.379  1.00  0.00    -0.274 OA
HETATM   19  C   UNL     1     -53.421  50.817  11.549  1.00  0.00     0.113 C 
ENDBRANCH   9  13
BRANCH  12  20
HETATM   20  O   UNL     1     -51.322  44.691  11.249  1.00  0.00    -0.353 OA
HETATM   21  C   UNL     1     -52.049  43.735  12.019  1.00  0.00     0.210 C 
ENDBRANCH  12  20
ENDBRANCH   1   7
TORSDOF 4
ENDMDL
MODEL 6
REMARK VINA RESULT:      -6.9      2.675      4.352
REMARK  4 active torsions:
REMARK  status: ('A' for Active; 'I' for Inactive)
REMARK    1  A    between atoms: O_1  and  C_5 
REMARK    2  A    between atoms: O_1  and  C_14 
REMARK    3  A    between atoms: O_2  and  C_18 
REMARK    4  A    between atoms: C_10  and  C_13 
ROOT
HETATM    1  O   UNL     1     -51.493  45.538  11.008  1.00  0.00    -0.343 OA
ENDROOT
BRANCH   1   2
HETATM    2  C   UNL     1     -51.198  46.023  12.312  1.00  0.00     0.129 C 
HETATM    3  C   UNL     1     -49.815  45.545  12.730  1.00  0.00     0.032 C 
HETATM    4  C   UNL     1     -50.030  44.103  13.183  1.00  0.00     0.002 C 
HETATM    5  C   UNL     1     -51.510  43.983  13.546  1.00  0.00     0.002 C 
HETATM    6  C   UNL     1     -52.110  45.372  13.339  1.00  0.00     0.032 C 
ENDBRANCH   1   2
BRANCH   1   7
HETATM    7  C   UNL     1     -52.597  46.062  10.390  1.00  0.00     0.103 A 
HETATM    8  C   UNL     1     -52.815  47.435  10.439  1.00  0.00     0.047 A 
HETATM    9  C   UNL     1     -53.936  47.980   9.815  1.00  0.00    -0.049 A 
HETATM   10  C   UNL     1     -54.834  47.150   9.144  1.00  0.00     0.010 A 
HETATM   11  C   UNL     1     -54.609  45.774   9.097  1.00  0.00     0.040 A 
HETATM   12  C   UNL     1     -53.488  45.229   9.722  1.00  0.00     0.101 A 
BRANCH   9  13
HETATM   13  C   UNL     1     -54.179  49.473   9.865  1.00  0.00     0.045 C 
HETATM   14  C   UNL     1     -53.500  50.297   8.769  1.00  0.00     0.132 C 
HETATM   15  N   UNL     1     -53.436  51.619   9.324  1.00  0.00    -0.360 N 
HETATM   16  C   UNL     1     -53.540  51.622  10.709  1.00  0.00     0.218 C 
HETATM   17  H   UNL     1     -53.329  52.434   8.783  1.00  0.00     0.162 HD
HETATM   18  O   UNL     1     -53.474  52.585  11.456  1.00  0.00    -0.274 OA
HETATM   19  C   UNL     1     -53.701  50.186  11.145  1.00  0.00     0.113 C 
ENDBRANCH   9  13
BRANCH  12  20
HETATM   20  O   UNL     1     -53.281  43.883   9.671  1.00  0.00    -0.353 OA
HETATM   21  C   UNL     1     -54.224  43.110   8.931  1.00  0.00     0.210 C 
ENDBRANCH  12  20
ENDBRANCH   1   7
TORSDOF 4
ENDMDL
MODEL 7
REMARK VINA RESULT:      -6.8      3.576      7.203
REMARK  4 active torsions:
REMARK  status: ('A' for Active; 'I' for Inactive)
REMARK    1  A    between atoms: O_1  and  C_5 
REMARK    2  A    between atoms: O_1  and  C_14 
REMARK    3  A    between atoms: O_2  and  C_18 
REMARK    4  A    between atoms: C_10  and  C_13 
ROOT
HETATM    1  O   UNL     1     -52.421  47.711  11.009  1.00  0.00    -0.343 OA
ENDROOT
BRANCH   1   2
HETATM    2  C   UNL     1     -53.689  48.143  11.485  1.00  0.00     0.129 C 
HETATM    3  C   UNL     1     -54.610  48.412  10.304  1.00  0.00     0.032 C 
HETATM    4  C   UNL     1     -54.192  49.793   9.801  1.00  0.00     0.002 C 
HETATM    5  C   UNL     1     -53.499  50.485  10.974  1.00  0.00     0.002 C 
HETATM    6  C   UNL     1     -53.571  49.508  12.146  1.00  0.00     0.032 C 
ENDBRANCH   1   2
BRANCH   1   7
HETATM    7  C   UNL     1     -52.295  46.381  10.708  1.00  0.00     0.103 A 
HETATM    8  C   UNL     1     -52.558  45.435  11.694  1.00  0.00     0.047 A 
HETATM    9  C   UNL     1     -52.431  44.078  11.401  1.00  0.00    -0.049 A 
HETATM   10  C   UNL     1     -52.042  43.672  10.124  1.00  0.00     0.010 A 
HETATM   11  C   UNL     1     -51.781  44.626   9.140  1.00  0.00     0.040 A 
HETATM   12  C   UNL     1     -51.906  45.984   9.433  1.00  0.00     0.101 A 
BRANCH   9  13
HETATM   13  C   UNL     1     -52.716  43.043  12.468  1.00  0.00     0.045 C 
HETATM   14  C   UNL     1     -51.490  42.417  13.135  1.00  0.00     0.132 C 
HETATM   15  N   UNL     1     -51.982  41.176  13.661  1.00  0.00    -0.360 N 
HETATM   16  C   UNL     1     -53.149  40.757  13.036  1.00  0.00     0.218 C 
HETATM   17  H   UNL     1     -51.540  40.676  14.385  1.00  0.00     0.162 HD
HETATM   18  O   UNL     1     -53.770  39.725  13.238  1.00  0.00    -0.274 OA
HETATM   19  C   UNL     1     -53.497  41.799  12.003  1.00  0.00     0.113 C 
ENDBRANCH   9  13
BRANCH  12  20
HETATM   20  O   UNL     1     -51.646  46.905   8.464  1.00  0.00    -0.353 OA
HETATM   21  C   UNL     1     -52.593  47.014   7.403  1.00  0.00     0.210 C 
ENDBRANCH  12  20
ENDBRANCH   1   7
TORSDOF 4
ENDMDL
MODEL 8
REMARK VINA RESULT:      -6.8      3.453      5.055
REMARK  4 active torsions:
REMARK  status: ('A' for Active; 'I' for Inactive)
REMARK    1  A    between atoms: O_1  and  C_5 
REMARK    2  A    between atoms: O_1  and  C_14 
REMARK    3  A    between atoms: O_2  and  C_18 
REMARK    4  A    between atoms: C_10  and  C_13 
ROOT
HETATM    1  O   UNL     1     -53.060  46.545   9.677  1.00  0.00    -0.343 OA
ENDROOT
BRANCH   1   2
HETATM    2  C   UNL     1     -51.805  46.016   9.268  1.00  0.00     0.129 C 
HETATM    3  C   UNL     1     -51.204  46.911   8.195  1.00  0.00     0.032 C 
HETATM    4  C   UNL     1     -51.929  46.509   6.912  1.00  0.00     0.002 C 
HETATM    5  C   UNL     1     -52.465  45.098   7.145  1.00  0.00     0.002 C 
HETATM    6  C   UNL     1     -51.999  44.693   8.542  1.00  0.00     0.032 C 
ENDBRANCH   1   2
BRANCH   1   7
HETATM    7  C   UNL     1     -53.041  47.471  10.687  1.00  0.00     0.103 A 
HETATM    8  C   UNL     1     -52.523  47.111  11.927  1.00  0.00     0.047 A 
HETATM    9  C   UNL     1     -52.499  48.043  12.963  1.00  0.00    -0.049 A 
HETATM   10  C   UNL     1     -52.992  49.331  12.755  1.00  0.00     0.010 A 
HETATM   11  C   UNL     1     -53.508  49.686  11.508  1.00  0.00     0.040 A 
HETATM   12  C   UNL     1     -53.534  48.753  10.472  1.00  0.00     0.101 A 
BRANCH   9  13
HETATM   13  C   UNL     1     -51.938  47.658  14.315  1.00  0.00     0.045 C 
HETATM   14  C   UNL     1     -51.536  48.820  15.225  1.00  0.00     0.132 C 
HETATM   15  N   UNL     1     -50.596  48.231  16.137  1.00  0.00    -0.360 N 
HETATM   16  C   UNL     1     -50.038  47.059  15.644  1.00  0.00     0.218 C 
HETATM   17  H   UNL     1     -50.371  48.617  17.014  1.00  0.00     0.162 HD
HETATM   18  O   UNL     1     -49.182  46.366  16.172  1.00  0.00    -0.274 OA
HETATM   19  C   UNL     1     -50.650  46.812  14.288  1.00  0.00     0.113 C 
ENDBRANCH   9  13
BRANCH  12  20
HETATM   20  O   UNL     1     -54.042  49.111   9.260  1.00  0.00    -0.353 OA
HETATM   21  C   UNL     1     -53.266  50.012   8.472  1.00  0.00     0.210 C 
ENDBRANCH  12  20
ENDBRANCH   1   7
TORSDOF 4
ENDMDL
MODEL 9
REMARK VINA RESULT:      -6.7      2.607      3.805
REMARK  4 active torsions:
REMARK  status: ('A' for Active; 'I' for Inactive)
REMARK    1  A    between atoms: O_1  and  C_5 
REMARK    2  A    between atoms: O_1  and  C_14 
REMARK    3  A    between atoms: O_2  and  C_18 
REMARK    4  A    between atoms: C_10  and  C_13 
ROOT
HETATM    1  O   UNL     1     -52.611  43.938   8.752  1.00  0.00    -0.343 OA
ENDROOT
BRANCH   1   2
HETATM    2  C   UNL     1     -51.886  43.376   9.839  1.00  0.00     0.129 C 
HETATM    3  C   UNL     1     -50.415  43.271   9.467  1.00  0.00     0.032 C 
HETATM    4  C   UNL     1     -50.328  42.016   8.600  1.00  0.00     0.002 C 
HETATM    5  C   UNL     1     -51.548  41.166   8.954  1.00  0.00     0.002 C 
HETATM    6  C   UNL     1     -52.290  41.925  10.051  1.00  0.00     0.032 C 
ENDBRANCH   1   2
BRANCH   1   7
HETATM    7  C   UNL     1     -53.417  45.009   9.036  1.00  0.00     0.103 A 
HETATM    8  C   UNL     1     -52.875  46.112   9.687  1.00  0.00     0.047 A 
HETATM    9  C   UNL     1     -53.685  47.207   9.982  1.00  0.00    -0.049 A 
HETATM   10  C   UNL     1     -55.034  47.195   9.626  1.00  0.00     0.010 A 
HETATM   11  C   UNL     1     -55.571  46.086   8.972  1.00  0.00     0.040 A 
HETATM   12  C   UNL     1     -54.761  44.989   8.677  1.00  0.00     0.101 A 
BRANCH   9  13
HETATM   13  C   UNL     1     -53.102  48.411  10.690  1.00  0.00     0.045 C 
HETATM   14  C   UNL     1     -53.139  48.369  12.219  1.00  0.00     0.132 C 
HETATM   15  N   UNL     1     -53.048  49.750  12.602  1.00  0.00    -0.360 N 
HETATM   16  C   UNL     1     -53.419  50.613  11.579  1.00  0.00     0.218 C 
HETATM   17  H   UNL     1     -52.755  50.051  13.492  1.00  0.00     0.162 HD
HETATM   18  O   UNL     1     -53.484  51.831  11.624  1.00  0.00    -0.274 OA
HETATM   19  C   UNL     1     -53.785  49.760  10.390  1.00  0.00     0.113 C 
ENDBRANCH   9  13
BRANCH  12  20
HETATM   20  O   UNL     1     -55.298  43.911   8.041  1.00  0.00    -0.353 OA
HETATM   21  C   UNL     1     -56.009  42.972   8.845  1.00  0.00     0.210 C 
ENDBRANCH  12  20
ENDBRANCH   1   7
TORSDOF 4
ENDMDL
