MODEL 1
REMARK VINA RESULT:      -6.7      0.000      0.000
REMARK  7 active torsions:
REMARK  status: ('A' for Active; 'I' for Inactive)
REMARK    1  A    between atoms: O_1  and  C_12 
REMARK    2  A    between atoms: O_3  and  C_15 
REMARK    3  A    between atoms: C_5  and  C_6 
REMARK    4  A    between atoms: C_5  and  C_7 
REMARK    5  A    between atoms: C_6  and  C_8 
REMARK    6  A    between atoms: C_7  and  C_9 
REMARK    7  A    between atoms: C_9  and  C_14 
ROOT
HETATM    1  O   UNL     1      12.184   6.395  13.805  1.00  0.00    -0.358 OA
HETATM    2  H   UNL     1      11.548   5.758  14.067  1.00  0.00     0.217 HD
ENDROOT
BRANCH   1   3
HETATM    3  C   UNL     1      11.852   7.354  12.895  1.00  0.00     0.099 A 
HETATM    4  C   UNL     1      12.370   7.281  11.603  1.00  0.00     0.046 A 
HETATM    5  C   UNL     1      12.040   8.258  10.663  1.00  0.00    -0.055 A 
HETATM    6  C   UNL     1      11.193   9.309  11.017  1.00  0.00     0.010 A 
HETATM    7  C   UNL     1      10.675   9.381  12.311  1.00  0.00     0.040 A 
HETATM    8  C   UNL     1      11.006   8.404  13.249  1.00  0.00     0.098 A 
BRANCH   5   9
HETATM    9  C   UNL     1      12.601   8.180   9.265  1.00  0.00     0.038 C 
BRANCH   9  10
HETATM   10  C   UNL     1      12.227   6.896   8.516  1.00  0.00     0.005 C 
BRANCH  10  11
HETATM   11  C   UNL     1      10.713   6.736   8.321  1.00  0.00     0.011 C 
BRANCH  11  12
HETATM   12  C   UNL     1      10.370   5.728   7.224  1.00  0.00     0.113 C 
BRANCH  12  13
HETATM   13  C   UNL     1      10.672   6.232   5.831  1.00  0.00     0.172 C 
HETATM   14  O   UNL     1      10.319   7.536   5.688  1.00  0.00    -0.648 OA
HETATM   15  O   UNL     1      11.187   5.578   4.935  1.00  0.00    -0.648 OA
ENDBRANCH  12  13
ENDBRANCH  11  12
ENDBRANCH  10  11
ENDBRANCH   9  10
ENDBRANCH   5   9
BRANCH   8  16
HETATM   16  O   UNL     1      10.494   8.485  14.510  1.00  0.00    -0.358 OA
HETATM   17  H   UNL     1      10.844   7.947  15.193  1.00  0.00     0.217 HD
ENDBRANCH   8  16
ENDBRANCH   1   3
TORSDOF 7
ENDMDL
MODEL 2
REMARK VINA RESULT:      -6.5      2.710      6.537
REMARK  7 active torsions:
REMARK  status: ('A' for Active; 'I' for Inactive)
REMARK    1  A    between atoms: O_1  and  C_12 
REMARK    2  A    between atoms: O_3  and  C_15 
REMARK    3  A    between atoms: C_5  and  C_6 
REMARK    4  A    between atoms: C_5  and  C_7 
REMARK    5  A    between atoms: C_6  and  C_8 
REMARK    6  A    between atoms: C_7  and  C_9 
REMARK    7  A    between atoms: C_9  and  C_14 
ROOT
HETATM    1  O   UNL     1       9.812   6.329   8.000  1.00  0.00    -0.358 OA
HETATM    2  H   UNL     1       9.737   5.398   7.931  1.00  0.00     0.217 HD
ENDROOT
BRANCH   1   3
HETATM    3  C   UNL     1      11.033   6.903   8.191  1.00  0.00     0.099 A 
HETATM    4  C   UNL     1      11.280   7.616   9.363  1.00  0.00     0.046 A 
HETATM    5  C   UNL     1      12.526   8.210   9.569  1.00  0.00    -0.055 A 
HETATM    6  C   UNL     1      13.524   8.090   8.602  1.00  0.00     0.010 A 
HETATM    7  C   UNL     1      13.277   7.375   7.430  1.00  0.00     0.040 A 
HETATM    8  C   UNL     1      12.031   6.782   7.224  1.00  0.00     0.098 A 
BRANCH   5   9
HETATM    9  C   UNL     1      12.792   8.983  10.837  1.00  0.00     0.038 C 
BRANCH   9  10
HETATM   10  C   UNL     1      11.548   9.202  11.704  1.00  0.00     0.005 C 
BRANCH  10  11
HETATM   11  C   UNL     1      11.134  10.677  11.796  1.00  0.00     0.011 C 
BRANCH  11  12
HETATM   12  C   UNL     1      12.039  11.479  12.731  1.00  0.00     0.113 C 
BRANCH  12  13
HETATM   13  C   UNL     1      12.065  12.958  12.417  1.00  0.00     0.172 C 
HETATM   14  O   UNL     1      10.931  13.350  11.778  1.00  0.00    -0.648 OA
HETATM   15  O   UNL     1      12.968  13.731  12.706  1.00  0.00    -0.648 OA
ENDBRANCH  12  13
ENDBRANCH  11  12
ENDBRANCH  10  11
ENDBRANCH   9  10
ENDBRANCH   5   9
BRANCH   8  16
HETATM   16  O   UNL     1      11.801   6.087   6.075  1.00  0.00    -0.358 OA
HETATM   17  H   UNL     1      11.042   5.543   6.001  1.00  0.00     0.217 HD
ENDBRANCH   8  16
ENDBRANCH   1   3
TORSDOF 7
ENDMDL
MODEL 3
REMARK VINA RESULT:      -6.4      1.211      1.409
REMARK  7 active torsions:
REMARK  status: ('A' for Active; 'I' for Inactive)
REMARK    1  A    between atoms: O_1  and  C_12 
REMARK    2  A    between atoms: O_3  and  C_15 
REMARK    3  A    between atoms: C_5  and  C_6 
REMARK    4  A    between atoms: C_5  and  C_7 
REMARK    5  A    between atoms: C_6  and  C_8 
REMARK    6  A    between atoms: C_7  and  C_9 
REMARK    7  A    between atoms: C_9  and  C_14 
ROOT
HETATM    1  O   UNL     1      10.473   6.037  12.626  1.00  0.00    -0.358 OA
HETATM    2  H   UNL     1      10.889   5.368  13.133  1.00  0.00     0.217 HD
ENDROOT
BRANCH   1   3
HETATM    3  C   UNL     1      11.171   7.149  12.260  1.00  0.00     0.099 A 
HETATM    4  C   UNL     1      12.012   7.095  11.149  1.00  0.00     0.046 A 
HETATM    5  C   UNL     1      12.733   8.226  10.765  1.00  0.00    -0.055 A 
HETATM    6  C   UNL     1      12.615   9.410  11.494  1.00  0.00     0.010 A 
HETATM    7  C   UNL     1      11.773   9.463  12.605  1.00  0.00     0.040 A 
HETATM    8  C   UNL     1      11.052   8.332  12.988  1.00  0.00     0.098 A 
BRANCH   5   9
HETATM    9  C   UNL     1      13.644   8.168   9.564  1.00  0.00     0.038 C 
BRANCH   9  10
HETATM   10  C   UNL     1      13.481   6.897   8.722  1.00  0.00     0.005 C 
BRANCH  10  11
HETATM   11  C   UNL     1      12.816   7.160   7.364  1.00  0.00     0.011 C 
BRANCH  11  12
HETATM   12  C   UNL     1      11.298   6.992   7.417  1.00  0.00     0.113 C 
BRANCH  12  13
HETATM   13  C   UNL     1      10.783   5.905   6.499  1.00  0.00     0.172 C 
HETATM   14  O   UNL     1      11.197   6.099   5.220  1.00  0.00    -0.648 OA
HETATM   15  O   UNL     1      10.098   4.951   6.842  1.00  0.00    -0.648 OA
ENDBRANCH  12  13
ENDBRANCH  11  12
ENDBRANCH  10  11
ENDBRANCH   9  10
ENDBRANCH   5   9
BRANCH   8  16
HETATM   16  O   UNL     1      10.233   8.396  14.076  1.00  0.00    -0.358 OA
HETATM   17  H   UNL     1       9.419   7.932  14.077  1.00  0.00     0.217 HD
ENDBRANCH   8  16
ENDBRANCH   1   3
TORSDOF 7
ENDMDL
MODEL 4
REMARK VINA RESULT:      -6.4      2.662      6.603
REMARK  7 active torsions:
REMARK  status: ('A' for Active; 'I' for Inactive)
REMARK    1  A    between atoms: O_1  and  C_12 
REMARK    2  A    between atoms: O_3  and  C_15 
REMARK    3  A    between atoms: C_5  and  C_6 
REMARK    4  A    between atoms: C_5  and  C_7 
REMARK    5  A    between atoms: C_6  and  C_8 
REMARK    6  A    between atoms: C_7  and  C_9 
REMARK    7  A    between atoms: C_9  and  C_14 
ROOT
HETATM    1  O   UNL     1      13.910   6.955   6.606  1.00  0.00    -0.358 OA
HETATM    2  H   UNL     1      13.880   7.242   5.715  1.00  0.00     0.217 HD
ENDROOT
BRANCH   1   3
HETATM    3  C   UNL     1      12.775   6.960   7.361  1.00  0.00     0.099 A 
HETATM    4  C   UNL     1      12.830   7.418   8.677  1.00  0.00     0.046 A 
HETATM    5  C   UNL     1      11.676   7.426   9.462  1.00  0.00    -0.055 A 
HETATM    6  C   UNL     1      10.468   6.975   8.930  1.00  0.00     0.010 A 
HETATM    7  C   UNL     1      10.414   6.517   7.613  1.00  0.00     0.040 A 
HETATM    8  C   UNL     1      11.568   6.509   6.830  1.00  0.00     0.098 A 
BRANCH   5   9
HETATM    9  C   UNL     1      11.736   7.921  10.885  1.00  0.00     0.038 C 
BRANCH   9  10
HETATM   10  C   UNL     1      12.309   9.335  11.028  1.00  0.00     0.005 C 
BRANCH  10  11
HETATM   11  C   UNL     1      11.311  10.327  11.642  1.00  0.00     0.011 C 
BRANCH  11  12
HETATM   12  C   UNL     1      11.970  11.269  12.650  1.00  0.00     0.113 C 
BRANCH  12  13
HETATM   13  C   UNL     1      11.814  12.730  12.294  1.00  0.00     0.172 C 
HETATM   14  O   UNL     1      12.904  13.451  12.668  1.00  0.00    -0.648 OA
HETATM   15  O   UNL     1      10.851  13.224  11.725  1.00  0.00    -0.648 OA
ENDBRANCH  12  13
ENDBRANCH  11  12
ENDBRANCH  10  11
ENDBRANCH   9  10
ENDBRANCH   5   9
BRANCH   8  16
HETATM   16  O   UNL     1      11.502   6.058   5.545  1.00  0.00    -0.358 OA
HETATM   17  H   UNL     1      11.282   5.164   5.373  1.00  0.00     0.217 HD
ENDBRANCH   8  16
ENDBRANCH   1   3
TORSDOF 7
ENDMDL
MODEL 5
REMARK VINA RESULT:      -6.3      3.689      5.167
REMARK  7 active torsions:
REMARK  status: ('A' for Active; 'I' for Inactive)
REMARK    1  A    between atoms: O_1  and  C_12 
REMARK    2  A    between atoms: O_3  and  C_15 
REMARK    3  A    between atoms: C_5  and  C_6 
REMARK    4  A    between atoms: C_5  and  C_7 
REMARK    5  A    between atoms: C_6  and  C_8 
REMARK    6  A    between atoms: C_7  and  C_9 
REMARK    7  A    between atoms: C_9  and  C_14 
ROOT
HETATM    1  O   UNL     1      16.043   7.550   6.190  1.00  0.00    -0.358 OA
HETATM    2  H   UNL     1      15.326   7.778   5.631  1.00  0.00     0.217 HD
ENDROOT
BRANCH   1   3
HETATM    3  C   UNL     1      15.820   7.271   7.505  1.00  0.00     0.099 A 
HETATM    4  C   UNL     1      14.553   7.491   8.047  1.00  0.00     0.046 A 
HETATM    5  C   UNL     1      14.313   7.212   9.392  1.00  0.00    -0.055 A 
HETATM    6  C   UNL     1      15.339   6.714  10.196  1.00  0.00     0.010 A 
HETATM    7  C   UNL     1      16.605   6.494   9.653  1.00  0.00     0.040 A 
HETATM    8  C   UNL     1      16.845   6.774   8.308  1.00  0.00     0.098 A 
BRANCH   5   9
HETATM    9  C   UNL     1      12.943   7.450   9.978  1.00  0.00     0.038 C 
BRANCH   9  10
HETATM   10  C   UNL     1      11.889   6.434   9.527  1.00  0.00     0.005 C 
BRANCH  10  11
HETATM   11  C   UNL     1      10.881   7.019   8.529  1.00  0.00     0.011 C 
BRANCH  11  12
HETATM   12  C   UNL     1      10.507   6.026   7.428  1.00  0.00     0.113 C 
BRANCH  12  13
HETATM   13  C   UNL     1      10.663   6.591   6.034  1.00  0.00     0.172 C 
HETATM   14  O   UNL     1      11.141   5.657   5.171  1.00  0.00    -0.648 OA
HETATM   15  O   UNL     1      10.383   7.732   5.694  1.00  0.00    -0.648 OA
ENDBRANCH  12  13
ENDBRANCH  11  12
ENDBRANCH  10  11
ENDBRANCH   9  10
ENDBRANCH   5   9
BRANCH   8  16
HETATM   16  O   UNL     1      18.086   6.555   7.790  1.00  0.00    -0.358 OA
HETATM   17  H   UNL     1      18.299   6.872   6.934  1.00  0.00     0.217 HD
ENDBRANCH   8  16
ENDBRANCH   1   3
TORSDOF 7
ENDMDL
MODEL 6
REMARK VINA RESULT:      -6.2      1.947      5.491
REMARK  7 active torsions:
REMARK  status: ('A' for Active; 'I' for Inactive)
REMARK    1  A    between atoms: O_1  and  C_12 
REMARK    2  A    between atoms: O_3  and  C_15 
REMARK    3  A    between atoms: C_5  and  C_6 
REMARK    4  A    between atoms: C_5  and  C_7 
REMARK    5  A    between atoms: C_6  and  C_8 
REMARK    6  A    between atoms: C_7  and  C_9 
REMARK    7  A    between atoms: C_9  and  C_14 
ROOT
HETATM    1  O   UNL     1       9.376   6.402   9.346  1.00  0.00    -0.358 OA
HETATM    2  H   UNL     1       8.969   6.932  10.004  1.00  0.00     0.217 HD
ENDROOT
BRANCH   1   3
HETATM    3  C   UNL     1      10.689   6.592   9.033  1.00  0.00     0.099 A 
HETATM    4  C   UNL     1      11.650   6.527  10.042  1.00  0.00     0.046 A 
HETATM    5  C   UNL     1      12.997   6.722   9.735  1.00  0.00    -0.055 A 
HETATM    6  C   UNL     1      13.382   6.984   8.420  1.00  0.00     0.010 A 
HETATM    7  C   UNL     1      12.420   7.048   7.412  1.00  0.00     0.040 A 
HETATM    8  C   UNL     1      11.073   6.853   7.719  1.00  0.00     0.098 A 
BRANCH   5   9
HETATM    9  C   UNL     1      14.036   6.653  10.826  1.00  0.00     0.038 C 
BRANCH   9  10
HETATM   10  C   UNL     1      14.341   8.005  11.480  1.00  0.00     0.005 C 
BRANCH  10  11
HETATM   11  C   UNL     1      13.297   8.412  12.530  1.00  0.00     0.011 C 
BRANCH  11  12
HETATM   12  C   UNL     1      12.568   9.703  12.157  1.00  0.00     0.113 C 
BRANCH  12  13
HETATM   13  C   UNL     1      11.076   9.521  11.989  1.00  0.00     0.172 C 
HETATM   14  O   UNL     1      10.479   9.204  13.168  1.00  0.00    -0.648 OA
HETATM   15  O   UNL     1      10.457   9.657  10.943  1.00  0.00    -0.648 OA
ENDBRANCH  12  13
ENDBRANCH  11  12
ENDBRANCH  10  11
ENDBRANCH   9  10
ENDBRANCH   5   9
BRANCH   8  16
HETATM   16  O   UNL     1      10.143   6.919   6.726  1.00  0.00    -0.358 OA
HETATM   17  H   UNL     1       9.377   6.380   6.765  1.00  0.00     0.217 HD
ENDBRANCH   8  16
ENDBRANCH   1   3
TORSDOF 7
ENDMDL
MODEL 7
REMARK VINA RESULT:      -6.2      1.252      2.013
REMARK  7 active torsions:
REMARK  status: ('A' for Active; 'I' for Inactive)
REMARK    1  A    between atoms: O_1  and  C_12 
REMARK    2  A    between atoms: O_3  and  C_15 
REMARK    3  A    between atoms: C_5  and  C_6 
REMARK    4  A    between atoms: C_5  and  C_7 
REMARK    5  A    between atoms: C_6  and  C_8 
REMARK    6  A    between atoms: C_7  and  C_9 
REMARK    7  A    between atoms: C_9  and  C_14 
ROOT
HETATM    1  O   UNL     1      11.460  10.729  13.247  1.00  0.00    -0.358 OA
HETATM    2  H   UNL     1      10.821  11.354  12.964  1.00  0.00     0.217 HD
ENDROOT
BRANCH   1   3
HETATM    3  C   UNL     1      11.596   9.545  12.586  1.00  0.00     0.099 A 
HETATM    4  C   UNL     1      12.317   9.506  11.393  1.00  0.00     0.046 A 
HETATM    5  C   UNL     1      12.462   8.301  10.705  1.00  0.00    -0.055 A 
HETATM    6  C   UNL     1      11.884   7.136  11.210  1.00  0.00     0.010 A 
HETATM    7  C   UNL     1      11.163   7.176  12.404  1.00  0.00     0.040 A 
HETATM    8  C   UNL     1      11.019   8.381  13.091  1.00  0.00     0.098 A 
BRANCH   5   9
HETATM    9  C   UNL     1      13.240   8.258   9.414  1.00  0.00     0.038 C 
BRANCH   9  10
HETATM   10  C   UNL     1      13.290   6.871   8.764  1.00  0.00     0.005 C 
BRANCH  10  11
HETATM   11  C   UNL     1      12.923   6.894   7.274  1.00  0.00     0.011 C 
BRANCH  11  12
HETATM   12  C   UNL     1      11.422   7.080   7.047  1.00  0.00     0.113 C 
BRANCH  12  13
HETATM   13  C   UNL     1      10.764   5.885   6.393  1.00  0.00     0.172 C 
HETATM   14  O   UNL     1      11.056   5.821   5.068  1.00  0.00    -0.648 OA
HETATM   15  O   UNL     1      10.069   5.056   6.964  1.00  0.00    -0.648 OA
ENDBRANCH  12  13
ENDBRANCH  11  12
ENDBRANCH  10  11
ENDBRANCH   9  10
ENDBRANCH   5   9
BRANCH   8  16
HETATM   16  O   UNL     1      10.312   8.408  14.256  1.00  0.00    -0.358 OA
HETATM   17  H   UNL     1      10.620   7.932  15.001  1.00  0.00     0.217 HD
ENDBRANCH   8  16
ENDBRANCH   1   3
TORSDOF 7
ENDMDL
MODEL 8
REMARK VINA RESULT:      -6.2      3.314      4.721
REMARK  7 active torsions:
REMARK  status: ('A' for Active; 'I' for Inactive)
REMARK    1  A    between atoms: O_1  and  C_12 
REMARK    2  A    between atoms: O_3  and  C_15 
REMARK    3  A    between atoms: C_5  and  C_6 
REMARK    4  A    between atoms: C_5  and  C_7 
REMARK    5  A    between atoms: C_6  and  C_8 
REMARK    6  A    between atoms: C_7  and  C_9 
REMARK    7  A    between atoms: C_9  and  C_14 
ROOT
HETATM    1  O   UNL     1      17.349   6.420  10.306  1.00  0.00    -0.358 OA
HETATM    2  H   UNL     1      18.082   5.921  10.001  1.00  0.00     0.217 HD
ENDROOT
BRANCH   1   3
HETATM    3  C   UNL     1      16.334   6.732   9.451  1.00  0.00     0.099 A 
HETATM    4  C   UNL     1      15.056   6.961   9.960  1.00  0.00     0.046 A 
HETATM    5  C   UNL     1      14.008   7.279   9.095  1.00  0.00    -0.055 A 
HETATM    6  C   UNL     1      14.239   7.367   7.722  1.00  0.00     0.010 A 
HETATM    7  C   UNL     1      15.519   7.139   7.214  1.00  0.00     0.040 A 
HETATM    8  C   UNL     1      16.565   6.820   8.079  1.00  0.00     0.098 A 
BRANCH   5   9
HETATM    9  C   UNL     1      12.625   7.526   9.645  1.00  0.00     0.038 C 
BRANCH   9  10
HETATM   10  C   UNL     1      11.635   6.390   9.367  1.00  0.00     0.005 C 
BRANCH  10  11
HETATM   11  C   UNL     1      10.558   6.772   8.342  1.00  0.00     0.011 C 
BRANCH  11  12
HETATM   12  C   UNL     1      10.390   5.715   7.251  1.00  0.00     0.113 C 
BRANCH  12  13
HETATM   13  C   UNL     1      10.769   6.211   5.874  1.00  0.00     0.172 C 
HETATM   14  O   UNL     1      10.566   7.550   5.755  1.00  0.00    -0.648 OA
HETATM   15  O   UNL     1      11.221   5.523   4.969  1.00  0.00    -0.648 OA
ENDBRANCH  12  13
ENDBRANCH  11  12
ENDBRANCH  10  11
ENDBRANCH   9  10
ENDBRANCH   5   9
BRANCH   8  16
HETATM   16  O   UNL     1      17.810   6.598   7.571  1.00  0.00    -0.358 OA
HETATM   17  H   UNL     1      17.971   6.722   6.657  1.00  0.00     0.217 HD
ENDBRANCH   8  16
ENDBRANCH   1   3
TORSDOF 7
ENDMDL
MODEL 9
REMARK VINA RESULT:      -6.0      1.830      5.944
REMARK  7 active torsions:
REMARK  status: ('A' for Active; 'I' for Inactive)
REMARK    1  A    between atoms: O_1  and  C_12 
REMARK    2  A    between atoms: O_3  and  C_15 
REMARK    3  A    between atoms: C_5  and  C_6 
REMARK    4  A    between atoms: C_5  and  C_7 
REMARK    5  A    between atoms: C_6  and  C_8 
REMARK    6  A    between atoms: C_7  and  C_9 
REMARK    7  A    between atoms: C_9  and  C_14 
ROOT
HETATM    1  O   UNL     1      13.850   7.158   6.762  1.00  0.00    -0.358 OA
HETATM    2  H   UNL     1      13.658   7.435   5.887  1.00  0.00     0.217 HD
ENDROOT
BRANCH   1   3
HETATM    3  C   UNL     1      12.833   6.884   7.627  1.00  0.00     0.099 A 
HETATM    4  C   UNL     1      13.102   6.793   8.993  1.00  0.00     0.046 A 
HETATM    5  C   UNL     1      12.071   6.511   9.889  1.00  0.00    -0.055 A 
HETATM    6  C   UNL     1      10.771   6.318   9.419  1.00  0.00     0.010 A 
HETATM    7  C   UNL     1      10.503   6.409   8.053  1.00  0.00     0.040 A 
HETATM    8  C   UNL     1      11.535   6.692   7.157  1.00  0.00     0.098 A 
BRANCH   5   9
HETATM    9  C   UNL     1      12.361   6.412  11.366  1.00  0.00     0.038 C 
BRANCH   9  10
HETATM   10  C   UNL     1      13.563   7.247  11.820  1.00  0.00     0.005 C 
BRANCH  10  11
HETATM   11  C   UNL     1      13.155   8.545  12.530  1.00  0.00     0.011 C 
BRANCH  11  12
HETATM   12  C   UNL     1      12.559   9.574  11.569  1.00  0.00     0.113 C 
BRANCH  12  13
HETATM   13  C   UNL     1      11.312  10.241  12.105  1.00  0.00     0.172 C 
HETATM   14  O   UNL     1      10.466   9.338  12.665  1.00  0.00    -0.648 OA
HETATM   15  O   UNL     1      11.079  11.442  12.071  1.00  0.00    -0.648 OA
ENDBRANCH  12  13
ENDBRANCH  11  12
ENDBRANCH  10  11
ENDBRANCH   9  10
ENDBRANCH   5   9
BRANCH   8  16
HETATM   16  O   UNL     1      11.261   6.777   5.825  1.00  0.00    -0.358 OA
HETATM   17  H   UNL     1      10.662   6.174   5.430  1.00  0.00     0.217 HD
ENDBRANCH   8  16
ENDBRANCH   1   3
TORSDOF 7
ENDMDL
