MODEL 1
REMARK VINA RESULT:      -6.6      0.000      0.000
REMARK  7 active torsions:
REMARK  status: ('A' for Active; 'I' for Inactive)
REMARK    1  A    between atoms: O_1  and  C_12 
REMARK    2  A    between atoms: O_3  and  C_15 
REMARK    3  A    between atoms: C_5  and  C_6 
REMARK    4  A    between atoms: C_5  and  C_7 
REMARK    5  A    between atoms: C_6  and  C_8 
REMARK    6  A    between atoms: C_7  and  C_9 
REMARK    7  A    between atoms: C_9  and  C_14 
ROOT
HETATM    1  O   UNL     1      13.064   7.425  14.142  1.00  0.00    -0.358 OA
HETATM    2  H   UNL     1      13.806   6.892  13.930  1.00  0.00     0.217 HD
ENDROOT
BRANCH   1   3
HETATM    3  C   UNL     1      12.274   7.919  13.148  1.00  0.00     0.099 A 
HETATM    4  C   UNL     1      12.710   7.844  11.825  1.00  0.00     0.046 A 
HETATM    5  C   UNL     1      11.911   8.348  10.798  1.00  0.00    -0.055 A 
HETATM    6  C   UNL     1      10.677   8.928  11.095  1.00  0.00     0.010 A 
HETATM    7  C   UNL     1      10.242   9.002  12.418  1.00  0.00     0.040 A 
HETATM    8  C   UNL     1      11.041   8.498  13.444  1.00  0.00     0.098 A 
BRANCH   5   9
HETATM    9  C   UNL     1      12.383   8.268   9.368  1.00  0.00     0.038 C 
BRANCH   9  10
HETATM   10  C   UNL     1      12.100   6.921   8.695  1.00  0.00     0.005 C 
BRANCH  10  11
HETATM   11  C   UNL     1      10.616   6.720   8.355  1.00  0.00     0.011 C 
BRANCH  11  12
HETATM   12  C   UNL     1      10.407   5.696   7.240  1.00  0.00     0.113 C 
BRANCH  12  13
HETATM   13  C   UNL     1      10.792   6.213   5.872  1.00  0.00     0.172 C 
HETATM   14  O   UNL     1      10.410   7.506   5.705  1.00  0.00    -0.648 OA
HETATM   15  O   UNL     1      11.389   5.578   5.014  1.00  0.00    -0.648 OA
ENDBRANCH  12  13
ENDBRANCH  11  12
ENDBRANCH  10  11
ENDBRANCH   9  10
ENDBRANCH   5   9
BRANCH   8  16
HETATM   16  O   UNL     1      10.605   8.576  14.733  1.00  0.00    -0.358 OA
HETATM   17  H   UNL     1       9.707   8.403  14.935  1.00  0.00     0.217 HD
ENDBRANCH   8  16
ENDBRANCH   1   3
TORSDOF 7
ENDMDL
MODEL 2
REMARK VINA RESULT:      -6.5      1.476      1.706
REMARK  7 active torsions:
REMARK  status: ('A' for Active; 'I' for Inactive)
REMARK    1  A    between atoms: O_1  and  C_12 
REMARK    2  A    between atoms: O_3  and  C_15 
REMARK    3  A    between atoms: C_5  and  C_6 
REMARK    4  A    between atoms: C_5  and  C_7 
REMARK    5  A    between atoms: C_6  and  C_8 
REMARK    6  A    between atoms: C_7  and  C_9 
REMARK    7  A    between atoms: C_9  and  C_14 
ROOT
HETATM    1  O   UNL     1      10.381   6.121  12.618  1.00  0.00    -0.358 OA
HETATM    2  H   UNL     1      10.810   5.291  12.550  1.00  0.00     0.217 HD
ENDROOT
BRANCH   1   3
HETATM    3  C   UNL     1      11.036   7.259  12.250  1.00  0.00     0.099 A 
HETATM    4  C   UNL     1      11.783   7.268  11.072  1.00  0.00     0.046 A 
HETATM    5  C   UNL     1      12.460   8.425  10.685  1.00  0.00    -0.055 A 
HETATM    6  C   UNL     1      12.389   9.572  11.476  1.00  0.00     0.010 A 
HETATM    7  C   UNL     1      11.640   9.562  12.653  1.00  0.00     0.040 A 
HETATM    8  C   UNL     1      10.964   8.405  13.040  1.00  0.00     0.098 A 
BRANCH   5   9
HETATM    9  C   UNL     1      13.269   8.435   9.413  1.00  0.00     0.038 C 
BRANCH   9  10
HETATM   10  C   UNL     1      13.396   7.061   8.746  1.00  0.00     0.005 C 
BRANCH  10  11
HETATM   11  C   UNL     1      12.879   7.045   7.301  1.00  0.00     0.011 C 
BRANCH  11  12
HETATM   12  C   UNL     1      11.353   7.002   7.229  1.00  0.00     0.113 C 
BRANCH  12  13
HETATM   13  C   UNL     1      10.825   5.851   6.404  1.00  0.00     0.172 C 
HETATM   14  O   UNL     1      11.348   5.856   5.150  1.00  0.00    -0.648 OA
HETATM   15  O   UNL     1      10.042   4.996   6.796  1.00  0.00    -0.648 OA
ENDBRANCH  12  13
ENDBRANCH  11  12
ENDBRANCH  10  11
ENDBRANCH   9  10
ENDBRANCH   5   9
BRANCH   8  16
HETATM   16  O   UNL     1      10.237   8.407  14.192  1.00  0.00    -0.358 OA
HETATM   17  H   UNL     1      10.380   7.743  14.838  1.00  0.00     0.217 HD
ENDBRANCH   8  16
ENDBRANCH   1   3
TORSDOF 7
ENDMDL
MODEL 3
REMARK VINA RESULT:      -6.4      3.909      5.270
REMARK  7 active torsions:
REMARK  status: ('A' for Active; 'I' for Inactive)
REMARK    1  A    between atoms: O_1  and  C_12 
REMARK    2  A    between atoms: O_3  and  C_15 
REMARK    3  A    between atoms: C_5  and  C_6 
REMARK    4  A    between atoms: C_5  and  C_7 
REMARK    5  A    between atoms: C_6  and  C_8 
REMARK    6  A    between atoms: C_7  and  C_9 
REMARK    7  A    between atoms: C_9  and  C_14 
ROOT
HETATM    1  O   UNL     1      16.276   7.781   6.182  1.00  0.00    -0.358 OA
HETATM    2  H   UNL     1      17.125   7.604   5.826  1.00  0.00     0.217 HD
ENDROOT
BRANCH   1   3
HETATM    3  C   UNL     1      15.970   7.378   7.447  1.00  0.00     0.099 A 
HETATM    4  C   UNL     1      14.632   7.290   7.833  1.00  0.00     0.046 A 
HETATM    5  C   UNL     1      14.305   6.880   9.126  1.00  0.00    -0.055 A 
HETATM    6  C   UNL     1      15.316   6.559  10.033  1.00  0.00     0.010 A 
HETATM    7  C   UNL     1      16.654   6.646   9.645  1.00  0.00     0.040 A 
HETATM    8  C   UNL     1      16.980   7.056   8.352  1.00  0.00     0.098 A 
BRANCH   5   9
HETATM    9  C   UNL     1      12.859   6.786   9.544  1.00  0.00     0.038 C 
BRANCH   9  10
HETATM   10  C   UNL     1      11.867   7.168   8.440  1.00  0.00     0.005 C 
BRANCH  10  11
HETATM   11  C   UNL     1      10.571   6.349   8.490  1.00  0.00     0.011 C 
BRANCH  11  12
HETATM   12  C   UNL     1      10.321   5.575   7.195  1.00  0.00     0.113 C 
BRANCH  12  13
HETATM   13  C   UNL     1      10.597   6.387   5.950  1.00  0.00     0.172 C 
HETATM   14  O   UNL     1      11.350   5.690   5.059  1.00  0.00    -0.648 OA
HETATM   15  O   UNL     1      10.189   7.520   5.735  1.00  0.00    -0.648 OA
ENDBRANCH  12  13
ENDBRANCH  11  12
ENDBRANCH  10  11
ENDBRANCH   9  10
ENDBRANCH   5   9
BRANCH   8  16
HETATM   16  O   UNL     1      18.290   7.139   7.986  1.00  0.00    -0.358 OA
HETATM   17  H   UNL     1      18.631   6.558   7.335  1.00  0.00     0.217 HD
ENDBRANCH   8  16
ENDBRANCH   1   3
TORSDOF 7
ENDMDL
MODEL 4
REMARK VINA RESULT:      -6.3      2.218      5.397
REMARK  7 active torsions:
REMARK  status: ('A' for Active; 'I' for Inactive)
REMARK    1  A    between atoms: O_1  and  C_12 
REMARK    2  A    between atoms: O_3  and  C_15 
REMARK    3  A    between atoms: C_5  and  C_6 
REMARK    4  A    between atoms: C_5  and  C_7 
REMARK    5  A    between atoms: C_6  and  C_8 
REMARK    6  A    between atoms: C_7  and  C_9 
REMARK    7  A    between atoms: C_9  and  C_14 
ROOT
HETATM    1  O   UNL     1       9.258   5.198   9.983  1.00  0.00    -0.358 OA
HETATM    2  H   UNL     1       8.932   5.266  10.859  1.00  0.00     0.217 HD
ENDROOT
BRANCH   1   3
HETATM    3  C   UNL     1      10.443   5.785   9.650  1.00  0.00     0.099 A 
HETATM    4  C   UNL     1      11.443   5.905  10.615  1.00  0.00     0.046 A 
HETATM    5  C   UNL     1      12.659   6.505  10.288  1.00  0.00    -0.055 A 
HETATM    6  C   UNL     1      12.874   6.987   8.996  1.00  0.00     0.010 A 
HETATM    7  C   UNL     1      11.873   6.866   8.031  1.00  0.00     0.040 A 
HETATM    8  C   UNL     1      10.657   6.266   8.359  1.00  0.00     0.098 A 
BRANCH   5   9
HETATM    9  C   UNL     1      13.740   6.636  11.331  1.00  0.00     0.038 C 
BRANCH   9  10
HETATM   10  C   UNL     1      14.142   8.084  11.631  1.00  0.00     0.005 C 
BRANCH  10  11
HETATM   11  C   UNL     1      13.153   8.799  12.562  1.00  0.00     0.011 C 
BRANCH  11  12
HETATM   12  C   UNL     1      12.280   9.810  11.819  1.00  0.00     0.113 C 
BRANCH  12  13
HETATM   13  C   UNL     1      10.833   9.385  11.709  1.00  0.00     0.172 C 
HETATM   14  O   UNL     1      10.252   9.278  12.933  1.00  0.00    -0.648 OA
HETATM   15  O   UNL     1      10.231   9.176  10.665  1.00  0.00    -0.648 OA
ENDBRANCH  12  13
ENDBRANCH  11  12
ENDBRANCH  10  11
ENDBRANCH   9  10
ENDBRANCH   5   9
BRANCH   8  16
HETATM   16  O   UNL     1       9.687   6.155   7.409  1.00  0.00    -0.358 OA
HETATM   17  H   UNL     1       9.900   5.821   6.560  1.00  0.00     0.217 HD
ENDBRANCH   8  16
ENDBRANCH   1   3
TORSDOF 7
ENDMDL
MODEL 5
REMARK VINA RESULT:      -6.2      1.430      1.874
REMARK  7 active torsions:
REMARK  status: ('A' for Active; 'I' for Inactive)
REMARK    1  A    between atoms: O_1  and  C_12 
REMARK    2  A    between atoms: O_3  and  C_15 
REMARK    3  A    between atoms: C_5  and  C_6 
REMARK    4  A    between atoms: C_5  and  C_7 
REMARK    5  A    between atoms: C_6  and  C_8 
REMARK    6  A    between atoms: C_7  and  C_9 
REMARK    7  A    between atoms: C_9  and  C_14 
ROOT
HETATM    1  O   UNL     1      11.545  10.873  13.238  1.00  0.00    -0.358 OA
HETATM    2  H   UNL     1      12.212  11.171  13.826  1.00  0.00     0.217 HD
ENDROOT
BRANCH   1   3
HETATM    3  C   UNL     1      11.690   9.684  12.588  1.00  0.00     0.099 A 
HETATM    4  C   UNL     1      12.378   9.646  11.376  1.00  0.00     0.046 A 
HETATM    5  C   UNL     1      12.532   8.435  10.699  1.00  0.00    -0.055 A 
HETATM    6  C   UNL     1      11.997   7.263  11.236  1.00  0.00     0.010 A 
HETATM    7  C   UNL     1      11.310   7.303  12.450  1.00  0.00     0.040 A 
HETATM    8  C   UNL     1      11.156   8.513  13.125  1.00  0.00     0.098 A 
BRANCH   5   9
HETATM    9  C   UNL     1      13.274   8.394   9.387  1.00  0.00     0.038 C 
BRANCH   9  10
HETATM   10  C   UNL     1      13.454   6.982   8.819  1.00  0.00     0.005 C 
BRANCH  10  11
HETATM   11  C   UNL     1      12.980   6.855   7.365  1.00  0.00     0.011 C 
BRANCH  11  12
HETATM   12  C   UNL     1      11.472   7.065   7.223  1.00  0.00     0.113 C 
BRANCH  12  13
HETATM   13  C   UNL     1      10.784   5.958   6.458  1.00  0.00     0.172 C 
HETATM   14  O   UNL     1      11.000   6.069   5.121  1.00  0.00    -0.648 OA
HETATM   15  O   UNL     1      10.126   5.053   6.954  1.00  0.00    -0.648 OA
ENDBRANCH  12  13
ENDBRANCH  11  12
ENDBRANCH  10  11
ENDBRANCH   9  10
ENDBRANCH   5   9
BRANCH   8  16
HETATM   16  O   UNL     1      10.483   8.539  14.309  1.00  0.00    -0.358 OA
HETATM   17  H   UNL     1      10.414   7.760  14.826  1.00  0.00     0.217 HD
ENDBRANCH   8  16
ENDBRANCH   1   3
TORSDOF 7
ENDMDL
MODEL 6
REMARK VINA RESULT:      -6.1      3.535      5.058
REMARK  7 active torsions:
REMARK  status: ('A' for Active; 'I' for Inactive)
REMARK    1  A    between atoms: O_1  and  C_12 
REMARK    2  A    between atoms: O_3  and  C_15 
REMARK    3  A    between atoms: C_5  and  C_6 
REMARK    4  A    between atoms: C_5  and  C_7 
REMARK    5  A    between atoms: C_6  and  C_8 
REMARK    6  A    between atoms: C_7  and  C_9 
REMARK    7  A    between atoms: C_9  and  C_14 
ROOT
HETATM    1  O   UNL     1      17.800   6.289  10.158  1.00  0.00    -0.358 OA
HETATM    2  H   UNL     1      18.437   6.945  10.361  1.00  0.00     0.217 HD
ENDROOT
BRANCH   1   3
HETATM    3  C   UNL     1      16.738   6.594   9.360  1.00  0.00     0.099 A 
HETATM    4  C   UNL     1      15.449   6.561   9.893  1.00  0.00     0.046 A 
HETATM    5  C   UNL     1      14.353   6.869   9.086  1.00  0.00    -0.055 A 
HETATM    6  C   UNL     1      14.546   7.209   7.747  1.00  0.00     0.010 A 
HETATM    7  C   UNL     1      15.836   7.242   7.215  1.00  0.00     0.040 A 
HETATM    8  C   UNL     1      16.931   6.934   8.022  1.00  0.00     0.098 A 
BRANCH   5   9
HETATM    9  C   UNL     1      12.960   6.832   9.662  1.00  0.00     0.038 C 
BRANCH   9  10
HETATM   10  C   UNL     1      11.984   7.803   8.988  1.00  0.00     0.005 C 
BRANCH  10  11
HETATM   11  C   UNL     1      10.659   7.140   8.589  1.00  0.00     0.011 C 
BRANCH  11  12
HETATM   12  C   UNL     1      10.847   6.054   7.530  1.00  0.00     0.113 C 
BRANCH  12  13
HETATM   13  C   UNL     1      10.750   6.575   6.114  1.00  0.00     0.172 C 
HETATM   14  O   UNL     1      11.234   5.675   5.219  1.00  0.00    -0.648 OA
HETATM   15  O   UNL     1      10.282   7.656   5.785  1.00  0.00    -0.648 OA
ENDBRANCH  12  13
ENDBRANCH  11  12
ENDBRANCH  10  11
ENDBRANCH   9  10
ENDBRANCH   5   9
BRANCH   8  16
HETATM   16  O   UNL     1      18.186   6.969   7.491  1.00  0.00    -0.358 OA
HETATM   17  H   UNL     1      18.901   7.294   8.001  1.00  0.00     0.217 HD
ENDBRANCH   8  16
ENDBRANCH   1   3
TORSDOF 7
ENDMDL
MODEL 7
REMARK VINA RESULT:      -6.1      1.865      5.522
REMARK  7 active torsions:
REMARK  status: ('A' for Active; 'I' for Inactive)
REMARK    1  A    between atoms: O_1  and  C_12 
REMARK    2  A    between atoms: O_3  and  C_15 
REMARK    3  A    between atoms: C_5  and  C_6 
REMARK    4  A    between atoms: C_5  and  C_7 
REMARK    5  A    between atoms: C_6  and  C_8 
REMARK    6  A    between atoms: C_7  and  C_9 
REMARK    7  A    between atoms: C_9  and  C_14 
ROOT
HETATM    1  O   UNL     1      12.281   7.266   6.659  1.00  0.00    -0.358 OA
HETATM    2  H   UNL     1      12.471   6.625   6.002  1.00  0.00     0.217 HD
ENDROOT
BRANCH   1   3
HETATM    3  C   UNL     1      12.030   6.873   7.940  1.00  0.00     0.099 A 
HETATM    4  C   UNL     1      13.053   6.927   8.886  1.00  0.00     0.046 A 
HETATM    5  C   UNL     1      12.809   6.527  10.200  1.00  0.00    -0.055 A 
HETATM    6  C   UNL     1      11.542   6.072  10.567  1.00  0.00     0.010 A 
HETATM    7  C   UNL     1      10.519   6.019   9.620  1.00  0.00     0.040 A 
HETATM    8  C   UNL     1      10.763   6.420   8.306  1.00  0.00     0.098 A 
BRANCH   5   9
HETATM    9  C   UNL     1      13.915   6.583  11.223  1.00  0.00     0.038 C 
BRANCH   9  10
HETATM   10  C   UNL     1      14.296   8.005  11.649  1.00  0.00     0.005 C 
BRANCH  10  11
HETATM   11  C   UNL     1      13.265   8.645  12.589  1.00  0.00     0.011 C 
BRANCH  11  12
HETATM   12  C   UNL     1      12.443   9.733  11.899  1.00  0.00     0.113 C 
BRANCH  12  13
HETATM   13  C   UNL     1      10.979   9.381  11.761  1.00  0.00     0.172 C 
HETATM   14  O   UNL     1      10.423   9.088  12.966  1.00  0.00    -0.648 OA
HETATM   15  O   UNL     1      10.346   9.371  10.715  1.00  0.00    -0.648 OA
ENDBRANCH  12  13
ENDBRANCH  11  12
ENDBRANCH  10  11
ENDBRANCH   9  10
ENDBRANCH   5   9
BRANCH   8  16
HETATM   16  O   UNL     1       9.756   6.363   7.390  1.00  0.00    -0.358 OA
HETATM   17  H   UNL     1       9.300   7.145   7.147  1.00  0.00     0.217 HD
ENDBRANCH   8  16
ENDBRANCH   1   3
TORSDOF 7
ENDMDL
MODEL 8
REMARK VINA RESULT:      -6.0      3.844      5.715
REMARK  7 active torsions:
REMARK  status: ('A' for Active; 'I' for Inactive)
REMARK    1  A    between atoms: O_1  and  C_12 
REMARK    2  A    between atoms: O_3  and  C_15 
REMARK    3  A    between atoms: C_5  and  C_6 
REMARK    4  A    between atoms: C_5  and  C_7 
REMARK    5  A    between atoms: C_6  and  C_8 
REMARK    6  A    between atoms: C_7  and  C_9 
REMARK    7  A    between atoms: C_9  and  C_14 
ROOT
HETATM    1  O   UNL     1       9.578   6.114   9.785  1.00  0.00    -0.358 OA
HETATM    2  H   UNL     1       8.860   6.693   9.619  1.00  0.00     0.217 HD
ENDROOT
BRANCH   1   3
HETATM    3  C   UNL     1      10.809   6.390   9.270  1.00  0.00     0.099 A 
HETATM    4  C   UNL     1      11.910   6.456  10.124  1.00  0.00     0.046 A 
HETATM    5  C   UNL     1      13.175   6.740   9.609  1.00  0.00    -0.055 A 
HETATM    6  C   UNL     1      13.339   6.959   8.241  1.00  0.00     0.010 A 
HETATM    7  C   UNL     1      12.238   6.892   7.387  1.00  0.00     0.040 A 
HETATM    8  C   UNL     1      10.973   6.608   7.902  1.00  0.00     0.098 A 
BRANCH   5   9
HETATM    9  C   UNL     1      14.366   6.813  10.533  1.00  0.00     0.038 C 
BRANCH   9  10
HETATM   10  C   UNL     1      15.191   8.095  10.382  1.00  0.00     0.005 C 
BRANCH  10  11
HETATM   11  C   UNL     1      16.704   7.839  10.400  1.00  0.00     0.011 C 
BRANCH  11  12
HETATM   12  C   UNL     1      17.103   6.643   9.535  1.00  0.00     0.113 C 
BRANCH  12  13
HETATM   13  C   UNL     1      17.662   7.039   8.187  1.00  0.00     0.172 C 
HETATM   14  O   UNL     1      16.678   7.434   7.338  1.00  0.00    -0.648 OA
HETATM   15  O   UNL     1      18.846   7.034   7.879  1.00  0.00    -0.648 OA
ENDBRANCH  12  13
ENDBRANCH  11  12
ENDBRANCH  10  11
ENDBRANCH   9  10
ENDBRANCH   5   9
BRANCH   8  16
HETATM   16  O   UNL     1       9.904   6.547   7.059  1.00  0.00    -0.358 OA
HETATM   17  H   UNL     1       9.912   5.949   6.337  1.00  0.00     0.217 HD
ENDBRANCH   8  16
ENDBRANCH   1   3
TORSDOF 7
ENDMDL
MODEL 9
REMARK VINA RESULT:      -6.0      2.934      5.972
REMARK  7 active torsions:
REMARK  status: ('A' for Active; 'I' for Inactive)
REMARK    1  A    between atoms: O_1  and  C_12 
REMARK    2  A    between atoms: O_3  and  C_15 
REMARK    3  A    between atoms: C_5  and  C_6 
REMARK    4  A    between atoms: C_5  and  C_7 
REMARK    5  A    between atoms: C_6  and  C_8 
REMARK    6  A    between atoms: C_7  and  C_9 
REMARK    7  A    between atoms: C_9  and  C_14 
ROOT
HETATM    1  O   UNL     1      16.025   7.528   6.589  1.00  0.00    -0.358 OA
HETATM    2  H   UNL     1      15.838   8.296   6.085  1.00  0.00     0.217 HD
ENDROOT
BRANCH   1   3
HETATM    3  C   UNL     1      15.301   7.255   7.711  1.00  0.00     0.099 A 
HETATM    4  C   UNL     1      13.914   7.136   7.619  1.00  0.00     0.046 A 
HETATM    5  C   UNL     1      13.161   6.860   8.760  1.00  0.00    -0.055 A 
HETATM    6  C   UNL     1      13.794   6.703   9.993  1.00  0.00     0.010 A 
HETATM    7  C   UNL     1      15.181   6.822  10.084  1.00  0.00     0.040 A 
HETATM    8  C   UNL     1      15.934   7.098   8.943  1.00  0.00     0.098 A 
BRANCH   5   9
HETATM    9  C   UNL     1      11.661   6.732   8.661  1.00  0.00     0.038 C 
BRANCH   9  10
HETATM   10  C   UNL     1      10.933   6.914   9.997  1.00  0.00     0.005 C 
BRANCH  10  11
HETATM   11  C   UNL     1      10.324   8.313  10.162  1.00  0.00     0.011 C 
BRANCH  11  12
HETATM   12  C   UNL     1      11.225   9.249  10.967  1.00  0.00     0.113 C 
BRANCH  12  13
HETATM   13  C   UNL     1      11.260   8.924  12.443  1.00  0.00     0.172 C 
HETATM   14  O   UNL     1      12.469   8.428  12.814  1.00  0.00    -0.648 OA
HETATM   15  O   UNL     1      10.339   9.096  13.231  1.00  0.00    -0.648 OA
ENDBRANCH  12  13
ENDBRANCH  11  12
ENDBRANCH  10  11
ENDBRANCH   9  10
ENDBRANCH   5   9
BRANCH   8  16
HETATM   16  O   UNL     1      17.288   7.213   9.045  1.00  0.00    -0.358 OA
HETATM   17  H   UNL     1      17.841   6.814   8.402  1.00  0.00     0.217 HD
ENDBRANCH   8  16
ENDBRANCH   1   3
TORSDOF 7
ENDMDL
