MODEL 1
REMARK VINA RESULT:      -6.7      0.000      0.000
REMARK  7 active torsions:
REMARK  status: ('A' for Active; 'I' for Inactive)
REMARK    1  A    between atoms: O_1  and  C_12 
REMARK    2  A    between atoms: O_3  and  C_15 
REMARK    3  A    between atoms: C_5  and  C_6 
REMARK    4  A    between atoms: C_5  and  C_7 
REMARK    5  A    between atoms: C_6  and  C_8 
REMARK    6  A    between atoms: C_7  and  C_9 
REMARK    7  A    between atoms: C_9  and  C_14 
ROOT
HETATM    1  O   UNL     1      13.301   5.427  16.284  1.00  0.00    -0.358 OA
HETATM    2  H   UNL     1      12.804   5.531  17.072  1.00  0.00     0.217 HD
ENDROOT
BRANCH   1   3
HETATM    3  C   UNL     1      12.965   6.135  15.169  1.00  0.00     0.099 A 
HETATM    4  C   UNL     1      13.677   5.930  13.987  1.00  0.00     0.046 A 
HETATM    5  C   UNL     1      13.344   6.650  12.839  1.00  0.00    -0.055 A 
HETATM    6  C   UNL     1      12.300   7.574  12.873  1.00  0.00     0.010 A 
HETATM    7  C   UNL     1      11.587   7.778  14.056  1.00  0.00     0.040 A 
HETATM    8  C   UNL     1      11.921   7.058  15.203  1.00  0.00     0.098 A 
BRANCH   5   9
HETATM    9  C   UNL     1      14.115   6.430  11.561  1.00  0.00     0.038 C 
BRANCH   9  10
HETATM   10  C   UNL     1      14.158   4.967  11.106  1.00  0.00     0.005 C 
BRANCH  10  11
HETATM   11  C   UNL     1      12.771   4.406  10.760  1.00  0.00     0.011 C 
BRANCH  11  12
HETATM   12  C   UNL     1      12.842   3.249   9.764  1.00  0.00     0.113 C 
BRANCH  12  13
HETATM   13  C   UNL     1      13.433   3.643   8.429  1.00  0.00     0.172 C 
HETATM   14  O   UNL     1      12.840   4.762   7.935  1.00  0.00    -0.648 OA
HETATM   15  O   UNL     1      14.342   3.061   7.854  1.00  0.00    -0.648 OA
ENDBRANCH  12  13
ENDBRANCH  11  12
ENDBRANCH  10  11
ENDBRANCH   9  10
ENDBRANCH   5   9
BRANCH   8  16
HETATM   16  O   UNL     1      11.218   7.266  16.352  1.00  0.00    -0.358 OA
HETATM   17  H   UNL     1      11.077   8.139  16.663  1.00  0.00     0.217 HD
ENDBRANCH   8  16
ENDBRANCH   1   3
TORSDOF 7
ENDMDL
MODEL 2
REMARK VINA RESULT:      -6.5      2.726      6.585
REMARK  7 active torsions:
REMARK  status: ('A' for Active; 'I' for Inactive)
REMARK    1  A    between atoms: O_1  and  C_12 
REMARK    2  A    between atoms: O_3  and  C_15 
REMARK    3  A    between atoms: C_5  and  C_6 
REMARK    4  A    between atoms: C_5  and  C_7 
REMARK    5  A    between atoms: C_6  and  C_8 
REMARK    6  A    between atoms: C_7  and  C_9 
REMARK    7  A    between atoms: C_9  and  C_14 
ROOT
HETATM    1  O   UNL     1      16.515   5.099   9.559  1.00  0.00    -0.358 OA
HETATM    2  H   UNL     1      17.299   5.414   9.965  1.00  0.00     0.217 HD
ENDROOT
BRANCH   1   3
HETATM    3  C   UNL     1      15.312   5.272  10.176  1.00  0.00     0.099 A 
HETATM    4  C   UNL     1      15.202   6.193  11.217  1.00  0.00     0.046 A 
HETATM    5  C   UNL     1      13.977   6.378  11.859  1.00  0.00    -0.055 A 
HETATM    6  C   UNL     1      12.862   5.641  11.459  1.00  0.00     0.010 A 
HETATM    7  C   UNL     1      12.972   4.720  10.416  1.00  0.00     0.040 A 
HETATM    8  C   UNL     1      14.198   4.535   9.776  1.00  0.00     0.098 A 
BRANCH   5   9
HETATM    9  C   UNL     1      13.858   7.373  12.986  1.00  0.00     0.038 C 
BRANCH   9  10
HETATM   10  C   UNL     1      12.425   7.574  13.489  1.00  0.00     0.005 C 
BRANCH  10  11
HETATM   11  C   UNL     1      11.907   9.002  13.266  1.00  0.00     0.011 C 
BRANCH  11  12
HETATM   12  C   UNL     1      12.718  10.043  14.038  1.00  0.00     0.113 C 
BRANCH  12  13
HETATM   13  C   UNL     1      12.402  11.466  13.635  1.00  0.00     0.172 C 
HETATM   14  O   UNL     1      11.273  11.530  12.882  1.00  0.00    -0.648 OA
HETATM   15  O   UNL     1      13.051  12.455  13.950  1.00  0.00    -0.648 OA
ENDBRANCH  12  13
ENDBRANCH  11  12
ENDBRANCH  10  11
ENDBRANCH   9  10
ENDBRANCH   5   9
BRANCH   8  16
HETATM   16  O   UNL     1      14.293   3.632   8.760  1.00  0.00    -0.358 OA
HETATM   17  H   UNL     1      13.524   3.202   8.443  1.00  0.00     0.217 HD
ENDBRANCH   8  16
ENDBRANCH   1   3
TORSDOF 7
ENDMDL
MODEL 3
REMARK VINA RESULT:      -6.4      2.684      6.621
REMARK  7 active torsions:
REMARK  status: ('A' for Active; 'I' for Inactive)
REMARK    1  A    between atoms: O_1  and  C_12 
REMARK    2  A    between atoms: O_3  and  C_15 
REMARK    3  A    between atoms: C_5  and  C_6 
REMARK    4  A    between atoms: C_5  and  C_7 
REMARK    5  A    between atoms: C_6  and  C_8 
REMARK    6  A    between atoms: C_7  and  C_9 
REMARK    7  A    between atoms: C_9  and  C_14 
ROOT
HETATM    1  O   UNL     1      12.254   3.608   9.587  1.00  0.00    -0.358 OA
HETATM    2  H   UNL     1      12.021   2.788   9.975  1.00  0.00     0.217 HD
ENDROOT
BRANCH   1   3
HETATM    3  C   UNL     1      13.050   4.482  10.266  1.00  0.00     0.099 A 
HETATM    4  C   UNL     1      12.535   5.160  11.371  1.00  0.00     0.046 A 
HETATM    5  C   UNL     1      13.338   6.058  12.074  1.00  0.00    -0.055 A 
HETATM    6  C   UNL     1      14.655   6.279  11.671  1.00  0.00     0.010 A 
HETATM    7  C   UNL     1      15.170   5.600  10.566  1.00  0.00     0.040 A 
HETATM    8  C   UNL     1      14.366   4.702   9.864  1.00  0.00     0.098 A 
BRANCH   5   9
HETATM    9  C   UNL     1      12.781   6.792  13.268  1.00  0.00     0.038 C 
BRANCH   9  10
HETATM   10  C   UNL     1      11.956   8.032  12.905  1.00  0.00     0.005 C 
BRANCH  10  11
HETATM   11  C   UNL     1      11.797   9.009  14.078  1.00  0.00     0.011 C 
BRANCH  11  12
HETATM   12  C   UNL     1      12.836  10.131  14.048  1.00  0.00     0.113 C 
BRANCH  12  13
HETATM   13  C   UNL     1      12.282  11.446  13.547  1.00  0.00     0.172 C 
HETATM   14  O   UNL     1      13.030  12.496  13.978  1.00  0.00    -0.648 OA
HETATM   15  O   UNL     1      11.302  11.577  12.827  1.00  0.00    -0.648 OA
ENDBRANCH  12  13
ENDBRANCH  11  12
ENDBRANCH  10  11
ENDBRANCH   9  10
ENDBRANCH   5   9
BRANCH   8  16
HETATM   16  O   UNL     1      14.879   4.045   8.786  1.00  0.00    -0.358 OA
HETATM   17  H   UNL     1      15.687   4.330   8.406  1.00  0.00     0.217 HD
ENDBRANCH   8  16
ENDBRANCH   1   3
TORSDOF 7
ENDMDL
MODEL 4
REMARK VINA RESULT:      -6.3      3.748      5.091
REMARK  7 active torsions:
REMARK  status: ('A' for Active; 'I' for Inactive)
REMARK    1  A    between atoms: O_1  and  C_12 
REMARK    2  A    between atoms: O_3  and  C_15 
REMARK    3  A    between atoms: C_5  and  C_6 
REMARK    4  A    between atoms: C_5  and  C_7 
REMARK    5  A    between atoms: C_6  and  C_8 
REMARK    6  A    between atoms: C_7  and  C_9 
REMARK    7  A    between atoms: C_9  and  C_14 
ROOT
HETATM    1  O   UNL     1      18.323   6.063   9.393  1.00  0.00    -0.358 OA
HETATM    2  H   UNL     1      18.524   6.915   9.059  1.00  0.00     0.217 HD
ENDROOT
BRANCH   1   3
HETATM    3  C   UNL     1      17.837   5.923  10.659  1.00  0.00     0.099 A 
HETATM    4  C   UNL     1      16.490   5.617  10.846  1.00  0.00     0.046 A 
HETATM    5  C   UNL     1      15.979   5.474  12.136  1.00  0.00    -0.055 A 
HETATM    6  C   UNL     1      16.817   5.638  13.240  1.00  0.00     0.010 A 
HETATM    7  C   UNL     1      18.166   5.943  13.052  1.00  0.00     0.040 A 
HETATM    8  C   UNL     1      18.675   6.086  11.761  1.00  0.00     0.098 A 
BRANCH   5   9
HETATM    9  C   UNL     1      14.522   5.144  12.339  1.00  0.00     0.038 C 
BRANCH   9  10
HETATM   10  C   UNL     1      13.605   5.675  11.231  1.00  0.00     0.005 C 
BRANCH  10  11
HETATM   11  C   UNL     1      12.495   4.687  10.847  1.00  0.00     0.011 C 
BRANCH  11  12
HETATM   12  C   UNL     1      13.007   3.549   9.964  1.00  0.00     0.113 C 
BRANCH  12  13
HETATM   13  C   UNL     1      13.283   3.974   8.540  1.00  0.00     0.172 C 
HETATM   14  O   UNL     1      14.225   3.186   7.960  1.00  0.00    -0.648 OA
HETATM   15  O   UNL     1      12.729   4.893   7.952  1.00  0.00    -0.648 OA
ENDBRANCH  12  13
ENDBRANCH  11  12
ENDBRANCH  10  11
ENDBRANCH   9  10
ENDBRANCH   5   9
BRANCH   8  16
HETATM   16  O   UNL     1      19.993   6.386  11.591  1.00  0.00    -0.358 OA
HETATM   17  H   UNL     1      20.396   6.267  10.753  1.00  0.00     0.217 HD
ENDBRANCH   8  16
ENDBRANCH   1   3
TORSDOF 7
ENDMDL
MODEL 5
REMARK VINA RESULT:      -6.3      2.037      5.434
REMARK  7 active torsions:
REMARK  status: ('A' for Active; 'I' for Inactive)
REMARK    1  A    between atoms: O_1  and  C_12 
REMARK    2  A    between atoms: O_3  and  C_15 
REMARK    3  A    between atoms: C_5  and  C_6 
REMARK    4  A    between atoms: C_5  and  C_7 
REMARK    5  A    between atoms: C_6  and  C_8 
REMARK    6  A    between atoms: C_7  and  C_9 
REMARK    7  A    between atoms: C_9  and  C_14 
ROOT
HETATM    1  O   UNL     1      11.405   3.886  11.857  1.00  0.00    -0.358 OA
HETATM    2  H   UNL     1      10.663   4.433  11.684  1.00  0.00     0.217 HD
ENDROOT
BRANCH   1   3
HETATM    3  C   UNL     1      12.663   4.342  11.599  1.00  0.00     0.099 A 
HETATM    4  C   UNL     1      13.490   4.706  12.661  1.00  0.00     0.046 A 
HETATM    5  C   UNL     1      14.780   5.177  12.410  1.00  0.00    -0.055 A 
HETATM    6  C   UNL     1      15.240   5.285  11.097  1.00  0.00     0.010 A 
HETATM    7  C   UNL     1      14.412   4.919  10.036  1.00  0.00     0.040 A 
HETATM    8  C   UNL     1      13.123   4.449  10.287  1.00  0.00     0.098 A 
BRANCH   5   9
HETATM    9  C   UNL     1      15.675   5.572  13.558  1.00  0.00     0.038 C 
BRANCH   9  10
HETATM   10  C   UNL     1      15.669   7.075  13.861  1.00  0.00     0.005 C 
BRANCH  10  11
HETATM   11  C   UNL     1      14.440   7.519  14.666  1.00  0.00     0.011 C 
BRANCH  11  12
HETATM   12  C   UNL     1      13.462   8.345  13.829  1.00  0.00     0.113 C 
BRANCH  12  13
HETATM   13  C   UNL     1      12.050   7.805  13.851  1.00  0.00     0.172 C 
HETATM   14  O   UNL     1      11.593   7.557  12.595  1.00  0.00    -0.648 OA
HETATM   15  O   UNL     1      11.388   7.588  14.856  1.00  0.00    -0.648 OA
ENDBRANCH  12  13
ENDBRANCH  11  12
ENDBRANCH  10  11
ENDBRANCH   9  10
ENDBRANCH   5   9
BRANCH   8  16
HETATM   16  O   UNL     1      12.323   4.096   9.242  1.00  0.00    -0.358 OA
HETATM   17  H   UNL     1      11.853   4.754   8.769  1.00  0.00     0.217 HD
ENDBRANCH   8  16
ENDBRANCH   1   3
TORSDOF 7
ENDMDL
MODEL 6
REMARK VINA RESULT:      -6.2      1.089      1.728
REMARK  7 active torsions:
REMARK  status: ('A' for Active; 'I' for Inactive)
REMARK    1  A    between atoms: O_1  and  C_12 
REMARK    2  A    between atoms: O_3  and  C_15 
REMARK    3  A    between atoms: C_5  and  C_6 
REMARK    4  A    between atoms: C_5  and  C_7 
REMARK    5  A    between atoms: C_6  and  C_8 
REMARK    6  A    between atoms: C_7  and  C_9 
REMARK    7  A    between atoms: C_9  and  C_14 
ROOT
HETATM    1  O   UNL     1      12.748   8.906  14.476  1.00  0.00    -0.358 OA
HETATM    2  H   UNL     1      12.222   9.338  13.831  1.00  0.00     0.217 HD
ENDROOT
BRANCH   1   3
HETATM    3  C   UNL     1      13.008   7.573  14.362  1.00  0.00     0.099 A 
HETATM    4  C   UNL     1      13.886   7.128  13.374  1.00  0.00     0.046 A 
HETATM    5  C   UNL     1      14.158   5.766  13.245  1.00  0.00    -0.055 A 
HETATM    6  C   UNL     1      13.552   4.849  14.104  1.00  0.00     0.010 A 
HETATM    7  C   UNL     1      12.674   5.295  15.093  1.00  0.00     0.040 A 
HETATM    8  C   UNL     1      12.402   6.657  15.221  1.00  0.00     0.098 A 
BRANCH   5   9
HETATM    9  C   UNL     1      15.106   5.284  12.176  1.00  0.00     0.038 C 
BRANCH   9  10
HETATM   10  C   UNL     1      14.516   5.315  10.762  1.00  0.00     0.005 C 
BRANCH  10  11
HETATM   11  C   UNL     1      13.073   4.794  10.704  1.00  0.00     0.011 C 
BRANCH  11  12
HETATM   12  C   UNL     1      12.947   3.521   9.867  1.00  0.00     0.113 C 
BRANCH  12  13
HETATM   13  C   UNL     1      13.372   3.706   8.427  1.00  0.00     0.172 C 
HETATM   14  O   UNL     1      12.808   4.815   7.882  1.00  0.00    -0.648 OA
HETATM   15  O   UNL     1      14.141   2.978   7.814  1.00  0.00    -0.648 OA
ENDBRANCH  12  13
ENDBRANCH  11  12
ENDBRANCH  10  11
ENDBRANCH   9  10
ENDBRANCH   5   9
BRANCH   8  16
HETATM   16  O   UNL     1      11.543   7.080  16.190  1.00  0.00    -0.358 OA
HETATM   17  H   UNL     1      11.877   7.400  17.005  1.00  0.00     0.217 HD
ENDBRANCH   8  16
ENDBRANCH   1   3
TORSDOF 7
ENDMDL
MODEL 7
REMARK VINA RESULT:      -6.2      3.565      5.060
REMARK  7 active torsions:
REMARK  status: ('A' for Active; 'I' for Inactive)
REMARK    1  A    between atoms: O_1  and  C_12 
REMARK    2  A    between atoms: O_3  and  C_15 
REMARK    3  A    between atoms: C_5  and  C_6 
REMARK    4  A    between atoms: C_5  and  C_7 
REMARK    5  A    between atoms: C_6  and  C_8 
REMARK    6  A    between atoms: C_7  and  C_9 
REMARK    7  A    between atoms: C_9  and  C_14 
ROOT
HETATM    1  O   UNL     1      19.437   5.934  13.726  1.00  0.00    -0.358 OA
HETATM    2  H   UNL     1      19.796   5.153  14.100  1.00  0.00     0.217 HD
ENDROOT
BRANCH   1   3
HETATM    3  C   UNL     1      18.544   5.850  12.700  1.00  0.00     0.099 A 
HETATM    4  C   UNL     1      17.192   5.654  12.983  1.00  0.00     0.046 A 
HETATM    5  C   UNL     1      16.268   5.565  11.942  1.00  0.00    -0.055 A 
HETATM    6  C   UNL     1      16.696   5.669  10.618  1.00  0.00     0.010 A 
HETATM    7  C   UNL     1      18.048   5.865  10.336  1.00  0.00     0.040 A 
HETATM    8  C   UNL     1      18.972   5.955  11.377  1.00  0.00     0.098 A 
BRANCH   5   9
HETATM    9  C   UNL     1      14.806   5.352  12.247  1.00  0.00     0.038 C 
BRANCH   9  10
HETATM   10  C   UNL     1      13.865   5.799  11.124  1.00  0.00     0.005 C 
BRANCH  10  11
HETATM   11  C   UNL     1      12.674   4.852  10.927  1.00  0.00     0.011 C 
BRANCH  11  12
HETATM   12  C   UNL     1      13.014   3.668  10.021  1.00  0.00     0.113 C 
BRANCH  12  13
HETATM   13  C   UNL     1      13.147   4.049   8.564  1.00  0.00     0.172 C 
HETATM   14  O   UNL     1      14.037   3.248   7.921  1.00  0.00    -0.648 OA
HETATM   15  O   UNL     1      12.530   4.944   8.004  1.00  0.00    -0.648 OA
ENDBRANCH  12  13
ENDBRANCH  11  12
ENDBRANCH  10  11
ENDBRANCH   9  10
ENDBRANCH   5   9
BRANCH   8  16
HETATM   16  O   UNL     1      20.290   6.146  11.089  1.00  0.00    -0.358 OA
HETATM   17  H   UNL     1      20.865   5.409  11.020  1.00  0.00     0.217 HD
ENDBRANCH   8  16
ENDBRANCH   1   3
TORSDOF 7
ENDMDL
MODEL 8
REMARK VINA RESULT:      -6.0      1.727      2.103
REMARK  7 active torsions:
REMARK  status: ('A' for Active; 'I' for Inactive)
REMARK    1  A    between atoms: O_1  and  C_12 
REMARK    2  A    between atoms: O_3  and  C_15 
REMARK    3  A    between atoms: C_5  and  C_6 
REMARK    4  A    between atoms: C_5  and  C_7 
REMARK    5  A    between atoms: C_6  and  C_8 
REMARK    6  A    between atoms: C_7  and  C_9 
REMARK    7  A    between atoms: C_9  and  C_14 
ROOT
HETATM    1  O   UNL     1      11.902   4.352  14.747  1.00  0.00    -0.358 OA
HETATM    2  H   UNL     1      12.320   3.629  15.173  1.00  0.00     0.217 HD
ENDROOT
BRANCH   1   3
HETATM    3  C   UNL     1      12.655   5.320  14.152  1.00  0.00     0.099 A 
HETATM    4  C   UNL     1      13.906   4.991  13.631  1.00  0.00     0.046 A 
HETATM    5  C   UNL     1      14.687   5.973  13.021  1.00  0.00    -0.055 A 
HETATM    6  C   UNL     1      14.217   7.284  12.934  1.00  0.00     0.010 A 
HETATM    7  C   UNL     1      12.965   7.612  13.455  1.00  0.00     0.040 A 
HETATM    8  C   UNL     1      12.185   6.629  14.064  1.00  0.00     0.098 A 
BRANCH   5   9
HETATM    9  C   UNL     1      16.041   5.619  12.459  1.00  0.00     0.038 C 
BRANCH   9  10
HETATM   10  C   UNL     1      16.190   5.916  10.963  1.00  0.00     0.005 C 
BRANCH  10  11
HETATM   11  C   UNL     1      14.850   5.906  10.214  1.00  0.00     0.011 C 
BRANCH  11  12
HETATM   12  C   UNL     1      14.469   4.509   9.722  1.00  0.00     0.113 C 
BRANCH  12  13
HETATM   13  C   UNL     1      13.019   4.161   9.974  1.00  0.00     0.172 C 
HETATM   14  O   UNL     1      12.685   2.977   9.397  1.00  0.00    -0.648 OA
HETATM   15  O   UNL     1      12.230   4.831  10.626  1.00  0.00    -0.648 OA
ENDBRANCH  12  13
ENDBRANCH  11  12
ENDBRANCH  10  11
ENDBRANCH   9  10
ENDBRANCH   5   9
BRANCH   8  16
HETATM   16  O   UNL     1      10.964   6.962  14.570  1.00  0.00    -0.358 OA
HETATM   17  H   UNL     1      10.809   7.830  14.889  1.00  0.00     0.217 HD
ENDBRANCH   8  16
ENDBRANCH   1   3
TORSDOF 7
ENDMDL
MODEL 9
REMARK VINA RESULT:      -6.0      3.612      5.521
REMARK  7 active torsions:
REMARK  status: ('A' for Active; 'I' for Inactive)
REMARK    1  A    between atoms: O_1  and  C_12 
REMARK    2  A    between atoms: O_3  and  C_15 
REMARK    3  A    between atoms: C_5  and  C_6 
REMARK    4  A    between atoms: C_5  and  C_7 
REMARK    5  A    between atoms: C_6  and  C_8 
REMARK    6  A    between atoms: C_7  and  C_9 
REMARK    7  A    between atoms: C_9  and  C_14 
ROOT
HETATM    1  O   UNL     1      11.407   4.122  11.658  1.00  0.00    -0.358 OA
HETATM    2  H   UNL     1      10.943   3.615  11.021  1.00  0.00     0.217 HD
ENDROOT
BRANCH   1   3
HETATM    3  C   UNL     1      12.690   4.512  11.415  1.00  0.00     0.099 A 
HETATM    4  C   UNL     1      13.541   4.776  12.489  1.00  0.00     0.046 A 
HETATM    5  C   UNL     1      14.856   5.178  12.253  1.00  0.00    -0.055 A 
HETATM    6  C   UNL     1      15.320   5.318  10.945  1.00  0.00     0.010 A 
HETATM    7  C   UNL     1      14.468   5.053   9.872  1.00  0.00     0.040 A 
HETATM    8  C   UNL     1      13.154   4.651  10.107  1.00  0.00     0.098 A 
BRANCH   5   9
HETATM    9  C   UNL     1      15.776   5.465  13.414  1.00  0.00     0.038 C 
BRANCH   9  10
HETATM   10  C   UNL     1      16.128   6.947  13.576  1.00  0.00     0.005 C 
BRANCH  10  11
HETATM   11  C   UNL     1      17.541   7.285  13.079  1.00  0.00     0.011 C 
BRANCH  11  12
HETATM   12  C   UNL     1      18.378   6.034  12.808  1.00  0.00     0.113 C 
BRANCH  12  13
HETATM   13  C   UNL     1      19.263   6.159  11.589  1.00  0.00     0.172 C 
HETATM   14  O   UNL     1      18.532   6.189  10.444  1.00  0.00    -0.648 OA
HETATM   15  O   UNL     1      20.484   6.245  11.602  1.00  0.00    -0.648 OA
ENDBRANCH  12  13
ENDBRANCH  11  12
ENDBRANCH  10  11
ENDBRANCH   9  10
ENDBRANCH   5   9
BRANCH   8  16
HETATM   16  O   UNL     1      12.331   4.396   9.051  1.00  0.00    -0.358 OA
HETATM   17  H   UNL     1      11.411   4.289   9.190  1.00  0.00     0.217 HD
ENDBRANCH   8  16
ENDBRANCH   1   3
TORSDOF 7
ENDMDL
