MODEL 1
REMARK VINA RESULT:      -6.7      0.000      0.000
REMARK  7 active torsions:
REMARK  status: ('A' for Active; 'I' for Inactive)
REMARK    1  A    between atoms: O_1  and  C_12 
REMARK    2  A    between atoms: O_3  and  C_15 
REMARK    3  A    between atoms: C_5  and  C_6 
REMARK    4  A    between atoms: C_5  and  C_7 
REMARK    5  A    between atoms: C_6  and  C_8 
REMARK    6  A    between atoms: C_7  and  C_9 
REMARK    7  A    between atoms: C_9  and  C_14 
ROOT
HETATM    1  O   UNL     1      13.258   5.413  16.325  1.00  0.00    -0.358 OA
HETATM    2  H   UNL     1      13.916   4.746  16.287  1.00  0.00     0.217 HD
ENDROOT
BRANCH   1   3
HETATM    3  C   UNL     1      12.966   6.147  15.215  1.00  0.00     0.099 A 
HETATM    4  C   UNL     1      13.713   5.957  14.052  1.00  0.00     0.046 A 
HETATM    5  C   UNL     1      13.425   6.704  12.909  1.00  0.00    -0.055 A 
HETATM    6  C   UNL     1      12.391   7.640  12.929  1.00  0.00     0.010 A 
HETATM    7  C   UNL     1      11.643   7.827  14.092  1.00  0.00     0.040 A 
HETATM    8  C   UNL     1      11.931   7.081  15.235  1.00  0.00     0.098 A 
BRANCH   5   9
HETATM    9  C   UNL     1      14.234   6.501  11.653  1.00  0.00     0.038 C 
BRANCH   9  10
HETATM   10  C   UNL     1      14.216   5.061  11.128  1.00  0.00     0.005 C 
BRANCH  10  11
HETATM   11  C   UNL     1      12.815   4.593  10.711  1.00  0.00     0.011 C 
BRANCH  11  12
HETATM   12  C   UNL     1      12.857   3.368   9.797  1.00  0.00     0.113 C 
BRANCH  12  13
HETATM   13  C   UNL     1      13.402   3.669   8.418  1.00  0.00     0.172 C 
HETATM   14  O   UNL     1      12.875   4.817   7.916  1.00  0.00    -0.648 OA
HETATM   15  O   UNL     1      14.226   2.995   7.817  1.00  0.00    -0.648 OA
ENDBRANCH  12  13
ENDBRANCH  11  12
ENDBRANCH  10  11
ENDBRANCH   9  10
ENDBRANCH   5   9
BRANCH   8  16
HETATM   16  O   UNL     1      11.195   7.274  16.365  1.00  0.00    -0.358 OA
HETATM   17  H   UNL     1      11.483   6.911  17.179  1.00  0.00     0.217 HD
ENDBRANCH   8  16
ENDBRANCH   1   3
TORSDOF 7
ENDMDL
MODEL 2
REMARK VINA RESULT:      -6.4      2.710      6.530
REMARK  7 active torsions:
REMARK  status: ('A' for Active; 'I' for Inactive)
REMARK    1  A    between atoms: O_1  and  C_12 
REMARK    2  A    between atoms: O_3  and  C_15 
REMARK    3  A    between atoms: C_5  and  C_6 
REMARK    4  A    between atoms: C_5  and  C_7 
REMARK    5  A    between atoms: C_6  and  C_8 
REMARK    6  A    between atoms: C_7  and  C_9 
REMARK    7  A    between atoms: C_9  and  C_14 
ROOT
HETATM    1  O   UNL     1      12.065   3.896  10.360  1.00  0.00    -0.358 OA
HETATM    2  H   UNL     1      12.033   3.087  10.831  1.00  0.00     0.217 HD
ENDROOT
BRANCH   1   3
HETATM    3  C   UNL     1      13.042   4.807  10.633  1.00  0.00     0.099 A 
HETATM    4  C   UNL     1      12.843   5.740  11.650  1.00  0.00     0.046 A 
HETATM    5  C   UNL     1      13.835   6.678  11.939  1.00  0.00    -0.055 A 
HETATM    6  C   UNL     1      15.024   6.683  11.209  1.00  0.00     0.010 A 
HETATM    7  C   UNL     1      15.222   5.749  10.192  1.00  0.00     0.040 A 
HETATM    8  C   UNL     1      14.230   4.811   9.904  1.00  0.00     0.098 A 
BRANCH   5   9
HETATM    9  C   UNL     1      13.620   7.688  13.038  1.00  0.00     0.038 C 
BRANCH   9  10
HETATM   10  C   UNL     1      12.184   7.730  13.572  1.00  0.00     0.005 C 
BRANCH  10  11
HETATM   11  C   UNL     1      11.686   9.156  13.841  1.00  0.00     0.011 C 
BRANCH  11  12
HETATM   12  C   UNL     1      12.834  10.143  14.056  1.00  0.00     0.113 C 
BRANCH  12  13
HETATM   13  C   UNL     1      12.492  11.557  13.643  1.00  0.00     0.172 C 
HETATM   14  O   UNL     1      11.418  11.586  12.811  1.00  0.00    -0.648 OA
HETATM   15  O   UNL     1      13.077  12.567  14.012  1.00  0.00    -0.648 OA
ENDBRANCH  12  13
ENDBRANCH  11  12
ENDBRANCH  10  11
ENDBRANCH   9  10
ENDBRANCH   5   9
BRANCH   8  16
HETATM   16  O   UNL     1      14.434   3.904   8.907  1.00  0.00    -0.358 OA
HETATM   17  H   UNL     1      13.723   3.649   8.353  1.00  0.00     0.217 HD
ENDBRANCH   8  16
ENDBRANCH   1   3
TORSDOF 7
ENDMDL
MODEL 3
REMARK VINA RESULT:      -6.3      3.713      5.210
REMARK  7 active torsions:
REMARK  status: ('A' for Active; 'I' for Inactive)
REMARK    1  A    between atoms: O_1  and  C_12 
REMARK    2  A    between atoms: O_3  and  C_15 
REMARK    3  A    between atoms: C_5  and  C_6 
REMARK    4  A    between atoms: C_5  and  C_7 
REMARK    5  A    between atoms: C_6  and  C_8 
REMARK    6  A    between atoms: C_7  and  C_9 
REMARK    7  A    between atoms: C_9  and  C_14 
ROOT
HETATM    1  O   UNL     1      18.330   6.052   9.307  1.00  0.00    -0.358 OA
HETATM    2  H   UNL     1      18.377   5.315   8.730  1.00  0.00     0.217 HD
ENDROOT
BRANCH   1   3
HETATM    3  C   UNL     1      17.904   5.886  10.591  1.00  0.00     0.099 A 
HETATM    4  C   UNL     1      16.541   5.737  10.846  1.00  0.00     0.046 A 
HETATM    5  C   UNL     1      16.091   5.568  12.156  1.00  0.00    -0.055 A 
HETATM    6  C   UNL     1      17.005   5.550  13.210  1.00  0.00     0.010 A 
HETATM    7  C   UNL     1      18.368   5.698  12.954  1.00  0.00     0.040 A 
HETATM    8  C   UNL     1      18.817   5.867  11.644  1.00  0.00     0.098 A 
BRANCH   5   9
HETATM    9  C   UNL     1      14.617   5.408  12.433  1.00  0.00     0.038 C 
BRANCH   9  10
HETATM   10  C   UNL     1      13.722   5.716  11.227  1.00  0.00     0.005 C 
BRANCH  10  11
HETATM   11  C   UNL     1      12.625   4.665  11.012  1.00  0.00     0.011 C 
BRANCH  11  12
HETATM   12  C   UNL     1      13.054   3.564  10.042  1.00  0.00     0.113 C 
BRANCH  12  13
HETATM   13  C   UNL     1      13.151   4.034   8.608  1.00  0.00     0.172 C 
HETATM   14  O   UNL     1      14.007   3.261   7.889  1.00  0.00    -0.648 OA
HETATM   15  O   UNL     1      12.534   4.973   8.125  1.00  0.00    -0.648 OA
ENDBRANCH  12  13
ENDBRANCH  11  12
ENDBRANCH  10  11
ENDBRANCH   9  10
ENDBRANCH   5   9
BRANCH   8  16
HETATM   16  O   UNL     1      20.151   6.012  11.406  1.00  0.00    -0.358 OA
HETATM   17  H   UNL     1      20.483   6.827  11.084  1.00  0.00     0.217 HD
ENDBRANCH   8  16
ENDBRANCH   1   3
TORSDOF 7
ENDMDL
MODEL 4
REMARK VINA RESULT:      -6.3      2.054      5.420
REMARK  7 active torsions:
REMARK  status: ('A' for Active; 'I' for Inactive)
REMARK    1  A    between atoms: O_1  and  C_12 
REMARK    2  A    between atoms: O_3  and  C_15 
REMARK    3  A    between atoms: C_5  and  C_6 
REMARK    4  A    between atoms: C_5  and  C_7 
REMARK    5  A    between atoms: C_6  and  C_8 
REMARK    6  A    between atoms: C_7  and  C_9 
REMARK    7  A    between atoms: C_9  and  C_14 
ROOT
HETATM    1  O   UNL     1      11.366   3.810  11.954  1.00  0.00    -0.358 OA
HETATM    2  H   UNL     1      11.184   3.355  12.752  1.00  0.00     0.217 HD
ENDROOT
BRANCH   1   3
HETATM    3  C   UNL     1      12.617   4.297  11.717  1.00  0.00     0.099 A 
HETATM    4  C   UNL     1      13.419   4.677  12.792  1.00  0.00     0.046 A 
HETATM    5  C   UNL     1      14.701   5.178  12.563  1.00  0.00    -0.055 A 
HETATM    6  C   UNL     1      15.179   5.301  11.258  1.00  0.00     0.010 A 
HETATM    7  C   UNL     1      14.376   4.919  10.183  1.00  0.00     0.040 A 
HETATM    8  C   UNL     1      13.095   4.418  10.413  1.00  0.00     0.098 A 
BRANCH   5   9
HETATM    9  C   UNL     1      15.568   5.591  13.726  1.00  0.00     0.038 C 
BRANCH   9  10
HETATM   10  C   UNL     1      15.563   7.098  14.002  1.00  0.00     0.005 C 
BRANCH  10  11
HETATM   11  C   UNL     1      14.322   7.561  14.778  1.00  0.00     0.011 C 
BRANCH  11  12
HETATM   12  C   UNL     1      13.389   8.423  13.927  1.00  0.00     0.113 C 
BRANCH  12  13
HETATM   13  C   UNL     1      11.977   7.888  13.860  1.00  0.00     0.172 C 
HETATM   14  O   UNL     1      11.621   7.586  12.584  1.00  0.00    -0.648 OA
HETATM   15  O   UNL     1      11.234   7.720  14.817  1.00  0.00    -0.648 OA
ENDBRANCH  12  13
ENDBRANCH  11  12
ENDBRANCH  10  11
ENDBRANCH   9  10
ENDBRANCH   5   9
BRANCH   8  16
HETATM   16  O   UNL     1      12.320   4.050   9.354  1.00  0.00    -0.358 OA
HETATM   17  H   UNL     1      11.545   4.536   9.150  1.00  0.00     0.217 HD
ENDBRANCH   8  16
ENDBRANCH   1   3
TORSDOF 7
ENDMDL
MODEL 5
REMARK VINA RESULT:      -6.2      1.936      2.216
REMARK  7 active torsions:
REMARK  status: ('A' for Active; 'I' for Inactive)
REMARK    1  A    between atoms: O_1  and  C_12 
REMARK    2  A    between atoms: O_3  and  C_15 
REMARK    3  A    between atoms: C_5  and  C_6 
REMARK    4  A    between atoms: C_5  and  C_7 
REMARK    5  A    between atoms: C_6  and  C_8 
REMARK    6  A    between atoms: C_7  and  C_9 
REMARK    7  A    between atoms: C_9  and  C_14 
ROOT
HETATM    1  O   UNL     1      13.363   5.659  16.699  1.00  0.00    -0.358 OA
HETATM    2  H   UNL     1      14.199   5.574  17.115  1.00  0.00     0.217 HD
ENDROOT
BRANCH   1   3
HETATM    3  C   UNL     1      13.230   6.441  15.590  1.00  0.00     0.099 A 
HETATM    4  C   UNL     1      14.250   6.461  14.639  1.00  0.00     0.046 A 
HETATM    5  C   UNL     1      14.126   7.259  13.501  1.00  0.00    -0.055 A 
HETATM    6  C   UNL     1      12.984   8.038  13.316  1.00  0.00     0.010 A 
HETATM    7  C   UNL     1      11.964   8.017  14.268  1.00  0.00     0.040 A 
HETATM    8  C   UNL     1      12.088   7.219  15.405  1.00  0.00     0.098 A 
BRANCH   5   9
HETATM    9  C   UNL     1      15.229   7.281  12.473  1.00  0.00     0.038 C 
BRANCH   9  10
HETATM   10  C   UNL     1      14.828   6.688  11.118  1.00  0.00     0.005 C 
BRANCH  10  11
HETATM   11  C   UNL     1      14.776   5.154  11.128  1.00  0.00     0.011 C 
BRANCH  11  12
HETATM   12  C   UNL     1      13.417   4.614  10.682  1.00  0.00     0.113 C 
BRANCH  12  13
HETATM   13  C   UNL     1      12.366   4.668  11.768  1.00  0.00     0.172 C 
HETATM   14  O   UNL     1      11.342   5.493  11.428  1.00  0.00    -0.648 OA
HETATM   15  O   UNL     1      12.398   4.043  12.820  1.00  0.00    -0.648 OA
ENDBRANCH  12  13
ENDBRANCH  11  12
ENDBRANCH  10  11
ENDBRANCH   9  10
ENDBRANCH   5   9
BRANCH   8  16
HETATM   16  O   UNL     1      11.086   7.208  16.328  1.00  0.00    -0.358 OA
HETATM   17  H   UNL     1      10.337   6.660  16.200  1.00  0.00     0.217 HD
ENDBRANCH   8  16
ENDBRANCH   1   3
TORSDOF 7
ENDMDL
MODEL 6
REMARK VINA RESULT:      -6.1      2.660      6.602
REMARK  7 active torsions:
REMARK  status: ('A' for Active; 'I' for Inactive)
REMARK    1  A    between atoms: O_1  and  C_12 
REMARK    2  A    between atoms: O_3  and  C_15 
REMARK    3  A    between atoms: C_5  and  C_6 
REMARK    4  A    between atoms: C_5  and  C_7 
REMARK    5  A    between atoms: C_6  and  C_8 
REMARK    6  A    between atoms: C_7  and  C_9 
REMARK    7  A    between atoms: C_9  and  C_14 
ROOT
HETATM    1  O   UNL     1      16.128   5.304   9.620  1.00  0.00    -0.358 OA
HETATM    2  H   UNL     1      16.227   5.807   8.835  1.00  0.00     0.217 HD
ENDROOT
BRANCH   1   3
HETATM    3  C   UNL     1      14.895   5.150  10.180  1.00  0.00     0.099 A 
HETATM    4  C   UNL     1      14.584   5.838  11.352  1.00  0.00     0.046 A 
HETATM    5  C   UNL     1      13.326   5.687  11.936  1.00  0.00    -0.055 A 
HETATM    6  C   UNL     1      12.380   4.846  11.348  1.00  0.00     0.010 A 
HETATM    7  C   UNL     1      12.692   4.159  10.175  1.00  0.00     0.040 A 
HETATM    8  C   UNL     1      13.950   4.310   9.592  1.00  0.00     0.098 A 
BRANCH   5   9
HETATM    9  C   UNL     1      12.989   6.430  13.204  1.00  0.00     0.038 C 
BRANCH   9  10
HETATM   10  C   UNL     1      12.314   7.786  12.969  1.00  0.00     0.005 C 
BRANCH  10  11
HETATM   11  C   UNL     1      13.071   8.952  13.620  1.00  0.00     0.011 C 
BRANCH  11  12
HETATM   12  C   UNL     1      12.129   9.978  14.251  1.00  0.00     0.113 C 
BRANCH  12  13
HETATM   13  C   UNL     1      12.101  11.298  13.514  1.00  0.00     0.172 C 
HETATM   14  O   UNL     1      13.066  12.140  13.967  1.00  0.00    -0.648 OA
HETATM   15  O   UNL     1      11.333  11.590  12.608  1.00  0.00    -0.648 OA
ENDBRANCH  12  13
ENDBRANCH  11  12
ENDBRANCH  10  11
ENDBRANCH   9  10
ENDBRANCH   5   9
BRANCH   8  16
HETATM   16  O   UNL     1      14.244   3.632   8.447  1.00  0.00    -0.358 OA
HETATM   17  H   UNL     1      15.069   3.764   8.023  1.00  0.00     0.217 HD
ENDBRANCH   8  16
ENDBRANCH   1   3
TORSDOF 7
ENDMDL
MODEL 7
REMARK VINA RESULT:      -6.1      1.269      2.102
REMARK  7 active torsions:
REMARK  status: ('A' for Active; 'I' for Inactive)
REMARK    1  A    between atoms: O_1  and  C_12 
REMARK    2  A    between atoms: O_3  and  C_15 
REMARK    3  A    between atoms: C_5  and  C_6 
REMARK    4  A    between atoms: C_5  and  C_7 
REMARK    5  A    between atoms: C_6  and  C_8 
REMARK    6  A    between atoms: C_7  and  C_9 
REMARK    7  A    between atoms: C_9  and  C_14 
ROOT
HETATM    1  O   UNL     1      10.764   7.230  14.767  1.00  0.00    -0.358 OA
HETATM    2  H   UNL     1      10.648   8.157  14.687  1.00  0.00     0.217 HD
ENDROOT
BRANCH   1   3
HETATM    3  C   UNL     1      12.020   6.705  14.843  1.00  0.00     0.099 A 
HETATM    4  C   UNL     1      12.682   6.343  13.670  1.00  0.00     0.046 A 
HETATM    5  C   UNL     1      13.967   5.802  13.734  1.00  0.00    -0.055 A 
HETATM    6  C   UNL     1      14.588   5.622  14.970  1.00  0.00     0.010 A 
HETATM    7  C   UNL     1      13.924   5.985  16.143  1.00  0.00     0.040 A 
HETATM    8  C   UNL     1      12.640   6.525  16.078  1.00  0.00     0.098 A 
BRANCH   5   9
HETATM    9  C   UNL     1      14.684   5.410  12.466  1.00  0.00     0.038 C 
BRANCH   9  10
HETATM   10  C   UNL     1      14.846   6.558  11.463  1.00  0.00     0.005 C 
BRANCH  10  11
HETATM   11  C   UNL     1      14.834   6.085  10.003  1.00  0.00     0.011 C 
BRANCH  11  12
HETATM   12  C   UNL     1      14.680   4.569   9.883  1.00  0.00     0.113 C 
BRANCH  12  13
HETATM   13  C   UNL     1      13.510   4.153   9.021  1.00  0.00     0.172 C 
HETATM   14  O   UNL     1      12.326   4.521   9.578  1.00  0.00    -0.648 OA
HETATM   15  O   UNL     1      13.589   3.576   7.945  1.00  0.00    -0.648 OA
ENDBRANCH  12  13
ENDBRANCH  11  12
ENDBRANCH  10  11
ENDBRANCH   9  10
ENDBRANCH   5   9
BRANCH   8  16
HETATM   16  O   UNL     1      12.002   6.875  17.230  1.00  0.00    -0.358 OA
HETATM   17  H   UNL     1      12.246   6.473  18.041  1.00  0.00     0.217 HD
ENDBRANCH   8  16
ENDBRANCH   1   3
TORSDOF 7
ENDMDL
MODEL 8
REMARK VINA RESULT:      -6.0      3.505      4.950
REMARK  7 active torsions:
REMARK  status: ('A' for Active; 'I' for Inactive)
REMARK    1  A    between atoms: O_1  and  C_12 
REMARK    2  A    between atoms: O_3  and  C_15 
REMARK    3  A    between atoms: C_5  and  C_6 
REMARK    4  A    between atoms: C_5  and  C_7 
REMARK    5  A    between atoms: C_6  and  C_8 
REMARK    6  A    between atoms: C_7  and  C_9 
REMARK    7  A    between atoms: C_9  and  C_14 
ROOT
HETATM    1  O   UNL     1      19.414   5.541  13.782  1.00  0.00    -0.358 OA
HETATM    2  H   UNL     1      20.167   6.095  13.845  1.00  0.00     0.217 HD
ENDROOT
BRANCH   1   3
HETATM    3  C   UNL     1      18.524   5.715  12.764  1.00  0.00     0.099 A 
HETATM    4  C   UNL     1      17.162   5.790  13.050  1.00  0.00     0.046 A 
HETATM    5  C   UNL     1      16.241   5.966  12.017  1.00  0.00    -0.055 A 
HETATM    6  C   UNL     1      16.683   6.065  10.697  1.00  0.00     0.010 A 
HETATM    7  C   UNL     1      18.047   5.990  10.412  1.00  0.00     0.040 A 
HETATM    8  C   UNL     1      18.967   5.814  11.445  1.00  0.00     0.098 A 
BRANCH   5   9
HETATM    9  C   UNL     1      14.767   6.046  12.326  1.00  0.00     0.038 C 
BRANCH   9  10
HETATM   10  C   UNL     1      13.987   4.775  11.968  1.00  0.00     0.005 C 
BRANCH  10  11
HETATM   11  C   UNL     1      13.110   4.942  10.720  1.00  0.00     0.011 C 
BRANCH  11  12
HETATM   12  C   UNL     1      12.965   3.640   9.931  1.00  0.00     0.113 C 
BRANCH  12  13
HETATM   13  C   UNL     1      13.307   3.787   8.466  1.00  0.00     0.172 C 
HETATM   14  O   UNL     1      12.786   4.929   7.946  1.00  0.00    -0.648 OA
HETATM   15  O   UNL     1      13.982   3.004   7.811  1.00  0.00    -0.648 OA
ENDBRANCH  12  13
ENDBRANCH  11  12
ENDBRANCH  10  11
ENDBRANCH   9  10
ENDBRANCH   5   9
BRANCH   8  16
HETATM   16  O   UNL     1      20.296   5.742  11.154  1.00  0.00    -0.358 OA
HETATM   17  H   UNL     1      20.727   4.910  11.136  1.00  0.00     0.217 HD
ENDBRANCH   8  16
ENDBRANCH   1   3
TORSDOF 7
ENDMDL
MODEL 9
REMARK VINA RESULT:      -6.0      3.697      5.538
REMARK  7 active torsions:
REMARK  status: ('A' for Active; 'I' for Inactive)
REMARK    1  A    between atoms: O_1  and  C_12 
REMARK    2  A    between atoms: O_3  and  C_15 
REMARK    3  A    between atoms: C_5  and  C_6 
REMARK    4  A    between atoms: C_5  and  C_7 
REMARK    5  A    between atoms: C_6  and  C_8 
REMARK    6  A    between atoms: C_7  and  C_9 
REMARK    7  A    between atoms: C_9  and  C_14 
ROOT
HETATM    1  O   UNL     1      11.536   3.901  12.011  1.00  0.00    -0.358 OA
HETATM    2  H   UNL     1      10.851   4.515  12.193  1.00  0.00     0.217 HD
ENDROOT
BRANCH   1   3
HETATM    3  C   UNL     1      12.775   4.346  11.659  1.00  0.00     0.099 A 
HETATM    4  C   UNL     1      13.662   4.758  12.654  1.00  0.00     0.046 A 
HETATM    5  C   UNL     1      14.933   5.218  12.307  1.00  0.00    -0.055 A 
HETATM    6  C   UNL     1      15.316   5.267  10.966  1.00  0.00     0.010 A 
HETATM    7  C   UNL     1      14.428   4.854   9.972  1.00  0.00     0.040 A 
HETATM    8  C   UNL     1      13.157   4.395  10.320  1.00  0.00     0.098 A 
BRANCH   5   9
HETATM    9  C   UNL     1      15.892   5.664  13.382  1.00  0.00     0.038 C 
BRANCH   9  10
HETATM   10  C   UNL     1      16.332   7.127  13.254  1.00  0.00     0.005 C 
BRANCH  10  11
HETATM   11  C   UNL     1      17.857   7.296  13.263  1.00  0.00     0.011 C 
BRANCH  11  12
HETATM   12  C   UNL     1      18.586   6.050  12.759  1.00  0.00     0.113 C 
BRANCH  12  13
HETATM   13  C   UNL     1      19.192   6.225  11.385  1.00  0.00     0.172 C 
HETATM   14  O   UNL     1      20.550   6.216  11.437  1.00  0.00    -0.648 OA
HETATM   15  O   UNL     1      18.565   6.341  10.341  1.00  0.00    -0.648 OA
ENDBRANCH  12  13
ENDBRANCH  11  12
ENDBRANCH  10  11
ENDBRANCH   9  10
ENDBRANCH   5   9
BRANCH   8  16
HETATM   16  O   UNL     1      12.298   3.995   9.340  1.00  0.00    -0.358 OA
HETATM   17  H   UNL     1      11.609   3.392   9.539  1.00  0.00     0.217 HD
ENDBRANCH   8  16
ENDBRANCH   1   3
TORSDOF 7
ENDMDL
