MODEL 1
REMARK VINA RESULT:      -6.7      0.000      0.000
REMARK  7 active torsions:
REMARK  status: ('A' for Active; 'I' for Inactive)
REMARK    1  A    between atoms: O_1  and  C_12 
REMARK    2  A    between atoms: O_3  and  C_15 
REMARK    3  A    between atoms: C_5  and  C_6 
REMARK    4  A    between atoms: C_5  and  C_7 
REMARK    5  A    between atoms: C_6  and  C_8 
REMARK    6  A    between atoms: C_7  and  C_9 
REMARK    7  A    between atoms: C_9  and  C_14 
ROOT
HETATM    1  O   UNL     1      12.033   6.222  13.758  1.00  0.00    -0.358 OA
HETATM    2  H   UNL     1      12.913   6.122  14.066  1.00  0.00     0.217 HD
ENDROOT
BRANCH   1   3
HETATM    3  C   UNL     1      11.719   7.243  12.912  1.00  0.00     0.099 A 
HETATM    4  C   UNL     1      12.124   7.176  11.579  1.00  0.00     0.046 A 
HETATM    5  C   UNL     1      11.811   8.215  10.702  1.00  0.00    -0.055 A 
HETATM    6  C   UNL     1      11.094   9.322  11.159  1.00  0.00     0.010 A 
HETATM    7  C   UNL     1      10.689   9.387  12.493  1.00  0.00     0.040 A 
HETATM    8  C   UNL     1      11.002   8.348  13.369  1.00  0.00     0.098 A 
BRANCH   5   9
HETATM    9  C   UNL     1      12.249   8.144   9.261  1.00  0.00     0.038 C 
BRANCH   9  10
HETATM   10  C   UNL     1      11.986   6.788   8.598  1.00  0.00     0.005 C 
BRANCH  10  11
HETATM   11  C   UNL     1      10.499   6.539   8.313  1.00  0.00     0.011 C 
BRANCH  11  12
HETATM   12  C   UNL     1      10.282   5.598   7.127  1.00  0.00     0.113 C 
BRANCH  12  13
HETATM   13  C   UNL     1      10.759   6.173   5.812  1.00  0.00     0.172 C 
HETATM   14  O   UNL     1      10.372   7.468   5.667  1.00  0.00    -0.648 OA
HETATM   15  O   UNL     1      11.425   5.579   4.977  1.00  0.00    -0.648 OA
ENDBRANCH  12  13
ENDBRANCH  11  12
ENDBRANCH  10  11
ENDBRANCH   9  10
ENDBRANCH   5   9
BRANCH   8  16
HETATM   16  O   UNL     1      10.602   8.423  14.669  1.00  0.00    -0.358 OA
HETATM   17  H   UNL     1       9.962   7.823  14.998  1.00  0.00     0.217 HD
ENDBRANCH   8  16
ENDBRANCH   1   3
TORSDOF 7
ENDMDL
MODEL 2
REMARK VINA RESULT:      -6.5      2.729      6.655
REMARK  7 active torsions:
REMARK  status: ('A' for Active; 'I' for Inactive)
REMARK    1  A    between atoms: O_1  and  C_12 
REMARK    2  A    between atoms: O_3  and  C_15 
REMARK    3  A    between atoms: C_5  and  C_6 
REMARK    4  A    between atoms: C_5  and  C_7 
REMARK    5  A    between atoms: C_6  and  C_8 
REMARK    6  A    between atoms: C_7  and  C_9 
REMARK    7  A    between atoms: C_9  and  C_14 
ROOT
HETATM    1  O   UNL     1      13.919   6.935   6.642  1.00  0.00    -0.358 OA
HETATM    2  H   UNL     1      14.589   7.591   6.661  1.00  0.00     0.217 HD
ENDROOT
BRANCH   1   3
HETATM    3  C   UNL     1      12.821   7.061   7.440  1.00  0.00     0.099 A 
HETATM    4  C   UNL     1      12.933   7.730   8.659  1.00  0.00     0.046 A 
HETATM    5  C   UNL     1      11.817   7.863   9.486  1.00  0.00    -0.055 A 
HETATM    6  C   UNL     1      10.590   7.326   9.095  1.00  0.00     0.010 A 
HETATM    7  C   UNL     1      10.480   6.657   7.875  1.00  0.00     0.040 A 
HETATM    8  C   UNL     1      11.595   6.524   7.049  1.00  0.00     0.098 A 
BRANCH   5   9
HETATM    9  C   UNL     1      11.938   8.586  10.804  1.00  0.00     0.038 C 
BRANCH   9  10
HETATM   10  C   UNL     1      10.877   9.672  11.017  1.00  0.00     0.005 C 
BRANCH  10  11
HETATM   11  C   UNL     1      11.016  10.389  12.366  1.00  0.00     0.011 C 
BRANCH  11  12
HETATM   12  C   UNL     1      12.235  11.311  12.414  1.00  0.00     0.113 C 
BRANCH  12  13
HETATM   13  C   UNL     1      11.879  12.778  12.318  1.00  0.00     0.172 C 
HETATM   14  O   UNL     1      12.888  13.564  12.776  1.00  0.00    -0.648 OA
HETATM   15  O   UNL     1      10.834  13.228  11.870  1.00  0.00    -0.648 OA
ENDBRANCH  12  13
ENDBRANCH  11  12
ENDBRANCH  10  11
ENDBRANCH   9  10
ENDBRANCH   5   9
BRANCH   8  16
HETATM   16  O   UNL     1      11.475   5.868   5.861  1.00  0.00    -0.358 OA
HETATM   17  H   UNL     1      12.102   6.014   5.179  1.00  0.00     0.217 HD
ENDBRANCH   8  16
ENDBRANCH   1   3
TORSDOF 7
ENDMDL
MODEL 3
REMARK VINA RESULT:      -6.4      1.163      1.385
REMARK  7 active torsions:
REMARK  status: ('A' for Active; 'I' for Inactive)
REMARK    1  A    between atoms: O_1  and  C_12 
REMARK    2  A    between atoms: O_3  and  C_15 
REMARK    3  A    between atoms: C_5  and  C_6 
REMARK    4  A    between atoms: C_5  and  C_7 
REMARK    5  A    between atoms: C_6  and  C_8 
REMARK    6  A    between atoms: C_7  and  C_9 
REMARK    7  A    between atoms: C_9  and  C_14 
ROOT
HETATM    1  O   UNL     1      13.043   7.474  14.269  1.00  0.00    -0.358 OA
HETATM    2  H   UNL     1      13.739   6.855  14.168  1.00  0.00     0.217 HD
ENDROOT
BRANCH   1   3
HETATM    3  C   UNL     1      12.408   7.970  13.170  1.00  0.00     0.099 A 
HETATM    4  C   UNL     1      13.070   7.981  11.943  1.00  0.00     0.046 A 
HETATM    5  C   UNL     1      12.431   8.488  10.811  1.00  0.00    -0.055 A 
HETATM    6  C   UNL     1      11.131   8.985  10.906  1.00  0.00     0.010 A 
HETATM    7  C   UNL     1      10.469   8.973  12.135  1.00  0.00     0.040 A 
HETATM    8  C   UNL     1      11.108   8.466  13.266  1.00  0.00     0.098 A 
BRANCH   5   9
HETATM    9  C   UNL     1      13.148   8.502   9.483  1.00  0.00     0.038 C 
BRANCH   9  10
HETATM   10  C   UNL     1      13.324   7.113   8.859  1.00  0.00     0.005 C 
BRANCH  10  11
HETATM   11  C   UNL     1      12.824   7.041   7.409  1.00  0.00     0.011 C 
BRANCH  11  12
HETATM   12  C   UNL     1      11.298   7.004   7.320  1.00  0.00     0.113 C 
BRANCH  12  13
HETATM   13  C   UNL     1      10.775   5.865   6.475  1.00  0.00     0.172 C 
HETATM   14  O   UNL     1      11.222   5.951   5.194  1.00  0.00    -0.648 OA
HETATM   15  O   UNL     1      10.057   4.957   6.871  1.00  0.00    -0.648 OA
ENDBRANCH  12  13
ENDBRANCH  11  12
ENDBRANCH  10  11
ENDBRANCH   9  10
ENDBRANCH   5   9
BRANCH   8  16
HETATM   16  O   UNL     1      10.452   8.460  14.460  1.00  0.00    -0.358 OA
HETATM   17  H   UNL     1      10.267   9.269  14.897  1.00  0.00     0.217 HD
ENDBRANCH   8  16
ENDBRANCH   1   3
TORSDOF 7
ENDMDL
MODEL 4
REMARK VINA RESULT:      -6.3      3.762      5.038
REMARK  7 active torsions:
REMARK  status: ('A' for Active; 'I' for Inactive)
REMARK    1  A    between atoms: O_1  and  C_12 
REMARK    2  A    between atoms: O_3  and  C_15 
REMARK    3  A    between atoms: C_5  and  C_6 
REMARK    4  A    between atoms: C_5  and  C_7 
REMARK    5  A    between atoms: C_6  and  C_8 
REMARK    6  A    between atoms: C_7  and  C_9 
REMARK    7  A    between atoms: C_9  and  C_14 
ROOT
HETATM    1  O   UNL     1      16.058   7.616   6.277  1.00  0.00    -0.358 OA
HETATM    2  H   UNL     1      16.790   8.174   6.099  1.00  0.00     0.217 HD
ENDROOT
BRANCH   1   3
HETATM    3  C   UNL     1      15.751   7.285   7.563  1.00  0.00     0.099 A 
HETATM    4  C   UNL     1      14.413   7.158   7.936  1.00  0.00     0.046 A 
HETATM    5  C   UNL     1      14.085   6.822   9.250  1.00  0.00    -0.055 A 
HETATM    6  C   UNL     1      15.095   6.615  10.190  1.00  0.00     0.010 A 
HETATM    7  C   UNL     1      16.433   6.742   9.816  1.00  0.00     0.040 A 
HETATM    8  C   UNL     1      16.760   7.078   8.502  1.00  0.00     0.098 A 
BRANCH   5   9
HETATM    9  C   UNL     1      12.638   6.686   9.655  1.00  0.00     0.038 C 
BRANCH   9  10
HETATM   10  C   UNL     1      11.703   7.685   8.964  1.00  0.00     0.005 C 
BRANCH  10  11
HETATM   11  C   UNL     1      10.444   7.026   8.387  1.00  0.00     0.011 C 
BRANCH  11  12
HETATM   12  C   UNL     1      10.772   5.885   7.423  1.00  0.00     0.113 C 
BRANCH  12  13
HETATM   13  C   UNL     1      10.752   6.304   5.970  1.00  0.00     0.172 C 
HETATM   14  O   UNL     1      10.254   7.559   5.823  1.00  0.00    -0.648 OA
HETATM   15  O   UNL     1      11.145   5.627   5.030  1.00  0.00    -0.648 OA
ENDBRANCH  12  13
ENDBRANCH  11  12
ENDBRANCH  10  11
ENDBRANCH   9  10
ENDBRANCH   5   9
BRANCH   8  16
HETATM   16  O   UNL     1      18.070   7.199   8.148  1.00  0.00    -0.358 OA
HETATM   17  H   UNL     1      18.648   6.467   8.234  1.00  0.00     0.217 HD
ENDBRANCH   8  16
ENDBRANCH   1   3
TORSDOF 7
ENDMDL
MODEL 5
REMARK VINA RESULT:      -6.2      2.070      5.516
REMARK  7 active torsions:
REMARK  status: ('A' for Active; 'I' for Inactive)
REMARK    1  A    between atoms: O_1  and  C_12 
REMARK    2  A    between atoms: O_3  and  C_15 
REMARK    3  A    between atoms: C_5  and  C_6 
REMARK    4  A    between atoms: C_5  and  C_7 
REMARK    5  A    between atoms: C_6  and  C_8 
REMARK    6  A    between atoms: C_7  and  C_9 
REMARK    7  A    between atoms: C_9  and  C_14 
ROOT
HETATM    1  O   UNL     1       9.404   6.240   9.400  1.00  0.00    -0.358 OA
HETATM    2  H   UNL     1       9.150   5.406   9.745  1.00  0.00     0.217 HD
ENDROOT
BRANCH   1   3
HETATM    3  C   UNL     1      10.709   6.479   9.088  1.00  0.00     0.099 A 
HETATM    4  C   UNL     1      11.676   6.416  10.091  1.00  0.00     0.046 A 
HETATM    5  C   UNL     1      13.015   6.661   9.785  1.00  0.00    -0.055 A 
HETATM    6  C   UNL     1      13.386   6.970   8.476  1.00  0.00     0.010 A 
HETATM    7  C   UNL     1      12.418   7.032   7.473  1.00  0.00     0.040 A 
HETATM    8  C   UNL     1      11.080   6.787   7.780  1.00  0.00     0.098 A 
BRANCH   5   9
HETATM    9  C   UNL     1      14.061   6.594  10.869  1.00  0.00     0.038 C 
BRANCH   9  10
HETATM   10  C   UNL     1      14.446   7.961  11.447  1.00  0.00     0.005 C 
BRANCH  10  11
HETATM   11  C   UNL     1      13.427   8.489  12.465  1.00  0.00     0.011 C 
BRANCH  11  12
HETATM   12  C   UNL     1      12.614   9.664  11.922  1.00  0.00     0.113 C 
BRANCH  12  13
HETATM   13  C   UNL     1      11.125   9.405  11.902  1.00  0.00     0.172 C 
HETATM   14  O   UNL     1      10.675   8.999  13.119  1.00  0.00    -0.648 OA
HETATM   15  O   UNL     1      10.390   9.552  10.935  1.00  0.00    -0.648 OA
ENDBRANCH  12  13
ENDBRANCH  11  12
ENDBRANCH  10  11
ENDBRANCH   9  10
ENDBRANCH   5   9
BRANCH   8  16
HETATM   16  O   UNL     1      10.143   6.852   6.792  1.00  0.00    -0.358 OA
HETATM   17  H   UNL     1      10.367   7.216   5.958  1.00  0.00     0.217 HD
ENDBRANCH   8  16
ENDBRANCH   1   3
TORSDOF 7
ENDMDL
MODEL 6
REMARK VINA RESULT:      -6.2      1.247      2.143
REMARK  7 active torsions:
REMARK  status: ('A' for Active; 'I' for Inactive)
REMARK    1  A    between atoms: O_1  and  C_12 
REMARK    2  A    between atoms: O_3  and  C_15 
REMARK    3  A    between atoms: C_5  and  C_6 
REMARK    4  A    between atoms: C_5  and  C_7 
REMARK    5  A    between atoms: C_6  and  C_8 
REMARK    6  A    between atoms: C_7  and  C_9 
REMARK    7  A    between atoms: C_9  and  C_14 
ROOT
HETATM    1  O   UNL     1      11.566  10.678  13.176  1.00  0.00    -0.358 OA
HETATM    2  H   UNL     1      10.697  10.959  13.388  1.00  0.00     0.217 HD
ENDROOT
BRANCH   1   3
HETATM    3  C   UNL     1      11.765   9.464  12.590  1.00  0.00     0.099 A 
HETATM    4  C   UNL     1      12.625   9.364  11.496  1.00  0.00     0.046 A 
HETATM    5  C   UNL     1      12.836   8.127  10.887  1.00  0.00    -0.055 A 
HETATM    6  C   UNL     1      12.187   6.991  11.370  1.00  0.00     0.010 A 
HETATM    7  C   UNL     1      11.327   7.092  12.465  1.00  0.00     0.040 A 
HETATM    8  C   UNL     1      11.117   8.329  13.074  1.00  0.00     0.098 A 
BRANCH   5   9
HETATM    9  C   UNL     1      13.765   8.018   9.703  1.00  0.00     0.038 C 
BRANCH   9  10
HETATM   10  C   UNL     1      13.519   6.781   8.832  1.00  0.00     0.005 C 
BRANCH  10  11
HETATM   11  C   UNL     1      12.778   7.104   7.528  1.00  0.00     0.011 C 
BRANCH  11  12
HETATM   12  C   UNL     1      11.400   6.445   7.462  1.00  0.00     0.113 C 
BRANCH  12  13
HETATM   13  C   UNL     1      10.669   6.712   6.166  1.00  0.00     0.172 C 
HETATM   14  O   UNL     1      11.021   5.819   5.204  1.00  0.00    -0.648 OA
HETATM   15  O   UNL     1       9.847   7.599   5.983  1.00  0.00    -0.648 OA
ENDBRANCH  12  13
ENDBRANCH  11  12
ENDBRANCH  10  11
ENDBRANCH   9  10
ENDBRANCH   5   9
BRANCH   8  16
HETATM   16  O   UNL     1      10.275   8.415  14.142  1.00  0.00    -0.358 OA
HETATM   17  H   UNL     1      10.158   7.677  14.707  1.00  0.00     0.217 HD
ENDBRANCH   8  16
ENDBRANCH   1   3
TORSDOF 7
ENDMDL
MODEL 7
REMARK VINA RESULT:      -6.1      3.763      5.592
REMARK  7 active torsions:
REMARK  status: ('A' for Active; 'I' for Inactive)
REMARK    1  A    between atoms: O_1  and  C_12 
REMARK    2  A    between atoms: O_3  and  C_15 
REMARK    3  A    between atoms: C_5  and  C_6 
REMARK    4  A    between atoms: C_5  and  C_7 
REMARK    5  A    between atoms: C_6  and  C_8 
REMARK    6  A    between atoms: C_7  and  C_9 
REMARK    7  A    between atoms: C_9  and  C_14 
ROOT
HETATM    1  O   UNL     1       9.332   6.482   9.587  1.00  0.00    -0.358 OA
HETATM    2  H   UNL     1       9.047   5.669   9.955  1.00  0.00     0.217 HD
ENDROOT
BRANCH   1   3
HETATM    3  C   UNL     1      10.606   6.609   9.119  1.00  0.00     0.099 A 
HETATM    4  C   UNL     1      11.665   6.679  10.024  1.00  0.00     0.046 A 
HETATM    5  C   UNL     1      12.973   6.811   9.558  1.00  0.00    -0.055 A 
HETATM    6  C   UNL     1      13.222   6.873   8.186  1.00  0.00     0.010 A 
HETATM    7  C   UNL     1      12.162   6.802   7.281  1.00  0.00     0.040 A 
HETATM    8  C   UNL     1      10.855   6.670   7.749  1.00  0.00     0.098 A 
BRANCH   5   9
HETATM    9  C   UNL     1      14.118   6.888  10.536  1.00  0.00     0.038 C 
BRANCH   9  10
HETATM   10  C   UNL     1      14.982   8.145  10.384  1.00  0.00     0.005 C 
BRANCH  10  11
HETATM   11  C   UNL     1      16.486   7.838  10.348  1.00  0.00     0.011 C 
BRANCH  11  12
HETATM   12  C   UNL     1      16.818   6.655   9.438  1.00  0.00     0.113 C 
BRANCH  12  13
HETATM   13  C   UNL     1      17.462   7.067   8.133  1.00  0.00     0.172 C 
HETATM   14  O   UNL     1      16.544   7.555   7.258  1.00  0.00    -0.648 OA
HETATM   15  O   UNL     1      18.656   7.000   7.877  1.00  0.00    -0.648 OA
ENDBRANCH  12  13
ENDBRANCH  11  12
ENDBRANCH  10  11
ENDBRANCH   9  10
ENDBRANCH   5   9
BRANCH   8  16
HETATM   16  O   UNL     1       9.828   6.603   6.855  1.00  0.00    -0.358 OA
HETATM   17  H   UNL     1       9.222   5.889   6.891  1.00  0.00     0.217 HD
ENDBRANCH   8  16
ENDBRANCH   1   3
TORSDOF 7
ENDMDL
MODEL 8
REMARK VINA RESULT:      -6.1      1.892      5.551
REMARK  7 active torsions:
REMARK  status: ('A' for Active; 'I' for Inactive)
REMARK    1  A    between atoms: O_1  and  C_12 
REMARK    2  A    between atoms: O_3  and  C_15 
REMARK    3  A    between atoms: C_5  and  C_6 
REMARK    4  A    between atoms: C_5  and  C_7 
REMARK    5  A    between atoms: C_6  and  C_8 
REMARK    6  A    between atoms: C_7  and  C_9 
REMARK    7  A    between atoms: C_9  and  C_14 
ROOT
HETATM    1  O   UNL     1      12.325   7.228   6.638  1.00  0.00    -0.358 OA
HETATM    2  H   UNL     1      11.982   8.029   6.293  1.00  0.00     0.217 HD
ENDROOT
BRANCH   1   3
HETATM    3  C   UNL     1      12.027   6.852   7.914  1.00  0.00     0.099 A 
HETATM    4  C   UNL     1      13.014   6.922   8.896  1.00  0.00     0.046 A 
HETATM    5  C   UNL     1      12.722   6.539  10.206  1.00  0.00    -0.055 A 
HETATM    6  C   UNL     1      11.444   6.084  10.532  1.00  0.00     0.010 A 
HETATM    7  C   UNL     1      10.457   6.016   9.548  1.00  0.00     0.040 A 
HETATM    8  C   UNL     1      10.749   6.399   8.239  1.00  0.00     0.098 A 
BRANCH   5   9
HETATM    9  C   UNL     1      13.790   6.613  11.269  1.00  0.00     0.038 C 
BRANCH   9  10
HETATM   10  C   UNL     1      14.188   8.043  11.651  1.00  0.00     0.005 C 
BRANCH  10  11
HETATM   11  C   UNL     1      13.195   8.703  12.617  1.00  0.00     0.011 C 
BRANCH  11  12
HETATM   12  C   UNL     1      12.376   9.806  11.947  1.00  0.00     0.113 C 
BRANCH  12  13
HETATM   13  C   UNL     1      10.913   9.454  11.790  1.00  0.00     0.172 C 
HETATM   14  O   UNL     1      10.309   9.295  12.996  1.00  0.00    -0.648 OA
HETATM   15  O   UNL     1      10.320   9.342  10.726  1.00  0.00    -0.648 OA
ENDBRANCH  12  13
ENDBRANCH  11  12
ENDBRANCH  10  11
ENDBRANCH   9  10
ENDBRANCH   5   9
BRANCH   8  16
HETATM   16  O   UNL     1       9.777   6.326   7.287  1.00  0.00    -0.358 OA
HETATM   17  H   UNL     1       8.951   5.933   7.490  1.00  0.00     0.217 HD
ENDBRANCH   8  16
ENDBRANCH   1   3
TORSDOF 7
ENDMDL
MODEL 9
REMARK VINA RESULT:      -5.9      1.290      2.140
REMARK  7 active torsions:
REMARK  status: ('A' for Active; 'I' for Inactive)
REMARK    1  A    between atoms: O_1  and  C_12 
REMARK    2  A    between atoms: O_3  and  C_15 
REMARK    3  A    between atoms: C_5  and  C_6 
REMARK    4  A    between atoms: C_5  and  C_7 
REMARK    5  A    between atoms: C_6  and  C_8 
REMARK    6  A    between atoms: C_7  and  C_9 
REMARK    7  A    between atoms: C_9  and  C_14 
ROOT
HETATM    1  O   UNL     1      10.240   8.559  14.294  1.00  0.00    -0.358 OA
HETATM    2  H   UNL     1       9.381   8.684  13.940  1.00  0.00     0.217 HD
ENDROOT
BRANCH   1   3
HETATM    3  C   UNL     1      11.223   8.017  13.522  1.00  0.00     0.099 A 
HETATM    4  C   UNL     1      11.156   8.150  12.135  1.00  0.00     0.046 A 
HETATM    5  C   UNL     1      12.155   7.599  11.332  1.00  0.00    -0.055 A 
HETATM    6  C   UNL     1      13.220   6.913  11.917  1.00  0.00     0.010 A 
HETATM    7  C   UNL     1      13.287   6.781  13.305  1.00  0.00     0.040 A 
HETATM    8  C   UNL     1      12.288   7.333  14.106  1.00  0.00     0.098 A 
BRANCH   5   9
HETATM    9  C   UNL     1      12.082   7.741   9.833  1.00  0.00     0.038 C 
BRANCH   9  10
HETATM   10  C   UNL     1      13.070   6.847   9.075  1.00  0.00     0.005 C 
BRANCH  10  11
HETATM   11  C   UNL     1      12.901   6.925   7.551  1.00  0.00     0.011 C 
BRANCH  11  12
HETATM   12  C   UNL     1      11.447   7.150   7.137  1.00  0.00     0.113 C 
BRANCH  12  13
HETATM   13  C   UNL     1      10.840   5.967   6.416  1.00  0.00     0.172 C 
HETATM   14  O   UNL     1      11.252   5.909   5.123  1.00  0.00    -0.648 OA
HETATM   15  O   UNL     1      10.088   5.141   6.914  1.00  0.00    -0.648 OA
ENDBRANCH  12  13
ENDBRANCH  11  12
ENDBRANCH  10  11
ENDBRANCH   9  10
ENDBRANCH   5   9
BRANCH   8  16
HETATM   16  O   UNL     1      12.363   7.197  15.460  1.00  0.00    -0.358 OA
HETATM   17  H   UNL     1      11.688   6.741  15.923  1.00  0.00     0.217 HD
ENDBRANCH   8  16
ENDBRANCH   1   3
TORSDOF 7
ENDMDL
