MODEL 1
REMARK VINA RESULT:      -6.7      0.000      0.000
REMARK  7 active torsions:
REMARK  status: ('A' for Active; 'I' for Inactive)
REMARK    1  A    between atoms: O_1  and  C_12 
REMARK    2  A    between atoms: O_3  and  C_15 
REMARK    3  A    between atoms: C_5  and  C_6 
REMARK    4  A    between atoms: C_5  and  C_7 
REMARK    5  A    between atoms: C_6  and  C_8 
REMARK    6  A    between atoms: C_7  and  C_9 
REMARK    7  A    between atoms: C_9  and  C_14 
ROOT
HETATM    1  O   UNL     1      13.210   5.345  16.268  1.00  0.00    -0.358 OA
HETATM    2  H   UNL     1      12.986   5.661  17.121  1.00  0.00     0.217 HD
ENDROOT
BRANCH   1   3
HETATM    3  C   UNL     1      12.900   6.085  15.166  1.00  0.00     0.099 A 
HETATM    4  C   UNL     1      13.594   5.865  13.976  1.00  0.00     0.046 A 
HETATM    5  C   UNL     1      13.287   6.617  12.841  1.00  0.00    -0.055 A 
HETATM    6  C   UNL     1      12.288   7.589  12.897  1.00  0.00     0.010 A 
HETATM    7  C   UNL     1      11.593   7.807  14.088  1.00  0.00     0.040 A 
HETATM    8  C   UNL     1      11.900   7.056  15.222  1.00  0.00     0.098 A 
BRANCH   5   9
HETATM    9  C   UNL     1      14.039   6.381  11.555  1.00  0.00     0.038 C 
BRANCH   9  10
HETATM   10  C   UNL     1      14.104   4.909  11.135  1.00  0.00     0.005 C 
BRANCH  10  11
HETATM   11  C   UNL     1      12.737   4.338  10.734  1.00  0.00     0.011 C 
BRANCH  11  12
HETATM   12  C   UNL     1      12.856   3.193   9.728  1.00  0.00     0.113 C 
BRANCH  12  13
HETATM   13  C   UNL     1      13.428   3.624   8.396  1.00  0.00     0.172 C 
HETATM   14  O   UNL     1      12.881   4.794   7.976  1.00  0.00    -0.648 OA
HETATM   15  O   UNL     1      14.288   3.025   7.765  1.00  0.00    -0.648 OA
ENDBRANCH  12  13
ENDBRANCH  11  12
ENDBRANCH  10  11
ENDBRANCH   9  10
ENDBRANCH   5   9
BRANCH   8  16
HETATM   16  O   UNL     1      11.216   7.279  16.379  1.00  0.00    -0.358 OA
HETATM   17  H   UNL     1      11.626   7.739  17.084  1.00  0.00     0.217 HD
ENDBRANCH   8  16
ENDBRANCH   1   3
TORSDOF 7
ENDMDL
MODEL 2
REMARK VINA RESULT:      -6.5      1.016      1.183
REMARK  7 active torsions:
REMARK  status: ('A' for Active; 'I' for Inactive)
REMARK    1  A    between atoms: O_1  and  C_12 
REMARK    2  A    between atoms: O_3  and  C_15 
REMARK    3  A    between atoms: C_5  and  C_6 
REMARK    4  A    between atoms: C_5  and  C_7 
REMARK    5  A    between atoms: C_6  and  C_8 
REMARK    6  A    between atoms: C_7  and  C_9 
REMARK    7  A    between atoms: C_9  and  C_14 
ROOT
HETATM    1  O   UNL     1      11.947   4.725  15.067  1.00  0.00    -0.358 OA
HETATM    2  H   UNL     1      11.511   4.726  15.897  1.00  0.00     0.217 HD
ENDROOT
BRANCH   1   3
HETATM    3  C   UNL     1      12.383   5.896  14.524  1.00  0.00     0.099 A 
HETATM    4  C   UNL     1      13.315   5.866  13.487  1.00  0.00     0.046 A 
HETATM    5  C   UNL     1      13.771   7.058  12.924  1.00  0.00    -0.055 A 
HETATM    6  C   UNL     1      13.295   8.281  13.399  1.00  0.00     0.010 A 
HETATM    7  C   UNL     1      12.362   8.310  14.437  1.00  0.00     0.040 A 
HETATM    8  C   UNL     1      11.907   7.118  14.999  1.00  0.00     0.098 A 
BRANCH   5   9
HETATM    9  C   UNL     1      14.779   7.026  11.803  1.00  0.00     0.038 C 
BRANCH   9  10
HETATM   10  C   UNL     1      15.392   5.642  11.559  1.00  0.00     0.005 C 
BRANCH  10  11
HETATM   11  C   UNL     1      15.185   5.141  10.123  1.00  0.00     0.011 C 
BRANCH  11  12
HETATM   12  C   UNL     1      13.880   4.360   9.961  1.00  0.00     0.113 C 
BRANCH  12  13
HETATM   13  C   UNL     1      13.587   3.976   8.528  1.00  0.00     0.172 C 
HETATM   14  O   UNL     1      12.686   4.822   7.962  1.00  0.00    -0.648 OA
HETATM   15  O   UNL     1      14.095   3.042   7.923  1.00  0.00    -0.648 OA
ENDBRANCH  12  13
ENDBRANCH  11  12
ENDBRANCH  10  11
ENDBRANCH   9  10
ENDBRANCH   5   9
BRANCH   8  16
HETATM   16  O   UNL     1      10.997   7.159  16.012  1.00  0.00    -0.358 OA
HETATM   17  H   UNL     1      10.766   6.373  16.467  1.00  0.00     0.217 HD
ENDBRANCH   8  16
ENDBRANCH   1   3
TORSDOF 7
ENDMDL
MODEL 3
REMARK VINA RESULT:      -6.4      2.711      6.666
REMARK  7 active torsions:
REMARK  status: ('A' for Active; 'I' for Inactive)
REMARK    1  A    between atoms: O_1  and  C_12 
REMARK    2  A    between atoms: O_3  and  C_15 
REMARK    3  A    between atoms: C_5  and  C_6 
REMARK    4  A    between atoms: C_5  and  C_7 
REMARK    5  A    between atoms: C_6  and  C_8 
REMARK    6  A    between atoms: C_7  and  C_9 
REMARK    7  A    between atoms: C_9  and  C_14 
ROOT
HETATM    1  O   UNL     1      16.284   5.210   9.625  1.00  0.00    -0.358 OA
HETATM    2  H   UNL     1      16.437   5.728   8.859  1.00  0.00     0.217 HD
ENDROOT
BRANCH   1   3
HETATM    3  C   UNL     1      15.018   5.070  10.112  1.00  0.00     0.099 A 
HETATM    4  C   UNL     1      14.655   5.744  11.278  1.00  0.00     0.046 A 
HETATM    5  C   UNL     1      13.363   5.608  11.787  1.00  0.00    -0.055 A 
HETATM    6  C   UNL     1      12.436   4.797  11.131  1.00  0.00     0.010 A 
HETATM    7  C   UNL     1      12.800   4.125   9.964  1.00  0.00     0.040 A 
HETATM    8  C   UNL     1      14.092   4.261   9.455  1.00  0.00     0.098 A 
BRANCH   5   9
HETATM    9  C   UNL     1      12.970   6.334  13.049  1.00  0.00     0.038 C 
BRANCH   9  10
HETATM   10  C   UNL     1      13.459   7.786  13.108  1.00  0.00     0.005 C 
BRANCH  10  11
HETATM   11  C   UNL     1      12.313   8.799  13.239  1.00  0.00     0.011 C 
BRANCH  11  12
HETATM   12  C   UNL     1      12.683   9.984  14.132  1.00  0.00     0.113 C 
BRANCH  12  13
HETATM   13  C   UNL     1      12.268  11.319  13.556  1.00  0.00     0.172 C 
HETATM   14  O   UNL     1      13.112  12.311  13.944  1.00  0.00    -0.648 OA
HETATM   15  O   UNL     1      11.313  11.508  12.815  1.00  0.00    -0.648 OA
ENDBRANCH  12  13
ENDBRANCH  11  12
ENDBRANCH  10  11
ENDBRANCH   9  10
ENDBRANCH   5   9
BRANCH   8  16
HETATM   16  O   UNL     1      14.436   3.599   8.316  1.00  0.00    -0.358 OA
HETATM   17  H   UNL     1      13.805   3.063   7.877  1.00  0.00     0.217 HD
ENDBRANCH   8  16
ENDBRANCH   1   3
TORSDOF 7
ENDMDL
MODEL 4
REMARK VINA RESULT:      -6.3      3.680      5.016
REMARK  7 active torsions:
REMARK  status: ('A' for Active; 'I' for Inactive)
REMARK    1  A    between atoms: O_1  and  C_12 
REMARK    2  A    between atoms: O_3  and  C_15 
REMARK    3  A    between atoms: C_5  and  C_6 
REMARK    4  A    between atoms: C_5  and  C_7 
REMARK    5  A    between atoms: C_6  and  C_8 
REMARK    6  A    between atoms: C_7  and  C_9 
REMARK    7  A    between atoms: C_9  and  C_14 
ROOT
HETATM    1  O   UNL     1      18.212   6.122   9.540  1.00  0.00    -0.358 OA
HETATM    2  H   UNL     1      17.756   5.750   8.811  1.00  0.00     0.217 HD
ENDROOT
BRANCH   1   3
HETATM    3  C   UNL     1      17.731   5.950  10.804  1.00  0.00     0.099 A 
HETATM    4  C   UNL     1      16.383   5.643  10.988  1.00  0.00     0.046 A 
HETATM    5  C   UNL     1      15.877   5.467  12.276  1.00  0.00    -0.055 A 
HETATM    6  C   UNL     1      16.719   5.600  13.380  1.00  0.00     0.010 A 
HETATM    7  C   UNL     1      18.068   5.906  13.195  1.00  0.00     0.040 A 
HETATM    8  C   UNL     1      18.573   6.082  11.907  1.00  0.00     0.098 A 
BRANCH   5   9
HETATM    9  C   UNL     1      14.419   5.136  12.475  1.00  0.00     0.038 C 
BRANCH   9  10
HETATM   10  C   UNL     1      13.491   5.763  11.428  1.00  0.00     0.005 C 
BRANCH  10  11
HETATM   11  C   UNL     1      12.504   4.755  10.823  1.00  0.00     0.011 C 
BRANCH  11  12
HETATM   12  C   UNL     1      13.206   3.674  10.000  1.00  0.00     0.113 C 
BRANCH  12  13
HETATM   13  C   UNL     1      13.305   4.012   8.529  1.00  0.00     0.172 C 
HETATM   14  O   UNL     1      13.931   3.025   7.835  1.00  0.00    -0.648 OA
HETATM   15  O   UNL     1      12.869   5.025   8.001  1.00  0.00    -0.648 OA
ENDBRANCH  12  13
ENDBRANCH  11  12
ENDBRANCH  10  11
ENDBRANCH   9  10
ENDBRANCH   5   9
BRANCH   8  16
HETATM   16  O   UNL     1      19.891   6.383  11.740  1.00  0.00    -0.358 OA
HETATM   17  H   UNL     1      20.439   6.519  12.488  1.00  0.00     0.217 HD
ENDBRANCH   8  16
ENDBRANCH   1   3
TORSDOF 7
ENDMDL
MODEL 5
REMARK VINA RESULT:      -6.2      2.109      5.421
REMARK  7 active torsions:
REMARK  status: ('A' for Active; 'I' for Inactive)
REMARK    1  A    between atoms: O_1  and  C_12 
REMARK    2  A    between atoms: O_3  and  C_15 
REMARK    3  A    between atoms: C_5  and  C_6 
REMARK    4  A    between atoms: C_5  and  C_7 
REMARK    5  A    between atoms: C_6  and  C_8 
REMARK    6  A    between atoms: C_7  and  C_9 
REMARK    7  A    between atoms: C_9  and  C_14 
ROOT
HETATM    1  O   UNL     1      11.507   3.694  12.030  1.00  0.00    -0.358 OA
HETATM    2  H   UNL     1      10.895   3.509  11.345  1.00  0.00     0.217 HD
ENDROOT
BRANCH   1   3
HETATM    3  C   UNL     1      12.725   4.228  11.730  1.00  0.00     0.099 A 
HETATM    4  C   UNL     1      13.564   4.643  12.764  1.00  0.00     0.046 A 
HETATM    5  C   UNL     1      14.812   5.193  12.470  1.00  0.00    -0.055 A 
HETATM    6  C   UNL     1      15.220   5.329  11.142  1.00  0.00     0.010 A 
HETATM    7  C   UNL     1      14.379   4.913  10.109  1.00  0.00     0.040 A 
HETATM    8  C   UNL     1      13.132   4.363  10.404  1.00  0.00     0.098 A 
BRANCH   5   9
HETATM    9  C   UNL     1      15.720   5.643  13.587  1.00  0.00     0.038 C 
BRANCH   9  10
HETATM   10  C   UNL     1      15.656   7.147  13.871  1.00  0.00     0.005 C 
BRANCH  10  11
HETATM   11  C   UNL     1      14.412   7.553  14.672  1.00  0.00     0.011 C 
BRANCH  11  12
HETATM   12  C   UNL     1      13.422   8.368  13.839  1.00  0.00     0.113 C 
BRANCH  12  13
HETATM   13  C   UNL     1      12.027   7.785  13.825  1.00  0.00     0.172 C 
HETATM   14  O   UNL     1      11.618   7.504  12.560  1.00  0.00    -0.648 OA
HETATM   15  O   UNL     1      11.340   7.563  14.813  1.00  0.00    -0.648 OA
ENDBRANCH  12  13
ENDBRANCH  11  12
ENDBRANCH  10  11
ENDBRANCH   9  10
ENDBRANCH   5   9
BRANCH   8  16
HETATM   16  O   UNL     1      12.319   3.961   9.386  1.00  0.00    -0.358 OA
HETATM   17  H   UNL     1      12.184   4.521   8.646  1.00  0.00     0.217 HD
ENDBRANCH   8  16
ENDBRANCH   1   3
TORSDOF 7
ENDMDL
MODEL 6
REMARK VINA RESULT:      -6.2      1.319      1.614
REMARK  7 active torsions:
REMARK  status: ('A' for Active; 'I' for Inactive)
REMARK    1  A    between atoms: O_1  and  C_12 
REMARK    2  A    between atoms: O_3  and  C_15 
REMARK    3  A    between atoms: C_5  and  C_6 
REMARK    4  A    between atoms: C_5  and  C_7 
REMARK    5  A    between atoms: C_6  and  C_8 
REMARK    6  A    between atoms: C_7  and  C_9 
REMARK    7  A    between atoms: C_9  and  C_14 
ROOT
HETATM    1  O   UNL     1      13.124   5.288  16.350  1.00  0.00    -0.358 OA
HETATM    2  H   UNL     1      12.755   4.431  16.261  1.00  0.00     0.217 HD
ENDROOT
BRANCH   1   3
HETATM    3  C   UNL     1      13.026   6.182  15.326  1.00  0.00     0.099 A 
HETATM    4  C   UNL     1      13.936   6.118  14.271  1.00  0.00     0.046 A 
HETATM    5  C   UNL     1      13.848   7.029  13.218  1.00  0.00    -0.055 A 
HETATM    6  C   UNL     1      12.851   8.004  13.221  1.00  0.00     0.010 A 
HETATM    7  C   UNL     1      11.940   8.067  14.277  1.00  0.00     0.040 A 
HETATM    8  C   UNL     1      12.029   7.156  15.329  1.00  0.00     0.098 A 
BRANCH   5   9
HETATM    9  C   UNL     1      14.833   6.960  12.078  1.00  0.00     0.038 C 
BRANCH   9  10
HETATM   10  C   UNL     1      15.419   5.564  11.846  1.00  0.00     0.005 C 
BRANCH  10  11
HETATM   11  C   UNL     1      15.334   5.113  10.382  1.00  0.00     0.011 C 
BRANCH  11  12
HETATM   12  C   UNL     1      13.957   5.375   9.771  1.00  0.00     0.113 C 
BRANCH  12  13
HETATM   13  C   UNL     1      12.924   4.340  10.158  1.00  0.00     0.172 C 
HETATM   14  O   UNL     1      12.021   4.844  11.039  1.00  0.00    -0.648 OA
HETATM   15  O   UNL     1      12.872   3.194   9.731  1.00  0.00    -0.648 OA
ENDBRANCH  12  13
ENDBRANCH  11  12
ENDBRANCH  10  11
ENDBRANCH   9  10
ENDBRANCH   5   9
BRANCH   8  16
HETATM   16  O   UNL     1      11.135   7.228  16.355  1.00  0.00    -0.358 OA
HETATM   17  H   UNL     1      11.416   7.511  17.203  1.00  0.00     0.217 HD
ENDBRANCH   8  16
ENDBRANCH   1   3
TORSDOF 7
ENDMDL
MODEL 7
REMARK VINA RESULT:      -6.2      1.060      1.742
REMARK  7 active torsions:
REMARK  status: ('A' for Active; 'I' for Inactive)
REMARK    1  A    between atoms: O_1  and  C_12 
REMARK    2  A    between atoms: O_3  and  C_15 
REMARK    3  A    between atoms: C_5  and  C_6 
REMARK    4  A    between atoms: C_5  and  C_7 
REMARK    5  A    between atoms: C_6  and  C_8 
REMARK    6  A    between atoms: C_7  and  C_9 
REMARK    7  A    between atoms: C_9  and  C_14 
ROOT
HETATM    1  O   UNL     1      12.616   8.971  14.439  1.00  0.00    -0.358 OA
HETATM    2  H   UNL     1      13.126   9.527  14.995  1.00  0.00     0.217 HD
ENDROOT
BRANCH   1   3
HETATM    3  C   UNL     1      12.897   7.639  14.366  1.00  0.00     0.099 A 
HETATM    4  C   UNL     1      13.775   7.178  13.385  1.00  0.00     0.046 A 
HETATM    5  C   UNL     1      14.070   5.817  13.297  1.00  0.00    -0.055 A 
HETATM    6  C   UNL     1      13.486   4.918  14.190  1.00  0.00     0.010 A 
HETATM    7  C   UNL     1      12.609   5.380  15.172  1.00  0.00     0.040 A 
HETATM    8  C   UNL     1      12.314   6.741  15.258  1.00  0.00     0.098 A 
BRANCH   5   9
HETATM    9  C   UNL     1      15.018   5.318  12.236  1.00  0.00     0.038 C 
BRANCH   9  10
HETATM   10  C   UNL     1      14.432   5.338  10.820  1.00  0.00     0.005 C 
BRANCH  10  11
HETATM   11  C   UNL     1      13.011   4.763  10.752  1.00  0.00     0.011 C 
BRANCH  11  12
HETATM   12  C   UNL     1      12.935   3.498   9.896  1.00  0.00     0.113 C 
BRANCH  12  13
HETATM   13  C   UNL     1      13.375   3.715   8.466  1.00  0.00     0.172 C 
HETATM   14  O   UNL     1      12.800   4.825   7.932  1.00  0.00    -0.648 OA
HETATM   15  O   UNL     1      14.162   3.010   7.850  1.00  0.00    -0.648 OA
ENDBRANCH  12  13
ENDBRANCH  11  12
ENDBRANCH  10  11
ENDBRANCH   9  10
ENDBRANCH   5   9
BRANCH   8  16
HETATM   16  O   UNL     1      11.455   7.180  16.220  1.00  0.00    -0.358 OA
HETATM   17  H   UNL     1      10.571   7.397  15.996  1.00  0.00     0.217 HD
ENDBRANCH   8  16
ENDBRANCH   1   3
TORSDOF 7
ENDMDL
MODEL 8
REMARK VINA RESULT:      -6.2      2.763      6.642
REMARK  7 active torsions:
REMARK  status: ('A' for Active; 'I' for Inactive)
REMARK    1  A    between atoms: O_1  and  C_12 
REMARK    2  A    between atoms: O_3  and  C_15 
REMARK    3  A    between atoms: C_5  and  C_6 
REMARK    4  A    between atoms: C_5  and  C_7 
REMARK    5  A    between atoms: C_6  and  C_8 
REMARK    6  A    between atoms: C_7  and  C_9 
REMARK    7  A    between atoms: C_9  and  C_14 
ROOT
HETATM    1  O   UNL     1      12.624   3.207   9.553  1.00  0.00    -0.358 OA
HETATM    2  H   UNL     1      13.208   2.681   9.042  1.00  0.00     0.217 HD
ENDROOT
BRANCH   1   3
HETATM    3  C   UNL     1      13.096   4.294  10.226  1.00  0.00     0.099 A 
HETATM    4  C   UNL     1      12.306   4.885  11.212  1.00  0.00     0.046 A 
HETATM    5  C   UNL     1      12.777   5.999  11.907  1.00  0.00    -0.055 A 
HETATM    6  C   UNL     1      14.037   6.523  11.614  1.00  0.00     0.010 A 
HETATM    7  C   UNL     1      14.826   5.930  10.628  1.00  0.00     0.040 A 
HETATM    8  C   UNL     1      14.355   4.816   9.934  1.00  0.00     0.098 A 
BRANCH   5   9
HETATM    9  C   UNL     1      11.923   6.640  12.972  1.00  0.00     0.038 C 
BRANCH   9  10
HETATM   10  C   UNL     1      12.627   7.763  13.741  1.00  0.00     0.005 C 
BRANCH  10  11
HETATM   11  C   UNL     1      12.274   9.161  13.217  1.00  0.00     0.011 C 
BRANCH  11  12
HETATM   12  C   UNL     1      12.639  10.265  14.209  1.00  0.00     0.113 C 
BRANCH  12  13
HETATM   13  C   UNL     1      12.425  11.658  13.660  1.00  0.00     0.172 C 
HETATM   14  O   UNL     1      11.366  11.699  12.810  1.00  0.00    -0.648 OA
HETATM   15  O   UNL     1      13.091  12.644  13.944  1.00  0.00    -0.648 OA
ENDBRANCH  12  13
ENDBRANCH  11  12
ENDBRANCH  10  11
ENDBRANCH   9  10
ENDBRANCH   5   9
BRANCH   8  16
HETATM   16  O   UNL     1      15.135   4.247   8.972  1.00  0.00    -0.358 OA
HETATM   17  H   UNL     1      15.572   4.787   8.344  1.00  0.00     0.217 HD
ENDBRANCH   8  16
ENDBRANCH   1   3
TORSDOF 7
ENDMDL
MODEL 9
REMARK VINA RESULT:      -6.2      3.746      5.590
REMARK  7 active torsions:
REMARK  status: ('A' for Active; 'I' for Inactive)
REMARK    1  A    between atoms: O_1  and  C_12 
REMARK    2  A    between atoms: O_3  and  C_15 
REMARK    3  A    between atoms: C_5  and  C_6 
REMARK    4  A    between atoms: C_5  and  C_7 
REMARK    5  A    between atoms: C_6  and  C_8 
REMARK    6  A    between atoms: C_7  and  C_9 
REMARK    7  A    between atoms: C_9  and  C_14 
ROOT
HETATM    1  O   UNL     1      11.416   4.193  11.843  1.00  0.00    -0.358 OA
HETATM    2  H   UNL     1      11.221   3.851  12.693  1.00  0.00     0.217 HD
ENDROOT
BRANCH   1   3
HETATM    3  C   UNL     1      12.699   4.521  11.519  1.00  0.00     0.099 A 
HETATM    4  C   UNL     1      13.590   4.880  12.530  1.00  0.00     0.046 A 
HETATM    5  C   UNL     1      14.905   5.220  12.211  1.00  0.00    -0.055 A 
HETATM    6  C   UNL     1      15.328   5.203  10.882  1.00  0.00     0.010 A 
HETATM    7  C   UNL     1      14.435   4.844   9.871  1.00  0.00     0.040 A 
HETATM    8  C   UNL     1      13.121   4.504  10.190  1.00  0.00     0.098 A 
BRANCH   5   9
HETATM    9  C   UNL     1      15.869   5.609  13.304  1.00  0.00     0.038 C 
BRANCH   9  10
HETATM   10  C   UNL     1      16.362   7.057  13.212  1.00  0.00     0.005 C 
BRANCH  10  11
HETATM   11  C   UNL     1      17.886   7.181  13.342  1.00  0.00     0.011 C 
BRANCH  11  12
HETATM   12  C   UNL     1      18.620   5.963  12.780  1.00  0.00     0.113 C 
BRANCH  12  13
HETATM   13  C   UNL     1      19.215   6.202  11.410  1.00  0.00     0.172 C 
HETATM   14  O   UNL     1      20.571   6.280  11.465  1.00  0.00    -0.648 OA
HETATM   15  O   UNL     1      18.583   6.298  10.367  1.00  0.00    -0.648 OA
ENDBRANCH  12  13
ENDBRANCH  11  12
ENDBRANCH  10  11
ENDBRANCH   9  10
ENDBRANCH   5   9
BRANCH   8  16
HETATM   16  O   UNL     1      12.258   4.155   9.194  1.00  0.00    -0.358 OA
HETATM   17  H   UNL     1      11.616   3.489   9.343  1.00  0.00     0.217 HD
ENDBRANCH   8  16
ENDBRANCH   1   3
TORSDOF 7
ENDMDL
