MODEL 1
REMARK VINA RESULT:      -7.1      0.000      0.000
REMARK  7 active torsions:
REMARK  status: ('A' for Active; 'I' for Inactive)
REMARK    1  A    between atoms: O_1  and  C_12 
REMARK    2  A    between atoms: O_3  and  C_15 
REMARK    3  A    between atoms: C_5  and  C_6 
REMARK    4  A    between atoms: C_5  and  C_7 
REMARK    5  A    between atoms: C_6  and  C_8 
REMARK    6  A    between atoms: C_7  and  C_9 
REMARK    7  A    between atoms: C_9  and  C_14 
ROOT
HETATM    1  O   UNL     1      10.998   4.860  11.107  1.00  0.00    -0.358 OA
HETATM    2  H   UNL     1      10.425   4.594  10.414  1.00  0.00     0.217 HD
ENDROOT
BRANCH   1   3
HETATM    3  C   UNL     1      12.245   5.328  10.818  1.00  0.00     0.099 A 
HETATM    4  C   UNL     1      13.126   5.617  11.860  1.00  0.00     0.046 A 
HETATM    5  C   UNL     1      14.405   6.099  11.579  1.00  0.00    -0.055 A 
HETATM    6  C   UNL     1      14.801   6.293  10.255  1.00  0.00     0.010 A 
HETATM    7  C   UNL     1      13.919   6.003   9.213  1.00  0.00     0.040 A 
HETATM    8  C   UNL     1      12.641   5.521   9.496  1.00  0.00     0.098 A 
BRANCH   5   9
HETATM    9  C   UNL     1      15.357   6.413  12.705  1.00  0.00     0.038 C 
BRANCH   9  10
HETATM   10  C   UNL     1      16.511   5.414  12.839  1.00  0.00     0.005 C 
BRANCH  10  11
HETATM   11  C   UNL     1      17.880   6.034  12.526  1.00  0.00     0.011 C 
BRANCH  11  12
HETATM   12  C   UNL     1      18.512   5.443  11.265  1.00  0.00     0.113 C 
BRANCH  12  13
HETATM   13  C   UNL     1      18.308   6.300  10.036  1.00  0.00     0.172 C 
HETATM   14  O   UNL     1      18.149   7.609  10.364  1.00  0.00    -0.648 OA
HETATM   15  O   UNL     1      18.303   5.897   8.881  1.00  0.00    -0.648 OA
ENDBRANCH  12  13
ENDBRANCH  11  12
ENDBRANCH  10  11
ENDBRANCH   9  10
ENDBRANCH   5   9
BRANCH   8  16
HETATM   16  O   UNL     1      11.788   5.242   8.470  1.00  0.00    -0.358 OA
HETATM   17  H   UNL     1      11.240   5.917   8.120  1.00  0.00     0.217 HD
ENDBRANCH   8  16
ENDBRANCH   1   3
TORSDOF 7
ENDMDL
MODEL 2
REMARK VINA RESULT:      -6.9      2.762      5.031
REMARK  7 active torsions:
REMARK  status: ('A' for Active; 'I' for Inactive)
REMARK    1  A    between atoms: O_1  and  C_12 
REMARK    2  A    between atoms: O_3  and  C_15 
REMARK    3  A    between atoms: C_5  and  C_6 
REMARK    4  A    between atoms: C_5  and  C_7 
REMARK    5  A    between atoms: C_6  and  C_8 
REMARK    6  A    between atoms: C_7  and  C_9 
REMARK    7  A    between atoms: C_9  and  C_14 
ROOT
HETATM    1  O   UNL     1      10.943   6.654  14.493  1.00  0.00    -0.358 OA
HETATM    2  H   UNL     1      10.478   6.031  13.969  1.00  0.00     0.217 HD
ENDROOT
BRANCH   1   3
HETATM    3  C   UNL     1      12.288   6.524  14.672  1.00  0.00     0.099 A 
HETATM    4  C   UNL     1      13.103   6.254  13.572  1.00  0.00     0.046 A 
HETATM    5  C   UNL     1      14.481   6.117  13.742  1.00  0.00    -0.055 A 
HETATM    6  C   UNL     1      15.044   6.248  15.012  1.00  0.00     0.010 A 
HETATM    7  C   UNL     1      14.228   6.519  16.112  1.00  0.00     0.040 A 
HETATM    8  C   UNL     1      12.851   6.656  15.941  1.00  0.00     0.098 A 
BRANCH   5   9
HETATM    9  C   UNL     1      15.362   5.824  12.554  1.00  0.00     0.038 C 
BRANCH   9  10
HETATM   10  C   UNL     1      15.185   6.808  11.392  1.00  0.00     0.005 C 
BRANCH  10  11
HETATM   11  C   UNL     1      14.850   6.114  10.065  1.00  0.00     0.011 C 
BRANCH  11  12
HETATM   12  C   UNL     1      13.343   5.984   9.839  1.00  0.00     0.113 C 
BRANCH  12  13
HETATM   13  C   UNL     1      12.984   5.540   8.439  1.00  0.00     0.172 C 
HETATM   14  O   UNL     1      13.422   6.428   7.509  1.00  0.00    -0.648 OA
HETATM   15  O   UNL     1      12.393   4.509   8.151  1.00  0.00    -0.648 OA
ENDBRANCH  12  13
ENDBRANCH  11  12
ENDBRANCH  10  11
ENDBRANCH   9  10
ENDBRANCH   5   9
BRANCH   8  16
HETATM   16  O   UNL     1      12.065   6.919  17.022  1.00  0.00    -0.358 OA
HETATM   17  H   UNL     1      11.156   7.114  16.904  1.00  0.00     0.217 HD
ENDBRANCH   8  16
ENDBRANCH   1   3
TORSDOF 7
ENDMDL
MODEL 3
REMARK VINA RESULT:      -6.9      1.426      5.364
REMARK  7 active torsions:
REMARK  status: ('A' for Active; 'I' for Inactive)
REMARK    1  A    between atoms: O_1  and  C_12 
REMARK    2  A    between atoms: O_3  and  C_15 
REMARK    3  A    between atoms: C_5  and  C_6 
REMARK    4  A    between atoms: C_5  and  C_7 
REMARK    5  A    between atoms: C_6  and  C_8 
REMARK    6  A    between atoms: C_7  and  C_9 
REMARK    7  A    between atoms: C_9  and  C_14 
ROOT
HETATM    1  O   UNL     1      17.991   5.930   9.306  1.00  0.00    -0.358 OA
HETATM    2  H   UNL     1      18.924   5.845   9.340  1.00  0.00     0.217 HD
ENDROOT
BRANCH   1   3
HETATM    3  C   UNL     1      17.259   5.862  10.454  1.00  0.00     0.099 A 
HETATM    4  C   UNL     1      15.912   6.222  10.429  1.00  0.00     0.046 A 
HETATM    5  C   UNL     1      15.152   6.160  11.597  1.00  0.00    -0.055 A 
HETATM    6  C   UNL     1      15.740   5.738  12.790  1.00  0.00     0.010 A 
HETATM    7  C   UNL     1      17.087   5.377  12.814  1.00  0.00     0.040 A 
HETATM    8  C   UNL     1      17.847   5.440  11.645  1.00  0.00     0.098 A 
BRANCH   5   9
HETATM    9  C   UNL     1      13.695   6.551  11.571  1.00  0.00     0.038 C 
BRANCH   9  10
HETATM   10  C   UNL     1      12.732   5.360  11.617  1.00  0.00     0.005 C 
BRANCH  10  11
HETATM   11  C   UNL     1      12.108   5.041  10.252  1.00  0.00     0.011 C 
BRANCH  11  12
HETATM   12  C   UNL     1      12.271   6.188   9.254  1.00  0.00     0.113 C 
BRANCH  12  13
HETATM   13  C   UNL     1      12.797   5.740   7.909  1.00  0.00     0.172 C 
HETATM   14  O   UNL     1      12.610   4.408   7.721  1.00  0.00    -0.648 OA
HETATM   15  O   UNL     1      13.310   6.467   7.069  1.00  0.00    -0.648 OA
ENDBRANCH  12  13
ENDBRANCH  11  12
ENDBRANCH  10  11
ENDBRANCH   9  10
ENDBRANCH   5   9
BRANCH   8  16
HETATM   16  O   UNL     1      19.162   5.086  11.681  1.00  0.00    -0.358 OA
HETATM   17  H   UNL     1      19.803   5.697  11.986  1.00  0.00     0.217 HD
ENDBRANCH   8  16
ENDBRANCH   1   3
TORSDOF 7
ENDMDL
MODEL 4
REMARK VINA RESULT:      -6.9      3.431      5.686
REMARK  7 active torsions:
REMARK  status: ('A' for Active; 'I' for Inactive)
REMARK    1  A    between atoms: O_1  and  C_12 
REMARK    2  A    between atoms: O_3  and  C_15 
REMARK    3  A    between atoms: C_5  and  C_6 
REMARK    4  A    between atoms: C_5  and  C_7 
REMARK    5  A    between atoms: C_6  and  C_8 
REMARK    6  A    between atoms: C_7  and  C_9 
REMARK    7  A    between atoms: C_9  and  C_14 
ROOT
HETATM    1  O   UNL     1      11.891   6.891  17.109  1.00  0.00    -0.358 OA
HETATM    2  H   UNL     1      12.315   6.886  17.945  1.00  0.00     0.217 HD
ENDROOT
BRANCH   1   3
HETATM    3  C   UNL     1      12.624   6.725  15.972  1.00  0.00     0.099 A 
HETATM    4  C   UNL     1      11.969   6.615  14.745  1.00  0.00     0.046 A 
HETATM    5  C   UNL     1      12.708   6.443  13.574  1.00  0.00    -0.055 A 
HETATM    6  C   UNL     1      14.100   6.379  13.631  1.00  0.00     0.010 A 
HETATM    7  C   UNL     1      14.754   6.489  14.859  1.00  0.00     0.040 A 
HETATM    8  C   UNL     1      14.015   6.661  16.029  1.00  0.00     0.098 A 
BRANCH   5   9
HETATM    9  C   UNL     1      12.001   6.323  12.247  1.00  0.00     0.038 C 
BRANCH   9  10
HETATM   10  C   UNL     1      12.664   5.341  11.276  1.00  0.00     0.005 C 
BRANCH  10  11
HETATM   11  C   UNL     1      13.289   6.033  10.057  1.00  0.00     0.011 C 
BRANCH  11  12
HETATM   12  C   UNL     1      12.274   6.273   8.939  1.00  0.00     0.113 C 
BRANCH  12  13
HETATM   13  C   UNL     1      12.709   5.708   7.605  1.00  0.00     0.172 C 
HETATM   14  O   UNL     1      12.617   4.353   7.586  1.00  0.00    -0.648 OA
HETATM   15  O   UNL     1      13.081   6.365   6.643  1.00  0.00    -0.648 OA
ENDBRANCH  12  13
ENDBRANCH  11  12
ENDBRANCH  10  11
ENDBRANCH   9  10
ENDBRANCH   5   9
BRANCH   8  16
HETATM   16  O   UNL     1      14.665   6.767  17.222  1.00  0.00    -0.358 OA
HETATM   17  H   UNL     1      14.745   6.018  17.779  1.00  0.00     0.217 HD
ENDBRANCH   8  16
ENDBRANCH   1   3
TORSDOF 7
ENDMDL
MODEL 5
REMARK VINA RESULT:      -6.6      0.935      1.764
REMARK  7 active torsions:
REMARK  status: ('A' for Active; 'I' for Inactive)
REMARK    1  A    between atoms: O_1  and  C_12 
REMARK    2  A    between atoms: O_3  and  C_15 
REMARK    3  A    between atoms: C_5  and  C_6 
REMARK    4  A    between atoms: C_5  and  C_7 
REMARK    5  A    between atoms: C_6  and  C_8 
REMARK    6  A    between atoms: C_7  and  C_9 
REMARK    7  A    between atoms: C_9  and  C_14 
ROOT
HETATM    1  O   UNL     1      14.231   5.994   8.623  1.00  0.00    -0.358 OA
HETATM    2  H   UNL     1      14.077   6.722   8.053  1.00  0.00     0.217 HD
ENDROOT
BRANCH   1   3
HETATM    3  C   UNL     1      13.846   6.058   9.929  1.00  0.00     0.099 A 
HETATM    4  C   UNL     1      14.818   6.107  10.928  1.00  0.00     0.046 A 
HETATM    5  C   UNL     1      14.437   6.171  12.269  1.00  0.00    -0.055 A 
HETATM    6  C   UNL     1      13.084   6.184  12.610  1.00  0.00     0.010 A 
HETATM    7  C   UNL     1      12.112   6.136  11.609  1.00  0.00     0.040 A 
HETATM    8  C   UNL     1      12.494   6.072  10.269  1.00  0.00     0.098 A 
BRANCH   5   9
HETATM    9  C   UNL     1      15.487   6.222  13.350  1.00  0.00     0.038 C 
BRANCH   9  10
HETATM   10  C   UNL     1      16.695   5.318  13.086  1.00  0.00     0.005 C 
BRANCH  10  11
HETATM   11  C   UNL     1      17.902   6.079  12.521  1.00  0.00     0.011 C 
BRANCH  11  12
HETATM   12  C   UNL     1      18.444   5.446  11.239  1.00  0.00     0.113 C 
BRANCH  12  13
HETATM   13  C   UNL     1      18.302   6.337  10.026  1.00  0.00     0.172 C 
HETATM   14  O   UNL     1      18.092   7.632  10.382  1.00  0.00    -0.648 OA
HETATM   15  O   UNL     1      18.384   5.971   8.861  1.00  0.00    -0.648 OA
ENDBRANCH  12  13
ENDBRANCH  11  12
ENDBRANCH  10  11
ENDBRANCH   9  10
ENDBRANCH   5   9
BRANCH   8  16
HETATM   16  O   UNL     1      11.536   6.024   9.301  1.00  0.00    -0.358 OA
HETATM   17  H   UNL     1      11.783   6.043   8.397  1.00  0.00     0.217 HD
ENDBRANCH   8  16
ENDBRANCH   1   3
TORSDOF 7
ENDMDL
MODEL 6
REMARK VINA RESULT:      -6.6      2.818      4.272
REMARK  7 active torsions:
REMARK  status: ('A' for Active; 'I' for Inactive)
REMARK    1  A    between atoms: O_1  and  C_12 
REMARK    2  A    between atoms: O_3  and  C_15 
REMARK    3  A    between atoms: C_5  and  C_6 
REMARK    4  A    between atoms: C_5  and  C_7 
REMARK    5  A    between atoms: C_6  and  C_8 
REMARK    6  A    between atoms: C_7  and  C_9 
REMARK    7  A    between atoms: C_9  and  C_14 
ROOT
HETATM    1  O   UNL     1      11.007   6.733  14.464  1.00  0.00    -0.358 OA
HETATM    2  H   UNL     1      10.569   6.087  13.945  1.00  0.00     0.217 HD
ENDROOT
BRANCH   1   3
HETATM    3  C   UNL     1      12.338   6.607  14.728  1.00  0.00     0.099 A 
HETATM    4  C   UNL     1      13.230   6.419  13.672  1.00  0.00     0.046 A 
HETATM    5  C   UNL     1      14.595   6.286  13.929  1.00  0.00    -0.055 A 
HETATM    6  C   UNL     1      15.067   6.341  15.241  1.00  0.00     0.010 A 
HETATM    7  C   UNL     1      14.174   6.531  16.296  1.00  0.00     0.040 A 
HETATM    8  C   UNL     1      12.809   6.663  16.038  1.00  0.00     0.098 A 
BRANCH   5   9
HETATM    9  C   UNL     1      15.560   6.081  12.788  1.00  0.00     0.038 C 
BRANCH   9  10
HETATM   10  C   UNL     1      14.884   5.933  11.421  1.00  0.00     0.005 C 
BRANCH  10  11
HETATM   11  C   UNL     1      15.835   6.208  10.248  1.00  0.00     0.011 C 
BRANCH  11  12
HETATM   12  C   UNL     1      16.521   7.569  10.362  1.00  0.00     0.113 C 
BRANCH  12  13
HETATM   13  C   UNL     1      17.960   7.555   9.897  1.00  0.00     0.172 C 
HETATM   14  O   UNL     1      18.277   6.377   9.300  1.00  0.00    -0.648 OA
HETATM   15  O   UNL     1      18.754   8.479  10.012  1.00  0.00    -0.648 OA
ENDBRANCH  12  13
ENDBRANCH  11  12
ENDBRANCH  10  11
ENDBRANCH   9  10
ENDBRANCH   5   9
BRANCH   8  16
HETATM   16  O   UNL     1      11.947   6.846  17.077  1.00  0.00    -0.358 OA
HETATM   17  H   UNL     1      11.111   7.243  16.927  1.00  0.00     0.217 HD
ENDBRANCH   8  16
ENDBRANCH   1   3
TORSDOF 7
ENDMDL
MODEL 7
REMARK VINA RESULT:      -6.6      2.030      2.925
REMARK  7 active torsions:
REMARK  status: ('A' for Active; 'I' for Inactive)
REMARK    1  A    between atoms: O_1  and  C_12 
REMARK    2  A    between atoms: O_3  and  C_15 
REMARK    3  A    between atoms: C_5  and  C_6 
REMARK    4  A    between atoms: C_5  and  C_7 
REMARK    5  A    between atoms: C_6  and  C_8 
REMARK    6  A    between atoms: C_7  and  C_9 
REMARK    7  A    between atoms: C_9  and  C_14 
ROOT
HETATM    1  O   UNL     1      11.883   5.471   8.601  1.00  0.00    -0.358 OA
HETATM    2  H   UNL     1      12.110   5.870   7.784  1.00  0.00     0.217 HD
ENDROOT
BRANCH   1   3
HETATM    3  C   UNL     1      12.678   5.652   9.693  1.00  0.00     0.099 A 
HETATM    4  C   UNL     1      13.964   6.166   9.525  1.00  0.00     0.046 A 
HETATM    5  C   UNL     1      14.789   6.355  10.635  1.00  0.00    -0.055 A 
HETATM    6  C   UNL     1      14.328   6.029  11.910  1.00  0.00     0.010 A 
HETATM    7  C   UNL     1      13.041   5.516  12.077  1.00  0.00     0.040 A 
HETATM    8  C   UNL     1      12.217   5.327  10.967  1.00  0.00     0.098 A 
BRANCH   5   9
HETATM    9  C   UNL     1      16.180   6.910  10.454  1.00  0.00     0.038 C 
BRANCH   9  10
HETATM   10  C   UNL     1      17.290   5.865  10.612  1.00  0.00     0.005 C 
BRANCH  10  11
HETATM   11  C   UNL     1      18.167   6.106  11.849  1.00  0.00     0.011 C 
BRANCH  11  12
HETATM   12  C   UNL     1      17.841   5.142  12.990  1.00  0.00     0.113 C 
BRANCH  12  13
HETATM   13  C   UNL     1      19.035   4.340  13.456  1.00  0.00     0.172 C 
HETATM   14  O   UNL     1      19.861   4.033  12.422  1.00  0.00    -0.648 OA
HETATM   15  O   UNL     1      19.265   4.013  14.613  1.00  0.00    -0.648 OA
ENDBRANCH  12  13
ENDBRANCH  11  12
ENDBRANCH  10  11
ENDBRANCH   9  10
ENDBRANCH   5   9
BRANCH   8  16
HETATM   16  O   UNL     1      10.963   4.824  11.143  1.00  0.00    -0.358 OA
HETATM   17  H   UNL     1      10.352   5.272  11.695  1.00  0.00     0.217 HD
ENDBRANCH   8  16
ENDBRANCH   1   3
TORSDOF 7
ENDMDL
MODEL 8
REMARK VINA RESULT:      -6.6      2.112      5.614
REMARK  7 active torsions:
REMARK  status: ('A' for Active; 'I' for Inactive)
REMARK    1  A    between atoms: O_1  and  C_12 
REMARK    2  A    between atoms: O_3  and  C_15 
REMARK    3  A    between atoms: C_5  and  C_6 
REMARK    4  A    between atoms: C_5  and  C_7 
REMARK    5  A    between atoms: C_6  and  C_8 
REMARK    6  A    between atoms: C_7  and  C_9 
REMARK    7  A    between atoms: C_9  and  C_14 
ROOT
HETATM    1  O   UNL     1      16.754   5.009  14.675  1.00  0.00    -0.358 OA
HETATM    2  H   UNL     1      16.733   5.701  15.306  1.00  0.00     0.217 HD
ENDROOT
BRANCH   1   3
HETATM    3  C   UNL     1      16.892   5.299  13.350  1.00  0.00     0.099 A 
HETATM    4  C   UNL     1      15.772   5.684  12.613  1.00  0.00     0.046 A 
HETATM    5  C   UNL     1      15.899   5.982  11.256  1.00  0.00    -0.055 A 
HETATM    6  C   UNL     1      17.146   5.893  10.636  1.00  0.00     0.010 A 
HETATM    7  C   UNL     1      18.266   5.509  11.375  1.00  0.00     0.040 A 
HETATM    8  C   UNL     1      18.138   5.212  12.731  1.00  0.00     0.098 A 
BRANCH   5   9
HETATM    9  C   UNL     1      14.688   6.396  10.458  1.00  0.00     0.038 C 
BRANCH   9  10
HETATM   10  C   UNL     1      13.356   5.983  11.093  1.00  0.00     0.005 C 
BRANCH  10  11
HETATM   11  C   UNL     1      12.332   5.485  10.064  1.00  0.00     0.011 C 
BRANCH  11  12
HETATM   12  C   UNL     1      12.227   6.410   8.851  1.00  0.00     0.113 C 
BRANCH  12  13
HETATM   13  C   UNL     1      12.296   5.675   7.531  1.00  0.00     0.172 C 
HETATM   14  O   UNL     1      12.606   4.364   7.707  1.00  0.00    -0.648 OA
HETATM   15  O   UNL     1      12.083   6.168   6.431  1.00  0.00    -0.648 OA
ENDBRANCH  12  13
ENDBRANCH  11  12
ENDBRANCH  10  11
ENDBRANCH   9  10
ENDBRANCH   5   9
BRANCH   8  16
HETATM   16  O   UNL     1      19.239   4.837  13.442  1.00  0.00    -0.358 OA
HETATM   17  H   UNL     1      20.003   4.529  12.994  1.00  0.00     0.217 HD
ENDBRANCH   8  16
ENDBRANCH   1   3
TORSDOF 7
ENDMDL
MODEL 9
REMARK VINA RESULT:      -6.5      1.333      5.122
REMARK  7 active torsions:
REMARK  status: ('A' for Active; 'I' for Inactive)
REMARK    1  A    between atoms: O_1  and  C_12 
REMARK    2  A    between atoms: O_3  and  C_15 
REMARK    3  A    between atoms: C_5  and  C_6 
REMARK    4  A    between atoms: C_5  and  C_7 
REMARK    5  A    between atoms: C_6  and  C_8 
REMARK    6  A    between atoms: C_7  and  C_9 
REMARK    7  A    between atoms: C_9  and  C_14 
ROOT
HETATM    1  O   UNL     1      19.134   5.126  10.997  1.00  0.00    -0.358 OA
HETATM    2  H   UNL     1      19.607   5.024  10.195  1.00  0.00     0.217 HD
ENDROOT
BRANCH   1   3
HETATM    3  C   UNL     1      17.972   5.839  11.017  1.00  0.00     0.099 A 
HETATM    4  C   UNL     1      16.950   5.458  11.886  1.00  0.00     0.046 A 
HETATM    5  C   UNL     1      15.755   6.178  11.915  1.00  0.00    -0.055 A 
HETATM    6  C   UNL     1      15.582   7.278  11.073  1.00  0.00     0.010 A 
HETATM    7  C   UNL     1      16.606   7.658  10.205  1.00  0.00     0.040 A 
HETATM    8  C   UNL     1      17.800   6.938  10.177  1.00  0.00     0.098 A 
BRANCH   5   9
HETATM    9  C   UNL     1      14.648   5.766  12.853  1.00  0.00     0.038 C 
BRANCH   9  10
HETATM   10  C   UNL     1      13.259   6.255  12.429  1.00  0.00     0.005 C 
BRANCH  10  11
HETATM   11  C   UNL     1      12.587   5.333  11.403  1.00  0.00     0.011 C 
BRANCH  11  12
HETATM   12  C   UNL     1      12.207   6.070  10.118  1.00  0.00     0.113 C 
BRANCH  12  13
HETATM   13  C   UNL     1      12.727   5.399   8.867  1.00  0.00     0.172 C 
HETATM   14  O   UNL     1      13.823   6.037   8.380  1.00  0.00    -0.648 OA
HETATM   15  O   UNL     1      12.254   4.397   8.349  1.00  0.00    -0.648 OA
ENDBRANCH  12  13
ENDBRANCH  11  12
ENDBRANCH  10  11
ENDBRANCH   9  10
ENDBRANCH   5   9
BRANCH   8  16
HETATM   16  O   UNL     1      18.792   7.319   9.324  1.00  0.00    -0.358 OA
HETATM   17  H   UNL     1      18.580   7.609   8.459  1.00  0.00     0.217 HD
ENDBRANCH   8  16
ENDBRANCH   1   3
TORSDOF 7
ENDMDL
