MODEL 1
REMARK VINA RESULT:      -6.9      0.000      0.000
REMARK  7 active torsions:
REMARK  status: ('A' for Active; 'I' for Inactive)
REMARK    1  A    between atoms: O_1  and  C_12 
REMARK    2  A    between atoms: O_3  and  C_15 
REMARK    3  A    between atoms: C_5  and  C_6 
REMARK    4  A    between atoms: C_5  and  C_7 
REMARK    5  A    between atoms: C_6  and  C_8 
REMARK    6  A    between atoms: C_7  and  C_9 
REMARK    7  A    between atoms: C_9  and  C_14 
ROOT
HETATM    1  O   UNL     1      21.562  -0.495  31.810  1.00  0.00    -0.358 OA
HETATM    2  H   UNL     1      21.350   0.203  32.398  1.00  0.00     0.217 HD
ENDROOT
BRANCH   1   3
HETATM    3  C   UNL     1      21.665  -1.772  32.276  1.00  0.00     0.099 A 
HETATM    4  C   UNL     1      21.404  -2.838  31.416  1.00  0.00     0.046 A 
HETATM    5  C   UNL     1      21.504  -4.150  31.881  1.00  0.00    -0.055 A 
HETATM    6  C   UNL     1      21.862  -4.394  33.207  1.00  0.00     0.010 A 
HETATM    7  C   UNL     1      22.124  -3.326  34.067  1.00  0.00     0.040 A 
HETATM    8  C   UNL     1      22.024  -2.016  33.601  1.00  0.00     0.098 A 
BRANCH   5   9
HETATM    9  C   UNL     1      21.221  -5.303  30.952  1.00  0.00     0.038 C 
BRANCH   9  10
HETATM   10  C   UNL     1      22.460  -6.129  30.591  1.00  0.00     0.005 C 
BRANCH  10  11
HETATM   11  C   UNL     1      22.488  -7.500  31.279  1.00  0.00     0.011 C 
BRANCH  11  12
HETATM   12  C   UNL     1      23.555  -7.583  32.371  1.00  0.00     0.113 C 
BRANCH  12  13
HETATM   13  C   UNL     1      22.980  -7.616  33.769  1.00  0.00     0.172 C 
HETATM   14  O   UNL     1      21.647  -7.882  33.751  1.00  0.00    -0.648 OA
HETATM   15  O   UNL     1      23.613  -7.450  34.802  1.00  0.00    -0.648 OA
ENDBRANCH  12  13
ENDBRANCH  11  12
ENDBRANCH  10  11
ENDBRANCH   9  10
ENDBRANCH   5   9
BRANCH   8  16
HETATM   16  O   UNL     1      22.281  -0.981  34.450  1.00  0.00    -0.358 OA
HETATM   17  H   UNL     1      21.935  -0.129  34.268  1.00  0.00     0.217 HD
ENDBRANCH   8  16
ENDBRANCH   1   3
TORSDOF 7
ENDMDL
MODEL 2
REMARK VINA RESULT:      -6.9      1.552      5.712
REMARK  7 active torsions:
REMARK  status: ('A' for Active; 'I' for Inactive)
REMARK    1  A    between atoms: O_1  and  C_12 
REMARK    2  A    between atoms: O_3  and  C_15 
REMARK    3  A    between atoms: C_5  and  C_6 
REMARK    4  A    between atoms: C_5  and  C_7 
REMARK    5  A    between atoms: C_6  and  C_8 
REMARK    6  A    between atoms: C_7  and  C_9 
REMARK    7  A    between atoms: C_9  and  C_14 
ROOT
HETATM    1  O   UNL     1      24.176  -8.193  33.601  1.00  0.00    -0.358 OA
HETATM    2  H   UNL     1      24.068  -9.117  33.492  1.00  0.00     0.217 HD
ENDROOT
BRANCH   1   3
HETATM    3  C   UNL     1      23.526  -7.329  32.771  1.00  0.00     0.099 A 
HETATM    4  C   UNL     1      22.884  -6.214  33.310  1.00  0.00     0.046 A 
HETATM    5  C   UNL     1      22.214  -5.323  32.471  1.00  0.00    -0.055 A 
HETATM    6  C   UNL     1      22.183  -5.548  31.095  1.00  0.00     0.010 A 
HETATM    7  C   UNL     1      22.826  -6.663  30.557  1.00  0.00     0.040 A 
HETATM    8  C   UNL     1      23.496  -7.554  31.395  1.00  0.00     0.098 A 
BRANCH   5   9
HETATM    9  C   UNL     1      21.519  -4.117  33.054  1.00  0.00     0.038 C 
BRANCH   9  10
HETATM   10  C   UNL     1      21.487  -2.905  32.116  1.00  0.00     0.005 C 
BRANCH  10  11
HETATM   11  C   UNL     1      21.739  -1.578  32.845  1.00  0.00     0.011 C 
BRANCH  11  12
HETATM   12  C   UNL     1      21.377  -1.650  34.328  1.00  0.00     0.113 C 
BRANCH  12  13
HETATM   13  C   UNL     1      22.575  -1.529  35.243  1.00  0.00     0.172 C 
HETATM   14  O   UNL     1      22.328  -2.080  36.460  1.00  0.00    -0.648 OA
HETATM   15  O   UNL     1      23.649  -1.025  34.946  1.00  0.00    -0.648 OA
ENDBRANCH  12  13
ENDBRANCH  11  12
ENDBRANCH  10  11
ENDBRANCH   9  10
ENDBRANCH   5   9
BRANCH   8  16
HETATM   16  O   UNL     1      24.119  -8.640  30.858  1.00  0.00    -0.358 OA
HETATM   17  H   UNL     1      23.936  -8.896  29.976  1.00  0.00     0.217 HD
ENDBRANCH   8  16
ENDBRANCH   1   3
TORSDOF 7
ENDMDL
MODEL 3
REMARK VINA RESULT:      -6.8      1.775      5.339
REMARK  7 active torsions:
REMARK  status: ('A' for Active; 'I' for Inactive)
REMARK    1  A    between atoms: O_1  and  C_12 
REMARK    2  A    between atoms: O_3  and  C_15 
REMARK    3  A    between atoms: C_5  and  C_6 
REMARK    4  A    between atoms: C_5  and  C_7 
REMARK    5  A    between atoms: C_6  and  C_8 
REMARK    6  A    between atoms: C_7  and  C_9 
REMARK    7  A    between atoms: C_9  and  C_14 
ROOT
HETATM    1  O   UNL     1      23.357  -6.461  34.122  1.00  0.00    -0.358 OA
HETATM    2  H   UNL     1      22.856  -6.355  34.907  1.00  0.00     0.217 HD
ENDROOT
BRANCH   1   3
HETATM    3  C   UNL     1      22.851  -6.044  32.928  1.00  0.00     0.099 A 
HETATM    4  C   UNL     1      22.148  -4.841  32.865  1.00  0.00     0.046 A 
HETATM    5  C   UNL     1      21.622  -4.403  31.649  1.00  0.00    -0.055 A 
HETATM    6  C   UNL     1      21.799  -5.170  30.496  1.00  0.00     0.010 A 
HETATM    7  C   UNL     1      22.503  -6.373  30.560  1.00  0.00     0.040 A 
HETATM    8  C   UNL     1      23.028  -6.810  31.777  1.00  0.00     0.098 A 
BRANCH   5   9
HETATM    9  C   UNL     1      20.861  -3.103  31.581  1.00  0.00     0.038 C 
BRANCH   9  10
HETATM   10  C   UNL     1      21.638  -1.899  32.124  1.00  0.00     0.005 C 
BRANCH  10  11
HETATM   11  C   UNL     1      21.304  -1.582  33.588  1.00  0.00     0.011 C 
BRANCH  11  12
HETATM   12  C   UNL     1      22.556  -1.452  34.457  1.00  0.00     0.113 C 
BRANCH  12  13
HETATM   13  C   UNL     1      22.291  -1.686  35.927  1.00  0.00     0.172 C 
HETATM   14  O   UNL     1      22.433  -0.541  36.645  1.00  0.00    -0.648 OA
HETATM   15  O   UNL     1      21.969  -2.753  36.431  1.00  0.00    -0.648 OA
ENDBRANCH  12  13
ENDBRANCH  11  12
ENDBRANCH  10  11
ENDBRANCH   9  10
ENDBRANCH   5   9
BRANCH   8  16
HETATM   16  O   UNL     1      23.713  -7.987  31.826  1.00  0.00    -0.358 OA
HETATM   17  H   UNL     1      23.281  -8.789  31.606  1.00  0.00     0.217 HD
ENDBRANCH   8  16
ENDBRANCH   1   3
TORSDOF 7
ENDMDL
MODEL 4
REMARK VINA RESULT:      -6.8      1.498      5.227
REMARK  7 active torsions:
REMARK  status: ('A' for Active; 'I' for Inactive)
REMARK    1  A    between atoms: O_1  and  C_12 
REMARK    2  A    between atoms: O_3  and  C_15 
REMARK    3  A    between atoms: C_5  and  C_6 
REMARK    4  A    between atoms: C_5  and  C_7 
REMARK    5  A    between atoms: C_6  and  C_8 
REMARK    6  A    between atoms: C_7  and  C_9 
REMARK    7  A    between atoms: C_9  and  C_14 
ROOT
HETATM    1  O   UNL     1      24.266  -8.334  33.568  1.00  0.00    -0.358 OA
HETATM    2  H   UNL     1      24.682  -8.374  34.406  1.00  0.00     0.217 HD
ENDROOT
BRANCH   1   3
HETATM    3  C   UNL     1      23.154  -7.565  33.395  1.00  0.00     0.099 A 
HETATM    4  C   UNL     1      23.119  -6.636  32.355  1.00  0.00     0.046 A 
HETATM    5  C   UNL     1      21.987  -5.841  32.169  1.00  0.00    -0.055 A 
HETATM    6  C   UNL     1      20.892  -5.975  33.023  1.00  0.00     0.010 A 
HETATM    7  C   UNL     1      20.929  -6.905  34.063  1.00  0.00     0.040 A 
HETATM    8  C   UNL     1      22.060  -7.699  34.249  1.00  0.00     0.098 A 
BRANCH   5   9
HETATM    9  C   UNL     1      21.948  -4.836  31.045  1.00  0.00     0.038 C 
BRANCH   9  10
HETATM   10  C   UNL     1      20.964  -3.684  31.275  1.00  0.00     0.005 C 
BRANCH  10  11
HETATM   11  C   UNL     1      21.639  -2.421  31.827  1.00  0.00     0.011 C 
BRANCH  11  12
HETATM   12  C   UNL     1      21.001  -1.942  33.131  1.00  0.00     0.113 C 
BRANCH  12  13
HETATM   13  C   UNL     1      21.835  -2.249  34.354  1.00  0.00     0.172 C 
HETATM   14  O   UNL     1      21.647  -1.322  35.329  1.00  0.00    -0.648 OA
HETATM   15  O   UNL     1      22.577  -3.213  34.485  1.00  0.00    -0.648 OA
ENDBRANCH  12  13
ENDBRANCH  11  12
ENDBRANCH  10  11
ENDBRANCH   9  10
ENDBRANCH   5   9
BRANCH   8  16
HETATM   16  O   UNL     1      22.085  -8.603  35.268  1.00  0.00    -0.358 OA
HETATM   17  H   UNL     1      21.964  -9.515  35.088  1.00  0.00     0.217 HD
ENDBRANCH   8  16
ENDBRANCH   1   3
TORSDOF 7
ENDMDL
MODEL 5
REMARK VINA RESULT:      -6.6      4.079      6.117
REMARK  7 active torsions:
REMARK  status: ('A' for Active; 'I' for Inactive)
REMARK    1  A    between atoms: O_1  and  C_12 
REMARK    2  A    between atoms: O_3  and  C_15 
REMARK    3  A    between atoms: C_5  and  C_6 
REMARK    4  A    between atoms: C_5  and  C_7 
REMARK    5  A    between atoms: C_6  and  C_8 
REMARK    6  A    between atoms: C_7  and  C_9 
REMARK    7  A    between atoms: C_9  and  C_14 
ROOT
HETATM    1  O   UNL     1      17.872  -2.318  25.675  1.00  0.00    -0.358 OA
HETATM    2  H   UNL     1      17.722  -1.679  25.006  1.00  0.00     0.217 HD
ENDROOT
BRANCH   1   3
HETATM    3  C   UNL     1      18.984  -2.237  26.458  1.00  0.00     0.099 A 
HETATM    4  C   UNL     1      18.963  -2.795  27.736  1.00  0.00     0.046 A 
HETATM    5  C   UNL     1      20.094  -2.716  28.550  1.00  0.00    -0.055 A 
HETATM    6  C   UNL     1      21.245  -2.079  28.085  1.00  0.00     0.010 A 
HETATM    7  C   UNL     1      21.265  -1.522  26.805  1.00  0.00     0.040 A 
HETATM    8  C   UNL     1      20.133  -1.600  25.993  1.00  0.00     0.098 A 
BRANCH   5   9
HETATM    9  C   UNL     1      20.072  -3.318  29.932  1.00  0.00     0.038 C 
BRANCH   9  10
HETATM   10  C   UNL     1      20.146  -2.284  31.061  1.00  0.00     0.005 C 
BRANCH  10  11
HETATM   11  C   UNL     1      21.357  -2.489  31.982  1.00  0.00     0.011 C 
BRANCH  11  12
HETATM   12  C   UNL     1      21.192  -1.781  33.328  1.00  0.00     0.113 C 
BRANCH  12  13
HETATM   13  C   UNL     1      22.251  -2.161  34.338  1.00  0.00     0.172 C 
HETATM   14  O   UNL     1      22.399  -3.509  34.419  1.00  0.00    -0.648 OA
HETATM   15  O   UNL     1      22.919  -1.375  34.996  1.00  0.00    -0.648 OA
ENDBRANCH  12  13
ENDBRANCH  11  12
ENDBRANCH  10  11
ENDBRANCH   9  10
ENDBRANCH   5   9
BRANCH   8  16
HETATM   16  O   UNL     1      20.165  -1.052  24.746  1.00  0.00    -0.358 OA
HETATM   17  H   UNL     1      20.705  -1.431  24.081  1.00  0.00     0.217 HD
ENDBRANCH   8  16
ENDBRANCH   1   3
TORSDOF 7
ENDMDL
MODEL 6
REMARK VINA RESULT:      -6.6      1.595      5.183
REMARK  7 active torsions:
REMARK  status: ('A' for Active; 'I' for Inactive)
REMARK    1  A    between atoms: O_1  and  C_12 
REMARK    2  A    between atoms: O_3  and  C_15 
REMARK    3  A    between atoms: C_5  and  C_6 
REMARK    4  A    between atoms: C_5  and  C_7 
REMARK    5  A    between atoms: C_6  and  C_8 
REMARK    6  A    between atoms: C_7  and  C_9 
REMARK    7  A    between atoms: C_9  and  C_14 
ROOT
HETATM    1  O   UNL     1      23.264  -7.596  30.290  1.00  0.00    -0.358 OA
HETATM    2  H   UNL     1      23.823  -7.360  29.576  1.00  0.00     0.217 HD
ENDROOT
BRANCH   1   3
HETATM    3  C   UNL     1      22.843  -6.643  31.169  1.00  0.00     0.099 A 
HETATM    4  C   UNL     1      22.253  -5.477  30.683  1.00  0.00     0.046 A 
HETATM    5  C   UNL     1      21.819  -4.492  31.572  1.00  0.00    -0.055 A 
HETATM    6  C   UNL     1      21.978  -4.675  32.946  1.00  0.00     0.010 A 
HETATM    7  C   UNL     1      22.568  -5.843  33.431  1.00  0.00     0.040 A 
HETATM    8  C   UNL     1      23.001  -6.826  32.542  1.00  0.00     0.098 A 
BRANCH   5   9
HETATM    9  C   UNL     1      21.182  -3.230  31.047  1.00  0.00     0.038 C 
BRANCH   9  10
HETATM   10  C   UNL     1      20.595  -2.330  32.140  1.00  0.00     0.005 C 
BRANCH  10  11
HETATM   11  C   UNL     1      21.665  -1.536  32.901  1.00  0.00     0.011 C 
BRANCH  11  12
HETATM   12  C   UNL     1      21.351  -1.414  34.392  1.00  0.00     0.113 C 
BRANCH  12  13
HETATM   13  C   UNL     1      22.566  -1.585  35.276  1.00  0.00     0.172 C 
HETATM   14  O   UNL     1      22.252  -2.223  36.434  1.00  0.00    -0.648 OA
HETATM   15  O   UNL     1      23.702  -1.224  35.001  1.00  0.00    -0.648 OA
ENDBRANCH  12  13
ENDBRANCH  11  12
ENDBRANCH  10  11
ENDBRANCH   9  10
ENDBRANCH   5   9
BRANCH   8  16
HETATM   16  O   UNL     1      23.577  -7.962  33.027  1.00  0.00    -0.358 OA
HETATM   17  H   UNL     1      23.763  -8.676  32.450  1.00  0.00     0.217 HD
ENDBRANCH   8  16
ENDBRANCH   1   3
TORSDOF 7
ENDMDL
MODEL 7
REMARK VINA RESULT:      -6.5      3.403      5.906
REMARK  7 active torsions:
REMARK  status: ('A' for Active; 'I' for Inactive)
REMARK    1  A    between atoms: O_1  and  C_12 
REMARK    2  A    between atoms: O_3  and  C_15 
REMARK    3  A    between atoms: C_5  and  C_6 
REMARK    4  A    between atoms: C_5  and  C_7 
REMARK    5  A    between atoms: C_6  and  C_8 
REMARK    6  A    between atoms: C_7  and  C_9 
REMARK    7  A    between atoms: C_9  and  C_14 
ROOT
HETATM    1  O   UNL     1      22.421  -5.163  33.945  1.00  0.00    -0.358 OA
HETATM    2  H   UNL     1      23.051  -5.155  34.639  1.00  0.00     0.217 HD
ENDROOT
BRANCH   1   3
HETATM    3  C   UNL     1      22.061  -3.998  33.337  1.00  0.00     0.099 A 
HETATM    4  C   UNL     1      21.669  -4.017  31.999  1.00  0.00     0.046 A 
HETATM    5  C   UNL     1      21.300  -2.830  31.364  1.00  0.00    -0.055 A 
HETATM    6  C   UNL     1      21.325  -1.626  32.067  1.00  0.00     0.010 A 
HETATM    7  C   UNL     1      21.717  -1.608  33.406  1.00  0.00     0.040 A 
HETATM    8  C   UNL     1      22.085  -2.795  34.040  1.00  0.00     0.098 A 
BRANCH   5   9
HETATM    9  C   UNL     1      20.877  -2.850  29.916  1.00  0.00     0.038 C 
BRANCH   9  10
HETATM   10  C   UNL     1      19.359  -2.905  29.713  1.00  0.00     0.005 C 
BRANCH  10  11
HETATM   11  C   UNL     1      18.955  -3.565  28.388  1.00  0.00     0.011 C 
BRANCH  11  12
HETATM   12  C   UNL     1      19.859  -3.146  27.229  1.00  0.00     0.113 C 
BRANCH  12  13
HETATM   13  C   UNL     1      19.252  -2.073  26.354  1.00  0.00     0.172 C 
HETATM   14  O   UNL     1      20.159  -1.581  25.469  1.00  0.00    -0.648 OA
HETATM   15  O   UNL     1      18.091  -1.691  26.400  1.00  0.00    -0.648 OA
ENDBRANCH  12  13
ENDBRANCH  11  12
ENDBRANCH  10  11
ENDBRANCH   9  10
ENDBRANCH   5   9
BRANCH   8  16
HETATM   16  O   UNL     1      22.467  -2.765  35.348  1.00  0.00    -0.358 OA
HETATM   17  H   UNL     1      21.988  -2.246  35.964  1.00  0.00     0.217 HD
ENDBRANCH   8  16
ENDBRANCH   1   3
TORSDOF 7
ENDMDL
MODEL 8
REMARK VINA RESULT:      -6.5      3.227      5.533
REMARK  7 active torsions:
REMARK  status: ('A' for Active; 'I' for Inactive)
REMARK    1  A    between atoms: O_1  and  C_12 
REMARK    2  A    between atoms: O_3  and  C_15 
REMARK    3  A    between atoms: C_5  and  C_6 
REMARK    4  A    between atoms: C_5  and  C_7 
REMARK    5  A    between atoms: C_6  and  C_8 
REMARK    6  A    between atoms: C_7  and  C_9 
REMARK    7  A    between atoms: C_9  and  C_14 
ROOT
HETATM    1  O   UNL     1      21.702  -0.818  33.073  1.00  0.00    -0.358 OA
HETATM    2  H   UNL     1      22.442  -0.442  33.508  1.00  0.00     0.217 HD
ENDROOT
BRANCH   1   3
HETATM    3  C   UNL     1      21.691  -2.146  32.770  1.00  0.00     0.099 A 
HETATM    4  C   UNL     1      21.286  -2.556  31.499  1.00  0.00     0.046 A 
HETATM    5  C   UNL     1      21.269  -3.913  31.177  1.00  0.00    -0.055 A 
HETATM    6  C   UNL     1      21.655  -4.860  32.125  1.00  0.00     0.010 A 
HETATM    7  C   UNL     1      22.061  -4.450  33.396  1.00  0.00     0.040 A 
HETATM    8  C   UNL     1      22.078  -3.093  33.717  1.00  0.00     0.098 A 
BRANCH   5   9
HETATM    9  C   UNL     1      20.830  -4.356  29.803  1.00  0.00     0.038 C 
BRANCH   9  10
HETATM   10  C   UNL     1      19.360  -4.055  29.494  1.00  0.00     0.005 C 
BRANCH  10  11
HETATM   11  C   UNL     1      19.155  -2.690  28.825  1.00  0.00     0.011 C 
BRANCH  11  12
HETATM   12  C   UNL     1      20.195  -2.411  27.739  1.00  0.00     0.113 C 
BRANCH  12  13
HETATM   13  C   UNL     1      19.594  -1.891  26.453  1.00  0.00     0.172 C 
HETATM   14  O   UNL     1      18.236  -1.897  26.502  1.00  0.00    -0.648 OA
HETATM   15  O   UNL     1      20.225  -1.490  25.485  1.00  0.00    -0.648 OA
ENDBRANCH  12  13
ENDBRANCH  11  12
ENDBRANCH  10  11
ENDBRANCH   9  10
ENDBRANCH   5   9
BRANCH   8  16
HETATM   16  O   UNL     1      22.475  -2.704  34.962  1.00  0.00    -0.358 OA
HETATM   17  H   UNL     1      21.967  -2.079  35.441  1.00  0.00     0.217 HD
ENDBRANCH   8  16
ENDBRANCH   1   3
TORSDOF 7
ENDMDL
MODEL 9
REMARK VINA RESULT:      -6.5      3.453      5.757
REMARK  7 active torsions:
REMARK  status: ('A' for Active; 'I' for Inactive)
REMARK    1  A    between atoms: O_1  and  C_12 
REMARK    2  A    between atoms: O_3  and  C_15 
REMARK    3  A    between atoms: C_5  and  C_6 
REMARK    4  A    between atoms: C_5  and  C_7 
REMARK    5  A    between atoms: C_6  and  C_8 
REMARK    6  A    between atoms: C_7  and  C_9 
REMARK    7  A    between atoms: C_9  and  C_14 
ROOT
HETATM    1  O   UNL     1      20.415  -0.873  26.848  1.00  0.00    -0.358 OA
HETATM    2  H   UNL     1      20.821  -0.174  27.324  1.00  0.00     0.217 HD
ENDROOT
BRANCH   1   3
HETATM    3  C   UNL     1      19.954  -1.971  27.511  1.00  0.00     0.099 A 
HETATM    4  C   UNL     1      20.501  -2.302  28.751  1.00  0.00     0.046 A 
HETATM    5  C   UNL     1      20.039  -3.424  29.439  1.00  0.00    -0.055 A 
HETATM    6  C   UNL     1      19.033  -4.216  28.887  1.00  0.00     0.010 A 
HETATM    7  C   UNL     1      18.486  -3.884  27.647  1.00  0.00     0.040 A 
HETATM    8  C   UNL     1      18.948  -2.762  26.959  1.00  0.00     0.098 A 
BRANCH   5   9
HETATM    9  C   UNL     1      20.631  -3.783  30.780  1.00  0.00     0.038 C 
BRANCH   9  10
HETATM   10  C   UNL     1      21.149  -2.578  31.572  1.00  0.00     0.005 C 
BRANCH  10  11
HETATM   11  C   UNL     1      21.532  -2.931  33.016  1.00  0.00     0.011 C 
BRANCH  11  12
HETATM   12  C   UNL     1      21.451  -1.724  33.952  1.00  0.00     0.113 C 
BRANCH  12  13
HETATM   13  C   UNL     1      22.415  -1.803  35.115  1.00  0.00     0.172 C 
HETATM   14  O   UNL     1      23.573  -1.146  34.845  1.00  0.00    -0.648 OA
HETATM   15  O   UNL     1      22.198  -2.362  36.181  1.00  0.00    -0.648 OA
ENDBRANCH  12  13
ENDBRANCH  11  12
ENDBRANCH  10  11
ENDBRANCH   9  10
ENDBRANCH   5   9
BRANCH   8  16
HETATM   16  O   UNL     1      18.407  -2.448  25.748  1.00  0.00    -0.358 OA
HETATM   17  H   UNL     1      18.957  -2.384  24.992  1.00  0.00     0.217 HD
ENDBRANCH   8  16
ENDBRANCH   1   3
TORSDOF 7
ENDMDL
