MODEL 1
REMARK VINA RESULT:      -7.0      0.000      0.000
REMARK  7 active torsions:
REMARK  status: ('A' for Active; 'I' for Inactive)
REMARK    1  A    between atoms: O_1  and  C_12 
REMARK    2  A    between atoms: O_3  and  C_15 
REMARK    3  A    between atoms: C_5  and  C_6 
REMARK    4  A    between atoms: C_5  and  C_7 
REMARK    5  A    between atoms: C_6  and  C_8 
REMARK    6  A    between atoms: C_7  and  C_9 
REMARK    7  A    between atoms: C_9  and  C_14 
ROOT
HETATM    1  O   UNL     1      24.226  -8.346  33.531  1.00  0.00    -0.358 OA
HETATM    2  H   UNL     1      24.473  -8.116  34.406  1.00  0.00     0.217 HD
ENDROOT
BRANCH   1   3
HETATM    3  C   UNL     1      23.573  -7.442  32.748  1.00  0.00     0.099 A 
HETATM    4  C   UNL     1      22.982  -6.325  33.338  1.00  0.00     0.046 A 
HETATM    5  C   UNL     1      22.309  -5.393  32.547  1.00  0.00    -0.055 A 
HETATM    6  C   UNL     1      22.227  -5.579  31.166  1.00  0.00     0.010 A 
HETATM    7  C   UNL     1      22.820  -6.696  30.577  1.00  0.00     0.040 A 
HETATM    8  C   UNL     1      23.492  -7.628  31.368  1.00  0.00     0.098 A 
BRANCH   5   9
HETATM    9  C   UNL     1      21.667  -4.186  33.184  1.00  0.00     0.038 C 
BRANCH   9  10
HETATM   10  C   UNL     1      21.459  -3.012  32.222  1.00  0.00     0.005 C 
BRANCH  10  11
HETATM   11  C   UNL     1      21.777  -1.652  32.858  1.00  0.00     0.011 C 
BRANCH  11  12
HETATM   12  C   UNL     1      21.363  -1.585  34.328  1.00  0.00     0.113 C 
BRANCH  12  13
HETATM   13  C   UNL     1      22.537  -1.567  35.281  1.00  0.00     0.172 C 
HETATM   14  O   UNL     1      22.227  -2.159  36.463  1.00  0.00    -0.648 OA
HETATM   15  O   UNL     1      23.643  -1.103  35.037  1.00  0.00    -0.648 OA
ENDBRANCH  12  13
ENDBRANCH  11  12
ENDBRANCH  10  11
ENDBRANCH   9  10
ENDBRANCH   5   9
BRANCH   8  16
HETATM   16  O   UNL     1      24.067  -8.715  30.781  1.00  0.00    -0.358 OA
HETATM   17  H   UNL     1      23.531  -9.354  30.354  1.00  0.00     0.217 HD
ENDBRANCH   8  16
ENDBRANCH   1   3
TORSDOF 7
ENDMDL
MODEL 2
REMARK VINA RESULT:      -7.0      1.551      5.744
REMARK  7 active torsions:
REMARK  status: ('A' for Active; 'I' for Inactive)
REMARK    1  A    between atoms: O_1  and  C_12 
REMARK    2  A    between atoms: O_3  and  C_15 
REMARK    3  A    between atoms: C_5  and  C_6 
REMARK    4  A    between atoms: C_5  and  C_7 
REMARK    5  A    between atoms: C_6  and  C_8 
REMARK    6  A    between atoms: C_7  and  C_9 
REMARK    7  A    between atoms: C_9  and  C_14 
ROOT
HETATM    1  O   UNL     1      21.591  -0.514  31.791  1.00  0.00    -0.358 OA
HETATM    2  H   UNL     1      22.252   0.120  31.987  1.00  0.00     0.217 HD
ENDROOT
BRANCH   1   3
HETATM    3  C   UNL     1      21.684  -1.775  32.301  1.00  0.00     0.099 A 
HETATM    4  C   UNL     1      21.414  -2.868  31.478  1.00  0.00     0.046 A 
HETATM    5  C   UNL     1      21.505  -4.164  31.988  1.00  0.00    -0.055 A 
HETATM    6  C   UNL     1      21.864  -4.366  33.321  1.00  0.00     0.010 A 
HETATM    7  C   UNL     1      22.135  -3.271  34.143  1.00  0.00     0.040 A 
HETATM    8  C   UNL     1      22.044  -1.976  33.633  1.00  0.00     0.098 A 
BRANCH   5   9
HETATM    9  C   UNL     1      21.212  -5.346  31.098  1.00  0.00     0.038 C 
BRANCH   9  10
HETATM   10  C   UNL     1      22.464  -6.085  30.614  1.00  0.00     0.005 C 
BRANCH  10  11
HETATM   11  C   UNL     1      22.574  -7.509  31.176  1.00  0.00     0.011 C 
BRANCH  11  12
HETATM   12  C   UNL     1      23.630  -7.622  32.276  1.00  0.00     0.113 C 
BRANCH  12  13
HETATM   13  C   UNL     1      23.051  -7.548  33.671  1.00  0.00     0.172 C 
HETATM   14  O   UNL     1      21.722  -7.828  33.673  1.00  0.00    -0.648 OA
HETATM   15  O   UNL     1      23.680  -7.291  34.689  1.00  0.00    -0.648 OA
ENDBRANCH  12  13
ENDBRANCH  11  12
ENDBRANCH  10  11
ENDBRANCH   9  10
ENDBRANCH   5   9
BRANCH   8  16
HETATM   16  O   UNL     1      22.310  -0.916  34.446  1.00  0.00    -0.358 OA
HETATM   17  H   UNL     1      23.167  -0.807  34.809  1.00  0.00     0.217 HD
ENDBRANCH   8  16
ENDBRANCH   1   3
TORSDOF 7
ENDMDL
MODEL 3
REMARK VINA RESULT:      -6.9      5.328      6.439
REMARK  7 active torsions:
REMARK  status: ('A' for Active; 'I' for Inactive)
REMARK    1  A    between atoms: O_1  and  C_12 
REMARK    2  A    between atoms: O_3  and  C_15 
REMARK    3  A    between atoms: C_5  and  C_6 
REMARK    4  A    between atoms: C_5  and  C_7 
REMARK    5  A    between atoms: C_6  and  C_8 
REMARK    6  A    between atoms: C_7  and  C_9 
REMARK    7  A    between atoms: C_9  and  C_14 
ROOT
HETATM    1  O   UNL     1      17.707  -1.654  25.827  1.00  0.00    -0.358 OA
HETATM    2  H   UNL     1      16.935  -2.132  26.057  1.00  0.00     0.217 HD
ENDROOT
BRANCH   1   3
HETATM    3  C   UNL     1      18.865  -1.855  26.517  1.00  0.00     0.099 A 
HETATM    4  C   UNL     1      18.814  -2.439  27.783  1.00  0.00     0.046 A 
HETATM    5  C   UNL     1      19.992  -2.649  28.501  1.00  0.00    -0.055 A 
HETATM    6  C   UNL     1      21.219  -2.275  27.953  1.00  0.00     0.010 A 
HETATM    7  C   UNL     1      21.269  -1.693  26.686  1.00  0.00     0.040 A 
HETATM    8  C   UNL     1      20.091  -1.482  25.969  1.00  0.00     0.098 A 
BRANCH   5   9
HETATM    9  C   UNL     1      19.938  -3.278  29.871  1.00  0.00     0.038 C 
BRANCH   9  10
HETATM   10  C   UNL     1      20.145  -2.285  31.019  1.00  0.00     0.005 C 
BRANCH  10  11
HETATM   11  C   UNL     1      21.255  -2.713  31.989  1.00  0.00     0.011 C 
BRANCH  11  12
HETATM   12  C   UNL     1      21.704  -1.572  32.902  1.00  0.00     0.113 C 
BRANCH  12  13
HETATM   13  C   UNL     1      21.817  -1.976  34.354  1.00  0.00     0.172 C 
HETATM   14  O   UNL     1      22.409  -3.191  34.487  1.00  0.00    -0.648 OA
HETATM   15  O   UNL     1      21.449  -1.306  35.309  1.00  0.00    -0.648 OA
ENDBRANCH  12  13
ENDBRANCH  11  12
ENDBRANCH  10  11
ENDBRANCH   9  10
ENDBRANCH   5   9
BRANCH   8  16
HETATM   16  O   UNL     1      20.152  -0.912  24.733  1.00  0.00    -0.358 OA
HETATM   17  H   UNL     1      20.526  -1.386  24.016  1.00  0.00     0.217 HD
ENDBRANCH   8  16
ENDBRANCH   1   3
TORSDOF 7
ENDMDL
MODEL 4
REMARK VINA RESULT:      -6.9      1.438      2.273
REMARK  7 active torsions:
REMARK  status: ('A' for Active; 'I' for Inactive)
REMARK    1  A    between atoms: O_1  and  C_12 
REMARK    2  A    between atoms: O_3  and  C_15 
REMARK    3  A    between atoms: C_5  and  C_6 
REMARK    4  A    between atoms: C_5  and  C_7 
REMARK    5  A    between atoms: C_6  and  C_8 
REMARK    6  A    between atoms: C_7  and  C_9 
REMARK    7  A    between atoms: C_9  and  C_14 
ROOT
HETATM    1  O   UNL     1      24.304  -8.316  33.462  1.00  0.00    -0.358 OA
HETATM    2  H   UNL     1      25.145  -7.975  33.229  1.00  0.00     0.217 HD
ENDROOT
BRANCH   1   3
HETATM    3  C   UNL     1      23.192  -7.539  33.325  1.00  0.00     0.099 A 
HETATM    4  C   UNL     1      23.125  -6.618  32.279  1.00  0.00     0.046 A 
HETATM    5  C   UNL     1      21.993  -5.816  32.129  1.00  0.00    -0.055 A 
HETATM    6  C   UNL     1      20.930  -5.934  33.025  1.00  0.00     0.010 A 
HETATM    7  C   UNL     1      20.998  -6.856  34.070  1.00  0.00     0.040 A 
HETATM    8  C   UNL     1      22.130  -7.658  34.220  1.00  0.00     0.098 A 
BRANCH   5   9
HETATM    9  C   UNL     1      21.920  -4.819  30.999  1.00  0.00     0.038 C 
BRANCH   9  10
HETATM   10  C   UNL     1      20.982  -3.639  31.272  1.00  0.00     0.005 C 
BRANCH  10  11
HETATM   11  C   UNL     1      21.692  -2.448  31.929  1.00  0.00     0.011 C 
BRANCH  11  12
HETATM   12  C   UNL     1      20.920  -1.897  33.128  1.00  0.00     0.113 C 
BRANCH  12  13
HETATM   13  C   UNL     1      21.679  -2.007  34.431  1.00  0.00     0.172 C 
HETATM   14  O   UNL     1      22.506  -3.086  34.434  1.00  0.00    -0.648 OA
HETATM   15  O   UNL     1      21.595  -1.229  35.370  1.00  0.00    -0.648 OA
ENDBRANCH  12  13
ENDBRANCH  11  12
ENDBRANCH  10  11
ENDBRANCH   9  10
ENDBRANCH   5   9
BRANCH   8  16
HETATM   16  O   UNL     1      22.185  -8.554  35.245  1.00  0.00    -0.358 OA
HETATM   17  H   UNL     1      21.732  -8.377  36.046  1.00  0.00     0.217 HD
ENDBRANCH   8  16
ENDBRANCH   1   3
TORSDOF 7
ENDMDL
MODEL 5
REMARK VINA RESULT:      -6.7      4.522      6.486
REMARK  7 active torsions:
REMARK  status: ('A' for Active; 'I' for Inactive)
REMARK    1  A    between atoms: O_1  and  C_12 
REMARK    2  A    between atoms: O_3  and  C_15 
REMARK    3  A    between atoms: C_5  and  C_6 
REMARK    4  A    between atoms: C_5  and  C_7 
REMARK    5  A    between atoms: C_6  and  C_8 
REMARK    6  A    between atoms: C_7  and  C_9 
REMARK    7  A    between atoms: C_9  and  C_14 
ROOT
HETATM    1  O   UNL     1      21.614  -0.825  33.095  1.00  0.00    -0.358 OA
HETATM    2  H   UNL     1      22.047  -0.199  32.549  1.00  0.00     0.217 HD
ENDROOT
BRANCH   1   3
HETATM    3  C   UNL     1      21.594  -2.141  32.741  1.00  0.00     0.099 A 
HETATM    4  C   UNL     1      21.130  -2.503  31.477  1.00  0.00     0.046 A 
HETATM    5  C   UNL     1      21.103  -3.847  31.103  1.00  0.00    -0.055 A 
HETATM    6  C   UNL     1      21.539  -4.828  31.994  1.00  0.00     0.010 A 
HETATM    7  C   UNL     1      22.005  -4.465  33.259  1.00  0.00     0.040 A 
HETATM    8  C   UNL     1      22.031  -3.121  33.632  1.00  0.00     0.098 A 
BRANCH   5   9
HETATM    9  C   UNL     1      20.600  -4.240  29.736  1.00  0.00     0.038 C 
BRANCH   9  10
HETATM   10  C   UNL     1      21.623  -4.030  28.614  1.00  0.00     0.005 C 
BRANCH  10  11
HETATM   11  C   UNL     1      21.362  -2.757  27.797  1.00  0.00     0.011 C 
BRANCH  11  12
HETATM   12  C   UNL     1      19.912  -2.284  27.902  1.00  0.00     0.113 C 
BRANCH  12  13
HETATM   13  C   UNL     1      19.328  -1.844  26.578  1.00  0.00     0.172 C 
HETATM   14  O   UNL     1      20.303  -1.549  25.679  1.00  0.00    -0.648 OA
HETATM   15  O   UNL     1      18.135  -1.773  26.315  1.00  0.00    -0.648 OA
ENDBRANCH  12  13
ENDBRANCH  11  12
ENDBRANCH  10  11
ENDBRANCH   9  10
ENDBRANCH   5   9
BRANCH   8  16
HETATM   16  O   UNL     1      22.486  -2.778  34.870  1.00  0.00    -0.358 OA
HETATM   17  H   UNL     1      22.133  -2.029  35.307  1.00  0.00     0.217 HD
ENDBRANCH   8  16
ENDBRANCH   1   3
TORSDOF 7
ENDMDL
MODEL 6
REMARK VINA RESULT:      -6.7      4.512      6.454
REMARK  7 active torsions:
REMARK  status: ('A' for Active; 'I' for Inactive)
REMARK    1  A    between atoms: O_1  and  C_12 
REMARK    2  A    between atoms: O_3  and  C_15 
REMARK    3  A    between atoms: C_5  and  C_6 
REMARK    4  A    between atoms: C_5  and  C_7 
REMARK    5  A    between atoms: C_6  and  C_8 
REMARK    6  A    between atoms: C_7  and  C_9 
REMARK    7  A    between atoms: C_9  and  C_14 
ROOT
HETATM    1  O   UNL     1      21.684  -0.804  33.052  1.00  0.00    -0.358 OA
HETATM    2  H   UNL     1      22.497  -0.348  33.152  1.00  0.00     0.217 HD
ENDROOT
BRANCH   1   3
HETATM    3  C   UNL     1      21.681  -2.136  32.765  1.00  0.00     0.099 A 
HETATM    4  C   UNL     1      21.296  -2.562  31.494  1.00  0.00     0.046 A 
HETATM    5  C   UNL     1      21.287  -3.923  31.188  1.00  0.00    -0.055 A 
HETATM    6  C   UNL     1      21.661  -4.858  32.154  1.00  0.00     0.010 A 
HETATM    7  C   UNL     1      22.046  -4.431  33.425  1.00  0.00     0.040 A 
HETATM    8  C   UNL     1      22.055  -3.070  33.730  1.00  0.00     0.098 A 
BRANCH   5   9
HETATM    9  C   UNL     1      20.870  -4.385  29.814  1.00  0.00     0.038 C 
BRANCH   9  10
HETATM   10  C   UNL     1      19.375  -4.207  29.526  1.00  0.00     0.005 C 
BRANCH  10  11
HETATM   11  C   UNL     1      19.069  -2.950  28.701  1.00  0.00     0.011 C 
BRANCH  11  12
HETATM   12  C   UNL     1      20.156  -2.653  27.667  1.00  0.00     0.113 C 
BRANCH  12  13
HETATM   13  C   UNL     1      19.632  -1.959  26.430  1.00  0.00     0.172 C 
HETATM   14  O   UNL     1      18.276  -1.872  26.446  1.00  0.00    -0.648 OA
HETATM   15  O   UNL     1      20.319  -1.507  25.524  1.00  0.00    -0.648 OA
ENDBRANCH  12  13
ENDBRANCH  11  12
ENDBRANCH  10  11
ENDBRANCH   9  10
ENDBRANCH   5   9
BRANCH   8  16
HETATM   16  O   UNL     1      22.433  -2.665  34.975  1.00  0.00    -0.358 OA
HETATM   17  H   UNL     1      21.989  -1.950  35.390  1.00  0.00     0.217 HD
ENDBRANCH   8  16
ENDBRANCH   1   3
TORSDOF 7
ENDMDL
MODEL 7
REMARK VINA RESULT:      -6.7      4.524      6.314
REMARK  7 active torsions:
REMARK  status: ('A' for Active; 'I' for Inactive)
REMARK    1  A    between atoms: O_1  and  C_12 
REMARK    2  A    between atoms: O_3  and  C_15 
REMARK    3  A    between atoms: C_5  and  C_6 
REMARK    4  A    between atoms: C_5  and  C_7 
REMARK    5  A    between atoms: C_6  and  C_8 
REMARK    6  A    between atoms: C_7  and  C_9 
REMARK    7  A    between atoms: C_9  and  C_14 
ROOT
HETATM    1  O   UNL     1      22.466  -5.199  33.865  1.00  0.00    -0.358 OA
HETATM    2  H   UNL     1      23.376  -5.369  34.011  1.00  0.00     0.217 HD
ENDROOT
BRANCH   1   3
HETATM    3  C   UNL     1      22.077  -4.032  33.279  1.00  0.00     0.099 A 
HETATM    4  C   UNL     1      21.666  -4.038  31.946  1.00  0.00     0.046 A 
HETATM    5  C   UNL     1      21.267  -2.849  31.334  1.00  0.00    -0.055 A 
HETATM    6  C   UNL     1      21.279  -1.655  32.055  1.00  0.00     0.010 A 
HETATM    7  C   UNL     1      21.689  -1.650  33.389  1.00  0.00     0.040 A 
HETATM    8  C   UNL     1      22.088  -2.839  34.000  1.00  0.00     0.098 A 
BRANCH   5   9
HETATM    9  C   UNL     1      20.825  -2.855  29.892  1.00  0.00     0.038 C 
BRANCH   9  10
HETATM   10  C   UNL     1      19.303  -2.832  29.709  1.00  0.00     0.005 C 
BRANCH  10  11
HETATM   11  C   UNL     1      18.821  -3.752  28.580  1.00  0.00     0.011 C 
BRANCH  11  12
HETATM   12  C   UNL     1      19.614  -3.554  27.288  1.00  0.00     0.113 C 
BRANCH  12  13
HETATM   13  C   UNL     1      19.319  -2.240  26.600  1.00  0.00     0.172 C 
HETATM   14  O   UNL     1      20.463  -1.594  26.252  1.00  0.00    -0.648 OA
HETATM   15  O   UNL     1      18.204  -1.800  26.356  1.00  0.00    -0.648 OA
ENDBRANCH  12  13
ENDBRANCH  11  12
ENDBRANCH  10  11
ENDBRANCH   9  10
ENDBRANCH   5   9
BRANCH   8  16
HETATM   16  O   UNL     1      22.487  -2.821  35.303  1.00  0.00    -0.358 OA
HETATM   17  H   UNL     1      21.954  -2.403  35.950  1.00  0.00     0.217 HD
ENDBRANCH   8  16
ENDBRANCH   1   3
TORSDOF 7
ENDMDL
MODEL 8
REMARK VINA RESULT:      -6.7      4.393      5.473
REMARK  7 active torsions:
REMARK  status: ('A' for Active; 'I' for Inactive)
REMARK    1  A    between atoms: O_1  and  C_12 
REMARK    2  A    between atoms: O_3  and  C_15 
REMARK    3  A    between atoms: C_5  and  C_6 
REMARK    4  A    between atoms: C_5  and  C_7 
REMARK    5  A    between atoms: C_6  and  C_8 
REMARK    6  A    between atoms: C_7  and  C_9 
REMARK    7  A    between atoms: C_9  and  C_14 
ROOT
HETATM    1  O   UNL     1      19.087  -0.850  27.433  1.00  0.00    -0.358 OA
HETATM    2  H   UNL     1      19.696  -0.182  27.680  1.00  0.00     0.217 HD
ENDROOT
BRANCH   1   3
HETATM    3  C   UNL     1      19.251  -2.124  27.889  1.00  0.00     0.099 A 
HETATM    4  C   UNL     1      19.827  -2.334  29.142  1.00  0.00     0.046 A 
HETATM    5  C   UNL     1      20.002  -3.633  29.620  1.00  0.00    -0.055 A 
HETATM    6  C   UNL     1      19.603  -4.721  28.843  1.00  0.00     0.010 A 
HETATM    7  C   UNL     1      19.026  -4.510  27.590  1.00  0.00     0.040 A 
HETATM    8  C   UNL     1      18.852  -3.211  27.114  1.00  0.00     0.098 A 
BRANCH   5   9
HETATM    9  C   UNL     1      20.626  -3.861  30.974  1.00  0.00     0.038 C 
BRANCH   9  10
HETATM   10  C   UNL     1      20.845  -2.576  31.781  1.00  0.00     0.005 C 
BRANCH  10  11
HETATM   11  C   UNL     1      21.702  -2.795  33.035  1.00  0.00     0.011 C 
BRANCH  11  12
HETATM   12  C   UNL     1      21.455  -1.730  34.103  1.00  0.00     0.113 C 
BRANCH  12  13
HETATM   13  C   UNL     1      22.541  -1.673  35.154  1.00  0.00     0.172 C 
HETATM   14  O   UNL     1      22.124  -2.213  36.329  1.00  0.00    -0.648 OA
HETATM   15  O   UNL     1      23.667  -1.224  34.990  1.00  0.00    -0.648 OA
ENDBRANCH  12  13
ENDBRANCH  11  12
ENDBRANCH  10  11
ENDBRANCH   9  10
ENDBRANCH   5   9
BRANCH   8  16
HETATM   16  O   UNL     1      18.288  -3.017  25.888  1.00  0.00    -0.358 OA
HETATM   17  H   UNL     1      18.693  -2.437  25.273  1.00  0.00     0.217 HD
ENDBRANCH   8  16
ENDBRANCH   1   3
TORSDOF 7
ENDMDL
MODEL 9
REMARK VINA RESULT:      -6.6      2.134      6.492
REMARK  7 active torsions:
REMARK  status: ('A' for Active; 'I' for Inactive)
REMARK    1  A    between atoms: O_1  and  C_12 
REMARK    2  A    between atoms: O_3  and  C_15 
REMARK    3  A    between atoms: C_5  and  C_6 
REMARK    4  A    between atoms: C_5  and  C_7 
REMARK    5  A    between atoms: C_6  and  C_8 
REMARK    6  A    between atoms: C_7  and  C_9 
REMARK    7  A    between atoms: C_9  and  C_14 
ROOT
HETATM    1  O   UNL     1      21.316  -2.146  29.628  1.00  0.00    -0.358 OA
HETATM    2  H   UNL     1      21.816  -1.394  29.377  1.00  0.00     0.217 HD
ENDROOT
BRANCH   1   3
HETATM    3  C   UNL     1      21.480  -2.691  30.867  1.00  0.00     0.099 A 
HETATM    4  C   UNL     1      21.509  -4.079  31.006  1.00  0.00     0.046 A 
HETATM    5  C   UNL     1      21.674  -4.649  32.269  1.00  0.00    -0.055 A 
HETATM    6  C   UNL     1      21.810  -3.832  33.391  1.00  0.00     0.010 A 
HETATM    7  C   UNL     1      21.782  -2.444  33.250  1.00  0.00     0.040 A 
HETATM    8  C   UNL     1      21.617  -1.874  31.988  1.00  0.00     0.098 A 
BRANCH   5   9
HETATM    9  C   UNL     1      21.704  -6.149  32.420  1.00  0.00     0.038 C 
BRANCH   9  10
HETATM   10  C   UNL     1      22.929  -6.673  33.176  1.00  0.00     0.005 C 
BRANCH  10  11
HETATM   11  C   UNL     1      23.713  -7.730  32.386  1.00  0.00     0.011 C 
BRANCH  11  12
HETATM   12  C   UNL     1      23.502  -7.606  30.877  1.00  0.00     0.113 C 
BRANCH  12  13
HETATM   13  C   UNL     1      24.419  -8.495  30.069  1.00  0.00     0.172 C 
HETATM   14  O   UNL     1      25.615  -8.671  30.691  1.00  0.00    -0.648 OA
HETATM   15  O   UNL     1      24.141  -9.020  28.999  1.00  0.00    -0.648 OA
ENDBRANCH  12  13
ENDBRANCH  11  12
ENDBRANCH  10  11
ENDBRANCH   9  10
ENDBRANCH   5   9
BRANCH   8  16
HETATM   16  O   UNL     1      21.590  -0.517  31.863  1.00  0.00    -0.358 OA
HETATM   17  H   UNL     1      21.455  -0.127  31.022  1.00  0.00     0.217 HD
ENDBRANCH   8  16
ENDBRANCH   1   3
TORSDOF 7
ENDMDL
