MODEL 1
REMARK VINA RESULT:      -7.1      0.000      0.000
REMARK  7 active torsions:
REMARK  status: ('A' for Active; 'I' for Inactive)
REMARK    1  A    between atoms: O_1  and  C_12 
REMARK    2  A    between atoms: O_3  and  C_15 
REMARK    3  A    between atoms: C_5  and  C_6 
REMARK    4  A    between atoms: C_5  and  C_7 
REMARK    5  A    between atoms: C_6  and  C_8 
REMARK    6  A    between atoms: C_7  and  C_9 
REMARK    7  A    between atoms: C_9  and  C_14 
ROOT
HETATM    1  O   UNL     1      10.996   4.901  11.103  1.00  0.00    -0.358 OA
HETATM    2  H   UNL     1      10.507   5.271  11.812  1.00  0.00     0.217 HD
ENDROOT
BRANCH   1   3
HETATM    3  C   UNL     1      12.253   5.353  10.834  1.00  0.00     0.099 A 
HETATM    4  C   UNL     1      13.124   5.624  11.889  1.00  0.00     0.046 A 
HETATM    5  C   UNL     1      14.413   6.089  11.627  1.00  0.00    -0.055 A 
HETATM    6  C   UNL     1      14.830   6.284  10.310  1.00  0.00     0.010 A 
HETATM    7  C   UNL     1      13.959   6.012   9.255  1.00  0.00     0.040 A 
HETATM    8  C   UNL     1      12.670   5.547   9.518  1.00  0.00     0.098 A 
BRANCH   5   9
HETATM    9  C   UNL     1      15.355   6.384  12.768  1.00  0.00     0.038 C 
BRANCH   9  10
HETATM   10  C   UNL     1      16.542   5.419  12.859  1.00  0.00     0.005 C 
BRANCH  10  11
HETATM   11  C   UNL     1      17.877   6.076  12.482  1.00  0.00     0.011 C 
BRANCH  11  12
HETATM   12  C   UNL     1      18.433   5.549  11.159  1.00  0.00     0.113 C 
BRANCH  12  13
HETATM   13  C   UNL     1      18.315   6.541  10.023  1.00  0.00     0.172 C 
HETATM   14  O   UNL     1      18.329   5.917   8.816  1.00  0.00    -0.648 OA
HETATM   15  O   UNL     1      18.199   7.752  10.147  1.00  0.00    -0.648 OA
ENDBRANCH  12  13
ENDBRANCH  11  12
ENDBRANCH  10  11
ENDBRANCH   9  10
ENDBRANCH   5   9
BRANCH   8  16
HETATM   16  O   UNL     1      11.828   5.285   8.479  1.00  0.00    -0.358 OA
HETATM   17  H   UNL     1      11.389   4.459   8.429  1.00  0.00     0.217 HD
ENDBRANCH   8  16
ENDBRANCH   1   3
TORSDOF 7
ENDMDL
MODEL 2
REMARK VINA RESULT:      -7.0      2.721      5.017
REMARK  7 active torsions:
REMARK  status: ('A' for Active; 'I' for Inactive)
REMARK    1  A    between atoms: O_1  and  C_12 
REMARK    2  A    between atoms: O_3  and  C_15 
REMARK    3  A    between atoms: C_5  and  C_6 
REMARK    4  A    between atoms: C_5  and  C_7 
REMARK    5  A    between atoms: C_6  and  C_8 
REMARK    6  A    between atoms: C_7  and  C_9 
REMARK    7  A    between atoms: C_9  and  C_14 
ROOT
HETATM    1  O   UNL     1      10.945   6.691  14.423  1.00  0.00    -0.358 OA
HETATM    2  H   UNL     1      10.617   7.511  14.109  1.00  0.00     0.217 HD
ENDROOT
BRANCH   1   3
HETATM    3  C   UNL     1      12.282   6.525  14.629  1.00  0.00     0.099 A 
HETATM    4  C   UNL     1      13.113   6.250  13.544  1.00  0.00     0.046 A 
HETATM    5  C   UNL     1      14.483   6.076  13.742  1.00  0.00    -0.055 A 
HETATM    6  C   UNL     1      15.021   6.176  15.025  1.00  0.00     0.010 A 
HETATM    7  C   UNL     1      14.189   6.453  16.110  1.00  0.00     0.040 A 
HETATM    8  C   UNL     1      12.819   6.626  15.912  1.00  0.00     0.098 A 
BRANCH   5   9
HETATM    9  C   UNL     1      15.382   5.776  12.568  1.00  0.00     0.038 C 
BRANCH   9  10
HETATM   10  C   UNL     1      15.264   6.786  11.422  1.00  0.00     0.005 C 
BRANCH  10  11
HETATM   11  C   UNL     1      14.893   6.133  10.083  1.00  0.00     0.011 C 
BRANCH  11  12
HETATM   12  C   UNL     1      13.381   6.006   9.897  1.00  0.00     0.113 C 
BRANCH  12  13
HETATM   13  C   UNL     1      12.986   5.532   8.516  1.00  0.00     0.172 C 
HETATM   14  O   UNL     1      13.453   6.368   7.552  1.00  0.00    -0.648 OA
HETATM   15  O   UNL     1      12.346   4.520   8.268  1.00  0.00    -0.648 OA
ENDBRANCH  12  13
ENDBRANCH  11  12
ENDBRANCH  10  11
ENDBRANCH   9  10
ENDBRANCH   5   9
BRANCH   8  16
HETATM   16  O   UNL     1      12.016   6.895  16.980  1.00  0.00    -0.358 OA
HETATM   17  H   UNL     1      11.687   7.763  17.111  1.00  0.00     0.217 HD
ENDBRANCH   8  16
ENDBRANCH   1   3
TORSDOF 7
ENDMDL
MODEL 3
REMARK VINA RESULT:      -6.9      1.729      5.391
REMARK  7 active torsions:
REMARK  status: ('A' for Active; 'I' for Inactive)
REMARK    1  A    between atoms: O_1  and  C_12 
REMARK    2  A    between atoms: O_3  and  C_15 
REMARK    3  A    between atoms: C_5  and  C_6 
REMARK    4  A    between atoms: C_5  and  C_7 
REMARK    5  A    between atoms: C_6  and  C_8 
REMARK    6  A    between atoms: C_7  and  C_9 
REMARK    7  A    between atoms: C_9  and  C_14 
ROOT
HETATM    1  O   UNL     1      17.835   5.861   9.250  1.00  0.00    -0.358 OA
HETATM    2  H   UNL     1      18.374   6.598   9.037  1.00  0.00     0.217 HD
ENDROOT
BRANCH   1   3
HETATM    3  C   UNL     1      17.185   5.816  10.447  1.00  0.00     0.099 A 
HETATM    4  C   UNL     1      15.825   6.124  10.500  1.00  0.00     0.046 A 
HETATM    5  C   UNL     1      15.148   6.084  11.719  1.00  0.00    -0.055 A 
HETATM    6  C   UNL     1      15.831   5.738  12.885  1.00  0.00     0.010 A 
HETATM    7  C   UNL     1      17.191   5.429  12.831  1.00  0.00     0.040 A 
HETATM    8  C   UNL     1      17.867   5.469  11.612  1.00  0.00     0.098 A 
BRANCH   5   9
HETATM    9  C   UNL     1      13.679   6.418  11.776  1.00  0.00     0.038 C 
BRANCH   9  10
HETATM   10  C   UNL     1      12.775   5.357  11.139  1.00  0.00     0.005 C 
BRANCH  10  11
HETATM   11  C   UNL     1      12.035   5.868   9.896  1.00  0.00     0.011 C 
BRANCH  11  12
HETATM   12  C   UNL     1      12.444   5.121   8.626  1.00  0.00     0.113 C 
BRANCH  12  13
HETATM   13  C   UNL     1      12.626   6.027   7.430  1.00  0.00     0.172 C 
HETATM   14  O   UNL     1      13.733   6.804   7.560  1.00  0.00    -0.648 OA
HETATM   15  O   UNL     1      11.897   6.063   6.448  1.00  0.00    -0.648 OA
ENDBRANCH  12  13
ENDBRANCH  11  12
ENDBRANCH  10  11
ENDBRANCH   9  10
ENDBRANCH   5   9
BRANCH   8  16
HETATM   16  O   UNL     1      19.195   5.167  11.572  1.00  0.00    -0.358 OA
HETATM   17  H   UNL     1      19.747   5.565  10.928  1.00  0.00     0.217 HD
ENDBRANCH   8  16
ENDBRANCH   1   3
TORSDOF 7
ENDMDL
MODEL 4
REMARK VINA RESULT:      -6.8      3.585      5.826
REMARK  7 active torsions:
REMARK  status: ('A' for Active; 'I' for Inactive)
REMARK    1  A    between atoms: O_1  and  C_12 
REMARK    2  A    between atoms: O_3  and  C_15 
REMARK    3  A    between atoms: C_5  and  C_6 
REMARK    4  A    between atoms: C_5  and  C_7 
REMARK    5  A    between atoms: C_6  and  C_8 
REMARK    6  A    between atoms: C_7  and  C_9 
REMARK    7  A    between atoms: C_9  and  C_14 
ROOT
HETATM    1  O   UNL     1      11.904   6.885  17.137  1.00  0.00    -0.358 OA
HETATM    2  H   UNL     1      10.980   7.030  17.073  1.00  0.00     0.217 HD
ENDROOT
BRANCH   1   3
HETATM    3  C   UNL     1      12.647   6.712  16.008  1.00  0.00     0.099 A 
HETATM    4  C   UNL     1      12.004   6.614  14.774  1.00  0.00     0.046 A 
HETATM    5  C   UNL     1      12.753   6.435  13.610  1.00  0.00    -0.055 A 
HETATM    6  C   UNL     1      14.144   6.352  13.681  1.00  0.00     0.010 A 
HETATM    7  C   UNL     1      14.786   6.450  14.916  1.00  0.00     0.040 A 
HETATM    8  C   UNL     1      14.037   6.630  16.079  1.00  0.00     0.098 A 
BRANCH   5   9
HETATM    9  C   UNL     1      12.059   6.328  12.276  1.00  0.00     0.038 C 
BRANCH   9  10
HETATM   10  C   UNL     1      12.996   5.981  11.114  1.00  0.00     0.005 C 
BRANCH  10  11
HETATM   11  C   UNL     1      12.270   5.315   9.937  1.00  0.00     0.011 C 
BRANCH  11  12
HETATM   12  C   UNL     1      12.023   6.283   8.780  1.00  0.00     0.113 C 
BRANCH  12  13
HETATM   13  C   UNL     1      12.337   5.690   7.425  1.00  0.00     0.172 C 
HETATM   14  O   UNL     1      12.795   4.416   7.535  1.00  0.00    -0.648 OA
HETATM   15  O   UNL     1      12.188   6.255   6.350  1.00  0.00    -0.648 OA
ENDBRANCH  12  13
ENDBRANCH  11  12
ENDBRANCH  10  11
ENDBRANCH   9  10
ENDBRANCH   5   9
BRANCH   8  16
HETATM   16  O   UNL     1      14.675   6.724  17.279  1.00  0.00    -0.358 OA
HETATM   17  H   UNL     1      15.327   7.383  17.412  1.00  0.00     0.217 HD
ENDBRANCH   8  16
ENDBRANCH   1   3
TORSDOF 7
ENDMDL
MODEL 5
REMARK VINA RESULT:      -6.6      2.748      4.111
REMARK  7 active torsions:
REMARK  status: ('A' for Active; 'I' for Inactive)
REMARK    1  A    between atoms: O_1  and  C_12 
REMARK    2  A    between atoms: O_3  and  C_15 
REMARK    3  A    between atoms: C_5  and  C_6 
REMARK    4  A    between atoms: C_5  and  C_7 
REMARK    5  A    between atoms: C_6  and  C_8 
REMARK    6  A    between atoms: C_7  and  C_9 
REMARK    7  A    between atoms: C_9  and  C_14 
ROOT
HETATM    1  O   UNL     1      10.971   6.813  14.479  1.00  0.00    -0.358 OA
HETATM    2  H   UNL     1      10.696   7.090  13.627  1.00  0.00     0.217 HD
ENDROOT
BRANCH   1   3
HETATM    3  C   UNL     1      12.293   6.598  14.732  1.00  0.00     0.099 A 
HETATM    4  C   UNL     1      13.156   6.320  13.672  1.00  0.00     0.046 A 
HETATM    5  C   UNL     1      14.511   6.096  13.918  1.00  0.00    -0.055 A 
HETATM    6  C   UNL     1      15.002   6.149  15.223  1.00  0.00     0.010 A 
HETATM    7  C   UNL     1      14.138   6.429  16.282  1.00  0.00     0.040 A 
HETATM    8  C   UNL     1      12.783   6.652  16.036  1.00  0.00     0.098 A 
BRANCH   5   9
HETATM    9  C   UNL     1      15.445   5.795  12.772  1.00  0.00     0.038 C 
BRANCH   9  10
HETATM   10  C   UNL     1      14.813   5.984  11.389  1.00  0.00     0.005 C 
BRANCH  10  11
HETATM   11  C   UNL     1      15.832   6.391  10.316  1.00  0.00     0.011 C 
BRANCH  11  12
HETATM   12  C   UNL     1      17.224   6.640  10.897  1.00  0.00     0.113 C 
BRANCH  12  13
HETATM   13  C   UNL     1      18.223   7.127   9.872  1.00  0.00     0.172 C 
HETATM   14  O   UNL     1      18.528   6.153   8.975  1.00  0.00    -0.648 OA
HETATM   15  O   UNL     1      18.696   8.253   9.820  1.00  0.00    -0.648 OA
ENDBRANCH  12  13
ENDBRANCH  11  12
ENDBRANCH  10  11
ENDBRANCH   9  10
ENDBRANCH   5   9
BRANCH   8  16
HETATM   16  O   UNL     1      11.948   6.922  17.078  1.00  0.00    -0.358 OA
HETATM   17  H   UNL     1      12.259   7.418  17.811  1.00  0.00     0.217 HD
ENDBRANCH   8  16
ENDBRANCH   1   3
TORSDOF 7
ENDMDL
MODEL 6
REMARK VINA RESULT:      -6.6      2.135      3.019
REMARK  7 active torsions:
REMARK  status: ('A' for Active; 'I' for Inactive)
REMARK    1  A    between atoms: O_1  and  C_12 
REMARK    2  A    between atoms: O_3  and  C_15 
REMARK    3  A    between atoms: C_5  and  C_6 
REMARK    4  A    between atoms: C_5  and  C_7 
REMARK    5  A    between atoms: C_6  and  C_8 
REMARK    6  A    between atoms: C_7  and  C_9 
REMARK    7  A    between atoms: C_9  and  C_14 
ROOT
HETATM    1  O   UNL     1      12.123   5.440   8.618  1.00  0.00    -0.358 OA
HETATM    2  H   UNL     1      11.187   5.396   8.634  1.00  0.00     0.217 HD
ENDROOT
BRANCH   1   3
HETATM    3  C   UNL     1      12.815   5.645   9.774  1.00  0.00     0.099 A 
HETATM    4  C   UNL     1      14.112   6.157   9.714  1.00  0.00     0.046 A 
HETATM    5  C   UNL     1      14.832   6.370  10.890  1.00  0.00    -0.055 A 
HETATM    6  C   UNL     1      14.256   6.070  12.125  1.00  0.00     0.010 A 
HETATM    7  C   UNL     1      12.958   5.560  12.183  1.00  0.00     0.040 A 
HETATM    8  C   UNL     1      12.239   5.347  11.007  1.00  0.00     0.098 A 
BRANCH   5   9
HETATM    9  C   UNL     1      16.234   6.922  10.825  1.00  0.00     0.038 C 
BRANCH   9  10
HETATM   10  C   UNL     1      17.278   5.910  10.339  1.00  0.00     0.005 C 
BRANCH  10  11
HETATM   11  C   UNL     1      18.286   5.520  11.428  1.00  0.00     0.011 C 
BRANCH  11  12
HETATM   12  C   UNL     1      17.946   6.134  12.786  1.00  0.00     0.113 C 
BRANCH  12  13
HETATM   13  C   UNL     1      17.787   5.108  13.884  1.00  0.00     0.172 C 
HETATM   14  O   UNL     1      18.951   4.917  14.558  1.00  0.00    -0.648 OA
HETATM   15  O   UNL     1      16.750   4.523  14.167  1.00  0.00    -0.648 OA
ENDBRANCH  12  13
ENDBRANCH  11  12
ENDBRANCH  10  11
ENDBRANCH   9  10
ENDBRANCH   5   9
BRANCH   8  16
HETATM   16  O   UNL     1      10.974   4.847  11.078  1.00  0.00    -0.358 OA
HETATM   17  H   UNL     1      10.839   3.925  11.181  1.00  0.00     0.217 HD
ENDBRANCH   8  16
ENDBRANCH   1   3
TORSDOF 7
ENDMDL
MODEL 7
REMARK VINA RESULT:      -6.5      1.557      5.382
REMARK  7 active torsions:
REMARK  status: ('A' for Active; 'I' for Inactive)
REMARK    1  A    between atoms: O_1  and  C_12 
REMARK    2  A    between atoms: O_3  and  C_15 
REMARK    3  A    between atoms: C_5  and  C_6 
REMARK    4  A    between atoms: C_5  and  C_7 
REMARK    5  A    between atoms: C_6  and  C_8 
REMARK    6  A    between atoms: C_7  and  C_9 
REMARK    7  A    between atoms: C_9  and  C_14 
ROOT
HETATM    1  O   UNL     1      19.144   5.334  10.639  1.00  0.00    -0.358 OA
HETATM    2  H   UNL     1      19.726   5.346  11.374  1.00  0.00     0.217 HD
ENDROOT
BRANCH   1   3
HETATM    3  C   UNL     1      17.988   6.056  10.673  1.00  0.00     0.099 A 
HETATM    4  C   UNL     1      16.883   5.546  11.354  1.00  0.00     0.046 A 
HETATM    5  C   UNL     1      15.693   6.274  11.395  1.00  0.00    -0.055 A 
HETATM    6  C   UNL     1      15.609   7.511  10.755  1.00  0.00     0.010 A 
HETATM    7  C   UNL     1      16.716   8.020  10.075  1.00  0.00     0.040 A 
HETATM    8  C   UNL     1      17.905   7.292  10.034  1.00  0.00     0.098 A 
BRANCH   5   9
HETATM    9  C   UNL     1      14.497   5.722  12.130  1.00  0.00     0.038 C 
BRANCH   9  10
HETATM   10  C   UNL     1      13.153   6.234  11.600  1.00  0.00     0.005 C 
BRANCH  10  11
HETATM   11  C   UNL     1      12.611   5.397  10.434  1.00  0.00     0.011 C 
BRANCH  11  12
HETATM   12  C   UNL     1      12.268   6.251   9.213  1.00  0.00     0.113 C 
BRANCH  12  13
HETATM   13  C   UNL     1      12.506   5.542   7.899  1.00  0.00     0.172 C 
HETATM   14  O   UNL     1      12.621   6.424   6.872  1.00  0.00    -0.648 OA
HETATM   15  O   UNL     1      12.607   4.331   7.753  1.00  0.00    -0.648 OA
ENDBRANCH  12  13
ENDBRANCH  11  12
ENDBRANCH  10  11
ENDBRANCH   9  10
ENDBRANCH   5   9
BRANCH   8  16
HETATM   16  O   UNL     1      18.979   7.800   9.367  1.00  0.00    -0.358 OA
HETATM   17  H   UNL     1      19.452   7.261   8.763  1.00  0.00     0.217 HD
ENDBRANCH   8  16
ENDBRANCH   1   3
TORSDOF 7
ENDMDL
MODEL 8
REMARK VINA RESULT:      -6.5      2.190      2.789
REMARK  7 active torsions:
REMARK  status: ('A' for Active; 'I' for Inactive)
REMARK    1  A    between atoms: O_1  and  C_12 
REMARK    2  A    between atoms: O_3  and  C_15 
REMARK    3  A    between atoms: C_5  and  C_6 
REMARK    4  A    between atoms: C_5  and  C_7 
REMARK    5  A    between atoms: C_6  and  C_8 
REMARK    6  A    between atoms: C_7  and  C_9 
REMARK    7  A    between atoms: C_9  and  C_14 
ROOT
HETATM    1  O   UNL     1      12.198   5.401  13.386  1.00  0.00    -0.358 OA
HETATM    2  H   UNL     1      11.552   6.007  13.692  1.00  0.00     0.217 HD
ENDROOT
BRANCH   1   3
HETATM    3  C   UNL     1      12.858   5.642  12.218  1.00  0.00     0.099 A 
HETATM    4  C   UNL     1      14.157   6.148  12.257  1.00  0.00     0.046 A 
HETATM    5  C   UNL     1      14.843   6.401  11.068  1.00  0.00    -0.055 A 
HETATM    6  C   UNL     1      14.229   6.147   9.841  1.00  0.00     0.010 A 
HETATM    7  C   UNL     1      12.930   5.640   9.803  1.00  0.00     0.040 A 
HETATM    8  C   UNL     1      12.245   5.388  10.992  1.00  0.00     0.098 A 
BRANCH   5   9
HETATM    9  C   UNL     1      16.247   6.950  11.110  1.00  0.00     0.038 C 
BRANCH   9  10
HETATM   10  C   UNL     1      17.248   6.160  10.259  1.00  0.00     0.005 C 
BRANCH  10  11
HETATM   11  C   UNL     1      18.368   5.519  11.091  1.00  0.00     0.011 C 
BRANCH  11  12
HETATM   12  C   UNL     1      18.010   5.424  12.575  1.00  0.00     0.113 C 
BRANCH  12  13
HETATM   13  C   UNL     1      18.946   4.535  13.361  1.00  0.00     0.172 C 
HETATM   14  O   UNL     1      18.700   4.611  14.695  1.00  0.00    -0.648 OA
HETATM   15  O   UNL     1      19.811   3.814  12.882  1.00  0.00    -0.648 OA
ENDBRANCH  12  13
ENDBRANCH  11  12
ENDBRANCH  10  11
ENDBRANCH   9  10
ENDBRANCH   5   9
BRANCH   8  16
HETATM   16  O   UNL     1      10.976   4.893  10.942  1.00  0.00    -0.358 OA
HETATM   17  H   UNL     1      10.281   5.421  10.600  1.00  0.00     0.217 HD
ENDBRANCH   8  16
ENDBRANCH   1   3
TORSDOF 7
ENDMDL
MODEL 9
REMARK VINA RESULT:      -6.5      2.161      5.722
REMARK  7 active torsions:
REMARK  status: ('A' for Active; 'I' for Inactive)
REMARK    1  A    between atoms: O_1  and  C_12 
REMARK    2  A    between atoms: O_3  and  C_15 
REMARK    3  A    between atoms: C_5  and  C_6 
REMARK    4  A    between atoms: C_5  and  C_7 
REMARK    5  A    between atoms: C_6  and  C_8 
REMARK    6  A    between atoms: C_7  and  C_9 
REMARK    7  A    between atoms: C_9  and  C_14 
ROOT
HETATM    1  O   UNL     1      18.511   4.158  14.447  1.00  0.00    -0.358 OA
HETATM    2  H   UNL     1      18.192   4.504  15.257  1.00  0.00     0.217 HD
ENDROOT
BRANCH   1   3
HETATM    3  C   UNL     1      18.147   4.738  13.268  1.00  0.00     0.099 A 
HETATM    4  C   UNL     1      16.868   5.278  13.137  1.00  0.00     0.046 A 
HETATM    5  C   UNL     1      16.483   5.872  11.935  1.00  0.00    -0.055 A 
HETATM    6  C   UNL     1      17.376   5.925  10.864  1.00  0.00     0.010 A 
HETATM    7  C   UNL     1      18.656   5.385  10.997  1.00  0.00     0.040 A 
HETATM    8  C   UNL     1      19.040   4.791  12.199  1.00  0.00     0.098 A 
BRANCH   5   9
HETATM    9  C   UNL     1      15.099   6.455  11.792  1.00  0.00     0.038 C 
BRANCH   9  10
HETATM   10  C   UNL     1      14.517   6.334  10.380  1.00  0.00     0.005 C 
BRANCH  10  11
HETATM   11  C   UNL     1      13.070   5.822  10.370  1.00  0.00     0.011 C 
BRANCH  11  12
HETATM   12  C   UNL     1      12.286   6.312   9.152  1.00  0.00     0.113 C 
BRANCH  12  13
HETATM   13  C   UNL     1      12.729   5.669   7.857  1.00  0.00     0.172 C 
HETATM   14  O   UNL     1      12.592   4.318   7.902  1.00  0.00    -0.648 OA
HETATM   15  O   UNL     1      13.141   6.265   6.872  1.00  0.00    -0.648 OA
ENDBRANCH  12  13
ENDBRANCH  11  12
ENDBRANCH  10  11
ENDBRANCH   9  10
ENDBRANCH   5   9
BRANCH   8  16
HETATM   16  O   UNL     1      20.293   4.266  12.316  1.00  0.00    -0.358 OA
HETATM   17  H   UNL     1      20.496   3.696  13.031  1.00  0.00     0.217 HD
ENDBRANCH   8  16
ENDBRANCH   1   3
TORSDOF 7
ENDMDL
