MODEL 1
REMARK VINA RESULT:      -7.1      0.000      0.000
REMARK  7 active torsions:
REMARK  status: ('A' for Active; 'I' for Inactive)
REMARK    1  A    between atoms: O_1  and  C_12 
REMARK    2  A    between atoms: O_3  and  C_15 
REMARK    3  A    between atoms: C_5  and  C_6 
REMARK    4  A    between atoms: C_5  and  C_7 
REMARK    5  A    between atoms: C_6  and  C_8 
REMARK    6  A    between atoms: C_7  and  C_9 
REMARK    7  A    between atoms: C_9  and  C_14 
ROOT
HETATM    1  O   UNL     1      11.000   4.926  11.091  1.00  0.00    -0.358 OA
HETATM    2  H   UNL     1      10.848   4.279  11.753  1.00  0.00     0.217 HD
ENDROOT
BRANCH   1   3
HETATM    3  C   UNL     1      12.268   5.359  10.841  1.00  0.00     0.099 A 
HETATM    4  C   UNL     1      13.133   5.597  11.909  1.00  0.00     0.046 A 
HETATM    5  C   UNL     1      14.433   6.042  11.667  1.00  0.00    -0.055 A 
HETATM    6  C   UNL     1      14.866   6.251  10.357  1.00  0.00     0.010 A 
HETATM    7  C   UNL     1      14.000   6.012   9.290  1.00  0.00     0.040 A 
HETATM    8  C   UNL     1      12.701   5.567   9.533  1.00  0.00     0.098 A 
BRANCH   5   9
HETATM    9  C   UNL     1      15.369   6.301  12.821  1.00  0.00     0.038 C 
BRANCH   9  10
HETATM   10  C   UNL     1      16.607   5.397  12.831  1.00  0.00     0.005 C 
BRANCH  10  11
HETATM   11  C   UNL     1      17.890   6.134  12.424  1.00  0.00     0.011 C 
BRANCH  11  12
HETATM   12  C   UNL     1      18.560   5.506  11.201  1.00  0.00     0.113 C 
BRANCH  12  13
HETATM   13  C   UNL     1      18.356   6.302   9.932  1.00  0.00     0.172 C 
HETATM   14  O   UNL     1      18.246   7.631  10.192  1.00  0.00    -0.648 OA
HETATM   15  O   UNL     1      18.313   5.838   8.801  1.00  0.00    -0.648 OA
ENDBRANCH  12  13
ENDBRANCH  11  12
ENDBRANCH  10  11
ENDBRANCH   9  10
ENDBRANCH   5   9
BRANCH   8  16
HETATM   16  O   UNL     1      11.864   5.338   8.482  1.00  0.00    -0.358 OA
HETATM   17  H   UNL     1      11.735   4.465   8.167  1.00  0.00     0.217 HD
ENDBRANCH   8  16
ENDBRANCH   1   3
TORSDOF 7
ENDMDL
MODEL 2
REMARK VINA RESULT:      -7.0      1.419      5.351
REMARK  7 active torsions:
REMARK  status: ('A' for Active; 'I' for Inactive)
REMARK    1  A    between atoms: O_1  and  C_12 
REMARK    2  A    between atoms: O_3  and  C_15 
REMARK    3  A    between atoms: C_5  and  C_6 
REMARK    4  A    between atoms: C_5  and  C_7 
REMARK    5  A    between atoms: C_6  and  C_8 
REMARK    6  A    between atoms: C_7  and  C_9 
REMARK    7  A    between atoms: C_9  and  C_14 
ROOT
HETATM    1  O   UNL     1      17.972   5.860   9.246  1.00  0.00    -0.358 OA
HETATM    2  H   UNL     1      18.439   5.101   8.955  1.00  0.00     0.217 HD
ENDROOT
BRANCH   1   3
HETATM    3  C   UNL     1      17.268   5.821  10.413  1.00  0.00     0.099 A 
HETATM    4  C   UNL     1      15.917   6.167  10.409  1.00  0.00     0.046 A 
HETATM    5  C   UNL     1      15.185   6.133  11.597  1.00  0.00    -0.055 A 
HETATM    6  C   UNL     1      15.806   5.754  12.788  1.00  0.00     0.010 A 
HETATM    7  C   UNL     1      17.157   5.407  12.790  1.00  0.00     0.040 A 
HETATM    8  C   UNL     1      17.888   5.441  11.602  1.00  0.00     0.098 A 
BRANCH   5   9
HETATM    9  C   UNL     1      13.725   6.508  11.594  1.00  0.00     0.038 C 
BRANCH   9  10
HETATM   10  C   UNL     1      12.774   5.306  11.606  1.00  0.00     0.005 C 
BRANCH  10  11
HETATM   11  C   UNL     1      12.056   5.096  10.266  1.00  0.00     0.011 C 
BRANCH  11  12
HETATM   12  C   UNL     1      12.329   6.228   9.275  1.00  0.00     0.113 C 
BRANCH  12  13
HETATM   13  C   UNL     1      12.794   5.740   7.922  1.00  0.00     0.172 C 
HETATM   14  O   UNL     1      12.566   4.409   7.769  1.00  0.00    -0.648 OA
HETATM   15  O   UNL     1      13.296   6.435   7.049  1.00  0.00    -0.648 OA
ENDBRANCH  12  13
ENDBRANCH  11  12
ENDBRANCH  10  11
ENDBRANCH   9  10
ENDBRANCH   5   9
BRANCH   8  16
HETATM   16  O   UNL     1      19.207   5.101  11.617  1.00  0.00    -0.358 OA
HETATM   17  H   UNL     1      19.555   4.546  10.947  1.00  0.00     0.217 HD
ENDBRANCH   8  16
ENDBRANCH   1   3
TORSDOF 7
ENDMDL
MODEL 3
REMARK VINA RESULT:      -6.8      3.629      5.878
REMARK  7 active torsions:
REMARK  status: ('A' for Active; 'I' for Inactive)
REMARK    1  A    between atoms: O_1  and  C_12 
REMARK    2  A    between atoms: O_3  and  C_15 
REMARK    3  A    between atoms: C_5  and  C_6 
REMARK    4  A    between atoms: C_5  and  C_7 
REMARK    5  A    between atoms: C_6  and  C_8 
REMARK    6  A    between atoms: C_7  and  C_9 
REMARK    7  A    between atoms: C_9  and  C_14 
ROOT
HETATM    1  O   UNL     1      11.930   6.906  17.200  1.00  0.00    -0.358 OA
HETATM    2  H   UNL     1      11.530   7.740  17.355  1.00  0.00     0.217 HD
ENDROOT
BRANCH   1   3
HETATM    3  C   UNL     1      12.657   6.700  16.066  1.00  0.00     0.099 A 
HETATM    4  C   UNL     1      11.996   6.555  14.846  1.00  0.00     0.046 A 
HETATM    5  C   UNL     1      12.729   6.341  13.678  1.00  0.00    -0.055 A 
HETATM    6  C   UNL     1      14.121   6.272  13.730  1.00  0.00     0.010 A 
HETATM    7  C   UNL     1      14.781   6.419  14.951  1.00  0.00     0.040 A 
HETATM    8  C   UNL     1      14.048   6.632  16.118  1.00  0.00     0.098 A 
BRANCH   5   9
HETATM    9  C   UNL     1      12.015   6.182  12.359  1.00  0.00     0.038 C 
BRANCH   9  10
HETATM   10  C   UNL     1      12.953   6.110  11.149  1.00  0.00     0.005 C 
BRANCH  10  11
HETATM   11  C   UNL     1      12.292   5.479   9.916  1.00  0.00     0.011 C 
BRANCH  11  12
HETATM   12  C   UNL     1      12.328   6.404   8.699  1.00  0.00     0.113 C 
BRANCH  12  13
HETATM   13  C   UNL     1      12.323   5.661   7.382  1.00  0.00     0.172 C 
HETATM   14  O   UNL     1      12.703   4.366   7.541  1.00  0.00    -0.648 OA
HETATM   15  O   UNL     1      12.005   6.134   6.300  1.00  0.00    -0.648 OA
ENDBRANCH  12  13
ENDBRANCH  11  12
ENDBRANCH  10  11
ENDBRANCH   9  10
ENDBRANCH   5   9
BRANCH   8  16
HETATM   16  O   UNL     1      14.704   6.772  17.305  1.00  0.00    -0.358 OA
HETATM   17  H   UNL     1      14.288   6.514  18.103  1.00  0.00     0.217 HD
ENDBRANCH   8  16
ENDBRANCH   1   3
TORSDOF 7
ENDMDL
MODEL 4
REMARK VINA RESULT:      -6.8      2.926      5.086
REMARK  7 active torsions:
REMARK  status: ('A' for Active; 'I' for Inactive)
REMARK    1  A    between atoms: O_1  and  C_12 
REMARK    2  A    between atoms: O_3  and  C_15 
REMARK    3  A    between atoms: C_5  and  C_6 
REMARK    4  A    between atoms: C_5  and  C_7 
REMARK    5  A    between atoms: C_6  and  C_8 
REMARK    6  A    between atoms: C_7  and  C_9 
REMARK    7  A    between atoms: C_9  and  C_14 
ROOT
HETATM    1  O   UNL     1      10.923   6.819  14.416  1.00  0.00    -0.358 OA
HETATM    2  H   UNL     1      10.490   6.529  13.636  1.00  0.00     0.217 HD
ENDROOT
BRANCH   1   3
HETATM    3  C   UNL     1      12.254   6.579  14.586  1.00  0.00     0.099 A 
HETATM    4  C   UNL     1      13.042   6.278  13.475  1.00  0.00     0.046 A 
HETATM    5  C   UNL     1      14.406   6.029  13.636  1.00  0.00    -0.055 A 
HETATM    6  C   UNL     1      14.980   6.079  14.906  1.00  0.00     0.010 A 
HETATM    7  C   UNL     1      14.190   6.381  16.016  1.00  0.00     0.040 A 
HETATM    8  C   UNL     1      12.827   6.630  15.855  1.00  0.00     0.098 A 
BRANCH   5   9
HETATM    9  C   UNL     1      15.259   5.702  12.435  1.00  0.00     0.038 C 
BRANCH   9  10
HETATM   10  C   UNL     1      15.186   6.749  11.318  1.00  0.00     0.005 C 
BRANCH  10  11
HETATM   11  C   UNL     1      14.747   6.158   9.971  1.00  0.00     0.011 C 
BRANCH  11  12
HETATM   12  C   UNL     1      13.247   5.870   9.922  1.00  0.00     0.113 C 
BRANCH  12  13
HETATM   13  C   UNL     1      12.675   5.911   8.523  1.00  0.00     0.172 C 
HETATM   14  O   UNL     1      13.038   4.816   7.806  1.00  0.00    -0.648 OA
HETATM   15  O   UNL     1      11.956   6.794   8.075  1.00  0.00    -0.648 OA
ENDBRANCH  12  13
ENDBRANCH  11  12
ENDBRANCH  10  11
ENDBRANCH   9  10
ENDBRANCH   5   9
BRANCH   8  16
HETATM   16  O   UNL     1      12.066   6.923  16.947  1.00  0.00    -0.358 OA
HETATM   17  H   UNL     1      12.379   7.533  17.586  1.00  0.00     0.217 HD
ENDBRANCH   8  16
ENDBRANCH   1   3
TORSDOF 7
ENDMDL
MODEL 5
REMARK VINA RESULT:      -6.6      1.383      5.106
REMARK  7 active torsions:
REMARK  status: ('A' for Active; 'I' for Inactive)
REMARK    1  A    between atoms: O_1  and  C_12 
REMARK    2  A    between atoms: O_3  and  C_15 
REMARK    3  A    between atoms: C_5  and  C_6 
REMARK    4  A    between atoms: C_5  and  C_7 
REMARK    5  A    between atoms: C_6  and  C_8 
REMARK    6  A    between atoms: C_7  and  C_9 
REMARK    7  A    between atoms: C_9  and  C_14 
ROOT
HETATM    1  O   UNL     1      17.442   7.777   9.086  1.00  0.00    -0.358 OA
HETATM    2  H   UNL     1      17.940   7.405   8.384  1.00  0.00     0.217 HD
ENDROOT
BRANCH   1   3
HETATM    3  C   UNL     1      17.137   7.022  10.179  1.00  0.00     0.099 A 
HETATM    4  C   UNL     1      15.941   7.254  10.859  1.00  0.00     0.046 A 
HETATM    5  C   UNL     1      15.618   6.490  11.981  1.00  0.00    -0.055 A 
HETATM    6  C   UNL     1      16.491   5.495  12.422  1.00  0.00     0.010 A 
HETATM    7  C   UNL     1      17.686   5.263  11.741  1.00  0.00     0.040 A 
HETATM    8  C   UNL     1      18.009   6.028  10.620  1.00  0.00     0.098 A 
BRANCH   5   9
HETATM    9  C   UNL     1      14.326   6.741  12.717  1.00  0.00     0.038 C 
BRANCH   9  10
HETATM   10  C   UNL     1      13.243   5.690  12.449  1.00  0.00     0.005 C 
BRANCH  10  11
HETATM   11  C   UNL     1      12.214   6.143  11.404  1.00  0.00     0.011 C 
BRANCH  11  12
HETATM   12  C   UNL     1      12.227   5.263  10.154  1.00  0.00     0.113 C 
BRANCH  12  13
HETATM   13  C   UNL     1      12.766   5.969   8.930  1.00  0.00     0.172 C 
HETATM   14  O   UNL     1      11.864   6.852   8.429  1.00  0.00    -0.648 OA
HETATM   15  O   UNL     1      13.876   5.801   8.444  1.00  0.00    -0.648 OA
ENDBRANCH  12  13
ENDBRANCH  11  12
ENDBRANCH  10  11
ENDBRANCH   9  10
ENDBRANCH   5   9
BRANCH   8  16
HETATM   16  O   UNL     1      19.180   5.793   9.963  1.00  0.00    -0.358 OA
HETATM   17  H   UNL     1      19.169   5.566   9.054  1.00  0.00     0.217 HD
ENDBRANCH   8  16
ENDBRANCH   1   3
TORSDOF 7
ENDMDL
MODEL 6
REMARK VINA RESULT:      -6.6      2.912      4.383
REMARK  7 active torsions:
REMARK  status: ('A' for Active; 'I' for Inactive)
REMARK    1  A    between atoms: O_1  and  C_12 
REMARK    2  A    between atoms: O_3  and  C_15 
REMARK    3  A    between atoms: C_5  and  C_6 
REMARK    4  A    between atoms: C_5  and  C_7 
REMARK    5  A    between atoms: C_6  and  C_8 
REMARK    6  A    between atoms: C_7  and  C_9 
REMARK    7  A    between atoms: C_9  and  C_14 
ROOT
HETATM    1  O   UNL     1      11.107   6.449  15.044  1.00  0.00    -0.358 OA
HETATM    2  H   UNL     1      10.676   7.281  15.067  1.00  0.00     0.217 HD
ENDROOT
BRANCH   1   3
HETATM    3  C   UNL     1      12.462   6.381  15.172  1.00  0.00     0.099 A 
HETATM    4  C   UNL     1      13.246   6.152  14.041  1.00  0.00     0.046 A 
HETATM    5  C   UNL     1      14.635   6.078  14.159  1.00  0.00    -0.055 A 
HETATM    6  C   UNL     1      15.238   6.232  15.408  1.00  0.00     0.010 A 
HETATM    7  C   UNL     1      14.453   6.463  16.538  1.00  0.00     0.040 A 
HETATM    8  C   UNL     1      13.065   6.536  16.419  1.00  0.00     0.098 A 
BRANCH   5   9
HETATM    9  C   UNL     1      15.483   5.828  12.937  1.00  0.00     0.038 C 
BRANCH   9  10
HETATM   10  C   UNL     1      14.732   6.006  11.613  1.00  0.00     0.005 C 
BRANCH  10  11
HETATM   11  C   UNL     1      15.669   6.219  10.417  1.00  0.00     0.011 C 
BRANCH  11  12
HETATM   12  C   UNL     1      17.141   6.033  10.789  1.00  0.00     0.113 C 
BRANCH  12  13
HETATM   13  C   UNL     1      18.081   6.866   9.946  1.00  0.00     0.172 C 
HETATM   14  O   UNL     1      18.630   6.133   8.943  1.00  0.00    -0.648 OA
HETATM   15  O   UNL     1      18.319   8.055  10.111  1.00  0.00    -0.648 OA
ENDBRANCH  12  13
ENDBRANCH  11  12
ENDBRANCH  10  11
ENDBRANCH   9  10
ENDBRANCH   5   9
BRANCH   8  16
HETATM   16  O   UNL     1      12.309   6.761  17.530  1.00  0.00    -0.358 OA
HETATM   17  H   UNL     1      12.678   7.211  18.264  1.00  0.00     0.217 HD
ENDBRANCH   8  16
ENDBRANCH   1   3
TORSDOF 7
ENDMDL
MODEL 7
REMARK VINA RESULT:      -6.6      1.886      5.357
REMARK  7 active torsions:
REMARK  status: ('A' for Active; 'I' for Inactive)
REMARK    1  A    between atoms: O_1  and  C_12 
REMARK    2  A    between atoms: O_3  and  C_15 
REMARK    3  A    between atoms: C_5  and  C_6 
REMARK    4  A    between atoms: C_5  and  C_7 
REMARK    5  A    between atoms: C_6  and  C_8 
REMARK    6  A    between atoms: C_7  and  C_9 
REMARK    7  A    between atoms: C_9  and  C_14 
ROOT
HETATM    1  O   UNL     1      18.284   4.936  13.643  1.00  0.00    -0.358 OA
HETATM    2  H   UNL     1      17.851   4.714  14.444  1.00  0.00     0.217 HD
ENDROOT
BRANCH   1   3
HETATM    3  C   UNL     1      17.557   5.357  12.570  1.00  0.00     0.099 A 
HETATM    4  C   UNL     1      16.217   5.705  12.744  1.00  0.00     0.046 A 
HETATM    5  C   UNL     1      15.461   6.136  11.653  1.00  0.00    -0.055 A 
HETATM    6  C   UNL     1      16.045   6.219  10.389  1.00  0.00     0.010 A 
HETATM    7  C   UNL     1      17.386   5.872  10.216  1.00  0.00     0.040 A 
HETATM    8  C   UNL     1      18.140   5.441  11.307  1.00  0.00     0.098 A 
BRANCH   5   9
HETATM    9  C   UNL     1      14.012   6.511  11.841  1.00  0.00     0.038 C 
BRANCH   9  10
HETATM   10  C   UNL     1      13.028   5.524  11.204  1.00  0.00     0.005 C 
BRANCH  10  11
HETATM   11  C   UNL     1      12.250   6.130  10.027  1.00  0.00     0.011 C 
BRANCH  11  12
HETATM   12  C   UNL     1      12.418   5.322   8.740  1.00  0.00     0.113 C 
BRANCH  12  13
HETATM   13  C   UNL     1      12.764   6.174   7.540  1.00  0.00     0.172 C 
HETATM   14  O   UNL     1      11.848   6.027   6.546  1.00  0.00    -0.648 OA
HETATM   15  O   UNL     1      13.726   6.924   7.454  1.00  0.00    -0.648 OA
ENDBRANCH  12  13
ENDBRANCH  11  12
ENDBRANCH  10  11
ENDBRANCH   9  10
ENDBRANCH   5   9
BRANCH   8  16
HETATM   16  O   UNL     1      19.448   5.104  11.125  1.00  0.00    -0.358 OA
HETATM   17  H   UNL     1      20.123   5.723  11.321  1.00  0.00     0.217 HD
ENDBRANCH   8  16
ENDBRANCH   1   3
TORSDOF 7
ENDMDL
MODEL 8
REMARK VINA RESULT:      -6.6      2.162      2.945
REMARK  7 active torsions:
REMARK  status: ('A' for Active; 'I' for Inactive)
REMARK    1  A    between atoms: O_1  and  C_12 
REMARK    2  A    between atoms: O_3  and  C_15 
REMARK    3  A    between atoms: C_5  and  C_6 
REMARK    4  A    between atoms: C_5  and  C_7 
REMARK    5  A    between atoms: C_6  and  C_8 
REMARK    6  A    between atoms: C_7  and  C_9 
REMARK    7  A    between atoms: C_9  and  C_14 
ROOT
HETATM    1  O   UNL     1      11.988   5.470   8.555  1.00  0.00    -0.358 OA
HETATM    2  H   UNL     1      12.140   4.737   7.992  1.00  0.00     0.217 HD
ENDROOT
BRANCH   1   3
HETATM    3  C   UNL     1      12.762   5.650   9.663  1.00  0.00     0.099 A 
HETATM    4  C   UNL     1      14.062   6.134   9.520  1.00  0.00     0.046 A 
HETATM    5  C   UNL     1      14.864   6.320  10.646  1.00  0.00    -0.055 A 
HETATM    6  C   UNL     1      14.367   6.021  11.914  1.00  0.00     0.010 A 
HETATM    7  C   UNL     1      13.065   5.538  12.057  1.00  0.00     0.040 A 
HETATM    8  C   UNL     1      12.264   5.351  10.931  1.00  0.00     0.098 A 
BRANCH   5   9
HETATM    9  C   UNL     1      16.271   6.842  10.491  1.00  0.00     0.038 C 
BRANCH   9  10
HETATM   10  C   UNL     1      17.354   5.840  10.903  1.00  0.00     0.005 C 
BRANCH  10  11
HETATM   11  C   UNL     1      17.973   6.156  12.272  1.00  0.00     0.011 C 
BRANCH  11  12
HETATM   12  C   UNL     1      17.806   5.006  13.266  1.00  0.00     0.113 C 
BRANCH  12  13
HETATM   13  C   UNL     1      19.051   4.161  13.419  1.00  0.00     0.172 C 
HETATM   14  O   UNL     1      19.008   3.414  14.553  1.00  0.00    -0.648 OA
HETATM   15  O   UNL     1      19.984   4.120  12.628  1.00  0.00    -0.648 OA
ENDBRANCH  12  13
ENDBRANCH  11  12
ENDBRANCH  10  11
ENDBRANCH   9  10
ENDBRANCH   5   9
BRANCH   8  16
HETATM   16  O   UNL     1      10.995   4.878  11.082  1.00  0.00    -0.358 OA
HETATM   17  H   UNL     1      10.318   5.157  10.498  1.00  0.00     0.217 HD
ENDBRANCH   8  16
ENDBRANCH   1   3
TORSDOF 7
ENDMDL
MODEL 9
REMARK VINA RESULT:      -6.5      2.253      2.823
REMARK  7 active torsions:
REMARK  status: ('A' for Active; 'I' for Inactive)
REMARK    1  A    between atoms: O_1  and  C_12 
REMARK    2  A    between atoms: O_3  and  C_15 
REMARK    3  A    between atoms: C_5  and  C_6 
REMARK    4  A    between atoms: C_5  and  C_7 
REMARK    5  A    between atoms: C_6  and  C_8 
REMARK    6  A    between atoms: C_7  and  C_9 
REMARK    7  A    between atoms: C_9  and  C_14 
ROOT
HETATM    1  O   UNL     1      12.429   4.991  13.469  1.00  0.00    -0.358 OA
HETATM    2  H   UNL     1      12.740   5.354  14.275  1.00  0.00     0.217 HD
ENDROOT
BRANCH   1   3
HETATM    3  C   UNL     1      12.978   5.386  12.286  1.00  0.00     0.099 A 
HETATM    4  C   UNL     1      14.284   5.877  12.268  1.00  0.00     0.046 A 
HETATM    5  C   UNL     1      14.857   6.287  11.063  1.00  0.00    -0.055 A 
HETATM    6  C   UNL     1      14.124   6.207   9.879  1.00  0.00     0.010 A 
HETATM    7  C   UNL     1      12.818   5.715   9.899  1.00  0.00     0.040 A 
HETATM    8  C   UNL     1      12.246   5.306  11.103  1.00  0.00     0.098 A 
BRANCH   5   9
HETATM    9  C   UNL     1      16.268   6.818  11.043  1.00  0.00     0.038 C 
BRANCH   9  10
HETATM   10  C   UNL     1      17.292   5.840  10.457  1.00  0.00     0.005 C 
BRANCH  10  11
HETATM   11  C   UNL     1      18.496   5.608  11.380  1.00  0.00     0.011 C 
BRANCH  11  12
HETATM   12  C   UNL     1      18.077   5.195  12.791  1.00  0.00     0.113 C 
BRANCH  12  13
HETATM   13  C   UNL     1      19.069   4.272  13.463  1.00  0.00     0.172 C 
HETATM   14  O   UNL     1      20.015   3.839  12.590  1.00  0.00    -0.648 OA
HETATM   15  O   UNL     1      19.058   3.957  14.645  1.00  0.00    -0.648 OA
ENDBRANCH  12  13
ENDBRANCH  11  12
ENDBRANCH  10  11
ENDBRANCH   9  10
ENDBRANCH   5   9
BRANCH   8  16
HETATM   16  O   UNL     1      10.969   4.828  11.110  1.00  0.00    -0.358 OA
HETATM   17  H   UNL     1      10.247   5.423  11.170  1.00  0.00     0.217 HD
ENDBRANCH   8  16
ENDBRANCH   1   3
TORSDOF 7
ENDMDL
