MODEL 1
REMARK VINA RESULT:      -6.1      0.000      0.000
REMARK  3 active torsions:
REMARK  status: ('A' for Active; 'I' for Inactive)
REMARK    1  A    between atoms: C_3  and  C_4 
REMARK    2  A    between atoms: C_3  and  C_5 
REMARK    3  A    between atoms: C_5  and  C_10 
ROOT
HETATM    1  O   UNL     1     -50.756  48.379  15.670  1.00  0.00    -0.648 OA
HETATM    2  O   UNL     1     -52.390  49.953  15.541  1.00  0.00    -0.648 OA
HETATM    3  C   UNL     1     -51.866  48.929  15.118  1.00  0.00     0.172 C 
ENDROOT
BRANCH   3   4
HETATM    4  C   UNL     1     -52.364  48.167  13.914  1.00  0.00     0.117 C 
BRANCH   4   5
HETATM    5  C   UNL     1     -53.569  48.858  13.265  1.00  0.00     0.049 C 
BRANCH   5   6
HETATM    6  C   UNL     1     -53.457  48.993  11.784  1.00  0.00    -0.058 A 
HETATM    7  C   UNL     1     -53.082  47.895  11.010  1.00  0.00     0.007 A 
HETATM    8  C   UNL     1     -52.977  48.020   9.624  1.00  0.00     0.001 A 
HETATM    9  C   UNL     1     -53.248  49.245   9.013  1.00  0.00     0.000 A 
HETATM   10  C   UNL     1     -53.623  50.343   9.787  1.00  0.00     0.001 A 
HETATM   11  C   UNL     1     -53.728  50.217  11.172  1.00  0.00     0.007 A 
ENDBRANCH   5   6
ENDBRANCH   4   5
ENDBRANCH   3   4
TORSDOF 3
ENDMDL
MODEL 2
REMARK VINA RESULT:      -6.0      0.180      1.466
REMARK  3 active torsions:
REMARK  status: ('A' for Active; 'I' for Inactive)
REMARK    1  A    between atoms: C_3  and  C_4 
REMARK    2  A    between atoms: C_3  and  C_5 
REMARK    3  A    between atoms: C_5  and  C_10 
ROOT
HETATM    1  O   UNL     1     -50.928  48.178  15.809  1.00  0.00    -0.648 OA
HETATM    2  O   UNL     1     -52.419  49.882  15.617  1.00  0.00    -0.648 OA
HETATM    3  C   UNL     1     -51.906  48.864  15.167  1.00  0.00     0.172 C 
ENDROOT
BRANCH   3   4
HETATM    4  C   UNL     1     -52.271  48.260  13.833  1.00  0.00     0.117 C 
BRANCH   4   5
HETATM    5  C   UNL     1     -53.442  48.999  13.177  1.00  0.00     0.049 C 
BRANCH   5   6
HETATM    6  C   UNL     1     -53.381  49.018  11.687  1.00  0.00    -0.058 A 
HETATM    7  C   UNL     1     -53.686  50.188  10.991  1.00  0.00     0.007 A 
HETATM    8  C   UNL     1     -53.630  50.206   9.597  1.00  0.00     0.001 A 
HETATM    9  C   UNL     1     -53.267  49.054   8.900  1.00  0.00     0.000 A 
HETATM   10  C   UNL     1     -52.962  47.884   9.595  1.00  0.00     0.001 A 
HETATM   11  C   UNL     1     -53.018  47.866  10.988  1.00  0.00     0.007 A 
ENDBRANCH   5   6
ENDBRANCH   4   5
ENDBRANCH   3   4
TORSDOF 3
ENDMDL
MODEL 3
REMARK VINA RESULT:      -6.0      2.681      4.591
REMARK  3 active torsions:
REMARK  status: ('A' for Active; 'I' for Inactive)
REMARK    1  A    between atoms: C_3  and  C_4 
REMARK    2  A    between atoms: C_3  and  C_5 
REMARK    3  A    between atoms: C_5  and  C_10 
ROOT
HETATM    1  O   UNL     1     -54.191  52.677   9.481  1.00  0.00    -0.648 OA
HETATM    2  O   UNL     1     -53.416  52.110  11.540  1.00  0.00    -0.648 OA
HETATM    3  C   UNL     1     -53.687  51.802  10.386  1.00  0.00     0.172 C 
ENDROOT
BRANCH   3   4
HETATM    4  C   UNL     1     -53.528  50.407   9.830  1.00  0.00     0.117 C 
BRANCH   4   5
HETATM    5  C   UNL     1     -54.351  49.384  10.621  1.00  0.00     0.049 C 
BRANCH   5   6
HETATM    6  C   UNL     1     -53.538  48.554  11.555  1.00  0.00    -0.058 A 
HETATM    7  C   UNL     1     -53.410  48.932  12.892  1.00  0.00     0.007 A 
HETATM    8  C   UNL     1     -52.650  48.156  13.768  1.00  0.00     0.001 A 
HETATM    9  C   UNL     1     -52.019  47.001  13.306  1.00  0.00     0.000 A 
HETATM   10  C   UNL     1     -52.146  46.623  11.969  1.00  0.00     0.001 A 
HETATM   11  C   UNL     1     -52.907  47.399  11.095  1.00  0.00     0.007 A 
ENDBRANCH   5   6
ENDBRANCH   4   5
ENDBRANCH   3   4
TORSDOF 3
ENDMDL
MODEL 4
REMARK VINA RESULT:      -5.8      2.757      4.408
REMARK  3 active torsions:
REMARK  status: ('A' for Active; 'I' for Inactive)
REMARK    1  A    between atoms: C_3  and  C_4 
REMARK    2  A    between atoms: C_3  and  C_5 
REMARK    3  A    between atoms: C_5  and  C_10 
ROOT
HETATM    1  O   UNL     1     -53.397  52.274  11.588  1.00  0.00    -0.648 OA
HETATM    2  O   UNL     1     -53.719  52.242   9.340  1.00  0.00    -0.648 OA
HETATM    3  C   UNL     1     -53.612  51.648  10.405  1.00  0.00     0.172 C 
ENDROOT
BRANCH   3   4
HETATM    4  C   UNL     1     -53.672  50.145  10.538  1.00  0.00     0.117 C 
BRANCH   4   5
HETATM    5  C   UNL     1     -53.746  49.709  12.005  1.00  0.00     0.049 C 
BRANCH   5   6
HETATM    6  C   UNL     1     -53.080  48.403  12.277  1.00  0.00    -0.058 A 
HETATM    7  C   UNL     1     -52.858  47.502  11.235  1.00  0.00     0.007 A 
HETATM    8  C   UNL     1     -52.235  46.280  11.488  1.00  0.00     0.001 A 
HETATM    9  C   UNL     1     -51.832  45.959  12.784  1.00  0.00     0.000 A 
HETATM   10  C   UNL     1     -52.053  46.859  13.827  1.00  0.00     0.001 A 
HETATM   11  C   UNL     1     -52.676  48.081  13.573  1.00  0.00     0.007 A 
ENDBRANCH   5   6
ENDBRANCH   4   5
ENDBRANCH   3   4
TORSDOF 3
ENDMDL
MODEL 5
REMARK VINA RESULT:      -5.7      4.007      5.116
REMARK  3 active torsions:
REMARK  status: ('A' for Active; 'I' for Inactive)
REMARK    1  A    between atoms: C_3  and  C_4 
REMARK    2  A    between atoms: C_3  and  C_5 
REMARK    3  A    between atoms: C_5  and  C_10 
ROOT
HETATM    1  O   UNL     1     -54.679  44.671   7.831  1.00  0.00    -0.648 OA
HETATM    2  O   UNL     1     -55.787  46.276   8.997  1.00  0.00    -0.648 OA
HETATM    3  C   UNL     1     -54.784  45.596   8.817  1.00  0.00     0.172 C 
ENDROOT
BRANCH   3   4
HETATM    4  C   UNL     1     -53.551  45.674   9.685  1.00  0.00     0.117 C 
BRANCH   4   5
HETATM    5  C   UNL     1     -52.666  46.866   9.305  1.00  0.00     0.049 C 
BRANCH   5   6
HETATM    6  C   UNL     1     -53.004  48.121  10.035  1.00  0.00    -0.058 A 
HETATM    7  C   UNL     1     -52.943  48.156  11.429  1.00  0.00     0.007 A 
HETATM    8  C   UNL     1     -53.259  49.330  12.113  1.00  0.00     0.001 A 
HETATM    9  C   UNL     1     -53.637  50.469  11.403  1.00  0.00     0.000 A 
HETATM   10  C   UNL     1     -53.700  50.436  10.010  1.00  0.00     0.001 A 
HETATM   11  C   UNL     1     -53.382  49.262   9.327  1.00  0.00     0.007 A 
ENDBRANCH   5   6
ENDBRANCH   4   5
ENDBRANCH   3   4
TORSDOF 3
ENDMDL
MODEL 6
REMARK VINA RESULT:      -5.6      3.351      4.883
REMARK  3 active torsions:
REMARK  status: ('A' for Active; 'I' for Inactive)
REMARK    1  A    between atoms: C_3  and  C_4 
REMARK    2  A    between atoms: C_3  and  C_5 
REMARK    3  A    between atoms: C_5  and  C_10 
ROOT
HETATM    1  O   UNL     1     -53.654  48.187   8.151  1.00  0.00    -0.648 OA
HETATM    2  O   UNL     1     -53.298  50.413   8.431  1.00  0.00    -0.648 OA
HETATM    3  C   UNL     1     -53.749  49.351   8.840  1.00  0.00     0.172 C 
ENDROOT
BRANCH   3   4
HETATM    4  C   UNL     1     -54.495  49.203  10.145  1.00  0.00     0.117 C 
BRANCH   4   5
HETATM    5  C   UNL     1     -53.699  49.778  11.321  1.00  0.00     0.049 C 
BRANCH   5   6
HETATM    6  C   UNL     1     -53.050  48.740  12.172  1.00  0.00    -0.058 A 
HETATM    7  C   UNL     1     -52.724  47.497  11.628  1.00  0.00     0.007 A 
HETATM    8  C   UNL     1     -52.117  46.525  12.423  1.00  0.00     0.001 A 
HETATM    9  C   UNL     1     -51.836  46.796  13.763  1.00  0.00     0.000 A 
HETATM   10  C   UNL     1     -52.162  48.038  14.307  1.00  0.00     0.001 A 
HETATM   11  C   UNL     1     -52.769  49.010  13.511  1.00  0.00     0.007 A 
ENDBRANCH   5   6
ENDBRANCH   4   5
ENDBRANCH   3   4
TORSDOF 3
ENDMDL
MODEL 7
REMARK VINA RESULT:      -5.6      4.025      5.287
REMARK  3 active torsions:
REMARK  status: ('A' for Active; 'I' for Inactive)
REMARK    1  A    between atoms: C_3  and  C_4 
REMARK    2  A    between atoms: C_3  and  C_5 
REMARK    3  A    between atoms: C_5  and  C_10 
ROOT
HETATM    1  O   UNL     1     -55.675  46.292   8.946  1.00  0.00    -0.648 OA
HETATM    2  O   UNL     1     -54.573  44.722   7.727  1.00  0.00    -0.648 OA
HETATM    3  C   UNL     1     -54.628  45.465   8.700  1.00  0.00     0.172 C 
ENDROOT
BRANCH   3   4
HETATM    4  C   UNL     1     -53.531  45.583   9.730  1.00  0.00     0.117 C 
BRANCH   4   5
HETATM    5  C   UNL     1     -52.594  46.758   9.428  1.00  0.00     0.049 C 
BRANCH   5   6
HETATM    6  C   UNL     1     -52.960  48.015  10.141  1.00  0.00    -0.058 A 
HETATM    7  C   UNL     1     -53.373  49.134   9.416  1.00  0.00     0.007 A 
HETATM    8  C   UNL     1     -53.715  50.310  10.083  1.00  0.00     0.001 A 
HETATM    9  C   UNL     1     -53.645  50.368  11.475  1.00  0.00     0.000 A 
HETATM   10  C   UNL     1     -53.233  49.250  12.200  1.00  0.00     0.001 A 
HETATM   11  C   UNL     1     -52.891  48.074  11.533  1.00  0.00     0.007 A 
ENDBRANCH   5   6
ENDBRANCH   4   5
ENDBRANCH   3   4
TORSDOF 3
ENDMDL
MODEL 8
REMARK VINA RESULT:      -5.6      4.236      5.777
REMARK  3 active torsions:
REMARK  status: ('A' for Active; 'I' for Inactive)
REMARK    1  A    between atoms: C_3  and  C_4 
REMARK    2  A    between atoms: C_3  and  C_5 
REMARK    3  A    between atoms: C_5  and  C_10 
ROOT
HETATM    1  O   UNL     1     -54.110  46.090   7.770  1.00  0.00    -0.648 OA
HETATM    2  O   UNL     1     -52.773  46.336   5.950  1.00  0.00    -0.648 OA
HETATM    3  C   UNL     1     -53.102  46.677   7.080  1.00  0.00     0.172 C 
ENDROOT
BRANCH   3   4
HETATM    4  C   UNL     1     -52.454  47.811   7.836  1.00  0.00     0.117 C 
BRANCH   4   5
HETATM    5  C   UNL     1     -53.497  48.731   8.481  1.00  0.00     0.049 C 
BRANCH   5   6
HETATM    6  C   UNL     1     -53.356  48.856   9.959  1.00  0.00    -0.058 A 
HETATM    7  C   UNL     1     -53.546  50.092  10.577  1.00  0.00     0.007 A 
HETATM    8  C   UNL     1     -53.415  50.210  11.961  1.00  0.00     0.001 A 
HETATM    9  C   UNL     1     -53.093  49.089  12.727  1.00  0.00     0.000 A 
HETATM   10  C   UNL     1     -52.902  47.853  12.111  1.00  0.00     0.001 A 
HETATM   11  C   UNL     1     -53.035  47.736  10.727  1.00  0.00     0.007 A 
ENDBRANCH   5   6
ENDBRANCH   4   5
ENDBRANCH   3   4
TORSDOF 3
ENDMDL
MODEL 9
REMARK VINA RESULT:      -5.5      4.432      5.796
REMARK  3 active torsions:
REMARK  status: ('A' for Active; 'I' for Inactive)
REMARK    1  A    between atoms: C_3  and  C_4 
REMARK    2  A    between atoms: C_3  and  C_5 
REMARK    3  A    between atoms: C_5  and  C_10 
ROOT
HETATM    1  O   UNL     1     -53.916  45.361   7.384  1.00  0.00    -0.648 OA
HETATM    2  O   UNL     1     -53.208  46.590   5.610  1.00  0.00    -0.648 OA
HETATM    3  C   UNL     1     -53.161  46.327   6.805  1.00  0.00     0.172 C 
ENDROOT
BRANCH   3   4
HETATM    4  C   UNL     1     -52.286  47.061   7.793  1.00  0.00     0.117 C 
BRANCH   4   5
HETATM    5  C   UNL     1     -52.752  46.840   9.236  1.00  0.00     0.049 C 
BRANCH   5   6
HETATM    6  C   UNL     1     -53.049  48.103   9.970  1.00  0.00    -0.058 A 
HETATM    7  C   UNL     1     -53.383  49.259   9.263  1.00  0.00     0.007 A 
HETATM    8  C   UNL     1     -53.661  50.442   9.949  1.00  0.00     0.001 A 
HETATM    9  C   UNL     1     -53.606  50.468  11.343  1.00  0.00     0.000 A 
HETATM   10  C   UNL     1     -53.273  49.313  12.050  1.00  0.00     0.001 A 
HETATM   11  C   UNL     1     -52.996  48.131  11.364  1.00  0.00     0.007 A 
ENDBRANCH   5   6
ENDBRANCH   4   5
ENDBRANCH   3   4
TORSDOF 3
ENDMDL
