MODEL 1
REMARK VINA RESULT:      -6.2      0.000      0.000
REMARK  3 active torsions:
REMARK  status: ('A' for Active; 'I' for Inactive)
REMARK    1  A    between atoms: C_3  and  C_4 
REMARK    2  A    between atoms: C_3  and  C_5 
REMARK    3  A    between atoms: C_5  and  C_10 
ROOT
HETATM    1  O   UNL     1     -52.446  49.866  15.619  1.00  0.00    -0.648 OA
HETATM    2  O   UNL     1     -50.734  48.386  15.823  1.00  0.00    -0.648 OA
HETATM    3  C   UNL     1     -51.722  48.790  15.223  1.00  0.00     0.172 C 
ENDROOT
BRANCH   3   4
HETATM    4  C   UNL     1     -52.282  48.128  13.987  1.00  0.00     0.117 C 
BRANCH   4   5
HETATM    5  C   UNL     1     -53.447  48.929  13.393  1.00  0.00     0.049 C 
BRANCH   5   6
HETATM    6  C   UNL     1     -53.402  49.041  11.907  1.00  0.00    -0.058 A 
HETATM    7  C   UNL     1     -53.049  47.935  11.135  1.00  0.00     0.007 A 
HETATM    8  C   UNL     1     -53.007  48.038   9.744  1.00  0.00     0.001 A 
HETATM    9  C   UNL     1     -53.319  49.249   9.126  1.00  0.00     0.000 A 
HETATM   10  C   UNL     1     -53.673  50.356   9.898  1.00  0.00     0.001 A 
HETATM   11  C   UNL     1     -53.715  50.251  11.288  1.00  0.00     0.007 A 
ENDBRANCH   5   6
ENDBRANCH   4   5
ENDBRANCH   3   4
TORSDOF 3
ENDMDL
MODEL 2
REMARK VINA RESULT:      -6.2      0.057      1.458
REMARK  3 active torsions:
REMARK  status: ('A' for Active; 'I' for Inactive)
REMARK    1  A    between atoms: C_3  and  C_4 
REMARK    2  A    between atoms: C_3  and  C_5 
REMARK    3  A    between atoms: C_5  and  C_10 
ROOT
HETATM    1  O   UNL     1     -52.345  49.932  15.544  1.00  0.00    -0.648 OA
HETATM    2  O   UNL     1     -50.768  48.322  15.829  1.00  0.00    -0.648 OA
HETATM    3  C   UNL     1     -51.713  48.783  15.201  1.00  0.00     0.172 C 
ENDROOT
BRANCH   3   4
HETATM    4  C   UNL     1     -52.316  48.120  13.986  1.00  0.00     0.117 C 
BRANCH   4   5
HETATM    5  C   UNL     1     -53.460  48.953  13.396  1.00  0.00     0.049 C 
BRANCH   5   6
HETATM    6  C   UNL     1     -53.416  49.063  11.910  1.00  0.00    -0.058 A 
HETATM    7  C   UNL     1     -53.703  50.281  11.292  1.00  0.00     0.007 A 
HETATM    8  C   UNL     1     -53.662  50.386   9.901  1.00  0.00     0.001 A 
HETATM    9  C   UNL     1     -53.335  49.272   9.128  1.00  0.00     0.000 A 
HETATM   10  C   UNL     1     -53.048  48.054   9.745  1.00  0.00     0.001 A 
HETATM   11  C   UNL     1     -53.088  47.950  11.135  1.00  0.00     0.007 A 
ENDBRANCH   5   6
ENDBRANCH   4   5
ENDBRANCH   3   4
TORSDOF 3
ENDMDL
MODEL 3
REMARK VINA RESULT:      -6.1      2.845      4.498
REMARK  3 active torsions:
REMARK  status: ('A' for Active; 'I' for Inactive)
REMARK    1  A    between atoms: C_3  and  C_4 
REMARK    2  A    between atoms: C_3  and  C_5 
REMARK    3  A    between atoms: C_5  and  C_10 
ROOT
HETATM    1  O   UNL     1     -54.482  52.994   9.415  1.00  0.00    -0.648 OA
HETATM    2  O   UNL     1     -53.457  52.548  11.393  1.00  0.00    -0.648 OA
HETATM    3  C   UNL     1     -53.745  52.219  10.249  1.00  0.00     0.172 C 
ENDROOT
BRANCH   3   4
HETATM    4  C   UNL     1     -53.349  50.900   9.630  1.00  0.00     0.117 C 
BRANCH   4   5
HETATM    5  C   UNL     1     -54.235  49.752  10.127  1.00  0.00     0.049 C 
BRANCH   5   6
HETATM    6  C   UNL     1     -53.565  48.862  11.117  1.00  0.00    -0.058 A 
HETATM    7  C   UNL     1     -53.011  47.650  10.703  1.00  0.00     0.007 A 
HETATM    8  C   UNL     1     -52.383  46.817  11.629  1.00  0.00     0.001 A 
HETATM    9  C   UNL     1     -52.309  47.195  12.969  1.00  0.00     0.000 A 
HETATM   10  C   UNL     1     -52.863  48.406  13.384  1.00  0.00     0.001 A 
HETATM   11  C   UNL     1     -53.490  49.240  12.458  1.00  0.00     0.007 A 
ENDBRANCH   5   6
ENDBRANCH   4   5
ENDBRANCH   3   4
TORSDOF 3
ENDMDL
MODEL 4
REMARK VINA RESULT:      -5.9      2.777      4.544
REMARK  3 active torsions:
REMARK  status: ('A' for Active; 'I' for Inactive)
REMARK    1  A    between atoms: C_3  and  C_4 
REMARK    2  A    between atoms: C_3  and  C_5 
REMARK    3  A    between atoms: C_5  and  C_10 
ROOT
HETATM    1  O   UNL     1     -53.416  52.417  11.640  1.00  0.00    -0.648 OA
HETATM    2  O   UNL     1     -53.962  52.493   9.436  1.00  0.00    -0.648 OA
HETATM    3  C   UNL     1     -53.692  51.847  10.441  1.00  0.00     0.172 C 
ENDROOT
BRANCH   3   4
HETATM    4  C   UNL     1     -53.598  50.340  10.469  1.00  0.00     0.117 C 
BRANCH   4   5
HETATM    5  C   UNL     1     -53.896  49.781  11.865  1.00  0.00     0.049 C 
BRANCH   5   6
HETATM    6  C   UNL     1     -53.142  48.535  12.186  1.00  0.00    -0.058 A 
HETATM    7  C   UNL     1     -52.716  48.295  13.493  1.00  0.00     0.007 A 
HETATM    8  C   UNL     1     -52.011  47.129  13.794  1.00  0.00     0.001 A 
HETATM    9  C   UNL     1     -51.732  46.204  12.788  1.00  0.00     0.000 A 
HETATM   10  C   UNL     1     -52.158  46.444  11.481  1.00  0.00     0.001 A 
HETATM   11  C   UNL     1     -52.863  47.609  11.181  1.00  0.00     0.007 A 
ENDBRANCH   5   6
ENDBRANCH   4   5
ENDBRANCH   3   4
TORSDOF 3
ENDMDL
MODEL 5
REMARK VINA RESULT:      -5.8      2.843      4.414
REMARK  3 active torsions:
REMARK  status: ('A' for Active; 'I' for Inactive)
REMARK    1  A    between atoms: C_3  and  C_4 
REMARK    2  A    between atoms: C_3  and  C_5 
REMARK    3  A    between atoms: C_5  and  C_10 
ROOT
HETATM    1  O   UNL     1     -54.005  52.388   9.400  1.00  0.00    -0.648 OA
HETATM    2  O   UNL     1     -53.367  52.515  11.577  1.00  0.00    -0.648 OA
HETATM    3  C   UNL     1     -53.651  51.846  10.592  1.00  0.00     0.172 C 
ENDROOT
BRANCH   3   4
HETATM    4  C   UNL     1     -53.677  50.336  10.581  1.00  0.00     0.117 C 
BRANCH   4   5
HETATM    5  C   UNL     1     -53.740  49.761  12.001  1.00  0.00     0.049 C 
BRANCH   5   6
HETATM    6  C   UNL     1     -53.083  48.430  12.138  1.00  0.00    -0.058 A 
HETATM    7  C   UNL     1     -52.885  47.630  11.012  1.00  0.00     0.007 A 
HETATM    8  C   UNL     1     -52.270  46.384  11.140  1.00  0.00     0.001 A 
HETATM    9  C   UNL     1     -51.852  45.939  12.394  1.00  0.00     0.000 A 
HETATM   10  C   UNL     1     -52.049  46.738  13.520  1.00  0.00     0.001 A 
HETATM   11  C   UNL     1     -52.663  47.983  13.392  1.00  0.00     0.007 A 
ENDBRANCH   5   6
ENDBRANCH   4   5
ENDBRANCH   3   4
TORSDOF 3
ENDMDL
MODEL 6
REMARK VINA RESULT:      -5.7      3.330      4.932
REMARK  3 active torsions:
REMARK  status: ('A' for Active; 'I' for Inactive)
REMARK    1  A    between atoms: C_3  and  C_4 
REMARK    2  A    between atoms: C_3  and  C_5 
REMARK    3  A    between atoms: C_5  and  C_10 
ROOT
HETATM    1  O   UNL     1     -52.890  48.671   8.217  1.00  0.00    -0.648 OA
HETATM    2  O   UNL     1     -53.336  50.866   8.593  1.00  0.00    -0.648 OA
HETATM    3  C   UNL     1     -53.462  49.689   8.906  1.00  0.00     0.172 C 
ENDROOT
BRANCH   3   4
HETATM    4  C   UNL     1     -54.292  49.215  10.075  1.00  0.00     0.117 C 
BRANCH   4   5
HETATM    5  C   UNL     1     -53.755  49.753  11.406  1.00  0.00     0.049 C 
BRANCH   5   6
HETATM    6  C   UNL     1     -53.073  48.721  12.239  1.00  0.00    -0.058 A 
HETATM    7  C   UNL     1     -52.765  47.475  11.692  1.00  0.00     0.007 A 
HETATM    8  C   UNL     1     -52.127  46.509  12.470  1.00  0.00     0.001 A 
HETATM    9  C   UNL     1     -51.797  46.790  13.797  1.00  0.00     0.000 A 
HETATM   10  C   UNL     1     -52.105  48.035  14.344  1.00  0.00     0.001 A 
HETATM   11  C   UNL     1     -52.742  49.001  13.565  1.00  0.00     0.007 A 
ENDBRANCH   5   6
ENDBRANCH   4   5
ENDBRANCH   3   4
TORSDOF 3
ENDMDL
MODEL 7
REMARK VINA RESULT:      -5.6      4.074      5.340
REMARK  3 active torsions:
REMARK  status: ('A' for Active; 'I' for Inactive)
REMARK    1  A    between atoms: C_3  and  C_4 
REMARK    2  A    between atoms: C_3  and  C_5 
REMARK    3  A    between atoms: C_5  and  C_10 
ROOT
HETATM    1  O   UNL     1     -55.831  46.157   8.983  1.00  0.00    -0.648 OA
HETATM    2  O   UNL     1     -54.828  44.385   7.974  1.00  0.00    -0.648 OA
HETATM    3  C   UNL     1     -54.780  45.332   8.749  1.00  0.00     0.172 C 
ENDROOT
BRANCH   3   4
HETATM    4  C   UNL     1     -53.542  45.725   9.519  1.00  0.00     0.117 C 
BRANCH   4   5
HETATM    5  C   UNL     1     -52.917  47.012   8.968  1.00  0.00     0.049 C 
BRANCH   5   6
HETATM    6  C   UNL     1     -53.137  48.205   9.836  1.00  0.00    -0.058 A 
HETATM    7  C   UNL     1     -53.457  49.435   9.261  1.00  0.00     0.007 A 
HETATM    8  C   UNL     1     -53.664  50.552  10.072  1.00  0.00     0.001 A 
HETATM    9  C   UNL     1     -53.550  50.437  11.457  1.00  0.00     0.000 A 
HETATM   10  C   UNL     1     -53.230  49.208  12.032  1.00  0.00     0.001 A 
HETATM   11  C   UNL     1     -53.024  48.092  11.221  1.00  0.00     0.007 A 
ENDBRANCH   5   6
ENDBRANCH   4   5
ENDBRANCH   3   4
TORSDOF 3
ENDMDL
MODEL 8
REMARK VINA RESULT:      -5.6      4.050      5.221
REMARK  3 active torsions:
REMARK  status: ('A' for Active; 'I' for Inactive)
REMARK    1  A    between atoms: C_3  and  C_4 
REMARK    2  A    between atoms: C_3  and  C_5 
REMARK    3  A    between atoms: C_5  and  C_10 
ROOT
HETATM    1  O   UNL     1     -55.945  46.328   9.007  1.00  0.00    -0.648 OA
HETATM    2  O   UNL     1     -55.114  44.385   8.172  1.00  0.00    -0.648 OA
HETATM    3  C   UNL     1     -54.964  45.409   8.827  1.00  0.00     0.172 C 
ENDROOT
BRANCH   3   4
HETATM    4  C   UNL     1     -53.665  45.799   9.490  1.00  0.00     0.117 C 
BRANCH   4   5
HETATM    5  C   UNL     1     -53.096  47.095   8.903  1.00  0.00     0.049 C 
BRANCH   5   6
HETATM    6  C   UNL     1     -53.235  48.274   9.805  1.00  0.00    -0.058 A 
HETATM    7  C   UNL     1     -53.063  48.124  11.181  1.00  0.00     0.007 A 
HETATM    8  C   UNL     1     -53.194  49.227  12.026  1.00  0.00     0.001 A 
HETATM    9  C   UNL     1     -53.496  50.480  11.494  1.00  0.00     0.000 A 
HETATM   10  C   UNL     1     -53.668  50.631  10.118  1.00  0.00     0.001 A 
HETATM   11  C   UNL     1     -53.536  49.529   9.274  1.00  0.00     0.007 A 
ENDBRANCH   5   6
ENDBRANCH   4   5
ENDBRANCH   3   4
TORSDOF 3
ENDMDL
MODEL 9
REMARK VINA RESULT:      -5.5      3.818      5.392
REMARK  3 active torsions:
REMARK  status: ('A' for Active; 'I' for Inactive)
REMARK    1  A    between atoms: C_3  and  C_4 
REMARK    2  A    between atoms: C_3  and  C_5 
REMARK    3  A    between atoms: C_5  and  C_10 
ROOT
HETATM    1  O   UNL     1     -54.230  47.313   7.852  1.00  0.00    -0.648 OA
HETATM    2  O   UNL     1     -55.347  45.666   8.947  1.00  0.00    -0.648 OA
HETATM    3  C   UNL     1     -54.971  46.830   8.879  1.00  0.00     0.172 C 
ENDROOT
BRANCH   3   4
HETATM    4  C   UNL     1     -55.255  47.867   9.939  1.00  0.00     0.117 C 
BRANCH   4   5
HETATM    5  C   UNL     1     -54.017  48.719  10.243  1.00  0.00     0.049 C 
BRANCH   5   6
HETATM    6  C   UNL     1     -53.342  48.360  11.524  1.00  0.00    -0.058 A 
HETATM    7  C   UNL     1     -53.388  49.240  12.606  1.00  0.00     0.007 A 
HETATM    8  C   UNL     1     -52.758  48.906  13.805  1.00  0.00     0.001 A 
HETATM    9  C   UNL     1     -52.081  47.691  13.921  1.00  0.00     0.000 A 
HETATM   10  C   UNL     1     -52.035  46.812  12.839  1.00  0.00     0.001 A 
HETATM   11  C   UNL     1     -52.666  47.146  11.642  1.00  0.00     0.007 A 
ENDBRANCH   5   6
ENDBRANCH   4   5
ENDBRANCH   3   4
TORSDOF 3
ENDMDL
