MODEL 1
REMARK VINA RESULT:      -6.4      0.000      0.000
REMARK  6 active torsions:
REMARK  status: ('A' for Active; 'I' for Inactive)
REMARK    1  A    between atoms: O_1  and  C_8 
REMARK    2  A    between atoms: O_2  and  C_11 
REMARK    3  A    between atoms: O_3  and  C_13 
REMARK    4  A    between atoms: C_6  and  C_7 
REMARK    5  A    between atoms: C_6  and  C_8 
REMARK    6  A    between atoms: C_8  and  C_14 
ROOT
HETATM    1  O   UNL     1       0.555 -12.617  54.383  1.00  0.00    -0.385 OA
HETATM    2  H   UNL     1       1.162 -13.293  54.722  1.00  0.00     0.210 HD
ENDROOT
BRANCH   1   3
HETATM    3  C   UNL     1       0.707 -11.421  55.139  1.00  0.00     0.223 C 
BRANCH   3   4
HETATM    4  C   UNL     1       1.564 -10.436  54.328  1.00  0.00     0.081 C 
BRANCH   4   5
HETATM    5  C   UNL     1       2.712  -9.895  55.108  1.00  0.00    -0.052 A 
HETATM    6  C   UNL     1       2.991 -10.398  56.379  1.00  0.00     0.046 A 
HETATM    7  C   UNL     1       4.066  -9.891  57.111  1.00  0.00     0.099 A 
HETATM    8  C   UNL     1       4.861  -8.880  56.570  1.00  0.00     0.098 A 
HETATM    9  C   UNL     1       4.582  -8.376  55.300  1.00  0.00     0.040 A 
HETATM   10  C   UNL     1       3.508  -8.883  54.569  1.00  0.00     0.010 A 
BRANCH   7  11
HETATM   11  O   UNL     1       4.328 -10.391  58.349  1.00  0.00    -0.358 OA
HETATM   12  H   UNL     1       4.267  -9.836  59.101  1.00  0.00     0.217 HD
ENDBRANCH   7  11
BRANCH   8  13
HETATM   13  O   UNL     1       5.914  -8.378  57.275  1.00  0.00    -0.358 OA
HETATM   14  H   UNL     1       5.762  -7.801  57.997  1.00  0.00     0.217 HD
ENDBRANCH   8  13
ENDBRANCH   4   5
ENDBRANCH   3   4
BRANCH   3  15
HETATM   15  C   UNL     1      -0.678 -10.865  55.398  1.00  0.00     0.203 C 
HETATM   16  O   UNL     1      -0.779 -10.292  56.625  1.00  0.00    -0.646 OA
HETATM   17  O   UNL     1      -1.616 -10.931  54.614  1.00  0.00    -0.646 OA
ENDBRANCH   3  15
ENDBRANCH   1   3
TORSDOF 6
ENDMDL
MODEL 2
REMARK VINA RESULT:      -6.3      0.847      1.543
REMARK  6 active torsions:
REMARK  status: ('A' for Active; 'I' for Inactive)
REMARK    1  A    between atoms: O_1  and  C_8 
REMARK    2  A    between atoms: O_2  and  C_11 
REMARK    3  A    between atoms: O_3  and  C_13 
REMARK    4  A    between atoms: C_6  and  C_7 
REMARK    5  A    between atoms: C_6  and  C_8 
REMARK    6  A    between atoms: C_8  and  C_14 
ROOT
HETATM    1  O   UNL     1      -0.055 -10.017  56.596  1.00  0.00    -0.385 OA
HETATM    2  H   UNL     1       0.001 -10.800  57.166  1.00  0.00     0.210 HD
ENDROOT
BRANCH   1   3
HETATM    3  C   UNL     1       0.504 -10.317  55.323  1.00  0.00     0.223 C 
BRANCH   3   4
HETATM    4  C   UNL     1       1.824 -11.075  55.535  1.00  0.00     0.081 C 
BRANCH   4   5
HETATM    5  C   UNL     1       2.970 -10.166  55.822  1.00  0.00    -0.052 A 
HETATM    6  C   UNL     1       3.667 -10.279  57.025  1.00  0.00     0.046 A 
HETATM    7  C   UNL     1       4.739  -9.428  57.293  1.00  0.00     0.099 A 
HETATM    8  C   UNL     1       5.113  -8.462  56.359  1.00  0.00     0.098 A 
HETATM    9  C   UNL     1       4.415  -8.348  55.156  1.00  0.00     0.040 A 
HETATM   10  C   UNL     1       3.344  -9.199  54.888  1.00  0.00     0.010 A 
BRANCH   7  11
HETATM   11  O   UNL     1       5.412  -9.549  58.470  1.00  0.00    -0.358 OA
HETATM   12  H   UNL     1       4.962  -9.837  59.239  1.00  0.00     0.217 HD
ENDBRANCH   7  11
BRANCH   8  13
HETATM   13  O   UNL     1       6.159  -7.626  56.609  1.00  0.00    -0.358 OA
HETATM   14  H   UNL     1       6.898  -7.614  56.034  1.00  0.00     0.217 HD
ENDBRANCH   8  13
ENDBRANCH   4   5
ENDBRANCH   3   4
BRANCH   3  15
HETATM   15  C   UNL     1      -0.503 -11.161  54.569  1.00  0.00     0.203 C 
HETATM   16  O   UNL     1       0.068 -12.252  53.999  1.00  0.00    -0.646 OA
HETATM   17  O   UNL     1      -1.693 -10.898  54.459  1.00  0.00    -0.646 OA
ENDBRANCH   3  15
ENDBRANCH   1   3
TORSDOF 6
ENDMDL
MODEL 3
REMARK VINA RESULT:      -6.1      1.046      2.172
REMARK  6 active torsions:
REMARK  status: ('A' for Active; 'I' for Inactive)
REMARK    1  A    between atoms: O_1  and  C_8 
REMARK    2  A    between atoms: O_2  and  C_11 
REMARK    3  A    between atoms: O_3  and  C_13 
REMARK    4  A    between atoms: C_6  and  C_7 
REMARK    5  A    between atoms: C_6  and  C_8 
REMARK    6  A    between atoms: C_8  and  C_14 
ROOT
HETATM    1  O   UNL     1       0.668 -12.579  54.423  1.00  0.00    -0.385 OA
HETATM    2  H   UNL     1       0.316 -12.372  53.543  1.00  0.00     0.210 HD
ENDROOT
BRANCH   1   3
HETATM    3  C   UNL     1       0.975 -11.371  55.108  1.00  0.00     0.223 C 
BRANCH   3   4
HETATM    4  C   UNL     1       1.765 -10.457  54.156  1.00  0.00     0.081 C 
BRANCH   4   5
HETATM    5  C   UNL     1       2.865  -9.725  54.844  1.00  0.00    -0.052 A 
HETATM    6  C   UNL     1       3.561  -8.719  54.173  1.00  0.00     0.046 A 
HETATM    7  C   UNL     1       4.592  -8.034  54.817  1.00  0.00     0.099 A 
HETATM    8  C   UNL     1       4.926  -8.355  56.132  1.00  0.00     0.098 A 
HETATM    9  C   UNL     1       4.232  -9.362  56.803  1.00  0.00     0.040 A 
HETATM   10  C   UNL     1       3.202 -10.046  56.160  1.00  0.00     0.010 A 
BRANCH   7  11
HETATM   11  O   UNL     1       5.262  -7.053  54.152  1.00  0.00    -0.358 OA
HETATM   12  H   UNL     1       5.583  -7.210  53.286  1.00  0.00     0.217 HD
ENDBRANCH   7  11
BRANCH   8  13
HETATM   13  O   UNL     1       5.930  -7.692  56.772  1.00  0.00    -0.358 OA
HETATM   14  H   UNL     1       6.206  -6.850  56.466  1.00  0.00     0.217 HD
ENDBRANCH   8  13
ENDBRANCH   4   5
ENDBRANCH   3   4
BRANCH   3  15
HETATM   15  C   UNL     1      -0.336 -10.736  55.523  1.00  0.00     0.203 C 
HETATM   16  O   UNL     1      -1.277 -10.820  54.548  1.00  0.00    -0.646 OA
HETATM   17  O   UNL     1      -0.539 -10.190  56.599  1.00  0.00    -0.646 OA
ENDBRANCH   3  15
ENDBRANCH   1   3
TORSDOF 6
ENDMDL
MODEL 4
REMARK VINA RESULT:      -6.1      2.991      4.974
REMARK  6 active torsions:
REMARK  status: ('A' for Active; 'I' for Inactive)
REMARK    1  A    between atoms: O_1  and  C_8 
REMARK    2  A    between atoms: O_2  and  C_11 
REMARK    3  A    between atoms: O_3  and  C_13 
REMARK    4  A    between atoms: C_6  and  C_7 
REMARK    5  A    between atoms: C_6  and  C_8 
REMARK    6  A    between atoms: C_8  and  C_14 
ROOT
HETATM    1  O   UNL     1       2.817 -10.709  56.411  1.00  0.00    -0.385 OA
HETATM    2  H   UNL     1       2.992 -10.984  57.325  1.00  0.00     0.210 HD
ENDROOT
BRANCH   1   3
HETATM    3  C   UNL     1       3.590  -9.554  56.108  1.00  0.00     0.223 C 
BRANCH   3   4
HETATM    4  C   UNL     1       2.666  -8.325  56.138  1.00  0.00     0.081 C 
BRANCH   4   5
HETATM    5  C   UNL     1       3.238  -7.157  55.411  1.00  0.00    -0.052 A 
HETATM    6  C   UNL     1       3.996  -7.356  54.257  1.00  0.00     0.046 A 
HETATM    7  C   UNL     1       4.532  -6.263  53.577  1.00  0.00     0.099 A 
HETATM    8  C   UNL     1       4.311  -4.970  54.051  1.00  0.00     0.098 A 
HETATM    9  C   UNL     1       3.553  -4.771  55.206  1.00  0.00     0.040 A 
HETATM   10  C   UNL     1       3.017  -5.864  55.885  1.00  0.00     0.010 A 
BRANCH   7  11
HETATM   11  O   UNL     1       5.270  -6.470  52.451  1.00  0.00    -0.358 OA
HETATM   12  H   UNL     1       5.946  -7.118  52.447  1.00  0.00     0.217 HD
ENDBRANCH   7  11
BRANCH   8  13
HETATM   13  O   UNL     1       4.828  -3.894  53.395  1.00  0.00    -0.358 OA
HETATM   14  H   UNL     1       5.701  -3.928  53.054  1.00  0.00     0.217 HD
ENDBRANCH   8  13
ENDBRANCH   4   5
ENDBRANCH   3   4
BRANCH   3  15
HETATM   15  C   UNL     1       4.683  -9.448  57.153  1.00  0.00     0.203 C 
HETATM   16  O   UNL     1       4.747 -10.552  57.940  1.00  0.00    -0.646 OA
HETATM   17  O   UNL     1       5.420  -8.482  57.299  1.00  0.00    -0.646 OA
ENDBRANCH   3  15
ENDBRANCH   1   3
TORSDOF 6
ENDMDL
MODEL 5
REMARK VINA RESULT:      -6.0      2.983      4.452
REMARK  6 active torsions:
REMARK  status: ('A' for Active; 'I' for Inactive)
REMARK    1  A    between atoms: O_1  and  C_8 
REMARK    2  A    between atoms: O_2  and  C_11 
REMARK    3  A    between atoms: O_3  and  C_13 
REMARK    4  A    between atoms: C_6  and  C_7 
REMARK    5  A    between atoms: C_6  and  C_8 
REMARK    6  A    between atoms: C_8  and  C_14 
ROOT
HETATM    1  O   UNL     1       3.328 -10.130  57.839  1.00  0.00    -0.385 OA
HETATM    2  H   UNL     1       3.561  -9.535  58.569  1.00  0.00     0.210 HD
ENDROOT
BRANCH   1   3
HETATM    3  C   UNL     1       3.207  -9.380  56.636  1.00  0.00     0.223 C 
BRANCH   3   4
HETATM    4  C   UNL     1       4.603  -8.885  56.226  1.00  0.00     0.081 C 
BRANCH   4   5
HETATM    5  C   UNL     1       4.561  -7.587  55.495  1.00  0.00    -0.052 A 
HETATM    6  C   UNL     1       4.995  -7.518  54.171  1.00  0.00     0.046 A 
HETATM    7  C   UNL     1       4.956  -6.302  53.487  1.00  0.00     0.099 A 
HETATM    8  C   UNL     1       4.484  -5.157  54.127  1.00  0.00     0.098 A 
HETATM    9  C   UNL     1       4.050  -5.226  55.451  1.00  0.00     0.040 A 
HETATM   10  C   UNL     1       4.089  -6.441  56.135  1.00  0.00     0.010 A 
BRANCH   7  11
HETATM   11  O   UNL     1       5.382  -6.248  52.195  1.00  0.00    -0.358 OA
HETATM   12  H   UNL     1       5.390  -5.430  51.739  1.00  0.00     0.217 HD
ENDBRANCH   7  11
BRANCH   8  13
HETATM   13  O   UNL     1       4.440  -3.965  53.468  1.00  0.00    -0.358 OA
HETATM   14  H   UNL     1       4.409  -3.163  53.952  1.00  0.00     0.217 HD
ENDBRANCH   8  13
ENDBRANCH   4   5
ENDBRANCH   3   4
BRANCH   3  15
HETATM   15  C   UNL     1       2.615 -10.296  55.585  1.00  0.00     0.203 C 
HETATM   16  O   UNL     1       2.079 -11.420  56.127  1.00  0.00    -0.646 OA
HETATM   17  O   UNL     1       2.624 -10.077  54.381  1.00  0.00    -0.646 OA
ENDBRANCH   3  15
ENDBRANCH   1   3
TORSDOF 6
ENDMDL
MODEL 6
REMARK VINA RESULT:      -5.9      1.365      1.782
REMARK  6 active torsions:
REMARK  status: ('A' for Active; 'I' for Inactive)
REMARK    1  A    between atoms: O_1  and  C_8 
REMARK    2  A    between atoms: O_2  and  C_11 
REMARK    3  A    between atoms: O_3  and  C_13 
REMARK    4  A    between atoms: C_6  and  C_7 
REMARK    5  A    between atoms: C_6  and  C_8 
REMARK    6  A    between atoms: C_8  and  C_14 
ROOT
HETATM    1  O   UNL     1       0.090  -9.816  53.823  1.00  0.00    -0.385 OA
HETATM    2  H   UNL     1      -0.266  -9.100  54.371  1.00  0.00     0.210 HD
ENDROOT
BRANCH   1   3
HETATM    3  C   UNL     1       1.233 -10.376  54.458  1.00  0.00     0.223 C 
BRANCH   3   4
HETATM    4  C   UNL     1       1.484  -9.614  55.771  1.00  0.00     0.081 C 
BRANCH   4   5
HETATM    5  C   UNL     1       2.886  -9.125  55.892  1.00  0.00    -0.052 A 
HETATM    6  C   UNL     1       3.689  -9.563  56.945  1.00  0.00     0.046 A 
HETATM    7  C   UNL     1       5.002  -9.104  57.059  1.00  0.00     0.099 A 
HETATM    8  C   UNL     1       5.510  -8.206  56.120  1.00  0.00     0.098 A 
HETATM    9  C   UNL     1       4.706  -7.767  55.068  1.00  0.00     0.040 A 
HETATM   10  C   UNL     1       3.395  -8.226  54.954  1.00  0.00     0.010 A 
BRANCH   7  11
HETATM   11  O   UNL     1       5.776  -9.540  58.090  1.00  0.00    -0.358 OA
HETATM   12  H   UNL     1       6.414 -10.211  57.946  1.00  0.00     0.217 HD
ENDBRANCH   7  11
BRANCH   8  13
HETATM   13  O   UNL     1       6.791  -7.752  56.221  1.00  0.00    -0.358 OA
HETATM   14  H   UNL     1       6.993  -6.866  55.992  1.00  0.00     0.217 HD
ENDBRANCH   8  13
ENDBRANCH   4   5
ENDBRANCH   3   4
BRANCH   3  15
HETATM   15  C   UNL     1       0.942 -11.840  54.716  1.00  0.00     0.203 C 
HETATM   16  O   UNL     1       1.039 -12.157  56.032  1.00  0.00    -0.646 OA
HETATM   17  O   UNL     1       0.667 -12.661  53.851  1.00  0.00    -0.646 OA
ENDBRANCH   3  15
ENDBRANCH   1   3
TORSDOF 6
ENDMDL
MODEL 7
REMARK VINA RESULT:      -5.9      1.188      2.171
REMARK  6 active torsions:
REMARK  status: ('A' for Active; 'I' for Inactive)
REMARK    1  A    between atoms: O_1  and  C_8 
REMARK    2  A    between atoms: O_2  and  C_11 
REMARK    3  A    between atoms: O_3  and  C_13 
REMARK    4  A    between atoms: C_6  and  C_7 
REMARK    5  A    between atoms: C_6  and  C_8 
REMARK    6  A    between atoms: C_8  and  C_14 
ROOT
HETATM    1  O   UNL     1       1.125 -10.528  53.026  1.00  0.00    -0.385 OA
HETATM    2  H   UNL     1       1.944 -10.909  52.672  1.00  0.00     0.210 HD
ENDROOT
BRANCH   1   3
HETATM    3  C   UNL     1       1.202 -10.474  54.445  1.00  0.00     0.223 C 
BRANCH   3   4
HETATM    4  C   UNL     1       1.829  -9.130  54.850  1.00  0.00     0.081 C 
BRANCH   4   5
HETATM    5  C   UNL     1       3.007  -9.293  55.748  1.00  0.00    -0.052 A 
HETATM    6  C   UNL     1       4.046  -8.363  55.713  1.00  0.00     0.046 A 
HETATM    7  C   UNL     1       5.149  -8.516  56.554  1.00  0.00     0.099 A 
HETATM    8  C   UNL     1       5.212  -9.600  57.430  1.00  0.00     0.098 A 
HETATM    9  C   UNL     1       4.174 -10.530  57.465  1.00  0.00     0.040 A 
HETATM   10  C   UNL     1       3.071 -10.377  56.624  1.00  0.00     0.010 A 
BRANCH   7  11
HETATM   11  O   UNL     1       6.156  -7.601  56.511  1.00  0.00    -0.358 OA
HETATM   12  H   UNL     1       6.023  -6.742  56.860  1.00  0.00     0.217 HD
ENDBRANCH   7  11
BRANCH   8  13
HETATM   13  O   UNL     1       6.283  -9.759  58.257  1.00  0.00    -0.358 OA
HETATM   14  H   UNL     1       6.941  -9.093  58.305  1.00  0.00     0.217 HD
ENDBRANCH   8  13
ENDBRANCH   4   5
ENDBRANCH   3   4
BRANCH   3  15
HETATM   15  C   UNL     1      -0.208 -10.610  54.984  1.00  0.00     0.203 C 
HETATM   16  O   UNL     1      -1.145 -10.313  54.048  1.00  0.00    -0.646 OA
HETATM   17  O   UNL     1      -0.490 -10.932  56.131  1.00  0.00    -0.646 OA
ENDBRANCH   3  15
ENDBRANCH   1   3
TORSDOF 6
ENDMDL
MODEL 8
REMARK VINA RESULT:      -5.9      3.123      5.282
REMARK  6 active torsions:
REMARK  status: ('A' for Active; 'I' for Inactive)
REMARK    1  A    between atoms: O_1  and  C_8 
REMARK    2  A    between atoms: O_2  and  C_11 
REMARK    3  A    between atoms: O_3  and  C_13 
REMARK    4  A    between atoms: C_6  and  C_7 
REMARK    5  A    between atoms: C_6  and  C_8 
REMARK    6  A    between atoms: C_8  and  C_14 
ROOT
HETATM    1  O   UNL     1       4.766  -4.192  53.569  1.00  0.00    -0.385 OA
HETATM    2  H   UNL     1       5.677  -3.924  53.376  1.00  0.00     0.210 HD
ENDROOT
BRANCH   1   3
HETATM    3  C   UNL     1       4.751  -5.548  53.998  1.00  0.00     0.223 C 
BRANCH   3   4
HETATM    4  C   UNL     1       3.643  -5.715  55.051  1.00  0.00     0.081 C 
BRANCH   4   5
HETATM    5  C   UNL     1       3.646  -7.067  55.680  1.00  0.00    -0.052 A 
HETATM    6  C   UNL     1       4.794  -7.537  56.317  1.00  0.00     0.046 A 
HETATM    7  C   UNL     1       4.797  -8.803  56.905  1.00  0.00     0.099 A 
HETATM    8  C   UNL     1       3.653  -9.597  56.854  1.00  0.00     0.098 A 
HETATM    9  C   UNL     1       2.505  -9.127  56.216  1.00  0.00     0.040 A 
HETATM   10  C   UNL     1       2.502  -7.862  55.629  1.00  0.00     0.010 A 
BRANCH   7  11
HETATM   11  O   UNL     1       5.924  -9.250  57.525  1.00  0.00    -0.358 OA
HETATM   12  H   UNL     1       6.019 -10.160  57.723  1.00  0.00     0.217 HD
ENDBRANCH   7  11
BRANCH   8  13
HETATM   13  O   UNL     1       3.643 -10.834  57.426  1.00  0.00    -0.358 OA
HETATM   14  H   UNL     1       3.666 -11.600  56.886  1.00  0.00     0.217 HD
ENDBRANCH   8  13
ENDBRANCH   4   5
ENDBRANCH   3   4
BRANCH   3  15
HETATM   15  C   UNL     1       4.490  -6.410  52.780  1.00  0.00     0.203 C 
HETATM   16  O   UNL     1       3.362  -6.039  52.122  1.00  0.00    -0.646 OA
HETATM   17  O   UNL     1       5.192  -7.347  52.424  1.00  0.00    -0.646 OA
ENDBRANCH   3  15
ENDBRANCH   1   3
TORSDOF 6
ENDMDL
MODEL 9
REMARK VINA RESULT:      -5.8      3.017      4.830
REMARK  6 active torsions:
REMARK  status: ('A' for Active; 'I' for Inactive)
REMARK    1  A    between atoms: O_1  and  C_8 
REMARK    2  A    between atoms: O_2  and  C_11 
REMARK    3  A    between atoms: O_3  and  C_13 
REMARK    4  A    between atoms: C_6  and  C_7 
REMARK    5  A    between atoms: C_6  and  C_8 
REMARK    6  A    between atoms: C_8  and  C_14 
ROOT
HETATM    1  O   UNL     1       2.735  -5.794  52.180  1.00  0.00    -0.385 OA
HETATM    2  H   UNL     1       3.315  -6.275  51.570  1.00  0.00     0.210 HD
ENDROOT
BRANCH   1   3
HETATM    3  C   UNL     1       2.947  -6.263  53.506  1.00  0.00     0.223 C 
BRANCH   3   4
HETATM    4  C   UNL     1       4.025  -7.360  53.469  1.00  0.00     0.081 C 
BRANCH   4   5
HETATM    5  C   UNL     1       3.952  -8.277  54.641  1.00  0.00    -0.052 A 
HETATM    6  C   UNL     1       4.903  -8.187  55.658  1.00  0.00     0.046 A 
HETATM    7  C   UNL     1       4.835  -9.046  56.755  1.00  0.00     0.099 A 
HETATM    8  C   UNL     1       3.816  -9.995  56.835  1.00  0.00     0.098 A 
HETATM    9  C   UNL     1       2.865 -10.085  55.818  1.00  0.00     0.040 A 
HETATM   10  C   UNL     1       2.933  -9.227  54.722  1.00  0.00     0.010 A 
BRANCH   7  11
HETATM   11  O   UNL     1       5.768  -8.948  57.741  1.00  0.00    -0.358 OA
HETATM   12  H   UNL     1       6.372  -9.648  57.886  1.00  0.00     0.217 HD
ENDBRANCH   7  11
BRANCH   8  13
HETATM   13  O   UNL     1       3.738 -10.838  57.902  1.00  0.00    -0.358 OA
HETATM   14  H   UNL     1       4.350 -10.759  58.608  1.00  0.00     0.217 HD
ENDBRANCH   8  13
ENDBRANCH   4   5
ENDBRANCH   3   4
BRANCH   3  15
HETATM   15  C   UNL     1       3.389  -5.081  54.344  1.00  0.00     0.203 C 
HETATM   16  O   UNL     1       4.317  -4.321  53.707  1.00  0.00    -0.646 OA
HETATM   17  O   UNL     1       2.985  -4.833  55.471  1.00  0.00    -0.646 OA
ENDBRANCH   3  15
ENDBRANCH   1   3
TORSDOF 6
ENDMDL
