MODEL 1
REMARK VINA RESULT:      -7.8      0.000      0.000
REMARK  3 active torsions:
REMARK  status: ('A' for Active; 'I' for Inactive)
REMARK    1  A    between atoms: O_5  and  C_15 
REMARK    2  A    between atoms: N_8  and  C_16 
REMARK    3  A    between atoms: N_12  and  C_21 
ROOT
HETATM    1  P   UNL     1      32.848  71.645  22.554  1.00  0.00     0.408 P 
HETATM    2  O   UNL     1      33.050  75.957  22.292  1.00  0.00    -0.353 OA
HETATM    3  O   UNL     1      31.651  72.713  22.830  1.00  0.00    -0.279 OA
HETATM    4  O   UNL     1      34.232  72.486  22.700  1.00  0.00    -0.287 OA
HETATM    5  O   UNL     1      32.748  71.332  20.968  1.00  0.00    -0.624 OA
HETATM    6  O   UNL     1      32.785  70.415  23.413  1.00  0.00    -0.624 OA
HETATM    7  C   UNL     1      31.821  73.987  22.252  1.00  0.00     0.198 C 
HETATM    8  C   UNL     1      33.123  74.600  22.724  1.00  0.00     0.180 C 
HETATM    9  C   UNL     1      30.835  75.061  22.650  1.00  0.00     0.199 C 
HETATM   10  C   UNL     1      31.650  76.340  22.377  1.00  0.00     0.262 C 
HETATM   11  C   UNL     1      34.302  73.816  22.184  1.00  0.00     0.216 C 
ENDROOT
BRANCH   9  12
HETATM   12  O   UNL     1      30.547  74.971  24.041  1.00  0.00    -0.388 OA
HETATM   13  H   UNL     1      30.334  74.052  24.269  1.00  0.00     0.210 HD
ENDBRANCH   9  12
BRANCH  10  14
HETATM   14  N   UNL     1      31.258  77.033  21.149  1.00  0.00    -0.294 N 
HETATM   15  C   UNL     1      31.281  76.528  19.881  1.00  0.00     0.167 A 
HETATM   16  N   UNL     1      31.663  75.301  19.495  1.00  0.00    -0.222 NA
HETATM   17  C   UNL     1      30.824  77.556  19.072  1.00  0.00     0.149 A 
HETATM   18  C   UNL     1      31.548  75.170  18.155  1.00  0.00     0.237 A 
HETATM   19  N   UNL     1      31.120  76.079  17.246  1.00  0.00    -0.222 NA
HETATM   20  C   UNL     1      30.750  77.297  17.706  1.00  0.00     0.155 A 
HETATM   21  N   UNL     1      30.525  78.667  19.821  1.00  0.00    -0.236 NA
HETATM   22  C   UNL     1      30.796  78.320  21.062  1.00  0.00     0.214 A 
BRANCH  20  23
HETATM   23  N   UNL     1      30.298  78.284  16.813  1.00  0.00    -0.382 N 
HETATM   24  H   UNL     1      30.432  79.237  17.023  1.00  0.00     0.157 HD
HETATM   25  H   UNL     1      29.848  78.023  15.977  1.00  0.00     0.157 HD
ENDBRANCH  20  23
ENDBRANCH  10  14
TORSDOF 3
ENDMDL
MODEL 2
REMARK VINA RESULT:      -7.7      5.209      7.353
REMARK  3 active torsions:
REMARK  status: ('A' for Active; 'I' for Inactive)
REMARK    1  A    between atoms: O_5  and  C_15 
REMARK    2  A    between atoms: N_8  and  C_16 
REMARK    3  A    between atoms: N_12  and  C_21 
ROOT
HETATM    1  P   UNL     1      30.392  76.711  13.343  1.00  0.00     0.408 P 
HETATM    2  O   UNL     1      30.104  78.277  17.364  1.00  0.00    -0.353 OA
HETATM    3  O   UNL     1      31.596  77.299  14.268  1.00  0.00    -0.279 OA
HETATM    4  O   UNL     1      29.019  77.313  13.972  1.00  0.00    -0.287 OA
HETATM    5  O   UNL     1      30.333  75.136  13.715  1.00  0.00    -0.624 OA
HETATM    6  O   UNL     1      30.560  76.975  11.874  1.00  0.00    -0.624 OA
HETATM    7  C   UNL     1      31.349  77.317  15.655  1.00  0.00     0.198 C 
HETATM    8  C   UNL     1      30.095  78.113  15.947  1.00  0.00     0.180 C 
HETATM    9  C   UNL     1      32.356  78.036  16.524  1.00  0.00     0.199 C 
HETATM   10  C   UNL     1      31.500  78.390  17.755  1.00  0.00     0.262 C 
HETATM   11  C   UNL     1      28.877  77.402  15.391  1.00  0.00     0.216 C 
ENDROOT
BRANCH   9  12
HETATM   12  O   UNL     1      32.787  79.234  15.887  1.00  0.00    -0.388 OA
HETATM   13  H   UNL     1      33.124  79.026  15.001  1.00  0.00     0.210 HD
ENDBRANCH   9  12
BRANCH  10  14
HETATM   14  N   UNL     1      31.754  77.530  18.911  1.00  0.00    -0.294 N 
HETATM   15  C   UNL     1      31.390  77.769  20.206  1.00  0.00     0.167 A 
HETATM   16  N   UNL     1      30.727  78.832  20.686  1.00  0.00    -0.222 NA
HETATM   17  C   UNL     1      31.851  76.676  20.920  1.00  0.00     0.149 A 
HETATM   18  C   UNL     1      30.549  78.714  22.020  1.00  0.00     0.237 A 
HETATM   19  N   UNL     1      30.942  77.713  22.845  1.00  0.00    -0.222 NA
HETATM   20  C   UNL     1      31.606  76.671  22.291  1.00  0.00     0.155 A 
HETATM   21  N   UNL     1      32.484  75.784  20.091  1.00  0.00    -0.236 NA
HETATM   22  C   UNL     1      32.408  76.326  18.893  1.00  0.00     0.214 A 
BRANCH  20  23
HETATM   23  N   UNL     1      32.041  75.602  23.093  1.00  0.00    -0.382 N 
HETATM   24  H   UNL     1      33.004  75.447  23.229  1.00  0.00     0.157 HD
HETATM   25  H   UNL     1      31.382  75.007  23.520  1.00  0.00     0.157 HD
ENDBRANCH  20  23
ENDBRANCH  10  14
TORSDOF 3
ENDMDL
MODEL 3
REMARK VINA RESULT:      -7.4      2.555      4.054
REMARK  3 active torsions:
REMARK  status: ('A' for Active; 'I' for Inactive)
REMARK    1  A    between atoms: O_5  and  C_15 
REMARK    2  A    between atoms: N_8  and  C_16 
REMARK    3  A    between atoms: N_12  and  C_21 
ROOT
HETATM    1  P   UNL     1      35.471  71.033  19.008  1.00  0.00     0.408 P 
HETATM    2  O   UNL     1      32.343  72.802  21.414  1.00  0.00    -0.353 OA
HETATM    3  O   UNL     1      34.388  72.161  18.555  1.00  0.00    -0.279 OA
HETATM    4  O   UNL     1      34.833  70.311  20.318  1.00  0.00    -0.287 OA
HETATM    5  O   UNL     1      36.714  71.886  19.600  1.00  0.00    -0.624 OA
HETATM    6  O   UNL     1      35.864  70.082  17.914  1.00  0.00    -0.624 OA
HETATM    7  C   UNL     1      33.790  72.892  19.601  1.00  0.00     0.198 C 
HETATM    8  C   UNL     1      33.115  71.947  20.572  1.00  0.00     0.180 C 
HETATM    9  C   UNL     1      32.641  73.803  19.235  1.00  0.00     0.199 C 
HETATM   10  C   UNL     1      31.892  73.903  20.578  1.00  0.00     0.262 C 
HETATM   11  C   UNL     1      34.147  71.100  21.290  1.00  0.00     0.216 C 
ENDROOT
BRANCH   9  12
HETATM   12  O   UNL     1      31.803  73.171  18.273  1.00  0.00    -0.388 OA
HETATM   13  H   UNL     1      31.709  72.231  18.492  1.00  0.00     0.210 HD
ENDBRANCH   9  12
BRANCH  10  14
HETATM   14  N   UNL     1      32.113  75.169  21.278  1.00  0.00    -0.294 N 
HETATM   15  C   UNL     1      31.727  76.412  20.864  1.00  0.00     0.167 A 
HETATM   16  N   UNL     1      31.068  76.732  19.741  1.00  0.00    -0.222 NA
HETATM   17  C   UNL     1      32.161  77.276  21.857  1.00  0.00     0.149 A 
HETATM   18  C   UNL     1      30.862  78.066  19.678  1.00  0.00     0.237 A 
HETATM   19  N   UNL     1      31.226  79.025  20.564  1.00  0.00    -0.222 NA
HETATM   20  C   UNL     1      31.889  78.629  21.677  1.00  0.00     0.155 A 
HETATM   21  N   UNL     1      32.799  76.586  22.857  1.00  0.00    -0.236 NA
HETATM   22  C   UNL     1      32.753  75.325  22.480  1.00  0.00     0.214 A 
BRANCH  20  23
HETATM   23  N   UNL     1      32.295  79.576  22.633  1.00  0.00    -0.382 N 
HETATM   24  H   UNL     1      32.559  80.481  22.349  1.00  0.00     0.157 HD
HETATM   25  H   UNL     1      32.316  79.334  23.587  1.00  0.00     0.157 HD
ENDBRANCH  20  23
ENDBRANCH  10  14
TORSDOF 3
ENDMDL
MODEL 4
REMARK VINA RESULT:      -7.2      2.840      4.324
REMARK  3 active torsions:
REMARK  status: ('A' for Active; 'I' for Inactive)
REMARK    1  A    between atoms: O_5  and  C_15 
REMARK    2  A    between atoms: N_8  and  C_16 
REMARK    3  A    between atoms: N_12  and  C_21 
ROOT
HETATM    1  P   UNL     1      34.398  68.272  19.767  1.00  0.00     0.408 P 
HETATM    2  O   UNL     1      35.321  72.486  20.068  1.00  0.00    -0.353 OA
HETATM    3  O   UNL     1      33.849  69.331  20.875  1.00  0.00    -0.279 OA
HETATM    4  O   UNL     1      35.745  68.938  19.149  1.00  0.00    -0.287 OA
HETATM    5  O   UNL     1      33.326  68.367  18.556  1.00  0.00    -0.624 OA
HETATM    6  O   UNL     1      34.589  66.878  20.290  1.00  0.00    -0.624 OA
HETATM    7  C   UNL     1      33.916  70.690  20.508  1.00  0.00     0.198 C 
HETATM    8  C   UNL     1      35.341  71.063  20.159  1.00  0.00     0.180 C 
HETATM    9  C   UNL     1      33.605  71.709  21.581  1.00  0.00     0.199 C 
HETATM   10  C   UNL     1      34.356  72.946  21.054  1.00  0.00     0.262 C 
HETATM   11  C   UNL     1      35.782  70.344  18.899  1.00  0.00     0.216 C 
ENDROOT
BRANCH   9  12
HETATM   12  O   UNL     1      34.174  71.303  22.822  1.00  0.00    -0.388 OA
HETATM   13  H   UNL     1      34.326  70.344  22.810  1.00  0.00     0.210 HD
ENDBRANCH   9  12
BRANCH  10  14
HETATM   14  N   UNL     1      33.479  73.948  20.447  1.00  0.00    -0.294 N 
HETATM   15  C   UNL     1      32.945  75.047  21.058  1.00  0.00     0.167 A 
HETATM   16  N   UNL     1      33.111  75.437  22.331  1.00  0.00    -0.222 NA
HETATM   17  C   UNL     1      32.192  75.676  20.080  1.00  0.00     0.149 A 
HETATM   18  C   UNL     1      32.424  76.576  22.569  1.00  0.00     0.237 A 
HETATM   19  N   UNL     1      31.653  77.297  21.720  1.00  0.00    -0.222 NA
HETATM   20  C   UNL     1      31.530  76.844  20.449  1.00  0.00     0.155 A 
HETATM   21  N   UNL     1      32.259  74.986  18.896  1.00  0.00    -0.236 NA
HETATM   22  C   UNL     1      33.039  73.955  19.150  1.00  0.00     0.214 A 
BRANCH  20  23
HETATM   23  N   UNL     1      30.743  77.546  19.521  1.00  0.00    -0.382 N 
HETATM   24  H   UNL     1      29.766  77.588  19.635  1.00  0.00     0.157 HD
HETATM   25  H   UNL     1      31.169  77.997  18.755  1.00  0.00     0.157 HD
ENDBRANCH  20  23
ENDBRANCH  10  14
TORSDOF 3
ENDMDL
MODEL 5
REMARK VINA RESULT:      -7.1      4.002      6.157
REMARK  3 active torsions:
REMARK  status: ('A' for Active; 'I' for Inactive)
REMARK    1  A    between atoms: O_5  and  C_15 
REMARK    2  A    between atoms: N_8  and  C_16 
REMARK    3  A    between atoms: N_12  and  C_21 
ROOT
HETATM    1  P   UNL     1      31.200  77.434  22.165  1.00  0.00     0.408 P 
HETATM    2  O   UNL     1      32.176  74.507  19.137  1.00  0.00    -0.353 OA
HETATM    3  O   UNL     1      31.165  75.813  22.305  1.00  0.00    -0.279 OA
HETATM    4  O   UNL     1      31.132  77.741  20.571  1.00  0.00    -0.287 OA
HETATM    5  O   UNL     1      32.713  77.840  22.577  1.00  0.00    -0.624 OA
HETATM    6  O   UNL     1      30.149  78.143  22.971  1.00  0.00    -0.624 OA
HETATM    7  C   UNL     1      31.941  75.101  21.369  1.00  0.00     0.198 C 
HETATM    8  C   UNL     1      31.518  75.466  19.962  1.00  0.00     0.180 C 
HETATM    9  C   UNL     1      31.778  73.598  21.340  1.00  0.00     0.199 C 
HETATM   10  C   UNL     1      32.224  73.271  19.902  1.00  0.00     0.262 C 
HETATM   11  C   UNL     1      31.862  76.912  19.665  1.00  0.00     0.216 C 
ENDROOT
BRANCH   9  12
HETATM   12  O   UNL     1      30.407  73.251  21.501  1.00  0.00    -0.388 OA
HETATM   13  H   UNL     1      29.873  74.059  21.561  1.00  0.00     0.210 HD
ENDBRANCH   9  12
BRANCH  10  14
HETATM   14  N   UNL     1      33.569  72.699  19.822  1.00  0.00    -0.294 N 
HETATM   15  C   UNL     1      33.899  71.437  19.417  1.00  0.00     0.167 A 
HETATM   16  N   UNL     1      33.069  70.465  19.009  1.00  0.00    -0.222 NA
HETATM   17  C   UNL     1      35.279  71.374  19.516  1.00  0.00     0.149 A 
HETATM   18  C   UNL     1      33.766  69.353  18.688  1.00  0.00     0.237 A 
HETATM   19  N   UNL     1      35.105  69.146  18.734  1.00  0.00    -0.222 NA
HETATM   20  C   UNL     1      35.882  70.172  19.155  1.00  0.00     0.155 A 
HETATM   21  N   UNL     1      35.789  72.564  19.970  1.00  0.00    -0.236 NA
HETATM   22  C   UNL     1      34.737  73.338  20.143  1.00  0.00     0.214 A 
BRANCH  20  23
HETATM   23  N   UNL     1      37.277  70.019  19.227  1.00  0.00    -0.382 N 
HETATM   24  H   UNL     1      37.786  69.759  18.426  1.00  0.00     0.157 HD
HETATM   25  H   UNL     1      37.746  70.173  20.079  1.00  0.00     0.157 HD
ENDBRANCH  20  23
ENDBRANCH  10  14
TORSDOF 3
ENDMDL
MODEL 6
REMARK VINA RESULT:      -7.1      3.984      5.940
REMARK  3 active torsions:
REMARK  status: ('A' for Active; 'I' for Inactive)
REMARK    1  A    between atoms: O_5  and  C_15 
REMARK    2  A    between atoms: N_8  and  C_16 
REMARK    3  A    between atoms: N_12  and  C_21 
ROOT
HETATM    1  P   UNL     1      35.517  67.596  18.760  1.00  0.00     0.408 P 
HETATM    2  O   UNL     1      33.565  71.448  18.535  1.00  0.00    -0.353 OA
HETATM    3  O   UNL     1      36.203  69.065  18.901  1.00  0.00    -0.279 OA
HETATM    4  O   UNL     1      34.107  67.840  17.989  1.00  0.00    -0.287 OA
HETATM    5  O   UNL     1      35.075  67.212  20.270  1.00  0.00    -0.624 OA
HETATM    6  O   UNL     1      36.398  66.566  18.113  1.00  0.00    -0.624 OA
HETATM    7  C   UNL     1      35.331  70.118  19.245  1.00  0.00     0.198 C 
HETATM    8  C   UNL     1      34.210  70.212  18.232  1.00  0.00     0.180 C 
HETATM    9  C   UNL     1      35.890  71.521  19.190  1.00  0.00     0.199 C 
HETATM   10  C   UNL     1      34.608  72.352  18.993  1.00  0.00     0.262 C 
HETATM   11  C   UNL     1      33.320  68.988  18.313  1.00  0.00     0.216 C 
ENDROOT
BRANCH   9  12
HETATM   12  O   UNL     1      36.730  71.669  18.050  1.00  0.00    -0.388 OA
HETATM   13  H   UNL     1      36.224  71.466  17.247  1.00  0.00     0.210 HD
ENDBRANCH   9  12
BRANCH  10  14
HETATM   14  N   UNL     1      34.161  73.036  20.208  1.00  0.00    -0.294 N 
HETATM   15  C   UNL     1      33.328  74.116  20.281  1.00  0.00     0.167 A 
HETATM   16  N   UNL     1      32.747  74.770  19.265  1.00  0.00    -0.222 NA
HETATM   17  C   UNL     1      33.209  74.391  21.634  1.00  0.00     0.149 A 
HETATM   18  C   UNL     1      31.989  75.788  19.731  1.00  0.00     0.237 A 
HETATM   19  N   UNL     1      31.780  76.174  21.013  1.00  0.00    -0.222 NA
HETATM   20  C   UNL     1      32.399  75.467  21.988  1.00  0.00     0.155 A 
HETATM   21  N   UNL     1      33.949  73.506  22.377  1.00  0.00    -0.236 NA
HETATM   22  C   UNL     1      34.507  72.706  21.492  1.00  0.00     0.214 A 
BRANCH  20  23
HETATM   23  N   UNL     1      32.224  75.818  23.337  1.00  0.00    -0.382 N 
HETATM   24  H   UNL     1      32.165  76.766  23.596  1.00  0.00     0.157 HD
HETATM   25  H   UNL     1      32.159  75.116  24.025  1.00  0.00     0.157 HD
ENDBRANCH  20  23
ENDBRANCH  10  14
TORSDOF 3
ENDMDL
MODEL 7
REMARK VINA RESULT:      -7.0      5.330      7.562
REMARK  3 active torsions:
REMARK  status: ('A' for Active; 'I' for Inactive)
REMARK    1  A    between atoms: O_5  and  C_15 
REMARK    2  A    between atoms: N_8  and  C_16 
REMARK    3  A    between atoms: N_12  and  C_21 
ROOT
HETATM    1  P   UNL     1      31.749  74.957  21.817  1.00  0.00     0.408 P 
HETATM    2  O   UNL     1      34.969  72.127  21.249  1.00  0.00    -0.353 OA
HETATM    3  O   UNL     1      31.985  73.965  20.548  1.00  0.00    -0.279 OA
HETATM    4  O   UNL     1      33.194  75.089  22.550  1.00  0.00    -0.287 OA
HETATM    5  O   UNL     1      30.864  74.081  22.852  1.00  0.00    -0.624 OA
HETATM    6  O   UNL     1      31.122  76.274  21.458  1.00  0.00    -0.624 OA
HETATM    7  C   UNL     1      32.810  72.848  20.791  1.00  0.00     0.198 C 
HETATM    8  C   UNL     1      34.162  73.303  21.297  1.00  0.00     0.180 C 
HETATM    9  C   UNL     1      33.213  72.017  19.594  1.00  0.00     0.199 C 
HETATM   10  C   UNL     1      34.512  71.362  20.100  1.00  0.00     0.262 C 
HETATM   11  C   UNL     1      34.028  73.935  22.667  1.00  0.00     0.216 C 
ENDROOT
BRANCH   9  12
HETATM   12  O   UNL     1      33.510  72.863  18.488  1.00  0.00    -0.388 OA
HETATM   13  H   UNL     1      33.395  72.368  17.661  1.00  0.00     0.210 HD
ENDBRANCH   9  12
BRANCH  10  14
HETATM   14  N   UNL     1      34.349  69.959  20.483  1.00  0.00    -0.294 N 
HETATM   15  C   UNL     1      34.838  68.868  19.822  1.00  0.00     0.167 A 
HETATM   16  N   UNL     1      35.565  68.852  18.695  1.00  0.00    -0.222 NA
HETATM   17  C   UNL     1      34.423  67.776  20.567  1.00  0.00     0.149 A 
HETATM   18  C   UNL     1      35.865  67.582  18.343  1.00  0.00     0.237 A 
HETATM   19  N   UNL     1      35.531  66.427  18.967  1.00  0.00    -0.222 NA
HETATM   20  C   UNL     1      34.795  66.518  20.101  1.00  0.00     0.155 A 
HETATM   21  N   UNL     1      33.697  68.181  21.659  1.00  0.00    -0.236 NA
HETATM   22  C   UNL     1      33.672  69.495  21.580  1.00  0.00     0.214 A 
BRANCH  20  23
HETATM   23  N   UNL     1      34.416  65.356  20.794  1.00  0.00    -0.382 N 
HETATM   24  H   UNL     1      33.601  65.356  21.347  1.00  0.00     0.157 HD
HETATM   25  H   UNL     1      34.964  64.541  20.726  1.00  0.00     0.157 HD
ENDBRANCH  20  23
ENDBRANCH  10  14
TORSDOF 3
ENDMDL
MODEL 8
REMARK VINA RESULT:      -6.9      2.639      4.006
REMARK  3 active torsions:
REMARK  status: ('A' for Active; 'I' for Inactive)
REMARK    1  A    between atoms: O_5  and  C_15 
REMARK    2  A    between atoms: N_8  and  C_16 
REMARK    3  A    between atoms: N_12  and  C_21 
ROOT
HETATM    1  P   UNL     1      30.907  71.542  17.575  1.00  0.00     0.408 P 
HETATM    2  O   UNL     1      33.583  74.299  19.560  1.00  0.00    -0.353 OA
HETATM    3  O   UNL     1      31.155  71.705  19.176  1.00  0.00    -0.279 OA
HETATM    4  O   UNL     1      32.212  72.194  16.858  1.00  0.00    -0.287 OA
HETATM    5  O   UNL     1      29.716  72.588  17.245  1.00  0.00    -0.624 OA
HETATM    6  O   UNL     1      30.608  70.136  17.139  1.00  0.00    -0.624 OA
HETATM    7  C   UNL     1      31.703  72.936  19.588  1.00  0.00     0.198 C 
HETATM    8  C   UNL     1      33.016  73.183  18.876  1.00  0.00     0.180 C 
HETATM    9  C   UNL     1      32.132  73.050  21.033  1.00  0.00     0.199 C 
HETATM   10  C   UNL     1      33.183  74.173  20.952  1.00  0.00     0.262 C 
HETATM   11  C   UNL     1      32.782  73.390  17.393  1.00  0.00     0.216 C 
ENDROOT
BRANCH   9  12
HETATM   12  O   UNL     1      32.760  71.843  21.454  1.00  0.00    -0.388 OA
HETATM   13  H   UNL     1      33.724  71.946  21.407  1.00  0.00     0.210 HD
ENDBRANCH   9  12
BRANCH  10  14
HETATM   14  N   UNL     1      32.697  75.465  21.440  1.00  0.00    -0.294 N 
HETATM   15  C   UNL     1      31.984  76.391  20.733  1.00  0.00     0.167 A 
HETATM   16  N   UNL     1      31.580  76.313  19.457  1.00  0.00    -0.222 NA
HETATM   17  C   UNL     1      31.765  77.433  21.620  1.00  0.00     0.149 A 
HETATM   18  C   UNL     1      30.897  77.425  19.109  1.00  0.00     0.237 A 
HETATM   19  N   UNL     1      30.607  78.515  19.861  1.00  0.00    -0.222 NA
HETATM   20  C   UNL     1      31.047  78.525  21.142  1.00  0.00     0.155 A 
HETATM   21  N   UNL     1      32.327  77.158  22.841  1.00  0.00    -0.236 NA
HETATM   22  C   UNL     1      32.878  75.970  22.700  1.00  0.00     0.214 A 
BRANCH  20  23
HETATM   23  N   UNL     1      30.780  79.627  21.973  1.00  0.00    -0.382 N 
HETATM   24  H   UNL     1      30.839  79.532  22.951  1.00  0.00     0.157 HD
HETATM   25  H   UNL     1      30.535  80.495  21.577  1.00  0.00     0.157 HD
ENDBRANCH  20  23
ENDBRANCH  10  14
TORSDOF 3
ENDMDL
MODEL 9
REMARK VINA RESULT:      -6.9      3.244      4.995
REMARK  3 active torsions:
REMARK  status: ('A' for Active; 'I' for Inactive)
REMARK    1  A    between atoms: O_5  and  C_15 
REMARK    2  A    between atoms: N_8  and  C_16 
REMARK    3  A    between atoms: N_12  and  C_21 
ROOT
HETATM    1  P   UNL     1      29.388  71.215  17.040  1.00  0.00     0.408 P 
HETATM    2  O   UNL     1      31.946  74.697  17.228  1.00  0.00    -0.353 OA
HETATM    3  O   UNL     1      30.284  71.721  18.301  1.00  0.00    -0.279 OA
HETATM    4  O   UNL     1      30.038  71.919  15.727  1.00  0.00    -0.287 OA
HETATM    5  O   UNL     1      27.969  71.973  17.227  1.00  0.00    -0.624 OA
HETATM    6  O   UNL     1      29.261  69.722  16.935  1.00  0.00    -0.624 OA
HETATM    7  C   UNL     1      30.655  73.080  18.283  1.00  0.00     0.198 C 
HETATM    8  C   UNL     1      31.409  73.393  17.008  1.00  0.00     0.180 C 
HETATM    9  C   UNL     1      31.649  73.537  19.327  1.00  0.00     0.199 C 
HETATM   10  C   UNL     1      32.257  74.778  18.646  1.00  0.00     0.262 C 
HETATM   11  C   UNL     1      30.492  73.271  15.808  1.00  0.00     0.216 C 
ENDROOT
BRANCH   9  12
HETATM   12  O   UNL     1      32.661  72.551  19.504  1.00  0.00    -0.388 OA
HETATM   13  H   UNL     1      33.377  72.916  20.048  1.00  0.00     0.210 HD
ENDBRANCH   9  12
BRANCH  10  14
HETATM   14  N   UNL     1      31.757  76.044  19.184  1.00  0.00    -0.294 N 
HETATM   15  C   UNL     1      31.963  76.538  20.441  1.00  0.00     0.167 A 
HETATM   16  N   UNL     1      32.660  75.974  21.438  1.00  0.00    -0.222 NA
HETATM   17  C   UNL     1      31.295  77.752  20.466  1.00  0.00     0.149 A 
HETATM   18  C   UNL     1      32.639  76.763  22.534  1.00  0.00     0.237 A 
HETATM   19  N   UNL     1      32.034  77.964  22.706  1.00  0.00    -0.222 NA
HETATM   20  C   UNL     1      31.347  78.473  21.656  1.00  0.00     0.155 A 
HETATM   21  N   UNL     1      30.694  78.002  19.259  1.00  0.00    -0.236 NA
HETATM   22  C   UNL     1      30.990  76.959  18.511  1.00  0.00     0.214 A 
BRANCH  20  23
HETATM   23  N   UNL     1      30.697  79.714  21.771  1.00  0.00    -0.382 N 
HETATM   24  H   UNL     1      31.222  80.547  21.779  1.00  0.00     0.157 HD
HETATM   25  H   UNL     1      29.715  79.750  21.844  1.00  0.00     0.157 HD
ENDBRANCH  20  23
ENDBRANCH  10  14
TORSDOF 3
ENDMDL
