MODEL 1
REMARK VINA RESULT:      -7.8      0.000      0.000
REMARK  3 active torsions:
REMARK  status: ('A' for Active; 'I' for Inactive)
REMARK    1  A    between atoms: O_5  and  C_15 
REMARK    2  A    between atoms: N_8  and  C_16 
REMARK    3  A    between atoms: N_12  and  C_21 
ROOT
HETATM    1  P   UNL     1      32.808  71.635  22.539  1.00  0.00     0.408 P 
HETATM    2  O   UNL     1      33.073  75.943  22.262  1.00  0.00    -0.353 OA
HETATM    3  O   UNL     1      31.631  72.722  22.826  1.00  0.00    -0.279 OA
HETATM    4  O   UNL     1      34.206  72.455  22.667  1.00  0.00    -0.287 OA
HETATM    5  O   UNL     1      32.685  71.319  20.956  1.00  0.00    -0.624 OA
HETATM    6  O   UNL     1      32.736  70.409  23.402  1.00  0.00    -0.624 OA
HETATM    7  C   UNL     1      31.814  73.992  22.242  1.00  0.00     0.198 C 
HETATM    8  C   UNL     1      33.130  74.585  22.698  1.00  0.00     0.180 C 
HETATM    9  C   UNL     1      30.849  75.082  22.648  1.00  0.00     0.199 C 
HETATM   10  C   UNL     1      31.680  76.347  22.363  1.00  0.00     0.262 C 
HETATM   11  C   UNL     1      34.291  73.782  22.146  1.00  0.00     0.216 C 
ENDROOT
BRANCH   9  12
HETATM   12  O   UNL     1      30.576  75.000  24.043  1.00  0.00    -0.388 OA
HETATM   13  H   UNL     1      29.699  75.376  24.224  1.00  0.00     0.210 HD
ENDBRANCH   9  12
BRANCH  10  14
HETATM   14  N   UNL     1      31.284  77.043  21.137  1.00  0.00    -0.294 N 
HETATM   15  C   UNL     1      31.280  76.532  19.871  1.00  0.00     0.167 A 
HETATM   16  N   UNL     1      31.633  75.297  19.485  1.00  0.00    -0.222 NA
HETATM   17  C   UNL     1      30.832  77.566  19.064  1.00  0.00     0.149 A 
HETATM   18  C   UNL     1      31.497  75.162  18.147  1.00  0.00     0.237 A 
HETATM   19  N   UNL     1      31.074  76.076  17.240  1.00  0.00    -0.222 NA
HETATM   20  C   UNL     1      30.734  77.303  17.701  1.00  0.00     0.155 A 
HETATM   21  N   UNL     1      30.565  78.685  19.812  1.00  0.00    -0.236 NA
HETATM   22  C   UNL     1      30.846  78.338  21.051  1.00  0.00     0.214 A 
BRANCH  20  23
HETATM   23  N   UNL     1      30.289  78.295  16.810  1.00  0.00    -0.382 N 
HETATM   24  H   UNL     1      30.311  78.131  15.839  1.00  0.00     0.157 HD
HETATM   25  H   UNL     1      29.955  79.155  17.156  1.00  0.00     0.157 HD
ENDBRANCH  20  23
ENDBRANCH  10  14
TORSDOF 3
ENDMDL
MODEL 2
REMARK VINA RESULT:      -7.7      5.213      7.362
REMARK  3 active torsions:
REMARK  status: ('A' for Active; 'I' for Inactive)
REMARK    1  A    between atoms: O_5  and  C_15 
REMARK    2  A    between atoms: N_8  and  C_16 
REMARK    3  A    between atoms: N_12  and  C_21 
ROOT
HETATM    1  P   UNL     1      30.362  76.800  13.346  1.00  0.00     0.408 P 
HETATM    2  O   UNL     1      30.021  78.258  17.403  1.00  0.00    -0.353 OA
HETATM    3  O   UNL     1      31.541  77.428  14.277  1.00  0.00    -0.279 OA
HETATM    4  O   UNL     1      28.964  77.317  13.996  1.00  0.00    -0.287 OA
HETATM    5  O   UNL     1      30.386  75.216  13.681  1.00  0.00    -0.624 OA
HETATM    6  O   UNL     1      30.506  77.105  11.882  1.00  0.00    -0.624 OA
HETATM    7  C   UNL     1      31.303  77.402  15.666  1.00  0.00     0.198 C 
HETATM    8  C   UNL     1      30.011  78.125  15.982  1.00  0.00     0.180 C 
HETATM    9  C   UNL     1      32.277  78.152  16.545  1.00  0.00     0.199 C 
HETATM   10  C   UNL     1      31.412  78.433  17.788  1.00  0.00     0.262 C 
HETATM   11  C   UNL     1      28.828  77.366  15.417  1.00  0.00     0.216 C 
ENDROOT
BRANCH   9  12
HETATM   12  O   UNL     1      32.641  79.385  15.933  1.00  0.00    -0.388 OA
HETATM   13  H   UNL     1      32.483  80.114  16.554  1.00  0.00     0.210 HD
ENDBRANCH   9  12
BRANCH  10  14
HETATM   14  N   UNL     1      31.718  77.561  18.923  1.00  0.00    -0.294 N 
HETATM   15  C   UNL     1      31.386  77.773  20.231  1.00  0.00     0.167 A 
HETATM   16  N   UNL     1      30.716  78.814  20.747  1.00  0.00    -0.222 NA
HETATM   17  C   UNL     1      31.891  76.679  20.915  1.00  0.00     0.149 A 
HETATM   18  C   UNL     1      30.579  78.672  22.084  1.00  0.00     0.237 A 
HETATM   19  N   UNL     1      31.016  77.667  22.881  1.00  0.00    -0.222 NA
HETATM   20  C   UNL     1      31.686  76.648  22.292  1.00  0.00     0.155 A 
HETATM   21  N   UNL     1      32.518  75.815  20.054  1.00  0.00    -0.236 NA
HETATM   22  C   UNL     1      32.396  76.372  18.867  1.00  0.00     0.214 A 
BRANCH  20  23
HETATM   23  N   UNL     1      32.166  75.577  23.064  1.00  0.00    -0.382 N 
HETATM   24  H   UNL     1      33.131  75.385  23.094  1.00  0.00     0.157 HD
HETATM   25  H   UNL     1      31.537  75.018  23.576  1.00  0.00     0.157 HD
ENDBRANCH  20  23
ENDBRANCH  10  14
TORSDOF 3
ENDMDL
MODEL 3
REMARK VINA RESULT:      -7.4      2.555      4.056
REMARK  3 active torsions:
REMARK  status: ('A' for Active; 'I' for Inactive)
REMARK    1  A    between atoms: O_5  and  C_15 
REMARK    2  A    between atoms: N_8  and  C_16 
REMARK    3  A    between atoms: N_12  and  C_21 
ROOT
HETATM    1  P   UNL     1      35.487  71.046  19.000  1.00  0.00     0.408 P 
HETATM    2  O   UNL     1      32.365  72.800  21.425  1.00  0.00    -0.353 OA
HETATM    3  O   UNL     1      34.394  72.166  18.552  1.00  0.00    -0.279 OA
HETATM    4  O   UNL     1      34.863  70.322  20.315  1.00  0.00    -0.287 OA
HETATM    5  O   UNL     1      36.729  71.907  19.582  1.00  0.00    -0.624 OA
HETATM    6  O   UNL     1      35.878  70.096  17.905  1.00  0.00    -0.624 OA
HETATM    7  C   UNL     1      33.799  72.896  19.601  1.00  0.00     0.198 C 
HETATM    8  C   UNL     1      33.136  71.949  20.579  1.00  0.00     0.180 C 
HETATM    9  C   UNL     1      32.642  73.799  19.242  1.00  0.00     0.199 C 
HETATM   10  C   UNL     1      31.902  73.897  20.590  1.00  0.00     0.262 C 
HETATM   11  C   UNL     1      34.178  71.109  21.290  1.00  0.00     0.216 C 
ENDROOT
BRANCH   9  12
HETATM   12  O   UNL     1      31.801  73.161  18.287  1.00  0.00    -0.388 OA
HETATM   13  H   UNL     1      31.715  72.220  18.508  1.00  0.00     0.210 HD
ENDBRANCH   9  12
BRANCH  10  14
HETATM   14  N   UNL     1      32.120  75.165  21.287  1.00  0.00    -0.294 N 
HETATM   15  C   UNL     1      31.733  76.406  20.868  1.00  0.00     0.167 A 
HETATM   16  N   UNL     1      31.075  76.722  19.743  1.00  0.00    -0.222 NA
HETATM   17  C   UNL     1      32.165  77.274  21.859  1.00  0.00     0.149 A 
HETATM   18  C   UNL     1      30.867  78.056  19.676  1.00  0.00     0.237 A 
HETATM   19  N   UNL     1      31.229  79.018  20.559  1.00  0.00    -0.222 NA
HETATM   20  C   UNL     1      31.891  78.626  21.674  1.00  0.00     0.155 A 
HETATM   21  N   UNL     1      32.802  76.588  22.862  1.00  0.00    -0.236 NA
HETATM   22  C   UNL     1      32.758  75.326  22.489  1.00  0.00     0.214 A 
BRANCH  20  23
HETATM   23  N   UNL     1      32.294  79.576  22.628  1.00  0.00    -0.382 N 
HETATM   24  H   UNL     1      32.003  79.488  23.564  1.00  0.00     0.157 HD
HETATM   25  H   UNL     1      32.868  80.330  22.360  1.00  0.00     0.157 HD
ENDBRANCH  20  23
ENDBRANCH  10  14
TORSDOF 3
ENDMDL
MODEL 4
REMARK VINA RESULT:      -7.2      2.775      4.256
REMARK  3 active torsions:
REMARK  status: ('A' for Active; 'I' for Inactive)
REMARK    1  A    between atoms: O_5  and  C_15 
REMARK    2  A    between atoms: N_8  and  C_16 
REMARK    3  A    between atoms: N_12  and  C_21 
ROOT
HETATM    1  P   UNL     1      34.400  68.381  19.758  1.00  0.00     0.408 P 
HETATM    2  O   UNL     1      35.313  72.598  20.045  1.00  0.00    -0.353 OA
HETATM    3  O   UNL     1      33.853  69.442  20.865  1.00  0.00    -0.279 OA
HETATM    4  O   UNL     1      35.744  69.049  19.134  1.00  0.00    -0.287 OA
HETATM    5  O   UNL     1      33.324  68.469  18.551  1.00  0.00    -0.624 OA
HETATM    6  O   UNL     1      34.597  66.989  20.285  1.00  0.00    -0.624 OA
HETATM    7  C   UNL     1      33.915  70.800  20.495  1.00  0.00     0.198 C 
HETATM    8  C   UNL     1      35.338  71.175  20.140  1.00  0.00     0.180 C 
HETATM    9  C   UNL     1      33.604  71.820  21.566  1.00  0.00     0.199 C 
HETATM   10  C   UNL     1      34.350  73.058  21.033  1.00  0.00     0.262 C 
HETATM   11  C   UNL     1      35.776  70.455  18.881  1.00  0.00     0.216 C 
ENDROOT
BRANCH   9  12
HETATM   12  O   UNL     1      34.179  71.419  22.806  1.00  0.00    -0.388 OA
HETATM   13  H   UNL     1      33.931  72.054  23.497  1.00  0.00     0.210 HD
ENDBRANCH   9  12
BRANCH  10  14
HETATM   14  N   UNL     1      33.468  74.057  20.427  1.00  0.00    -0.294 N 
HETATM   15  C   UNL     1      32.925  75.150  21.040  1.00  0.00     0.167 A 
HETATM   16  N   UNL     1      33.084  75.537  22.314  1.00  0.00    -0.222 NA
HETATM   17  C   UNL     1      32.172  75.777  20.060  1.00  0.00     0.149 A 
HETATM   18  C   UNL     1      32.389  76.671  22.553  1.00  0.00     0.237 A 
HETATM   19  N   UNL     1      31.616  77.389  21.704  1.00  0.00    -0.222 NA
HETATM   20  C   UNL     1      31.501  76.939  20.431  1.00  0.00     0.155 A 
HETATM   21  N   UNL     1      32.247  75.091  18.875  1.00  0.00    -0.236 NA
HETATM   22  C   UNL     1      33.033  74.065  19.128  1.00  0.00     0.214 A 
BRANCH  20  23
HETATM   23  N   UNL     1      30.712  77.639  19.502  1.00  0.00    -0.382 N 
HETATM   24  H   UNL     1      30.678  77.344  18.563  1.00  0.00     0.157 HD
HETATM   25  H   UNL     1      30.193  78.425  19.790  1.00  0.00     0.157 HD
ENDBRANCH  20  23
ENDBRANCH  10  14
TORSDOF 3
ENDMDL
MODEL 5
REMARK VINA RESULT:      -7.1      3.995      6.160
REMARK  3 active torsions:
REMARK  status: ('A' for Active; 'I' for Inactive)
REMARK    1  A    between atoms: O_5  and  C_15 
REMARK    2  A    between atoms: N_8  and  C_16 
REMARK    3  A    between atoms: N_12  and  C_21 
ROOT
HETATM    1  P   UNL     1      31.192  77.437  22.158  1.00  0.00     0.408 P 
HETATM    2  O   UNL     1      32.171  74.504  19.136  1.00  0.00    -0.353 OA
HETATM    3  O   UNL     1      31.152  75.816  22.299  1.00  0.00    -0.279 OA
HETATM    4  O   UNL     1      31.132  77.743  20.563  1.00  0.00    -0.287 OA
HETATM    5  O   UNL     1      32.705  77.838  22.575  1.00  0.00    -0.624 OA
HETATM    6  O   UNL     1      30.141  78.150  22.959  1.00  0.00    -0.624 OA
HETATM    7  C   UNL     1      31.929  75.101  21.366  1.00  0.00     0.198 C 
HETATM    8  C   UNL     1      31.513  75.466  19.958  1.00  0.00     0.180 C 
HETATM    9  C   UNL     1      31.762  73.599  21.338  1.00  0.00     0.199 C 
HETATM   10  C   UNL     1      32.211  73.269  19.902  1.00  0.00     0.262 C 
HETATM   11  C   UNL     1      31.862  76.911  19.661  1.00  0.00     0.216 C 
ENDROOT
BRANCH   9  12
HETATM   12  O   UNL     1      30.388  73.256  21.494  1.00  0.00    -0.388 OA
HETATM   13  H   UNL     1      30.023  72.984  20.637  1.00  0.00     0.210 HD
ENDBRANCH   9  12
BRANCH  10  14
HETATM   14  N   UNL     1      33.555  72.692  19.827  1.00  0.00    -0.294 N 
HETATM   15  C   UNL     1      33.882  71.430  19.423  1.00  0.00     0.167 A 
HETATM   16  N   UNL     1      33.051  70.461  19.010  1.00  0.00    -0.222 NA
HETATM   17  C   UNL     1      35.262  71.362  19.528  1.00  0.00     0.149 A 
HETATM   18  C   UNL     1      33.746  69.347  18.691  1.00  0.00     0.237 A 
HETATM   19  N   UNL     1      35.083  69.135  18.743  1.00  0.00    -0.222 NA
HETATM   20  C   UNL     1      35.862  70.158  19.169  1.00  0.00     0.155 A 
HETATM   21  N   UNL     1      35.774  72.550  19.986  1.00  0.00    -0.236 NA
HETATM   22  C   UNL     1      34.724  73.327  20.155  1.00  0.00     0.214 A 
BRANCH  20  23
HETATM   23  N   UNL     1      37.256  70.001  19.247  1.00  0.00    -0.382 N 
HETATM   24  H   UNL     1      37.675  69.731  20.097  1.00  0.00     0.157 HD
HETATM   25  H   UNL     1      37.815  70.159  18.452  1.00  0.00     0.157 HD
ENDBRANCH  20  23
ENDBRANCH  10  14
TORSDOF 3
ENDMDL
MODEL 6
REMARK VINA RESULT:      -7.1      3.990      5.944
REMARK  3 active torsions:
REMARK  status: ('A' for Active; 'I' for Inactive)
REMARK    1  A    between atoms: O_5  and  C_15 
REMARK    2  A    between atoms: N_8  and  C_16 
REMARK    3  A    between atoms: N_12  and  C_21 
ROOT
HETATM    1  P   UNL     1      35.526  67.600  18.728  1.00  0.00     0.408 P 
HETATM    2  O   UNL     1      33.551  71.441  18.521  1.00  0.00    -0.353 OA
HETATM    3  O   UNL     1      36.205  69.073  18.861  1.00  0.00    -0.279 OA
HETATM    4  O   UNL     1      34.106  67.835  17.973  1.00  0.00    -0.287 OA
HETATM    5  O   UNL     1      35.103  67.215  20.243  1.00  0.00    -0.624 OA
HETATM    6  O   UNL     1      36.406  66.574  18.073  1.00  0.00    -0.624 OA
HETATM    7  C   UNL     1      35.331  70.121  19.214  1.00  0.00     0.198 C 
HETATM    8  C   UNL     1      34.199  70.208  18.213  1.00  0.00     0.180 C 
HETATM    9  C   UNL     1      35.881  71.527  19.151  1.00  0.00     0.199 C 
HETATM   10  C   UNL     1      34.593  72.351  18.967  1.00  0.00     0.262 C 
HETATM   11  C   UNL     1      33.317  68.979  18.304  1.00  0.00     0.216 C 
ENDROOT
BRANCH   9  12
HETATM   12  O   UNL     1      36.708  71.679  18.002  1.00  0.00    -0.388 OA
HETATM   13  H   UNL     1      36.286  72.291  17.378  1.00  0.00     0.210 HD
ENDBRANCH   9  12
BRANCH  10  14
HETATM   14  N   UNL     1      34.156  73.033  20.187  1.00  0.00    -0.294 N 
HETATM   15  C   UNL     1      33.318  74.109  20.267  1.00  0.00     0.167 A 
HETATM   16  N   UNL     1      32.722  74.760  19.257  1.00  0.00    -0.222 NA
HETATM   17  C   UNL     1      33.212  74.385  21.621  1.00  0.00     0.149 A 
HETATM   18  C   UNL     1      31.965  75.774  19.730  1.00  0.00     0.237 A 
HETATM   19  N   UNL     1      31.767  76.160  21.014  1.00  0.00    -0.222 NA
HETATM   20  C   UNL     1      32.400  75.456  21.983  1.00  0.00     0.155 A 
HETATM   21  N   UNL     1      33.964  73.504  22.357  1.00  0.00    -0.236 NA
HETATM   22  C   UNL     1      34.517  72.706  21.467  1.00  0.00     0.214 A 
BRANCH  20  23
HETATM   23  N   UNL     1      32.237  75.808  23.334  1.00  0.00    -0.382 N 
HETATM   24  H   UNL     1      31.538  76.450  23.595  1.00  0.00     0.157 HD
HETATM   25  H   UNL     1      32.822  75.411  24.020  1.00  0.00     0.157 HD
ENDBRANCH  20  23
ENDBRANCH  10  14
TORSDOF 3
ENDMDL
MODEL 7
REMARK VINA RESULT:      -7.0      5.313      7.556
REMARK  3 active torsions:
REMARK  status: ('A' for Active; 'I' for Inactive)
REMARK    1  A    between atoms: O_5  and  C_15 
REMARK    2  A    between atoms: N_8  and  C_16 
REMARK    3  A    between atoms: N_12  and  C_21 
ROOT
HETATM    1  P   UNL     1      31.749  74.968  21.820  1.00  0.00     0.408 P 
HETATM    2  O   UNL     1      34.964  72.136  21.236  1.00  0.00    -0.353 OA
HETATM    3  O   UNL     1      31.981  73.979  20.548  1.00  0.00    -0.279 OA
HETATM    4  O   UNL     1      33.196  75.096  22.549  1.00  0.00    -0.287 OA
HETATM    5  O   UNL     1      30.866  74.090  22.856  1.00  0.00    -0.624 OA
HETATM    6  O   UNL     1      31.123  76.287  21.467  1.00  0.00    -0.624 OA
HETATM    7  C   UNL     1      32.804  72.860  20.785  1.00  0.00     0.198 C 
HETATM    8  C   UNL     1      34.159  73.312  21.289  1.00  0.00     0.180 C 
HETATM    9  C   UNL     1      33.203  72.032  19.585  1.00  0.00     0.199 C 
HETATM   10  C   UNL     1      34.503  71.374  20.086  1.00  0.00     0.262 C 
HETATM   11  C   UNL     1      34.029  73.940  22.662  1.00  0.00     0.216 C 
ENDROOT
BRANCH   9  12
HETATM   12  O   UNL     1      33.499  72.882  18.480  1.00  0.00    -0.388 OA
HETATM   13  H   UNL     1      33.540  73.803  18.782  1.00  0.00     0.210 HD
ENDBRANCH   9  12
BRANCH  10  14
HETATM   14  N   UNL     1      34.339  69.970  20.464  1.00  0.00    -0.294 N 
HETATM   15  C   UNL     1      34.832  68.881  19.803  1.00  0.00     0.167 A 
HETATM   16  N   UNL     1      35.564  68.868  18.680  1.00  0.00    -0.222 NA
HETATM   17  C   UNL     1      34.414  67.787  20.544  1.00  0.00     0.149 A 
HETATM   18  C   UNL     1      35.866  67.599  18.327  1.00  0.00     0.237 A 
HETATM   19  N   UNL     1      35.530  66.442  18.947  1.00  0.00    -0.222 NA
HETATM   20  C   UNL     1      34.789  66.531  20.078  1.00  0.00     0.155 A 
HETATM   21  N   UNL     1      33.683  68.189  21.634  1.00  0.00    -0.236 NA
HETATM   22  C   UNL     1      33.657  69.504  21.557  1.00  0.00     0.214 A 
BRANCH  20  23
HETATM   23  N   UNL     1      34.407  65.367  20.766  1.00  0.00    -0.382 N 
HETATM   24  H   UNL     1      35.093  64.755  21.120  1.00  0.00     0.157 HD
HETATM   25  H   UNL     1      33.452  65.162  20.896  1.00  0.00     0.157 HD
ENDBRANCH  20  23
ENDBRANCH  10  14
TORSDOF 3
ENDMDL
MODEL 8
REMARK VINA RESULT:      -7.0      2.468      4.131
REMARK  3 active torsions:
REMARK  status: ('A' for Active; 'I' for Inactive)
REMARK    1  A    between atoms: O_5  and  C_15 
REMARK    2  A    between atoms: N_8  and  C_16 
REMARK    3  A    between atoms: N_12  and  C_21 
ROOT
HETATM    1  P   UNL     1      34.967  71.604  19.052  1.00  0.00     0.408 P 
HETATM    2  O   UNL     1      31.293  73.734  19.870  1.00  0.00    -0.353 OA
HETATM    3  O   UNL     1      34.168  72.621  18.062  1.00  0.00    -0.279 OA
HETATM    4  O   UNL     1      33.879  71.118  20.157  1.00  0.00    -0.287 OA
HETATM    5  O   UNL     1      35.969  72.564  19.887  1.00  0.00    -0.624 OA
HETATM    6  O   UNL     1      35.666  70.480  18.343  1.00  0.00    -0.624 OA
HETATM    7  C   UNL     1      33.283  73.519  18.692  1.00  0.00     0.198 C 
HETATM    8  C   UNL     1      32.265  72.753  19.510  1.00  0.00     0.180 C 
HETATM    9  C   UNL     1      32.380  74.337  17.798  1.00  0.00     0.199 C 
HETATM   10  C   UNL     1      31.218  74.664  18.755  1.00  0.00     0.262 C 
HETATM   11  C   UNL     1      32.939  72.059  20.677  1.00  0.00     0.216 C 
ENDROOT
BRANCH   9  12
HETATM   12  O   UNL     1      31.897  73.535  16.724  1.00  0.00    -0.388 OA
HETATM   13  H   UNL     1      30.949  73.365  16.848  1.00  0.00     0.210 HD
ENDBRANCH   9  12
BRANCH  10  14
HETATM   14  N   UNL     1      31.247  76.037  19.262  1.00  0.00    -0.294 N 
HETATM   15  C   UNL     1      31.713  76.451  20.477  1.00  0.00     0.167 A 
HETATM   16  N   UNL     1      32.238  75.696  21.453  1.00  0.00    -0.222 NA
HETATM   17  C   UNL     1      31.527  77.824  20.487  1.00  0.00     0.149 A 
HETATM   18  C   UNL     1      32.587  76.464  22.509  1.00  0.00     0.237 A 
HETATM   19  N   UNL     1      32.466  77.805  22.661  1.00  0.00    -0.222 NA
HETATM   20  C   UNL     1      31.926  78.505  21.635  1.00  0.00     0.155 A 
HETATM   21  N   UNL     1      30.962  78.247  19.311  1.00  0.00    -0.236 NA
HETATM   22  C   UNL     1      30.807  77.151  18.597  1.00  0.00     0.214 A 
BRANCH  20  23
HETATM   23  N   UNL     1      31.773  79.898  21.732  1.00  0.00    -0.382 N 
HETATM   24  H   UNL     1      31.384  80.404  20.982  1.00  0.00     0.157 HD
HETATM   25  H   UNL     1      32.053  80.369  22.550  1.00  0.00     0.157 HD
ENDBRANCH  20  23
ENDBRANCH  10  14
TORSDOF 3
ENDMDL
MODEL 9
REMARK VINA RESULT:      -6.9      2.687      4.054
REMARK  3 active torsions:
REMARK  status: ('A' for Active; 'I' for Inactive)
REMARK    1  A    between atoms: O_5  and  C_15 
REMARK    2  A    between atoms: N_8  and  C_16 
REMARK    3  A    between atoms: N_12  and  C_21 
ROOT
HETATM    1  P   UNL     1      30.632  71.615  17.526  1.00  0.00     0.408 P 
HETATM    2  O   UNL     1      33.468  74.234  19.474  1.00  0.00    -0.353 OA
HETATM    3  O   UNL     1      30.913  71.761  19.123  1.00  0.00    -0.279 OA
HETATM    4  O   UNL     1      31.954  72.206  16.789  1.00  0.00    -0.287 OA
HETATM    5  O   UNL     1      29.487  72.719  17.218  1.00  0.00    -0.624 OA
HETATM    6  O   UNL     1      30.258  70.227  17.092  1.00  0.00    -0.624 OA
HETATM    7  C   UNL     1      31.526  72.964  19.529  1.00  0.00     0.198 C 
HETATM    8  C   UNL     1      32.837  73.149  18.796  1.00  0.00     0.180 C 
HETATM    9  C   UNL     1      31.982  73.052  20.967  1.00  0.00     0.199 C 
HETATM   10  C   UNL     1      33.085  74.123  20.872  1.00  0.00     0.262 C 
HETATM   11  C   UNL     1      32.590  73.371  17.318  1.00  0.00     0.216 C 
ENDROOT
BRANCH   9  12
HETATM   12  O   UNL     1      32.558  71.815  21.375  1.00  0.00    -0.388 OA
HETATM   13  H   UNL     1      33.524  71.867  21.297  1.00  0.00     0.210 HD
ENDBRANCH   9  12
BRANCH  10  14
HETATM   14  N   UNL     1      32.670  75.436  21.370  1.00  0.00    -0.294 N 
HETATM   15  C   UNL     1      31.972  76.388  20.685  1.00  0.00     0.167 A 
HETATM   16  N   UNL     1      31.520  76.323  19.423  1.00  0.00    -0.222 NA
HETATM   17  C   UNL     1      31.826  77.441  21.574  1.00  0.00     0.149 A 
HETATM   18  C   UNL     1      30.871  77.462  19.094  1.00  0.00     0.237 A 
HETATM   19  N   UNL     1      30.653  78.564  19.851  1.00  0.00    -0.222 NA
HETATM   20  C   UNL     1      31.137  78.561  21.115  1.00  0.00     0.155 A 
HETATM   21  N   UNL     1      32.419  77.148  22.776  1.00  0.00    -0.236 NA
HETATM   22  C   UNL     1      32.916  75.938  22.621  1.00  0.00     0.214 A 
BRANCH  20  23
HETATM   23  N   UNL     1      30.945  79.675  21.950  1.00  0.00    -0.382 N 
HETATM   24  H   UNL     1      31.007  79.575  22.928  1.00  0.00     0.157 HD
HETATM   25  H   UNL     1      30.749  80.557  21.557  1.00  0.00     0.157 HD
ENDBRANCH  20  23
ENDBRANCH  10  14
TORSDOF 3
ENDMDL
