MODEL 1
REMARK VINA RESULT:      -7.8      0.000      0.000
REMARK  3 active torsions:
REMARK  status: ('A' for Active; 'I' for Inactive)
REMARK    1  A    between atoms: O_5  and  C_15 
REMARK    2  A    between atoms: N_8  and  C_16 
REMARK    3  A    between atoms: N_12  and  C_21 
ROOT
HETATM    1  P   UNL     1      32.855  71.640  22.552  1.00  0.00     0.408 P 
HETATM    2  O   UNL     1      33.075  75.949  22.265  1.00  0.00    -0.353 OA
HETATM    3  O   UNL     1      31.664  72.715  22.830  1.00  0.00    -0.279 OA
HETATM    4  O   UNL     1      34.243  72.474  22.684  1.00  0.00    -0.287 OA
HETATM    5  O   UNL     1      32.742  71.318  20.968  1.00  0.00    -0.624 OA
HETATM    6  O   UNL     1      32.792  70.414  23.418  1.00  0.00    -0.624 OA
HETATM    7  C   UNL     1      31.837  73.985  22.244  1.00  0.00     0.198 C 
HETATM    8  C   UNL     1      33.144  74.593  22.704  1.00  0.00     0.180 C 
HETATM    9  C   UNL     1      30.858  75.065  22.643  1.00  0.00     0.199 C 
HETATM   10  C   UNL     1      31.677  76.339  22.358  1.00  0.00     0.262 C 
HETATM   11  C   UNL     1      34.316  73.801  22.160  1.00  0.00     0.216 C 
ENDROOT
BRANCH   9  12
HETATM   12  O   UNL     1      30.579  74.984  24.037  1.00  0.00    -0.388 OA
HETATM   13  H   UNL     1      31.413  74.974  24.534  1.00  0.00     0.210 HD
ENDBRANCH   9  12
BRANCH  10  14
HETATM   14  N   UNL     1      31.280  77.027  21.129  1.00  0.00    -0.294 N 
HETATM   15  C   UNL     1      31.291  76.515  19.863  1.00  0.00     0.167 A 
HETATM   16  N   UNL     1      31.664  75.284  19.482  1.00  0.00    -0.222 NA
HETATM   17  C   UNL     1      30.834  77.541  19.052  1.00  0.00     0.149 A 
HETATM   18  C   UNL     1      31.538  75.145  18.144  1.00  0.00     0.237 A 
HETATM   19  N   UNL     1      31.108  76.052  17.232  1.00  0.00    -0.222 NA
HETATM   20  C   UNL     1      30.748  77.275  17.689  1.00  0.00     0.155 A 
HETATM   21  N   UNL     1      30.547  78.657  19.797  1.00  0.00    -0.236 NA
HETATM   22  C   UNL     1      30.825  78.316  21.038  1.00  0.00     0.214 A 
BRANCH  20  23
HETATM   23  N   UNL     1      30.296  78.259  16.793  1.00  0.00    -0.382 N 
HETATM   24  H   UNL     1      30.227  78.057  15.832  1.00  0.00     0.157 HD
HETATM   25  H   UNL     1      30.048  79.152  17.127  1.00  0.00     0.157 HD
ENDBRANCH  20  23
ENDBRANCH  10  14
TORSDOF 3
ENDMDL
MODEL 2
REMARK VINA RESULT:      -7.6      5.225      7.378
REMARK  3 active torsions:
REMARK  status: ('A' for Active; 'I' for Inactive)
REMARK    1  A    between atoms: O_5  and  C_15 
REMARK    2  A    between atoms: N_8  and  C_16 
REMARK    3  A    between atoms: N_12  and  C_21 
ROOT
HETATM    1  P   UNL     1      30.354  76.801  13.336  1.00  0.00     0.408 P 
HETATM    2  O   UNL     1      30.028  78.250  17.398  1.00  0.00    -0.353 OA
HETATM    3  O   UNL     1      31.535  77.433  14.262  1.00  0.00    -0.279 OA
HETATM    4  O   UNL     1      28.957  77.309  13.995  1.00  0.00    -0.287 OA
HETATM    5  O   UNL     1      30.388  75.217  13.669  1.00  0.00    -0.624 OA
HETATM    6  O   UNL     1      30.489  77.109  11.873  1.00  0.00    -0.624 OA
HETATM    7  C   UNL     1      31.304  77.404  15.652  1.00  0.00     0.198 C 
HETATM    8  C   UNL     1      30.011  78.120  15.977  1.00  0.00     0.180 C 
HETATM    9  C   UNL     1      32.280  78.156  16.527  1.00  0.00     0.199 C 
HETATM   10  C   UNL     1      31.421  78.432  17.776  1.00  0.00     0.262 C 
HETATM   11  C   UNL     1      28.829  77.355  15.416  1.00  0.00     0.216 C 
ENDROOT
BRANCH   9  12
HETATM   12  O   UNL     1      32.635  79.392  15.915  1.00  0.00    -0.388 OA
HETATM   13  H   UNL     1      33.395  79.256  15.328  1.00  0.00     0.210 HD
ENDBRANCH   9  12
BRANCH  10  14
HETATM   14  N   UNL     1      31.737  77.559  18.908  1.00  0.00    -0.294 N 
HETATM   15  C   UNL     1      31.422  77.774  20.219  1.00  0.00     0.167 A 
HETATM   16  N   UNL     1      30.762  78.817  20.743  1.00  0.00    -0.222 NA
HETATM   17  C   UNL     1      31.931  76.678  20.898  1.00  0.00     0.149 A 
HETATM   18  C   UNL     1      30.642  78.677  22.081  1.00  0.00     0.237 A 
HETATM   19  N   UNL     1      31.084  77.671  22.874  1.00  0.00    -0.222 NA
HETATM   20  C   UNL     1      31.743  76.649  22.277  1.00  0.00     0.155 A 
HETATM   21  N   UNL     1      32.543  75.810  20.030  1.00  0.00    -0.236 NA
HETATM   22  C   UNL     1      32.409  76.367  18.844  1.00  0.00     0.214 A 
BRANCH  20  23
HETATM   23  N   UNL     1      32.228  75.576  23.044  1.00  0.00    -0.382 N 
HETATM   24  H   UNL     1      32.026  74.649  22.779  1.00  0.00     0.157 HD
HETATM   25  H   UNL     1      32.770  75.750  23.848  1.00  0.00     0.157 HD
ENDBRANCH  20  23
ENDBRANCH  10  14
TORSDOF 3
ENDMDL
MODEL 3
REMARK VINA RESULT:      -7.4      2.535      4.043
REMARK  3 active torsions:
REMARK  status: ('A' for Active; 'I' for Inactive)
REMARK    1  A    between atoms: O_5  and  C_15 
REMARK    2  A    between atoms: N_8  and  C_16 
REMARK    3  A    between atoms: N_12  and  C_21 
ROOT
HETATM    1  P   UNL     1      35.475  70.996  19.079  1.00  0.00     0.408 P 
HETATM    2  O   UNL     1      32.334  72.801  21.441  1.00  0.00    -0.353 OA
HETATM    3  O   UNL     1      34.406  72.129  18.608  1.00  0.00    -0.279 OA
HETATM    4  O   UNL     1      34.818  70.286  20.385  1.00  0.00    -0.287 OA
HETATM    5  O   UNL     1      36.718  71.843  19.680  1.00  0.00    -0.624 OA
HETATM    6  O   UNL     1      35.873  70.037  17.995  1.00  0.00    -0.624 OA
HETATM    7  C   UNL     1      33.802  72.870  19.643  1.00  0.00     0.198 C 
HETATM    8  C   UNL     1      33.109  71.936  20.612  1.00  0.00     0.180 C 
HETATM    9  C   UNL     1      32.663  73.787  19.260  1.00  0.00     0.199 C 
HETATM   10  C   UNL     1      31.901  73.900  20.594  1.00  0.00     0.262 C 
HETATM   11  C   UNL     1      34.127  71.086  21.345  1.00  0.00     0.216 C 
ENDROOT
BRANCH   9  12
HETATM   12  O   UNL     1      31.831  73.157  18.292  1.00  0.00    -0.388 OA
HETATM   13  H   UNL     1      31.897  73.634  17.449  1.00  0.00     0.210 HD
ENDBRANCH   9  12
BRANCH  10  14
HETATM   14  N   UNL     1      32.124  75.169  21.290  1.00  0.00    -0.294 N 
HETATM   15  C   UNL     1      31.737  76.410  20.873  1.00  0.00     0.167 A 
HETATM   16  N   UNL     1      31.077  76.727  19.749  1.00  0.00    -0.222 NA
HETATM   17  C   UNL     1      32.173  77.277  21.862  1.00  0.00     0.149 A 
HETATM   18  C   UNL     1      30.872  78.062  19.682  1.00  0.00     0.237 A 
HETATM   19  N   UNL     1      31.238  79.023  20.564  1.00  0.00    -0.222 NA
HETATM   20  C   UNL     1      31.902  78.630  21.677  1.00  0.00     0.155 A 
HETATM   21  N   UNL     1      32.812  76.590  22.863  1.00  0.00    -0.236 NA
HETATM   22  C   UNL     1      32.765  75.328  22.490  1.00  0.00     0.214 A 
BRANCH  20  23
HETATM   23  N   UNL     1      32.310  79.580  22.630  1.00  0.00    -0.382 N 
HETATM   24  H   UNL     1      31.808  79.680  23.471  1.00  0.00     0.157 HD
HETATM   25  H   UNL     1      33.097  80.144  22.456  1.00  0.00     0.157 HD
ENDBRANCH  20  23
ENDBRANCH  10  14
TORSDOF 3
ENDMDL
MODEL 4
REMARK VINA RESULT:      -7.3      2.811      4.298
REMARK  3 active torsions:
REMARK  status: ('A' for Active; 'I' for Inactive)
REMARK    1  A    between atoms: O_5  and  C_15 
REMARK    2  A    between atoms: N_8  and  C_16 
REMARK    3  A    between atoms: N_12  and  C_21 
ROOT
HETATM    1  P   UNL     1      34.414  68.325  19.749  1.00  0.00     0.408 P 
HETATM    2  O   UNL     1      35.347  72.539  20.023  1.00  0.00    -0.353 OA
HETATM    3  O   UNL     1      33.879  69.390  20.859  1.00  0.00    -0.279 OA
HETATM    4  O   UNL     1      35.756  68.986  19.114  1.00  0.00    -0.287 OA
HETATM    5  O   UNL     1      33.329  68.416  18.550  1.00  0.00    -0.624 OA
HETATM    6  O   UNL     1      34.608  66.932  20.277  1.00  0.00    -0.624 OA
HETATM    7  C   UNL     1      33.944  70.747  20.485  1.00  0.00     0.198 C 
HETATM    8  C   UNL     1      35.366  71.116  20.120  1.00  0.00     0.180 C 
HETATM    9  C   UNL     1      33.646  71.771  21.557  1.00  0.00     0.199 C 
HETATM   10  C   UNL     1      34.393  73.005  21.017  1.00  0.00     0.262 C 
HETATM   11  C   UNL     1      35.792  70.391  18.859  1.00  0.00     0.216 C 
ENDROOT
BRANCH   9  12
HETATM   12  O   UNL     1      34.227  71.369  22.793  1.00  0.00    -0.388 OA
HETATM   13  H   UNL     1      34.159  72.095  23.434  1.00  0.00     0.210 HD
ENDBRANCH   9  12
BRANCH  10  14
HETATM   14  N   UNL     1      33.511  74.006  20.415  1.00  0.00    -0.294 N 
HETATM   15  C   UNL     1      32.942  75.078  21.041  1.00  0.00     0.167 A 
HETATM   16  N   UNL     1      33.070  75.437  22.327  1.00  0.00    -0.222 NA
HETATM   17  C   UNL     1      32.200  75.718  20.061  1.00  0.00     0.149 A 
HETATM   18  C   UNL     1      32.355  76.557  22.578  1.00  0.00     0.237 A 
HETATM   19  N   UNL     1      31.591  77.285  21.729  1.00  0.00    -0.222 NA
HETATM   20  C   UNL     1      31.507  76.863  20.444  1.00  0.00     0.155 A 
HETATM   21  N   UNL     1      32.309  75.061  18.862  1.00  0.00    -0.236 NA
HETATM   22  C   UNL     1      33.102  74.038  19.108  1.00  0.00     0.214 A 
BRANCH  20  23
HETATM   23  N   UNL     1      30.729  77.574  19.515  1.00  0.00    -0.382 N 
HETATM   24  H   UNL     1      29.748  77.488  19.526  1.00  0.00     0.157 HD
HETATM   25  H   UNL     1      31.164  78.159  18.853  1.00  0.00     0.157 HD
ENDBRANCH  20  23
ENDBRANCH  10  14
TORSDOF 3
ENDMDL
MODEL 5
REMARK VINA RESULT:      -7.1      3.984      6.142
REMARK  3 active torsions:
REMARK  status: ('A' for Active; 'I' for Inactive)
REMARK    1  A    between atoms: O_5  and  C_15 
REMARK    2  A    between atoms: N_8  and  C_16 
REMARK    3  A    between atoms: N_12  and  C_21 
ROOT
HETATM    1  P   UNL     1      31.196  77.469  22.161  1.00  0.00     0.408 P 
HETATM    2  O   UNL     1      32.151  74.501  19.164  1.00  0.00    -0.353 OA
HETATM    3  O   UNL     1      31.152  75.850  22.319  1.00  0.00    -0.279 OA
HETATM    4  O   UNL     1      31.127  77.758  20.563  1.00  0.00    -0.287 OA
HETATM    5  O   UNL     1      32.712  77.871  22.565  1.00  0.00    -0.624 OA
HETATM    6  O   UNL     1      30.151  78.194  22.959  1.00  0.00    -0.624 OA
HETATM    7  C   UNL     1      31.923  75.123  21.390  1.00  0.00     0.198 C 
HETATM    8  C   UNL     1      31.499  75.474  19.979  1.00  0.00     0.180 C 
HETATM    9  C   UNL     1      31.751  73.621  21.378  1.00  0.00     0.199 C 
HETATM   10  C   UNL     1      32.192  73.274  19.943  1.00  0.00     0.262 C 
HETATM   11  C   UNL     1      31.851  76.914  19.666  1.00  0.00     0.216 C 
ENDROOT
BRANCH   9  12
HETATM   12  O   UNL     1      30.378  73.284  21.545  1.00  0.00    -0.388 OA
HETATM   13  H   UNL     1      30.103  73.487  22.453  1.00  0.00     0.210 HD
ENDBRANCH   9  12
BRANCH  10  14
HETATM   14  N   UNL     1      33.533  72.693  19.868  1.00  0.00    -0.294 N 
HETATM   15  C   UNL     1      33.860  71.441  19.432  1.00  0.00     0.167 A 
HETATM   16  N   UNL     1      33.029  70.488  18.984  1.00  0.00    -0.222 NA
HETATM   17  C   UNL     1      35.238  71.364  19.551  1.00  0.00     0.149 A 
HETATM   18  C   UNL     1      33.723  69.379  18.642  1.00  0.00     0.237 A 
HETATM   19  N   UNL     1      35.058  69.160  18.704  1.00  0.00    -0.222 NA
HETATM   20  C   UNL     1      35.837  70.167  19.166  1.00  0.00     0.155 A 
HETATM   21  N   UNL     1      35.750  72.536  20.046  1.00  0.00    -0.236 NA
HETATM   22  C   UNL     1      34.702  73.314  20.225  1.00  0.00     0.214 A 
BRANCH  20  23
HETATM   23  N   UNL     1      37.230  70.001  19.255  1.00  0.00    -0.382 N 
HETATM   24  H   UNL     1      37.823  70.786  19.209  1.00  0.00     0.157 HD
HETATM   25  H   UNL     1      37.612  69.101  19.363  1.00  0.00     0.157 HD
ENDBRANCH  20  23
ENDBRANCH  10  14
TORSDOF 3
ENDMDL
MODEL 6
REMARK VINA RESULT:      -7.1      3.834      5.792
REMARK  3 active torsions:
REMARK  status: ('A' for Active; 'I' for Inactive)
REMARK    1  A    between atoms: O_5  and  C_15 
REMARK    2  A    between atoms: N_8  and  C_16 
REMARK    3  A    between atoms: N_12  and  C_21 
ROOT
HETATM    1  P   UNL     1      35.447  67.748  18.831  1.00  0.00     0.408 P 
HETATM    2  O   UNL     1      33.485  71.596  18.624  1.00  0.00    -0.353 OA
HETATM    3  O   UNL     1      36.114  69.216  19.060  1.00  0.00    -0.279 OA
HETATM    4  O   UNL     1      34.081  68.010  17.991  1.00  0.00    -0.287 OA
HETATM    5  O   UNL     1      34.924  67.312  20.300  1.00  0.00    -0.624 OA
HETATM    6  O   UNL     1      36.370  66.745  18.202  1.00  0.00    -0.624 OA
HETATM    7  C   UNL     1      35.216  70.251  19.389  1.00  0.00     0.198 C 
HETATM    8  C   UNL     1      34.153  70.374  18.317  1.00  0.00     0.180 C 
HETATM    9  C   UNL     1      35.767  71.659  19.412  1.00  0.00     0.199 C 
HETATM   10  C   UNL     1      34.493  72.490  19.170  1.00  0.00     0.262 C 
HETATM   11  C   UNL     1      33.270  69.143  18.307  1.00  0.00     0.216 C 
ENDROOT
BRANCH   9  12
HETATM   12  O   UNL     1      36.669  71.849  18.327  1.00  0.00    -0.388 OA
HETATM   13  H   UNL     1      36.732  72.796  18.120  1.00  0.00     0.210 HD
ENDBRANCH   9  12
BRANCH  10  14
HETATM   14  N   UNL     1      33.974  73.130  20.380  1.00  0.00    -0.294 N 
HETATM   15  C   UNL     1      33.185  74.243  20.443  1.00  0.00     0.167 A 
HETATM   16  N   UNL     1      32.721  74.976  19.420  1.00  0.00    -0.222 NA
HETATM   17  C   UNL     1      32.962  74.453  21.794  1.00  0.00     0.149 A 
HETATM   18  C   UNL     1      31.971  76.003  19.877  1.00  0.00     0.237 A 
HETATM   19  N   UNL     1      31.670  76.332  21.157  1.00  0.00    -0.222 NA
HETATM   20  C   UNL     1      32.172  75.546  22.139  1.00  0.00     0.155 A 
HETATM   21  N   UNL     1      33.597  73.497  22.546  1.00  0.00    -0.236 NA
HETATM   22  C   UNL     1      34.194  72.718  21.668  1.00  0.00     0.214 A 
BRANCH  20  23
HETATM   23  N   UNL     1      31.897  75.835  23.487  1.00  0.00    -0.382 N 
HETATM   24  H   UNL     1      31.468  76.687  23.730  1.00  0.00     0.157 HD
HETATM   25  H   UNL     1      32.133  75.185  24.188  1.00  0.00     0.157 HD
ENDBRANCH  20  23
ENDBRANCH  10  14
TORSDOF 3
ENDMDL
MODEL 7
REMARK VINA RESULT:      -7.0      5.296      7.515
REMARK  3 active torsions:
REMARK  status: ('A' for Active; 'I' for Inactive)
REMARK    1  A    between atoms: O_5  and  C_15 
REMARK    2  A    between atoms: N_8  and  C_16 
REMARK    3  A    between atoms: N_12  and  C_21 
ROOT
HETATM    1  P   UNL     1      31.749  74.985  21.834  1.00  0.00     0.408 P 
HETATM    2  O   UNL     1      34.963  72.160  21.209  1.00  0.00    -0.353 OA
HETATM    3  O   UNL     1      31.974  74.006  20.553  1.00  0.00    -0.279 OA
HETATM    4  O   UNL     1      33.200  75.108  22.556  1.00  0.00    -0.287 OA
HETATM    5  O   UNL     1      30.873  74.098  22.868  1.00  0.00    -0.624 OA
HETATM    6  O   UNL     1      31.120  76.306  21.496  1.00  0.00    -0.624 OA
HETATM    7  C   UNL     1      32.800  72.886  20.776  1.00  0.00     0.198 C 
HETATM    8  C   UNL     1      34.157  73.335  21.276  1.00  0.00     0.180 C 
HETATM    9  C   UNL     1      33.192  72.068  19.567  1.00  0.00     0.199 C 
HETATM   10  C   UNL     1      34.495  71.408  20.055  1.00  0.00     0.262 C 
HETATM   11  C   UNL     1      34.034  73.953  22.654  1.00  0.00     0.216 C 
ENDROOT
BRANCH   9  12
HETATM   12  O   UNL     1      33.480  72.926  18.468  1.00  0.00    -0.388 OA
HETATM   13  H   UNL     1      32.651  73.202  18.046  1.00  0.00     0.210 HD
ENDBRANCH   9  12
BRANCH  10  14
HETATM   14  N   UNL     1      34.335  70.000  20.424  1.00  0.00    -0.294 N 
HETATM   15  C   UNL     1      34.818  68.916  19.747  1.00  0.00     0.167 A 
HETATM   16  N   UNL     1      35.535  68.913  18.614  1.00  0.00    -0.222 NA
HETATM   17  C   UNL     1      34.408  67.817  20.484  1.00  0.00     0.149 A 
HETATM   18  C   UNL     1      35.831  67.646  18.246  1.00  0.00     0.237 A 
HETATM   19  N   UNL     1      35.502  66.484  18.860  1.00  0.00    -0.222 NA
HETATM   20  C   UNL     1      34.776  66.564  20.001  1.00  0.00     0.155 A 
HETATM   21  N   UNL     1      33.692  68.210  21.586  1.00  0.00    -0.236 NA
HETATM   22  C   UNL     1      33.667  69.525  21.521  1.00  0.00     0.214 A 
BRANCH  20  23
HETATM   23  N   UNL     1      34.401  65.394  20.685  1.00  0.00    -0.382 N 
HETATM   24  H   UNL     1      33.498  65.316  21.069  1.00  0.00     0.157 HD
HETATM   25  H   UNL     1      35.042  64.652  20.780  1.00  0.00     0.157 HD
ENDBRANCH  20  23
ENDBRANCH  10  14
TORSDOF 3
ENDMDL
MODEL 8
REMARK VINA RESULT:      -6.9      4.890      7.144
REMARK  3 active torsions:
REMARK  status: ('A' for Active; 'I' for Inactive)
REMARK    1  A    between atoms: O_5  and  C_15 
REMARK    2  A    between atoms: N_8  and  C_16 
REMARK    3  A    between atoms: N_12  and  C_21 
ROOT
HETATM    1  P   UNL     1      32.316  75.602  22.358  1.00  0.00     0.408 P 
HETATM    2  O   UNL     1      32.054  71.331  21.741  1.00  0.00    -0.353 OA
HETATM    3  O   UNL     1      33.370  74.462  22.848  1.00  0.00    -0.279 OA
HETATM    4  O   UNL     1      30.916  74.823  22.090  1.00  0.00    -0.287 OA
HETATM    5  O   UNL     1      32.826  76.009  20.875  1.00  0.00    -0.624 OA
HETATM    6  O   UNL     1      32.197  76.772  23.292  1.00  0.00    -0.624 OA
HETATM    7  C   UNL     1      33.313  73.237  22.154  1.00  0.00     0.198 C 
HETATM    8  C   UNL     1      31.916  72.660  22.238  1.00  0.00     0.180 C 
HETATM    9  C   UNL     1      34.132  72.093  22.708  1.00  0.00     0.199 C 
HETATM   10  C   UNL     1      33.373  70.875  22.148  1.00  0.00     0.262 C 
HETATM   11  C   UNL     1      30.938  73.533  21.477  1.00  0.00     0.216 C 
ENDROOT
BRANCH   9  12
HETATM   12  O   UNL     1      34.058  72.082  24.130  1.00  0.00    -0.388 OA
HETATM   13  H   UNL     1      33.585  72.873  24.436  1.00  0.00     0.210 HD
ENDBRANCH   9  12
BRANCH  10  14
HETATM   14  N   UNL     1      34.043  70.242  21.011  1.00  0.00    -0.294 N 
HETATM   15  C   UNL     1      34.133  68.903  20.755  1.00  0.00     0.167 A 
HETATM   16  N   UNL     1      33.630  67.896  21.483  1.00  0.00    -0.222 NA
HETATM   17  C   UNL     1      34.856  68.807  19.577  1.00  0.00     0.149 A 
HETATM   18  C   UNL     1      33.923  66.707  20.911  1.00  0.00     0.237 A 
HETATM   19  N   UNL     1      34.615  66.460  19.773  1.00  0.00    -0.222 NA
HETATM   20  C   UNL     1      35.093  67.525  19.088  1.00  0.00     0.155 A 
HETATM   21  N   UNL     1      35.204  70.052  19.117  1.00  0.00    -0.236 NA
HETATM   22  C   UNL     1      34.701  70.891  19.999  1.00  0.00     0.214 A 
BRANCH  20  23
HETATM   23  N   UNL     1      35.821  67.335  17.901  1.00  0.00    -0.382 N 
HETATM   24  H   UNL     1      36.351  68.074  17.524  1.00  0.00     0.157 HD
HETATM   25  H   UNL     1      35.800  66.462  17.445  1.00  0.00     0.157 HD
ENDBRANCH  20  23
ENDBRANCH  10  14
TORSDOF 3
ENDMDL
MODEL 9
REMARK VINA RESULT:      -6.9      6.880      9.356
REMARK  3 active torsions:
REMARK  status: ('A' for Active; 'I' for Inactive)
REMARK    1  A    between atoms: O_5  and  C_15 
REMARK    2  A    between atoms: N_8  and  C_16 
REMARK    3  A    between atoms: N_12  and  C_21 
ROOT
HETATM    1  P   UNL     1      32.438  65.917  15.140  1.00  0.00     0.408 P 
HETATM    2  O   UNL     1      34.168  68.932  17.713  1.00  0.00    -0.353 OA
HETATM    3  O   UNL     1      33.613  65.720  16.249  1.00  0.00    -0.279 OA
HETATM    4  O   UNL     1      32.420  67.505  14.794  1.00  0.00    -0.287 OA
HETATM    5  O   UNL     1      31.064  65.683  15.966  1.00  0.00    -0.624 OA
HETATM    6  O   UNL     1      32.572  65.029  13.937  1.00  0.00    -0.624 OA
HETATM    7  C   UNL     1      33.683  66.709  17.250  1.00  0.00     0.198 C 
HETATM    8  C   UNL     1      33.850  68.074  16.618  1.00  0.00     0.180 C 
HETATM    9  C   UNL     1      34.878  66.669  18.175  1.00  0.00     0.199 C 
HETATM   10  C   UNL     1      34.948  68.134  18.646  1.00  0.00     0.262 C 
HETATM   11  C   UNL     1      32.603  68.454  15.845  1.00  0.00     0.216 C 
ENDROOT
BRANCH   9  12
HETATM   12  O   UNL     1      36.056  66.352  17.440  1.00  0.00    -0.388 OA
HETATM   13  H   UNL     1      35.879  65.598  16.855  1.00  0.00     0.210 HD
ENDBRANCH   9  12
BRANCH  10  14
HETATM   14  N   UNL     1      34.442  68.338  20.004  1.00  0.00    -0.294 N 
HETATM   15  C   UNL     1      34.360  69.522  20.678  1.00  0.00     0.167 A 
HETATM   16  N   UNL     1      34.721  70.739  20.243  1.00  0.00    -0.222 NA
HETATM   17  C   UNL     1      33.821  69.200  21.914  1.00  0.00     0.149 A 
HETATM   18  C   UNL     1      34.489  71.669  21.195  1.00  0.00     0.237 A 
HETATM   19  N   UNL     1      33.973  71.504  22.437  1.00  0.00    -0.222 NA
HETATM   20  C   UNL     1      33.630  70.248  22.810  1.00  0.00     0.155 A 
HETATM   21  N   UNL     1      33.577  67.853  22.000  1.00  0.00    -0.236 NA
HETATM   22  C   UNL     1      33.959  67.364  20.838  1.00  0.00     0.214 A 
BRANCH  20  23
HETATM   23  N   UNL     1      33.091  70.010  24.086  1.00  0.00    -0.382 N 
HETATM   24  H   UNL     1      32.187  69.630  24.176  1.00  0.00     0.157 HD
HETATM   25  H   UNL     1      33.617  70.225  24.891  1.00  0.00     0.157 HD
ENDBRANCH  20  23
ENDBRANCH  10  14
TORSDOF 3
ENDMDL
