MODEL 1
REMARK VINA RESULT:      -8.8      0.000      0.000
REMARK  7 active torsions:
REMARK  status: ('A' for Active; 'I' for Inactive)
REMARK    1  A    between atoms: O_5  and  C_13 
REMARK    2  A    between atoms: O_5  and  C_14 
REMARK    3  A    between atoms: O_6  and  C_15 
REMARK    4  A    between atoms: O_6  and  C_22 
REMARK       I    between atoms: N_8  and  C_20 
REMARK    5  A    between atoms: N_8  and  C_21 
REMARK    6  A    between atoms: C_10  and  C_13 
REMARK    7  A    between atoms: C_17  and  C_20 
ROOT
ATOM      1 CL   UNL A   1      17.374  -4.764  28.658  1.00  0.00    -0.080 Cl
ATOM      2 CL   UNL A   1      22.505  -6.396  27.697  1.00  0.00    -0.080 Cl
ATOM      3  N   UNL A   1      19.104  -6.727  25.666  1.00  0.00    -0.270 NA
ATOM      4  C   UNL A   1      19.909  -5.622  28.086  1.00  0.00     0.081 A 
ATOM      5  C   UNL A   1      18.583  -5.534  27.704  1.00  0.00     0.080 A 
ATOM      6  C   UNL A   1      20.839  -6.252  27.281  1.00  0.00     0.080 A 
ATOM      7  C   UNL A   1      18.232  -6.101  26.489  1.00  0.00     0.142 A 
ATOM      8  C   UNL A   1      20.388  -6.786  26.085  1.00  0.00     0.142 A 
ENDROOT
BRANCH   4   9
ATOM      9  N   UNL A   1      20.319  -5.058  29.319  1.00  0.00    -0.320 N 
ATOM     10  C   UNL A   1      20.675  -3.731  29.597  1.00  0.00     0.256 C 
ATOM     11  O   UNL A   1      20.684  -2.807  28.767  1.00  0.00    -0.267 OA
ATOM     12  H   UNL A   1      20.360  -5.680  30.081  1.00  0.00     0.169 HD
BRANCH  10  13
ATOM     13  C   UNL A   1      21.083  -3.456  30.966  1.00  0.00     0.035 A 
ATOM     14  C   UNL A   1      21.447  -4.506  31.809  1.00  0.00     0.056 A 
ATOM     15  C   UNL A   1      21.837  -4.242  33.122  1.00  0.00     0.103 A 
ATOM     16  C   UNL A   1      21.863  -2.929  33.591  1.00  0.00     0.108 A 
ATOM     17  C   UNL A   1      21.499  -1.879  32.748  1.00  0.00     0.041 A 
ATOM     18  C   UNL A   1      21.109  -2.143  31.435  1.00  0.00     0.020 A 
BRANCH  15  19
ATOM     19  O   UNL A   1      22.190  -5.274  33.937  1.00  0.00    -0.348 OA
BRANCH  19  20
ATOM     20  C   UNL A   1      21.357  -6.432  33.914  1.00  0.00     0.180 C 
BRANCH  20  21
ATOM     21  C   UNL A   1      22.188  -7.638  33.642  1.00  0.00     0.010 A 
ATOM     22  C   UNL A   1      23.295  -7.548  32.638  1.00  0.00     0.007 A 
ATOM     23  C   UNL A   1      23.613  -7.658  34.100  1.00  0.00     0.007 A 
ENDBRANCH  20  21
ENDBRANCH  19  20
ENDBRANCH  15  19
BRANCH  16  24
ATOM     24  O   UNL A   1      22.243  -2.658  34.871  1.00  0.00    -0.287 OA
BRANCH  24  25
ATOM     25  C   UNL A   1      22.633  -1.323  35.169  1.00  0.00     0.505 C 
ATOM     26  F   UNL A   1      22.376  -1.104  36.485  1.00  0.00    -0.184 F 
ATOM     27  F   UNL A   1      23.974  -1.206  35.013  1.00  0.00    -0.184 F 
ENDBRANCH  24  25
ENDBRANCH  16  24
ENDBRANCH  10  13
ENDBRANCH   4   9
TORSDOF 7
ENDMDL
MODEL 2
REMARK VINA RESULT:      -8.8      0.084      1.777
REMARK  7 active torsions:
REMARK  status: ('A' for Active; 'I' for Inactive)
REMARK    1  A    between atoms: O_5  and  C_13 
REMARK    2  A    between atoms: O_5  and  C_14 
REMARK    3  A    between atoms: O_6  and  C_15 
REMARK    4  A    between atoms: O_6  and  C_22 
REMARK       I    between atoms: N_8  and  C_20 
REMARK    5  A    between atoms: N_8  and  C_21 
REMARK    6  A    between atoms: C_10  and  C_13 
REMARK    7  A    between atoms: C_17  and  C_20 
ROOT
ATOM      1 CL   UNL A   1      22.398  -6.423  27.672  1.00  0.00    -0.080 Cl
ATOM      2 CL   UNL A   1      17.306  -4.683  28.648  1.00  0.00    -0.080 Cl
ATOM      3  N   UNL A   1      18.986  -6.683  25.652  1.00  0.00    -0.270 NA
ATOM      4  C   UNL A   1      19.821  -5.594  28.069  1.00  0.00     0.081 A 
ATOM      5  C   UNL A   1      20.736  -6.244  27.262  1.00  0.00     0.080 A 
ATOM      6  C   UNL A   1      18.496  -5.478  27.690  1.00  0.00     0.080 A 
ATOM      7  C   UNL A   1      20.270  -6.769  26.067  1.00  0.00     0.142 A 
ATOM      8  C   UNL A   1      18.130  -6.038  26.477  1.00  0.00     0.142 A 
ENDROOT
BRANCH   4   9
ATOM      9  N   UNL A   1      20.246  -5.040  29.301  1.00  0.00    -0.320 N 
ATOM     10  C   UNL A   1      20.601  -3.714  29.586  1.00  0.00     0.256 C 
ATOM     11  O   UNL A   1      20.597  -2.783  28.764  1.00  0.00    -0.267 OA
ATOM     12  H   UNL A   1      20.299  -5.669  30.057  1.00  0.00     0.169 HD
BRANCH  10  13
ATOM     13  C   UNL A   1      21.026  -3.450  30.952  1.00  0.00     0.035 A 
ATOM     14  C   UNL A   1      21.439  -4.502  31.770  1.00  0.00     0.056 A 
ATOM     15  C   UNL A   1      21.845  -4.248  33.080  1.00  0.00     0.103 A 
ATOM     16  C   UNL A   1      21.839  -2.943  33.572  1.00  0.00     0.108 A 
ATOM     17  C   UNL A   1      21.426  -1.891  32.754  1.00  0.00     0.041 A 
ATOM     18  C   UNL A   1      21.020  -2.145  31.444  1.00  0.00     0.020 A 
BRANCH  15  19
ATOM     19  O   UNL A   1      22.246  -5.283  33.869  1.00  0.00    -0.348 OA
BRANCH  19  20
ATOM     20  C   UNL A   1      21.411  -6.439  33.896  1.00  0.00     0.180 C 
BRANCH  20  21
ATOM     21  C   UNL A   1      22.225  -7.649  33.589  1.00  0.00     0.010 A 
ATOM     22  C   UNL A   1      23.314  -7.551  32.566  1.00  0.00     0.007 A 
ATOM     23  C   UNL A   1      23.657  -7.690  34.020  1.00  0.00     0.007 A 
ENDBRANCH  20  21
ENDBRANCH  19  20
ENDBRANCH  15  19
BRANCH  16  24
ATOM     24  O   UNL A   1      22.235  -2.683  34.849  1.00  0.00    -0.287 OA
BRANCH  24  25
ATOM     25  C   UNL A   1      22.648  -1.355  35.147  1.00  0.00     0.505 C 
ATOM     26  F   UNL A   1      22.356  -1.118  36.453  1.00  0.00    -0.184 F 
ATOM     27  F   UNL A   1      23.996  -1.271  35.032  1.00  0.00    -0.184 F 
ENDBRANCH  24  25
ENDBRANCH  16  24
ENDBRANCH  10  13
ENDBRANCH   4   9
TORSDOF 7
ENDMDL
MODEL 3
REMARK VINA RESULT:      -7.7      2.805      4.989
REMARK  7 active torsions:
REMARK  status: ('A' for Active; 'I' for Inactive)
REMARK    1  A    between atoms: O_5  and  C_13 
REMARK    2  A    between atoms: O_5  and  C_14 
REMARK    3  A    between atoms: O_6  and  C_15 
REMARK    4  A    between atoms: O_6  and  C_22 
REMARK       I    between atoms: N_8  and  C_20 
REMARK    5  A    between atoms: N_8  and  C_21 
REMARK    6  A    between atoms: C_10  and  C_13 
REMARK    7  A    between atoms: C_17  and  C_20 
ROOT
ATOM      1 CL   UNL A   1      25.371  -8.717  31.147  1.00  0.00    -0.080 Cl
ATOM      2 CL   UNL A   1      21.704  -7.321  27.336  1.00  0.00    -0.080 Cl
ATOM      3  N   UNL A   1      24.341 -10.279  27.641  1.00  0.00    -0.270 NA
ATOM      4  C   UNL A   1      23.567  -8.101  29.183  1.00  0.00     0.081 A 
ATOM      5  C   UNL A   1      24.563  -8.942  29.643  1.00  0.00     0.080 A 
ATOM      6  C   UNL A   1      22.951  -8.328  27.967  1.00  0.00     0.080 A 
ATOM      7  C   UNL A   1      24.913 -10.013  28.837  1.00  0.00     0.142 A 
ATOM      8  C   UNL A   1      23.373  -9.427  27.236  1.00  0.00     0.142 A 
ENDROOT
BRANCH   4   9
ATOM      9  N   UNL A   1      23.171  -6.991  29.970  1.00  0.00    -0.320 N 
ATOM     10  C   UNL A   1      22.359  -6.976  31.112  1.00  0.00     0.256 C 
ATOM     11  O   UNL A   1      21.839  -7.977  31.631  1.00  0.00    -0.267 OA
ATOM     12  H   UNL A   1      23.512  -6.115  29.675  1.00  0.00     0.169 HD
BRANCH  10  13
ATOM     13  C   UNL A   1      22.105  -5.666  31.693  1.00  0.00     0.035 A 
ATOM     14  C   UNL A   1      21.550  -4.653  30.913  1.00  0.00     0.056 A 
ATOM     15  C   UNL A   1      21.308  -3.397  31.470  1.00  0.00     0.103 A 
ATOM     16  C   UNL A   1      21.621  -3.156  32.808  1.00  0.00     0.108 A 
ATOM     17  C   UNL A   1      22.176  -4.169  33.588  1.00  0.00     0.041 A 
ATOM     18  C   UNL A   1      22.419  -5.425  33.031  1.00  0.00     0.020 A 
BRANCH  15  19
ATOM     19  O   UNL A   1      20.766  -2.415  30.699  1.00  0.00    -0.348 OA
BRANCH  19  20
ATOM     20  C   UNL A   1      20.725  -2.643  29.292  1.00  0.00     0.180 C 
BRANCH  20  21
ATOM     21  C   UNL A   1      19.308  -2.727  28.841  1.00  0.00     0.010 A 
ATOM     22  C   UNL A   1      18.979  -3.535  27.623  1.00  0.00     0.007 A 
ATOM     23  C   UNL A   1      18.576  -4.025  28.982  1.00  0.00     0.007 A 
ENDBRANCH  20  21
ENDBRANCH  19  20
ENDBRANCH  15  19
BRANCH  16  24
ATOM     24  O   UNL A   1      21.388  -1.934  33.364  1.00  0.00    -0.287 OA
BRANCH  24  25
ATOM     25  C   UNL A   1      21.899  -1.703  34.671  1.00  0.00     0.505 C 
ATOM     26  F   UNL A   1      23.018  -0.944  34.546  1.00  0.00    -0.184 F 
ATOM     27  F   UNL A   1      21.006  -0.962  35.373  1.00  0.00    -0.184 F 
ENDBRANCH  24  25
ENDBRANCH  16  24
ENDBRANCH  10  13
ENDBRANCH   4   9
TORSDOF 7
ENDMDL
MODEL 4
REMARK VINA RESULT:      -7.7      1.396      1.578
REMARK  7 active torsions:
REMARK  status: ('A' for Active; 'I' for Inactive)
REMARK    1  A    between atoms: O_5  and  C_13 
REMARK    2  A    between atoms: O_5  and  C_14 
REMARK    3  A    between atoms: O_6  and  C_15 
REMARK    4  A    between atoms: O_6  and  C_22 
REMARK       I    between atoms: N_8  and  C_20 
REMARK    5  A    between atoms: N_8  and  C_21 
REMARK    6  A    between atoms: C_10  and  C_13 
REMARK    7  A    between atoms: C_17  and  C_20 
ROOT
ATOM      1 CL   UNL A   1      16.007  -5.297  28.524  1.00  0.00    -0.080 Cl
ATOM      2 CL   UNL A   1      20.896  -6.589  26.439  1.00  0.00    -0.080 Cl
ATOM      3  N   UNL A   1      17.159  -7.212  25.238  1.00  0.00    -0.270 NA
ATOM      4  C   UNL A   1      18.404  -5.989  27.400  1.00  0.00     0.081 A 
ATOM      5  C   UNL A   1      17.024  -6.005  27.328  1.00  0.00     0.080 A 
ATOM      6  C   UNL A   1      19.174  -6.573  26.411  1.00  0.00     0.080 A 
ATOM      7  C   UNL A   1      16.451  -6.627  26.231  1.00  0.00     0.142 A 
ATOM      8  C   UNL A   1      18.505  -7.170  25.354  1.00  0.00     0.142 A 
ENDROOT
BRANCH   4   9
ATOM      9  N   UNL A   1      19.040  -5.365  28.502  1.00  0.00    -0.320 N 
ATOM     10  C   UNL A   1      19.187  -3.995  28.764  1.00  0.00     0.256 C 
ATOM     11  O   UNL A   1      18.765  -3.081  28.037  1.00  0.00    -0.267 OA
ATOM     12  H   UNL A   1      19.428  -5.973  29.171  1.00  0.00     0.169 HD
BRANCH  10  13
ATOM     13  C   UNL A   1      19.919  -3.656  29.974  1.00  0.00     0.035 A 
ATOM     14  C   UNL A   1      20.706  -4.618  30.606  1.00  0.00     0.056 A 
ATOM     15  C   UNL A   1      21.406  -4.292  31.768  1.00  0.00     0.103 A 
ATOM     16  C   UNL A   1      21.318  -3.005  32.297  1.00  0.00     0.108 A 
ATOM     17  C   UNL A   1      20.531  -2.043  31.666  1.00  0.00     0.041 A 
ATOM     18  C   UNL A   1      19.831  -2.369  30.504  1.00  0.00     0.020 A 
BRANCH  15  19
ATOM     19  O   UNL A   1      22.172  -5.239  32.377  1.00  0.00    -0.348 OA
BRANCH  19  20
ATOM     20  C   UNL A   1      21.520  -6.099  33.309  1.00  0.00     0.180 C 
BRANCH  20  21
ATOM     21  C   UNL A   1      22.137  -7.454  33.254  1.00  0.00     0.010 A 
ATOM     22  C   UNL A   1      23.630  -7.575  33.270  1.00  0.00     0.007 A 
ATOM     23  C   UNL A   1      22.829  -7.988  34.469  1.00  0.00     0.007 A 
ENDBRANCH  20  21
ENDBRANCH  19  20
ENDBRANCH  15  19
BRANCH  16  24
ATOM     24  O   UNL A   1      21.998  -2.674  33.431  1.00  0.00    -0.287 OA
BRANCH  24  25
ATOM     25  C   UNL A   1      21.905  -1.328  33.879  1.00  0.00     0.505 C 
ATOM     26  F   UNL A   1      21.021  -1.300  34.911  1.00  0.00    -0.184 F 
ATOM     27  F   UNL A   1      23.102  -0.944  34.387  1.00  0.00    -0.184 F 
ENDBRANCH  24  25
ENDBRANCH  16  24
ENDBRANCH  10  13
ENDBRANCH   4   9
TORSDOF 7
ENDMDL
MODEL 5
REMARK VINA RESULT:      -7.3      2.330      4.278
REMARK  7 active torsions:
REMARK  status: ('A' for Active; 'I' for Inactive)
REMARK    1  A    between atoms: O_5  and  C_13 
REMARK    2  A    between atoms: O_5  and  C_14 
REMARK    3  A    between atoms: O_6  and  C_15 
REMARK    4  A    between atoms: O_6  and  C_22 
REMARK       I    between atoms: N_8  and  C_20 
REMARK    5  A    between atoms: N_8  and  C_21 
REMARK    6  A    between atoms: C_10  and  C_13 
REMARK    7  A    between atoms: C_17  and  C_20 
ROOT
ATOM      1 CL   UNL A   1      21.767  -7.987  25.896  1.00  0.00    -0.080 Cl
ATOM      2 CL   UNL A   1      17.291  -5.601  27.943  1.00  0.00    -0.080 Cl
ATOM      3  N   UNL A   1      18.213  -7.075  24.369  1.00  0.00    -0.270 NA
ATOM      4  C   UNL A   1      19.482  -6.804  26.827  1.00  0.00     0.081 A 
ATOM      5  C   UNL A   1      20.154  -7.395  25.774  1.00  0.00     0.080 A 
ATOM      6  C   UNL A   1      18.186  -6.346  26.673  1.00  0.00     0.080 A 
ATOM      7  C   UNL A   1      19.479  -7.506  24.569  1.00  0.00     0.142 A 
ATOM      8  C   UNL A   1      17.598  -6.505  25.429  1.00  0.00     0.142 A 
ENDROOT
BRANCH   4   9
ATOM      9  N   UNL A   1      20.128  -6.667  28.080  1.00  0.00    -0.320 N 
ATOM     10  C   UNL A   1      20.847  -5.571  28.576  1.00  0.00     0.256 C 
ATOM     11  O   UNL A   1      21.036  -4.506  27.965  1.00  0.00    -0.267 OA
ATOM     12  H   UNL A   1      20.062  -7.444  28.681  1.00  0.00     0.169 HD
BRANCH  10  13
ATOM     13  C   UNL A   1      21.424  -5.737  29.901  1.00  0.00     0.035 A 
ATOM     14  C   UNL A   1      21.327  -4.709  30.838  1.00  0.00     0.056 A 
ATOM     15  C   UNL A   1      21.882  -4.868  32.108  1.00  0.00     0.103 A 
ATOM     16  C   UNL A   1      22.533  -6.056  32.440  1.00  0.00     0.108 A 
ATOM     17  C   UNL A   1      22.630  -7.085  31.503  1.00  0.00     0.041 A 
ATOM     18  C   UNL A   1      22.075  -6.925  30.233  1.00  0.00     0.020 A 
BRANCH  15  19
ATOM     19  O   UNL A   1      21.781  -3.858  33.015  1.00  0.00    -0.348 OA
BRANCH  19  20
ATOM     20  C   UNL A   1      21.391  -2.579  32.519  1.00  0.00     0.180 C 
BRANCH  20  21
ATOM     21  C   UNL A   1      21.508  -1.566  33.606  1.00  0.00     0.010 A 
ATOM     22  C   UNL A   1      21.874  -2.019  34.986  1.00  0.00     0.007 A 
ATOM     23  C   UNL A   1      22.862  -1.249  34.160  1.00  0.00     0.007 A 
ENDBRANCH  20  21
ENDBRANCH  19  20
ENDBRANCH  15  19
BRANCH  16  24
ATOM     24  O   UNL A   1      23.077  -6.224  33.678  1.00  0.00    -0.287 OA
BRANCH  24  25
ATOM     25  C   UNL A   1      23.029  -7.530  34.240  1.00  0.00     0.505 C 
ATOM     26  F   UNL A   1      23.943  -7.576  35.245  1.00  0.00    -0.184 F 
ATOM     27  F   UNL A   1      21.816  -7.723  34.813  1.00  0.00    -0.184 F 
ENDBRANCH  24  25
ENDBRANCH  16  24
ENDBRANCH  10  13
ENDBRANCH   4   9
TORSDOF 7
ENDMDL
MODEL 6
REMARK VINA RESULT:      -7.2      3.982      6.402
REMARK  7 active torsions:
REMARK  status: ('A' for Active; 'I' for Inactive)
REMARK    1  A    between atoms: O_5  and  C_13 
REMARK    2  A    between atoms: O_5  and  C_14 
REMARK    3  A    between atoms: O_6  and  C_15 
REMARK    4  A    between atoms: O_6  and  C_22 
REMARK       I    between atoms: N_8  and  C_20 
REMARK    5  A    between atoms: N_8  and  C_21 
REMARK    6  A    between atoms: C_10  and  C_13 
REMARK    7  A    between atoms: C_17  and  C_20 
ROOT
ATOM      1 CL   UNL A   1      23.571  -7.188  32.759  1.00  0.00    -0.080 Cl
ATOM      2 CL   UNL A   1      23.961  -8.737  27.529  1.00  0.00    -0.080 Cl
ATOM      3  N   UNL A   1      25.649 -10.015  30.892  1.00  0.00    -0.270 NA
ATOM      4  C   UNL A   1      23.834  -8.037  30.171  1.00  0.00     0.081 A 
ATOM      5  C   UNL A   1      24.193  -8.181  31.498  1.00  0.00     0.080 A 
ATOM      6  C   UNL A   1      24.366  -8.863  29.198  1.00  0.00     0.080 A 
ATOM      7  C   UNL A   1      25.102  -9.181  31.806  1.00  0.00     0.142 A 
ATOM      8  C   UNL A   1      25.266  -9.833  29.609  1.00  0.00     0.142 A 
ENDROOT
BRANCH   4   9
ATOM      9  N   UNL A   1      22.908  -7.029  29.803  1.00  0.00    -0.320 N 
ATOM     10  C   UNL A   1      21.565  -7.172  29.431  1.00  0.00     0.256 C 
ATOM     11  O   UNL A   1      20.954  -8.252  29.365  1.00  0.00    -0.267 OA
ATOM     12  H   UNL A   1      23.255  -6.108  29.810  1.00  0.00     0.169 HD
BRANCH  10  13
ATOM     13  C   UNL A   1      20.869  -5.944  29.079  1.00  0.00     0.035 A 
ATOM     14  C   UNL A   1      21.192  -4.750  29.724  1.00  0.00     0.056 A 
ATOM     15  C   UNL A   1      20.524  -3.573  29.386  1.00  0.00     0.103 A 
ATOM     16  C   UNL A   1      19.535  -3.590  28.403  1.00  0.00     0.108 A 
ATOM     17  C   UNL A   1      19.212  -4.784  27.758  1.00  0.00     0.041 A 
ATOM     18  C   UNL A   1      19.880  -5.961  28.096  1.00  0.00     0.020 A 
BRANCH  15  19
ATOM     19  O   UNL A   1      20.847  -2.413  30.023  1.00  0.00    -0.348 OA
BRANCH  19  20
ATOM     20  C   UNL A   1      20.396  -2.265  31.368  1.00  0.00     0.180 C 
BRANCH  20  21
ATOM     21  C   UNL A   1      21.570  -2.098  32.271  1.00  0.00     0.010 A 
ATOM     22  C   UNL A   1      21.339  -1.704  33.697  1.00  0.00     0.007 A 
ATOM     23  C   UNL A   1      21.794  -3.094  33.365  1.00  0.00     0.007 A 
ENDBRANCH  20  21
ENDBRANCH  19  20
ENDBRANCH  15  19
BRANCH  16  24
ATOM     24  O   UNL A   1      18.876  -2.447  28.064  1.00  0.00    -0.287 OA
BRANCH  24  25
ATOM     25  C   UNL A   1      19.301  -1.774  26.884  1.00  0.00     0.505 C 
ATOM     26  F   UNL A   1      20.553  -2.213  26.591  1.00  0.00    -0.184 F 
ATOM     27  F   UNL A   1      18.508  -2.147  25.850  1.00  0.00    -0.184 F 
ENDBRANCH  24  25
ENDBRANCH  16  24
ENDBRANCH  10  13
ENDBRANCH   4   9
TORSDOF 7
ENDMDL
MODEL 7
REMARK VINA RESULT:      -7.0      4.852      8.142
REMARK  7 active torsions:
REMARK  status: ('A' for Active; 'I' for Inactive)
REMARK    1  A    between atoms: O_5  and  C_13 
REMARK    2  A    between atoms: O_5  and  C_14 
REMARK    3  A    between atoms: O_6  and  C_15 
REMARK    4  A    between atoms: O_6  and  C_22 
REMARK       I    between atoms: N_8  and  C_20 
REMARK    5  A    between atoms: N_8  and  C_21 
REMARK    6  A    between atoms: C_10  and  C_13 
REMARK    7  A    between atoms: C_17  and  C_20 
ROOT
ATOM      1 CL   UNL A   1      19.731  -1.906  30.567  1.00  0.00    -0.080 Cl
ATOM      2 CL   UNL A   1      22.455  -5.894  33.134  1.00  0.00    -0.080 Cl
ATOM      3  N   UNL A   1      21.998  -2.007  33.830  1.00  0.00    -0.270 NA
ATOM      4  C   UNL A   1      21.125  -3.831  31.922  1.00  0.00     0.081 A 
ATOM      5  C   UNL A   1      20.740  -2.507  31.826  1.00  0.00     0.080 A 
ATOM      6  C   UNL A   1      21.939  -4.260  32.955  1.00  0.00     0.080 A 
ATOM      7  C   UNL A   1      21.202  -1.637  32.801  1.00  0.00     0.142 A 
ATOM      8  C   UNL A   1      22.346  -3.312  33.880  1.00  0.00     0.142 A 
ENDROOT
BRANCH   4   9
ATOM      9  N   UNL A   1      20.680  -4.761  30.951  1.00  0.00    -0.320 N 
ATOM     10  C   UNL A   1      21.213  -5.018  29.680  1.00  0.00     0.256 C 
ATOM     11  O   UNL A   1      22.199  -4.443  29.190  1.00  0.00    -0.267 OA
ATOM     12  H   UNL A   1      19.894  -5.297  31.202  1.00  0.00     0.169 HD
BRANCH  10  13
ATOM     13  C   UNL A   1      20.516  -6.022  28.891  1.00  0.00     0.035 A 
ATOM     14  C   UNL A   1      19.312  -5.703  28.262  1.00  0.00     0.056 A 
ATOM     15  C   UNL A   1      18.644  -6.666  27.507  1.00  0.00     0.103 A 
ATOM     16  C   UNL A   1      19.179  -7.948  27.380  1.00  0.00     0.108 A 
ATOM     17  C   UNL A   1      20.383  -8.267  28.008  1.00  0.00     0.041 A 
ATOM     18  C   UNL A   1      21.051  -7.303  28.764  1.00  0.00     0.020 A 
BRANCH  15  19
ATOM     19  O   UNL A   1      17.469  -6.344  26.898  1.00  0.00    -0.348 OA
BRANCH  19  20
ATOM     20  C   UNL A   1      16.488  -5.682  27.692  1.00  0.00     0.180 C 
BRANCH  20  21
ATOM     21  C   UNL A   1      15.159  -6.323  27.480  1.00  0.00     0.010 A 
ATOM     22  C   UNL A   1      14.654  -7.302  28.495  1.00  0.00     0.007 A 
ATOM     23  C   UNL A   1      14.020  -5.948  28.375  1.00  0.00     0.007 A 
ENDBRANCH  20  21
ENDBRANCH  19  20
ENDBRANCH  15  19
BRANCH  16  24
ATOM     24  O   UNL A   1      18.537  -8.897  26.643  1.00  0.00    -0.287 OA
BRANCH  24  25
ATOM     25  C   UNL A   1      17.893  -9.949  27.352  1.00  0.00     0.505 C 
ATOM     26  F   UNL A   1      17.270  -9.397  28.426  1.00  0.00    -0.184 F 
ATOM     27  F   UNL A   1      16.920 -10.479  26.572  1.00  0.00    -0.184 F 
ENDBRANCH  24  25
ENDBRANCH  16  24
ENDBRANCH  10  13
ENDBRANCH   4   9
TORSDOF 7
ENDMDL
MODEL 8
REMARK VINA RESULT:      -6.9      3.372      4.629
REMARK  7 active torsions:
REMARK  status: ('A' for Active; 'I' for Inactive)
REMARK    1  A    between atoms: O_5  and  C_13 
REMARK    2  A    between atoms: O_5  and  C_14 
REMARK    3  A    between atoms: O_6  and  C_15 
REMARK    4  A    between atoms: O_6  and  C_22 
REMARK       I    between atoms: N_8  and  C_20 
REMARK    5  A    between atoms: N_8  and  C_21 
REMARK    6  A    between atoms: C_10  and  C_13 
REMARK    7  A    between atoms: C_17  and  C_20 
ROOT
ATOM      1 CL   UNL A   1      16.089  -9.508  28.958  1.00  0.00    -0.080 Cl
ATOM      2 CL   UNL A   1      19.844  -9.270  24.989  1.00  0.00    -0.080 Cl
ATOM      3  N   UNL A   1      16.931 -11.833  25.847  1.00  0.00    -0.270 NA
ATOM      4  C   UNL A   1      17.929  -9.478  26.933  1.00  0.00     0.081 A 
ATOM      5  C   UNL A   1      16.858 -10.108  27.539  1.00  0.00     0.080 A 
ATOM      6  C   UNL A   1      18.510 -10.004  25.794  1.00  0.00     0.080 A 
ATOM      7  C   UNL A   1      16.398 -11.279  26.960  1.00  0.00     0.142 A 
ATOM      8  C   UNL A   1      17.976 -11.179  25.292  1.00  0.00     0.142 A 
ENDROOT
BRANCH   4   9
ATOM      9  N   UNL A   1      18.437  -8.276  27.486  1.00  0.00    -0.320 N 
ATOM     10  C   UNL A   1      18.041  -6.958  27.223  1.00  0.00     0.256 C 
ATOM     11  O   UNL A   1      17.143  -6.628  26.430  1.00  0.00    -0.267 OA
ATOM     12  H   UNL A   1      19.165  -8.382  28.141  1.00  0.00     0.169 HD
BRANCH  10  13
ATOM     13  C   UNL A   1      18.775  -5.921  27.931  1.00  0.00     0.035 A 
ATOM     14  C   UNL A   1      20.128  -6.098  28.220  1.00  0.00     0.056 A 
ATOM     15  C   UNL A   1      20.831  -5.103  28.901  1.00  0.00     0.103 A 
ATOM     16  C   UNL A   1      20.181  -3.933  29.292  1.00  0.00     0.108 A 
ATOM     17  C   UNL A   1      18.828  -3.756  29.003  1.00  0.00     0.041 A 
ATOM     18  C   UNL A   1      18.125  -4.751  28.323  1.00  0.00     0.020 A 
BRANCH  15  19
ATOM     19  O   UNL A   1      22.151  -5.286  29.178  1.00  0.00    -0.348 OA
BRANCH  19  20
ATOM     20  C   UNL A   1      22.486  -6.353  30.064  1.00  0.00     0.180 C 
BRANCH  20  21
ATOM     21  C   UNL A   1      22.502  -5.849  31.466  1.00  0.00     0.010 A 
ATOM     22  C   UNL A   1      21.436  -6.304  32.414  1.00  0.00     0.007 A 
ATOM     23  C   UNL A   1      22.845  -6.795  32.574  1.00  0.00     0.007 A 
ENDBRANCH  20  21
ENDBRANCH  19  20
ENDBRANCH  15  19
BRANCH  16  24
ATOM     24  O   UNL A   1      20.857  -2.954  29.956  1.00  0.00    -0.287 OA
BRANCH  24  25
ATOM     25  C   UNL A   1      20.636  -2.842  31.356  1.00  0.00     0.505 C 
ATOM     26  F   UNL A   1      21.830  -2.557  31.938  1.00  0.00    -0.184 F 
ATOM     27  F   UNL A   1      19.827  -1.781  31.595  1.00  0.00    -0.184 F 
ENDBRANCH  24  25
ENDBRANCH  16  24
ENDBRANCH  10  13
ENDBRANCH   4   9
TORSDOF 7
ENDMDL
MODEL 9
REMARK VINA RESULT:      -6.9      3.408      4.911
REMARK  7 active torsions:
REMARK  status: ('A' for Active; 'I' for Inactive)
REMARK    1  A    between atoms: O_5  and  C_13 
REMARK    2  A    between atoms: O_5  and  C_14 
REMARK    3  A    between atoms: O_6  and  C_15 
REMARK    4  A    between atoms: O_6  and  C_22 
REMARK       I    between atoms: N_8  and  C_20 
REMARK    5  A    between atoms: N_8  and  C_21 
REMARK    6  A    between atoms: C_10  and  C_13 
REMARK    7  A    between atoms: C_17  and  C_20 
ROOT
ATOM      1 CL   UNL A   1      19.912  -9.484  25.162  1.00  0.00    -0.080 Cl
ATOM      2 CL   UNL A   1      15.970  -9.423  28.952  1.00  0.00    -0.080 Cl
ATOM      3  N   UNL A   1      16.870 -11.906  25.982  1.00  0.00    -0.270 NA
ATOM      4  C   UNL A   1      17.902  -9.542  27.018  1.00  0.00     0.081 A 
ATOM      5  C   UNL A   1      18.516 -10.135  25.931  1.00  0.00     0.080 A 
ATOM      6  C   UNL A   1      16.782 -10.109  27.597  1.00  0.00     0.080 A 
ATOM      7  C   UNL A   1      17.963 -11.312  25.451  1.00  0.00     0.142 A 
ATOM      8  C   UNL A   1      16.307 -11.287  27.043  1.00  0.00     0.142 A 
ENDROOT
BRANCH   4   9
ATOM      9  N   UNL A   1      18.428  -8.338  27.546  1.00  0.00    -0.320 N 
ATOM     10  C   UNL A   1      18.085  -7.018  27.222  1.00  0.00     0.256 C 
ATOM     11  O   UNL A   1      17.229  -6.690  26.384  1.00  0.00    -0.267 OA
ATOM     12  H   UNL A   1      19.127  -8.442  28.232  1.00  0.00     0.169 HD
BRANCH  10  13
ATOM     13  C   UNL A   1      18.825  -5.979  27.921  1.00  0.00     0.035 A 
ATOM     14  C   UNL A   1      20.159  -6.189  28.270  1.00  0.00     0.056 A 
ATOM     15  C   UNL A   1      20.868  -5.192  28.941  1.00  0.00     0.103 A 
ATOM     16  C   UNL A   1      20.244  -3.988  29.262  1.00  0.00     0.108 A 
ATOM     17  C   UNL A   1      18.910  -3.778  28.913  1.00  0.00     0.041 A 
ATOM     18  C   UNL A   1      18.201  -4.775  28.242  1.00  0.00     0.020 A 
BRANCH  15  19
ATOM     19  O   UNL A   1      22.170  -5.408  29.279  1.00  0.00    -0.348 OA
BRANCH  19  20
ATOM     20  C   UNL A   1      22.428  -6.403  30.267  1.00  0.00     0.180 C 
BRANCH  20  21
ATOM     21  C   UNL A   1      22.490  -5.765  31.612  1.00  0.00     0.010 A 
ATOM     22  C   UNL A   1      21.444  -6.108  32.628  1.00  0.00     0.007 A 
ATOM     23  C   UNL A   1      22.850  -6.604  32.798  1.00  0.00     0.007 A 
ENDBRANCH  20  21
ENDBRANCH  19  20
ENDBRANCH  15  19
BRANCH  16  24
ATOM     24  O   UNL A   1      20.926  -3.007  29.916  1.00  0.00    -0.287 OA
BRANCH  24  25
ATOM     25  C   UNL A   1      20.597  -2.780  31.281  1.00  0.00     0.505 C 
ATOM     26  F   UNL A   1      21.736  -2.408  31.921  1.00  0.00    -0.184 F 
ATOM     27  F   UNL A   1      19.747  -1.728  31.365  1.00  0.00    -0.184 F 
ENDBRANCH  24  25
ENDBRANCH  16  24
ENDBRANCH  10  13
ENDBRANCH   4   9
TORSDOF 7
ENDMDL
