MODEL 1
REMARK VINA RESULT:      -6.8      0.000      0.000
REMARK  11 active torsions:
REMARK  status: ('A' for Active; 'I' for Inactive)
REMARK    1  A    between atoms: C1_1  and  C2_2 
REMARK    2  A    between atoms: C1_1  and  C10_13 
REMARK    3  A    between atoms: C2_2  and  C3_3 
REMARK    4  A    between atoms: C3_3  and  C4_4 
REMARK    5  A    between atoms: C6_6  and  O1_7 
REMARK    6  A    between atoms: C7_8  and  O2_9 
REMARK    7  A    between atoms: C10_13  and  O4_14 
REMARK    8  A    between atoms: C10_13  and  C11_15 
REMARK    9  A    between atoms: C11_15  and  O5_16 
REMARK   10  A    between atoms: C11_15  and  C12_17 
REMARK   11  A    between atoms: C12_17  and  O6_18 
ROOT
HETATM    1  C1  UNL     1      31.938  72.614  22.080  1.00  0.00     0.158 C 
HETATM    2  O3  UNL     1      31.142  72.486  23.015  1.00  0.00    -0.295 OA
ENDROOT
BRANCH   1   3
HETATM    3  C2  UNL     1      31.474  73.157  20.739  1.00  0.00     0.086 C 
BRANCH   3   4
HETATM    4  C3  UNL     1      32.453  74.143  20.106  1.00  0.00     0.046 C 
BRANCH   4   5
HETATM    5  C4  UNL     1      32.127  75.590  20.390  1.00  0.00    -0.055 A 
HETATM    6  C5  UNL     1      32.608  76.220  21.550  1.00  0.00     0.046 A 
HETATM    7  C6  UNL     1      32.285  77.551  21.794  1.00  0.00     0.099 A 
HETATM    8  C7  UNL     1      31.496  78.261  20.895  1.00  0.00     0.098 A 
HETATM    9  C8  UNL     1      31.017  77.659  19.744  1.00  0.00     0.040 A 
HETATM   10  C9  UNL     1      31.334  76.324  19.490  1.00  0.00     0.010 A 
BRANCH   7  11
HETATM   11  O1  UNL     1      32.723  78.207  22.912  1.00  0.00    -0.358 OA
HETATM   12  H   UNL     1      33.614  78.489  22.970  1.00  0.00     0.217 HD
ENDBRANCH   7  11
BRANCH   8  13
HETATM   13  O2  UNL     1      31.185  79.567  21.145  1.00  0.00    -0.358 OA
HETATM   14  H   UNL     1      31.697  80.063  21.753  1.00  0.00     0.217 HD
ENDBRANCH   8  13
ENDBRANCH   4   5
ENDBRANCH   3   4
ENDBRANCH   1   3
BRANCH   1  15
HETATM   15  C10 UNL     1      33.424  72.287  22.242  1.00  0.00     0.218 C 
BRANCH  15  16
HETATM   16  O4  UNL     1      33.819  72.667  23.561  1.00  0.00    -0.385 OA
HETATM   17  H   UNL     1      33.596  71.956  24.182  1.00  0.00     0.210 HD
ENDBRANCH  15  16
BRANCH  15  18
HETATM   18  C11 UNL     1      33.700  70.792  21.981  1.00  0.00     0.177 C 
BRANCH  18  19
HETATM   19  O5  UNL     1      34.881  70.610  21.184  1.00  0.00    -0.390 OA
HETATM   20  H   UNL     1      34.702  69.964  20.483  1.00  0.00     0.210 HD
ENDBRANCH  18  19
BRANCH  18  21
HETATM   21  C12 UNL     1      33.934  70.030  23.292  1.00  0.00     0.198 C 
BRANCH  21  22
HETATM   22  O6  UNL     1      32.730  70.009  24.061  1.00  0.00    -0.398 OA
HETATM   23  H   UNL     1      32.146  70.727  23.767  1.00  0.00     0.209 HD
ENDBRANCH  21  22
ENDBRANCH  18  21
ENDBRANCH  15  18
ENDBRANCH   1  15
TORSDOF 11
ENDMDL
MODEL 2
REMARK VINA RESULT:      -6.7      0.668      1.585
REMARK  11 active torsions:
REMARK  status: ('A' for Active; 'I' for Inactive)
REMARK    1  A    between atoms: C1_1  and  C2_2 
REMARK    2  A    between atoms: C1_1  and  C10_13 
REMARK    3  A    between atoms: C2_2  and  C3_3 
REMARK    4  A    between atoms: C3_3  and  C4_4 
REMARK    5  A    between atoms: C6_6  and  O1_7 
REMARK    6  A    between atoms: C7_8  and  O2_9 
REMARK    7  A    between atoms: C10_13  and  O4_14 
REMARK    8  A    between atoms: C10_13  and  C11_15 
REMARK    9  A    between atoms: C11_15  and  O5_16 
REMARK   10  A    between atoms: C11_15  and  C12_17 
REMARK   11  A    between atoms: C12_17  and  O6_18 
ROOT
HETATM    1  C1  UNL     1      32.028  72.630  22.099  1.00  0.00     0.158 C 
HETATM    2  O3  UNL     1      31.181  72.490  22.986  1.00  0.00    -0.295 OA
ENDROOT
BRANCH   1   3
HETATM    3  C2  UNL     1      31.651  73.238  20.759  1.00  0.00     0.086 C 
BRANCH   3   4
HETATM    4  C3  UNL     1      32.640  74.290  20.264  1.00  0.00     0.046 C 
BRANCH   4   5
HETATM    5  C4  UNL     1      32.201  75.711  20.529  1.00  0.00    -0.055 A 
HETATM    6  C5  UNL     1      31.479  76.431  19.562  1.00  0.00     0.046 A 
HETATM    7  C6  UNL     1      31.095  77.742  19.826  1.00  0.00     0.099 A 
HETATM    8  C7  UNL     1      31.415  78.339  21.041  1.00  0.00     0.098 A 
HETATM    9  C8  UNL     1      32.121  77.644  22.008  1.00  0.00     0.040 A 
HETATM   10  C9  UNL     1      32.512  76.328  21.753  1.00  0.00     0.010 A 
BRANCH   7  11
HETATM   11  O1  UNL     1      30.397  78.487  18.915  1.00  0.00    -0.358 OA
HETATM   12  H   UNL     1      30.819  79.193  18.466  1.00  0.00     0.217 HD
ENDBRANCH   7  11
BRANCH   8  13
HETATM   13  O2  UNL     1      31.033  79.627  21.289  1.00  0.00    -0.358 OA
HETATM   14  H   UNL     1      30.123  79.842  21.351  1.00  0.00     0.217 HD
ENDBRANCH   8  13
ENDBRANCH   4   5
ENDBRANCH   3   4
ENDBRANCH   1   3
BRANCH   1  15
HETATM   15  C10 UNL     1      33.494  72.253  22.324  1.00  0.00     0.218 C 
BRANCH  15  16
HETATM   16  O4  UNL     1      33.827  72.559  23.678  1.00  0.00    -0.385 OA
HETATM   17  H   UNL     1      33.514  71.847  24.257  1.00  0.00     0.210 HD
ENDBRANCH  15  16
BRANCH  15  18
HETATM   18  C11 UNL     1      33.744  70.764  22.007  1.00  0.00     0.177 C 
BRANCH  18  19
HETATM   19  O5  UNL     1      34.937  70.589  21.225  1.00  0.00    -0.390 OA
HETATM   20  H   UNL     1      34.998  71.297  20.566  1.00  0.00     0.210 HD
ENDBRANCH  18  19
BRANCH  18  21
HETATM   21  C12 UNL     1      33.935  69.944  23.289  1.00  0.00     0.198 C 
BRANCH  21  22
HETATM   22  O6  UNL     1      32.714  69.913  24.030  1.00  0.00    -0.398 OA
HETATM   23  H   UNL     1      32.451  68.991  24.181  1.00  0.00     0.209 HD
ENDBRANCH  21  22
ENDBRANCH  18  21
ENDBRANCH  15  18
ENDBRANCH   1  15
TORSDOF 11
ENDMDL
MODEL 3
REMARK VINA RESULT:      -6.7      1.241      2.029
REMARK  11 active torsions:
REMARK  status: ('A' for Active; 'I' for Inactive)
REMARK    1  A    between atoms: C1_1  and  C2_2 
REMARK    2  A    between atoms: C1_1  and  C10_13 
REMARK    3  A    between atoms: C2_2  and  C3_3 
REMARK    4  A    between atoms: C3_3  and  C4_4 
REMARK    5  A    between atoms: C6_6  and  O1_7 
REMARK    6  A    between atoms: C7_8  and  O2_9 
REMARK    7  A    between atoms: C10_13  and  O4_14 
REMARK    8  A    between atoms: C10_13  and  C11_15 
REMARK    9  A    between atoms: C11_15  and  O5_16 
REMARK   10  A    between atoms: C11_15  and  C12_17 
REMARK   11  A    between atoms: C12_17  and  O6_18 
ROOT
HETATM    1  C1  UNL     1      32.986  72.800  22.191  1.00  0.00     0.158 C 
HETATM    2  O3  UNL     1      31.829  72.752  22.619  1.00  0.00    -0.295 OA
ENDROOT
BRANCH   1   3
HETATM    3  C2  UNL     1      33.667  74.137  21.955  1.00  0.00     0.086 C 
BRANCH   3   4
HETATM    4  C3  UNL     1      32.875  75.329  22.487  1.00  0.00     0.046 C 
BRANCH   4   5
HETATM    5  C4  UNL     1      32.208  76.147  21.406  1.00  0.00    -0.055 A 
HETATM    6  C5  UNL     1      31.575  77.363  21.714  1.00  0.00     0.046 A 
HETATM    7  C6  UNL     1      30.958  78.092  20.702  1.00  0.00     0.099 A 
HETATM    8  C7  UNL     1      30.970  77.629  19.391  1.00  0.00     0.098 A 
HETATM    9  C8  UNL     1      31.593  76.435  19.067  1.00  0.00     0.040 A 
HETATM   10  C9  UNL     1      32.214  75.694  20.075  1.00  0.00     0.010 A 
BRANCH   7  11
HETATM   11  O1  UNL     1      30.323  79.278  20.951  1.00  0.00    -0.358 OA
HETATM   12  H   UNL     1      30.157  79.544  21.835  1.00  0.00     0.217 HD
ENDBRANCH   7  11
BRANCH   8  13
HETATM   13  O2  UNL     1      30.361  78.352  18.406  1.00  0.00    -0.358 OA
HETATM   14  H   UNL     1      30.514  78.141  17.506  1.00  0.00     0.217 HD
ENDBRANCH   8  13
ENDBRANCH   4   5
ENDBRANCH   3   4
ENDBRANCH   1   3
BRANCH   1  15
HETATM   15  C10 UNL     1      33.799  71.530  21.932  1.00  0.00     0.218 C 
BRANCH  15  16
HETATM   16  O4  UNL     1      34.990  71.899  21.237  1.00  0.00    -0.385 OA
HETATM   17  H   UNL     1      34.815  72.680  20.689  1.00  0.00     0.210 HD
ENDBRANCH  15  16
BRANCH  15  18
HETATM   18  C11 UNL     1      34.122  70.795  23.250  1.00  0.00     0.177 C 
BRANCH  18  19
HETATM   19  O5  UNL     1      33.833  71.618  24.392  1.00  0.00    -0.390 OA
HETATM   20  H   UNL     1      34.103  71.154  25.200  1.00  0.00     0.210 HD
ENDBRANCH  18  19
BRANCH  18  21
HETATM   21  C12 UNL     1      33.277  69.523  23.402  1.00  0.00     0.198 C 
BRANCH  21  22
HETATM   22  O6  UNL     1      31.999  69.854  23.948  1.00  0.00    -0.398 OA
HETATM   23  H   UNL     1      31.935  69.510  24.853  1.00  0.00     0.209 HD
ENDBRANCH  21  22
ENDBRANCH  18  21
ENDBRANCH  15  18
ENDBRANCH   1  15
TORSDOF 11
ENDMDL
MODEL 4
REMARK VINA RESULT:      -6.6      0.870      1.654
REMARK  11 active torsions:
REMARK  status: ('A' for Active; 'I' for Inactive)
REMARK    1  A    between atoms: C1_1  and  C2_2 
REMARK    2  A    between atoms: C1_1  and  C10_13 
REMARK    3  A    between atoms: C2_2  and  C3_3 
REMARK    4  A    between atoms: C3_3  and  C4_4 
REMARK    5  A    between atoms: C6_6  and  O1_7 
REMARK    6  A    between atoms: C7_8  and  O2_9 
REMARK    7  A    between atoms: C10_13  and  O4_14 
REMARK    8  A    between atoms: C10_13  and  C11_15 
REMARK    9  A    between atoms: C11_15  and  O5_16 
REMARK   10  A    between atoms: C11_15  and  C12_17 
REMARK   11  A    between atoms: C12_17  and  O6_18 
ROOT
HETATM    1  C1  UNL     1      33.446  72.453  22.131  1.00  0.00     0.158 C 
HETATM    2  O3  UNL     1      34.092  73.126  22.940  1.00  0.00    -0.295 OA
ENDROOT
BRANCH   1   3
HETATM    3  C2  UNL     1      32.227  73.037  21.440  1.00  0.00     0.086 C 
BRANCH   3   4
HETATM    4  C3  UNL     1      32.567  73.926  20.246  1.00  0.00     0.046 C 
BRANCH   4   5
HETATM    5  C4  UNL     1      32.196  75.377  20.443  1.00  0.00    -0.055 A 
HETATM    6  C5  UNL     1      32.588  76.066  21.602  1.00  0.00     0.046 A 
HETATM    7  C6  UNL     1      32.225  77.399  21.765  1.00  0.00     0.099 A 
HETATM    8  C7  UNL     1      31.484  78.053  20.786  1.00  0.00     0.098 A 
HETATM    9  C8  UNL     1      31.093  77.391  19.634  1.00  0.00     0.040 A 
HETATM   10  C9  UNL     1      31.451  76.053  19.461  1.00  0.00     0.010 A 
BRANCH   7  11
HETATM   11  O1  UNL     1      32.576  78.113  22.878  1.00  0.00    -0.358 OA
HETATM   12  H   UNL     1      32.958  78.964  22.788  1.00  0.00     0.217 HD
ENDBRANCH   7  11
BRANCH   8  13
HETATM   13  O2  UNL     1      31.133  79.362  20.956  1.00  0.00    -0.358 OA
HETATM   14  H   UNL     1      30.229  79.607  20.965  1.00  0.00     0.217 HD
ENDBRANCH   8  13
ENDBRANCH   4   5
ENDBRANCH   3   4
ENDBRANCH   1   3
BRANCH   1  15
HETATM   15  C10 UNL     1      33.871  71.033  21.750  1.00  0.00     0.218 C 
BRANCH  15  16
HETATM   16  O4  UNL     1      35.107  71.116  21.039  1.00  0.00    -0.385 OA
HETATM   17  H   UNL     1      35.655  71.817  21.424  1.00  0.00     0.210 HD
ENDBRANCH  15  16
BRANCH  15  18
HETATM   18  C11 UNL     1      34.000  70.134  22.997  1.00  0.00     0.177 C 
BRANCH  18  19
HETATM   19  O5  UNL     1      32.996  70.448  23.975  1.00  0.00    -0.390 OA
HETATM   20  H   UNL     1      32.121  70.429  23.556  1.00  0.00     0.210 HD
ENDBRANCH  18  19
BRANCH  18  21
HETATM   21  C12 UNL     1      33.816  68.653  22.640  1.00  0.00     0.198 C 
BRANCH  21  22
HETATM   22  O6  UNL     1      34.611  67.843  23.508  1.00  0.00    -0.398 OA
HETATM   23  H   UNL     1      34.045  67.447  24.190  1.00  0.00     0.209 HD
ENDBRANCH  21  22
ENDBRANCH  18  21
ENDBRANCH  15  18
ENDBRANCH   1  15
TORSDOF 11
ENDMDL
MODEL 5
REMARK VINA RESULT:      -6.6      1.501      6.790
REMARK  11 active torsions:
REMARK  status: ('A' for Active; 'I' for Inactive)
REMARK    1  A    between atoms: C1_1  and  C2_2 
REMARK    2  A    between atoms: C1_1  and  C10_13 
REMARK    3  A    between atoms: C2_2  and  C3_3 
REMARK    4  A    between atoms: C3_3  and  C4_4 
REMARK    5  A    between atoms: C6_6  and  O1_7 
REMARK    6  A    between atoms: C7_8  and  O2_9 
REMARK    7  A    between atoms: C10_13  and  O4_14 
REMARK    8  A    between atoms: C10_13  and  C11_15 
REMARK    9  A    between atoms: C11_15  and  O5_16 
REMARK   10  A    between atoms: C11_15  and  C12_17 
REMARK   11  A    between atoms: C12_17  and  O6_18 
ROOT
HETATM    1  C1  UNL     1      32.161  77.044  21.811  1.00  0.00     0.158 C 
HETATM    2  O3  UNL     1      32.615  76.987  22.958  1.00  0.00    -0.295 OA
ENDROOT
BRANCH   1   3
HETATM    3  C2  UNL     1      31.773  75.777  21.069  1.00  0.00     0.086 C 
BRANCH   3   4
HETATM    4  C3  UNL     1      32.938  75.115  20.338  1.00  0.00     0.046 C 
BRANCH   4   5
HETATM    5  C4  UNL     1      33.321  73.766  20.901  1.00  0.00    -0.055 A 
HETATM    6  C5  UNL     1      33.268  73.524  22.283  1.00  0.00     0.046 A 
HETATM    7  C6  UNL     1      33.636  72.277  22.777  1.00  0.00     0.099 A 
HETATM    8  C7  UNL     1      34.049  71.269  21.912  1.00  0.00     0.098 A 
HETATM    9  C8  UNL     1      34.103  71.488  20.545  1.00  0.00     0.040 A 
HETATM   10  C9  UNL     1      33.737  72.736  20.039  1.00  0.00     0.010 A 
BRANCH   7  11
HETATM   11  O1  UNL     1      33.608  71.993  24.115  1.00  0.00    -0.358 OA
HETATM   12  H   UNL     1      32.845  71.603  24.495  1.00  0.00     0.217 HD
ENDBRANCH   7  11
BRANCH   8  13
HETATM   13  O2  UNL     1      34.408  70.048  22.408  1.00  0.00    -0.358 OA
HETATM   14  H   UNL     1      34.001  69.271  22.079  1.00  0.00     0.217 HD
ENDBRANCH   8  13
ENDBRANCH   4   5
ENDBRANCH   3   4
ENDBRANCH   1   3
BRANCH   1  15
HETATM   15  C10 UNL     1      31.919  78.384  21.112  1.00  0.00     0.218 C 
BRANCH  15  16
HETATM   16  O4  UNL     1      31.352  78.117  19.829  1.00  0.00    -0.385 OA
HETATM   17  H   UNL     1      30.403  78.316  19.847  1.00  0.00     0.210 HD
ENDBRANCH  15  16
BRANCH  15  18
HETATM   18  C11 UNL     1      31.002  79.296  21.953  1.00  0.00     0.177 C 
BRANCH  18  19
HETATM   19  O5  UNL     1      30.369  78.565  23.015  1.00  0.00    -0.390 OA
HETATM   20  H   UNL     1      29.630  79.085  23.369  1.00  0.00     0.210 HD
ENDBRANCH  18  19
BRANCH  18  21
HETATM   21  C12 UNL     1      31.797  80.430  22.614  1.00  0.00     0.198 C 
BRANCH  21  22
HETATM   22  O6  UNL     1      32.926  79.890  23.303  1.00  0.00    -0.398 OA
HETATM   23  H   UNL     1      33.721  80.000  22.757  1.00  0.00     0.209 HD
ENDBRANCH  21  22
ENDBRANCH  18  21
ENDBRANCH  15  18
ENDBRANCH   1  15
TORSDOF 11
ENDMDL
MODEL 6
REMARK VINA RESULT:      -6.6      3.884      7.352
REMARK  11 active torsions:
REMARK  status: ('A' for Active; 'I' for Inactive)
REMARK    1  A    between atoms: C1_1  and  C2_2 
REMARK    2  A    between atoms: C1_1  and  C10_13 
REMARK    3  A    between atoms: C2_2  and  C3_3 
REMARK    4  A    between atoms: C3_3  and  C4_4 
REMARK    5  A    between atoms: C6_6  and  O1_7 
REMARK    6  A    between atoms: C7_8  and  O2_9 
REMARK    7  A    between atoms: C10_13  and  O4_14 
REMARK    8  A    between atoms: C10_13  and  C11_15 
REMARK    9  A    between atoms: C11_15  and  O5_16 
REMARK   10  A    between atoms: C11_15  and  C12_17 
REMARK   11  A    between atoms: C12_17  and  O6_18 
ROOT
HETATM    1  C1  UNL     1      31.824  78.241  16.566  1.00  0.00     0.158 C 
HETATM    2  O3  UNL     1      32.588  78.866  15.824  1.00  0.00    -0.295 OA
ENDROOT
BRANCH   1   3
HETATM    3  C2  UNL     1      32.331  77.631  17.861  1.00  0.00     0.086 C 
BRANCH   3   4
HETATM    4  C3  UNL     1      31.459  76.493  18.384  1.00  0.00     0.046 C 
BRANCH   4   5
HETATM    5  C4  UNL     1      31.464  76.365  19.889  1.00  0.00    -0.055 A 
HETATM    6  C5  UNL     1      31.139  77.462  20.704  1.00  0.00     0.046 A 
HETATM    7  C6  UNL     1      31.162  77.322  22.088  1.00  0.00     0.099 A 
HETATM    8  C7  UNL     1      31.497  76.103  22.668  1.00  0.00     0.098 A 
HETATM    9  C8  UNL     1      31.816  75.008  21.881  1.00  0.00     0.040 A 
HETATM   10  C9  UNL     1      31.797  75.138  20.491  1.00  0.00     0.010 A 
BRANCH   7  11
HETATM   11  O1  UNL     1      30.859  78.361  22.924  1.00  0.00    -0.358 OA
HETATM   12  H   UNL     1      31.547  78.882  23.292  1.00  0.00     0.217 HD
ENDBRANCH   7  11
BRANCH   8  13
HETATM   13  O2  UNL     1      31.516  75.976  24.027  1.00  0.00    -0.358 OA
HETATM   14  H   UNL     1      31.696  76.723  24.565  1.00  0.00     0.217 HD
ENDBRANCH   8  13
ENDBRANCH   4   5
ENDBRANCH   3   4
ENDBRANCH   1   3
BRANCH   1  15
HETATM   15  C10 UNL     1      30.334  78.101  16.246  1.00  0.00     0.218 C 
BRANCH  15  16
HETATM   16  O4  UNL     1      29.710  79.364  16.479  1.00  0.00    -0.385 OA
HETATM   17  H   UNL     1      29.266  79.351  17.342  1.00  0.00     0.210 HD
ENDBRANCH  15  16
BRANCH  15  18
HETATM   18  C11 UNL     1      30.115  77.626  14.795  1.00  0.00     0.177 C 
BRANCH  18  19
HETATM   19  O5  UNL     1      31.158  76.731  14.375  1.00  0.00    -0.390 OA
HETATM   20  H   UNL     1      31.182  75.963  14.966  1.00  0.00     0.210 HD
ENDBRANCH  18  19
BRANCH  18  21
HETATM   21  C12 UNL     1      28.795  76.857  14.652  1.00  0.00     0.198 C 
BRANCH  21  22
HETATM   22  O6  UNL     1      27.705  77.778  14.575  1.00  0.00    -0.398 OA
HETATM   23  H   UNL     1      27.376  77.965  15.468  1.00  0.00     0.209 HD
ENDBRANCH  21  22
ENDBRANCH  18  21
ENDBRANCH  15  18
ENDBRANCH   1  15
TORSDOF 11
ENDMDL
MODEL 7
REMARK VINA RESULT:      -6.6      1.879      2.621
REMARK  11 active torsions:
REMARK  status: ('A' for Active; 'I' for Inactive)
REMARK    1  A    between atoms: C1_1  and  C2_2 
REMARK    2  A    between atoms: C1_1  and  C10_13 
REMARK    3  A    between atoms: C2_2  and  C3_3 
REMARK    4  A    between atoms: C3_3  and  C4_4 
REMARK    5  A    between atoms: C6_6  and  O1_7 
REMARK    6  A    between atoms: C7_8  and  O2_9 
REMARK    7  A    between atoms: C10_13  and  O4_14 
REMARK    8  A    between atoms: C10_13  and  C11_15 
REMARK    9  A    between atoms: C11_15  and  O5_16 
REMARK   10  A    between atoms: C11_15  and  C12_17 
REMARK   11  A    between atoms: C12_17  and  O6_18 
ROOT
HETATM    1  C1  UNL     1      33.039  73.762  22.200  1.00  0.00     0.158 C 
HETATM    2  O3  UNL     1      34.131  74.179  22.597  1.00  0.00    -0.295 OA
ENDROOT
BRANCH   1   3
HETATM    3  C2  UNL     1      32.020  74.715  21.599  1.00  0.00     0.086 C 
BRANCH   3   4
HETATM    4  C3  UNL     1      31.196  75.467  22.641  1.00  0.00     0.046 C 
BRANCH   4   5
HETATM    5  C4  UNL     1      31.286  76.970  22.519  1.00  0.00    -0.055 A 
HETATM    6  C5  UNL     1      30.124  77.757  22.474  1.00  0.00     0.046 A 
HETATM    7  C6  UNL     1      30.234  79.139  22.351  1.00  0.00     0.099 A 
HETATM    8  C7  UNL     1      31.485  79.743  22.280  1.00  0.00     0.098 A 
HETATM    9  C8  UNL     1      32.642  78.983  22.327  1.00  0.00     0.040 A 
HETATM   10  C9  UNL     1      32.543  77.597  22.449  1.00  0.00     0.010 A 
BRANCH   7  11
HETATM   11  O1  UNL     1      29.133  79.948  22.297  1.00  0.00    -0.358 OA
HETATM   12  H   UNL     1      28.363  79.663  21.845  1.00  0.00     0.217 HD
ENDBRANCH   7  11
BRANCH   8  13
HETATM   13  O2  UNL     1      31.581  81.100  22.159  1.00  0.00    -0.358 OA
HETATM   14  H   UNL     1      30.810  81.613  22.016  1.00  0.00     0.217 HD
ENDBRANCH   8  13
ENDBRANCH   4   5
ENDBRANCH   3   4
ENDBRANCH   1   3
BRANCH   1  15
HETATM   15  C10 UNL     1      32.685  72.274  22.243  1.00  0.00     0.218 C 
BRANCH  15  16
HETATM   16  O4  UNL     1      32.598  71.800  20.899  1.00  0.00    -0.385 OA
HETATM   17  H   UNL     1      32.089  70.974  20.880  1.00  0.00     0.210 HD
ENDBRANCH  15  16
BRANCH  15  18
HETATM   18  C11 UNL     1      33.727  71.475  23.054  1.00  0.00     0.177 C 
BRANCH  18  19
HETATM   19  O5  UNL     1      33.757  71.897  24.427  1.00  0.00    -0.390 OA
HETATM   20  H   UNL     1      32.953  71.592  24.876  1.00  0.00     0.210 HD
ENDBRANCH  18  19
BRANCH  18  21
HETATM   21  C12 UNL     1      33.397  69.976  23.063  1.00  0.00     0.198 C 
BRANCH  21  22
HETATM   22  O6  UNL     1      32.836  69.613  24.326  1.00  0.00    -0.398 OA
HETATM   23  H   UNL     1      32.383  70.380  24.712  1.00  0.00     0.209 HD
ENDBRANCH  21  22
ENDBRANCH  18  21
ENDBRANCH  15  18
ENDBRANCH   1  15
TORSDOF 11
ENDMDL
MODEL 8
REMARK VINA RESULT:      -6.4      3.167      5.551
REMARK  11 active torsions:
REMARK  status: ('A' for Active; 'I' for Inactive)
REMARK    1  A    between atoms: C1_1  and  C2_2 
REMARK    2  A    between atoms: C1_1  and  C10_13 
REMARK    3  A    between atoms: C2_2  and  C3_3 
REMARK    4  A    between atoms: C3_3  and  C4_4 
REMARK    5  A    between atoms: C6_6  and  O1_7 
REMARK    6  A    between atoms: C7_8  and  O2_9 
REMARK    7  A    between atoms: C10_13  and  O4_14 
REMARK    8  A    between atoms: C10_13  and  C11_15 
REMARK    9  A    between atoms: C11_15  and  O5_16 
REMARK   10  A    between atoms: C11_15  and  C12_17 
REMARK   11  A    between atoms: C12_17  and  O6_18 
ROOT
HETATM    1  C1  UNL     1      31.096  77.973  21.902  1.00  0.00     0.158 C 
HETATM    2  O3  UNL     1      30.272  78.177  22.799  1.00  0.00    -0.295 OA
ENDROOT
BRANCH   1   3
HETATM    3  C2  UNL     1      30.761  78.300  20.457  1.00  0.00     0.086 C 
BRANCH   3   4
HETATM    4  C3  UNL     1      31.812  77.816  19.461  1.00  0.00     0.046 C 
BRANCH   4   5
HETATM    5  C4  UNL     1      31.228  77.171  18.226  1.00  0.00    -0.055 A 
HETATM    6  C5  UNL     1      30.480  77.926  17.308  1.00  0.00     0.046 A 
HETATM    7  C6  UNL     1      29.943  77.307  16.184  1.00  0.00     0.099 A 
HETATM    8  C7  UNL     1      30.149  75.949  15.961  1.00  0.00     0.098 A 
HETATM    9  C8  UNL     1      30.888  75.189  16.852  1.00  0.00     0.040 A 
HETATM   10  C9  UNL     1      31.430  75.800  17.984  1.00  0.00     0.010 A 
BRANCH   7  11
HETATM   11  O1  UNL     1      29.202  77.996  15.264  1.00  0.00    -0.358 OA
HETATM   12  H   UNL     1      29.046  77.628  14.417  1.00  0.00     0.217 HD
ENDBRANCH   7  11
BRANCH   8  13
HETATM   13  O2  UNL     1      29.617  75.351  14.854  1.00  0.00    -0.358 OA
HETATM   14  H   UNL     1      29.954  74.528  14.559  1.00  0.00     0.217 HD
ENDBRANCH   8  13
ENDBRANCH   4   5
ENDBRANCH   3   4
ENDBRANCH   1   3
BRANCH   1  15
HETATM   15  C10 UNL     1      32.497  77.440  22.208  1.00  0.00     0.218 C 
BRANCH  15  16
HETATM   16  O4  UNL     1      33.130  78.349  23.109  1.00  0.00    -0.385 OA
HETATM   17  H   UNL     1      33.727  77.859  23.696  1.00  0.00     0.210 HD
ENDBRANCH  15  16
BRANCH  15  18
HETATM   18  C11 UNL     1      32.438  76.015  22.796  1.00  0.00     0.177 C 
BRANCH  18  19
HETATM   19  O5  UNL     1      31.466  75.925  23.851  1.00  0.00    -0.390 OA
HETATM   20  H   UNL     1      30.652  76.377  23.579  1.00  0.00     0.210 HD
ENDBRANCH  18  19
BRANCH  18  21
HETATM   21  C12 UNL     1      32.027  74.988  21.733  1.00  0.00     0.198 C 
BRANCH  21  22
HETATM   22  O6  UNL     1      33.109  74.772  20.825  1.00  0.00    -0.398 OA
HETATM   23  H   UNL     1      33.850  75.352  21.062  1.00  0.00     0.209 HD
ENDBRANCH  21  22
ENDBRANCH  18  21
ENDBRANCH  15  18
ENDBRANCH   1  15
TORSDOF 11
ENDMDL
MODEL 9
REMARK VINA RESULT:      -6.4      1.330      6.095
REMARK  11 active torsions:
REMARK  status: ('A' for Active; 'I' for Inactive)
REMARK    1  A    between atoms: C1_1  and  C2_2 
REMARK    2  A    between atoms: C1_1  and  C10_13 
REMARK    3  A    between atoms: C2_2  and  C3_3 
REMARK    4  A    between atoms: C3_3  and  C4_4 
REMARK    5  A    between atoms: C6_6  and  O1_7 
REMARK    6  A    between atoms: C7_8  and  O2_9 
REMARK    7  A    between atoms: C10_13  and  O4_14 
REMARK    8  A    between atoms: C10_13  and  C11_15 
REMARK    9  A    between atoms: C11_15  and  O5_16 
REMARK   10  A    between atoms: C11_15  and  C12_17 
REMARK   11  A    between atoms: C12_17  and  O6_18 
ROOT
HETATM    1  C1  UNL     1      31.417  77.649  19.413  1.00  0.00     0.158 C 
HETATM    2  O3  UNL     1      30.504  77.940  18.634  1.00  0.00    -0.295 OA
ENDROOT
BRANCH   1   3
HETATM    3  C2  UNL     1      32.328  76.468  19.129  1.00  0.00     0.086 C 
BRANCH   3   4
HETATM    4  C3  UNL     1      31.640  75.114  19.280  1.00  0.00     0.046 C 
BRANCH   4   5
HETATM    5  C4  UNL     1      32.253  74.235  20.345  1.00  0.00    -0.055 A 
HETATM    6  C5  UNL     1      31.455  73.661  21.348  1.00  0.00     0.046 A 
HETATM    7  C6  UNL     1      32.045  72.864  22.324  1.00  0.00     0.099 A 
HETATM    8  C7  UNL     1      33.416  72.628  22.308  1.00  0.00     0.098 A 
HETATM    9  C8  UNL     1      34.218  73.182  21.324  1.00  0.00     0.040 A 
HETATM   10  C9  UNL     1      33.637  73.984  20.341  1.00  0.00     0.010 A 
BRANCH   7  11
HETATM   11  O1  UNL     1      31.313  72.287  23.325  1.00  0.00    -0.358 OA
HETATM   12  H   UNL     1      30.605  71.710  23.115  1.00  0.00     0.217 HD
ENDBRANCH   7  11
BRANCH   8  13
HETATM   13  O2  UNL     1      33.985  71.845  23.271  1.00  0.00    -0.358 OA
HETATM   14  H   UNL     1      34.246  72.222  24.088  1.00  0.00     0.217 HD
ENDBRANCH   8  13
ENDBRANCH   4   5
ENDBRANCH   3   4
ENDBRANCH   1   3
BRANCH   1  15
HETATM   15  C10 UNL     1      31.706  78.490  20.658  1.00  0.00     0.218 C 
BRANCH  15  16
HETATM   16  O4  UNL     1      30.530  79.239  20.970  1.00  0.00    -0.385 OA
HETATM   17  H   UNL     1      30.771  80.162  21.144  1.00  0.00     0.210 HD
ENDBRANCH  15  16
BRANCH  15  18
HETATM   18  C11 UNL     1      32.138  77.603  21.845  1.00  0.00     0.177 C 
BRANCH  18  19
HETATM   19  O5  UNL     1      32.781  78.378  22.870  1.00  0.00    -0.390 OA
HETATM   20  H   UNL     1      33.020  77.799  23.610  1.00  0.00     0.210 HD
ENDBRANCH  18  19
BRANCH  18  21
HETATM   21  C12 UNL     1      30.931  76.923  22.502  1.00  0.00     0.198 C 
BRANCH  21  22
HETATM   22  O6  UNL     1      30.203  77.875  23.280  1.00  0.00    -0.398 OA
HETATM   23  H   UNL     1      30.820  78.517  23.666  1.00  0.00     0.209 HD
ENDBRANCH  21  22
ENDBRANCH  18  21
ENDBRANCH  15  18
ENDBRANCH   1  15
TORSDOF 11
ENDMDL
