MODEL 1
REMARK VINA RESULT:      -6.8      0.000      0.000
REMARK  8 active torsions:
REMARK  status: ('A' for Active; 'I' for Inactive)
REMARK    1  A    between atoms: O_1  and  C_2 
REMARK    2  A    between atoms: C_2  and  C_3 
REMARK    3  A    between atoms: C_2  and  C_8 
REMARK    4  A    between atoms: C_3  and  C_4 
REMARK    5  A    between atoms: C_4  and  C_5 
REMARK    6  A    between atoms: C_8  and  C_9 
REMARK    7  A    between atoms: C_11  and  O_16 
REMARK    8  A    between atoms: C_12  and  O_15 
ROOT
HETATM    1  O   UNL     1     -53.126  50.416   8.013  1.00  0.00    -0.395 OA
HETATM    2  H   UNL     1     -53.251  51.184   8.592  1.00  0.00     0.210 HD
ENDROOT
BRANCH   1   3
HETATM    3  C   UNL     1     -53.747  49.272   8.599  1.00  0.00     0.122 C 
BRANCH   3   4
HETATM    4  C   UNL     1     -54.315  49.639   9.979  1.00  0.00     0.042 C 
BRANCH   4   5
HETATM    5  C   UNL     1     -53.413  50.585  10.775  1.00  0.00     0.116 C 
BRANCH   5   6
HETATM    6  C   UNL     1     -53.694  52.056  10.611  1.00  0.00     0.172 C 
HETATM    7  O   UNL     1     -54.105  52.585   9.591  1.00  0.00    -0.648 OA
HETATM    8  O   UNL     1     -53.552  52.784  11.735  1.00  0.00    -0.648 OA
ENDBRANCH   5   6
ENDBRANCH   4   5
ENDBRANCH   3   4
BRANCH   3   9
HETATM    9  C   UNL     1     -52.724  48.128   8.719  1.00  0.00     0.070 C 
BRANCH   9  10
HETATM   10  C   UNL     1     -52.316  47.564   7.377  1.00  0.00    -0.053 A 
HETATM   11  C   UNL     1     -53.120  46.610   6.732  1.00  0.00     0.046 A 
HETATM   12  C   UNL     1     -52.721  46.090   5.510  1.00  0.00     0.099 A 
HETATM   13  C   UNL     1     -51.549  46.524   4.901  1.00  0.00     0.098 A 
HETATM   14  C   UNL     1     -50.731  47.451   5.530  1.00  0.00     0.040 A 
HETATM   15  C   UNL     1     -51.114  47.969   6.771  1.00  0.00     0.010 A 
BRANCH  12  16
HETATM   16  O   UNL     1     -53.480  45.117   4.924  1.00  0.00    -0.358 OA
HETATM   17  H   UNL     1     -54.233  45.351   4.418  1.00  0.00     0.217 HD
ENDBRANCH  12  16
BRANCH  13  18
HETATM   18  O   UNL     1     -51.200  46.067   3.662  1.00  0.00    -0.358 OA
HETATM   19  H   UNL     1     -50.888  46.666   3.013  1.00  0.00     0.217 HD
ENDBRANCH  13  18
ENDBRANCH   9  10
ENDBRANCH   3   9
ENDBRANCH   1   3
TORSDOF 8
ENDMDL
MODEL 2
REMARK VINA RESULT:      -6.5      1.777      2.089
REMARK  8 active torsions:
REMARK  status: ('A' for Active; 'I' for Inactive)
REMARK    1  A    between atoms: O_1  and  C_2 
REMARK    2  A    between atoms: C_2  and  C_3 
REMARK    3  A    between atoms: C_2  and  C_8 
REMARK    4  A    between atoms: C_3  and  C_4 
REMARK    5  A    between atoms: C_4  and  C_5 
REMARK    6  A    between atoms: C_8  and  C_9 
REMARK    7  A    between atoms: C_11  and  O_16 
REMARK    8  A    between atoms: C_12  and  O_15 
ROOT
HETATM    1  O   UNL     1     -53.426  50.224   8.298  1.00  0.00    -0.395 OA
HETATM    2  H   UNL     1     -52.551  50.105   7.898  1.00  0.00     0.210 HD
ENDROOT
BRANCH   1   3
HETATM    3  C   UNL     1     -53.867  48.987   8.856  1.00  0.00     0.122 C 
BRANCH   3   4
HETATM    4  C   UNL     1     -54.414  49.221  10.273  1.00  0.00     0.042 C 
BRANCH   4   5
HETATM    5  C   UNL     1     -53.352  49.711  11.260  1.00  0.00     0.116 C 
BRANCH   5   6
HETATM    6  C   UNL     1     -53.235  48.928  12.542  1.00  0.00     0.172 C 
HETATM    7  O   UNL     1     -53.704  49.262  13.618  1.00  0.00    -0.648 OA
HETATM    8  O   UNL     1     -52.635  47.729  12.415  1.00  0.00    -0.648 OA
ENDBRANCH   5   6
ENDBRANCH   4   5
ENDBRANCH   3   4
BRANCH   3   9
HETATM    9  C   UNL     1     -52.702  47.982   8.882  1.00  0.00     0.070 C 
BRANCH   9  10
HETATM   10  C   UNL     1     -52.316  47.497   7.503  1.00  0.00    -0.053 A 
HETATM   11  C   UNL     1     -53.122  46.572   6.823  1.00  0.00     0.046 A 
HETATM   12  C   UNL     1     -52.744  46.124   5.565  1.00  0.00     0.099 A 
HETATM   13  C   UNL     1     -51.588  46.603   4.958  1.00  0.00     0.098 A 
HETATM   14  C   UNL     1     -50.767  47.503   5.622  1.00  0.00     0.040 A 
HETATM   15  C   UNL     1     -51.129  47.948   6.897  1.00  0.00     0.010 A 
BRANCH  12  16
HETATM   16  O   UNL     1     -53.505  45.177   4.941  1.00  0.00    -0.358 OA
HETATM   17  H   UNL     1     -54.383  45.377   4.683  1.00  0.00     0.217 HD
ENDBRANCH  12  16
BRANCH  13  18
HETATM   18  O   UNL     1     -51.260  46.220   3.690  1.00  0.00    -0.358 OA
HETATM   19  H   UNL     1     -51.594  45.416   3.343  1.00  0.00     0.217 HD
ENDBRANCH  13  18
ENDBRANCH   9  10
ENDBRANCH   3   9
ENDBRANCH   1   3
TORSDOF 8
ENDMDL
MODEL 3
REMARK VINA RESULT:      -6.4      4.516      6.562
REMARK  8 active torsions:
REMARK  status: ('A' for Active; 'I' for Inactive)
REMARK    1  A    between atoms: O_1  and  C_2 
REMARK    2  A    between atoms: C_2  and  C_3 
REMARK    3  A    between atoms: C_2  and  C_8 
REMARK    4  A    between atoms: C_3  and  C_4 
REMARK    5  A    between atoms: C_4  and  C_5 
REMARK    6  A    between atoms: C_8  and  C_9 
REMARK    7  A    between atoms: C_11  and  O_16 
REMARK    8  A    between atoms: C_12  and  O_15 
ROOT
HETATM    1  O   UNL     1     -52.325  46.689  14.123  1.00  0.00    -0.395 OA
HETATM    2  H   UNL     1     -52.517  46.561  15.065  1.00  0.00     0.210 HD
ENDROOT
BRANCH   1   3
HETATM    3  C   UNL     1     -52.112  48.077  13.865  1.00  0.00     0.122 C 
BRANCH   3   4
HETATM    4  C   UNL     1     -51.570  48.763  15.129  1.00  0.00     0.042 C 
BRANCH   4   5
HETATM    5  C   UNL     1     -50.617  47.880  15.938  1.00  0.00     0.116 C 
BRANCH   5   6
HETATM    6  C   UNL     1     -49.231  47.715  15.367  1.00  0.00     0.172 C 
HETATM    7  O   UNL     1     -48.244  48.339  15.722  1.00  0.00    -0.648 OA
HETATM    8  O   UNL     1     -49.111  46.724  14.462  1.00  0.00    -0.648 OA
ENDBRANCH   5   6
ENDBRANCH   4   5
ENDBRANCH   3   4
BRANCH   3   9
HETATM    9  C   UNL     1     -53.430  48.732  13.414  1.00  0.00     0.070 C 
BRANCH   9  10
HETATM   10  C   UNL     1     -53.448  49.051  11.936  1.00  0.00    -0.053 A 
HETATM   11  C   UNL     1     -53.595  50.376  11.496  1.00  0.00     0.046 A 
HETATM   12  C   UNL     1     -53.628  50.649  10.136  1.00  0.00     0.099 A 
HETATM   13  C   UNL     1     -53.488  49.627   9.203  1.00  0.00     0.098 A 
HETATM   14  C   UNL     1     -53.362  48.310   9.617  1.00  0.00     0.040 A 
HETATM   15  C   UNL     1     -53.345  48.021  10.985  1.00  0.00     0.010 A 
BRANCH  12  16
HETATM   16  O   UNL     1     -53.835  51.934   9.722  1.00  0.00    -0.358 OA
HETATM   17  H   UNL     1     -53.581  52.649  10.271  1.00  0.00     0.217 HD
ENDBRANCH  12  16
BRANCH  13  18
HETATM   18  O   UNL     1     -53.444  49.908   7.868  1.00  0.00    -0.358 OA
HETATM   19  H   UNL     1     -53.761  49.283   7.247  1.00  0.00     0.217 HD
ENDBRANCH  13  18
ENDBRANCH   9  10
ENDBRANCH   3   9
ENDBRANCH   1   3
TORSDOF 8
ENDMDL
MODEL 4
REMARK VINA RESULT:      -6.3      1.538      6.764
REMARK  8 active torsions:
REMARK  status: ('A' for Active; 'I' for Inactive)
REMARK    1  A    between atoms: O_1  and  C_2 
REMARK    2  A    between atoms: C_2  and  C_3 
REMARK    3  A    between atoms: C_2  and  C_8 
REMARK    4  A    between atoms: C_3  and  C_4 
REMARK    5  A    between atoms: C_4  and  C_5 
REMARK    6  A    between atoms: C_8  and  C_9 
REMARK    7  A    between atoms: C_11  and  O_16 
REMARK    8  A    between atoms: C_12  and  O_15 
ROOT
HETATM    1  O   UNL     1     -54.279  45.647   8.060  1.00  0.00    -0.395 OA
HETATM    2  H   UNL     1     -55.181  45.952   8.249  1.00  0.00     0.210 HD
ENDROOT
BRANCH   1   3
HETATM    3  C   UNL     1     -53.347  46.668   8.415  1.00  0.00     0.122 C 
BRANCH   3   4
HETATM    4  C   UNL     1     -51.956  46.316   7.864  1.00  0.00     0.042 C 
BRANCH   4   5
HETATM    5  C   UNL     1     -51.793  46.638   6.377  1.00  0.00     0.116 C 
BRANCH   5   6
HETATM    6  C   UNL     1     -52.278  45.581   5.419  1.00  0.00     0.172 C 
HETATM    7  O   UNL     1     -53.447  45.343   5.163  1.00  0.00    -0.648 OA
HETATM    8  O   UNL     1     -51.301  44.938   4.750  1.00  0.00    -0.648 OA
ENDBRANCH   5   6
ENDBRANCH   4   5
ENDBRANCH   3   4
BRANCH   3   9
HETATM    9  C   UNL     1     -53.302  46.823   9.946  1.00  0.00     0.070 C 
BRANCH   9  10
HETATM   10  C   UNL     1     -53.355  48.268  10.389  1.00  0.00    -0.053 A 
HETATM   11  C   UNL     1     -53.543  49.294   9.450  1.00  0.00     0.046 A 
HETATM   12  C   UNL     1     -53.571  50.615   9.872  1.00  0.00     0.099 A 
HETATM   13  C   UNL     1     -53.444  50.934  11.220  1.00  0.00     0.098 A 
HETATM   14  C   UNL     1     -53.237  49.936  12.161  1.00  0.00     0.040 A 
HETATM   15  C   UNL     1     -53.190  48.602  11.745  1.00  0.00     0.010 A 
BRANCH  12  16
HETATM   16  O   UNL     1     -53.691  51.607   8.941  1.00  0.00    -0.358 OA
HETATM   17  H   UNL     1     -54.452  52.154   8.935  1.00  0.00     0.217 HD
ENDBRANCH  12  16
BRANCH  13  18
HETATM   18  O   UNL     1     -53.549  52.228  11.640  1.00  0.00    -0.358 OA
HETATM   19  H   UNL     1     -53.628  52.419  12.554  1.00  0.00     0.217 HD
ENDBRANCH  13  18
ENDBRANCH   9  10
ENDBRANCH   3   9
ENDBRANCH   1   3
TORSDOF 8
ENDMDL
MODEL 5
REMARK VINA RESULT:      -6.2      3.155      6.857
REMARK  8 active torsions:
REMARK  status: ('A' for Active; 'I' for Inactive)
REMARK    1  A    between atoms: O_1  and  C_2 
REMARK    2  A    between atoms: C_2  and  C_3 
REMARK    3  A    between atoms: C_2  and  C_8 
REMARK    4  A    between atoms: C_3  and  C_4 
REMARK    5  A    between atoms: C_4  and  C_5 
REMARK    6  A    between atoms: C_8  and  C_9 
REMARK    7  A    between atoms: C_11  and  O_16 
REMARK    8  A    between atoms: C_12  and  O_15 
ROOT
HETATM    1  O   UNL     1     -55.631  45.938   8.878  1.00  0.00    -0.395 OA
HETATM    2  H   UNL     1     -55.859  45.475   9.700  1.00  0.00     0.210 HD
ENDROOT
BRANCH   1   3
HETATM    3  C   UNL     1     -54.254  45.722   8.576  1.00  0.00     0.122 C 
BRANCH   3   4
HETATM    4  C   UNL     1     -54.007  44.227   8.317  1.00  0.00     0.042 C 
BRANCH   4   5
HETATM    5  C   UNL     1     -54.753  43.312   9.291  1.00  0.00     0.116 C 
BRANCH   5   6
HETATM    6  C   UNL     1     -56.080  42.784   8.811  1.00  0.00     0.172 C 
HETATM    7  O   UNL     1     -56.807  42.029   9.437  1.00  0.00    -0.648 OA
HETATM    8  O   UNL     1     -56.492  43.288   7.631  1.00  0.00    -0.648 OA
ENDBRANCH   5   6
ENDBRANCH   4   5
ENDBRANCH   3   4
BRANCH   3   9
HETATM    9  C   UNL     1     -53.379  46.224   9.738  1.00  0.00     0.070 C 
BRANCH   9  10
HETATM   10  C   UNL     1     -53.434  47.726   9.906  1.00  0.00    -0.053 A 
HETATM   11  C   UNL     1     -53.345  48.570   8.789  1.00  0.00     0.046 A 
HETATM   12  C   UNL     1     -53.379  49.946   8.963  1.00  0.00     0.099 A 
HETATM   13  C   UNL     1     -53.529  50.499  10.230  1.00  0.00     0.098 A 
HETATM   14  C   UNL     1     -53.598  49.682  11.349  1.00  0.00     0.040 A 
HETATM   15  C   UNL     1     -53.547  48.294  11.188  1.00  0.00     0.010 A 
BRANCH  12  16
HETATM   16  O   UNL     1     -53.228  50.757   7.874  1.00  0.00    -0.358 OA
HETATM   17  H   UNL     1     -52.717  51.539   7.940  1.00  0.00     0.217 HD
ENDBRANCH  12  16
BRANCH  13  18
HETATM   18  O   UNL     1     -53.639  51.850  10.390  1.00  0.00    -0.358 OA
HETATM   19  H   UNL     1     -54.078  52.363   9.741  1.00  0.00     0.217 HD
ENDBRANCH  13  18
ENDBRANCH   9  10
ENDBRANCH   3   9
ENDBRANCH   1   3
TORSDOF 8
ENDMDL
MODEL 6
REMARK VINA RESULT:      -6.2      2.812      3.320
REMARK  8 active torsions:
REMARK  status: ('A' for Active; 'I' for Inactive)
REMARK    1  A    between atoms: O_1  and  C_2 
REMARK    2  A    between atoms: C_2  and  C_3 
REMARK    3  A    between atoms: C_2  and  C_8 
REMARK    4  A    between atoms: C_3  and  C_4 
REMARK    5  A    between atoms: C_4  and  C_5 
REMARK    6  A    between atoms: C_8  and  C_9 
REMARK    7  A    between atoms: C_11  and  O_16 
REMARK    8  A    between atoms: C_12  and  O_15 
ROOT
HETATM    1  O   UNL     1     -53.273  49.962   8.071  1.00  0.00    -0.395 OA
HETATM    2  H   UNL     1     -53.971  50.477   7.637  1.00  0.00     0.210 HD
ENDROOT
BRANCH   1   3
HETATM    3  C   UNL     1     -53.863  48.954   8.890  1.00  0.00     0.122 C 
BRANCH   3   4
HETATM    4  C   UNL     1     -54.474  49.597  10.146  1.00  0.00     0.042 C 
BRANCH   4   5
HETATM    5  C   UNL     1     -53.474  50.434  10.947  1.00  0.00     0.116 C 
BRANCH   5   6
HETATM    6  C   UNL     1     -53.632  51.929  10.838  1.00  0.00     0.172 C 
HETATM    7  O   UNL     1     -53.511  52.719  11.760  1.00  0.00    -0.648 OA
HETATM    8  O   UNL     1     -53.833  52.383   9.586  1.00  0.00    -0.648 OA
ENDBRANCH   5   6
ENDBRANCH   4   5
ENDBRANCH   3   4
BRANCH   3   9
HETATM    9  C   UNL     1     -52.803  47.908   9.276  1.00  0.00     0.070 C 
BRANCH   9  10
HETATM   10  C   UNL     1     -53.274  46.488   9.052  1.00  0.00    -0.053 A 
HETATM   11  C   UNL     1     -54.644  46.194   8.990  1.00  0.00     0.046 A 
HETATM   12  C   UNL     1     -55.059  44.883   8.802  1.00  0.00     0.099 A 
HETATM   13  C   UNL     1     -54.129  43.860   8.645  1.00  0.00     0.098 A 
HETATM   14  C   UNL     1     -52.771  44.127   8.723  1.00  0.00     0.040 A 
HETATM   15  C   UNL     1     -52.342  45.441   8.930  1.00  0.00     0.010 A 
BRANCH  12  16
HETATM   16  O   UNL     1     -56.395  44.602   8.807  1.00  0.00    -0.358 OA
HETATM   17  H   UNL     1     -56.962  45.010   8.182  1.00  0.00     0.217 HD
ENDBRANCH  12  16
BRANCH  13  18
HETATM   18  O   UNL     1     -54.539  42.585   8.383  1.00  0.00    -0.358 OA
HETATM   19  H   UNL     1     -53.909  41.923   8.178  1.00  0.00     0.217 HD
ENDBRANCH  13  18
ENDBRANCH   9  10
ENDBRANCH   3   9
ENDBRANCH   1   3
TORSDOF 8
ENDMDL
MODEL 7
REMARK VINA RESULT:      -6.2      1.392      2.265
REMARK  8 active torsions:
REMARK  status: ('A' for Active; 'I' for Inactive)
REMARK    1  A    between atoms: O_1  and  C_2 
REMARK    2  A    between atoms: C_2  and  C_3 
REMARK    3  A    between atoms: C_2  and  C_8 
REMARK    4  A    between atoms: C_3  and  C_4 
REMARK    5  A    between atoms: C_4  and  C_5 
REMARK    6  A    between atoms: C_8  and  C_9 
REMARK    7  A    between atoms: C_11  and  O_16 
REMARK    8  A    between atoms: C_12  and  O_15 
ROOT
HETATM    1  O   UNL     1     -53.427  50.366   8.333  1.00  0.00    -0.395 OA
HETATM    2  H   UNL     1     -52.474  50.504   8.221  1.00  0.00     0.210 HD
ENDROOT
BRANCH   1   3
HETATM    3  C   UNL     1     -53.684  48.980   8.561  1.00  0.00     0.122 C 
BRANCH   3   4
HETATM    4  C   UNL     1     -54.349  48.794   9.934  1.00  0.00     0.042 C 
BRANCH   4   5
HETATM    5  C   UNL     1     -53.344  48.621  11.076  1.00  0.00     0.116 C 
BRANCH   5   6
HETATM    6  C   UNL     1     -53.236  49.777  12.037  1.00  0.00     0.172 C 
HETATM    7  O   UNL     1     -52.887  49.694  13.203  1.00  0.00    -0.648 OA
HETATM    8  O   UNL     1     -53.467  50.986  11.489  1.00  0.00    -0.648 OA
ENDBRANCH   5   6
ENDBRANCH   4   5
ENDBRANCH   3   4
BRANCH   3   9
HETATM    9  C   UNL     1     -52.368  48.186   8.482  1.00  0.00     0.070 C 
BRANCH   9  10
HETATM   10  C   UNL     1     -52.390  47.124   7.404  1.00  0.00    -0.053 A 
HETATM   11  C   UNL     1     -51.705  47.323   6.196  1.00  0.00     0.046 A 
HETATM   12  C   UNL     1     -51.750  46.347   5.212  1.00  0.00     0.099 A 
HETATM   13  C   UNL     1     -52.442  45.159   5.421  1.00  0.00     0.098 A 
HETATM   14  C   UNL     1     -53.142  44.951   6.600  1.00  0.00     0.040 A 
HETATM   15  C   UNL     1     -53.118  45.936   7.592  1.00  0.00     0.010 A 
BRANCH  12  16
HETATM   16  O   UNL     1     -51.132  46.580   4.016  1.00  0.00    -0.358 OA
HETATM   17  H   UNL     1     -50.219  46.792   3.995  1.00  0.00     0.217 HD
ENDBRANCH  12  16
BRANCH  13  18
HETATM   18  O   UNL     1     -52.420  44.168   4.482  1.00  0.00    -0.358 OA
HETATM   19  H   UNL     1     -51.991  43.356   4.667  1.00  0.00     0.217 HD
ENDBRANCH  13  18
ENDBRANCH   9  10
ENDBRANCH   3   9
ENDBRANCH   1   3
TORSDOF 8
ENDMDL
MODEL 8
REMARK VINA RESULT:      -6.1      2.236      6.973
REMARK  8 active torsions:
REMARK  status: ('A' for Active; 'I' for Inactive)
REMARK    1  A    between atoms: O_1  and  C_2 
REMARK    2  A    between atoms: C_2  and  C_3 
REMARK    3  A    between atoms: C_2  and  C_8 
REMARK    4  A    between atoms: C_3  and  C_4 
REMARK    5  A    between atoms: C_4  and  C_5 
REMARK    6  A    between atoms: C_8  and  C_9 
REMARK    7  A    between atoms: C_11  and  O_16 
REMARK    8  A    between atoms: C_12  and  O_15 
ROOT
HETATM    1  O   UNL     1     -54.101  47.731   7.207  1.00  0.00    -0.395 OA
HETATM    2  H   UNL     1     -53.869  48.151   6.363  1.00  0.00     0.210 HD
ENDROOT
BRANCH   1   3
HETATM    3  C   UNL     1     -53.006  47.850   8.115  1.00  0.00     0.122 C 
BRANCH   3   4
HETATM    4  C   UNL     1     -51.694  47.497   7.396  1.00  0.00     0.042 C 
BRANCH   4   5
HETATM    5  C   UNL     1     -51.579  46.013   7.038  1.00  0.00     0.116 C 
BRANCH   5   6
HETATM    6  C   UNL     1     -52.145  45.615   5.699  1.00  0.00     0.172 C 
HETATM    7  O   UNL     1     -53.329  45.618   5.405  1.00  0.00    -0.648 OA
HETATM    8  O   UNL     1     -51.221  45.328   4.762  1.00  0.00    -0.648 OA
ENDBRANCH   5   6
ENDBRANCH   4   5
ENDBRANCH   3   4
BRANCH   3   9
HETATM    9  C   UNL     1     -53.229  46.927   9.325  1.00  0.00     0.070 C 
BRANCH   9  10
HETATM   10  C   UNL     1     -53.088  47.649  10.646  1.00  0.00    -0.053 A 
HETATM   11  C   UNL     1     -53.368  49.020  10.741  1.00  0.00     0.046 A 
HETATM   12  C   UNL     1     -53.216  49.671  11.957  1.00  0.00     0.099 A 
HETATM   13  C   UNL     1     -52.816  48.972  13.091  1.00  0.00     0.098 A 
HETATM   14  C   UNL     1     -52.515  47.621  13.014  1.00  0.00     0.040 A 
HETATM   15  C   UNL     1     -52.648  46.959  11.790  1.00  0.00     0.010 A 
BRANCH  12  16
HETATM   16  O   UNL     1     -53.431  51.018  12.021  1.00  0.00    -0.358 OA
HETATM   17  H   UNL     1     -54.103  51.410  11.498  1.00  0.00     0.217 HD
ENDBRANCH  12  16
BRANCH  13  18
HETATM   18  O   UNL     1     -52.743  49.599  14.302  1.00  0.00    -0.358 OA
HETATM   19  H   UNL     1     -53.526  49.793  14.777  1.00  0.00     0.217 HD
ENDBRANCH  13  18
ENDBRANCH   9  10
ENDBRANCH   3   9
ENDBRANCH   1   3
TORSDOF 8
ENDMDL
MODEL 9
REMARK VINA RESULT:      -6.1      4.504      7.240
REMARK  8 active torsions:
REMARK  status: ('A' for Active; 'I' for Inactive)
REMARK    1  A    between atoms: O_1  and  C_2 
REMARK    2  A    between atoms: C_2  and  C_3 
REMARK    3  A    between atoms: C_2  and  C_8 
REMARK    4  A    between atoms: C_3  and  C_4 
REMARK    5  A    between atoms: C_4  and  C_5 
REMARK    6  A    between atoms: C_8  and  C_9 
REMARK    7  A    between atoms: C_11  and  O_16 
REMARK    8  A    between atoms: C_12  and  O_15 
ROOT
HETATM    1  O   UNL     1     -53.582  51.167  11.701  1.00  0.00    -0.395 OA
HETATM    2  H   UNL     1     -54.096  51.210  12.522  1.00  0.00     0.210 HD
ENDROOT
BRANCH   1   3
HETATM    3  C   UNL     1     -53.223  49.812  11.435  1.00  0.00     0.122 C 
BRANCH   3   4
HETATM    4  C   UNL     1     -53.767  49.391  10.060  1.00  0.00     0.042 C 
BRANCH   4   5
HETATM    5  C   UNL     1     -54.932  48.402  10.146  1.00  0.00     0.116 C 
BRANCH   5   6
HETATM    6  C   UNL     1     -54.747  47.102   9.407  1.00  0.00     0.172 C 
HETATM    7  O   UNL     1     -53.681  46.530   9.244  1.00  0.00    -0.648 OA
HETATM    8  O   UNL     1     -55.890  46.523   8.993  1.00  0.00    -0.648 OA
ENDBRANCH   5   6
ENDBRANCH   4   5
ENDBRANCH   3   4
BRANCH   3   9
HETATM    9  C   UNL     1     -53.777  48.898  12.542  1.00  0.00     0.070 C 
BRANCH   9  10
HETATM   10  C   UNL     1     -52.693  48.124  13.259  1.00  0.00    -0.053 A 
HETATM   11  C   UNL     1     -52.094  48.645  14.416  1.00  0.00     0.046 A 
HETATM   12  C   UNL     1     -51.089  47.929  15.051  1.00  0.00     0.099 A 
HETATM   13  C   UNL     1     -50.688  46.687  14.570  1.00  0.00     0.098 A 
HETATM   14  C   UNL     1     -51.254  46.164  13.417  1.00  0.00     0.040 A 
HETATM   15  C   UNL     1     -52.256  46.884  12.759  1.00  0.00     0.010 A 
BRANCH  12  16
HETATM   16  O   UNL     1     -50.471  48.476  16.139  1.00  0.00    -0.358 OA
HETATM   17  H   UNL     1     -50.090  47.920  16.790  1.00  0.00     0.217 HD
ENDBRANCH  12  16
BRANCH  13  18
HETATM   18  O   UNL     1     -49.755  45.952  15.241  1.00  0.00    -0.358 OA
HETATM   19  H   UNL     1     -48.979  46.364  15.567  1.00  0.00     0.217 HD
ENDBRANCH  13  18
ENDBRANCH   9  10
ENDBRANCH   3   9
ENDBRANCH   1   3
TORSDOF 8
ENDMDL
