MODEL 1
REMARK VINA RESULT:      -6.8      0.000      0.000
REMARK  8 active torsions:
REMARK  status: ('A' for Active; 'I' for Inactive)
REMARK    1  A    between atoms: O_1  and  C_2 
REMARK    2  A    between atoms: C_2  and  C_3 
REMARK    3  A    between atoms: C_2  and  C_8 
REMARK    4  A    between atoms: C_3  and  C_4 
REMARK    5  A    between atoms: C_4  and  C_5 
REMARK    6  A    between atoms: C_8  and  C_9 
REMARK    7  A    between atoms: C_11  and  O_16 
REMARK    8  A    between atoms: C_12  and  O_15 
ROOT
HETATM    1  O   UNL     1     -53.066  50.507   8.041  1.00  0.00    -0.395 OA
HETATM    2  H   UNL     1     -53.472  50.723   7.187  1.00  0.00     0.210 HD
ENDROOT
BRANCH   1   3
HETATM    3  C   UNL     1     -53.714  49.364   8.600  1.00  0.00     0.122 C 
BRANCH   3   4
HETATM    4  C   UNL     1     -54.315  49.726   9.968  1.00  0.00     0.042 C 
BRANCH   4   5
HETATM    5  C   UNL     1     -53.384  50.577  10.835  1.00  0.00     0.116 C 
BRANCH   5   6
HETATM    6  C   UNL     1     -53.670  52.056  10.850  1.00  0.00     0.172 C 
HETATM    7  O   UNL     1     -53.470  52.803  11.794  1.00  0.00    -0.648 OA
HETATM    8  O   UNL     1     -54.094  52.558   9.674  1.00  0.00    -0.648 OA
ENDBRANCH   5   6
ENDBRANCH   4   5
ENDBRANCH   3   4
BRANCH   3   9
HETATM    9  C   UNL     1     -52.707  48.209   8.738  1.00  0.00     0.070 C 
BRANCH   9  10
HETATM   10  C   UNL     1     -52.304  47.622   7.403  1.00  0.00    -0.053 A 
HETATM   11  C   UNL     1     -53.120  46.674   6.767  1.00  0.00     0.046 A 
HETATM   12  C   UNL     1     -52.725  46.133   5.552  1.00  0.00     0.099 A 
HETATM   13  C   UNL     1     -51.543  46.542   4.942  1.00  0.00     0.098 A 
HETATM   14  C   UNL     1     -50.714  47.462   5.564  1.00  0.00     0.040 A 
HETATM   15  C   UNL     1     -51.092  48.001   6.797  1.00  0.00     0.010 A 
BRANCH  12  16
HETATM   16  O   UNL     1     -53.497  45.166   4.974  1.00  0.00    -0.358 OA
HETATM   17  H   UNL     1     -53.270  44.828   4.130  1.00  0.00     0.217 HD
ENDBRANCH  12  16
BRANCH  13  18
HETATM   18  O   UNL     1     -51.197  46.065   3.711  1.00  0.00    -0.358 OA
HETATM   19  H   UNL     1     -51.464  45.206   3.449  1.00  0.00     0.217 HD
ENDBRANCH  13  18
ENDBRANCH   9  10
ENDBRANCH   3   9
ENDBRANCH   1   3
TORSDOF 8
ENDMDL
MODEL 2
REMARK VINA RESULT:      -6.6      1.328      1.545
REMARK  8 active torsions:
REMARK  status: ('A' for Active; 'I' for Inactive)
REMARK    1  A    between atoms: O_1  and  C_2 
REMARK    2  A    between atoms: C_2  and  C_3 
REMARK    3  A    between atoms: C_2  and  C_8 
REMARK    4  A    between atoms: C_3  and  C_4 
REMARK    5  A    between atoms: C_4  and  C_5 
REMARK    6  A    between atoms: C_8  and  C_9 
REMARK    7  A    between atoms: C_11  and  O_16 
REMARK    8  A    between atoms: C_12  and  O_15 
ROOT
HETATM    1  O   UNL     1     -53.495  50.307   8.802  1.00  0.00    -0.395 OA
HETATM    2  H   UNL     1     -53.057  50.401   7.942  1.00  0.00     0.210 HD
ENDROOT
BRANCH   1   3
HETATM    3  C   UNL     1     -53.937  48.960   8.967  1.00  0.00     0.122 C 
BRANCH   3   4
HETATM    4  C   UNL     1     -54.709  48.825  10.289  1.00  0.00     0.042 C 
BRANCH   4   5
HETATM    5  C   UNL     1     -53.821  48.440  11.474  1.00  0.00     0.116 C 
BRANCH   5   6
HETATM    6  C   UNL     1     -53.318  49.584  12.317  1.00  0.00     0.172 C 
HETATM    7  O   UNL     1     -52.763  49.472  13.398  1.00  0.00    -0.648 OA
HETATM    8  O   UNL     1     -53.434  50.797  11.744  1.00  0.00    -0.648 OA
ENDBRANCH   5   6
ENDBRANCH   4   5
ENDBRANCH   3   4
BRANCH   3   9
HETATM    9  C   UNL     1     -52.728  48.008   8.944  1.00  0.00     0.070 C 
BRANCH   9  10
HETATM   10  C   UNL     1     -52.359  47.564   7.546  1.00  0.00    -0.053 A 
HETATM   11  C   UNL     1     -53.127  46.596   6.881  1.00  0.00     0.046 A 
HETATM   12  C   UNL     1     -52.763  46.188   5.606  1.00  0.00     0.099 A 
HETATM   13  C   UNL     1     -51.662  46.748   4.967  1.00  0.00     0.098 A 
HETATM   14  C   UNL     1     -50.879  47.692   5.615  1.00  0.00     0.040 A 
HETATM   15  C   UNL     1     -51.226  48.098   6.907  1.00  0.00     0.010 A 
BRANCH  12  16
HETATM   16  O   UNL     1     -53.482  45.200   4.995  1.00  0.00    -0.358 OA
HETATM   17  H   UNL     1     -53.837  44.497   5.503  1.00  0.00     0.217 HD
ENDBRANCH  12  16
BRANCH  13  18
HETATM   18  O   UNL     1     -51.353  46.401   3.684  1.00  0.00    -0.358 OA
HETATM   19  H   UNL     1     -51.192  47.066   3.044  1.00  0.00     0.217 HD
ENDBRANCH  13  18
ENDBRANCH   9  10
ENDBRANCH   3   9
ENDBRANCH   1   3
TORSDOF 8
ENDMDL
MODEL 3
REMARK VINA RESULT:      -6.4      1.373      6.463
REMARK  8 active torsions:
REMARK  status: ('A' for Active; 'I' for Inactive)
REMARK    1  A    between atoms: O_1  and  C_2 
REMARK    2  A    between atoms: C_2  and  C_3 
REMARK    3  A    between atoms: C_2  and  C_8 
REMARK    4  A    between atoms: C_3  and  C_4 
REMARK    5  A    between atoms: C_4  and  C_5 
REMARK    6  A    between atoms: C_8  and  C_9 
REMARK    7  A    between atoms: C_11  and  O_16 
REMARK    8  A    between atoms: C_12  and  O_15 
ROOT
HETATM    1  O   UNL     1     -53.843  45.884   7.238  1.00  0.00    -0.395 OA
HETATM    2  H   UNL     1     -53.154  45.219   7.078  1.00  0.00     0.210 HD
ENDROOT
BRANCH   1   3
HETATM    3  C   UNL     1     -53.278  46.996   7.931  1.00  0.00     0.122 C 
BRANCH   3   4
HETATM    4  C   UNL     1     -51.744  46.907   7.894  1.00  0.00     0.042 C 
BRANCH   4   5
HETATM    5  C   UNL     1     -51.113  47.763   6.793  1.00  0.00     0.116 C 
BRANCH   5   6
HETATM    6  C   UNL     1     -51.326  47.280   5.381  1.00  0.00     0.172 C 
HETATM    7  O   UNL     1     -51.308  47.984   4.385  1.00  0.00    -0.648 OA
HETATM    8  O   UNL     1     -51.450  45.944   5.258  1.00  0.00    -0.648 OA
ENDBRANCH   5   6
ENDBRANCH   4   5
ENDBRANCH   3   4
BRANCH   3   9
HETATM    9  C   UNL     1     -53.786  47.019   9.383  1.00  0.00     0.070 C 
BRANCH   9  10
HETATM   10  C   UNL     1     -53.675  48.386  10.021  1.00  0.00    -0.053 A 
HETATM   11  C   UNL     1     -53.796  49.546   9.241  1.00  0.00     0.046 A 
HETATM   12  C   UNL     1     -53.674  50.792   9.840  1.00  0.00     0.099 A 
HETATM   13  C   UNL     1     -53.461  50.904  11.210  1.00  0.00     0.098 A 
HETATM   14  C   UNL     1     -53.319  49.770  11.994  1.00  0.00     0.040 A 
HETATM   15  C   UNL     1     -53.423  48.509  11.399  1.00  0.00     0.010 A 
BRANCH  12  16
HETATM   16  O   UNL     1     -53.731  51.912   9.059  1.00  0.00    -0.358 OA
HETATM   17  H   UNL     1     -54.231  52.653   9.341  1.00  0.00     0.217 HD
ENDBRANCH  12  16
BRANCH  13  18
HETATM   18  O   UNL     1     -53.419  52.131  11.807  1.00  0.00    -0.358 OA
HETATM   19  H   UNL     1     -53.906  52.845  11.445  1.00  0.00     0.217 HD
ENDBRANCH  13  18
ENDBRANCH   9  10
ENDBRANCH   3   9
ENDBRANCH   1   3
TORSDOF 8
ENDMDL
MODEL 4
REMARK VINA RESULT:      -6.2      4.656      6.571
REMARK  8 active torsions:
REMARK  status: ('A' for Active; 'I' for Inactive)
REMARK    1  A    between atoms: O_1  and  C_2 
REMARK    2  A    between atoms: C_2  and  C_3 
REMARK    3  A    between atoms: C_2  and  C_8 
REMARK    4  A    between atoms: C_3  and  C_4 
REMARK    5  A    between atoms: C_4  and  C_5 
REMARK    6  A    between atoms: C_8  and  C_9 
REMARK    7  A    between atoms: C_11  and  O_16 
REMARK    8  A    between atoms: C_12  and  O_15 
ROOT
HETATM    1  O   UNL     1     -52.300  46.439  13.865  1.00  0.00    -0.395 OA
HETATM    2  H   UNL     1     -51.615  45.902  13.435  1.00  0.00     0.210 HD
ENDROOT
BRANCH   1   3
HETATM    3  C   UNL     1     -51.963  47.821  13.747  1.00  0.00     0.122 C 
BRANCH   3   4
HETATM    4  C   UNL     1     -51.352  48.321  15.066  1.00  0.00     0.042 C 
BRANCH   4   5
HETATM    5  C   UNL     1     -50.349  47.341  15.680  1.00  0.00     0.116 C 
BRANCH   5   6
HETATM    6  C   UNL     1     -49.044  47.939  16.139  1.00  0.00     0.172 C 
HETATM    7  O   UNL     1     -48.726  48.128  17.302  1.00  0.00    -0.648 OA
HETATM    8  O   UNL     1     -48.159  48.182  15.153  1.00  0.00    -0.648 OA
ENDBRANCH   5   6
ENDBRANCH   4   5
ENDBRANCH   3   4
BRANCH   3   9
HETATM    9  C   UNL     1     -53.219  48.635  13.388  1.00  0.00     0.070 C 
BRANCH   9  10
HETATM   10  C   UNL     1     -53.296  48.972  11.915  1.00  0.00    -0.053 A 
HETATM   11  C   UNL     1     -53.540  50.290  11.499  1.00  0.00     0.046 A 
HETATM   12  C   UNL     1     -53.625  50.578  10.145  1.00  0.00     0.099 A 
HETATM   13  C   UNL     1     -53.442  49.580   9.193  1.00  0.00     0.098 A 
HETATM   14  C   UNL     1     -53.220  48.269   9.584  1.00  0.00     0.040 A 
HETATM   15  C   UNL     1     -53.150  47.963  10.946  1.00  0.00     0.010 A 
BRANCH  12  16
HETATM   16  O   UNL     1     -53.925  51.852   9.755  1.00  0.00    -0.358 OA
HETATM   17  H   UNL     1     -53.992  52.059   8.844  1.00  0.00     0.217 HD
ENDBRANCH  12  16
BRANCH  13  18
HETATM   18  O   UNL     1     -53.450  49.882   7.862  1.00  0.00    -0.358 OA
HETATM   19  H   UNL     1     -53.234  49.223   7.231  1.00  0.00     0.217 HD
ENDBRANCH  13  18
ENDBRANCH   9  10
ENDBRANCH   3   9
ENDBRANCH   1   3
TORSDOF 8
ENDMDL
MODEL 5
REMARK VINA RESULT:      -6.2      3.296      6.923
REMARK  8 active torsions:
REMARK  status: ('A' for Active; 'I' for Inactive)
REMARK    1  A    between atoms: O_1  and  C_2 
REMARK    2  A    between atoms: C_2  and  C_3 
REMARK    3  A    between atoms: C_2  and  C_8 
REMARK    4  A    between atoms: C_3  and  C_4 
REMARK    5  A    between atoms: C_4  and  C_5 
REMARK    6  A    between atoms: C_8  and  C_9 
REMARK    7  A    between atoms: C_11  and  O_16 
REMARK    8  A    between atoms: C_12  and  O_15 
ROOT
HETATM    1  O   UNL     1     -55.966  46.029   8.967  1.00  0.00    -0.395 OA
HETATM    2  H   UNL     1     -56.391  46.584   8.294  1.00  0.00     0.210 HD
ENDROOT
BRANCH   1   3
HETATM    3  C   UNL     1     -54.606  45.796   8.601  1.00  0.00     0.122 C 
BRANCH   3   4
HETATM    4  C   UNL     1     -54.405  44.308   8.271  1.00  0.00     0.042 C 
BRANCH   4   5
HETATM    5  C   UNL     1     -54.985  43.368   9.330  1.00  0.00     0.116 C 
BRANCH   5   6
HETATM    6  C   UNL     1     -56.232  42.621   8.932  1.00  0.00     0.172 C 
HETATM    7  O   UNL     1     -56.951  41.993   9.693  1.00  0.00    -0.648 OA
HETATM    8  O   UNL     1     -56.585  42.764   7.640  1.00  0.00    -0.648 OA
ENDBRANCH   5   6
ENDBRANCH   4   5
ENDBRANCH   3   4
BRANCH   3   9
HETATM    9  C   UNL     1     -53.676  46.229   9.748  1.00  0.00     0.070 C 
BRANCH   9  10
HETATM   10  C   UNL     1     -53.630  47.730   9.930  1.00  0.00    -0.053 A 
HETATM   11  C   UNL     1     -53.472  48.576   8.823  1.00  0.00     0.046 A 
HETATM   12  C   UNL     1     -53.415  49.950   9.010  1.00  0.00     0.099 A 
HETATM   13  C   UNL     1     -53.542  50.499  10.282  1.00  0.00     0.098 A 
HETATM   14  C   UNL     1     -53.680  49.679  11.391  1.00  0.00     0.040 A 
HETATM   15  C   UNL     1     -53.721  48.293  11.216  1.00  0.00     0.010 A 
BRANCH  12  16
HETATM   16  O   UNL     1     -53.197  50.759   7.932  1.00  0.00    -0.358 OA
HETATM   17  H   UNL     1     -53.860  50.855   7.277  1.00  0.00     0.217 HD
ENDBRANCH  12  16
BRANCH  13  18
HETATM   18  O   UNL     1     -53.563  51.853  10.453  1.00  0.00    -0.358 OA
HETATM   19  H   UNL     1     -53.592  52.420   9.708  1.00  0.00     0.217 HD
ENDBRANCH  13  18
ENDBRANCH   9  10
ENDBRANCH   3   9
ENDBRANCH   1   3
TORSDOF 8
ENDMDL
MODEL 6
REMARK VINA RESULT:      -6.2      3.189      4.260
REMARK  8 active torsions:
REMARK  status: ('A' for Active; 'I' for Inactive)
REMARK    1  A    between atoms: O_1  and  C_2 
REMARK    2  A    between atoms: C_2  and  C_3 
REMARK    3  A    between atoms: C_2  and  C_8 
REMARK    4  A    between atoms: C_3  and  C_4 
REMARK    5  A    between atoms: C_4  and  C_5 
REMARK    6  A    between atoms: C_8  and  C_9 
REMARK    7  A    between atoms: C_11  and  O_16 
REMARK    8  A    between atoms: C_12  and  O_15 
ROOT
HETATM    1  O   UNL     1     -53.404  50.994  11.992  1.00  0.00    -0.395 OA
HETATM    2  H   UNL     1     -53.266  51.586  11.236  1.00  0.00     0.210 HD
ENDROOT
BRANCH   1   3
HETATM    3  C   UNL     1     -53.721  49.685  11.520  1.00  0.00     0.122 C 
BRANCH   3   4
HETATM    4  C   UNL     1     -52.907  48.640  12.301  1.00  0.00     0.042 C 
BRANCH   4   5
HETATM    5  C   UNL     1     -53.305  48.539  13.775  1.00  0.00     0.116 C 
BRANCH   5   6
HETATM    6  C   UNL     1     -52.289  49.046  14.766  1.00  0.00     0.172 C 
HETATM    7  O   UNL     1     -52.415  50.046  15.455  1.00  0.00    -0.648 OA
HETATM    8  O   UNL     1     -51.218  48.247  14.932  1.00  0.00    -0.648 OA
ENDBRANCH   5   6
ENDBRANCH   4   5
ENDBRANCH   3   4
BRANCH   3   9
HETATM    9  C   UNL     1     -53.425  49.588  10.013  1.00  0.00     0.070 C 
BRANCH   9  10
HETATM   10  C   UNL     1     -53.735  48.221   9.442  1.00  0.00    -0.053 A 
HETATM   11  C   UNL     1     -55.032  47.693   9.527  1.00  0.00     0.046 A 
HETATM   12  C   UNL     1     -55.294  46.430   9.014  1.00  0.00     0.099 A 
HETATM   13  C   UNL     1     -54.292  45.695   8.390  1.00  0.00     0.098 A 
HETATM   14  C   UNL     1     -53.000  46.191   8.314  1.00  0.00     0.040 A 
HETATM   15  C   UNL     1     -52.720  47.455   8.842  1.00  0.00     0.010 A 
BRANCH  12  16
HETATM   16  O   UNL     1     -56.545  45.902   9.160  1.00  0.00    -0.358 OA
HETATM   17  H   UNL     1     -57.165  45.966   8.460  1.00  0.00     0.217 HD
ENDBRANCH  12  16
BRANCH  13  18
HETATM   18  O   UNL     1     -54.572  44.487   7.819  1.00  0.00    -0.358 OA
HETATM   19  H   UNL     1     -55.059  43.844   8.296  1.00  0.00     0.217 HD
ENDBRANCH  13  18
ENDBRANCH   9  10
ENDBRANCH   3   9
ENDBRANCH   1   3
TORSDOF 8
ENDMDL
MODEL 7
REMARK VINA RESULT:      -6.2      1.598      1.991
REMARK  8 active torsions:
REMARK  status: ('A' for Active; 'I' for Inactive)
REMARK    1  A    between atoms: O_1  and  C_2 
REMARK    2  A    between atoms: C_2  and  C_3 
REMARK    3  A    between atoms: C_2  and  C_8 
REMARK    4  A    between atoms: C_3  and  C_4 
REMARK    5  A    between atoms: C_4  and  C_5 
REMARK    6  A    between atoms: C_8  and  C_9 
REMARK    7  A    between atoms: C_11  and  O_16 
REMARK    8  A    between atoms: C_12  and  O_15 
ROOT
HETATM    1  O   UNL     1     -53.375  49.888   7.946  1.00  0.00    -0.395 OA
HETATM    2  H   UNL     1     -54.010  50.621   7.968  1.00  0.00     0.210 HD
ENDROOT
BRANCH   1   3
HETATM    3  C   UNL     1     -53.802  48.861   8.839  1.00  0.00     0.122 C 
BRANCH   3   4
HETATM    4  C   UNL     1     -54.532  49.486  10.039  1.00  0.00     0.042 C 
BRANCH   4   5
HETATM    5  C   UNL     1     -53.603  50.259  10.978  1.00  0.00     0.116 C 
BRANCH   5   6
HETATM    6  C   UNL     1     -53.629  51.760  10.839  1.00  0.00     0.172 C 
HETATM    7  O   UNL     1     -53.352  52.554  11.723  1.00  0.00    -0.648 OA
HETATM    8  O   UNL     1     -53.897  52.204   9.596  1.00  0.00    -0.648 OA
ENDBRANCH   5   6
ENDBRANCH   4   5
ENDBRANCH   3   4
BRANCH   3   9
HETATM    9  C   UNL     1     -52.588  48.040   9.310  1.00  0.00     0.070 C 
BRANCH   9  10
HETATM   10  C   UNL     1     -52.448  46.727   8.572  1.00  0.00    -0.053 A 
HETATM   11  C   UNL     1     -53.131  46.513   7.366  1.00  0.00     0.046 A 
HETATM   12  C   UNL     1     -53.005  45.296   6.711  1.00  0.00     0.099 A 
HETATM   13  C   UNL     1     -52.185  44.296   7.223  1.00  0.00     0.098 A 
HETATM   14  C   UNL     1     -51.516  44.481   8.424  1.00  0.00     0.040 A 
HETATM   15  C   UNL     1     -51.650  45.696   9.101  1.00  0.00     0.010 A 
BRANCH  12  16
HETATM   16  O   UNL     1     -53.725  45.077   5.571  1.00  0.00    -0.358 OA
HETATM   17  H   UNL     1     -53.283  44.885   4.768  1.00  0.00     0.217 HD
ENDBRANCH  12  16
BRANCH  13  18
HETATM   18  O   UNL     1     -52.002  43.130   6.537  1.00  0.00    -0.358 OA
HETATM   19  H   UNL     1     -52.307  43.053   5.654  1.00  0.00     0.217 HD
ENDBRANCH  13  18
ENDBRANCH   9  10
ENDBRANCH   3   9
ENDBRANCH   1   3
TORSDOF 8
ENDMDL
MODEL 8
REMARK VINA RESULT:      -6.1      2.074      6.559
REMARK  8 active torsions:
REMARK  status: ('A' for Active; 'I' for Inactive)
REMARK    1  A    between atoms: O_1  and  C_2 
REMARK    2  A    between atoms: C_2  and  C_3 
REMARK    3  A    between atoms: C_2  and  C_8 
REMARK    4  A    between atoms: C_3  and  C_4 
REMARK    5  A    between atoms: C_4  and  C_5 
REMARK    6  A    between atoms: C_8  and  C_9 
REMARK    7  A    between atoms: C_11  and  O_16 
REMARK    8  A    between atoms: C_12  and  O_15 
ROOT
HETATM    1  O   UNL     1     -55.805  46.593   9.165  1.00  0.00    -0.395 OA
HETATM    2  H   UNL     1     -56.408  46.119   8.571  1.00  0.00     0.210 HD
ENDROOT
BRANCH   1   3
HETATM    3  C   UNL     1     -54.457  46.355   8.763  1.00  0.00     0.122 C 
BRANCH   3   4
HETATM    4  C   UNL     1     -54.308  44.905   8.274  1.00  0.00     0.042 C 
BRANCH   4   5
HETATM    5  C   UNL     1     -52.997  44.647   7.529  1.00  0.00     0.116 C 
BRANCH   5   6
HETATM    6  C   UNL     1     -52.770  45.476   6.292  1.00  0.00     0.172 C 
HETATM    7  O   UNL     1     -53.449  45.432   5.279  1.00  0.00    -0.648 OA
HETATM    8  O   UNL     1     -51.783  46.386   6.399  1.00  0.00    -0.648 OA
ENDBRANCH   5   6
ENDBRANCH   4   5
ENDBRANCH   3   4
BRANCH   3   9
HETATM    9  C   UNL     1     -53.505  46.632   9.940  1.00  0.00     0.070 C 
BRANCH   9  10
HETATM   10  C   UNL     1     -53.496  48.086  10.356  1.00  0.00    -0.053 A 
HETATM   11  C   UNL     1     -53.578  49.102   9.393  1.00  0.00     0.046 A 
HETATM   12  C   UNL     1     -53.551  50.431   9.791  1.00  0.00     0.099 A 
HETATM   13  C   UNL     1     -53.473  50.767  11.139  1.00  0.00     0.098 A 
HETATM   14  C   UNL     1     -53.371  49.778  12.105  1.00  0.00     0.040 A 
HETATM   15  C   UNL     1     -53.380  48.436  11.714  1.00  0.00     0.010 A 
BRANCH  12  16
HETATM   16  O   UNL     1     -53.567  51.410   8.839  1.00  0.00    -0.358 OA
HETATM   17  H   UNL     1     -54.241  51.419   8.188  1.00  0.00     0.217 HD
ENDBRANCH  12  16
BRANCH  13  18
HETATM   18  O   UNL     1     -53.525  52.073  11.532  1.00  0.00    -0.358 OA
HETATM   19  H   UNL     1     -53.103  52.734  11.019  1.00  0.00     0.217 HD
ENDBRANCH  13  18
ENDBRANCH   9  10
ENDBRANCH   3   9
ENDBRANCH   1   3
TORSDOF 8
ENDMDL
MODEL 9
REMARK VINA RESULT:      -6.1      1.441      2.241
REMARK  8 active torsions:
REMARK  status: ('A' for Active; 'I' for Inactive)
REMARK    1  A    between atoms: O_1  and  C_2 
REMARK    2  A    between atoms: C_2  and  C_3 
REMARK    3  A    between atoms: C_2  and  C_8 
REMARK    4  A    between atoms: C_3  and  C_4 
REMARK    5  A    between atoms: C_4  and  C_5 
REMARK    6  A    between atoms: C_8  and  C_9 
REMARK    7  A    between atoms: C_11  and  O_16 
REMARK    8  A    between atoms: C_12  and  O_15 
ROOT
HETATM    1  O   UNL     1     -53.413  49.953   8.100  1.00  0.00    -0.395 OA
HETATM    2  H   UNL     1     -54.355  50.076   8.296  1.00  0.00     0.210 HD
ENDROOT
BRANCH   1   3
HETATM    3  C   UNL     1     -53.068  48.579   8.275  1.00  0.00     0.122 C 
BRANCH   3   4
HETATM    4  C   UNL     1     -52.972  48.254   9.774  1.00  0.00     0.042 C 
BRANCH   4   5
HETATM    5  C   UNL     1     -54.012  48.991  10.622  1.00  0.00     0.116 C 
BRANCH   5   6
HETATM    6  C   UNL     1     -53.515  50.208  11.359  1.00  0.00     0.172 C 
HETATM    7  O   UNL     1     -53.523  51.348  10.923  1.00  0.00    -0.648 OA
HETATM    8  O   UNL     1     -53.126  49.977  12.628  1.00  0.00    -0.648 OA
ENDBRANCH   5   6
ENDBRANCH   4   5
ENDBRANCH   3   4
BRANCH   3   9
HETATM    9  C   UNL     1     -51.733  48.283   7.569  1.00  0.00     0.070 C 
BRANCH   9  10
HETATM   10  C   UNL     1     -51.765  46.999   6.770  1.00  0.00    -0.053 A 
HETATM   11  C   UNL     1     -51.414  46.998   5.411  1.00  0.00     0.046 A 
HETATM   12  C   UNL     1     -51.467  45.814   4.689  1.00  0.00     0.099 A 
HETATM   13  C   UNL     1     -51.836  44.622   5.304  1.00  0.00     0.098 A 
HETATM   14  C   UNL     1     -52.205  44.606   6.641  1.00  0.00     0.040 A 
HETATM   15  C   UNL     1     -52.172  45.796   7.374  1.00  0.00     0.010 A 
BRANCH  12  16
HETATM   16  O   UNL     1     -51.184  45.839   3.353  1.00  0.00    -0.358 OA
HETATM   17  H   UNL     1     -51.872  45.973   2.731  1.00  0.00     0.217 HD
ENDBRANCH  12  16
BRANCH  13  18
HETATM   18  O   UNL     1     -51.812  43.447   4.610  1.00  0.00    -0.358 OA
HETATM   19  H   UNL     1     -51.680  42.638   5.064  1.00  0.00     0.217 HD
ENDBRANCH  13  18
ENDBRANCH   9  10
ENDBRANCH   3   9
ENDBRANCH   1   3
TORSDOF 8
ENDMDL
