MODEL 1
REMARK VINA RESULT:     -18.1      0.000      0.000
REMARK  6 active torsions:
REMARK  status: ('A' for Active; 'I' for Inactive)
REMARK    1  A    between atoms: O_1  and  C_8 
REMARK    2  A    between atoms: O_2  and  C_11 
REMARK    3  A    between atoms: O_3  and  C_13 
REMARK    4  A    between atoms: C_6  and  C_7 
REMARK    5  A    between atoms: C_6  and  C_8 
REMARK    6  A    between atoms: C_8  and  C_14 
ROOT
HETATM    1  O   UNL     1     -52.501  48.977   7.159  1.00  0.00    -0.385 OA
HETATM    2  H   UNL     1     -51.969  48.225   6.854  1.00  0.00     0.210 HD
ENDROOT
BRANCH   1   3
HETATM    3  C   UNL     1     -53.342  48.559   8.227  1.00  0.00     0.223 C 
BRANCH   3   4
HETATM    4  C   UNL     1     -54.136  49.777   8.729  1.00  0.00     0.081 C 
BRANCH   4   5
HETATM    5  C   UNL     1     -53.926  50.041  10.181  1.00  0.00    -0.052 A 
HETATM    6  C   UNL     1     -53.897  51.353  10.655  1.00  0.00     0.046 A 
HETATM    7  C   UNL     1     -53.700  51.600  12.014  1.00  0.00     0.099 A 
HETATM    8  C   UNL     1     -53.532  50.535  12.898  1.00  0.00     0.098 A 
HETATM    9  C   UNL     1     -53.560  49.223  12.425  1.00  0.00     0.040 A 
HETATM   10  C   UNL     1     -53.757  48.976  11.066  1.00  0.00     0.010 A 
BRANCH   7  11
HETATM   11  O   UNL     1     -53.675  52.885  12.464  1.00  0.00    -0.358 OA
HETATM   12  H   UNL     1     -54.468  53.382  12.504  1.00  0.00     0.217 HD
ENDBRANCH   7  11
BRANCH   8  13
HETATM   13  O   UNL     1     -53.340  50.764  14.228  1.00  0.00    -0.358 OA
HETATM   14  H   UNL     1     -53.000  50.085  14.776  1.00  0.00     0.217 HD
ENDBRANCH   8  13
ENDBRANCH   4   5
ENDBRANCH   3   4
BRANCH   3  15
HETATM   15  C   UNL     1     -54.263  47.483   7.689  1.00  0.00     0.203 C 
HETATM   16  O   UNL     1     -53.981  47.166   6.400  1.00  0.00    -0.646 OA
HETATM   17  O   UNL     1     -55.172  46.961   8.321  1.00  0.00    -0.646 OA
ENDBRANCH   3  15
ENDBRANCH   1   3
TORSDOF 6
ENDMDL
MODEL 2
REMARK VINA RESULT:     -18.0      1.024      1.927
REMARK  6 active torsions:
REMARK  status: ('A' for Active; 'I' for Inactive)
REMARK    1  A    between atoms: O_1  and  C_8 
REMARK    2  A    between atoms: O_2  and  C_11 
REMARK    3  A    between atoms: O_3  and  C_13 
REMARK    4  A    between atoms: C_6  and  C_7 
REMARK    5  A    between atoms: C_6  and  C_8 
REMARK    6  A    between atoms: C_8  and  C_14 
ROOT
HETATM    1  O   UNL     1     -52.687  49.395   7.483  1.00  0.00    -0.385 OA
HETATM    2  H   UNL     1     -52.096  50.080   7.834  1.00  0.00     0.210 HD
ENDROOT
BRANCH   1   3
HETATM    3  C   UNL     1     -53.459  48.847   8.545  1.00  0.00     0.223 C 
BRANCH   3   4
HETATM    4  C   UNL     1     -54.239  49.987   9.220  1.00  0.00     0.081 C 
BRANCH   4   5
HETATM    5  C   UNL     1     -53.925  50.118  10.671  1.00  0.00    -0.052 A 
HETATM    6  C   UNL     1     -53.584  48.989  11.415  1.00  0.00     0.046 A 
HETATM    7  C   UNL     1     -53.290  49.111  12.774  1.00  0.00     0.099 A 
HETATM    8  C   UNL     1     -53.339  50.363  13.387  1.00  0.00     0.098 A 
HETATM    9  C   UNL     1     -53.681  51.492  12.643  1.00  0.00     0.040 A 
HETATM   10  C   UNL     1     -53.974  51.370  11.285  1.00  0.00     0.010 A 
BRANCH   7  11
HETATM   11  O   UNL     1     -52.958  48.002  13.490  1.00  0.00    -0.358 OA
HETATM   12  H   UNL     1     -53.559  47.650  14.115  1.00  0.00     0.217 HD
ENDBRANCH   7  11
BRANCH   8  13
HETATM   13  O   UNL     1     -53.053  50.495  14.713  1.00  0.00    -0.358 OA
HETATM   14  H   UNL     1     -53.668  50.909  15.286  1.00  0.00     0.217 HD
ENDBRANCH   8  13
ENDBRANCH   4   5
ENDBRANCH   3   4
BRANCH   3  15
HETATM   15  C   UNL     1     -54.395  47.817   7.945  1.00  0.00     0.203 C 
HETATM   16  O   UNL     1     -54.054  47.497   6.670  1.00  0.00    -0.646 OA
HETATM   17  O   UNL     1     -55.361  47.332   8.518  1.00  0.00    -0.646 OA
ENDBRANCH   3  15
ENDBRANCH   1   3
TORSDOF 6
ENDMDL
MODEL 3
REMARK VINA RESULT:     -17.7      1.818      5.708
REMARK  6 active torsions:
REMARK  status: ('A' for Active; 'I' for Inactive)
REMARK    1  A    between atoms: O_1  and  C_8 
REMARK    2  A    between atoms: O_2  and  C_11 
REMARK    3  A    between atoms: O_3  and  C_13 
REMARK    4  A    between atoms: C_6  and  C_7 
REMARK    5  A    between atoms: C_6  and  C_8 
REMARK    6  A    between atoms: C_8  and  C_14 
ROOT
HETATM    1  O   UNL     1     -53.292  51.029  14.017  1.00  0.00    -0.385 OA
HETATM    2  H   UNL     1     -54.022  51.651  14.160  1.00  0.00     0.210 HD
ENDROOT
BRANCH   1   3
HETATM    3  C   UNL     1     -53.784  49.696  14.087  1.00  0.00     0.223 C 
BRANCH   3   4
HETATM    4  C   UNL     1     -53.322  48.938  12.832  1.00  0.00     0.081 C 
BRANCH   4   5
HETATM    5  C   UNL     1     -53.572  49.700  11.576  1.00  0.00    -0.052 A 
HETATM    6  C   UNL     1     -53.679  49.026  10.359  1.00  0.00     0.046 A 
HETATM    7  C   UNL     1     -53.912  49.739   9.183  1.00  0.00     0.099 A 
HETATM    8  C   UNL     1     -54.039  51.128   9.225  1.00  0.00     0.098 A 
HETATM    9  C   UNL     1     -53.931  51.803  10.441  1.00  0.00     0.040 A 
HETATM   10  C   UNL     1     -53.698  51.089  11.616  1.00  0.00     0.010 A 
BRANCH   7  11
HETATM   11  O   UNL     1     -54.015  49.069   8.003  1.00  0.00    -0.358 OA
HETATM   12  H   UNL     1     -54.859  48.898   7.633  1.00  0.00     0.217 HD
ENDBRANCH   7  11
BRANCH   8  13
HETATM   13  O   UNL     1     -54.268  51.835   8.083  1.00  0.00    -0.358 OA
HETATM   14  H   UNL     1     -54.644  52.692   8.130  1.00  0.00     0.217 HD
ENDBRANCH   8  13
ENDBRANCH   4   5
ENDBRANCH   3   4
BRANCH   3  15
HETATM   15  C   UNL     1     -53.225  49.069  15.348  1.00  0.00     0.203 C 
HETATM   16  O   UNL     1     -54.204  48.605  16.167  1.00  0.00    -0.646 OA
HETATM   17  O   UNL     1     -52.035  48.995  15.624  1.00  0.00    -0.646 OA
ENDBRANCH   3  15
ENDBRANCH   1   3
TORSDOF 6
ENDMDL
MODEL 4
REMARK VINA RESULT:     -17.5      1.156      1.446
REMARK  6 active torsions:
REMARK  status: ('A' for Active; 'I' for Inactive)
REMARK    1  A    between atoms: O_1  and  C_8 
REMARK    2  A    between atoms: O_2  and  C_11 
REMARK    3  A    between atoms: O_3  and  C_13 
REMARK    4  A    between atoms: C_6  and  C_7 
REMARK    5  A    between atoms: C_6  and  C_8 
REMARK    6  A    between atoms: C_8  and  C_14 
ROOT
HETATM    1  O   UNL     1     -52.302  47.097   8.655  1.00  0.00    -0.385 OA
HETATM    2  H   UNL     1     -51.626  47.054   9.349  1.00  0.00     0.210 HD
ENDROOT
BRANCH   1   3
HETATM    3  C   UNL     1     -53.581  47.287   9.249  1.00  0.00     0.223 C 
BRANCH   3   4
HETATM    4  C   UNL     1     -53.823  48.796   9.414  1.00  0.00     0.081 C 
BRANCH   4   5
HETATM    5  C   UNL     1     -53.645  49.256  10.820  1.00  0.00    -0.052 A 
HETATM    6  C   UNL     1     -53.808  50.604  11.139  1.00  0.00     0.046 A 
HETATM    7  C   UNL     1     -53.641  51.035  12.456  1.00  0.00     0.099 A 
HETATM    8  C   UNL     1     -53.311  50.117  13.453  1.00  0.00     0.098 A 
HETATM    9  C   UNL     1     -53.148  48.769  13.134  1.00  0.00     0.040 A 
HETATM   10  C   UNL     1     -53.315  48.338  11.818  1.00  0.00     0.010 A 
BRANCH   7  11
HETATM   11  O   UNL     1     -53.803  52.353  12.755  1.00  0.00    -0.358 OA
HETATM   12  H   UNL     1     -53.198  52.986  12.423  1.00  0.00     0.217 HD
ENDBRANCH   7  11
BRANCH   8  13
HETATM   13  O   UNL     1     -53.147  50.525  14.742  1.00  0.00    -0.358 OA
HETATM   14  H   UNL     1     -52.526  51.197  14.946  1.00  0.00     0.217 HD
ENDBRANCH   8  13
ENDBRANCH   4   5
ENDBRANCH   3   4
BRANCH   3  15
HETATM   15  C   UNL     1     -54.609  46.659   8.330  1.00  0.00     0.203 C 
HETATM   16  O   UNL     1     -55.860  46.701   8.857  1.00  0.00    -0.646 OA
HETATM   17  O   UNL     1     -54.360  46.153   7.244  1.00  0.00    -0.646 OA
ENDBRANCH   3  15
ENDBRANCH   1   3
TORSDOF 6
ENDMDL
MODEL 5
REMARK VINA RESULT:     -17.3      1.210      1.721
REMARK  6 active torsions:
REMARK  status: ('A' for Active; 'I' for Inactive)
REMARK    1  A    between atoms: O_1  and  C_8 
REMARK    2  A    between atoms: O_2  and  C_11 
REMARK    3  A    between atoms: O_3  and  C_13 
REMARK    4  A    between atoms: C_6  and  C_7 
REMARK    5  A    between atoms: C_6  and  C_8 
REMARK    6  A    between atoms: C_8  and  C_14 
ROOT
HETATM    1  O   UNL     1     -54.436  49.760   8.351  1.00  0.00    -0.385 OA
HETATM    2  H   UNL     1     -55.220  49.194   8.427  1.00  0.00     0.210 HD
ENDROOT
BRANCH   1   3
HETATM    3  C   UNL     1     -53.297  49.057   8.836  1.00  0.00     0.223 C 
BRANCH   3   4
HETATM    4  C   UNL     1     -53.737  48.165  10.009  1.00  0.00     0.081 C 
BRANCH   4   5
HETATM    5  C   UNL     1     -53.525  48.813  11.334  1.00  0.00    -0.052 A 
HETATM    6  C   UNL     1     -53.782  50.175  11.494  1.00  0.00     0.046 A 
HETATM    7  C   UNL     1     -53.583  50.782  12.735  1.00  0.00     0.099 A 
HETATM    8  C   UNL     1     -53.127  50.026  13.815  1.00  0.00     0.098 A 
HETATM    9  C   UNL     1     -52.869  48.665  13.655  1.00  0.00     0.040 A 
HETATM   10  C   UNL     1     -53.068  48.058  12.415  1.00  0.00     0.010 A 
BRANCH   7  11
HETATM   11  O   UNL     1     -53.838  52.111  12.879  1.00  0.00    -0.358 OA
HETATM   12  H   UNL     1     -53.264  52.743  12.493  1.00  0.00     0.217 HD
ENDBRANCH   7  11
BRANCH   8  13
HETATM   13  O   UNL     1     -52.931  50.607  15.032  1.00  0.00    -0.358 OA
HETATM   14  H   UNL     1     -53.611  50.587  15.676  1.00  0.00     0.217 HD
ENDBRANCH   8  13
ENDBRANCH   4   5
ENDBRANCH   3   4
BRANCH   3  15
HETATM   15  C   UNL     1     -52.748  48.232   7.690  1.00  0.00     0.203 C 
HETATM   16  O   UNL     1     -51.829  48.917   6.961  1.00  0.00    -0.646 OA
HETATM   17  O   UNL     1     -53.091  47.088   7.425  1.00  0.00    -0.646 OA
ENDBRANCH   3  15
ENDBRANCH   1   3
TORSDOF 6
ENDMDL
MODEL 6
REMARK VINA RESULT:     -17.2      2.031      5.438
REMARK  6 active torsions:
REMARK  status: ('A' for Active; 'I' for Inactive)
REMARK    1  A    between atoms: O_1  and  C_8 
REMARK    2  A    between atoms: O_2  and  C_11 
REMARK    3  A    between atoms: O_3  and  C_13 
REMARK    4  A    between atoms: C_6  and  C_7 
REMARK    5  A    between atoms: C_6  and  C_8 
REMARK    6  A    between atoms: C_8  and  C_14 
ROOT
HETATM    1  O   UNL     1     -54.373  49.378  15.575  1.00  0.00    -0.385 OA
HETATM    2  H   UNL     1     -54.361  48.612  16.171  1.00  0.00     0.210 HD
ENDROOT
BRANCH   1   3
HETATM    3  C   UNL     1     -53.637  49.072  14.397  1.00  0.00     0.223 C 
BRANCH   3   4
HETATM    4  C   UNL     1     -53.339  50.385  13.653  1.00  0.00     0.081 C 
BRANCH   4   5
HETATM    5  C   UNL     1     -53.592  50.286  12.188  1.00  0.00    -0.052 A 
HETATM    6  C   UNL     1     -53.730  51.445  11.424  1.00  0.00     0.046 A 
HETATM    7  C   UNL     1     -53.967  51.352  10.052  1.00  0.00     0.099 A 
HETATM    8  C   UNL     1     -54.067  50.100   9.445  1.00  0.00     0.098 A 
HETATM    9  C   UNL     1     -53.931  48.941  10.209  1.00  0.00     0.040 A 
HETATM   10  C   UNL     1     -53.693  49.034  11.580  1.00  0.00     0.010 A 
BRANCH   7  11
HETATM   11  O   UNL     1     -54.099  52.490   9.317  1.00  0.00    -0.358 OA
HETATM   12  H   UNL     1     -53.681  52.559   8.481  1.00  0.00     0.217 HD
ENDBRANCH   7  11
BRANCH   8  13
HETATM   13  O   UNL     1     -54.298  49.997   8.106  1.00  0.00    -0.358 OA
HETATM   14  H   UNL     1     -54.294  50.765   7.569  1.00  0.00     0.217 HD
ENDBRANCH   8  13
ENDBRANCH   4   5
ENDBRANCH   3   4
BRANCH   3  15
HETATM   15  C   UNL     1     -52.361  48.376  14.822  1.00  0.00     0.203 C 
HETATM   16  O   UNL     1     -51.802  48.955  15.916  1.00  0.00    -0.646 OA
HETATM   17  O   UNL     1     -51.865  47.414  14.250  1.00  0.00    -0.646 OA
ENDBRANCH   3  15
ENDBRANCH   1   3
TORSDOF 6
ENDMDL
MODEL 7
REMARK VINA RESULT:     -17.2      0.775      2.278
REMARK  6 active torsions:
REMARK  status: ('A' for Active; 'I' for Inactive)
REMARK    1  A    between atoms: O_1  and  C_8 
REMARK    2  A    between atoms: O_2  and  C_11 
REMARK    3  A    between atoms: O_3  and  C_13 
REMARK    4  A    between atoms: C_6  and  C_7 
REMARK    5  A    between atoms: C_6  and  C_8 
REMARK    6  A    between atoms: C_8  and  C_14 
ROOT
HETATM    1  O   UNL     1     -55.923  47.083   8.893  1.00  0.00    -0.385 OA
HETATM    2  H   UNL     1     -55.647  46.169   9.066  1.00  0.00     0.210 HD
ENDROOT
BRANCH   1   3
HETATM    3  C   UNL     1     -54.771  47.902   8.732  1.00  0.00     0.223 C 
BRANCH   3   4
HETATM    4  C   UNL     1     -53.990  47.913  10.056  1.00  0.00     0.081 C 
BRANCH   4   5
HETATM    5  C   UNL     1     -53.905  49.272  10.662  1.00  0.00    -0.052 A 
HETATM    6  C   UNL     1     -53.701  49.412  12.035  1.00  0.00     0.046 A 
HETATM    7  C   UNL     1     -53.622  50.684  12.603  1.00  0.00     0.099 A 
HETATM    8  C   UNL     1     -53.748  51.815  11.797  1.00  0.00     0.098 A 
HETATM    9  C   UNL     1     -53.953  51.676  10.424  1.00  0.00     0.040 A 
HETATM   10  C   UNL     1     -54.032  50.404   9.857  1.00  0.00     0.010 A 
BRANCH   7  11
HETATM   11  O   UNL     1     -53.421  50.808  13.944  1.00  0.00    -0.358 OA
HETATM   12  H   UNL     1     -54.154  50.867  14.523  1.00  0.00     0.217 HD
ENDBRANCH   7  11
BRANCH   8  13
HETATM   13  O   UNL     1     -53.671  53.063  12.340  1.00  0.00    -0.358 OA
HETATM   14  H   UNL     1     -52.840  53.414  12.592  1.00  0.00     0.217 HD
ENDBRANCH   8  13
ENDBRANCH   4   5
ENDBRANCH   3   4
BRANCH   3  15
HETATM   15  C   UNL     1     -53.944  47.313   7.607  1.00  0.00     0.203 C 
HETATM   16  O   UNL     1     -52.770  47.973   7.434  1.00  0.00    -0.646 OA
HETATM   17  O   UNL     1     -54.284  46.364   6.912  1.00  0.00    -0.646 OA
ENDBRANCH   3  15
ENDBRANCH   1   3
TORSDOF 6
ENDMDL
MODEL 8
REMARK VINA RESULT:     -17.1      1.136      2.205
REMARK  6 active torsions:
REMARK  status: ('A' for Active; 'I' for Inactive)
REMARK    1  A    between atoms: O_1  and  C_8 
REMARK    2  A    between atoms: O_2  and  C_11 
REMARK    3  A    between atoms: O_3  and  C_13 
REMARK    4  A    between atoms: C_6  and  C_7 
REMARK    5  A    between atoms: C_6  and  C_8 
REMARK    6  A    between atoms: C_8  and  C_14 
ROOT
HETATM    1  O   UNL     1     -55.733  46.665   8.880  1.00  0.00    -0.385 OA
HETATM    2  H   UNL     1     -56.198  46.732   9.728  1.00  0.00     0.210 HD
ENDROOT
BRANCH   1   3
HETATM    3  C   UNL     1     -54.822  47.750   8.752  1.00  0.00     0.223 C 
BRANCH   3   4
HETATM    4  C   UNL     1     -53.982  47.836  10.038  1.00  0.00     0.081 C 
BRANCH   4   5
HETATM    5  C   UNL     1     -53.908  49.220  10.584  1.00  0.00    -0.052 A 
HETATM    6  C   UNL     1     -54.018  50.316   9.727  1.00  0.00     0.046 A 
HETATM    7  C   UNL     1     -53.948  51.612  10.238  1.00  0.00     0.099 A 
HETATM    8  C   UNL     1     -53.767  51.812  11.606  1.00  0.00     0.098 A 
HETATM    9  C   UNL     1     -53.655  50.717  12.463  1.00  0.00     0.040 A 
HETATM   10  C   UNL     1     -53.726  49.422  11.952  1.00  0.00     0.010 A 
BRANCH   7  11
HETATM   11  O   UNL     1     -54.058  52.672   9.391  1.00  0.00    -0.358 OA
HETATM   12  H   UNL     1     -54.839  53.188   9.386  1.00  0.00     0.217 HD
ENDBRANCH   7  11
BRANCH   8  13
HETATM   13  O   UNL     1     -53.698  53.074  12.117  1.00  0.00    -0.358 OA
HETATM   14  H   UNL     1     -52.887  53.543  12.099  1.00  0.00     0.217 HD
ENDBRANCH   8  13
ENDBRANCH   4   5
ENDBRANCH   3   4
BRANCH   3  15
HETATM   15  C   UNL     1     -53.952  47.476   7.542  1.00  0.00     0.203 C 
HETATM   16  O   UNL     1     -54.323  46.343   6.891  1.00  0.00    -0.646 OA
HETATM   17  O   UNL     1     -53.010  48.171   7.186  1.00  0.00    -0.646 OA
ENDBRANCH   3  15
ENDBRANCH   1   3
TORSDOF 6
ENDMDL
MODEL 9
REMARK VINA RESULT:     -17.0      2.713      5.732
REMARK  6 active torsions:
REMARK  status: ('A' for Active; 'I' for Inactive)
REMARK    1  A    between atoms: O_1  and  C_8 
REMARK    2  A    between atoms: O_2  and  C_11 
REMARK    3  A    between atoms: O_3  and  C_13 
REMARK    4  A    between atoms: C_6  and  C_7 
REMARK    5  A    between atoms: C_6  and  C_8 
REMARK    6  A    between atoms: C_8  and  C_14 
ROOT
HETATM    1  O   UNL     1     -52.191  49.724  15.649  1.00  0.00    -0.385 OA
HETATM    2  H   UNL     1     -52.164  49.847  16.610  1.00  0.00     0.210 HD
ENDROOT
BRANCH   1   3
HETATM    3  C   UNL     1     -53.246  48.829  15.316  1.00  0.00     0.223 C 
BRANCH   3   4
HETATM    4  C   UNL     1     -52.958  48.229  13.929  1.00  0.00     0.081 C 
BRANCH   4   5
HETATM    5  C   UNL     1     -53.285  49.167  12.818  1.00  0.00    -0.052 A 
HETATM    6  C   UNL     1     -53.431  50.530  13.075  1.00  0.00     0.046 A 
HETATM    7  C   UNL     1     -53.737  51.408  12.035  1.00  0.00     0.099 A 
HETATM    8  C   UNL     1     -53.897  50.922  10.737  1.00  0.00     0.098 A 
HETATM    9  C   UNL     1     -53.752  49.558  10.480  1.00  0.00     0.040 A 
HETATM   10  C   UNL     1     -53.446  48.681  11.520  1.00  0.00     0.010 A 
BRANCH   7  11
HETATM   11  O   UNL     1     -53.877  52.736  12.299  1.00  0.00    -0.358 OA
HETATM   12  H   UNL     1     -53.118  53.272  12.420  1.00  0.00     0.217 HD
ENDBRANCH   7  11
BRANCH   8  13
HETATM   13  O   UNL     1     -54.195  51.769   9.713  1.00  0.00    -0.358 OA
HETATM   14  H   UNL     1     -54.907  51.575   9.135  1.00  0.00     0.217 HD
ENDBRANCH   8  13
ENDBRANCH   4   5
ENDBRANCH   3   4
BRANCH   3  15
HETATM   15  C   UNL     1     -53.290  47.756  16.384  1.00  0.00     0.203 C 
HETATM   16  O   UNL     1     -52.102  47.111  16.511  1.00  0.00    -0.646 OA
HETATM   17  O   UNL     1     -54.275  47.475  17.053  1.00  0.00    -0.646 OA
ENDBRANCH   3  15
ENDBRANCH   1   3
TORSDOF 6
ENDMDL
