MODEL 1
REMARK VINA RESULT:     -22.2      0.000      0.000
REMARK  4 active torsions:
REMARK  status: ('A' for Active; 'I' for Inactive)
REMARK    1  A    between atoms: O_1  and  C_9 
REMARK    2  A    between atoms: O_2  and  C_10 
REMARK    3  A    between atoms: C_3  and  C_5 
REMARK    4  A    between atoms: C_4  and  C_8 
ROOT
HETATM    1  O   UNL     1     -54.231  50.020   8.367  1.00  0.00    -0.358 OA
HETATM    2  H   UNL     1     -54.622  50.567   7.714  1.00  0.00     0.217 HD
ENDROOT
BRANCH   1   3
HETATM    3  C   UNL     1     -54.051  50.492   9.632  1.00  0.00     0.099 A 
HETATM    4  C   UNL     1     -53.799  49.594  10.669  1.00  0.00     0.050 A 
HETATM    5  C   UNL     1     -53.617  50.077  11.955  1.00  0.00    -0.033 A 
HETATM    6  C   UNL     1     -53.681  51.432  12.232  1.00  0.00     0.014 A 
HETATM    7  C   UNL     1     -53.934  52.331  11.195  1.00  0.00     0.040 A 
HETATM    8  C   UNL     1     -54.119  51.860   9.895  1.00  0.00     0.098 A 
BRANCH   5   9
HETATM    9  C   UNL     1     -53.349  49.129  13.051  1.00  0.00     0.012 C 
HETATM   10  C   UNL     1     -52.931  49.470  14.293  1.00  0.00     0.012 C 
BRANCH  10  11
HETATM   11  C   UNL     1     -52.685  48.535  15.381  1.00  0.00    -0.036 A 
HETATM   12  C   UNL     1     -53.755  48.006  16.100  1.00  0.00     0.011 A 
HETATM   13  C   UNL     1     -53.519  47.109  17.143  1.00  0.00     0.001 A 
HETATM   14  C   UNL     1     -52.212  46.744  17.465  1.00  0.00     0.000 A 
HETATM   15  C   UNL     1     -51.141  47.274  16.745  1.00  0.00     0.001 A 
HETATM   16  C   UNL     1     -51.378  48.169  15.702  1.00  0.00     0.011 A 
ENDBRANCH  10  11
ENDBRANCH   5   9
BRANCH   8  17
HETATM   17  O   UNL     1     -54.367  52.746   8.891  1.00  0.00    -0.358 OA
HETATM   18  H   UNL     1     -55.227  53.103   8.783  1.00  0.00     0.217 HD
ENDBRANCH   8  17
ENDBRANCH   1   3
TORSDOF 4
ENDMDL
MODEL 2
REMARK VINA RESULT:     -22.2      3.501      5.428
REMARK  4 active torsions:
REMARK  status: ('A' for Active; 'I' for Inactive)
REMARK    1  A    between atoms: O_1  and  C_9 
REMARK    2  A    between atoms: O_2  and  C_10 
REMARK    3  A    between atoms: C_3  and  C_5 
REMARK    4  A    between atoms: C_4  and  C_8 
ROOT
HETATM    1  O   UNL     1     -52.162  48.246   4.481  1.00  0.00    -0.358 OA
HETATM    2  H   UNL     1     -51.266  48.051   4.283  1.00  0.00     0.217 HD
ENDROOT
BRANCH   1   3
HETATM    3  C   UNL     1     -52.743  47.719   5.595  1.00  0.00     0.099 A 
HETATM    4  C   UNL     1     -52.759  48.460   6.776  1.00  0.00     0.050 A 
HETATM    5  C   UNL     1     -53.350  47.920   7.907  1.00  0.00    -0.033 A 
HETATM    6  C   UNL     1     -53.925  46.660   7.889  1.00  0.00     0.014 A 
HETATM    7  C   UNL     1     -53.909  45.918   6.707  1.00  0.00     0.040 A 
HETATM    8  C   UNL     1     -53.318  46.448   5.561  1.00  0.00     0.098 A 
BRANCH   5   9
HETATM    9  C   UNL     1     -53.369  48.704   9.155  1.00  0.00     0.012 C 
HETATM   10  C   UNL     1     -53.366  48.180  10.404  1.00  0.00     0.012 C 
BRANCH  10  11
HETATM   11  C   UNL     1     -53.364  48.954  11.637  1.00  0.00    -0.036 A 
HETATM   12  C   UNL     1     -53.021  48.345  12.843  1.00  0.00     0.011 A 
HETATM   13  C   UNL     1     -53.019  49.087  14.024  1.00  0.00     0.001 A 
HETATM   14  C   UNL     1     -53.361  50.438  13.998  1.00  0.00     0.000 A 
HETATM   15  C   UNL     1     -53.704  51.049  12.792  1.00  0.00     0.001 A 
HETATM   16  C   UNL     1     -53.706  50.307  11.611  1.00  0.00     0.011 A 
ENDBRANCH  10  11
ENDBRANCH   5   9
BRANCH   8  17
HETATM   17  O   UNL     1     -53.306  45.714   4.413  1.00  0.00    -0.358 OA
HETATM   18  H   UNL     1     -53.344  46.144   3.581  1.00  0.00     0.217 HD
ENDBRANCH   8  17
ENDBRANCH   1   3
TORSDOF 4
ENDMDL
MODEL 3
REMARK VINA RESULT:     -21.8      3.769      7.244
REMARK  4 active torsions:
REMARK  status: ('A' for Active; 'I' for Inactive)
REMARK    1  A    between atoms: O_1  and  C_9 
REMARK    2  A    between atoms: O_2  and  C_10 
REMARK    3  A    between atoms: C_3  and  C_5 
REMARK    4  A    between atoms: C_4  and  C_8 
ROOT
HETATM    1  O   UNL     1     -50.017  46.868  17.101  1.00  0.00    -0.358 OA
HETATM    2  H   UNL     1     -49.377  47.504  17.352  1.00  0.00     0.217 HD
ENDROOT
BRANCH   1   3
HETATM    3  C   UNL     1     -51.275  47.265  16.759  1.00  0.00     0.099 A 
HETATM    4  C   UNL     1     -51.444  48.190  15.728  1.00  0.00     0.050 A 
HETATM    5  C   UNL     1     -52.725  48.592  15.383  1.00  0.00    -0.033 A 
HETATM    6  C   UNL     1     -53.839  48.096  16.040  1.00  0.00     0.014 A 
HETATM    7  C   UNL     1     -53.669  47.171  17.071  1.00  0.00     0.040 A 
HETATM    8  C   UNL     1     -52.386  46.757  17.430  1.00  0.00     0.098 A 
BRANCH   5   9
HETATM    9  C   UNL     1     -52.905  49.568  14.294  1.00  0.00     0.012 C 
HETATM   10  C   UNL     1     -53.465  49.299  13.090  1.00  0.00     0.012 C 
BRANCH  10  11
HETATM   11  C   UNL     1     -53.661  50.267  12.022  1.00  0.00    -0.036 A 
HETATM   12  C   UNL     1     -53.674  51.631  12.310  1.00  0.00     0.011 A 
HETATM   13  C   UNL     1     -53.862  52.559  11.286  1.00  0.00     0.001 A 
HETATM   14  C   UNL     1     -54.037  52.122   9.973  1.00  0.00     0.000 A 
HETATM   15  C   UNL     1     -54.024  50.757   9.684  1.00  0.00     0.001 A 
HETATM   16  C   UNL     1     -53.835  49.830  10.709  1.00  0.00     0.011 A 
ENDBRANCH  10  11
ENDBRANCH   5   9
BRANCH   8  17
HETATM   17  O   UNL     1     -52.233  45.855  18.439  1.00  0.00    -0.358 OA
HETATM   18  H   UNL     1     -52.661  45.022  18.393  1.00  0.00     0.217 HD
ENDBRANCH   8  17
ENDBRANCH   1   3
TORSDOF 4
ENDMDL
MODEL 4
REMARK VINA RESULT:     -21.8      3.782      7.251
REMARK  4 active torsions:
REMARK  status: ('A' for Active; 'I' for Inactive)
REMARK    1  A    between atoms: O_1  and  C_9 
REMARK    2  A    between atoms: O_2  and  C_10 
REMARK    3  A    between atoms: C_3  and  C_5 
REMARK    4  A    between atoms: C_4  and  C_8 
ROOT
HETATM    1  O   UNL     1     -50.022  46.973  17.205  1.00  0.00    -0.358 OA
HETATM    2  H   UNL     1     -49.664  47.304  18.005  1.00  0.00     0.217 HD
ENDROOT
BRANCH   1   3
HETATM    3  C   UNL     1     -51.281  47.328  16.823  1.00  0.00     0.099 A 
HETATM    4  C   UNL     1     -51.449  48.251  15.792  1.00  0.00     0.050 A 
HETATM    5  C   UNL     1     -52.731  48.610  15.407  1.00  0.00    -0.033 A 
HETATM    6  C   UNL     1     -53.848  48.072  16.025  1.00  0.00     0.014 A 
HETATM    7  C   UNL     1     -53.679  47.148  17.057  1.00  0.00     0.040 A 
HETATM    8  C   UNL     1     -52.395  46.777  17.455  1.00  0.00     0.098 A 
BRANCH   5   9
HETATM    9  C   UNL     1     -52.910  49.585  14.316  1.00  0.00     0.012 C 
HETATM   10  C   UNL     1     -53.461  49.312  13.109  1.00  0.00     0.012 C 
BRANCH  10  11
HETATM   11  C   UNL     1     -53.656  50.280  12.039  1.00  0.00    -0.036 A 
HETATM   12  C   UNL     1     -53.842  49.842  10.729  1.00  0.00     0.011 A 
HETATM   13  C   UNL     1     -54.029  50.769   9.703  1.00  0.00     0.001 A 
HETATM   14  C   UNL     1     -54.031  52.134   9.990  1.00  0.00     0.000 A 
HETATM   15  C   UNL     1     -53.846  52.572  11.302  1.00  0.00     0.001 A 
HETATM   16  C   UNL     1     -53.659  51.645  12.327  1.00  0.00     0.011 A 
ENDBRANCH  10  11
ENDBRANCH   5   9
BRANCH   8  17
HETATM   17  O   UNL     1     -52.243  45.876  18.466  1.00  0.00    -0.358 OA
HETATM   18  H   UNL     1     -52.226  44.958  18.276  1.00  0.00     0.217 HD
ENDBRANCH   8  17
ENDBRANCH   1   3
TORSDOF 4
ENDMDL
MODEL 5
REMARK VINA RESULT:     -21.8      3.799      5.682
REMARK  4 active torsions:
REMARK  status: ('A' for Active; 'I' for Inactive)
REMARK    1  A    between atoms: O_1  and  C_9 
REMARK    2  A    between atoms: O_2  and  C_10 
REMARK    3  A    between atoms: C_3  and  C_5 
REMARK    4  A    between atoms: C_4  and  C_8 
ROOT
HETATM    1  O   UNL     1     -52.168  44.159   6.424  1.00  0.00    -0.358 OA
HETATM    2  H   UNL     1     -51.884  43.632   7.145  1.00  0.00     0.217 HD
ENDROOT
BRANCH   1   3
HETATM    3  C   UNL     1     -52.630  45.422   6.644  1.00  0.00     0.099 A 
HETATM    4  C   UNL     1     -52.521  45.978   7.918  1.00  0.00     0.050 A 
HETATM    5  C   UNL     1     -52.992  47.262   8.139  1.00  0.00    -0.033 A 
HETATM    6  C   UNL     1     -53.569  48.004   7.122  1.00  0.00     0.014 A 
HETATM    7  C   UNL     1     -53.679  47.447   5.847  1.00  0.00     0.040 A 
HETATM    8  C   UNL     1     -53.209  46.156   5.610  1.00  0.00     0.098 A 
BRANCH   5   9
HETATM    9  C   UNL     1     -52.876  47.852   9.485  1.00  0.00     0.012 C 
HETATM   10  C   UNL     1     -53.662  48.840   9.974  1.00  0.00     0.012 C 
BRANCH  10  11
HETATM   11  C   UNL     1     -53.560  49.409  11.310  1.00  0.00    -0.036 A 
HETATM   12  C   UNL     1     -53.749  50.776  11.502  1.00  0.00     0.011 A 
HETATM   13  C   UNL     1     -53.652  51.321  12.783  1.00  0.00     0.001 A 
HETATM   14  C   UNL     1     -53.365  50.497  13.871  1.00  0.00     0.000 A 
HETATM   15  C   UNL     1     -53.176  49.128  13.679  1.00  0.00     0.001 A 
HETATM   16  C   UNL     1     -53.274  48.584  12.398  1.00  0.00     0.011 A 
ENDBRANCH  10  11
ENDBRANCH   5   9
BRANCH   8  17
HETATM   17  O   UNL     1     -53.323  45.622   4.361  1.00  0.00    -0.358 OA
HETATM   18  H   UNL     1     -52.604  45.672   3.763  1.00  0.00     0.217 HD
ENDBRANCH   8  17
ENDBRANCH   1   3
TORSDOF 4
ENDMDL
MODEL 6
REMARK VINA RESULT:     -21.6      0.714      1.710
REMARK  4 active torsions:
REMARK  status: ('A' for Active; 'I' for Inactive)
REMARK    1  A    between atoms: O_1  and  C_9 
REMARK    2  A    between atoms: O_2  and  C_10 
REMARK    3  A    between atoms: C_3  and  C_5 
REMARK    4  A    between atoms: C_4  and  C_8 
ROOT
HETATM    1  O   UNL     1     -53.969  53.637  11.550  1.00  0.00    -0.358 OA
HETATM    2  H   UNL     1     -53.532  53.977  12.306  1.00  0.00     0.217 HD
ENDROOT
BRANCH   1   3
HETATM    3  C   UNL     1     -53.913  52.304  11.273  1.00  0.00     0.099 A 
HETATM    4  C   UNL     1     -53.653  51.400  12.303  1.00  0.00     0.050 A 
HETATM    5  C   UNL     1     -53.596  50.045  12.018  1.00  0.00    -0.033 A 
HETATM    6  C   UNL     1     -53.790  49.570  10.732  1.00  0.00     0.014 A 
HETATM    7  C   UNL     1     -54.050  50.474   9.701  1.00  0.00     0.040 A 
HETATM    8  C   UNL     1     -54.111  51.841   9.973  1.00  0.00     0.098 A 
BRANCH   5   9
HETATM    9  C   UNL     1     -53.322  49.089  13.106  1.00  0.00     0.012 C 
HETATM   10  C   UNL     1     -52.857  49.418  14.335  1.00  0.00     0.012 C 
BRANCH  10  11
HETATM   11  C   UNL     1     -52.606  48.477  15.415  1.00  0.00    -0.036 A 
HETATM   12  C   UNL     1     -53.675  47.900  16.100  1.00  0.00     0.011 A 
HETATM   13  C   UNL     1     -53.434  46.997  17.136  1.00  0.00     0.001 A 
HETATM   14  C   UNL     1     -52.124  46.672  17.486  1.00  0.00     0.000 A 
HETATM   15  C   UNL     1     -51.054  47.249  16.801  1.00  0.00     0.001 A 
HETATM   16  C   UNL     1     -51.296  48.151  15.765  1.00  0.00     0.011 A 
ENDBRANCH  10  11
ENDBRANCH   5   9
BRANCH   8  17
HETATM   17  O   UNL     1     -54.363  52.714   8.958  1.00  0.00    -0.358 OA
HETATM   18  H   UNL     1     -54.626  53.593   9.151  1.00  0.00     0.217 HD
ENDBRANCH   8  17
ENDBRANCH   1   3
TORSDOF 4
ENDMDL
MODEL 7
REMARK VINA RESULT:     -21.6      0.712      2.090
REMARK  4 active torsions:
REMARK  status: ('A' for Active; 'I' for Inactive)
REMARK    1  A    between atoms: O_1  and  C_9 
REMARK    2  A    between atoms: O_2  and  C_10 
REMARK    3  A    between atoms: C_3  and  C_5 
REMARK    4  A    between atoms: C_4  and  C_8 
ROOT
HETATM    1  O   UNL     1     -54.008  53.617  11.543  1.00  0.00    -0.358 OA
HETATM    2  H   UNL     1     -54.717  53.935  12.067  1.00  0.00     0.217 HD
ENDROOT
BRANCH   1   3
HETATM    3  C   UNL     1     -53.922  52.290  11.246  1.00  0.00     0.099 A 
HETATM    4  C   UNL     1     -53.662  51.375  12.266  1.00  0.00     0.050 A 
HETATM    5  C   UNL     1     -53.575  50.026  11.961  1.00  0.00    -0.033 A 
HETATM    6  C   UNL     1     -53.740  49.568  10.664  1.00  0.00     0.014 A 
HETATM    7  C   UNL     1     -54.000  50.483   9.644  1.00  0.00     0.040 A 
HETATM    8  C   UNL     1     -54.091  51.844   9.936  1.00  0.00     0.098 A 
BRANCH   5   9
HETATM    9  C   UNL     1     -53.301  49.058  13.038  1.00  0.00     0.012 C 
HETATM   10  C   UNL     1     -52.956  49.381  14.307  1.00  0.00     0.012 C 
BRANCH  10  11
HETATM   11  C   UNL     1     -52.706  48.426  15.376  1.00  0.00    -0.036 A 
HETATM   12  C   UNL     1     -51.410  47.970  15.615  1.00  0.00     0.011 A 
HETATM   13  C   UNL     1     -51.170  47.055  16.640  1.00  0.00     0.001 A 
HETATM   14  C   UNL     1     -52.227  46.596  17.426  1.00  0.00     0.000 A 
HETATM   15  C   UNL     1     -53.523  47.053  17.188  1.00  0.00     0.001 A 
HETATM   16  C   UNL     1     -53.763  47.969  16.164  1.00  0.00     0.011 A 
ENDBRANCH  10  11
ENDBRANCH   5   9
BRANCH   8  17
HETATM   17  O   UNL     1     -54.343  52.728   8.930  1.00  0.00    -0.358 OA
HETATM   18  H   UNL     1     -54.703  52.425   8.119  1.00  0.00     0.217 HD
ENDBRANCH   8  17
ENDBRANCH   1   3
TORSDOF 4
ENDMDL
MODEL 8
REMARK VINA RESULT:     -21.3      3.865      7.280
REMARK  4 active torsions:
REMARK  status: ('A' for Active; 'I' for Inactive)
REMARK    1  A    between atoms: O_1  and  C_9 
REMARK    2  A    between atoms: O_2  and  C_10 
REMARK    3  A    between atoms: C_3  and  C_5 
REMARK    4  A    between atoms: C_4  and  C_8 
ROOT
HETATM    1  O   UNL     1     -54.353  47.158  18.165  1.00  0.00    -0.358 OA
HETATM    2  H   UNL     1     -54.147  47.376  19.053  1.00  0.00     0.217 HD
ENDROOT
BRANCH   1   3
HETATM    3  C   UNL     1     -53.367  47.119  17.226  1.00  0.00     0.099 A 
HETATM    4  C   UNL     1     -53.552  47.774  16.009  1.00  0.00     0.050 A 
HETATM    5  C   UNL     1     -52.547  47.731  15.056  1.00  0.00    -0.033 A 
HETATM    6  C   UNL     1     -51.362  47.052  15.287  1.00  0.00     0.014 A 
HETATM    7  C   UNL     1     -51.177  46.397  16.505  1.00  0.00     0.040 A 
HETATM    8  C   UNL     1     -52.179  46.431  17.474  1.00  0.00     0.098 A 
BRANCH   5   9
HETATM    9  C   UNL     1     -52.742  48.424  13.770  1.00  0.00     0.012 C 
HETATM   10  C   UNL     1     -53.523  49.514  13.581  1.00  0.00     0.012 C 
BRANCH  10  11
HETATM   11  C   UNL     1     -53.700  50.210  12.316  1.00  0.00    -0.036 A 
HETATM   12  C   UNL     1     -53.889  49.484  11.141  1.00  0.00     0.011 A 
HETATM   13  C   UNL     1     -54.058  50.151   9.927  1.00  0.00     0.001 A 
HETATM   14  C   UNL     1     -54.039  51.545   9.891  1.00  0.00     0.000 A 
HETATM   15  C   UNL     1     -53.850  52.272  11.066  1.00  0.00     0.001 A 
HETATM   16  C   UNL     1     -53.681  51.604  12.279  1.00  0.00     0.011 A 
ENDBRANCH  10  11
ENDBRANCH   5   9
BRANCH   8  17
HETATM   17  O   UNL     1     -51.987  45.785  18.658  1.00  0.00    -0.358 OA
HETATM   18  H   UNL     1     -51.204  45.290  18.800  1.00  0.00     0.217 HD
ENDBRANCH   8  17
ENDBRANCH   1   3
TORSDOF 4
ENDMDL
MODEL 9
REMARK VINA RESULT:     -21.2      3.264      4.938
REMARK  4 active torsions:
REMARK  status: ('A' for Active; 'I' for Inactive)
REMARK    1  A    between atoms: O_1  and  C_9 
REMARK    2  A    between atoms: O_2  and  C_10 
REMARK    3  A    between atoms: C_3  and  C_5 
REMARK    4  A    between atoms: C_4  and  C_8 
ROOT
HETATM    1  O   UNL     1     -55.035  45.213   6.895  1.00  0.00    -0.358 OA
HETATM    2  H   UNL     1     -55.621  45.160   6.165  1.00  0.00     0.217 HD
ENDROOT
BRANCH   1   3
HETATM    3  C   UNL     1     -54.213  46.292   7.030  1.00  0.00     0.099 A 
HETATM    4  C   UNL     1     -54.163  46.967   8.249  1.00  0.00     0.050 A 
HETATM    5  C   UNL     1     -53.326  48.063   8.382  1.00  0.00    -0.033 A 
HETATM    6  C   UNL     1     -52.539  48.503   7.331  1.00  0.00     0.014 A 
HETATM    7  C   UNL     1     -52.589  47.827   6.111  1.00  0.00     0.040 A 
HETATM    8  C   UNL     1     -53.426  46.721   5.961  1.00  0.00     0.098 A 
BRANCH   5   9
HETATM    9  C   UNL     1     -53.272  48.777   9.671  1.00  0.00     0.012 C 
HETATM   10  C   UNL     1     -53.355  48.193  10.890  1.00  0.00     0.012 C 
BRANCH  10  11
HETATM   11  C   UNL     1     -53.282  48.896  12.162  1.00  0.00    -0.036 A 
HETATM   12  C   UNL     1     -53.627  50.244  12.236  1.00  0.00     0.011 A 
HETATM   13  C   UNL     1     -53.557  50.918  13.456  1.00  0.00     0.001 A 
HETATM   14  C   UNL     1     -53.141  50.240  14.602  1.00  0.00     0.000 A 
HETATM   15  C   UNL     1     -52.795  48.891  14.529  1.00  0.00     0.001 A 
HETATM   16  C   UNL     1     -52.866  48.218  13.309  1.00  0.00     0.011 A 
ENDBRANCH  10  11
ENDBRANCH   5   9
BRANCH   8  17
HETATM   17  O   UNL     1     -53.467  46.071   4.765  1.00  0.00    -0.358 OA
HETATM   18  H   UNL     1     -53.034  46.436   4.018  1.00  0.00     0.217 HD
ENDBRANCH   8  17
ENDBRANCH   1   3
TORSDOF 4
ENDMDL
