MODEL 1
REMARK VINA RESULT:     -22.2      0.000      0.000
REMARK  4 active torsions:
REMARK  status: ('A' for Active; 'I' for Inactive)
REMARK    1  A    between atoms: O_1  and  C_9 
REMARK    2  A    between atoms: O_2  and  C_10 
REMARK    3  A    between atoms: C_3  and  C_5 
REMARK    4  A    between atoms: C_4  and  C_8 
ROOT
HETATM    1  O   UNL     1     -54.246  50.022   8.365  1.00  0.00    -0.358 OA
HETATM    2  H   UNL     1     -54.980  50.313   7.859  1.00  0.00     0.217 HD
ENDROOT
BRANCH   1   3
HETATM    3  C   UNL     1     -54.061  50.494   9.630  1.00  0.00     0.099 A 
HETATM    4  C   UNL     1     -53.807  49.595  10.666  1.00  0.00     0.050 A 
HETATM    5  C   UNL     1     -53.621  50.078  11.951  1.00  0.00    -0.033 A 
HETATM    6  C   UNL     1     -53.681  51.434  12.228  1.00  0.00     0.014 A 
HETATM    7  C   UNL     1     -53.935  52.333  11.192  1.00  0.00     0.040 A 
HETATM    8  C   UNL     1     -54.125  51.862   9.893  1.00  0.00     0.098 A 
BRANCH   5   9
HETATM    9  C   UNL     1     -53.351  49.129  13.046  1.00  0.00     0.012 C 
HETATM   10  C   UNL     1     -52.931  49.470  14.288  1.00  0.00     0.012 C 
BRANCH  10  11
HETATM   11  C   UNL     1     -52.684  48.535  15.375  1.00  0.00    -0.036 A 
HETATM   12  C   UNL     1     -51.379  48.164  15.693  1.00  0.00     0.011 A 
HETATM   13  C   UNL     1     -51.142  47.268  16.735  1.00  0.00     0.001 A 
HETATM   14  C   UNL     1     -52.212  46.744  17.460  1.00  0.00     0.000 A 
HETATM   15  C   UNL     1     -53.519  47.116  17.143  1.00  0.00     0.001 A 
HETATM   16  C   UNL     1     -53.755  48.012  16.101  1.00  0.00     0.011 A 
ENDBRANCH  10  11
ENDBRANCH   5   9
BRANCH   8  17
HETATM   17  O   UNL     1     -54.375  52.749   8.889  1.00  0.00    -0.358 OA
HETATM   18  H   UNL     1     -53.687  53.299   8.568  1.00  0.00     0.217 HD
ENDBRANCH   8  17
ENDBRANCH   1   3
TORSDOF 4
ENDMDL
MODEL 2
REMARK VINA RESULT:     -22.2      0.045      1.209
REMARK  4 active torsions:
REMARK  status: ('A' for Active; 'I' for Inactive)
REMARK    1  A    between atoms: O_1  and  C_9 
REMARK    2  A    between atoms: O_2  and  C_10 
REMARK    3  A    between atoms: C_3  and  C_5 
REMARK    4  A    between atoms: C_4  and  C_8 
ROOT
HETATM    1  O   UNL     1     -54.282  50.021   8.368  1.00  0.00    -0.358 OA
HETATM    2  H   UNL     1     -54.784  50.527   7.759  1.00  0.00     0.217 HD
ENDROOT
BRANCH   1   3
HETATM    3  C   UNL     1     -54.077  50.487   9.633  1.00  0.00     0.099 A 
HETATM    4  C   UNL     1     -53.818  49.582  10.662  1.00  0.00     0.050 A 
HETATM    5  C   UNL     1     -53.611  50.059  11.946  1.00  0.00    -0.033 A 
HETATM    6  C   UNL     1     -53.656  51.414  12.229  1.00  0.00     0.014 A 
HETATM    7  C   UNL     1     -53.916  52.319  11.199  1.00  0.00     0.040 A 
HETATM    8  C   UNL     1     -54.126  51.854   9.901  1.00  0.00     0.098 A 
BRANCH   5   9
HETATM    9  C   UNL     1     -53.336  49.104  13.035  1.00  0.00     0.012 C 
HETATM   10  C   UNL     1     -52.907  49.438  14.275  1.00  0.00     0.012 C 
BRANCH  10  11
HETATM   11  C   UNL     1     -52.655  48.496  15.356  1.00  0.00    -0.036 A 
HETATM   12  C   UNL     1     -53.719  47.974  16.089  1.00  0.00     0.011 A 
HETATM   13  C   UNL     1     -53.477  47.071  17.125  1.00  0.00     0.001 A 
HETATM   14  C   UNL     1     -52.169  46.692  17.427  1.00  0.00     0.000 A 
HETATM   15  C   UNL     1     -51.104  47.215  16.693  1.00  0.00     0.001 A 
HETATM   16  C   UNL     1     -51.347  48.117  15.657  1.00  0.00     0.011 A 
ENDBRANCH  10  11
ENDBRANCH   5   9
BRANCH   8  17
HETATM   17  O   UNL     1     -54.380  52.747   8.904  1.00  0.00    -0.358 OA
HETATM   18  H   UNL     1     -54.989  52.530   8.225  1.00  0.00     0.217 HD
ENDBRANCH   8  17
ENDBRANCH   1   3
TORSDOF 4
ENDMDL
MODEL 3
REMARK VINA RESULT:     -22.0      3.439      5.290
REMARK  4 active torsions:
REMARK  status: ('A' for Active; 'I' for Inactive)
REMARK    1  A    between atoms: O_1  and  C_9 
REMARK    2  A    between atoms: O_2  and  C_10 
REMARK    3  A    between atoms: C_3  and  C_5 
REMARK    4  A    between atoms: C_4  and  C_8 
ROOT
HETATM    1  O   UNL     1     -52.172  48.450   4.543  1.00  0.00    -0.358 OA
HETATM    2  H   UNL     1     -51.987  47.932   3.784  1.00  0.00     0.217 HD
ENDROOT
BRANCH   1   3
HETATM    3  C   UNL     1     -52.713  47.868   5.650  1.00  0.00     0.099 A 
HETATM    4  C   UNL     1     -52.730  48.570   6.855  1.00  0.00     0.050 A 
HETATM    5  C   UNL     1     -53.280  47.974   7.978  1.00  0.00    -0.033 A 
HETATM    6  C   UNL     1     -53.812  46.696   7.931  1.00  0.00     0.014 A 
HETATM    7  C   UNL     1     -53.795  45.994   6.725  1.00  0.00     0.040 A 
HETATM    8  C   UNL     1     -53.245  46.580   5.585  1.00  0.00     0.098 A 
BRANCH   5   9
HETATM    9  C   UNL     1     -53.300  48.716   9.252  1.00  0.00     0.012 C 
HETATM   10  C   UNL     1     -53.307  48.152  10.483  1.00  0.00     0.012 C 
BRANCH  10  11
HETATM   11  C   UNL     1     -53.307  48.884  11.741  1.00  0.00    -0.036 A 
HETATM   12  C   UNL     1     -52.931  48.244  12.921  1.00  0.00     0.011 A 
HETATM   13  C   UNL     1     -52.930  48.947  14.126  1.00  0.00     0.001 A 
HETATM   14  C   UNL     1     -53.306  50.290  14.149  1.00  0.00     0.000 A 
HETATM   15  C   UNL     1     -53.681  50.931  12.969  1.00  0.00     0.001 A 
HETATM   16  C   UNL     1     -53.681  50.228  11.764  1.00  0.00     0.011 A 
ENDBRANCH  10  11
ENDBRANCH   5   9
BRANCH   8  17
HETATM   17  O   UNL     1     -53.232  45.884   4.415  1.00  0.00    -0.358 OA
HETATM   18  H   UNL     1     -52.710  45.109   4.336  1.00  0.00     0.217 HD
ENDBRANCH   8  17
ENDBRANCH   1   3
TORSDOF 4
ENDMDL
MODEL 4
REMARK VINA RESULT:     -21.8      3.810      5.614
REMARK  4 active torsions:
REMARK  status: ('A' for Active; 'I' for Inactive)
REMARK    1  A    between atoms: O_1  and  C_9 
REMARK    2  A    between atoms: O_2  and  C_10 
REMARK    3  A    between atoms: C_3  and  C_5 
REMARK    4  A    between atoms: C_4  and  C_8 
ROOT
HETATM    1  O   UNL     1     -52.166  44.115   6.411  1.00  0.00    -0.358 OA
HETATM    2  H   UNL     1     -52.421  43.677   5.622  1.00  0.00     0.217 HD
ENDROOT
BRANCH   1   3
HETATM    3  C   UNL     1     -52.604  45.381   6.659  1.00  0.00     0.099 A 
HETATM    4  C   UNL     1     -52.476  45.911   7.942  1.00  0.00     0.050 A 
HETATM    5  C   UNL     1     -52.924  47.199   8.191  1.00  0.00    -0.033 A 
HETATM    6  C   UNL     1     -53.496  47.969   7.192  1.00  0.00     0.014 A 
HETATM    7  C   UNL     1     -53.624  47.438   5.908  1.00  0.00     0.040 A 
HETATM    8  C   UNL     1     -53.178  46.144   5.643  1.00  0.00     0.098 A 
BRANCH   5   9
HETATM    9  C   UNL     1     -52.787  47.761   9.547  1.00  0.00     0.012 C 
HETATM   10  C   UNL     1     -53.620  48.674  10.100  1.00  0.00     0.012 C 
BRANCH  10  11
HETATM   11  C   UNL     1     -53.497  49.214  11.445  1.00  0.00    -0.036 A 
HETATM   12  C   UNL     1     -53.749  50.565  11.681  1.00  0.00     0.011 A 
HETATM   13  C   UNL     1     -53.631  51.083  12.971  1.00  0.00     0.001 A 
HETATM   14  C   UNL     1     -53.261  50.248  14.025  1.00  0.00     0.000 A 
HETATM   15  C   UNL     1     -53.010  48.896  13.790  1.00  0.00     0.001 A 
HETATM   16  C   UNL     1     -53.129  48.379  12.500  1.00  0.00     0.011 A 
ENDBRANCH  10  11
ENDBRANCH   5   9
BRANCH   8  17
HETATM   17  O   UNL     1     -53.311  45.636   4.385  1.00  0.00    -0.358 OA
HETATM   18  H   UNL     1     -54.115  45.750   3.916  1.00  0.00     0.217 HD
ENDBRANCH   8  17
ENDBRANCH   1   3
TORSDOF 4
ENDMDL
MODEL 5
REMARK VINA RESULT:     -21.8      3.785      7.254
REMARK  4 active torsions:
REMARK  status: ('A' for Active; 'I' for Inactive)
REMARK    1  A    between atoms: O_1  and  C_9 
REMARK    2  A    between atoms: O_2  and  C_10 
REMARK    3  A    between atoms: C_3  and  C_5 
REMARK    4  A    between atoms: C_4  and  C_8 
ROOT
HETATM    1  O   UNL     1     -50.011  46.989  17.200  1.00  0.00    -0.358 OA
HETATM    2  H   UNL     1     -49.570  46.289  16.759  1.00  0.00     0.217 HD
ENDROOT
BRANCH   1   3
HETATM    3  C   UNL     1     -51.272  47.342  16.825  1.00  0.00     0.099 A 
HETATM    4  C   UNL     1     -51.448  48.264  15.793  1.00  0.00     0.050 A 
HETATM    5  C   UNL     1     -52.732  48.621  15.416  1.00  0.00    -0.033 A 
HETATM    6  C   UNL     1     -53.845  48.083  16.041  1.00  0.00     0.014 A 
HETATM    7  C   UNL     1     -53.668  47.160  17.073  1.00  0.00     0.040 A 
HETATM    8  C   UNL     1     -52.382  46.791  17.464  1.00  0.00     0.098 A 
BRANCH   5   9
HETATM    9  C   UNL     1     -52.919  49.595  14.324  1.00  0.00     0.012 C 
HETATM   10  C   UNL     1     -53.456  49.315  13.113  1.00  0.00     0.012 C 
BRANCH  10  11
HETATM   11  C   UNL     1     -53.658  50.280  12.043  1.00  0.00    -0.036 A 
HETATM   12  C   UNL     1     -53.848  49.841  10.734  1.00  0.00     0.011 A 
HETATM   13  C   UNL     1     -54.043  50.766   9.708  1.00  0.00     0.001 A 
HETATM   14  C   UNL     1     -54.047  52.132   9.994  1.00  0.00     0.000 A 
HETATM   15  C   UNL     1     -53.857  52.572  11.304  1.00  0.00     0.001 A 
HETATM   16  C   UNL     1     -53.663  51.646  12.329  1.00  0.00     0.011 A 
ENDBRANCH  10  11
ENDBRANCH   5   9
BRANCH   8  17
HETATM   17  O   UNL     1     -52.223  45.891  18.475  1.00  0.00    -0.358 OA
HETATM   18  H   UNL     1     -51.847  46.163  19.289  1.00  0.00     0.217 HD
ENDBRANCH   8  17
ENDBRANCH   1   3
TORSDOF 4
ENDMDL
MODEL 6
REMARK VINA RESULT:     -21.8      3.726      7.216
REMARK  4 active torsions:
REMARK  status: ('A' for Active; 'I' for Inactive)
REMARK    1  A    between atoms: O_1  and  C_9 
REMARK    2  A    between atoms: O_2  and  C_10 
REMARK    3  A    between atoms: C_3  and  C_5 
REMARK    4  A    between atoms: C_4  and  C_8 
ROOT
HETATM    1  O   UNL     1     -50.064  46.729  16.866  1.00  0.00    -0.358 OA
HETATM    2  H   UNL     1     -49.332  47.017  16.356  1.00  0.00     0.217 HD
ENDROOT
BRANCH   1   3
HETATM    3  C   UNL     1     -51.312  47.203  16.593  1.00  0.00     0.099 A 
HETATM    4  C   UNL     1     -51.481  48.142  15.576  1.00  0.00     0.050 A 
HETATM    5  C   UNL     1     -52.752  48.623  15.302  1.00  0.00    -0.033 A 
HETATM    6  C   UNL     1     -53.857  48.190  16.017  1.00  0.00     0.014 A 
HETATM    7  C   UNL     1     -53.687  47.250  17.035  1.00  0.00     0.040 A 
HETATM    8  C   UNL     1     -52.414  46.758  17.322  1.00  0.00     0.098 A 
BRANCH   5   9
HETATM    9  C   UNL     1     -52.932  49.614  14.227  1.00  0.00     0.012 C 
HETATM   10  C   UNL     1     -53.485  49.360  13.017  1.00  0.00     0.012 C 
BRANCH  10  11
HETATM   11  C   UNL     1     -53.681  50.344  11.962  1.00  0.00    -0.036 A 
HETATM   12  C   UNL     1     -53.681  51.704  12.268  1.00  0.00     0.011 A 
HETATM   13  C   UNL     1     -53.869  52.647  11.257  1.00  0.00     0.001 A 
HETATM   14  C   UNL     1     -54.056  52.227   9.940  1.00  0.00     0.000 A 
HETATM   15  C   UNL     1     -54.056  50.867   9.634  1.00  0.00     0.001 A 
HETATM   16  C   UNL     1     -53.868  49.924  10.645  1.00  0.00     0.011 A 
ENDBRANCH  10  11
ENDBRANCH   5   9
BRANCH   8  17
HETATM   17  O   UNL     1     -52.261  45.842  18.320  1.00  0.00    -0.358 OA
HETATM   18  H   UNL     1     -52.521  44.952  18.182  1.00  0.00     0.217 HD
ENDBRANCH   8  17
ENDBRANCH   1   3
TORSDOF 4
ENDMDL
MODEL 7
REMARK VINA RESULT:     -21.6      0.734      1.717
REMARK  4 active torsions:
REMARK  status: ('A' for Active; 'I' for Inactive)
REMARK    1  A    between atoms: O_1  and  C_9 
REMARK    2  A    between atoms: O_2  and  C_10 
REMARK    3  A    between atoms: C_3  and  C_5 
REMARK    4  A    between atoms: C_4  and  C_8 
ROOT
HETATM    1  O   UNL     1     -53.932  53.618  11.605  1.00  0.00    -0.358 OA
HETATM    2  H   UNL     1     -54.630  53.959  12.131  1.00  0.00     0.217 HD
ENDROOT
BRANCH   1   3
HETATM    3  C   UNL     1     -53.881  52.286  11.322  1.00  0.00     0.099 A 
HETATM    4  C   UNL     1     -53.632  51.376  12.349  1.00  0.00     0.050 A 
HETATM    5  C   UNL     1     -53.579  50.023  12.058  1.00  0.00    -0.033 A 
HETATM    6  C   UNL     1     -53.769  49.555  10.768  1.00  0.00     0.014 A 
HETATM    7  C   UNL     1     -54.018  50.465   9.740  1.00  0.00     0.040 A 
HETATM    8  C   UNL     1     -54.074  51.831  10.018  1.00  0.00     0.098 A 
BRANCH   5   9
HETATM    9  C   UNL     1     -53.318  49.060  13.143  1.00  0.00     0.012 C 
HETATM   10  C   UNL     1     -52.851  49.380  14.373  1.00  0.00     0.012 C 
BRANCH  10  11
HETATM   11  C   UNL     1     -52.612  48.432  15.451  1.00  0.00    -0.036 A 
HETATM   12  C   UNL     1     -51.309  48.054  15.771  1.00  0.00     0.011 A 
HETATM   13  C   UNL     1     -51.079  47.146  16.804  1.00  0.00     0.001 A 
HETATM   14  C   UNL     1     -52.154  46.616  17.517  1.00  0.00     0.000 A 
HETATM   15  C   UNL     1     -53.458  46.994  17.198  1.00  0.00     0.001 A 
HETATM   16  C   UNL     1     -53.687  47.903  16.165  1.00  0.00     0.011 A 
ENDBRANCH  10  11
ENDBRANCH   5   9
BRANCH   8  17
HETATM   17  O   UNL     1     -54.316  52.710   9.006  1.00  0.00    -0.358 OA
HETATM   18  H   UNL     1     -53.697  53.388   8.817  1.00  0.00     0.217 HD
ENDBRANCH   8  17
ENDBRANCH   1   3
TORSDOF 4
ENDMDL
MODEL 8
REMARK VINA RESULT:     -21.3      3.702      7.228
REMARK  4 active torsions:
REMARK  status: ('A' for Active; 'I' for Inactive)
REMARK    1  A    between atoms: O_1  and  C_9 
REMARK    2  A    between atoms: O_2  and  C_10 
REMARK    3  A    between atoms: C_3  and  C_5 
REMARK    4  A    between atoms: C_4  and  C_8 
ROOT
HETATM    1  O   UNL     1     -54.431  47.384  17.906  1.00  0.00    -0.358 OA
HETATM    2  H   UNL     1     -54.293  47.823  18.723  1.00  0.00     0.217 HD
ENDROOT
BRANCH   1   3
HETATM    3  C   UNL     1     -53.502  47.482  16.915  1.00  0.00     0.099 A 
HETATM    4  C   UNL     1     -53.734  48.339  15.839  1.00  0.00     0.050 A 
HETATM    5  C   UNL     1     -52.787  48.435  14.833  1.00  0.00    -0.033 A 
HETATM    6  C   UNL     1     -51.614  47.699  14.872  1.00  0.00     0.014 A 
HETATM    7  C   UNL     1     -51.382  46.841  15.949  1.00  0.00     0.040 A 
HETATM    8  C   UNL     1     -52.326  46.734  16.969  1.00  0.00     0.098 A 
BRANCH   5   9
HETATM    9  C   UNL     1     -53.031  49.341  13.696  1.00  0.00     0.012 C 
HETATM   10  C   UNL     1     -53.385  48.950  12.449  1.00  0.00     0.012 C 
BRANCH  10  11
HETATM   11  C   UNL     1     -53.646  49.846  11.332  1.00  0.00    -0.036 A 
HETATM   12  C   UNL     1     -53.839  49.328  10.053  1.00  0.00     0.011 A 
HETATM   13  C   UNL     1     -54.089  50.186   8.982  1.00  0.00     0.001 A 
HETATM   14  C   UNL     1     -54.146  51.564   9.193  1.00  0.00     0.000 A 
HETATM   15  C   UNL     1     -53.954  52.083  10.474  1.00  0.00     0.001 A 
HETATM   16  C   UNL     1     -53.704  51.224  11.544  1.00  0.00     0.011 A 
ENDBRANCH  10  11
ENDBRANCH   5   9
BRANCH   8  17
HETATM   17  O   UNL     1     -52.088  45.892  18.014  1.00  0.00    -0.358 OA
HETATM   18  H   UNL     1     -52.220  44.969  17.911  1.00  0.00     0.217 HD
ENDBRANCH   8  17
ENDBRANCH   1   3
TORSDOF 4
ENDMDL
MODEL 9
REMARK VINA RESULT:     -21.2      3.770      7.269
REMARK  4 active torsions:
REMARK  status: ('A' for Active; 'I' for Inactive)
REMARK    1  A    between atoms: O_1  and  C_9 
REMARK    2  A    between atoms: O_2  and  C_10 
REMARK    3  A    between atoms: C_3  and  C_5 
REMARK    4  A    between atoms: C_4  and  C_8 
ROOT
HETATM    1  O   UNL     1     -54.364  47.131  18.098  1.00  0.00    -0.358 OA
HETATM    2  H   UNL     1     -54.977  46.422  18.084  1.00  0.00     0.217 HD
ENDROOT
BRANCH   1   3
HETATM    3  C   UNL     1     -53.441  47.253  17.103  1.00  0.00     0.099 A 
HETATM    4  C   UNL     1     -53.682  48.134  16.049  1.00  0.00     0.050 A 
HETATM    5  C   UNL     1     -52.741  48.255  15.038  1.00  0.00    -0.033 A 
HETATM    6  C   UNL     1     -51.568  47.519  15.053  1.00  0.00     0.014 A 
HETATM    7  C   UNL     1     -51.327  46.638  16.108  1.00  0.00     0.040 A 
HETATM    8  C   UNL     1     -52.264  46.505  17.132  1.00  0.00     0.098 A 
BRANCH   5   9
HETATM    9  C   UNL     1     -52.994  49.186  13.925  1.00  0.00     0.012 C 
HETATM   10  C   UNL     1     -53.339  48.823  12.666  1.00  0.00     0.012 C 
BRANCH  10  11
HETATM   11  C   UNL     1     -53.608  49.743  11.572  1.00  0.00    -0.036 A 
HETATM   12  C   UNL     1     -53.661  51.115  11.811  1.00  0.00     0.011 A 
HETATM   13  C   UNL     1     -53.919  51.998  10.762  1.00  0.00     0.001 A 
HETATM   14  C   UNL     1     -54.123  51.506   9.473  1.00  0.00     0.000 A 
HETATM   15  C   UNL     1     -54.070  50.133   9.233  1.00  0.00     0.001 A 
HETATM   16  C   UNL     1     -53.812  49.251  10.282  1.00  0.00     0.011 A 
ENDBRANCH  10  11
ENDBRANCH   5   9
BRANCH   8  17
HETATM   17  O   UNL     1     -52.019  45.640  18.155  1.00  0.00    -0.358 OA
HETATM   18  H   UNL     1     -51.142  45.515  18.463  1.00  0.00     0.217 HD
ENDBRANCH   8  17
ENDBRANCH   1   3
TORSDOF 4
ENDMDL
