MODEL 1
REMARK VINA RESULT:      -7.4      0.000      0.000
REMARK  4 active torsions:
REMARK  status: ('A' for Active; 'I' for Inactive)
REMARK    1  A    between atoms: O_1  and  C_9 
REMARK    2  A    between atoms: O_2  and  C_10 
REMARK    3  A    between atoms: C_3  and  C_5 
REMARK    4  A    between atoms: C_4  and  C_8 
ROOT
HETATM    1  O   UNL     1     -54.406  48.416   8.358  1.00  0.00    -0.358 OA
HETATM    2  H   UNL     1     -53.844  49.159   8.254  1.00  0.00     0.217 HD
ENDROOT
BRANCH   1   3
HETATM    3  C   UNL     1     -54.053  47.409   9.206  1.00  0.00     0.099 A 
HETATM    4  C   UNL     1     -53.288  47.701  10.335  1.00  0.00     0.050 A 
HETATM    5  C   UNL     1     -52.932  46.675  11.195  1.00  0.00    -0.033 A 
HETATM    6  C   UNL     1     -53.318  45.367  10.958  1.00  0.00     0.014 A 
HETATM    7  C   UNL     1     -54.084  45.075   9.828  1.00  0.00     0.040 A 
HETATM    8  C   UNL     1     -54.451  46.097   8.953  1.00  0.00     0.098 A 
BRANCH   5   9
HETATM    9  C   UNL     1     -52.124  46.983  12.390  1.00  0.00     0.012 C 
HETATM   10  C   UNL     1     -52.536  46.830  13.670  1.00  0.00     0.012 C 
BRANCH  10  11
HETATM   11  C   UNL     1     -51.731  47.115  14.849  1.00  0.00    -0.036 A 
HETATM   12  C   UNL     1     -52.116  46.617  16.093  1.00  0.00     0.011 A 
HETATM   13  C   UNL     1     -51.344  46.889  17.223  1.00  0.00     0.001 A 
HETATM   14  C   UNL     1     -50.188  47.661  17.107  1.00  0.00     0.000 A 
HETATM   15  C   UNL     1     -49.803  48.160  15.862  1.00  0.00     0.001 A 
HETATM   16  C   UNL     1     -50.575  47.886  14.733  1.00  0.00     0.011 A 
ENDBRANCH  10  11
ENDBRANCH   5   9
BRANCH   8  17
HETATM   17  O   UNL     1     -55.197  45.799   7.853  1.00  0.00    -0.358 OA
HETATM   18  H   UNL     1     -55.755  46.451   7.474  1.00  0.00     0.217 HD
ENDBRANCH   8  17
ENDBRANCH   1   3
TORSDOF 4
ENDMDL
MODEL 2
REMARK VINA RESULT:      -7.3      1.830      2.261
REMARK  4 active torsions:
REMARK  status: ('A' for Active; 'I' for Inactive)
REMARK    1  A    between atoms: O_1  and  C_9 
REMARK    2  A    between atoms: O_2  and  C_10 
REMARK    3  A    between atoms: C_3  and  C_5 
REMARK    4  A    between atoms: C_4  and  C_8 
ROOT
HETATM    1  O   UNL     1     -54.024  48.897   8.512  1.00  0.00    -0.358 OA
HETATM    2  H   UNL     1     -53.784  49.533   7.867  1.00  0.00     0.217 HD
ENDROOT
BRANCH   1   3
HETATM    3  C   UNL     1     -53.064  48.136   9.109  1.00  0.00     0.099 A 
HETATM    4  C   UNL     1     -53.222  47.752  10.440  1.00  0.00     0.050 A 
HETATM    5  C   UNL     1     -52.243  46.980  11.044  1.00  0.00    -0.033 A 
HETATM    6  C   UNL     1     -51.111  46.580  10.353  1.00  0.00     0.014 A 
HETATM    7  C   UNL     1     -50.953  46.964   9.021  1.00  0.00     0.040 A 
HETATM    8  C   UNL     1     -51.929  47.742   8.400  1.00  0.00     0.098 A 
BRANCH   5   9
HETATM    9  C   UNL     1     -52.411  46.573  12.451  1.00  0.00     0.012 C 
HETATM   10  C   UNL     1     -51.620  46.969  13.476  1.00  0.00     0.012 C 
BRANCH  10  11
HETATM   11  C   UNL     1     -51.797  46.583  14.868  1.00  0.00    -0.036 A 
HETATM   12  C   UNL     1     -51.239  45.396  15.340  1.00  0.00     0.011 A 
HETATM   13  C   UNL     1     -51.408  45.026  16.674  1.00  0.00     0.001 A 
HETATM   14  C   UNL     1     -52.137  45.845  17.536  1.00  0.00     0.000 A 
HETATM   15  C   UNL     1     -52.695  47.034  17.065  1.00  0.00     0.001 A 
HETATM   16  C   UNL     1     -52.525  47.403  15.731  1.00  0.00     0.011 A 
ENDBRANCH  10  11
ENDBRANCH   5   9
BRANCH   8  17
HETATM   17  O   UNL     1     -51.763  48.112   7.099  1.00  0.00    -0.358 OA
HETATM   18  H   UNL     1     -50.985  48.566   6.837  1.00  0.00     0.217 HD
ENDBRANCH   8  17
ENDBRANCH   1   3
TORSDOF 4
ENDMDL
MODEL 3
REMARK VINA RESULT:      -7.2      1.107      1.428
REMARK  4 active torsions:
REMARK  status: ('A' for Active; 'I' for Inactive)
REMARK    1  A    between atoms: O_1  and  C_9 
REMARK    2  A    between atoms: O_2  and  C_10 
REMARK    3  A    between atoms: C_3  and  C_5 
REMARK    4  A    between atoms: C_4  and  C_8 
ROOT
HETATM    1  O   UNL     1     -55.197  47.938   8.327  1.00  0.00    -0.358 OA
HETATM    2  H   UNL     1     -54.724  48.421   7.678  1.00  0.00     0.217 HD
ENDROOT
BRANCH   1   3
HETATM    3  C   UNL     1     -54.537  47.071   9.145  1.00  0.00     0.099 A 
HETATM    4  C   UNL     1     -53.531  47.550   9.983  1.00  0.00     0.050 A 
HETATM    5  C   UNL     1     -52.861  46.665  10.813  1.00  0.00    -0.033 A 
HETATM    6  C   UNL     1     -53.169  45.315  10.827  1.00  0.00     0.014 A 
HETATM    7  C   UNL     1     -54.176  44.835   9.988  1.00  0.00     0.040 A 
HETATM    8  C   UNL     1     -54.859  45.714   9.147  1.00  0.00     0.098 A 
BRANCH   5   9
HETATM    9  C   UNL     1     -51.798  47.171  11.700  1.00  0.00     0.012 C 
HETATM   10  C   UNL     1     -51.637  46.826  12.999  1.00  0.00     0.012 C 
BRANCH  10  11
HETATM   11  C   UNL     1     -50.576  47.310  13.870  1.00  0.00    -0.036 A 
HETATM   12  C   UNL     1     -50.893  47.992  15.043  1.00  0.00     0.011 A 
HETATM   13  C   UNL     1     -49.876  48.456  15.878  1.00  0.00     0.001 A 
HETATM   14  C   UNL     1     -48.541  48.237  15.537  1.00  0.00     0.000 A 
HETATM   15  C   UNL     1     -48.223  47.554  14.362  1.00  0.00     0.001 A 
HETATM   16  C   UNL     1     -49.241  47.090  13.529  1.00  0.00     0.011 A 
ENDBRANCH  10  11
ENDBRANCH   5   9
BRANCH   8  17
HETATM   17  O   UNL     1     -55.839  45.233   8.331  1.00  0.00    -0.358 OA
HETATM   18  H   UNL     1     -55.622  44.915   7.477  1.00  0.00     0.217 HD
ENDBRANCH   8  17
ENDBRANCH   1   3
TORSDOF 4
ENDMDL
MODEL 4
REMARK VINA RESULT:      -7.1      5.592      7.202
REMARK  4 active torsions:
REMARK  status: ('A' for Active; 'I' for Inactive)
REMARK    1  A    between atoms: O_1  and  C_9 
REMARK    2  A    between atoms: O_2  and  C_10 
REMARK    3  A    between atoms: C_3  and  C_5 
REMARK    4  A    between atoms: C_4  and  C_8 
ROOT
HETATM    1  O   UNL     1     -49.956  42.255   4.395  1.00  0.00    -0.358 OA
HETATM    2  H   UNL     1     -50.492  42.544   3.682  1.00  0.00     0.217 HD
ENDROOT
BRANCH   1   3
HETATM    3  C   UNL     1     -50.363  42.462   5.679  1.00  0.00     0.099 A 
HETATM    4  C   UNL     1     -51.400  43.359   5.933  1.00  0.00     0.050 A 
HETATM    5  C   UNL     1     -51.811  43.568   7.240  1.00  0.00    -0.033 A 
HETATM    6  C   UNL     1     -51.212  42.905   8.299  1.00  0.00     0.014 A 
HETATM    7  C   UNL     1     -50.174  42.008   8.044  1.00  0.00     0.040 A 
HETATM    8  C   UNL     1     -49.750  41.787   6.734  1.00  0.00     0.098 A 
BRANCH   5   9
HETATM    9  C   UNL     1     -52.908  44.514   7.509  1.00  0.00     0.012 C 
HETATM   10  C   UNL     1     -52.978  45.343   8.578  1.00  0.00     0.012 C 
BRANCH  10  11
HETATM   11  C   UNL     1     -54.051  46.292   8.833  1.00  0.00    -0.036 A 
HETATM   12  C   UNL     1     -53.755  47.571   9.302  1.00  0.00     0.011 A 
HETATM   13  C   UNL     1     -54.784  48.481   9.547  1.00  0.00     0.001 A 
HETATM   14  C   UNL     1     -56.110  48.109   9.322  1.00  0.00     0.000 A 
HETATM   15  C   UNL     1     -56.407  46.830   8.853  1.00  0.00     0.001 A 
HETATM   16  C   UNL     1     -55.377  45.921   8.608  1.00  0.00     0.011 A 
ENDBRANCH  10  11
ENDBRANCH   5   9
BRANCH   8  17
HETATM   17  O   UNL     1     -48.734  40.910   6.499  1.00  0.00    -0.358 OA
HETATM   18  H   UNL     1     -47.891  41.056   6.882  1.00  0.00     0.217 HD
ENDBRANCH   8  17
ENDBRANCH   1   3
TORSDOF 4
ENDMDL
MODEL 5
REMARK VINA RESULT:      -7.1      5.486      7.121
REMARK  4 active torsions:
REMARK  status: ('A' for Active; 'I' for Inactive)
REMARK    1  A    between atoms: O_1  and  C_9 
REMARK    2  A    between atoms: O_2  and  C_10 
REMARK    3  A    between atoms: C_3  and  C_5 
REMARK    4  A    between atoms: C_4  and  C_8 
ROOT
HETATM    1  O   UNL     1     -49.957  42.384   4.313  1.00  0.00    -0.358 OA
HETATM    2  H   UNL     1     -49.023  42.410   4.240  1.00  0.00     0.217 HD
ENDROOT
BRANCH   1   3
HETATM    3  C   UNL     1     -50.545  42.420   5.542  1.00  0.00     0.099 A 
HETATM    4  C   UNL     1     -51.477  43.418   5.826  1.00  0.00     0.050 A 
HETATM    5  C   UNL     1     -52.072  43.453   7.077  1.00  0.00    -0.033 A 
HETATM    6  C   UNL     1     -51.761  42.518   8.050  1.00  0.00     0.014 A 
HETATM    7  C   UNL     1     -50.829  41.520   7.766  1.00  0.00     0.040 A 
HETATM    8  C   UNL     1     -50.221  41.472   6.511  1.00  0.00     0.098 A 
BRANCH   5   9
HETATM    9  C   UNL     1     -53.058  44.507   7.377  1.00  0.00     0.012 C 
HETATM   10  C   UNL     1     -53.203  45.120   8.576  1.00  0.00     0.012 C 
BRANCH  10  11
HETATM   11  C   UNL     1     -54.163  46.174   8.868  1.00  0.00    -0.036 A 
HETATM   12  C   UNL     1     -55.511  45.994   8.562  1.00  0.00     0.011 A 
HETATM   13  C   UNL     1     -56.432  47.004   8.842  1.00  0.00     0.001 A 
HETATM   14  C   UNL     1     -56.002  48.195   9.428  1.00  0.00     0.000 A 
HETATM   15  C   UNL     1     -54.653  48.375   9.734  1.00  0.00     0.001 A 
HETATM   16  C   UNL     1     -53.733  47.364   9.454  1.00  0.00     0.011 A 
ENDBRANCH  10  11
ENDBRANCH   5   9
BRANCH   8  17
HETATM   17  O   UNL     1     -49.311  40.493   6.246  1.00  0.00    -0.358 OA
HETATM   18  H   UNL     1     -48.707  40.595   5.536  1.00  0.00     0.217 HD
ENDBRANCH   8  17
ENDBRANCH   1   3
TORSDOF 4
ENDMDL
MODEL 6
REMARK VINA RESULT:      -7.0      5.196      6.314
REMARK  4 active torsions:
REMARK  status: ('A' for Active; 'I' for Inactive)
REMARK    1  A    between atoms: O_1  and  C_9 
REMARK    2  A    between atoms: O_2  and  C_10 
REMARK    3  A    between atoms: C_3  and  C_5 
REMARK    4  A    between atoms: C_4  and  C_8 
ROOT
HETATM    1  O   UNL     1     -53.531  41.417   6.164  1.00  0.00    -0.358 OA
HETATM    2  H   UNL     1     -54.058  41.874   5.538  1.00  0.00     0.217 HD
ENDROOT
BRANCH   1   3
HETATM    3  C   UNL     1     -52.811  42.115   7.087  1.00  0.00     0.099 A 
HETATM    4  C   UNL     1     -53.140  43.445   7.349  1.00  0.00     0.050 A 
HETATM    5  C   UNL     1     -52.405  44.152   8.287  1.00  0.00    -0.033 A 
HETATM    6  C   UNL     1     -51.351  43.567   8.969  1.00  0.00     0.014 A 
HETATM    7  C   UNL     1     -51.022  42.236   8.706  1.00  0.00     0.040 A 
HETATM    8  C   UNL     1     -51.752  41.512   7.765  1.00  0.00     0.098 A 
BRANCH   5   9
HETATM    9  C   UNL     1     -52.752  45.557   8.566  1.00  0.00     0.012 C 
HETATM   10  C   UNL     1     -53.988  46.005   8.890  1.00  0.00     0.012 C 
BRANCH  10  11
HETATM   11  C   UNL     1     -54.327  47.389   9.185  1.00  0.00    -0.036 A 
HETATM   12  C   UNL     1     -55.662  47.792   9.205  1.00  0.00     0.011 A 
HETATM   13  C   UNL     1     -55.987  49.118   9.489  1.00  0.00     0.001 A 
HETATM   14  C   UNL     1     -54.975  50.042   9.752  1.00  0.00     0.000 A 
HETATM   15  C   UNL     1     -53.640  49.640   9.732  1.00  0.00     0.001 A 
HETATM   16  C   UNL     1     -53.316  48.313   9.449  1.00  0.00     0.011 A 
ENDBRANCH  10  11
ENDBRANCH   5   9
BRANCH   8  17
HETATM   17  O   UNL     1     -51.420  40.214   7.515  1.00  0.00    -0.358 OA
HETATM   18  H   UNL     1     -51.731  39.792   6.738  1.00  0.00     0.217 HD
ENDBRANCH   8  17
ENDBRANCH   1   3
TORSDOF 4
ENDMDL
MODEL 7
REMARK VINA RESULT:      -7.0      0.657      1.324
REMARK  4 active torsions:
REMARK  status: ('A' for Active; 'I' for Inactive)
REMARK    1  A    between atoms: O_1  and  C_9 
REMARK    2  A    between atoms: O_2  and  C_10 
REMARK    3  A    between atoms: C_3  and  C_5 
REMARK    4  A    between atoms: C_4  and  C_8 
ROOT
HETATM    1  O   UNL     1     -55.294  47.841   8.291  1.00  0.00    -0.358 OA
HETATM    2  H   UNL     1     -56.219  47.915   8.423  1.00  0.00     0.217 HD
ENDROOT
BRANCH   1   3
HETATM    3  C   UNL     1     -54.569  46.959   9.035  1.00  0.00     0.099 A 
HETATM    4  C   UNL     1     -53.812  47.428  10.108  1.00  0.00     0.050 A 
HETATM    5  C   UNL     1     -53.075  46.529  10.861  1.00  0.00    -0.033 A 
HETATM    6  C   UNL     1     -53.075  45.174  10.572  1.00  0.00     0.014 A 
HETATM    7  C   UNL     1     -53.834  44.705   9.499  1.00  0.00     0.040 A 
HETATM    8  C   UNL     1     -54.580  45.598   8.731  1.00  0.00     0.098 A 
BRANCH   5   9
HETATM    9  C   UNL     1     -52.275  47.023  11.996  1.00  0.00     0.012 C 
HETATM   10  C   UNL     1     -52.484  46.705  13.296  1.00  0.00     0.012 C 
BRANCH  10  11
HETATM   11  C   UNL     1     -51.681  47.177  14.414  1.00  0.00    -0.036 A 
HETATM   12  C   UNL     1     -50.353  47.547  14.212  1.00  0.00     0.011 A 
HETATM   13  C   UNL     1     -49.583  48.000  15.284  1.00  0.00     0.001 A 
HETATM   14  C   UNL     1     -50.145  48.084  16.558  1.00  0.00     0.000 A 
HETATM   15  C   UNL     1     -51.475  47.714  16.760  1.00  0.00     0.001 A 
HETATM   16  C   UNL     1     -52.243  47.261  15.688  1.00  0.00     0.011 A 
ENDBRANCH  10  11
ENDBRANCH   5   9
BRANCH   8  17
HETATM   17  O   UNL     1     -55.315  45.128   7.684  1.00  0.00    -0.358 OA
HETATM   18  H   UNL     1     -55.538  45.699   6.975  1.00  0.00     0.217 HD
ENDBRANCH   8  17
ENDBRANCH   1   3
TORSDOF 4
ENDMDL
MODEL 8
REMARK VINA RESULT:      -6.9      5.457      7.150
REMARK  4 active torsions:
REMARK  status: ('A' for Active; 'I' for Inactive)
REMARK    1  A    between atoms: O_1  and  C_9 
REMARK    2  A    between atoms: O_2  and  C_10 
REMARK    3  A    between atoms: C_3  and  C_5 
REMARK    4  A    between atoms: C_4  and  C_8 
ROOT
HETATM    1  O   UNL     1     -51.833  39.942   8.726  1.00  0.00    -0.358 OA
HETATM    2  H   UNL     1     -52.633  39.458   8.663  1.00  0.00     0.217 HD
ENDROOT
BRANCH   1   3
HETATM    3  C   UNL     1     -51.648  41.055   7.962  1.00  0.00     0.099 A 
HETATM    4  C   UNL     1     -52.472  42.163   8.154  1.00  0.00     0.050 A 
HETATM    5  C   UNL     1     -52.282  43.293   7.375  1.00  0.00    -0.033 A 
HETATM    6  C   UNL     1     -51.290  43.344   6.409  1.00  0.00     0.014 A 
HETATM    7  C   UNL     1     -50.465  42.235   6.217  1.00  0.00     0.040 A 
HETATM    8  C   UNL     1     -50.645  41.091   6.994  1.00  0.00     0.098 A 
BRANCH   5   9
HETATM    9  C   UNL     1     -53.152  44.465   7.579  1.00  0.00     0.012 C 
HETATM   10  C   UNL     1     -53.500  44.978   8.782  1.00  0.00     0.012 C 
BRANCH  10  11
HETATM   11  C   UNL     1     -54.343  46.148   8.983  1.00  0.00    -0.036 A 
HETATM   12  C   UNL     1     -55.691  46.104   8.633  1.00  0.00     0.011 A 
HETATM   13  C   UNL     1     -56.500  47.224   8.825  1.00  0.00     0.001 A 
HETATM   14  C   UNL     1     -55.957  48.389   9.368  1.00  0.00     0.000 A 
HETATM   15  C   UNL     1     -54.607  48.434   9.718  1.00  0.00     0.001 A 
HETATM   16  C   UNL     1     -53.800  47.312   9.526  1.00  0.00     0.011 A 
ENDBRANCH  10  11
ENDBRANCH   5   9
BRANCH   8  17
HETATM   17  O   UNL     1     -49.835  40.014   6.795  1.00  0.00    -0.358 OA
HETATM   18  H   UNL     1     -48.903  40.118   6.816  1.00  0.00     0.217 HD
ENDBRANCH   8  17
ENDBRANCH   1   3
TORSDOF 4
ENDMDL
MODEL 9
REMARK VINA RESULT:      -6.9      5.814      8.587
REMARK  4 active torsions:
REMARK  status: ('A' for Active; 'I' for Inactive)
REMARK    1  A    between atoms: O_1  and  C_9 
REMARK    2  A    between atoms: O_2  and  C_10 
REMARK    3  A    between atoms: C_3  and  C_5 
REMARK    4  A    between atoms: C_4  and  C_8 
ROOT
HETATM    1  O   UNL     1     -54.686  44.507   5.831  1.00  0.00    -0.358 OA
HETATM    2  H   UNL     1     -55.414  45.095   5.892  1.00  0.00     0.217 HD
ENDROOT
BRANCH   1   3
HETATM    3  C   UNL     1     -54.051  44.090   6.962  1.00  0.00     0.099 A 
HETATM    4  C   UNL     1     -53.327  42.898   6.941  1.00  0.00     0.050 A 
HETATM    5  C   UNL     1     -52.682  42.477   8.094  1.00  0.00    -0.033 A 
HETATM    6  C   UNL     1     -52.742  43.214   9.264  1.00  0.00     0.014 A 
HETATM    7  C   UNL     1     -53.467  44.407   9.285  1.00  0.00     0.040 A 
HETATM    8  C   UNL     1     -54.121  44.844   8.133  1.00  0.00     0.098 A 
BRANCH   5   9
HETATM    9  C   UNL     1     -51.916  41.218   8.073  1.00  0.00     0.012 C 
HETATM   10  C   UNL     1     -50.695  41.058   7.510  1.00  0.00     0.012 C 
BRANCH  10  11
HETATM   11  C   UNL     1     -49.929  39.820   7.507  1.00  0.00    -0.036 A 
HETATM   12  C   UNL     1     -48.976  39.592   6.515  1.00  0.00     0.011 A 
HETATM   13  C   UNL     1     -48.242  38.405   6.513  1.00  0.00     0.001 A 
HETATM   14  C   UNL     1     -48.463  37.448   7.503  1.00  0.00     0.000 A 
HETATM   15  C   UNL     1     -49.416  37.676   8.495  1.00  0.00     0.001 A 
HETATM   16  C   UNL     1     -50.149  38.863   8.498  1.00  0.00     0.011 A 
ENDBRANCH  10  11
ENDBRANCH   5   9
BRANCH   8  17
HETATM   17  O   UNL     1     -54.827  46.009   8.166  1.00  0.00    -0.358 OA
HETATM   18  H   UNL     1     -55.342  46.265   7.426  1.00  0.00     0.217 HD
ENDBRANCH   8  17
ENDBRANCH   1   3
TORSDOF 4
ENDMDL
