MODEL 1
REMARK VINA RESULT:      -7.4      0.000      0.000
REMARK  4 active torsions:
REMARK  status: ('A' for Active; 'I' for Inactive)
REMARK    1  A    between atoms: O_1  and  C_9 
REMARK    2  A    between atoms: O_2  and  C_10 
REMARK    3  A    between atoms: C_3  and  C_5 
REMARK    4  A    between atoms: C_4  and  C_8 
ROOT
HETATM    1  O   UNL     1     -54.026  48.920   8.485  1.00  0.00    -0.358 OA
HETATM    2  H   UNL     1     -53.898  49.209   7.603  1.00  0.00     0.217 HD
ENDROOT
BRANCH   1   3
HETATM    3  C   UNL     1     -53.075  48.161   9.098  1.00  0.00     0.099 A 
HETATM    4  C   UNL     1     -53.240  47.805  10.436  1.00  0.00     0.050 A 
HETATM    5  C   UNL     1     -52.270  47.035  11.057  1.00  0.00    -0.033 A 
HETATM    6  C   UNL     1     -51.140  46.611  10.377  1.00  0.00     0.014 A 
HETATM    7  C   UNL     1     -50.976  46.967   9.037  1.00  0.00     0.040 A 
HETATM    8  C   UNL     1     -51.943  47.742   8.399  1.00  0.00     0.098 A 
BRANCH   5   9
HETATM    9  C   UNL     1     -52.444  46.657  12.471  1.00  0.00     0.012 C 
HETATM   10  C   UNL     1     -51.585  46.965  13.472  1.00  0.00     0.012 C 
BRANCH  10  11
HETATM   11  C   UNL     1     -51.767  46.609  14.871  1.00  0.00    -0.036 A 
HETATM   12  C   UNL     1     -52.574  47.395  15.692  1.00  0.00     0.011 A 
HETATM   13  C   UNL     1     -52.749  47.053  17.033  1.00  0.00     0.001 A 
HETATM   14  C   UNL     1     -52.114  45.925  17.552  1.00  0.00     0.000 A 
HETATM   15  C   UNL     1     -51.306  45.138  16.732  1.00  0.00     0.001 A 
HETATM   16  C   UNL     1     -51.133  45.480  15.390  1.00  0.00     0.011 A 
ENDBRANCH  10  11
ENDBRANCH   5   9
BRANCH   8  17
HETATM   17  O   UNL     1     -51.770  48.085   7.092  1.00  0.00    -0.358 OA
HETATM   18  H   UNL     1     -52.206  48.839   6.744  1.00  0.00     0.217 HD
ENDBRANCH   8  17
ENDBRANCH   1   3
TORSDOF 4
ENDMDL
MODEL 2
REMARK VINA RESULT:      -7.4      1.829      2.224
REMARK  4 active torsions:
REMARK  status: ('A' for Active; 'I' for Inactive)
REMARK    1  A    between atoms: O_1  and  C_9 
REMARK    2  A    between atoms: O_2  and  C_10 
REMARK    3  A    between atoms: C_3  and  C_5 
REMARK    4  A    between atoms: C_4  and  C_8 
ROOT
HETATM    1  O   UNL     1     -54.352  48.377   8.365  1.00  0.00    -0.358 OA
HETATM    2  H   UNL     1     -55.256  48.555   8.195  1.00  0.00     0.217 HD
ENDROOT
BRANCH   1   3
HETATM    3  C   UNL     1     -54.003  47.375   9.220  1.00  0.00     0.099 A 
HETATM    4  C   UNL     1     -53.256  47.674  10.359  1.00  0.00     0.050 A 
HETATM    5  C   UNL     1     -52.903  46.652  11.225  1.00  0.00    -0.033 A 
HETATM    6  C   UNL     1     -53.275  45.340  10.984  1.00  0.00     0.014 A 
HETATM    7  C   UNL     1     -54.023  45.041   9.844  1.00  0.00     0.040 A 
HETATM    8  C   UNL     1     -54.386  46.059   8.962  1.00  0.00     0.098 A 
BRANCH   5   9
HETATM    9  C   UNL     1     -52.115  46.968  12.430  1.00  0.00     0.012 C 
HETATM   10  C   UNL     1     -52.552  46.835  13.705  1.00  0.00     0.012 C 
BRANCH  10  11
HETATM   11  C   UNL     1     -51.767  47.128  14.895  1.00  0.00    -0.036 A 
HETATM   12  C   UNL     1     -50.624  47.920  14.799  1.00  0.00     0.011 A 
HETATM   13  C   UNL     1     -49.871  48.201  15.940  1.00  0.00     0.001 A 
HETATM   14  C   UNL     1     -50.264  47.689  17.176  1.00  0.00     0.000 A 
HETATM   15  C   UNL     1     -51.408  46.897  17.273  1.00  0.00     0.001 A 
HETATM   16  C   UNL     1     -52.160  46.617  16.132  1.00  0.00     0.011 A 
ENDBRANCH  10  11
ENDBRANCH   5   9
BRANCH   8  17
HETATM   17  O   UNL     1     -55.114  45.754   7.852  1.00  0.00    -0.358 OA
HETATM   18  H   UNL     1     -55.918  46.204   7.680  1.00  0.00     0.217 HD
ENDBRANCH   8  17
ENDBRANCH   1   3
TORSDOF 4
ENDMDL
MODEL 3
REMARK VINA RESULT:      -7.2      5.670      7.040
REMARK  4 active torsions:
REMARK  status: ('A' for Active; 'I' for Inactive)
REMARK    1  A    between atoms: O_1  and  C_9 
REMARK    2  A    between atoms: O_2  and  C_10 
REMARK    3  A    between atoms: C_3  and  C_5 
REMARK    4  A    between atoms: C_4  and  C_8 
ROOT
HETATM    1  O   UNL     1     -49.940  42.170   4.410  1.00  0.00    -0.358 OA
HETATM    2  H   UNL     1     -50.392  41.496   3.941  1.00  0.00     0.217 HD
ENDROOT
BRANCH   1   3
HETATM    3  C   UNL     1     -50.301  42.469   5.689  1.00  0.00     0.099 A 
HETATM    4  C   UNL     1     -51.331  43.382   5.915  1.00  0.00     0.050 A 
HETATM    5  C   UNL     1     -51.695  43.685   7.217  1.00  0.00    -0.033 A 
HETATM    6  C   UNL     1     -51.058  43.101   8.299  1.00  0.00     0.014 A 
HETATM    7  C   UNL     1     -50.027  42.187   8.073  1.00  0.00     0.040 A 
HETATM    8  C   UNL     1     -49.649  41.873   6.768  1.00  0.00     0.098 A 
BRANCH   5   9
HETATM    9  C   UNL     1     -52.784  44.649   7.456  1.00  0.00     0.012 C 
HETATM   10  C   UNL     1     -53.022  45.281   8.630  1.00  0.00     0.012 C 
BRANCH  10  11
HETATM   11  C   UNL     1     -54.085  46.248   8.861  1.00  0.00    -0.036 A 
HETATM   12  C   UNL     1     -53.777  47.530   9.312  1.00  0.00     0.011 A 
HETATM   13  C   UNL     1     -54.796  48.456   9.533  1.00  0.00     0.001 A 
HETATM   14  C   UNL     1     -56.124  48.099   9.301  1.00  0.00     0.000 A 
HETATM   15  C   UNL     1     -56.434  46.816   8.850  1.00  0.00     0.001 A 
HETATM   16  C   UNL     1     -55.414  45.890   8.629  1.00  0.00     0.011 A 
ENDBRANCH  10  11
ENDBRANCH   5   9
BRANCH   8  17
HETATM   17  O   UNL     1     -48.640  40.981   6.560  1.00  0.00    -0.358 OA
HETATM   18  H   UNL     1     -48.462  40.318   7.199  1.00  0.00     0.217 HD
ENDBRANCH   8  17
ENDBRANCH   1   3
TORSDOF 4
ENDMDL
MODEL 4
REMARK VINA RESULT:      -7.1      5.437      6.676
REMARK  4 active torsions:
REMARK  status: ('A' for Active; 'I' for Inactive)
REMARK    1  A    between atoms: O_1  and  C_9 
REMARK    2  A    between atoms: O_2  and  C_10 
REMARK    3  A    between atoms: C_3  and  C_5 
REMARK    4  A    between atoms: C_4  and  C_8 
ROOT
HETATM    1  O   UNL     1     -53.295  41.319   6.235  1.00  0.00    -0.358 OA
HETATM    2  H   UNL     1     -53.674  41.769   5.505  1.00  0.00     0.217 HD
ENDROOT
BRANCH   1   3
HETATM    3  C   UNL     1     -52.818  42.026   7.297  1.00  0.00     0.099 A 
HETATM    4  C   UNL     1     -53.104  43.387   7.399  1.00  0.00     0.050 A 
HETATM    5  C   UNL     1     -52.616  44.103   8.481  1.00  0.00    -0.033 A 
HETATM    6  C   UNL     1     -51.850  43.495   9.462  1.00  0.00     0.014 A 
HETATM    7  C   UNL     1     -51.564  42.133   9.360  1.00  0.00     0.040 A 
HETATM    8  C   UNL     1     -52.048  41.400   8.277  1.00  0.00     0.098 A 
BRANCH   5   9
HETATM    9  C   UNL     1     -52.918  45.541   8.590  1.00  0.00     0.012 C 
HETATM   10  C   UNL     1     -54.041  46.062   9.140  1.00  0.00     0.012 C 
BRANCH  10  11
HETATM   11  C   UNL     1     -54.330  47.483   9.266  1.00  0.00    -0.036 A 
HETATM   12  C   UNL     1     -55.649  47.932   9.224  1.00  0.00     0.011 A 
HETATM   13  C   UNL     1     -55.927  49.294   9.345  1.00  0.00     0.001 A 
HETATM   14  C   UNL     1     -54.884  50.206   9.508  1.00  0.00     0.000 A 
HETATM   15  C   UNL     1     -53.564  49.756   9.550  1.00  0.00     0.001 A 
HETATM   16  C   UNL     1     -53.287  48.395   9.429  1.00  0.00     0.011 A 
ENDBRANCH  10  11
ENDBRANCH   5   9
BRANCH   8  17
HETATM   17  O   UNL     1     -51.760  40.071   8.187  1.00  0.00    -0.358 OA
HETATM   18  H   UNL     1     -50.956  39.791   7.795  1.00  0.00     0.217 HD
ENDBRANCH   8  17
ENDBRANCH   1   3
TORSDOF 4
ENDMDL
MODEL 5
REMARK VINA RESULT:      -7.0      5.584      7.197
REMARK  4 active torsions:
REMARK  status: ('A' for Active; 'I' for Inactive)
REMARK    1  A    between atoms: O_1  and  C_9 
REMARK    2  A    between atoms: O_2  and  C_10 
REMARK    3  A    between atoms: C_3  and  C_5 
REMARK    4  A    between atoms: C_4  and  C_8 
ROOT
HETATM    1  O   UNL     1     -49.646  42.102   5.088  1.00  0.00    -0.358 OA
HETATM    2  H   UNL     1     -49.935  41.862   4.229  1.00  0.00     0.217 HD
ENDROOT
BRANCH   1   3
HETATM    3  C   UNL     1     -50.535  42.138   6.120  1.00  0.00     0.099 A 
HETATM    4  C   UNL     1     -51.319  43.276   6.310  1.00  0.00     0.050 A 
HETATM    5  C   UNL     1     -52.221  43.309   7.361  1.00  0.00    -0.033 A 
HETATM    6  C   UNL     1     -52.360  42.238   8.227  1.00  0.00     0.014 A 
HETATM    7  C   UNL     1     -51.575  41.099   8.037  1.00  0.00     0.040 A 
HETATM    8  C   UNL     1     -50.663  41.051   6.983  1.00  0.00     0.098 A 
BRANCH   5   9
HETATM    9  C   UNL     1     -53.051  44.511   7.562  1.00  0.00     0.012 C 
HETATM   10  C   UNL     1     -53.610  44.885   8.737  1.00  0.00     0.012 C 
BRANCH  10  11
HETATM   11  C   UNL     1     -54.413  46.082   8.939  1.00  0.00    -0.036 A 
HETATM   12  C   UNL     1     -55.776  46.065   8.646  1.00  0.00     0.011 A 
HETATM   13  C   UNL     1     -56.546  47.212   8.840  1.00  0.00     0.001 A 
HETATM   14  C   UNL     1     -55.951  48.375   9.329  1.00  0.00     0.000 A 
HETATM   15  C   UNL     1     -54.588  48.392   9.623  1.00  0.00     0.001 A 
HETATM   16  C   UNL     1     -53.819  47.245   9.429  1.00  0.00     0.011 A 
ENDBRANCH  10  11
ENDBRANCH   5   9
BRANCH   8  17
HETATM   17  O   UNL     1     -49.900  39.935   6.809  1.00  0.00    -0.358 OA
HETATM   18  H   UNL     1     -50.109  39.327   6.127  1.00  0.00     0.217 HD
ENDBRANCH   8  17
ENDBRANCH   1   3
TORSDOF 4
ENDMDL
MODEL 6
REMARK VINA RESULT:      -7.0      5.805      7.247
REMARK  4 active torsions:
REMARK  status: ('A' for Active; 'I' for Inactive)
REMARK    1  A    between atoms: O_1  and  C_9 
REMARK    2  A    between atoms: O_2  and  C_10 
REMARK    3  A    between atoms: C_3  and  C_5 
REMARK    4  A    between atoms: C_4  and  C_8 
ROOT
HETATM    1  O   UNL     1     -51.828  39.925   8.703  1.00  0.00    -0.358 OA
HETATM    2  H   UNL     1     -52.455  39.292   8.413  1.00  0.00     0.217 HD
ENDROOT
BRANCH   1   3
HETATM    3  C   UNL     1     -51.578  41.031   7.948  1.00  0.00     0.099 A 
HETATM    4  C   UNL     1     -52.327  42.188   8.159  1.00  0.00     0.050 A 
HETATM    5  C   UNL     1     -52.071  43.311   7.389  1.00  0.00    -0.033 A 
HETATM    6  C   UNL     1     -51.087  43.309   6.414  1.00  0.00     0.014 A 
HETATM    7  C   UNL     1     -50.337  42.151   6.204  1.00  0.00     0.040 A 
HETATM    8  C   UNL     1     -50.583  41.013   6.971  1.00  0.00     0.098 A 
BRANCH   5   9
HETATM    9  C   UNL     1     -52.861  44.535   7.612  1.00  0.00     0.012 C 
HETATM   10  C   UNL     1     -53.726  44.729   8.635  1.00  0.00     0.012 C 
BRANCH  10  11
HETATM   11  C   UNL     1     -54.492  45.945   8.867  1.00  0.00    -0.036 A 
HETATM   12  C   UNL     1     -55.858  45.972   8.591  1.00  0.00     0.011 A 
HETATM   13  C   UNL     1     -56.592  47.138   8.813  1.00  0.00     0.001 A 
HETATM   14  C   UNL     1     -55.958  48.276   9.311  1.00  0.00     0.000 A 
HETATM   15  C   UNL     1     -54.591  48.249   9.587  1.00  0.00     0.001 A 
HETATM   16  C   UNL     1     -53.857  47.083   9.365  1.00  0.00     0.011 A 
ENDBRANCH  10  11
ENDBRANCH   5   9
BRANCH   8  17
HETATM   17  O   UNL     1     -49.846  39.887   6.754  1.00  0.00    -0.358 OA
HETATM   18  H   UNL     1     -50.130  39.256   6.122  1.00  0.00     0.217 HD
ENDBRANCH   8  17
ENDBRANCH   1   3
TORSDOF 4
ENDMDL
MODEL 7
REMARK VINA RESULT:      -6.9      6.442      8.502
REMARK  4 active torsions:
REMARK  status: ('A' for Active; 'I' for Inactive)
REMARK    1  A    between atoms: O_1  and  C_9 
REMARK    2  A    between atoms: O_2  and  C_10 
REMARK    3  A    between atoms: C_3  and  C_5 
REMARK    4  A    between atoms: C_4  and  C_8 
ROOT
HETATM    1  O   UNL     1     -54.588  44.491   5.836  1.00  0.00    -0.358 OA
HETATM    2  H   UNL     1     -54.070  44.847   5.141  1.00  0.00     0.217 HD
ENDROOT
BRANCH   1   3
HETATM    3  C   UNL     1     -53.992  44.091   6.994  1.00  0.00     0.099 A 
HETATM    4  C   UNL     1     -53.240  42.917   7.008  1.00  0.00     0.050 A 
HETATM    5  C   UNL     1     -52.637  42.513   8.188  1.00  0.00    -0.033 A 
HETATM    6  C   UNL     1     -52.764  43.251   9.353  1.00  0.00     0.014 A 
HETATM    7  C   UNL     1     -53.516  44.427   9.339  1.00  0.00     0.040 A 
HETATM    8  C   UNL     1     -54.130  44.846   8.159  1.00  0.00     0.098 A 
BRANCH   5   9
HETATM    9  C   UNL     1     -51.841  41.273   8.204  1.00  0.00     0.012 C 
HETATM   10  C   UNL     1     -50.723  41.053   7.472  1.00  0.00     0.012 C 
BRANCH  10  11
HETATM   11  C   UNL     1     -49.926  39.836   7.502  1.00  0.00    -0.036 A 
HETATM   12  C   UNL     1     -48.933  39.628   6.547  1.00  0.00     0.011 A 
HETATM   13  C   UNL     1     -48.169  38.461   6.577  1.00  0.00     0.001 A 
HETATM   14  C   UNL     1     -48.400  37.503   7.563  1.00  0.00     0.000 A 
HETATM   15  C   UNL     1     -49.394  37.710   8.520  1.00  0.00     0.001 A 
HETATM   16  C   UNL     1     -50.157  38.877   8.490  1.00  0.00     0.011 A 
ENDBRANCH  10  11
ENDBRANCH   5   9
BRANCH   8  17
HETATM   17  O   UNL     1     -54.863  45.994   8.158  1.00  0.00    -0.358 OA
HETATM   18  H   UNL     1     -54.805  46.586   7.433  1.00  0.00     0.217 HD
ENDBRANCH   8  17
ENDBRANCH   1   3
TORSDOF 4
ENDMDL
MODEL 8
REMARK VINA RESULT:      -6.9      2.765      3.342
REMARK  4 active torsions:
REMARK  status: ('A' for Active; 'I' for Inactive)
REMARK    1  A    between atoms: O_1  and  C_9 
REMARK    2  A    between atoms: O_2  and  C_10 
REMARK    3  A    between atoms: C_3  and  C_5 
REMARK    4  A    between atoms: C_4  and  C_8 
ROOT
HETATM    1  O   UNL     1     -54.090  43.398  10.018  1.00  0.00    -0.358 OA
HETATM    2  H   UNL     1     -54.918  43.053  10.290  1.00  0.00     0.217 HD
ENDROOT
BRANCH   1   3
HETATM    3  C   UNL     1     -53.856  44.739  10.087  1.00  0.00     0.099 A 
HETATM    4  C   UNL     1     -52.862  45.218  10.940  1.00  0.00     0.050 A 
HETATM    5  C   UNL     1     -52.628  46.582  11.008  1.00  0.00    -0.033 A 
HETATM    6  C   UNL     1     -53.359  47.479  10.247  1.00  0.00     0.014 A 
HETATM    7  C   UNL     1     -54.353  46.999   9.394  1.00  0.00     0.040 A 
HETATM    8  C   UNL     1     -54.601  45.629   9.314  1.00  0.00     0.098 A 
BRANCH   5   9
HETATM    9  C   UNL     1     -51.577  47.089  11.909  1.00  0.00     0.012 C 
HETATM   10  C   UNL     1     -51.593  46.992  13.259  1.00  0.00     0.012 C 
BRANCH  10  11
HETATM   11  C   UNL     1     -50.546  47.476  14.147  1.00  0.00    -0.036 A 
HETATM   12  C   UNL     1     -50.882  48.160  15.314  1.00  0.00     0.011 A 
HETATM   13  C   UNL     1     -49.879  48.623  16.165  1.00  0.00     0.001 A 
HETATM   14  C   UNL     1     -48.539  48.400  15.848  1.00  0.00     0.000 A 
HETATM   15  C   UNL     1     -48.202  47.715  14.680  1.00  0.00     0.001 A 
HETATM   16  C   UNL     1     -49.206  47.252  13.830  1.00  0.00     0.011 A 
ENDBRANCH  10  11
ENDBRANCH   5   9
BRANCH   8  17
HETATM   17  O   UNL     1     -55.576  45.173   8.478  1.00  0.00    -0.358 OA
HETATM   18  H   UNL     1     -55.359  44.910   7.605  1.00  0.00     0.217 HD
ENDBRANCH   8  17
ENDBRANCH   1   3
TORSDOF 4
ENDMDL
MODEL 9
REMARK VINA RESULT:      -6.9      7.071      9.318
REMARK  4 active torsions:
REMARK  status: ('A' for Active; 'I' for Inactive)
REMARK    1  A    between atoms: O_1  and  C_9 
REMARK    2  A    between atoms: O_2  and  C_10 
REMARK    3  A    between atoms: C_3  and  C_5 
REMARK    4  A    between atoms: C_4  and  C_8 
ROOT
HETATM    1  O   UNL     1     -52.850  44.866   4.799  1.00  0.00    -0.358 OA
HETATM    2  H   UNL     1     -53.515  45.520   4.893  1.00  0.00     0.217 HD
ENDROOT
BRANCH   1   3
HETATM    3  C   UNL     1     -52.595  44.001   5.820  1.00  0.00     0.099 A 
HETATM    4  C   UNL     1     -51.500  43.142   5.735  1.00  0.00     0.050 A 
HETATM    5  C   UNL     1     -51.245  42.263   6.775  1.00  0.00    -0.033 A 
HETATM    6  C   UNL     1     -52.055  42.220   7.898  1.00  0.00     0.014 A 
HETATM    7  C   UNL     1     -53.151  43.080   7.984  1.00  0.00     0.040 A 
HETATM    8  C   UNL     1     -53.420  43.970   6.945  1.00  0.00     0.098 A 
BRANCH   5   9
HETATM    9  C   UNL     1     -50.087  41.355   6.686  1.00  0.00     0.012 C 
HETATM   10  C   UNL     1     -50.002  40.140   7.277  1.00  0.00     0.012 C 
BRANCH  10  11
HETATM   11  C   UNL     1     -48.866  39.236   7.173  1.00  0.00    -0.036 A 
HETATM   12  C   UNL     1     -48.157  38.872   8.316  1.00  0.00     0.011 A 
HETATM   13  C   UNL     1     -47.069  38.005   8.215  1.00  0.00     0.001 A 
HETATM   14  C   UNL     1     -46.692  37.501   6.970  1.00  0.00     0.000 A 
HETATM   15  C   UNL     1     -47.402  37.865   5.826  1.00  0.00     0.001 A 
HETATM   16  C   UNL     1     -48.490  38.732   5.927  1.00  0.00     0.011 A 
ENDBRANCH  10  11
ENDBRANCH   5   9
BRANCH   8  17
HETATM   17  O   UNL     1     -54.494  44.803   7.039  1.00  0.00    -0.358 OA
HETATM   18  H   UNL     1     -54.963  44.873   7.848  1.00  0.00     0.217 HD
ENDBRANCH   8  17
ENDBRANCH   1   3
TORSDOF 4
ENDMDL
