MODEL 1
REMARK VINA RESULT:      -7.4      0.000      0.000
REMARK  4 active torsions:
REMARK  status: ('A' for Active; 'I' for Inactive)
REMARK    1  A    between atoms: O_1  and  C_9 
REMARK    2  A    between atoms: O_2  and  C_10 
REMARK    3  A    between atoms: C_3  and  C_5 
REMARK    4  A    between atoms: C_4  and  C_8 
ROOT
HETATM    1  O   UNL     1     -54.047  48.898   8.477  1.00  0.00    -0.358 OA
HETATM    2  H   UNL     1     -53.799  49.630   7.946  1.00  0.00     0.217 HD
ENDROOT
BRANCH   1   3
HETATM    3  C   UNL     1     -53.090  48.152   9.096  1.00  0.00     0.099 A 
HETATM    4  C   UNL     1     -53.257  47.799  10.435  1.00  0.00     0.050 A 
HETATM    5  C   UNL     1     -52.281  47.041  11.062  1.00  0.00    -0.033 A 
HETATM    6  C   UNL     1     -51.145  46.626  10.388  1.00  0.00     0.014 A 
HETATM    7  C   UNL     1     -50.979  46.979   9.048  1.00  0.00     0.040 A 
HETATM    8  C   UNL     1     -51.952  47.742   8.403  1.00  0.00     0.098 A 
BRANCH   5   9
HETATM    9  C   UNL     1     -52.457  46.667  12.477  1.00  0.00     0.012 C 
HETATM   10  C   UNL     1     -51.592  46.964  13.476  1.00  0.00     0.012 C 
BRANCH  10  11
HETATM   11  C   UNL     1     -51.775  46.612  14.876  1.00  0.00    -0.036 A 
HETATM   12  C   UNL     1     -52.595  47.392  15.690  1.00  0.00     0.011 A 
HETATM   13  C   UNL     1     -52.770  47.054  17.032  1.00  0.00     0.001 A 
HETATM   14  C   UNL     1     -52.125  45.935  17.559  1.00  0.00     0.000 A 
HETATM   15  C   UNL     1     -51.304  45.155  16.744  1.00  0.00     0.001 A 
HETATM   16  C   UNL     1     -51.129  45.493  15.402  1.00  0.00     0.011 A 
ENDBRANCH  10  11
ENDBRANCH   5   9
BRANCH   8  17
HETATM   17  O   UNL     1     -51.777  48.082   7.096  1.00  0.00    -0.358 OA
HETATM   18  H   UNL     1     -50.921  48.052   6.714  1.00  0.00     0.217 HD
ENDBRANCH   8  17
ENDBRANCH   1   3
TORSDOF 4
ENDMDL
MODEL 2
REMARK VINA RESULT:      -7.4      1.831      2.232
REMARK  4 active torsions:
REMARK  status: ('A' for Active; 'I' for Inactive)
REMARK    1  A    between atoms: O_1  and  C_9 
REMARK    2  A    between atoms: O_2  and  C_10 
REMARK    3  A    between atoms: C_3  and  C_5 
REMARK    4  A    between atoms: C_4  and  C_8 
ROOT
HETATM    1  O   UNL     1     -54.393  48.404   8.383  1.00  0.00    -0.358 OA
HETATM    2  H   UNL     1     -54.046  48.433   7.512  1.00  0.00     0.217 HD
ENDROOT
BRANCH   1   3
HETATM    3  C   UNL     1     -54.044  47.388   9.221  1.00  0.00     0.099 A 
HETATM    4  C   UNL     1     -53.277  47.665  10.352  1.00  0.00     0.050 A 
HETATM    5  C   UNL     1     -52.923  46.629  11.201  1.00  0.00    -0.033 A 
HETATM    6  C   UNL     1     -53.314  45.325  10.951  1.00  0.00     0.014 A 
HETATM    7  C   UNL     1     -54.082  45.047   9.819  1.00  0.00     0.040 A 
HETATM    8  C   UNL     1     -54.446  46.080   8.954  1.00  0.00     0.098 A 
BRANCH   5   9
HETATM    9  C   UNL     1     -52.113  46.922  12.398  1.00  0.00     0.012 C 
HETATM   10  C   UNL     1     -52.554  46.844  13.676  1.00  0.00     0.012 C 
BRANCH  10  11
HETATM   11  C   UNL     1     -51.749  47.114  14.858  1.00  0.00    -0.036 A 
HETATM   12  C   UNL     1     -52.121  46.580  16.091  1.00  0.00     0.011 A 
HETATM   13  C   UNL     1     -51.349  46.838  17.224  1.00  0.00     0.001 A 
HETATM   14  C   UNL     1     -50.205  47.630  17.122  1.00  0.00     0.000 A 
HETATM   15  C   UNL     1     -49.833  48.164  15.888  1.00  0.00     0.001 A 
HETATM   16  C   UNL     1     -50.605  47.905  14.756  1.00  0.00     0.011 A 
ENDBRANCH  10  11
ENDBRANCH   5   9
BRANCH   8  17
HETATM   17  O   UNL     1     -55.194  45.796   7.851  1.00  0.00    -0.358 OA
HETATM   18  H   UNL     1     -54.796  45.384   7.109  1.00  0.00     0.217 HD
ENDBRANCH   8  17
ENDBRANCH   1   3
TORSDOF 4
ENDMDL
MODEL 3
REMARK VINA RESULT:      -7.2      5.648      7.107
REMARK  4 active torsions:
REMARK  status: ('A' for Active; 'I' for Inactive)
REMARK    1  A    between atoms: O_1  and  C_9 
REMARK    2  A    between atoms: O_2  and  C_10 
REMARK    3  A    between atoms: C_3  and  C_5 
REMARK    4  A    between atoms: C_4  and  C_8 
ROOT
HETATM    1  O   UNL     1     -49.935  42.208   4.308  1.00  0.00    -0.358 OA
HETATM    2  H   UNL     1     -49.108  42.547   4.025  1.00  0.00     0.217 HD
ENDROOT
BRANCH   1   3
HETATM    3  C   UNL     1     -50.360  42.429   5.584  1.00  0.00     0.099 A 
HETATM    4  C   UNL     1     -51.333  43.399   5.824  1.00  0.00     0.050 A 
HETATM    5  C   UNL     1     -51.763  43.621   7.122  1.00  0.00    -0.033 A 
HETATM    6  C   UNL     1     -51.246  42.901   8.187  1.00  0.00     0.014 A 
HETATM    7  C   UNL     1     -50.272  41.931   7.946  1.00  0.00     0.040 A 
HETATM    8  C   UNL     1     -49.830  41.696   6.645  1.00  0.00     0.098 A 
BRANCH   5   9
HETATM    9  C   UNL     1     -52.792  44.645   7.376  1.00  0.00     0.012 C 
HETATM   10  C   UNL     1     -53.120  45.136   8.595  1.00  0.00     0.012 C 
BRANCH  10  11
HETATM   11  C   UNL     1     -54.122  46.161   8.844  1.00  0.00    -0.036 A 
HETATM   12  C   UNL     1     -55.469  45.894   8.601  1.00  0.00     0.011 A 
HETATM   13  C   UNL     1     -56.430  46.877   8.840  1.00  0.00     0.001 A 
HETATM   14  C   UNL     1     -56.042  48.126   9.322  1.00  0.00     0.000 A 
HETATM   15  C   UNL     1     -54.695  48.394   9.567  1.00  0.00     0.001 A 
HETATM   16  C   UNL     1     -53.735  47.411   9.328  1.00  0.00     0.011 A 
ENDBRANCH  10  11
ENDBRANCH   5   9
BRANCH   8  17
HETATM   17  O   UNL     1     -48.877  40.747   6.424  1.00  0.00    -0.358 OA
HETATM   18  H   UNL     1     -48.403  40.382   7.145  1.00  0.00     0.217 HD
ENDBRANCH   8  17
ENDBRANCH   1   3
TORSDOF 4
ENDMDL
MODEL 4
REMARK VINA RESULT:      -7.2      5.682      7.070
REMARK  4 active torsions:
REMARK  status: ('A' for Active; 'I' for Inactive)
REMARK    1  A    between atoms: O_1  and  C_9 
REMARK    2  A    between atoms: O_2  and  C_10 
REMARK    3  A    between atoms: C_3  and  C_5 
REMARK    4  A    between atoms: C_4  and  C_8 
ROOT
HETATM    1  O   UNL     1     -49.936  42.202   4.413  1.00  0.00    -0.358 OA
HETATM    2  H   UNL     1     -49.109  41.791   4.253  1.00  0.00     0.217 HD
ENDROOT
BRANCH   1   3
HETATM    3  C   UNL     1     -50.346  42.431   5.692  1.00  0.00     0.099 A 
HETATM    4  C   UNL     1     -51.376  43.342   5.929  1.00  0.00     0.050 A 
HETATM    5  C   UNL     1     -51.789  43.573   7.231  1.00  0.00    -0.033 A 
HETATM    6  C   UNL     1     -51.202  42.920   8.302  1.00  0.00     0.014 A 
HETATM    7  C   UNL     1     -50.172  42.009   8.065  1.00  0.00     0.040 A 
HETATM    8  C   UNL     1     -49.745  41.765   6.760  1.00  0.00     0.098 A 
BRANCH   5   9
HETATM    9  C   UNL     1     -52.878  44.535   7.483  1.00  0.00     0.012 C 
HETATM   10  C   UNL     1     -53.007  45.293   8.597  1.00  0.00     0.012 C 
BRANCH  10  11
HETATM   11  C   UNL     1     -54.071  46.256   8.837  1.00  0.00    -0.036 A 
HETATM   12  C   UNL     1     -53.762  47.542   9.278  1.00  0.00     0.011 A 
HETATM   13  C   UNL     1     -54.782  48.465   9.507  1.00  0.00     0.001 A 
HETATM   14  C   UNL     1     -56.111  48.102   9.295  1.00  0.00     0.000 A 
HETATM   15  C   UNL     1     -56.421  46.815   8.852  1.00  0.00     0.001 A 
HETATM   16  C   UNL     1     -55.401  45.892   8.623  1.00  0.00     0.011 A 
ENDBRANCH  10  11
ENDBRANCH   5   9
BRANCH   8  17
HETATM   17  O   UNL     1     -48.737  40.875   6.541  1.00  0.00    -0.358 OA
HETATM   18  H   UNL     1     -48.499  40.642   5.664  1.00  0.00     0.217 HD
ENDBRANCH   8  17
ENDBRANCH   1   3
TORSDOF 4
ENDMDL
MODEL 5
REMARK VINA RESULT:      -7.1      2.383      2.919
REMARK  4 active torsions:
REMARK  status: ('A' for Active; 'I' for Inactive)
REMARK    1  A    between atoms: O_1  and  C_9 
REMARK    2  A    between atoms: O_2  and  C_10 
REMARK    3  A    between atoms: C_3  and  C_5 
REMARK    4  A    between atoms: C_4  and  C_8 
ROOT
HETATM    1  O   UNL     1     -54.929  47.894   8.425  1.00  0.00    -0.358 OA
HETATM    2  H   UNL     1     -55.803  48.184   8.601  1.00  0.00     0.217 HD
ENDROOT
BRANCH   1   3
HETATM    3  C   UNL     1     -54.325  47.004   9.262  1.00  0.00     0.099 A 
HETATM    4  C   UNL     1     -53.297  47.439  10.098  1.00  0.00     0.050 A 
HETATM    5  C   UNL     1     -52.685  46.531  10.947  1.00  0.00    -0.033 A 
HETATM    6  C   UNL     1     -53.072  45.201  10.982  1.00  0.00     0.014 A 
HETATM    7  C   UNL     1     -54.101  44.767  10.146  1.00  0.00     0.040 A 
HETATM    8  C   UNL     1     -54.727  45.669   9.286  1.00  0.00     0.098 A 
BRANCH   5   9
HETATM    9  C   UNL     1     -51.599  46.989  11.832  1.00  0.00     0.012 C 
HETATM   10  C   UNL     1     -51.636  46.973  13.185  1.00  0.00     0.012 C 
BRANCH  10  11
HETATM   11  C   UNL     1     -50.556  47.407  14.059  1.00  0.00    -0.036 A 
HETATM   12  C   UNL     1     -50.843  48.128  15.216  1.00  0.00     0.011 A 
HETATM   13  C   UNL     1     -49.807  48.544  16.054  1.00  0.00     0.001 A 
HETATM   14  C   UNL     1     -48.486  48.237  15.732  1.00  0.00     0.000 A 
HETATM   15  C   UNL     1     -48.198  47.515  14.574  1.00  0.00     0.001 A 
HETATM   16  C   UNL     1     -49.234  47.099  13.737  1.00  0.00     0.011 A 
ENDBRANCH  10  11
ENDBRANCH   5   9
BRANCH   8  17
HETATM   17  O   UNL     1     -55.729  45.232   8.472  1.00  0.00    -0.358 OA
HETATM   18  H   UNL     1     -56.339  44.591   8.783  1.00  0.00     0.217 HD
ENDBRANCH   8  17
ENDBRANCH   1   3
TORSDOF 4
ENDMDL
MODEL 6
REMARK VINA RESULT:      -7.0      5.409      6.621
REMARK  4 active torsions:
REMARK  status: ('A' for Active; 'I' for Inactive)
REMARK    1  A    between atoms: O_1  and  C_9 
REMARK    2  A    between atoms: O_2  and  C_10 
REMARK    3  A    between atoms: C_3  and  C_5 
REMARK    4  A    between atoms: C_4  and  C_8 
ROOT
HETATM    1  O   UNL     1     -53.393  41.383   6.298  1.00  0.00    -0.358 OA
HETATM    2  H   UNL     1     -53.272  40.456   6.229  1.00  0.00     0.217 HD
ENDROOT
BRANCH   1   3
HETATM    3  C   UNL     1     -52.772  42.080   7.290  1.00  0.00     0.099 A 
HETATM    4  C   UNL     1     -53.086  43.425   7.483  1.00  0.00     0.050 A 
HETATM    5  C   UNL     1     -52.451  44.131   8.492  1.00  0.00    -0.033 A 
HETATM    6  C   UNL     1     -51.512  43.529   9.313  1.00  0.00     0.014 A 
HETATM    7  C   UNL     1     -51.198  42.183   9.120  1.00  0.00     0.040 A 
HETATM    8  C   UNL     1     -51.829  41.459   8.108  1.00  0.00     0.098 A 
BRANCH   5   9
HETATM    9  C   UNL     1     -52.783  45.552   8.697  1.00  0.00     0.012 C 
HETATM   10  C   UNL     1     -54.014  46.031   8.994  1.00  0.00     0.012 C 
BRANCH  10  11
HETATM   11  C   UNL     1     -54.338  47.432   9.216  1.00  0.00    -0.036 A 
HETATM   12  C   UNL     1     -55.661  47.864   9.136  1.00  0.00     0.011 A 
HETATM   13  C   UNL     1     -55.971  49.207   9.349  1.00  0.00     0.001 A 
HETATM   14  C   UNL     1     -54.956  50.118   9.643  1.00  0.00     0.000 A 
HETATM   15  C   UNL     1     -53.632  49.686   9.725  1.00  0.00     0.001 A 
HETATM   16  C   UNL     1     -53.323  48.343   9.512  1.00  0.00     0.011 A 
ENDBRANCH  10  11
ENDBRANCH   5   9
BRANCH   8  17
HETATM   17  O   UNL     1     -51.512  40.146   7.928  1.00  0.00    -0.358 OA
HETATM   18  H   UNL     1     -52.103  39.478   8.218  1.00  0.00     0.217 HD
ENDBRANCH   8  17
ENDBRANCH   1   3
TORSDOF 4
ENDMDL
MODEL 7
REMARK VINA RESULT:      -6.9      6.488      8.540
REMARK  4 active torsions:
REMARK  status: ('A' for Active; 'I' for Inactive)
REMARK    1  A    between atoms: O_1  and  C_9 
REMARK    2  A    between atoms: O_2  and  C_10 
REMARK    3  A    between atoms: C_3  and  C_5 
REMARK    4  A    between atoms: C_4  and  C_8 
ROOT
HETATM    1  O   UNL     1     -54.701  44.495   5.861  1.00  0.00    -0.358 OA
HETATM    2  H   UNL     1     -54.632  45.387   5.582  1.00  0.00     0.217 HD
ENDROOT
BRANCH   1   3
HETATM    3  C   UNL     1     -54.052  44.082   6.986  1.00  0.00     0.099 A 
HETATM    4  C   UNL     1     -53.328  42.890   6.960  1.00  0.00     0.050 A 
HETATM    5  C   UNL     1     -52.670  42.472   8.105  1.00  0.00    -0.033 A 
HETATM    6  C   UNL     1     -52.715  43.213   9.275  1.00  0.00     0.014 A 
HETATM    7  C   UNL     1     -53.439  44.406   9.300  1.00  0.00     0.040 A 
HETATM    8  C   UNL     1     -54.107  44.839   8.155  1.00  0.00     0.098 A 
BRANCH   5   9
HETATM    9  C   UNL     1     -51.904  41.213   8.079  1.00  0.00     0.012 C 
HETATM   10  C   UNL     1     -50.682  41.055   7.517  1.00  0.00     0.012 C 
BRANCH  10  11
HETATM   11  C   UNL     1     -49.918  39.816   7.508  1.00  0.00    -0.036 A 
HETATM   12  C   UNL     1     -48.988  39.578   6.498  1.00  0.00     0.011 A 
HETATM   13  C   UNL     1     -48.254  38.391   6.490  1.00  0.00     0.001 A 
HETATM   14  C   UNL     1     -48.453  37.443   7.493  1.00  0.00     0.000 A 
HETATM   15  C   UNL     1     -49.383  37.682   8.505  1.00  0.00     0.001 A 
HETATM   16  C   UNL     1     -50.116  38.869   8.513  1.00  0.00     0.011 A 
ENDBRANCH  10  11
ENDBRANCH   5   9
BRANCH   8  17
HETATM   17  O   UNL     1     -54.812  46.004   8.193  1.00  0.00    -0.358 OA
HETATM   18  H   UNL     1     -54.774  46.599   7.469  1.00  0.00     0.217 HD
ENDBRANCH   8  17
ENDBRANCH   1   3
TORSDOF 4
ENDMDL
MODEL 8
REMARK VINA RESULT:      -6.9      2.761      3.336
REMARK  4 active torsions:
REMARK  status: ('A' for Active; 'I' for Inactive)
REMARK    1  A    between atoms: O_1  and  C_9 
REMARK    2  A    between atoms: O_2  and  C_10 
REMARK    3  A    between atoms: C_3  and  C_5 
REMARK    4  A    between atoms: C_4  and  C_8 
ROOT
HETATM    1  O   UNL     1     -54.156  43.409  10.100  1.00  0.00    -0.358 OA
HETATM    2  H   UNL     1     -54.655  43.007  10.784  1.00  0.00     0.217 HD
ENDROOT
BRANCH   1   3
HETATM    3  C   UNL     1     -53.907  44.748  10.136  1.00  0.00     0.099 A 
HETATM    4  C   UNL     1     -52.920  45.238  10.990  1.00  0.00     0.050 A 
HETATM    5  C   UNL     1     -52.670  46.601  11.024  1.00  0.00    -0.033 A 
HETATM    6  C   UNL     1     -53.379  47.485  10.229  1.00  0.00     0.014 A 
HETATM    7  C   UNL     1     -54.367  46.994   9.374  1.00  0.00     0.040 A 
HETATM    8  C   UNL     1     -54.630  45.625   9.328  1.00  0.00     0.098 A 
BRANCH   5   9
HETATM    9  C   UNL     1     -51.626  47.120  11.926  1.00  0.00     0.012 C 
HETATM   10  C   UNL     1     -51.604  46.957  13.270  1.00  0.00     0.012 C 
BRANCH  10  11
HETATM   11  C   UNL     1     -50.563  47.453  14.158  1.00  0.00    -0.036 A 
HETATM   12  C   UNL     1     -50.906  48.167  15.305  1.00  0.00     0.011 A 
HETATM   13  C   UNL     1     -49.909  48.642  16.156  1.00  0.00     0.001 A 
HETATM   14  C   UNL     1     -48.567  48.401  15.859  1.00  0.00     0.000 A 
HETATM   15  C   UNL     1     -48.223  47.686  14.712  1.00  0.00     0.001 A 
HETATM   16  C   UNL     1     -49.222  47.211  13.862  1.00  0.00     0.011 A 
ENDBRANCH  10  11
ENDBRANCH   5   9
BRANCH   8  17
HETATM   17  O   UNL     1     -55.598  45.158   8.491  1.00  0.00    -0.358 OA
HETATM   18  H   UNL     1     -56.457  45.531   8.514  1.00  0.00     0.217 HD
ENDBRANCH   8  17
ENDBRANCH   1   3
TORSDOF 4
ENDMDL
MODEL 9
REMARK VINA RESULT:      -6.8      7.866      8.746
REMARK  4 active torsions:
REMARK  status: ('A' for Active; 'I' for Inactive)
REMARK    1  A    between atoms: O_1  and  C_9 
REMARK    2  A    between atoms: O_2  and  C_10 
REMARK    3  A    between atoms: C_3  and  C_5 
REMARK    4  A    between atoms: C_4  and  C_8 
ROOT
HETATM    1  O   UNL     1     -55.523  42.668   6.271  1.00  0.00    -0.358 OA
HETATM    2  H   UNL     1     -56.034  43.242   6.807  1.00  0.00     0.217 HD
ENDROOT
BRANCH   1   3
HETATM    3  C   UNL     1     -54.181  42.869   6.144  1.00  0.00     0.099 A 
HETATM    4  C   UNL     1     -53.295  42.006   6.788  1.00  0.00     0.050 A 
HETATM    5  C   UNL     1     -51.931  42.215   6.658  1.00  0.00    -0.033 A 
HETATM    6  C   UNL     1     -51.430  43.262   5.903  1.00  0.00     0.014 A 
HETATM    7  C   UNL     1     -52.317  44.126   5.259  1.00  0.00     0.040 A 
HETATM    8  C   UNL     1     -53.692  43.929   5.380  1.00  0.00     0.098 A 
BRANCH   5   9
HETATM    9  C   UNL     1     -50.994  41.302   7.337  1.00  0.00     0.012 C 
HETATM   10  C   UNL     1     -49.823  40.860   6.819  1.00  0.00     0.012 C 
BRANCH  10  11
HETATM   11  C   UNL     1     -48.888  39.975   7.498  1.00  0.00    -0.036 A 
HETATM   12  C   UNL     1     -48.522  40.227   8.819  1.00  0.00     0.011 A 
HETATM   13  C   UNL     1     -47.626  39.378   9.469  1.00  0.00     0.001 A 
HETATM   14  C   UNL     1     -47.097  38.277   8.796  1.00  0.00     0.000 A 
HETATM   15  C   UNL     1     -47.463  38.024   7.474  1.00  0.00     0.001 A 
HETATM   16  C   UNL     1     -48.360  38.873   6.825  1.00  0.00     0.011 A 
ENDBRANCH  10  11
ENDBRANCH   5   9
BRANCH   8  17
HETATM   17  O   UNL     1     -54.548  44.780   4.748  1.00  0.00    -0.358 OA
HETATM   18  H   UNL     1     -54.302  45.673   4.609  1.00  0.00     0.217 HD
ENDBRANCH   8  17
ENDBRANCH   1   3
TORSDOF 4
ENDMDL
