MODEL 1
REMARK VINA RESULT:      -6.8      0.000      0.000
REMARK  8 active torsions:
REMARK  status: ('A' for Active; 'I' for Inactive)
REMARK    1  A    between atoms: O_1  and  C_2 
REMARK    2  A    between atoms: C_2  and  C_3 
REMARK    3  A    between atoms: C_2  and  C_8 
REMARK    4  A    between atoms: C_3  and  C_4 
REMARK    5  A    between atoms: C_4  and  C_5 
REMARK    6  A    between atoms: C_8  and  C_9 
REMARK    7  A    between atoms: C_11  and  O_16 
REMARK    8  A    between atoms: C_12  and  O_15 
ROOT
HETATM    1  O   UNL     1      32.073  76.335  23.612  1.00  0.00    -0.395 OA
HETATM    2  H   UNL     1      33.001  76.483  23.853  1.00  0.00     0.210 HD
ENDROOT
BRANCH   1   3
HETATM    3  C   UNL     1      31.892  76.615  22.224  1.00  0.00     0.122 C 
BRANCH   3   4
HETATM    4  C   UNL     1      30.917  77.792  22.055  1.00  0.00     0.042 C 
BRANCH   4   5
HETATM    5  C   UNL     1      31.567  79.035  21.444  1.00  0.00     0.116 C 
BRANCH   5   6
HETATM    6  C   UNL     1      32.177  80.006  22.422  1.00  0.00     0.172 C 
HETATM    7  O   UNL     1      31.891  81.189  22.513  1.00  0.00    -0.648 OA
HETATM    8  O   UNL     1      33.033  79.452  23.302  1.00  0.00    -0.648 OA
ENDBRANCH   5   6
ENDBRANCH   4   5
ENDBRANCH   3   4
BRANCH   3   9
HETATM    9  C   UNL     1      31.362  75.363  21.504  1.00  0.00     0.070 C 
BRANCH   9  10
HETATM   10  C   UNL     1      32.260  74.159  21.686  1.00  0.00    -0.053 A 
HETATM   11  C   UNL     1      31.861  73.093  22.507  1.00  0.00     0.046 A 
HETATM   12  C   UNL     1      32.705  72.005  22.677  1.00  0.00     0.099 A 
HETATM   13  C   UNL     1      33.929  71.945  22.020  1.00  0.00     0.098 A 
HETATM   14  C   UNL     1      34.349  72.997  21.220  1.00  0.00     0.040 A 
HETATM   15  C   UNL     1      33.515  74.107  21.055  1.00  0.00     0.010 A 
BRANCH  12  16
HETATM   16  O   UNL     1      32.333  71.003  23.528  1.00  0.00    -0.358 OA
HETATM   17  H   UNL     1      32.698  70.146  23.430  1.00  0.00     0.217 HD
ENDBRANCH  12  16
BRANCH  13  18
HETATM   18  O   UNL     1      34.722  70.839  22.128  1.00  0.00    -0.358 OA
HETATM   19  H   UNL     1      35.556  70.900  22.550  1.00  0.00     0.217 HD
ENDBRANCH  13  18
ENDBRANCH   9  10
ENDBRANCH   3   9
ENDBRANCH   1   3
TORSDOF 8
ENDMDL
MODEL 2
REMARK VINA RESULT:      -6.6      1.341      6.563
REMARK  8 active torsions:
REMARK  status: ('A' for Active; 'I' for Inactive)
REMARK    1  A    between atoms: O_1  and  C_2 
REMARK    2  A    between atoms: C_2  and  C_3 
REMARK    3  A    between atoms: C_2  and  C_8 
REMARK    4  A    between atoms: C_3  and  C_4 
REMARK    5  A    between atoms: C_4  and  C_5 
REMARK    6  A    between atoms: C_8  and  C_9 
REMARK    7  A    between atoms: C_11  and  O_16 
REMARK    8  A    between atoms: C_12  and  O_15 
ROOT
HETATM    1  O   UNL     1      30.561  75.011  24.057  1.00  0.00    -0.395 OA
HETATM    2  H   UNL     1      31.262  74.631  24.609  1.00  0.00     0.210 HD
ENDROOT
BRANCH   1   3
HETATM    3  C   UNL     1      30.683  74.514  22.725  1.00  0.00     0.122 C 
BRANCH   3   4
HETATM    4  C   UNL     1      30.742  72.978  22.747  1.00  0.00     0.042 C 
BRANCH   4   5
HETATM    5  C   UNL     1      31.974  72.408  22.039  1.00  0.00     0.116 C 
BRANCH   5   6
HETATM    6  C   UNL     1      32.948  71.662  22.914  1.00  0.00     0.172 C 
HETATM    7  O   UNL     1      32.826  70.502  23.274  1.00  0.00    -0.648 OA
HETATM    8  O   UNL     1      34.067  72.346  23.219  1.00  0.00    -0.648 OA
ENDBRANCH   5   6
ENDBRANCH   4   5
ENDBRANCH   3   4
BRANCH   3   9
HETATM    9  C   UNL     1      31.945  75.097  22.064  1.00  0.00     0.070 C 
BRANCH   9  10
HETATM   10  C   UNL     1      31.890  76.602  21.922  1.00  0.00    -0.053 A 
HETATM   11  C   UNL     1      32.679  77.422  22.743  1.00  0.00     0.046 A 
HETATM   12  C   UNL     1      32.603  78.802  22.611  1.00  0.00     0.099 A 
HETATM   13  C   UNL     1      31.774  79.380  21.655  1.00  0.00     0.098 A 
HETATM   14  C   UNL     1      30.972  78.586  20.849  1.00  0.00     0.040 A 
HETATM   15  C   UNL     1      31.028  77.196  20.984  1.00  0.00     0.010 A 
BRANCH  12  16
HETATM   16  O   UNL     1      33.328  79.590  23.458  1.00  0.00    -0.358 OA
HETATM   17  H   UNL     1      33.672  80.408  23.157  1.00  0.00     0.217 HD
ENDBRANCH  12  16
BRANCH  13  18
HETATM   18  O   UNL     1      31.760  80.733  21.477  1.00  0.00    -0.358 OA
HETATM   19  H   UNL     1      31.772  81.303  22.220  1.00  0.00     0.217 HD
ENDBRANCH  13  18
ENDBRANCH   9  10
ENDBRANCH   3   9
ENDBRANCH   1   3
TORSDOF 8
ENDMDL
MODEL 3
REMARK VINA RESULT:      -6.6      3.411      5.198
REMARK  8 active torsions:
REMARK  status: ('A' for Active; 'I' for Inactive)
REMARK    1  A    between atoms: O_1  and  C_2 
REMARK    2  A    between atoms: C_2  and  C_3 
REMARK    3  A    between atoms: C_2  and  C_8 
REMARK    4  A    between atoms: C_3  and  C_4 
REMARK    5  A    between atoms: C_4  and  C_5 
REMARK    6  A    between atoms: C_8  and  C_9 
REMARK    7  A    between atoms: C_11  and  O_16 
REMARK    8  A    between atoms: C_12  and  O_15 
ROOT
HETATM    1  O   UNL     1      32.795  76.877  22.965  1.00  0.00    -0.395 OA
HETATM    2  H   UNL     1      33.545  77.485  23.056  1.00  0.00     0.210 HD
ENDROOT
BRANCH   1   3
HETATM    3  C   UNL     1      32.002  77.263  21.843  1.00  0.00     0.122 C 
BRANCH   3   4
HETATM    4  C   UNL     1      30.627  77.756  22.323  1.00  0.00     0.042 C 
BRANCH   4   5
HETATM    5  C   UNL     1      30.520  79.281  22.392  1.00  0.00     0.116 C 
BRANCH   5   6
HETATM    6  C   UNL     1      31.821  80.036  22.300  1.00  0.00     0.172 C 
HETATM    7  O   UNL     1      32.174  80.720  21.353  1.00  0.00    -0.648 OA
HETATM    8  O   UNL     1      32.575  79.993  23.415  1.00  0.00    -0.648 OA
ENDBRANCH   5   6
ENDBRANCH   4   5
ENDBRANCH   3   4
BRANCH   3   9
HETATM    9  C   UNL     1      31.846  76.073  20.879  1.00  0.00     0.070 C 
BRANCH   9  10
HETATM   10  C   UNL     1      31.827  76.495  19.427  1.00  0.00    -0.053 A 
HETATM   11  C   UNL     1      32.412  77.708  19.031  1.00  0.00     0.046 A 
HETATM   12  C   UNL     1      32.370  78.088  17.697  1.00  0.00     0.099 A 
HETATM   13  C   UNL     1      31.780  77.266  16.742  1.00  0.00     0.098 A 
HETATM   14  C   UNL     1      31.180  76.073  17.117  1.00  0.00     0.040 A 
HETATM   15  C   UNL     1      31.201  75.688  18.460  1.00  0.00     0.010 A 
BRANCH  12  16
HETATM   16  O   UNL     1      32.886  79.299  17.335  1.00  0.00    -0.358 OA
HETATM   17  H   UNL     1      33.771  79.359  17.033  1.00  0.00     0.217 HD
ENDBRANCH  12  16
BRANCH  13  18
HETATM   18  O   UNL     1      31.809  77.606  15.421  1.00  0.00    -0.358 OA
HETATM   19  H   UNL     1      32.630  77.737  14.989  1.00  0.00     0.217 HD
ENDBRANCH  13  18
ENDBRANCH   9  10
ENDBRANCH   3   9
ENDBRANCH   1   3
TORSDOF 8
ENDMDL
MODEL 4
REMARK VINA RESULT:      -6.6      1.332      1.580
REMARK  8 active torsions:
REMARK  status: ('A' for Active; 'I' for Inactive)
REMARK    1  A    between atoms: O_1  and  C_2 
REMARK    2  A    between atoms: C_2  and  C_3 
REMARK    3  A    between atoms: C_2  and  C_8 
REMARK    4  A    between atoms: C_3  and  C_4 
REMARK    5  A    between atoms: C_4  and  C_5 
REMARK    6  A    between atoms: C_8  and  C_9 
REMARK    7  A    between atoms: C_11  and  O_16 
REMARK    8  A    between atoms: C_12  and  O_15 
ROOT
HETATM    1  O   UNL     1      31.769  76.007  23.792  1.00  0.00    -0.395 OA
HETATM    2  H   UNL     1      31.953  75.115  24.124  1.00  0.00     0.210 HD
ENDROOT
BRANCH   1   3
HETATM    3  C   UNL     1      32.527  76.239  22.605  1.00  0.00     0.122 C 
BRANCH   3   4
HETATM    4  C   UNL     1      32.399  77.712  22.186  1.00  0.00     0.042 C 
BRANCH   4   5
HETATM    5  C   UNL     1      30.993  78.087  21.710  1.00  0.00     0.116 C 
BRANCH   5   6
HETATM    6  C   UNL     1      30.369  79.283  22.383  1.00  0.00     0.172 C 
HETATM    7  O   UNL     1      29.170  79.486  22.489  1.00  0.00    -0.648 OA
HETATM    8  O   UNL     1      31.246  80.115  22.976  1.00  0.00    -0.648 OA
ENDBRANCH   5   6
ENDBRANCH   4   5
ENDBRANCH   3   4
BRANCH   3   9
HETATM    9  C   UNL     1      32.036  75.309  21.482  1.00  0.00     0.070 C 
BRANCH   9  10
HETATM   10  C   UNL     1      32.972  74.148  21.231  1.00  0.00    -0.053 A 
HETATM   11  C   UNL     1      33.136  73.145  22.198  1.00  0.00     0.046 A 
HETATM   12  C   UNL     1      34.012  72.096  21.959  1.00  0.00     0.099 A 
HETATM   13  C   UNL     1      34.710  72.013  20.758  1.00  0.00     0.098 A 
HETATM   14  C   UNL     1      34.577  73.005  19.798  1.00  0.00     0.040 A 
HETATM   15  C   UNL     1      33.710  74.075  20.036  1.00  0.00     0.010 A 
BRANCH  12  16
HETATM   16  O   UNL     1      34.210  71.161  22.934  1.00  0.00    -0.358 OA
HETATM   17  H   UNL     1      35.055  71.065  23.328  1.00  0.00     0.217 HD
ENDBRANCH  12  16
BRANCH  13  18
HETATM   18  O   UNL     1      35.512  70.940  20.495  1.00  0.00    -0.358 OA
HETATM   19  H   UNL     1      35.187  70.228  19.980  1.00  0.00     0.217 HD
ENDBRANCH  13  18
ENDBRANCH   9  10
ENDBRANCH   3   9
ENDBRANCH   1   3
TORSDOF 8
ENDMDL
MODEL 5
REMARK VINA RESULT:      -6.6      1.644      2.237
REMARK  8 active torsions:
REMARK  status: ('A' for Active; 'I' for Inactive)
REMARK    1  A    between atoms: O_1  and  C_2 
REMARK    2  A    between atoms: C_2  and  C_3 
REMARK    3  A    between atoms: C_2  and  C_8 
REMARK    4  A    between atoms: C_3  and  C_4 
REMARK    5  A    between atoms: C_4  and  C_5 
REMARK    6  A    between atoms: C_8  and  C_9 
REMARK    7  A    between atoms: C_11  and  O_16 
REMARK    8  A    between atoms: C_12  and  O_15 
ROOT
HETATM    1  O   UNL     1      31.341  78.381  19.399  1.00  0.00    -0.395 OA
HETATM    2  H   UNL     1      32.263  78.681  19.392  1.00  0.00     0.210 HD
ENDROOT
BRANCH   1   3
HETATM    3  C   UNL     1      31.217  77.248  20.258  1.00  0.00     0.122 C 
BRANCH   3   4
HETATM    4  C   UNL     1      31.316  77.695  21.726  1.00  0.00     0.042 C 
BRANCH   4   5
HETATM    5  C   UNL     1      30.876  79.144  21.949  1.00  0.00     0.116 C 
BRANCH   5   6
HETATM    6  C   UNL     1      31.931  80.074  22.491  1.00  0.00     0.172 C 
HETATM    7  O   UNL     1      31.922  81.289  22.383  1.00  0.00    -0.648 OA
HETATM    8  O   UNL     1      32.889  79.472  23.223  1.00  0.00    -0.648 OA
ENDBRANCH   5   6
ENDBRANCH   4   5
ENDBRANCH   3   4
BRANCH   3   9
HETATM    9  C   UNL     1      32.314  76.220  19.929  1.00  0.00     0.070 C 
BRANCH   9  10
HETATM   10  C   UNL     1      32.228  74.977  20.787  1.00  0.00    -0.053 A 
HETATM   11  C   UNL     1      33.240  74.682  21.714  1.00  0.00     0.046 A 
HETATM   12  C   UNL     1      33.154  73.529  22.480  1.00  0.00     0.099 A 
HETATM   13  C   UNL     1      32.062  72.676  22.360  1.00  0.00     0.098 A 
HETATM   14  C   UNL     1      31.062  72.939  21.436  1.00  0.00     0.040 A 
HETATM   15  C   UNL     1      31.147  74.090  20.646  1.00  0.00     0.010 A 
BRANCH  12  16
HETATM   16  O   UNL     1      34.176  73.221  23.333  1.00  0.00    -0.358 OA
HETATM   17  H   UNL     1      35.050  73.492  23.133  1.00  0.00     0.217 HD
ENDBRANCH  12  16
BRANCH  13  18
HETATM   18  O   UNL     1      31.943  71.584  23.170  1.00  0.00    -0.358 OA
HETATM   19  H   UNL     1      32.483  70.832  23.025  1.00  0.00     0.217 HD
ENDBRANCH  13  18
ENDBRANCH   9  10
ENDBRANCH   3   9
ENDBRANCH   1   3
TORSDOF 8
ENDMDL
MODEL 6
REMARK VINA RESULT:      -6.6      4.828      6.488
REMARK  8 active torsions:
REMARK  status: ('A' for Active; 'I' for Inactive)
REMARK    1  A    between atoms: O_1  and  C_2 
REMARK    2  A    between atoms: C_2  and  C_3 
REMARK    3  A    between atoms: C_2  and  C_8 
REMARK    4  A    between atoms: C_3  and  C_4 
REMARK    5  A    between atoms: C_4  and  C_5 
REMARK    6  A    between atoms: C_8  and  C_9 
REMARK    7  A    between atoms: C_11  and  O_16 
REMARK    8  A    between atoms: C_12  and  O_15 
ROOT
HETATM    1  O   UNL     1      32.198  78.925  16.594  1.00  0.00    -0.395 OA
HETATM    2  H   UNL     1      31.358  79.405  16.522  1.00  0.00     0.210 HD
ENDROOT
BRANCH   1   3
HETATM    3  C   UNL     1      31.988  77.703  17.300  1.00  0.00     0.122 C 
BRANCH   3   4
HETATM    4  C   UNL     1      31.817  76.548  16.300  1.00  0.00     0.042 C 
BRANCH   4   5
HETATM    5  C   UNL     1      30.357  76.275  15.930  1.00  0.00     0.116 C 
BRANCH   5   6
HETATM    6  C   UNL     1      29.793  77.119  14.816  1.00  0.00     0.172 C 
HETATM    7  O   UNL     1      28.611  77.374  14.655  1.00  0.00    -0.648 OA
HETATM    8  O   UNL     1      30.717  77.687  14.018  1.00  0.00    -0.648 OA
ENDBRANCH   5   6
ENDBRANCH   4   5
ENDBRANCH   3   4
BRANCH   3   9
HETATM    9  C   UNL     1      30.747  77.828  18.202  1.00  0.00     0.070 C 
BRANCH   9  10
HETATM   10  C   UNL     1      31.025  77.441  19.637  1.00  0.00    -0.053 A 
HETATM   11  C   UNL     1      30.815  78.361  20.675  1.00  0.00     0.046 A 
HETATM   12  C   UNL     1      31.092  77.995  21.985  1.00  0.00     0.099 A 
HETATM   13  C   UNL     1      31.549  76.716  22.283  1.00  0.00     0.098 A 
HETATM   14  C   UNL     1      31.782  75.798  21.270  1.00  0.00     0.040 A 
HETATM   15  C   UNL     1      31.522  76.162  19.945  1.00  0.00     0.010 A 
BRANCH  12  16
HETATM   16  O   UNL     1      30.944  78.920  22.978  1.00  0.00    -0.358 OA
HETATM   17  H   UNL     1      31.064  78.670  23.873  1.00  0.00     0.217 HD
ENDBRANCH  12  16
BRANCH  13  18
HETATM   18  O   UNL     1      31.747  76.334  23.579  1.00  0.00    -0.358 OA
HETATM   19  H   UNL     1      31.051  75.932  24.060  1.00  0.00     0.217 HD
ENDBRANCH  13  18
ENDBRANCH   9  10
ENDBRANCH   3   9
ENDBRANCH   1   3
TORSDOF 8
ENDMDL
MODEL 7
REMARK VINA RESULT:      -6.5      4.080      5.792
REMARK  8 active torsions:
REMARK  status: ('A' for Active; 'I' for Inactive)
REMARK    1  A    between atoms: O_1  and  C_2 
REMARK    2  A    between atoms: C_2  and  C_3 
REMARK    3  A    between atoms: C_2  and  C_8 
REMARK    4  A    between atoms: C_3  and  C_4 
REMARK    5  A    between atoms: C_4  and  C_5 
REMARK    6  A    between atoms: C_8  and  C_9 
REMARK    7  A    between atoms: C_11  and  O_16 
REMARK    8  A    between atoms: C_12  and  O_15 
ROOT
HETATM    1  O   UNL     1      30.440  74.317  17.083  1.00  0.00    -0.395 OA
HETATM    2  H   UNL     1      31.074  73.585  17.023  1.00  0.00     0.210 HD
ENDROOT
BRANCH   1   3
HETATM    3  C   UNL     1      31.117  75.498  17.511  1.00  0.00     0.122 C 
BRANCH   3   4
HETATM    4  C   UNL     1      32.030  76.010  16.385  1.00  0.00     0.042 C 
BRANCH   4   5
HETATM    5  C   UNL     1      31.401  77.131  15.555  1.00  0.00     0.116 C 
BRANCH   5   6
HETATM    6  C   UNL     1      31.323  78.479  16.225  1.00  0.00     0.172 C 
HETATM    7  O   UNL     1      30.298  79.115  16.410  1.00  0.00    -0.648 OA
HETATM    8  O   UNL     1      32.492  78.930  16.719  1.00  0.00    -0.648 OA
ENDBRANCH   5   6
ENDBRANCH   4   5
ENDBRANCH   3   4
BRANCH   3   9
HETATM    9  C   UNL     1      31.933  75.201  18.781  1.00  0.00     0.070 C 
BRANCH   9  10
HETATM   10  C   UNL     1      31.625  76.157  19.912  1.00  0.00    -0.053 A 
HETATM   11  C   UNL     1      31.829  75.771  21.245  1.00  0.00     0.046 A 
HETATM   12  C   UNL     1      31.524  76.654  22.271  1.00  0.00     0.099 A 
HETATM   13  C   UNL     1      31.045  77.930  21.991  1.00  0.00     0.098 A 
HETATM   14  C   UNL     1      30.819  78.323  20.681  1.00  0.00     0.040 A 
HETATM   15  C   UNL     1      31.106  77.436  19.640  1.00  0.00     0.010 A 
BRANCH  12  16
HETATM   16  O   UNL     1      31.667  76.243  23.565  1.00  0.00    -0.358 OA
HETATM   17  H   UNL     1      32.499  76.318  23.991  1.00  0.00     0.217 HD
ENDBRANCH  12  16
BRANCH  13  18
HETATM   18  O   UNL     1      30.820  78.823  22.999  1.00  0.00    -0.358 OA
HETATM   19  H   UNL     1      31.543  79.208  23.453  1.00  0.00     0.217 HD
ENDBRANCH  13  18
ENDBRANCH   9  10
ENDBRANCH   3   9
ENDBRANCH   1   3
TORSDOF 8
ENDMDL
MODEL 8
REMARK VINA RESULT:      -6.4      4.380      6.482
REMARK  8 active torsions:
REMARK  status: ('A' for Active; 'I' for Inactive)
REMARK    1  A    between atoms: O_1  and  C_2 
REMARK    2  A    between atoms: C_2  and  C_3 
REMARK    3  A    between atoms: C_2  and  C_8 
REMARK    4  A    between atoms: C_3  and  C_4 
REMARK    5  A    between atoms: C_4  and  C_5 
REMARK    6  A    between atoms: C_8  and  C_9 
REMARK    7  A    between atoms: C_11  and  O_16 
REMARK    8  A    between atoms: C_12  and  O_15 
ROOT
HETATM    1  O   UNL     1      32.411  79.041  16.936  1.00  0.00    -0.395 OA
HETATM    2  H   UNL     1      31.644  79.503  16.562  1.00  0.00     0.210 HD
ENDROOT
BRANCH   1   3
HETATM    3  C   UNL     1      32.032  77.719  17.315  1.00  0.00     0.122 C 
BRANCH   3   4
HETATM    4  C   UNL     1      31.784  76.869  16.059  1.00  0.00     0.042 C 
BRANCH   4   5
HETATM    5  C   UNL     1      30.410  76.194  16.044  1.00  0.00     0.116 C 
BRANCH   5   6
HETATM    6  C   UNL     1      30.414  74.692  16.171  1.00  0.00     0.172 C 
HETATM    7  O   UNL     1      30.625  74.073  17.200  1.00  0.00    -0.648 OA
HETATM    8  O   UNL     1      30.061  74.033  15.050  1.00  0.00    -0.648 OA
ENDBRANCH   5   6
ENDBRANCH   4   5
ENDBRANCH   3   4
BRANCH   3   9
HETATM    9  C   UNL     1      30.770  77.770  18.194  1.00  0.00     0.070 C 
BRANCH   9  10
HETATM   10  C   UNL     1      31.044  77.396  19.634  1.00  0.00    -0.053 A 
HETATM   11  C   UNL     1      30.875  78.340  20.659  1.00  0.00     0.046 A 
HETATM   12  C   UNL     1      31.149  77.986  21.972  1.00  0.00     0.099 A 
HETATM   13  C   UNL     1      31.560  76.696  22.288  1.00  0.00     0.098 A 
HETATM   14  C   UNL     1      31.752  75.754  21.289  1.00  0.00     0.040 A 
HETATM   15  C   UNL     1      31.497  76.105  19.960  1.00  0.00     0.010 A 
BRANCH  12  16
HETATM   16  O   UNL     1      31.041  78.932  22.951  1.00  0.00    -0.358 OA
HETATM   17  H   UNL     1      30.285  78.949  23.505  1.00  0.00     0.217 HD
ENDBRANCH  12  16
BRANCH  13  18
HETATM   18  O   UNL     1      31.754  76.328  23.589  1.00  0.00    -0.358 OA
HETATM   19  H   UNL     1      32.270  76.867  24.156  1.00  0.00     0.217 HD
ENDBRANCH  13  18
ENDBRANCH   9  10
ENDBRANCH   3   9
ENDBRANCH   1   3
TORSDOF 8
ENDMDL
MODEL 9
REMARK VINA RESULT:      -6.4      2.617      5.844
REMARK  8 active torsions:
REMARK  status: ('A' for Active; 'I' for Inactive)
REMARK    1  A    between atoms: O_1  and  C_2 
REMARK    2  A    between atoms: C_2  and  C_3 
REMARK    3  A    between atoms: C_2  and  C_8 
REMARK    4  A    between atoms: C_3  and  C_4 
REMARK    5  A    between atoms: C_4  and  C_5 
REMARK    6  A    between atoms: C_8  and  C_9 
REMARK    7  A    between atoms: C_11  and  O_16 
REMARK    8  A    between atoms: C_12  and  O_15 
ROOT
HETATM    1  O   UNL     1      31.688  73.584  20.979  1.00  0.00    -0.395 OA
HETATM    2  H   UNL     1      31.345  73.220  21.811  1.00  0.00     0.210 HD
ENDROOT
BRANCH   1   3
HETATM    3  C   UNL     1      31.510  74.999  20.969  1.00  0.00     0.122 C 
BRANCH   3   4
HETATM    4  C   UNL     1      32.390  75.626  19.876  1.00  0.00     0.042 C 
BRANCH   4   5
HETATM    5  C   UNL     1      31.587  76.195  18.703  1.00  0.00     0.116 C 
BRANCH   5   6
HETATM    6  C   UNL     1      31.457  77.696  18.662  1.00  0.00     0.172 C 
HETATM    7  O   UNL     1      32.302  78.487  19.050  1.00  0.00    -0.648 OA
HETATM    8  O   UNL     1      30.341  78.147  18.058  1.00  0.00    -0.648 OA
ENDBRANCH   5   6
ENDBRANCH   4   5
ENDBRANCH   3   4
BRANCH   3   9
HETATM    9  C   UNL     1      31.864  75.580  22.350  1.00  0.00     0.070 C 
BRANCH   9  10
HETATM   10  C   UNL     1      31.783  77.090  22.388  1.00  0.00    -0.053 A 
HETATM   11  C   UNL     1      30.557  77.742  22.184  1.00  0.00     0.046 A 
HETATM   12  C   UNL     1      30.504  79.128  22.204  1.00  0.00     0.099 A 
HETATM   13  C   UNL     1      31.648  79.879  22.454  1.00  0.00     0.098 A 
HETATM   14  C   UNL     1      32.872  79.254  22.639  1.00  0.00     0.040 A 
HETATM   15  C   UNL     1      32.941  77.859  22.603  1.00  0.00     0.010 A 
BRANCH  12  16
HETATM   16  O   UNL     1      29.318  79.751  21.941  1.00  0.00    -0.358 OA
HETATM   17  H   UNL     1      28.681  79.334  21.396  1.00  0.00     0.217 HD
ENDBRANCH  12  16
BRANCH  13  18
HETATM   18  O   UNL     1      31.578  81.239  22.551  1.00  0.00    -0.358 OA
HETATM   19  H   UNL     1      30.770  81.651  22.786  1.00  0.00     0.217 HD
ENDBRANCH  13  18
ENDBRANCH   9  10
ENDBRANCH   3   9
ENDBRANCH   1   3
TORSDOF 8
ENDMDL
