MODEL 1
REMARK VINA RESULT:      -6.7      0.000      0.000
REMARK  8 active torsions:
REMARK  status: ('A' for Active; 'I' for Inactive)
REMARK    1  A    between atoms: O_1  and  C_2 
REMARK    2  A    between atoms: C_2  and  C_3 
REMARK    3  A    between atoms: C_2  and  C_8 
REMARK    4  A    between atoms: C_3  and  C_4 
REMARK    5  A    between atoms: C_4  and  C_5 
REMARK    6  A    between atoms: C_8  and  C_9 
REMARK    7  A    between atoms: C_11  and  O_16 
REMARK    8  A    between atoms: C_12  and  O_15 
ROOT
HETATM    1  O   UNL     1      33.001  76.514  22.758  1.00  0.00    -0.395 OA
HETATM    2  H   UNL     1      33.668  75.895  22.421  1.00  0.00     0.210 HD
ENDROOT
BRANCH   1   3
HETATM    3  C   UNL     1      32.266  77.061  21.664  1.00  0.00     0.122 C 
BRANCH   3   4
HETATM    4  C   UNL     1      31.010  77.775  22.189  1.00  0.00     0.042 C 
BRANCH   4   5
HETATM    5  C   UNL     1      30.962  79.262  21.829  1.00  0.00     0.116 C 
BRANCH   5   6
HETATM    6  C   UNL     1      31.915  80.152  22.585  1.00  0.00     0.172 C 
HETATM    7  O   UNL     1      31.808  81.362  22.701  1.00  0.00    -0.648 OA
HETATM    8  O   UNL     1      32.892  79.498  23.243  1.00  0.00    -0.648 OA
ENDBRANCH   5   6
ENDBRANCH   4   5
ENDBRANCH   3   4
BRANCH   3   9
HETATM    9  C   UNL     1      31.883  75.941  20.681  1.00  0.00     0.070 C 
BRANCH   9  10
HETATM   10  C   UNL     1      31.843  76.412  19.244  1.00  0.00    -0.053 A 
HETATM   11  C   UNL     1      32.438  77.629  18.878  1.00  0.00     0.046 A 
HETATM   12  C   UNL     1      32.376  78.055  17.559  1.00  0.00     0.099 A 
HETATM   13  C   UNL     1      31.756  77.274  16.588  1.00  0.00     0.098 A 
HETATM   14  C   UNL     1      31.145  76.078  16.934  1.00  0.00     0.040 A 
HETATM   15  C   UNL     1      31.186  75.648  18.263  1.00  0.00     0.010 A 
BRANCH  12  16
HETATM   16  O   UNL     1      32.904  79.270  17.228  1.00  0.00    -0.358 OA
HETATM   17  H   UNL     1      33.816  79.345  17.023  1.00  0.00     0.217 HD
ENDBRANCH  12  16
BRANCH  13  18
HETATM   18  O   UNL     1      31.765  77.659  15.279  1.00  0.00    -0.358 OA
HETATM   19  H   UNL     1      32.445  77.360  14.708  1.00  0.00     0.217 HD
ENDBRANCH  13  18
ENDBRANCH   9  10
ENDBRANCH   3   9
ENDBRANCH   1   3
TORSDOF 8
ENDMDL
MODEL 2
REMARK VINA RESULT:      -6.6      3.307      5.209
REMARK  8 active torsions:
REMARK  status: ('A' for Active; 'I' for Inactive)
REMARK    1  A    between atoms: O_1  and  C_2 
REMARK    2  A    between atoms: C_2  and  C_3 
REMARK    3  A    between atoms: C_2  and  C_8 
REMARK    4  A    between atoms: C_3  and  C_4 
REMARK    5  A    between atoms: C_4  and  C_5 
REMARK    6  A    between atoms: C_8  and  C_9 
REMARK    7  A    between atoms: C_11  and  O_16 
REMARK    8  A    between atoms: C_12  and  O_15 
ROOT
HETATM    1  O   UNL     1      31.813  76.727  23.317  1.00  0.00    -0.395 OA
HETATM    2  H   UNL     1      30.865  76.693  23.520  1.00  0.00     0.210 HD
ENDROOT
BRANCH   1   3
HETATM    3  C   UNL     1      31.997  76.697  21.902  1.00  0.00     0.122 C 
BRANCH   3   4
HETATM    4  C   UNL     1      31.336  77.930  21.266  1.00  0.00     0.042 C 
BRANCH   4   5
HETATM    5  C   UNL     1      30.943  79.002  22.285  1.00  0.00     0.116 C 
BRANCH   5   6
HETATM    6  C   UNL     1      31.990  80.046  22.578  1.00  0.00     0.172 C 
HETATM    7  O   UNL     1      31.926  81.219  22.250  1.00  0.00    -0.648 OA
HETATM    8  O   UNL     1      33.012  79.617  23.343  1.00  0.00    -0.648 OA
ENDBRANCH   5   6
ENDBRANCH   4   5
ENDBRANCH   3   4
BRANCH   3   9
HETATM    9  C   UNL     1      31.400  75.402  21.325  1.00  0.00     0.070 C 
BRANCH   9  10
HETATM   10  C   UNL     1      32.278  74.194  21.567  1.00  0.00    -0.053 A 
HETATM   11  C   UNL     1      31.837  73.149  22.394  1.00  0.00     0.046 A 
HETATM   12  C   UNL     1      32.662  72.057  22.620  1.00  0.00     0.099 A 
HETATM   13  C   UNL     1      33.911  71.972  22.013  1.00  0.00     0.098 A 
HETATM   14  C   UNL     1      34.373  73.003  21.208  1.00  0.00     0.040 A 
HETATM   15  C   UNL     1      33.557  74.116  20.988  1.00  0.00     0.010 A 
BRANCH  12  16
HETATM   16  O   UNL     1      32.247  71.077  23.476  1.00  0.00    -0.358 OA
HETATM   17  H   UNL     1      31.883  70.283  23.137  1.00  0.00     0.217 HD
ENDBRANCH  12  16
BRANCH  13  18
HETATM   18  O   UNL     1      34.687  70.861  22.175  1.00  0.00    -0.358 OA
HETATM   19  H   UNL     1      34.559  70.115  21.623  1.00  0.00     0.217 HD
ENDBRANCH  13  18
ENDBRANCH   9  10
ENDBRANCH   3   9
ENDBRANCH   1   3
TORSDOF 8
ENDMDL
MODEL 3
REMARK VINA RESULT:      -6.6      1.600      6.181
REMARK  8 active torsions:
REMARK  status: ('A' for Active; 'I' for Inactive)
REMARK    1  A    between atoms: O_1  and  C_2 
REMARK    2  A    between atoms: C_2  and  C_3 
REMARK    3  A    between atoms: C_2  and  C_8 
REMARK    4  A    between atoms: C_3  and  C_4 
REMARK    5  A    between atoms: C_4  and  C_5 
REMARK    6  A    between atoms: C_8  and  C_9 
REMARK    7  A    between atoms: C_11  and  O_16 
REMARK    8  A    between atoms: C_12  and  O_15 
ROOT
HETATM    1  O   UNL     1      32.179  79.008  16.740  1.00  0.00    -0.395 OA
HETATM    2  H   UNL     1      32.173  79.678  17.441  1.00  0.00     0.210 HD
ENDROOT
BRANCH   1   3
HETATM    3  C   UNL     1      31.969  77.718  17.313  1.00  0.00     0.122 C 
BRANCH   3   4
HETATM    4  C   UNL     1      31.821  76.671  16.197  1.00  0.00     0.042 C 
BRANCH   4   5
HETATM    5  C   UNL     1      30.366  76.303  15.899  1.00  0.00     0.116 C 
BRANCH   5   6
HETATM    6  C   UNL     1      29.713  77.063  14.773  1.00  0.00     0.172 C 
HETATM    7  O   UNL     1      28.530  77.355  14.712  1.00  0.00    -0.648 OA
HETATM    8  O   UNL     1      30.565  77.510  13.830  1.00  0.00    -0.648 OA
ENDBRANCH   5   6
ENDBRANCH   4   5
ENDBRANCH   3   4
BRANCH   3   9
HETATM    9  C   UNL     1      30.716  77.741  18.206  1.00  0.00     0.070 C 
BRANCH   9  10
HETATM   10  C   UNL     1      31.015  77.377  19.643  1.00  0.00    -0.053 A 
HETATM   11  C   UNL     1      30.846  78.323  20.666  1.00  0.00     0.046 A 
HETATM   12  C   UNL     1      31.142  77.978  21.977  1.00  0.00     0.099 A 
HETATM   13  C   UNL     1      31.576  76.695  22.293  1.00  0.00     0.098 A 
HETATM   14  C   UNL     1      31.767  75.752  21.295  1.00  0.00     0.040 A 
HETATM   15  C   UNL     1      31.489  76.094  19.968  1.00  0.00     0.010 A 
BRANCH  12  16
HETATM   16  O   UNL     1      31.035  78.927  22.953  1.00  0.00    -0.358 OA
HETATM   17  H   UNL     1      31.604  79.671  22.948  1.00  0.00     0.217 HD
ENDBRANCH  12  16
BRANCH  13  18
HETATM   18  O   UNL     1      31.791  76.336  23.592  1.00  0.00    -0.358 OA
HETATM   19  H   UNL     1      32.511  75.779  23.811  1.00  0.00     0.217 HD
ENDBRANCH  13  18
ENDBRANCH   9  10
ENDBRANCH   3   9
ENDBRANCH   1   3
TORSDOF 8
ENDMDL
MODEL 4
REMARK VINA RESULT:      -6.5      2.316      4.680
REMARK  8 active torsions:
REMARK  status: ('A' for Active; 'I' for Inactive)
REMARK    1  A    between atoms: O_1  and  C_2 
REMARK    2  A    between atoms: C_2  and  C_3 
REMARK    3  A    between atoms: C_2  and  C_8 
REMARK    4  A    between atoms: C_3  and  C_4 
REMARK    5  A    between atoms: C_4  and  C_5 
REMARK    6  A    between atoms: C_8  and  C_9 
REMARK    7  A    between atoms: C_11  and  O_16 
REMARK    8  A    between atoms: C_12  and  O_15 
ROOT
HETATM    1  O   UNL     1      31.856  78.512  19.360  1.00  0.00    -0.395 OA
HETATM    2  H   UNL     1      31.091  79.099  19.255  1.00  0.00     0.210 HD
ENDROOT
BRANCH   1   3
HETATM    3  C   UNL     1      31.467  77.350  20.091  1.00  0.00     0.122 C 
BRANCH   3   4
HETATM    4  C   UNL     1      31.549  77.634  21.600  1.00  0.00     0.042 C 
BRANCH   4   5
HETATM    5  C   UNL     1      30.989  79.004  21.991  1.00  0.00     0.116 C 
BRANCH   5   6
HETATM    6  C   UNL     1      31.987  79.989  22.544  1.00  0.00     0.172 C 
HETATM    7  O   UNL     1      31.880  81.203  22.494  1.00  0.00    -0.648 OA
HETATM    8  O   UNL     1      33.013  79.431  23.215  1.00  0.00    -0.648 OA
ENDBRANCH   5   6
ENDBRANCH   4   5
ENDBRANCH   3   4
BRANCH   3   9
HETATM    9  C   UNL     1      32.373  76.166  19.711  1.00  0.00     0.070 C 
BRANCH   9  10
HETATM   10  C   UNL     1      32.247  75.002  20.668  1.00  0.00    -0.053 A 
HETATM   11  C   UNL     1      33.261  74.734  21.601  1.00  0.00     0.046 A 
HETATM   12  C   UNL     1      33.136  73.651  22.459  1.00  0.00     0.099 A 
HETATM   13  C   UNL     1      32.004  72.844  22.425  1.00  0.00     0.098 A 
HETATM   14  C   UNL     1      31.000  73.080  21.498  1.00  0.00     0.040 A 
HETATM   15  C   UNL     1      31.122  74.158  20.617  1.00  0.00     0.010 A 
BRANCH  12  16
HETATM   16  O   UNL     1      34.158  73.364  23.318  1.00  0.00    -0.358 OA
HETATM   17  H   UNL     1      35.047  73.419  23.024  1.00  0.00     0.217 HD
ENDBRANCH  12  16
BRANCH  13  18
HETATM   18  O   UNL     1      31.850  71.827  23.323  1.00  0.00    -0.358 OA
HETATM   19  H   UNL     1      32.185  71.916  24.193  1.00  0.00     0.217 HD
ENDBRANCH  13  18
ENDBRANCH   9  10
ENDBRANCH   3   9
ENDBRANCH   1   3
TORSDOF 8
ENDMDL
MODEL 5
REMARK VINA RESULT:      -6.4      1.623      5.516
REMARK  8 active torsions:
REMARK  status: ('A' for Active; 'I' for Inactive)
REMARK    1  A    between atoms: O_1  and  C_2 
REMARK    2  A    between atoms: C_2  and  C_3 
REMARK    3  A    between atoms: C_2  and  C_8 
REMARK    4  A    between atoms: C_3  and  C_4 
REMARK    5  A    between atoms: C_4  and  C_5 
REMARK    6  A    between atoms: C_8  and  C_9 
REMARK    7  A    between atoms: C_11  and  O_16 
REMARK    8  A    between atoms: C_12  and  O_15 
ROOT
HETATM    1  O   UNL     1      30.483  74.283  17.150  1.00  0.00    -0.395 OA
HETATM    2  H   UNL     1      29.866  74.031  17.854  1.00  0.00     0.210 HD
ENDROOT
BRANCH   1   3
HETATM    3  C   UNL     1      31.142  75.497  17.508  1.00  0.00     0.122 C 
BRANCH   3   4
HETATM    4  C   UNL     1      31.989  75.997  16.326  1.00  0.00     0.042 C 
BRANCH   4   5
HETATM    5  C   UNL     1      31.321  77.125  15.536  1.00  0.00     0.116 C 
BRANCH   5   6
HETATM    6  C   UNL     1      31.283  78.470  16.216  1.00  0.00     0.172 C 
HETATM    7  O   UNL     1      30.273  79.113  16.450  1.00  0.00    -0.648 OA
HETATM    8  O   UNL     1      32.476  78.908  16.661  1.00  0.00    -0.648 OA
ENDBRANCH   5   6
ENDBRANCH   4   5
ENDBRANCH   3   4
BRANCH   3   9
HETATM    9  C   UNL     1      32.024  75.265  18.748  1.00  0.00     0.070 C 
BRANCH   9  10
HETATM   10  C   UNL     1      31.683  76.196  19.891  1.00  0.00    -0.053 A 
HETATM   11  C   UNL     1      31.863  75.785  21.220  1.00  0.00     0.046 A 
HETATM   12  C   UNL     1      31.528  76.645  22.257  1.00  0.00     0.099 A 
HETATM   13  C   UNL     1      31.043  77.922  21.992  1.00  0.00     0.098 A 
HETATM   14  C   UNL     1      30.840  78.339  20.685  1.00  0.00     0.040 A 
HETATM   15  C   UNL     1      31.158  77.475  19.633  1.00  0.00     0.010 A 
BRANCH  12  16
HETATM   16  O   UNL     1      31.648  76.210  23.545  1.00  0.00    -0.358 OA
HETATM   17  H   UNL     1      30.977  76.404  24.170  1.00  0.00     0.217 HD
ENDBRANCH  12  16
BRANCH  13  18
HETATM   18  O   UNL     1      30.788  78.792  23.012  1.00  0.00    -0.358 OA
HETATM   19  H   UNL     1      31.158  79.653  22.996  1.00  0.00     0.217 HD
ENDBRANCH  13  18
ENDBRANCH   9  10
ENDBRANCH   3   9
ENDBRANCH   1   3
TORSDOF 8
ENDMDL
MODEL 6
REMARK VINA RESULT:      -6.4      3.556      5.429
REMARK  8 active torsions:
REMARK  status: ('A' for Active; 'I' for Inactive)
REMARK    1  A    between atoms: O_1  and  C_2 
REMARK    2  A    between atoms: C_2  and  C_3 
REMARK    3  A    between atoms: C_2  and  C_8 
REMARK    4  A    between atoms: C_3  and  C_4 
REMARK    5  A    between atoms: C_4  and  C_5 
REMARK    6  A    between atoms: C_8  and  C_9 
REMARK    7  A    between atoms: C_11  and  O_16 
REMARK    8  A    between atoms: C_12  and  O_15 
ROOT
HETATM    1  O   UNL     1      31.780  76.042  23.869  1.00  0.00    -0.395 OA
HETATM    2  H   UNL     1      31.426  75.170  24.104  1.00  0.00     0.210 HD
ENDROOT
BRANCH   1   3
HETATM    3  C   UNL     1      32.479  75.953  22.628  1.00  0.00     0.122 C 
BRANCH   3   4
HETATM    4  C   UNL     1      32.366  77.287  21.872  1.00  0.00     0.042 C 
BRANCH   4   5
HETATM    5  C   UNL     1      31.081  77.413  21.051  1.00  0.00     0.116 C 
BRANCH   5   6
HETATM    6  C   UNL     1      31.265  77.705  19.583  1.00  0.00     0.172 C 
HETATM    7  O   UNL     1      30.493  78.348  18.891  1.00  0.00    -0.648 OA
HETATM    8  O   UNL     1      32.434  77.278  19.068  1.00  0.00    -0.648 OA
ENDBRANCH   5   6
ENDBRANCH   4   5
ENDBRANCH   3   4
BRANCH   3   9
HETATM    9  C   UNL     1      31.901  74.802  21.785  1.00  0.00     0.070 C 
BRANCH   9  10
HETATM   10  C   UNL     1      32.952  73.796  21.370  1.00  0.00    -0.053 A 
HETATM   11  C   UNL     1      33.248  72.697  22.191  1.00  0.00     0.046 A 
HETATM   12  C   UNL     1      34.228  71.794  21.803  1.00  0.00     0.099 A 
HETATM   13  C   UNL     1      34.900  71.950  20.595  1.00  0.00     0.098 A 
HETATM   14  C   UNL     1      34.636  73.040  19.780  1.00  0.00     0.040 A 
HETATM   15  C   UNL     1      33.664  73.966  20.169  1.00  0.00     0.010 A 
BRANCH  12  16
HETATM   16  O   UNL     1      34.550  70.764  22.640  1.00  0.00    -0.358 OA
HETATM   17  H   UNL     1      34.258  70.775  23.530  1.00  0.00     0.217 HD
ENDBRANCH  12  16
BRANCH  13  18
HETATM   18  O   UNL     1      35.808  71.018  20.181  1.00  0.00    -0.358 OA
HETATM   19  H   UNL     1      36.643  70.958  20.602  1.00  0.00     0.217 HD
ENDBRANCH  13  18
ENDBRANCH   9  10
ENDBRANCH   3   9
ENDBRANCH   1   3
TORSDOF 8
ENDMDL
MODEL 7
REMARK VINA RESULT:      -6.4      1.817      4.960
REMARK  8 active torsions:
REMARK  status: ('A' for Active; 'I' for Inactive)
REMARK    1  A    between atoms: O_1  and  C_2 
REMARK    2  A    between atoms: C_2  and  C_3 
REMARK    3  A    between atoms: C_2  and  C_8 
REMARK    4  A    between atoms: C_3  and  C_4 
REMARK    5  A    between atoms: C_4  and  C_5 
REMARK    6  A    between atoms: C_8  and  C_9 
REMARK    7  A    between atoms: C_11  and  O_16 
REMARK    8  A    between atoms: C_12  and  O_15 
ROOT
HETATM    1  O   UNL     1      31.445  73.496  21.278  1.00  0.00    -0.395 OA
HETATM    2  H   UNL     1      31.811  73.142  20.452  1.00  0.00     0.210 HD
ENDROOT
BRANCH   1   3
HETATM    3  C   UNL     1      31.327  74.914  21.176  1.00  0.00     0.122 C 
BRANCH   3   4
HETATM    4  C   UNL     1      32.220  75.429  20.035  1.00  0.00     0.042 C 
BRANCH   4   5
HETATM    5  C   UNL     1      31.437  76.124  18.918  1.00  0.00     0.116 C 
BRANCH   5   6
HETATM    6  C   UNL     1      31.575  77.624  18.854  1.00  0.00     0.172 C 
HETATM    7  O   UNL     1      32.624  78.229  18.705  1.00  0.00    -0.648 OA
HETATM    8  O   UNL     1      30.409  78.297  18.877  1.00  0.00    -0.648 OA
ENDBRANCH   5   6
ENDBRANCH   4   5
ENDBRANCH   3   4
BRANCH   3   9
HETATM    9  C   UNL     1      31.721  75.569  22.511  1.00  0.00     0.070 C 
BRANCH   9  10
HETATM   10  C   UNL     1      31.635  77.078  22.472  1.00  0.00    -0.053 A 
HETATM   11  C   UNL     1      30.390  77.717  22.363  1.00  0.00     0.046 A 
HETATM   12  C   UNL     1      30.331  79.103  22.309  1.00  0.00     0.099 A 
HETATM   13  C   UNL     1      31.491  79.867  22.392  1.00  0.00     0.098 A 
HETATM   14  C   UNL     1      32.732  79.254  22.480  1.00  0.00     0.040 A 
HETATM   15  C   UNL     1      32.804  77.858  22.517  1.00  0.00     0.010 A 
BRANCH  12  16
HETATM   16  O   UNL     1      29.120  79.709  22.140  1.00  0.00    -0.358 OA
HETATM   17  H   UNL     1      29.069  80.543  21.715  1.00  0.00     0.217 HD
ENDBRANCH  12  16
BRANCH  13  18
HETATM   18  O   UNL     1      31.423  81.230  22.417  1.00  0.00    -0.358 OA
HETATM   19  H   UNL     1      30.664  81.654  22.767  1.00  0.00     0.217 HD
ENDBRANCH  13  18
ENDBRANCH   9  10
ENDBRANCH   3   9
ENDBRANCH   1   3
TORSDOF 8
ENDMDL
MODEL 8
REMARK VINA RESULT:      -6.4      2.336      5.807
REMARK  8 active torsions:
REMARK  status: ('A' for Active; 'I' for Inactive)
REMARK    1  A    between atoms: O_1  and  C_2 
REMARK    2  A    between atoms: C_2  and  C_3 
REMARK    3  A    between atoms: C_2  and  C_8 
REMARK    4  A    between atoms: C_3  and  C_4 
REMARK    5  A    between atoms: C_4  and  C_5 
REMARK    6  A    between atoms: C_8  and  C_9 
REMARK    7  A    between atoms: C_11  and  O_16 
REMARK    8  A    between atoms: C_12  and  O_15 
ROOT
HETATM    1  O   UNL     1      32.822  78.757  17.938  1.00  0.00    -0.395 OA
HETATM    2  H   UNL     1      32.386  79.421  18.496  1.00  0.00     0.210 HD
ENDROOT
BRANCH   1   3
HETATM    3  C   UNL     1      32.395  77.453  18.331  1.00  0.00     0.122 C 
BRANCH   3   4
HETATM    4  C   UNL     1      31.831  76.703  17.113  1.00  0.00     0.042 C 
BRANCH   4   5
HETATM    5  C   UNL     1      31.524  77.618  15.925  1.00  0.00     0.116 C 
BRANCH   5   6
HETATM    6  C   UNL     1      30.138  78.209  15.892  1.00  0.00     0.172 C 
HETATM    7  O   UNL     1      29.210  77.791  15.219  1.00  0.00    -0.648 OA
HETATM    8  O   UNL     1      29.938  79.220  16.759  1.00  0.00    -0.648 OA
ENDBRANCH   5   6
ENDBRANCH   4   5
ENDBRANCH   3   4
BRANCH   3   9
HETATM    9  C   UNL     1      31.335  77.563  19.441  1.00  0.00     0.070 C 
BRANCH   9  10
HETATM   10  C   UNL     1      31.420  76.435  20.445  1.00  0.00    -0.053 A 
HETATM   11  C   UNL     1      31.360  76.702  21.821  1.00  0.00     0.046 A 
HETATM   12  C   UNL     1      31.458  75.658  22.729  1.00  0.00     0.099 A 
HETATM   13  C   UNL     1      31.586  74.344  22.290  1.00  0.00     0.098 A 
HETATM   14  C   UNL     1      31.667  74.061  20.934  1.00  0.00     0.040 A 
HETATM   15  C   UNL     1      31.587  75.108  20.011  1.00  0.00     0.010 A 
BRANCH  12  16
HETATM   16  O   UNL     1      31.462  75.938  24.066  1.00  0.00    -0.358 OA
HETATM   17  H   UNL     1      32.001  76.628  24.398  1.00  0.00     0.217 HD
ENDBRANCH  12  16
BRANCH  13  18
HETATM   18  O   UNL     1      31.604  73.312  23.183  1.00  0.00    -0.358 OA
HETATM   19  H   UNL     1      30.828  73.091  23.659  1.00  0.00     0.217 HD
ENDBRANCH  13  18
ENDBRANCH   9  10
ENDBRANCH   3   9
ENDBRANCH   1   3
TORSDOF 8
ENDMDL
MODEL 9
REMARK VINA RESULT:      -6.4      1.727      6.018
REMARK  8 active torsions:
REMARK  status: ('A' for Active; 'I' for Inactive)
REMARK    1  A    between atoms: O_1  and  C_2 
REMARK    2  A    between atoms: C_2  and  C_3 
REMARK    3  A    between atoms: C_2  and  C_8 
REMARK    4  A    between atoms: C_3  and  C_4 
REMARK    5  A    between atoms: C_4  and  C_5 
REMARK    6  A    between atoms: C_8  and  C_9 
REMARK    7  A    between atoms: C_11  and  O_16 
REMARK    8  A    between atoms: C_12  and  O_15 
ROOT
HETATM    1  O   UNL     1      32.720  79.057  17.425  1.00  0.00    -0.395 OA
HETATM    2  H   UNL     1      33.643  78.969  17.142  1.00  0.00     0.210 HD
ENDROOT
BRANCH   1   3
HETATM    3  C   UNL     1      32.068  77.792  17.324  1.00  0.00     0.122 C 
BRANCH   3   4
HETATM    4  C   UNL     1      31.734  77.496  15.853  1.00  0.00     0.042 C 
BRANCH   4   5
HETATM    5  C   UNL     1      32.217  76.121  15.385  1.00  0.00     0.116 C 
BRANCH   5   6
HETATM    6  C   UNL     1      31.776  74.949  16.224  1.00  0.00     0.172 C 
HETATM    7  O   UNL     1      32.518  74.219  16.860  1.00  0.00    -0.648 OA
HETATM    8  O   UNL     1      30.441  74.796  16.316  1.00  0.00    -0.648 OA
ENDBRANCH   5   6
ENDBRANCH   4   5
ENDBRANCH   3   4
BRANCH   3   9
HETATM    9  C   UNL     1      30.791  77.792  18.181  1.00  0.00     0.070 C 
BRANCH   9  10
HETATM   10  C   UNL     1      31.050  77.398  19.619  1.00  0.00    -0.053 A 
HETATM   11  C   UNL     1      30.847  78.321  20.656  1.00  0.00     0.046 A 
HETATM   12  C   UNL     1      31.108  77.949  21.967  1.00  0.00     0.099 A 
HETATM   13  C   UNL     1      31.540  76.661  22.268  1.00  0.00     0.098 A 
HETATM   14  C   UNL     1      31.765  75.741  21.255  1.00  0.00     0.040 A 
HETATM   15  C   UNL     1      31.523  76.111  19.929  1.00  0.00     0.010 A 
BRANCH  12  16
HETATM   16  O   UNL     1      30.966  78.875  22.961  1.00  0.00    -0.358 OA
HETATM   17  H   UNL     1      30.921  78.599  23.855  1.00  0.00     0.217 HD
ENDBRANCH  12  16
BRANCH  13  18
HETATM   18  O   UNL     1      31.720  76.275  23.565  1.00  0.00    -0.358 OA
HETATM   19  H   UNL     1      32.327  76.736  24.110  1.00  0.00     0.217 HD
ENDBRANCH  13  18
ENDBRANCH   9  10
ENDBRANCH   3   9
ENDBRANCH   1   3
TORSDOF 8
ENDMDL
