MODEL 1
REMARK VINA RESULT:      -7.4      0.000      0.000
REMARK  7 active torsions:
REMARK  status: ('A' for Active; 'I' for Inactive)
REMARK    1  A    between atoms: O_5  and  C_13 
REMARK    2  A    between atoms: O_5  and  C_14 
REMARK    3  A    between atoms: O_6  and  C_15 
REMARK    4  A    between atoms: O_6  and  C_22 
REMARK       I    between atoms: N_8  and  C_20 
REMARK    5  A    between atoms: N_8  and  C_21 
REMARK    6  A    between atoms: C_10  and  C_13 
REMARK    7  A    between atoms: C_17  and  C_20 
ROOT
ATOM      1 CL   UNL A   1      13.296   5.889  19.137  1.00  0.00    -0.080 Cl
ATOM      2 CL   UNL A   1      17.585   8.726  17.275  1.00  0.00    -0.080 Cl
ATOM      3  N   UNL A   1      16.189   7.952  20.915  1.00  0.00    -0.270 NA
ATOM      4  C   UNL A   1      15.467   7.331  18.304  1.00  0.00     0.081 A 
ATOM      5  C   UNL A   1      14.702   6.860  19.354  1.00  0.00     0.080 A 
ATOM      6  C   UNL A   1      16.587   8.108  18.536  1.00  0.00     0.080 A 
ATOM      7  C   UNL A   1      15.103   7.197  20.636  1.00  0.00     0.142 A 
ATOM      8  C   UNL A   1      16.905   8.389  19.855  1.00  0.00     0.142 A 
ENDROOT
BRANCH   4   9
ATOM      9  N   UNL A   1      15.100   7.014  16.973  1.00  0.00    -0.320 N 
ATOM     10  C   UNL A   1      15.450   5.888  16.216  1.00  0.00     0.256 C 
ATOM     11  O   UNL A   1      16.168   4.955  16.614  1.00  0.00    -0.267 OA
ATOM     12  H   UNL A   1      14.523   7.671  16.521  1.00  0.00     0.169 HD
BRANCH  10  13
ATOM     13  C   UNL A   1      14.937   5.853  14.855  1.00  0.00     0.035 A 
ATOM     14  C   UNL A   1      13.642   6.295  14.587  1.00  0.00     0.056 A 
ATOM     15  C   UNL A   1      13.151   6.261  13.282  1.00  0.00     0.103 A 
ATOM     16  C   UNL A   1      13.954   5.785  12.246  1.00  0.00     0.108 A 
ATOM     17  C   UNL A   1      15.249   5.342  12.514  1.00  0.00     0.041 A 
ATOM     18  C   UNL A   1      15.741   5.377  13.819  1.00  0.00     0.020 A 
BRANCH  15  19
ATOM     19  O   UNL A   1      11.884   6.695  13.031  1.00  0.00    -0.348 OA
BRANCH  19  20
ATOM     20  C   UNL A   1      11.458   7.876  13.707  1.00  0.00     0.180 C 
BRANCH  20  21
ATOM     21  C   UNL A   1      12.166   9.058  13.140  1.00  0.00     0.010 A 
ATOM     22  C   UNL A   1      11.560  10.417  13.306  1.00  0.00     0.007 A 
ATOM     23  C   UNL A   1      12.794  10.045  14.073  1.00  0.00     0.007 A 
ENDBRANCH  20  21
ENDBRANCH  19  20
ENDBRANCH  15  19
BRANCH  16  24
ATOM     24  O   UNL A   1      13.485   5.747  10.967  1.00  0.00    -0.287 OA
BRANCH  24  25
ATOM     25  C   UNL A   1      13.282   4.467  10.383  1.00  0.00     0.505 C 
ATOM     26  F   UNL A   1      12.361   3.814  11.138  1.00  0.00    -0.184 F 
ATOM     27  F   UNL A   1      12.734   4.621   9.153  1.00  0.00    -0.184 F 
ENDBRANCH  24  25
ENDBRANCH  16  24
ENDBRANCH  10  13
ENDBRANCH   4   9
TORSDOF 7
ENDMDL
MODEL 2
REMARK VINA RESULT:      -7.2      3.738      4.756
REMARK  7 active torsions:
REMARK  status: ('A' for Active; 'I' for Inactive)
REMARK    1  A    between atoms: O_5  and  C_13 
REMARK    2  A    between atoms: O_5  and  C_14 
REMARK    3  A    between atoms: O_6  and  C_15 
REMARK    4  A    between atoms: O_6  and  C_22 
REMARK       I    between atoms: N_8  and  C_20 
REMARK    5  A    between atoms: N_8  and  C_21 
REMARK    6  A    between atoms: C_10  and  C_13 
REMARK    7  A    between atoms: C_17  and  C_20 
ROOT
ATOM      1 CL   UNL A   1      20.987   3.732  13.418  1.00  0.00    -0.080 Cl
ATOM      2 CL   UNL A   1      18.851   8.349  15.425  1.00  0.00    -0.080 Cl
ATOM      3  N   UNL A   1      22.334   6.503  15.929  1.00  0.00    -0.270 NA
ATOM      4  C   UNL A   1      20.007   6.057  14.476  1.00  0.00     0.081 A 
ATOM      5  C   UNL A   1      21.047   5.151  14.391  1.00  0.00     0.080 A 
ATOM      6  C   UNL A   1      20.108   7.182  15.274  1.00  0.00     0.080 A 
ATOM      7  C   UNL A   1      22.186   5.418  15.135  1.00  0.00     0.142 A 
ATOM      8  C   UNL A   1      21.289   7.358  15.978  1.00  0.00     0.142 A 
ENDROOT
BRANCH   4   9
ATOM      9  N   UNL A   1      18.821   5.831  13.735  1.00  0.00    -0.320 N 
ATOM     10  C   UNL A   1      18.594   6.032  12.367  1.00  0.00     0.256 C 
ATOM     11  O   UNL A   1      19.437   6.458  11.560  1.00  0.00    -0.267 OA
ATOM     12  H   UNL A   1      18.055   5.487  14.250  1.00  0.00     0.169 HD
BRANCH  10  13
ATOM     13  C   UNL A   1      17.251   5.732  11.895  1.00  0.00     0.035 A 
ATOM     14  C   UNL A   1      16.208   5.583  12.808  1.00  0.00     0.056 A 
ATOM     15  C   UNL A   1      14.921   5.294  12.355  1.00  0.00     0.103 A 
ATOM     16  C   UNL A   1      14.677   5.156  10.989  1.00  0.00     0.108 A 
ATOM     17  C   UNL A   1      15.721   5.305  10.075  1.00  0.00     0.041 A 
ATOM     18  C   UNL A   1      17.008   5.593  10.528  1.00  0.00     0.020 A 
BRANCH  15  19
ATOM     19  O   UNL A   1      13.910   5.150  13.255  1.00  0.00    -0.348 OA
BRANCH  19  20
ATOM     20  C   UNL A   1      13.576   6.291  14.044  1.00  0.00     0.180 C 
BRANCH  20  21
ATOM     21  C   UNL A   1      13.150   7.406  13.151  1.00  0.00     0.010 A 
ATOM     22  C   UNL A   1      11.716   7.491  12.728  1.00  0.00     0.007 A 
ATOM     23  C   UNL A   1      12.272   8.484  13.704  1.00  0.00     0.007 A 
ENDBRANCH  20  21
ENDBRANCH  19  20
ENDBRANCH  15  19
BRANCH  16  24
ATOM     24  O   UNL A   1      13.424   4.875  10.533  1.00  0.00    -0.287 OA
BRANCH  24  25
ATOM     25  C   UNL A   1      13.318   4.083   9.357  1.00  0.00     0.505 C 
ATOM     26  F   UNL A   1      12.684   2.930   9.696  1.00  0.00    -0.184 F 
ATOM     27  F   UNL A   1      12.518   4.716   8.465  1.00  0.00    -0.184 F 
ENDBRANCH  24  25
ENDBRANCH  16  24
ENDBRANCH  10  13
ENDBRANCH   4   9
TORSDOF 7
ENDMDL
MODEL 3
REMARK VINA RESULT:      -7.1      3.154      3.910
REMARK  7 active torsions:
REMARK  status: ('A' for Active; 'I' for Inactive)
REMARK    1  A    between atoms: O_5  and  C_13 
REMARK    2  A    between atoms: O_5  and  C_14 
REMARK    3  A    between atoms: O_6  and  C_15 
REMARK    4  A    between atoms: O_6  and  C_22 
REMARK       I    between atoms: N_8  and  C_20 
REMARK    5  A    between atoms: N_8  and  C_21 
REMARK    6  A    between atoms: C_10  and  C_13 
REMARK    7  A    between atoms: C_17  and  C_20 
ROOT
ATOM      1 CL   UNL A   1      17.477   8.036  16.277  1.00  0.00    -0.080 Cl
ATOM      2 CL   UNL A   1      20.325   3.831  14.248  1.00  0.00    -0.080 Cl
ATOM      3  N   UNL A   1      20.988   6.416  17.194  1.00  0.00    -0.270 NA
ATOM      4  C   UNL A   1      18.976   5.951  15.333  1.00  0.00     0.081 A 
ATOM      5  C   UNL A   1      18.843   6.990  16.235  1.00  0.00     0.080 A 
ATOM      6  C   UNL A   1      20.096   5.141  15.343  1.00  0.00     0.080 A 
ATOM      7  C   UNL A   1      19.874   7.180  17.142  1.00  0.00     0.142 A 
ATOM      8  C   UNL A   1      21.070   5.413  16.290  1.00  0.00     0.142 A 
ENDROOT
BRANCH   4   9
ATOM      9  N   UNL A   1      17.951   5.714  14.384  1.00  0.00    -0.320 N 
ATOM     10  C   UNL A   1      17.901   6.099  13.038  1.00  0.00     0.256 C 
ATOM     11  O   UNL A   1      18.788   6.735  12.445  1.00  0.00    -0.267 OA
ATOM     12  H   UNL A   1      17.171   5.213  14.716  1.00  0.00     0.169 HD
BRANCH  10  13
ATOM     13  C   UNL A   1      16.692   5.731  12.316  1.00  0.00     0.035 A 
ATOM     14  C   UNL A   1      15.520   5.452  13.018  1.00  0.00     0.056 A 
ATOM     15  C   UNL A   1      14.361   5.098  12.325  1.00  0.00     0.103 A 
ATOM     16  C   UNL A   1      14.376   5.022  10.933  1.00  0.00     0.108 A 
ATOM     17  C   UNL A   1      15.549   5.301  10.232  1.00  0.00     0.041 A 
ATOM     18  C   UNL A   1      16.708   5.655  10.924  1.00  0.00     0.020 A 
BRANCH  15  19
ATOM     19  O   UNL A   1      13.222   4.828  13.020  1.00  0.00    -0.348 OA
BRANCH  19  20
ATOM     20  C   UNL A   1      12.798   5.800  13.974  1.00  0.00     0.180 C 
BRANCH  20  21
ATOM     21  C   UNL A   1      12.295   7.009  13.263  1.00  0.00     0.010 A 
ATOM     22  C   UNL A   1      11.726   8.139  14.064  1.00  0.00     0.007 A 
ATOM     23  C   UNL A   1      13.055   8.293  13.386  1.00  0.00     0.007 A 
ENDBRANCH  20  21
ENDBRANCH  19  20
ENDBRANCH  15  19
BRANCH  16  24
ATOM     24  O   UNL A   1      13.251   4.679  10.246  1.00  0.00    -0.287 OA
BRANCH  24  25
ATOM     25  C   UNL A   1      13.417   3.890   9.074  1.00  0.00     0.505 C 
ATOM     26  F   UNL A   1      12.907   2.658   9.334  1.00  0.00    -0.184 F 
ATOM     27  F   UNL A   1      12.666   4.415   8.075  1.00  0.00    -0.184 F 
ENDBRANCH  24  25
ENDBRANCH  16  24
ENDBRANCH  10  13
ENDBRANCH   4   9
TORSDOF 7
ENDMDL
MODEL 4
REMARK VINA RESULT:      -7.1      4.116      4.823
REMARK  7 active torsions:
REMARK  status: ('A' for Active; 'I' for Inactive)
REMARK    1  A    between atoms: O_5  and  C_13 
REMARK    2  A    between atoms: O_5  and  C_14 
REMARK    3  A    between atoms: O_6  and  C_15 
REMARK    4  A    between atoms: O_6  and  C_22 
REMARK       I    between atoms: N_8  and  C_20 
REMARK    5  A    between atoms: N_8  and  C_21 
REMARK    6  A    between atoms: C_10  and  C_13 
REMARK    7  A    between atoms: C_17  and  C_20 
ROOT
ATOM      1 CL   UNL A   1      18.760   4.222  15.953  1.00  0.00    -0.080 Cl
ATOM      2 CL   UNL A   1      21.047   6.485  11.531  1.00  0.00    -0.080 Cl
ATOM      3  N   UNL A   1      22.412   5.567  15.149  1.00  0.00    -0.270 NA
ATOM      4  C   UNL A   1      19.994   5.361  13.793  1.00  0.00     0.081 A 
ATOM      5  C   UNL A   1      20.084   4.914  15.098  1.00  0.00     0.080 A 
ATOM      6  C   UNL A   1      21.091   5.910  13.154  1.00  0.00     0.080 A 
ATOM      7  C   UNL A   1      21.311   5.039  15.730  1.00  0.00     0.142 A 
ATOM      8  C   UNL A   1      22.272   5.990  13.872  1.00  0.00     0.142 A 
ENDROOT
BRANCH   4   9
ATOM      9  N   UNL A   1      18.762   5.255  13.102  1.00  0.00    -0.320 N 
ATOM     10  C   UNL A   1      17.764   6.226  12.944  1.00  0.00     0.256 C 
ATOM     11  O   UNL A   1      17.809   7.378  13.407  1.00  0.00    -0.267 OA
ATOM     12  H   UNL A   1      18.585   4.386  12.676  1.00  0.00     0.169 HD
BRANCH  10  13
ATOM     13  C   UNL A   1      16.587   5.811  12.196  1.00  0.00     0.035 A 
ATOM     14  C   UNL A   1      15.426   5.439  12.874  1.00  0.00     0.056 A 
ATOM     15  C   UNL A   1      14.298   5.040  12.156  1.00  0.00     0.103 A 
ATOM     16  C   UNL A   1      14.332   5.012  10.762  1.00  0.00     0.108 A 
ATOM     17  C   UNL A   1      15.493   5.383  10.085  1.00  0.00     0.041 A 
ATOM     18  C   UNL A   1      16.621   5.783  10.802  1.00  0.00     0.020 A 
BRANCH  15  19
ATOM     19  O   UNL A   1      13.170   4.679  12.828  1.00  0.00    -0.348 OA
BRANCH  19  20
ATOM     20  C   UNL A   1      12.719   5.557  13.857  1.00  0.00     0.180 C 
BRANCH  20  21
ATOM     21  C   UNL A   1      12.000   6.711  13.249  1.00  0.00     0.010 A 
ATOM     22  C   UNL A   1      11.583   7.852  14.125  1.00  0.00     0.007 A 
ATOM     23  C   UNL A   1      12.700   8.029  13.140  1.00  0.00     0.007 A 
ENDBRANCH  20  21
ENDBRANCH  19  20
ENDBRANCH  15  19
BRANCH  16  24
ATOM     24  O   UNL A   1      13.237   4.625  10.050  1.00  0.00    -0.287 OA
BRANCH  24  25
ATOM     25  C   UNL A   1      13.383   3.509   9.181  1.00  0.00     0.505 C 
ATOM     26  F   UNL A   1      12.717   2.465   9.740  1.00  0.00    -0.184 F 
ATOM     27  F   UNL A   1      12.764   3.776   8.006  1.00  0.00    -0.184 F 
ENDBRANCH  24  25
ENDBRANCH  16  24
ENDBRANCH  10  13
ENDBRANCH   4   9
TORSDOF 7
ENDMDL
MODEL 5
REMARK VINA RESULT:      -7.0      2.981      3.882
REMARK  7 active torsions:
REMARK  status: ('A' for Active; 'I' for Inactive)
REMARK    1  A    between atoms: O_5  and  C_13 
REMARK    2  A    between atoms: O_5  and  C_14 
REMARK    3  A    between atoms: O_6  and  C_15 
REMARK    4  A    between atoms: O_6  and  C_22 
REMARK       I    between atoms: N_8  and  C_20 
REMARK    5  A    between atoms: N_8  and  C_21 
REMARK    6  A    between atoms: C_10  and  C_13 
REMARK    7  A    between atoms: C_17  and  C_20 
ROOT
ATOM      1 CL   UNL A   1      21.032   6.692  13.200  1.00  0.00    -0.080 Cl
ATOM      2 CL   UNL A   1      17.135   8.367  16.653  1.00  0.00    -0.080 Cl
ATOM      3  N   UNL A   1      21.107   8.424  16.776  1.00  0.00    -0.270 NA
ATOM      4  C   UNL A   1      19.157   7.562  14.993  1.00  0.00     0.081 A 
ATOM      5  C   UNL A   1      20.492   7.405  14.672  1.00  0.00     0.080 A 
ATOM      6  C   UNL A   1      18.779   8.141  16.190  1.00  0.00     0.080 A 
ATOM      7  C   UNL A   1      21.426   7.850  15.594  1.00  0.00     0.142 A 
ATOM      8  C   UNL A   1      19.789   8.554  17.044  1.00  0.00     0.142 A 
ENDROOT
BRANCH   4   9
ATOM      9  N   UNL A   1      18.163   7.124  14.084  1.00  0.00    -0.320 N 
ATOM     10  C   UNL A   1      17.507   5.886  14.038  1.00  0.00     0.256 C 
ATOM     11  O   UNL A   1      17.706   4.944  14.822  1.00  0.00    -0.267 OA
ATOM     12  H   UNL A   1      17.899   7.775  13.394  1.00  0.00     0.169 HD
BRANCH  10  13
ATOM     13  C   UNL A   1      16.543   5.719  12.961  1.00  0.00     0.035 A 
ATOM     14  C   UNL A   1      15.187   5.573  13.255  1.00  0.00     0.056 A 
ATOM     15  C   UNL A   1      14.264   5.411  12.222  1.00  0.00     0.103 A 
ATOM     16  C   UNL A   1      14.696   5.394  10.896  1.00  0.00     0.108 A 
ATOM     17  C   UNL A   1      16.052   5.540  10.602  1.00  0.00     0.041 A 
ATOM     18  C   UNL A   1      16.975   5.702  11.635  1.00  0.00     0.020 A 
BRANCH  15  19
ATOM     19  O   UNL A   1      12.943   5.269  12.520  1.00  0.00    -0.348 OA
BRANCH  19  20
ATOM     20  C   UNL A   1      12.388   6.187  13.461  1.00  0.00     0.180 C 
BRANCH  20  21
ATOM     21  C   UNL A   1      12.537   7.578  12.947  1.00  0.00     0.010 A 
ATOM     22  C   UNL A   1      11.758   8.680  13.595  1.00  0.00     0.007 A 
ATOM     23  C   UNL A   1      13.243   8.593  13.791  1.00  0.00     0.007 A 
ENDBRANCH  20  21
ENDBRANCH  19  20
ENDBRANCH  15  19
BRANCH  16  24
ATOM     24  O   UNL A   1      13.804   5.238   9.879  1.00  0.00    -0.287 OA
BRANCH  24  25
ATOM     25  C   UNL A   1      13.703   3.947   9.291  1.00  0.00     0.505 C 
ATOM     26  F   UNL A   1      12.886   3.201  10.079  1.00  0.00    -0.184 F 
ATOM     27  F   UNL A   1      13.087   4.054   8.088  1.00  0.00    -0.184 F 
ENDBRANCH  24  25
ENDBRANCH  16  24
ENDBRANCH  10  13
ENDBRANCH   4   9
TORSDOF 7
ENDMDL
MODEL 6
REMARK VINA RESULT:      -7.0      1.825      2.904
REMARK  7 active torsions:
REMARK  status: ('A' for Active; 'I' for Inactive)
REMARK    1  A    between atoms: O_5  and  C_13 
REMARK    2  A    between atoms: O_5  and  C_14 
REMARK    3  A    between atoms: O_6  and  C_15 
REMARK    4  A    between atoms: O_6  and  C_22 
REMARK       I    between atoms: N_8  and  C_20 
REMARK    5  A    between atoms: N_8  and  C_21 
REMARK    6  A    between atoms: C_10  and  C_13 
REMARK    7  A    between atoms: C_17  and  C_20 
ROOT
ATOM      1 CL   UNL A   1      13.244   5.765  19.373  1.00  0.00    -0.080 Cl
ATOM      2 CL   UNL A   1      17.325   8.575  17.057  1.00  0.00    -0.080 Cl
ATOM      3  N   UNL A   1      16.221   7.961  20.826  1.00  0.00    -0.270 NA
ATOM      4  C   UNL A   1      15.318   7.199  18.310  1.00  0.00     0.081 A 
ATOM      5  C   UNL A   1      14.643   6.768  19.436  1.00  0.00     0.080 A 
ATOM      6  C   UNL A   1      16.437   8.004  18.418  1.00  0.00     0.080 A 
ATOM      7  C   UNL A   1      15.132   7.176  20.667  1.00  0.00     0.142 A 
ATOM      8  C   UNL A   1      16.847   8.356  19.694  1.00  0.00     0.142 A 
ENDROOT
BRANCH   4   9
ATOM      9  N   UNL A   1      14.859   6.810  17.028  1.00  0.00    -0.320 N 
ATOM     10  C   UNL A   1      15.180   5.656  16.298  1.00  0.00     0.256 C 
ATOM     11  O   UNL A   1      15.950   4.761  16.683  1.00  0.00    -0.267 OA
ATOM     12  H   UNL A   1      14.232   7.431  16.592  1.00  0.00     0.169 HD
BRANCH  10  13
ATOM     13  C   UNL A   1      14.566   5.545  14.984  1.00  0.00     0.035 A 
ATOM     14  C   UNL A   1      14.958   6.403  13.957  1.00  0.00     0.056 A 
ATOM     15  C   UNL A   1      14.368   6.296  12.697  1.00  0.00     0.103 A 
ATOM     16  C   UNL A   1      13.386   5.332  12.466  1.00  0.00     0.108 A 
ATOM     17  C   UNL A   1      12.994   4.475  13.494  1.00  0.00     0.041 A 
ATOM     18  C   UNL A   1      13.585   4.581  14.753  1.00  0.00     0.020 A 
BRANCH  15  19
ATOM     19  O   UNL A   1      14.758   7.139  11.701  1.00  0.00    -0.348 OA
BRANCH  19  20
ATOM     20  C   UNL A   1      16.158   7.373  11.561  1.00  0.00     0.180 C 
BRANCH  20  21
ATOM     21  C   UNL A   1      16.842   6.100  11.200  1.00  0.00     0.010 A 
ATOM     22  C   UNL A   1      18.133   6.158  10.442  1.00  0.00     0.007 A 
ATOM     23  C   UNL A   1      18.125   5.745  11.884  1.00  0.00     0.007 A 
ENDBRANCH  20  21
ENDBRANCH  19  20
ENDBRANCH  15  19
BRANCH  16  24
ATOM     24  O   UNL A   1      12.804   5.218  11.240  1.00  0.00    -0.287 OA
BRANCH  24  25
ATOM     25  C   UNL A   1      13.207   4.124  10.424  1.00  0.00     0.505 C 
ATOM     26  F   UNL A   1      12.405   4.112   9.328  1.00  0.00    -0.184 F 
ATOM     27  F   UNL A   1      14.468   4.344   9.977  1.00  0.00    -0.184 F 
ENDBRANCH  24  25
ENDBRANCH  16  24
ENDBRANCH  10  13
ENDBRANCH   4   9
TORSDOF 7
ENDMDL
MODEL 7
REMARK VINA RESULT:      -7.0      2.248      2.703
REMARK  7 active torsions:
REMARK  status: ('A' for Active; 'I' for Inactive)
REMARK    1  A    between atoms: O_5  and  C_13 
REMARK    2  A    between atoms: O_5  and  C_14 
REMARK    3  A    between atoms: O_6  and  C_15 
REMARK    4  A    between atoms: O_6  and  C_22 
REMARK       I    between atoms: N_8  and  C_20 
REMARK    5  A    between atoms: N_8  and  C_21 
REMARK    6  A    between atoms: C_10  and  C_13 
REMARK    7  A    between atoms: C_17  and  C_20 
ROOT
ATOM      1 CL   UNL A   1      17.744   2.965  16.614  1.00  0.00    -0.080 Cl
ATOM      2 CL   UNL A   1      16.517   8.288  16.877  1.00  0.00    -0.080 Cl
ATOM      3  N   UNL A   1      18.154   5.729  19.440  1.00  0.00    -0.270 NA
ATOM      4  C   UNL A   1      17.168   5.630  16.843  1.00  0.00     0.081 A 
ATOM      5  C   UNL A   1      17.679   4.484  17.422  1.00  0.00     0.080 A 
ATOM      6  C   UNL A   1      17.140   6.825  17.538  1.00  0.00     0.080 A 
ATOM      7  C   UNL A   1      18.158   4.585  18.719  1.00  0.00     0.142 A 
ATOM      8  C   UNL A   1      17.643   6.822  18.829  1.00  0.00     0.142 A 
ENDROOT
BRANCH   4   9
ATOM      9  N   UNL A   1      16.666   5.580  15.519  1.00  0.00    -0.320 N 
ATOM     10  C   UNL A   1      17.374   5.668  14.313  1.00  0.00     0.256 C 
ATOM     11  O   UNL A   1      18.604   5.811  14.218  1.00  0.00    -0.267 OA
ATOM     12  H   UNL A   1      15.691   5.468  15.436  1.00  0.00     0.169 HD
BRANCH  10  13
ATOM     13  C   UNL A   1      16.573   5.611  13.100  1.00  0.00     0.035 A 
ATOM     14  C   UNL A   1      15.183   5.526  13.186  1.00  0.00     0.056 A 
ATOM     15  C   UNL A   1      14.415   5.470  12.023  1.00  0.00     0.103 A 
ATOM     16  C   UNL A   1      15.037   5.499  10.775  1.00  0.00     0.108 A 
ATOM     17  C   UNL A   1      16.427   5.584  10.689  1.00  0.00     0.041 A 
ATOM     18  C   UNL A   1      17.194   5.640  11.852  1.00  0.00     0.020 A 
BRANCH  15  19
ATOM     19  O   UNL A   1      13.059   5.387  12.118  1.00  0.00    -0.348 OA
BRANCH  19  20
ATOM     20  C   UNL A   1      12.436   6.139  13.158  1.00  0.00     0.180 C 
BRANCH  20  21
ATOM     21  C   UNL A   1      12.451   7.586  12.805  1.00  0.00     0.010 A 
ATOM     22  C   UNL A   1      11.731   8.558  13.688  1.00  0.00     0.007 A 
ATOM     23  C   UNL A   1      13.231   8.535  13.660  1.00  0.00     0.007 A 
ENDBRANCH  20  21
ENDBRANCH  19  20
ENDBRANCH  15  19
BRANCH  16  24
ATOM     24  O   UNL A   1      14.298   5.446   9.632  1.00  0.00    -0.287 OA
BRANCH  24  25
ATOM     25  C   UNL A   1      13.737   4.189   9.274  1.00  0.00     0.505 C 
ATOM     26  F   UNL A   1      12.758   4.423   8.360  1.00  0.00    -0.184 F 
ATOM     27  F   UNL A   1      14.679   3.444   8.647  1.00  0.00    -0.184 F 
ENDBRANCH  24  25
ENDBRANCH  16  24
ENDBRANCH  10  13
ENDBRANCH   4   9
TORSDOF 7
ENDMDL
MODEL 8
REMARK VINA RESULT:      -6.8      2.257      4.024
REMARK  7 active torsions:
REMARK  status: ('A' for Active; 'I' for Inactive)
REMARK    1  A    between atoms: O_5  and  C_13 
REMARK    2  A    between atoms: O_5  and  C_14 
REMARK    3  A    between atoms: O_6  and  C_15 
REMARK    4  A    between atoms: O_6  and  C_22 
REMARK       I    between atoms: N_8  and  C_20 
REMARK    5  A    between atoms: N_8  and  C_21 
REMARK    6  A    between atoms: C_10  and  C_13 
REMARK    7  A    between atoms: C_17  and  C_20 
ROOT
ATOM      1 CL   UNL A   1      13.779   5.650  17.501  1.00  0.00    -0.080 Cl
ATOM      2 CL   UNL A   1      18.187   8.285  15.620  1.00  0.00    -0.080 Cl
ATOM      3  N   UNL A   1      16.570   7.890  19.229  1.00  0.00    -0.270 NA
ATOM      4  C   UNL A   1      16.004   7.001  16.657  1.00  0.00     0.081 A 
ATOM      5  C   UNL A   1      15.174   6.639  17.701  1.00  0.00     0.080 A 
ATOM      6  C   UNL A   1      17.112   7.799  16.874  1.00  0.00     0.080 A 
ATOM      7  C   UNL A   1      15.499   7.109  18.964  1.00  0.00     0.142 A 
ATOM      8  C   UNL A   1      17.351   8.216  18.174  1.00  0.00     0.142 A 
ENDROOT
BRANCH   4   9
ATOM      9  N   UNL A   1      15.717   6.547  15.346  1.00  0.00    -0.320 N 
ATOM     10  C   UNL A   1      14.780   7.051  14.433  1.00  0.00     0.256 C 
ATOM     11  O   UNL A   1      14.027   8.016  14.645  1.00  0.00    -0.267 OA
ATOM     12  H   UNL A   1      16.244   5.776  15.036  1.00  0.00     0.169 HD
BRANCH  10  13
ATOM     13  C   UNL A   1      14.694   6.352  13.161  1.00  0.00     0.035 A 
ATOM     14  C   UNL A   1      15.822   6.241  12.348  1.00  0.00     0.056 A 
ATOM     15  C   UNL A   1      15.737   5.571  11.127  1.00  0.00     0.103 A 
ATOM     16  C   UNL A   1      14.526   5.012  10.720  1.00  0.00     0.108 A 
ATOM     17  C   UNL A   1      13.398   5.123  11.533  1.00  0.00     0.041 A 
ATOM     18  C   UNL A   1      13.482   5.793  12.754  1.00  0.00     0.020 A 
BRANCH  15  19
ATOM     19  O   UNL A   1      16.845   5.468  10.341  1.00  0.00    -0.348 OA
BRANCH  19  20
ATOM     20  C   UNL A   1      17.939   6.329  10.648  1.00  0.00     0.180 C 
BRANCH  20  21
ATOM     21  C   UNL A   1      19.014   5.548  11.324  1.00  0.00     0.010 A 
ATOM     22  C   UNL A   1      20.305   6.227  11.659  1.00  0.00     0.007 A 
ATOM     23  C   UNL A   1      19.347   5.855  12.751  1.00  0.00     0.007 A 
ENDBRANCH  20  21
ENDBRANCH  19  20
ENDBRANCH  15  19
BRANCH  16  24
ATOM     24  O   UNL A   1      14.432   4.355   9.531  1.00  0.00    -0.287 OA
BRANCH  24  25
ATOM     25  C   UNL A   1      13.157   3.838   9.169  1.00  0.00     0.505 C 
ATOM     26  F   UNL A   1      13.068   3.879   7.814  1.00  0.00    -0.184 F 
ATOM     27  F   UNL A   1      13.090   2.531   9.521  1.00  0.00    -0.184 F 
ENDBRANCH  24  25
ENDBRANCH  16  24
ENDBRANCH  10  13
ENDBRANCH   4   9
TORSDOF 7
ENDMDL
MODEL 9
REMARK VINA RESULT:      -6.7      4.437      7.724
REMARK  7 active torsions:
REMARK  status: ('A' for Active; 'I' for Inactive)
REMARK    1  A    between atoms: O_5  and  C_13 
REMARK    2  A    between atoms: O_5  and  C_14 
REMARK    3  A    between atoms: O_6  and  C_15 
REMARK    4  A    between atoms: O_6  and  C_22 
REMARK       I    between atoms: N_8  and  C_20 
REMARK    5  A    between atoms: N_8  and  C_21 
REMARK    6  A    between atoms: C_10  and  C_13 
REMARK    7  A    between atoms: C_17  and  C_20 
ROOT
ATOM      1 CL   UNL A   1      12.574   4.737  12.540  1.00  0.00    -0.080 Cl
ATOM      2 CL   UNL A   1      17.810   6.295  12.283  1.00  0.00    -0.080 Cl
ATOM      3  N   UNL A   1      15.221   4.951   9.584  1.00  0.00    -0.270 NA
ATOM      4  C   UNL A   1      15.193   5.496  12.309  1.00  0.00     0.081 A 
ATOM      5  C   UNL A   1      14.048   5.020  11.697  1.00  0.00     0.080 A 
ATOM      6  C   UNL A   1      16.351   5.704  11.584  1.00  0.00     0.080 A 
ATOM      7  C   UNL A   1      14.114   4.763  10.337  1.00  0.00     0.142 A 
ATOM      8  C   UNL A   1      16.314   5.418  10.229  1.00  0.00     0.142 A 
ENDROOT
BRANCH   4   9
ATOM      9  N   UNL A   1      15.178   5.774  13.698  1.00  0.00    -0.320 N 
ATOM     10  C   UNL A   1      14.730   6.930  14.352  1.00  0.00     0.256 C 
ATOM     11  O   UNL A   1      14.256   7.930  13.788  1.00  0.00    -0.267 OA
ATOM     12  H   UNL A   1      15.529   5.062  14.280  1.00  0.00     0.169 HD
BRANCH  10  13
ATOM     13  C   UNL A   1      14.868   6.934  15.800  1.00  0.00     0.035 A 
ATOM     14  C   UNL A   1      15.883   7.678  16.401  1.00  0.00     0.056 A 
ATOM     15  C   UNL A   1      16.016   7.681  17.790  1.00  0.00     0.103 A 
ATOM     16  C   UNL A   1      15.134   6.940  18.577  1.00  0.00     0.108 A 
ATOM     17  C   UNL A   1      14.119   6.195  17.975  1.00  0.00     0.041 A 
ATOM     18  C   UNL A   1      13.987   6.193  16.587  1.00  0.00     0.020 A 
BRANCH  15  19
ATOM     19  O   UNL A   1      17.011   8.411  18.367  1.00  0.00    -0.348 OA
BRANCH  19  20
ATOM     20  C   UNL A   1      17.873   9.136  17.492  1.00  0.00     0.180 C 
BRANCH  20  21
ATOM     21  C   UNL A   1      18.699  10.090  18.285  1.00  0.00     0.010 A 
ATOM     22  C   UNL A   1      20.066  10.451  17.792  1.00  0.00     0.007 A 
ATOM     23  C   UNL A   1      18.956  11.458  17.736  1.00  0.00     0.007 A 
ENDBRANCH  20  21
ENDBRANCH  19  20
ENDBRANCH  15  19
BRANCH  16  24
ATOM     24  O   UNL A   1      15.253   6.935  19.934  1.00  0.00    -0.287 OA
BRANCH  24  25
ATOM     25  C   UNL A   1      15.224   5.673  20.588  1.00  0.00     0.505 C 
ATOM     26  F   UNL A   1      16.432   5.082  20.392  1.00  0.00    -0.184 F 
ATOM     27  F   UNL A   1      15.102   5.867  21.924  1.00  0.00    -0.184 F 
ENDBRANCH  24  25
ENDBRANCH  16  24
ENDBRANCH  10  13
ENDBRANCH   4   9
TORSDOF 7
ENDMDL
