MODEL 1
REMARK VINA RESULT:      -7.3      0.000      0.000
REMARK  7 active torsions:
REMARK  status: ('A' for Active; 'I' for Inactive)
REMARK    1  A    between atoms: O_5  and  C_13 
REMARK    2  A    between atoms: O_5  and  C_14 
REMARK    3  A    between atoms: O_6  and  C_15 
REMARK    4  A    between atoms: O_6  and  C_22 
REMARK       I    between atoms: N_8  and  C_20 
REMARK    5  A    between atoms: N_8  and  C_21 
REMARK    6  A    between atoms: C_10  and  C_13 
REMARK    7  A    between atoms: C_17  and  C_20 
ROOT
ATOM      1 CL   UNL A   1      13.294   5.909  19.012  1.00  0.00    -0.080 Cl
ATOM      2 CL   UNL A   1      17.729   8.665  17.384  1.00  0.00    -0.080 Cl
ATOM      3  N   UNL A   1      16.185   7.828  20.950  1.00  0.00    -0.270 NA
ATOM      4  C   UNL A   1      15.536   7.306  18.298  1.00  0.00     0.081 A 
ATOM      5  C   UNL A   1      14.720   6.828  19.306  1.00  0.00     0.080 A 
ATOM      6  C   UNL A   1      16.670   8.041  18.591  1.00  0.00     0.080 A 
ATOM      7  C   UNL A   1      15.087   7.115  20.611  1.00  0.00     0.142 A 
ATOM      8  C   UNL A   1      16.950   8.273  19.928  1.00  0.00     0.142 A 
ENDROOT
BRANCH   4   9
ATOM      9  N   UNL A   1      15.206   7.040  16.946  1.00  0.00    -0.320 N 
ATOM     10  C   UNL A   1      15.535   5.919  16.172  1.00  0.00     0.256 C 
ATOM     11  O   UNL A   1      16.195   4.945  16.571  1.00  0.00    -0.267 OA
ATOM     12  H   UNL A   1      14.675   7.734  16.492  1.00  0.00     0.169 HD
BRANCH  10  13
ATOM     13  C   UNL A   1      15.073   5.942  14.793  1.00  0.00     0.035 A 
ATOM     14  C   UNL A   1      13.772   6.352  14.500  1.00  0.00     0.056 A 
ATOM     15  C   UNL A   1      13.330   6.373  13.177  1.00  0.00     0.103 A 
ATOM     16  C   UNL A   1      14.187   5.985  12.148  1.00  0.00     0.108 A 
ATOM     17  C   UNL A   1      15.488   5.575  12.441  1.00  0.00     0.041 A 
ATOM     18  C   UNL A   1      15.931   5.554  13.764  1.00  0.00     0.020 A 
BRANCH  15  19
ATOM     19  O   UNL A   1      12.057   6.774  12.902  1.00  0.00    -0.348 OA
BRANCH  19  20
ATOM     20  C   UNL A   1      11.563   7.901  13.624  1.00  0.00     0.180 C 
BRANCH  20  21
ATOM     21  C   UNL A   1      12.233   9.139  13.135  1.00  0.00     0.010 A 
ATOM     22  C   UNL A   1      11.552  10.458  13.328  1.00  0.00     0.007 A 
ATOM     23  C   UNL A   1      12.771  10.116  14.132  1.00  0.00     0.007 A 
ENDBRANCH  20  21
ENDBRANCH  19  20
ENDBRANCH  15  19
BRANCH  16  24
ATOM     24  O   UNL A   1      13.767   6.002  10.852  1.00  0.00    -0.287 OA
BRANCH  24  25
ATOM     25  C   UNL A   1      13.364   4.765  10.279  1.00  0.00     0.505 C 
ATOM     26  F   UNL A   1      14.466   4.191   9.729  1.00  0.00    -0.184 F 
ATOM     27  F   UNL A   1      12.948   3.933  11.265  1.00  0.00    -0.184 F 
ENDBRANCH  24  25
ENDBRANCH  16  24
ENDBRANCH  10  13
ENDBRANCH   4   9
TORSDOF 7
ENDMDL
MODEL 2
REMARK VINA RESULT:      -7.2      3.718      4.814
REMARK  7 active torsions:
REMARK  status: ('A' for Active; 'I' for Inactive)
REMARK    1  A    between atoms: O_5  and  C_13 
REMARK    2  A    between atoms: O_5  and  C_14 
REMARK    3  A    between atoms: O_6  and  C_15 
REMARK    4  A    between atoms: O_6  and  C_22 
REMARK       I    between atoms: N_8  and  C_20 
REMARK    5  A    between atoms: N_8  and  C_21 
REMARK    6  A    between atoms: C_10  and  C_13 
REMARK    7  A    between atoms: C_17  and  C_20 
ROOT
ATOM      1 CL   UNL A   1      20.973   3.561  13.287  1.00  0.00    -0.080 Cl
ATOM      2 CL   UNL A   1      18.972   8.189  15.407  1.00  0.00    -0.080 Cl
ATOM      3  N   UNL A   1      22.411   6.245  15.841  1.00  0.00    -0.270 NA
ATOM      4  C   UNL A   1      20.061   5.888  14.401  1.00  0.00     0.081 A 
ATOM      5  C   UNL A   1      21.077   4.958  14.288  1.00  0.00     0.080 A 
ATOM      6  C   UNL A   1      20.197   6.993  15.221  1.00  0.00     0.080 A 
ATOM      7  C   UNL A   1      22.229   5.181  15.026  1.00  0.00     0.142 A 
ATOM      8  C   UNL A   1      21.388   7.126  15.917  1.00  0.00     0.142 A 
ENDROOT
BRANCH   4   9
ATOM      9  N   UNL A   1      18.863   5.707  13.667  1.00  0.00    -0.320 N 
ATOM     10  C   UNL A   1      18.615   5.992  12.317  1.00  0.00     0.256 C 
ATOM     11  O   UNL A   1      19.444   6.468  11.525  1.00  0.00    -0.267 OA
ATOM     12  H   UNL A   1      18.106   5.331  14.171  1.00  0.00     0.169 HD
BRANCH  10  13
ATOM     13  C   UNL A   1      17.264   5.721  11.849  1.00  0.00     0.035 A 
ATOM     14  C   UNL A   1      16.213   5.637  12.762  1.00  0.00     0.056 A 
ATOM     15  C   UNL A   1      14.919   5.375  12.312  1.00  0.00     0.103 A 
ATOM     16  C   UNL A   1      14.676   5.198  10.951  1.00  0.00     0.108 A 
ATOM     17  C   UNL A   1      15.727   5.282  10.037  1.00  0.00     0.041 A 
ATOM     18  C   UNL A   1      17.021   5.543  10.487  1.00  0.00     0.020 A 
BRANCH  15  19
ATOM     19  O   UNL A   1      13.900   5.295  13.213  1.00  0.00    -0.348 OA
BRANCH  19  20
ATOM     20  C   UNL A   1      13.659   6.444  14.022  1.00  0.00     0.180 C 
BRANCH  20  21
ATOM     21  C   UNL A   1      13.265   7.591  13.155  1.00  0.00     0.010 A 
ATOM     22  C   UNL A   1      11.817   7.792  12.830  1.00  0.00     0.007 A 
ATOM     23  C   UNL A   1      12.517   8.737  13.761  1.00  0.00     0.007 A 
ENDBRANCH  20  21
ENDBRANCH  19  20
ENDBRANCH  15  19
BRANCH  16  24
ATOM     24  O   UNL A   1      13.416   4.944  10.499  1.00  0.00    -0.287 OA
BRANCH  24  25
ATOM     25  C   UNL A   1      13.289   4.121   9.346  1.00  0.00     0.505 C 
ATOM     26  F   UNL A   1      12.650   2.983   9.724  1.00  0.00    -0.184 F 
ATOM     27  F   UNL A   1      12.482   4.736   8.448  1.00  0.00    -0.184 F 
ENDBRANCH  24  25
ENDBRANCH  16  24
ENDBRANCH  10  13
ENDBRANCH   4   9
TORSDOF 7
ENDMDL
MODEL 3
REMARK VINA RESULT:      -7.2      3.672      4.719
REMARK  7 active torsions:
REMARK  status: ('A' for Active; 'I' for Inactive)
REMARK    1  A    between atoms: O_5  and  C_13 
REMARK    2  A    between atoms: O_5  and  C_14 
REMARK    3  A    between atoms: O_6  and  C_15 
REMARK    4  A    between atoms: O_6  and  C_22 
REMARK       I    between atoms: N_8  and  C_20 
REMARK    5  A    between atoms: N_8  and  C_21 
REMARK    6  A    between atoms: C_10  and  C_13 
REMARK    7  A    between atoms: C_17  and  C_20 
ROOT
ATOM      1 CL   UNL A   1      18.622   8.254  15.454  1.00  0.00    -0.080 Cl
ATOM      2 CL   UNL A   1      20.865   3.716  13.384  1.00  0.00    -0.080 Cl
ATOM      3  N   UNL A   1      22.125   6.452  15.977  1.00  0.00    -0.270 NA
ATOM      4  C   UNL A   1      19.830   6.003  14.476  1.00  0.00     0.081 A 
ATOM      5  C   UNL A   1      19.899   7.110  15.299  1.00  0.00     0.080 A 
ATOM      6  C   UNL A   1      20.886   5.115  14.388  1.00  0.00     0.080 A 
ATOM      7  C   UNL A   1      21.065   7.290  16.026  1.00  0.00     0.142 A 
ATOM      8  C   UNL A   1      22.008   5.384  15.157  1.00  0.00     0.142 A 
ENDROOT
BRANCH   4   9
ATOM      9  N   UNL A   1      18.659   5.773  13.711  1.00  0.00    -0.320 N 
ATOM     10  C   UNL A   1      18.447   6.013  12.346  1.00  0.00     0.256 C 
ATOM     11  O   UNL A   1      19.290   6.486  11.566  1.00  0.00    -0.267 OA
ATOM     12  H   UNL A   1      17.895   5.394  14.203  1.00  0.00     0.169 HD
BRANCH  10  13
ATOM     13  C   UNL A   1      17.118   5.698  11.846  1.00  0.00     0.035 A 
ATOM     14  C   UNL A   1      16.052   5.562  12.735  1.00  0.00     0.056 A 
ATOM     15  C   UNL A   1      14.778   5.259  12.254  1.00  0.00     0.103 A 
ATOM     16  C   UNL A   1      14.571   5.090  10.885  1.00  0.00     0.108 A 
ATOM     17  C   UNL A   1      15.637   5.225   9.996  1.00  0.00     0.041 A 
ATOM     18  C   UNL A   1      16.911   5.529  10.477  1.00  0.00     0.020 A 
BRANCH  15  19
ATOM     19  O   UNL A   1      13.744   5.129  13.130  1.00  0.00    -0.348 OA
BRANCH  19  20
ATOM     20  C   UNL A   1      13.581   6.164  14.098  1.00  0.00     0.180 C 
BRANCH  20  21
ATOM     21  C   UNL A   1      12.211   6.739  13.986  1.00  0.00     0.010 A 
ATOM     22  C   UNL A   1      12.057   8.210  13.750  1.00  0.00     0.007 A 
ATOM     23  C   UNL A   1      11.737   7.234  12.656  1.00  0.00     0.007 A 
ENDBRANCH  20  21
ENDBRANCH  19  20
ENDBRANCH  15  19
BRANCH  16  24
ATOM     24  O   UNL A   1      13.331   4.794  10.403  1.00  0.00    -0.287 OA
BRANCH  24  25
ATOM     25  C   UNL A   1      13.259   4.141   9.141  1.00  0.00     0.505 C 
ATOM     26  F   UNL A   1      12.707   2.917   9.345  1.00  0.00    -0.184 F 
ATOM     27  F   UNL A   1      12.405   4.821   8.338  1.00  0.00    -0.184 F 
ENDBRANCH  24  25
ENDBRANCH  16  24
ENDBRANCH  10  13
ENDBRANCH   4   9
TORSDOF 7
ENDMDL
MODEL 4
REMARK VINA RESULT:      -7.2      2.521      3.243
REMARK  7 active torsions:
REMARK  status: ('A' for Active; 'I' for Inactive)
REMARK    1  A    between atoms: O_5  and  C_13 
REMARK    2  A    between atoms: O_5  and  C_14 
REMARK    3  A    between atoms: O_6  and  C_15 
REMARK    4  A    between atoms: O_6  and  C_22 
REMARK       I    between atoms: N_8  and  C_20 
REMARK    5  A    between atoms: N_8  and  C_21 
REMARK    6  A    between atoms: C_10  and  C_13 
REMARK    7  A    between atoms: C_17  and  C_20 
ROOT
ATOM      1 CL   UNL A   1      15.784   7.593  16.614  1.00  0.00    -0.080 Cl
ATOM      2 CL   UNL A   1      19.707   4.181  14.917  1.00  0.00    -0.080 Cl
ATOM      3  N   UNL A   1      19.133   6.238  18.269  1.00  0.00    -0.270 NA
ATOM      4  C   UNL A   1      17.795   5.900  15.856  1.00  0.00     0.081 A 
ATOM      5  C   UNL A   1      17.261   6.733  16.821  1.00  0.00     0.080 A 
ATOM      6  C   UNL A   1      18.987   5.233  16.075  1.00  0.00     0.080 A 
ATOM      7  C   UNL A   1      17.966   6.868  18.006  1.00  0.00     0.142 A 
ATOM      8  C   UNL A   1      19.614   5.435  17.294  1.00  0.00     0.142 A 
ENDROOT
BRANCH   4   9
ATOM      9  N   UNL A   1      17.113   5.727  14.627  1.00  0.00    -0.320 N 
ATOM     10  C   UNL A   1      17.327   6.388  13.409  1.00  0.00     0.256 C 
ATOM     11  O   UNL A   1      18.184   7.266  13.215  1.00  0.00    -0.267 OA
ATOM     12  H   UNL A   1      16.395   5.054  14.628  1.00  0.00     0.169 HD
BRANCH  10  13
ATOM     13  C   UNL A   1      16.441   6.012  12.318  1.00  0.00     0.035 A 
ATOM     14  C   UNL A   1      15.059   6.040  12.501  1.00  0.00     0.056 A 
ATOM     15  C   UNL A   1      14.210   5.677  11.455  1.00  0.00     0.103 A 
ATOM     16  C   UNL A   1      14.744   5.287  10.227  1.00  0.00     0.108 A 
ATOM     17  C   UNL A   1      16.127   5.259  10.044  1.00  0.00     0.041 A 
ATOM     18  C   UNL A   1      16.975   5.621  11.091  1.00  0.00     0.020 A 
BRANCH  15  19
ATOM     19  O   UNL A   1      12.862   5.708  11.644  1.00  0.00    -0.348 OA
BRANCH  19  20
ATOM     20  C   UNL A   1      12.399   5.876  12.982  1.00  0.00     0.180 C 
BRANCH  20  21
ATOM     21  C   UNL A   1      11.598   7.129  13.079  1.00  0.00     0.010 A 
ATOM     22  C   UNL A   1      11.590   7.890  14.369  1.00  0.00     0.007 A 
ATOM     23  C   UNL A   1      12.311   8.442  13.175  1.00  0.00     0.007 A 
ENDBRANCH  20  21
ENDBRANCH  19  20
ENDBRANCH  15  19
BRANCH  16  24
ATOM     24  O   UNL A   1      13.926   4.932   9.197  1.00  0.00    -0.287 OA
BRANCH  24  25
ATOM     25  C   UNL A   1      13.745   3.542   8.955  1.00  0.00     0.505 C 
ATOM     26  F   UNL A   1      12.885   3.071   9.896  1.00  0.00    -0.184 F 
ATOM     27  F   UNL A   1      13.135   3.375   7.757  1.00  0.00    -0.184 F 
ENDBRANCH  24  25
ENDBRANCH  16  24
ENDBRANCH  10  13
ENDBRANCH   4   9
TORSDOF 7
ENDMDL
MODEL 5
REMARK VINA RESULT:      -7.1      1.252      1.532
REMARK  7 active torsions:
REMARK  status: ('A' for Active; 'I' for Inactive)
REMARK    1  A    between atoms: O_5  and  C_13 
REMARK    2  A    between atoms: O_5  and  C_14 
REMARK    3  A    between atoms: O_6  and  C_15 
REMARK    4  A    between atoms: O_6  and  C_22 
REMARK       I    between atoms: N_8  and  C_20 
REMARK    5  A    between atoms: N_8  and  C_21 
REMARK    6  A    between atoms: C_10  and  C_13 
REMARK    7  A    between atoms: C_17  and  C_20 
ROOT
ATOM      1 CL   UNL A   1      13.664   6.039  18.424  1.00  0.00    -0.080 Cl
ATOM      2 CL   UNL A   1      18.331   8.841  17.891  1.00  0.00    -0.080 Cl
ATOM      3  N   UNL A   1      16.079   7.847  21.011  1.00  0.00    -0.270 NA
ATOM      4  C   UNL A   1      16.000   7.455  18.261  1.00  0.00     0.081 A 
ATOM      5  C   UNL A   1      14.994   6.935  19.053  1.00  0.00     0.080 A 
ATOM      6  C   UNL A   1      17.046   8.168  18.818  1.00  0.00     0.080 A 
ATOM      7  C   UNL A   1      15.078   7.158  20.418  1.00  0.00     0.142 A 
ATOM      8  C   UNL A   1      17.039   8.335  20.194  1.00  0.00     0.142 A 
ENDROOT
BRANCH   4   9
ATOM      9  N   UNL A   1      15.961   7.254  16.859  1.00  0.00    -0.320 N 
ATOM     10  C   UNL A   1      16.703   6.351  16.085  1.00  0.00     0.256 C 
ATOM     11  O   UNL A   1      17.545   5.555  16.530  1.00  0.00    -0.267 OA
ATOM     12  H   UNL A   1      15.329   7.824  16.364  1.00  0.00     0.169 HD
BRANCH  10  13
ATOM     13  C   UNL A   1      16.461   6.396  14.651  1.00  0.00     0.035 A 
ATOM     14  C   UNL A   1      15.297   6.985  14.159  1.00  0.00     0.056 A 
ATOM     15  C   UNL A   1      15.065   7.026  12.784  1.00  0.00     0.103 A 
ATOM     16  C   UNL A   1      15.996   6.479  11.902  1.00  0.00     0.108 A 
ATOM     17  C   UNL A   1      17.161   5.889  12.395  1.00  0.00     0.041 A 
ATOM     18  C   UNL A   1      17.393   5.848  13.770  1.00  0.00     0.020 A 
BRANCH  15  19
ATOM     19  O   UNL A   1      13.924   7.604  12.313  1.00  0.00    -0.348 OA
BRANCH  19  20
ATOM     20  C   UNL A   1      12.732   6.823  12.367  1.00  0.00     0.180 C 
BRANCH  20  21
ATOM     21  C   UNL A   1      11.642   7.620  12.998  1.00  0.00     0.010 A 
ATOM     22  C   UNL A   1      11.655   7.824  14.481  1.00  0.00     0.007 A 
ATOM     23  C   UNL A   1      11.961   8.969  13.562  1.00  0.00     0.007 A 
ENDBRANCH  20  21
ENDBRANCH  19  20
ENDBRANCH  15  19
BRANCH  16  24
ATOM     24  O   UNL A   1      15.782   6.514  10.557  1.00  0.00    -0.287 OA
BRANCH  24  25
ATOM     25  C   UNL A   1      15.255   5.341   9.949  1.00  0.00     0.505 C 
ATOM     26  F   UNL A   1      16.304   4.624   9.467  1.00  0.00    -0.184 F 
ATOM     27  F   UNL A   1      14.666   4.573  10.898  1.00  0.00    -0.184 F 
ENDBRANCH  24  25
ENDBRANCH  16  24
ENDBRANCH  10  13
ENDBRANCH   4   9
TORSDOF 7
ENDMDL
MODEL 6
REMARK VINA RESULT:      -7.1      0.592      1.976
REMARK  7 active torsions:
REMARK  status: ('A' for Active; 'I' for Inactive)
REMARK    1  A    between atoms: O_5  and  C_13 
REMARK    2  A    between atoms: O_5  and  C_14 
REMARK    3  A    between atoms: O_6  and  C_15 
REMARK    4  A    between atoms: O_6  and  C_22 
REMARK       I    between atoms: N_8  and  C_20 
REMARK    5  A    between atoms: N_8  and  C_21 
REMARK    6  A    between atoms: C_10  and  C_13 
REMARK    7  A    between atoms: C_17  and  C_20 
ROOT
ATOM      1 CL   UNL A   1      17.466   8.893  17.493  1.00  0.00    -0.080 Cl
ATOM      2 CL   UNL A   1      13.535   5.576  19.350  1.00  0.00    -0.080 Cl
ATOM      3  N   UNL A   1      16.264   7.849  21.134  1.00  0.00    -0.270 NA
ATOM      4  C   UNL A   1      15.529   7.257  18.520  1.00  0.00     0.081 A 
ATOM      5  C   UNL A   1      16.573   8.131  18.753  1.00  0.00     0.080 A 
ATOM      6  C   UNL A   1      14.845   6.672  19.570  1.00  0.00     0.080 A 
ATOM      7  C   UNL A   1      16.901   8.393  20.074  1.00  0.00     0.142 A 
ATOM      8  C   UNL A   1      15.250   7.000  20.854  1.00  0.00     0.142 A 
ENDROOT
BRANCH   4   9
ATOM      9  N   UNL A   1      15.153   6.956  17.188  1.00  0.00    -0.320 N 
ATOM     10  C   UNL A   1      15.753   6.059  16.293  1.00  0.00     0.256 C 
ATOM     11  O   UNL A   1      16.749   5.361  16.544  1.00  0.00    -0.267 OA
ATOM     12  H   UNL A   1      14.367   7.440  16.846  1.00  0.00     0.169 HD
BRANCH  10  13
ATOM     13  C   UNL A   1      15.152   5.984  14.971  1.00  0.00     0.035 A 
ATOM     14  C   UNL A   1      13.881   6.516  14.751  1.00  0.00     0.056 A 
ATOM     15  C   UNL A   1      13.305   6.443  13.483  1.00  0.00     0.103 A 
ATOM     16  C   UNL A   1      13.999   5.838  12.435  1.00  0.00     0.108 A 
ATOM     17  C   UNL A   1      15.269   5.305  12.655  1.00  0.00     0.041 A 
ATOM     18  C   UNL A   1      15.845   5.379  13.923  1.00  0.00     0.020 A 
BRANCH  15  19
ATOM     19  O   UNL A   1      12.064   6.965  13.279  1.00  0.00    -0.348 OA
BRANCH  19  20
ATOM     20  C   UNL A   1      11.995   8.263  12.690  1.00  0.00     0.180 C 
BRANCH  20  21
ATOM     21  C   UNL A   1      11.761   9.281  13.753  1.00  0.00     0.010 A 
ATOM     22  C   UNL A   1      12.853  10.249  14.085  1.00  0.00     0.007 A 
ATOM     23  C   UNL A   1      11.625  10.719  13.364  1.00  0.00     0.007 A 
ENDBRANCH  20  21
ENDBRANCH  19  20
ENDBRANCH  15  19
BRANCH  16  24
ATOM     24  O   UNL A   1      13.447   5.761  11.192  1.00  0.00    -0.287 OA
BRANCH  24  25
ATOM     25  C   UNL A   1      13.217   4.463  10.658  1.00  0.00     0.505 C 
ATOM     26  F   UNL A   1      12.438   3.788  11.543  1.00  0.00    -0.184 F 
ATOM     27  F   UNL A   1      12.495   4.574   9.516  1.00  0.00    -0.184 F 
ENDBRANCH  24  25
ENDBRANCH  16  24
ENDBRANCH  10  13
ENDBRANCH   4   9
TORSDOF 7
ENDMDL
MODEL 7
REMARK VINA RESULT:      -7.1      4.142      4.821
REMARK  7 active torsions:
REMARK  status: ('A' for Active; 'I' for Inactive)
REMARK    1  A    between atoms: O_5  and  C_13 
REMARK    2  A    between atoms: O_5  and  C_14 
REMARK    3  A    between atoms: O_6  and  C_15 
REMARK    4  A    between atoms: O_6  and  C_22 
REMARK       I    between atoms: N_8  and  C_20 
REMARK    5  A    between atoms: N_8  and  C_21 
REMARK    6  A    between atoms: C_10  and  C_13 
REMARK    7  A    between atoms: C_17  and  C_20 
ROOT
ATOM      1 CL   UNL A   1      18.710   4.184  15.909  1.00  0.00    -0.080 Cl
ATOM      2 CL   UNL A   1      21.023   6.511  11.534  1.00  0.00    -0.080 Cl
ATOM      3  N   UNL A   1      22.357   5.572  15.158  1.00  0.00    -0.270 NA
ATOM      4  C   UNL A   1      19.957   5.356  13.774  1.00  0.00     0.081 A 
ATOM      5  C   UNL A   1      20.037   4.897  15.075  1.00  0.00     0.080 A 
ATOM      6  C   UNL A   1      21.054   5.921  13.151  1.00  0.00     0.080 A 
ATOM      7  C   UNL A   1      21.255   5.028  15.722  1.00  0.00     0.142 A 
ATOM      8  C   UNL A   1      22.227   6.005  13.884  1.00  0.00     0.142 A 
ENDROOT
BRANCH   4   9
ATOM      9  N   UNL A   1      18.733   5.245  13.068  1.00  0.00    -0.320 N 
ATOM     10  C   UNL A   1      17.712   6.196  12.935  1.00  0.00     0.256 C 
ATOM     11  O   UNL A   1      17.726   7.331  13.440  1.00  0.00    -0.267 OA
ATOM     12  H   UNL A   1      18.581   4.387  12.610  1.00  0.00     0.169 HD
BRANCH  10  13
ATOM     13  C   UNL A   1      16.553   5.779  12.163  1.00  0.00     0.035 A 
ATOM     14  C   UNL A   1      15.362   5.455  12.813  1.00  0.00     0.056 A 
ATOM     15  C   UNL A   1      14.250   5.054  12.071  1.00  0.00     0.103 A 
ATOM     16  C   UNL A   1      14.329   4.977  10.681  1.00  0.00     0.108 A 
ATOM     17  C   UNL A   1      15.520   5.301  10.031  1.00  0.00     0.041 A 
ATOM     18  C   UNL A   1      16.632   5.702  10.773  1.00  0.00     0.020 A 
BRANCH  15  19
ATOM     19  O   UNL A   1      13.092   4.740  12.716  1.00  0.00    -0.348 OA
BRANCH  19  20
ATOM     20  C   UNL A   1      12.650   5.641  13.730  1.00  0.00     0.180 C 
BRANCH  20  21
ATOM     21  C   UNL A   1      12.083   6.865  13.096  1.00  0.00     0.010 A 
ATOM     22  C   UNL A   1      11.514   7.939  13.970  1.00  0.00     0.007 A 
ATOM     23  C   UNL A   1      12.809   8.165  13.249  1.00  0.00     0.007 A 
ENDBRANCH  20  21
ENDBRANCH  19  20
ENDBRANCH  15  19
BRANCH  16  24
ATOM     24  O   UNL A   1      13.250   4.589   9.946  1.00  0.00    -0.287 OA
BRANCH  24  25
ATOM     25  C   UNL A   1      13.400   3.438   9.124  1.00  0.00     0.505 C 
ATOM     26  F   UNL A   1      12.754   2.411   9.734  1.00  0.00    -0.184 F 
ATOM     27  F   UNL A   1      12.764   3.648   7.945  1.00  0.00    -0.184 F 
ENDBRANCH  24  25
ENDBRANCH  16  24
ENDBRANCH  10  13
ENDBRANCH   4   9
TORSDOF 7
ENDMDL
MODEL 8
REMARK VINA RESULT:      -7.1      2.816      3.792
REMARK  7 active torsions:
REMARK  status: ('A' for Active; 'I' for Inactive)
REMARK    1  A    between atoms: O_5  and  C_13 
REMARK    2  A    between atoms: O_5  and  C_14 
REMARK    3  A    between atoms: O_6  and  C_15 
REMARK    4  A    between atoms: O_6  and  C_22 
REMARK       I    between atoms: N_8  and  C_20 
REMARK    5  A    between atoms: N_8  and  C_21 
REMARK    6  A    between atoms: C_10  and  C_13 
REMARK    7  A    between atoms: C_17  and  C_20 
ROOT
ATOM      1 CL   UNL A   1      21.019   7.022  13.726  1.00  0.00    -0.080 Cl
ATOM      2 CL   UNL A   1      16.596   8.255  16.698  1.00  0.00    -0.080 Cl
ATOM      3  N   UNL A   1      20.504   8.574  17.348  1.00  0.00    -0.270 NA
ATOM      4  C   UNL A   1      18.869   7.672  15.289  1.00  0.00     0.081 A 
ATOM      5  C   UNL A   1      20.243   7.623  15.141  1.00  0.00     0.080 A 
ATOM      6  C   UNL A   1      18.298   8.164  16.448  1.00  0.00     0.080 A 
ATOM      7  C   UNL A   1      21.014   8.083  16.196  1.00  0.00     0.142 A 
ATOM      8  C   UNL A   1      19.156   8.601  17.445  1.00  0.00     0.142 A 
ENDROOT
BRANCH   4   9
ATOM      9  N   UNL A   1      18.036   7.214  14.239  1.00  0.00    -0.320 N 
ATOM     10  C   UNL A   1      17.485   5.938  14.056  1.00  0.00     0.256 C 
ATOM     11  O   UNL A   1      17.652   4.973  14.820  1.00  0.00    -0.267 OA
ATOM     12  H   UNL A   1      17.814   7.879  13.548  1.00  0.00     0.169 HD
BRANCH  10  13
ATOM     13  C   UNL A   1      16.683   5.759  12.855  1.00  0.00     0.035 A 
ATOM     14  C   UNL A   1      15.300   5.612  12.957  1.00  0.00     0.056 A 
ATOM     15  C   UNL A   1      14.531   5.440  11.805  1.00  0.00     0.103 A 
ATOM     16  C   UNL A   1      15.146   5.415  10.553  1.00  0.00     0.108 A 
ATOM     17  C   UNL A   1      16.529   5.562  10.452  1.00  0.00     0.041 A 
ATOM     18  C   UNL A   1      17.298   5.735  11.604  1.00  0.00     0.020 A 
BRANCH  15  19
ATOM     19  O   UNL A   1      13.181   5.297  11.915  1.00  0.00    -0.348 OA
BRANCH  19  20
ATOM     20  C   UNL A   1      12.585   5.702  13.146  1.00  0.00     0.180 C 
BRANCH  20  21
ATOM     21  C   UNL A   1      11.863   6.990  12.949  1.00  0.00     0.010 A 
ATOM     22  C   UNL A   1      11.427   7.770  14.150  1.00  0.00     0.007 A 
ATOM     23  C   UNL A   1      12.554   8.272  13.297  1.00  0.00     0.007 A 
ENDBRANCH  20  21
ENDBRANCH  19  20
ENDBRANCH  15  19
BRANCH  16  24
ATOM     24  O   UNL A   1      14.406   5.249   9.422  1.00  0.00    -0.287 OA
BRANCH  24  25
ATOM     25  C   UNL A   1      13.779   3.986   9.230  1.00  0.00     0.505 C 
ATOM     26  F   UNL A   1      12.631   4.200   8.536  1.00  0.00    -0.184 F 
ATOM     27  F   UNL A   1      14.568   3.213   8.444  1.00  0.00    -0.184 F 
ENDBRANCH  24  25
ENDBRANCH  16  24
ENDBRANCH  10  13
ENDBRANCH   4   9
TORSDOF 7
ENDMDL
MODEL 9
REMARK VINA RESULT:      -7.1      2.344      4.517
REMARK  7 active torsions:
REMARK  status: ('A' for Active; 'I' for Inactive)
REMARK    1  A    between atoms: O_5  and  C_13 
REMARK    2  A    between atoms: O_5  and  C_14 
REMARK    3  A    between atoms: O_6  and  C_15 
REMARK    4  A    between atoms: O_6  and  C_22 
REMARK       I    between atoms: N_8  and  C_20 
REMARK    5  A    between atoms: N_8  and  C_21 
REMARK    6  A    between atoms: C_10  and  C_13 
REMARK    7  A    between atoms: C_17  and  C_20 
ROOT
ATOM      1 CL   UNL A   1      18.276   8.352  15.444  1.00  0.00    -0.080 Cl
ATOM      2 CL   UNL A   1      13.770   5.769  17.158  1.00  0.00    -0.080 Cl
ATOM      3  N   UNL A   1      16.513   7.989  18.987  1.00  0.00    -0.270 NA
ATOM      4  C   UNL A   1      16.042   7.095  16.398  1.00  0.00     0.081 A 
ATOM      5  C   UNL A   1      17.148   7.882  16.657  1.00  0.00     0.080 A 
ATOM      6  C   UNL A   1      15.167   6.746  17.411  1.00  0.00     0.080 A 
ATOM      7  C   UNL A   1      17.339   8.302  17.963  1.00  0.00     0.142 A 
ATOM      8  C   UNL A   1      15.446   7.217  18.683  1.00  0.00     0.142 A 
ENDROOT
BRANCH   4   9
ATOM      9  N   UNL A   1      15.800   6.639  15.079  1.00  0.00    -0.320 N 
ATOM     10  C   UNL A   1      14.831   7.079  14.167  1.00  0.00     0.256 C 
ATOM     11  O   UNL A   1      14.000   7.975  14.387  1.00  0.00    -0.267 OA
ATOM     12  H   UNL A   1      16.391   5.919  14.761  1.00  0.00     0.169 HD
BRANCH  10  13
ATOM     13  C   UNL A   1      14.810   6.395  12.883  1.00  0.00     0.035 A 
ATOM     14  C   UNL A   1      15.989   6.244  12.154  1.00  0.00     0.056 A 
ATOM     15  C   UNL A   1      15.968   5.589  10.923  1.00  0.00     0.103 A 
ATOM     16  C   UNL A   1      14.768   5.085  10.421  1.00  0.00     0.108 A 
ATOM     17  C   UNL A   1      13.589   5.236  11.150  1.00  0.00     0.041 A 
ATOM     18  C   UNL A   1      13.610   5.892  12.382  1.00  0.00     0.020 A 
BRANCH  15  19
ATOM     19  O   UNL A   1      17.125   5.447  10.219  1.00  0.00    -0.348 OA
BRANCH  19  20
ATOM     20  C   UNL A   1      18.201   6.320  10.558  1.00  0.00     0.180 C 
BRANCH  20  21
ATOM     21  C   UNL A   1      19.207   5.579  11.370  1.00  0.00     0.010 A 
ATOM     22  C   UNL A   1      20.482   6.265  11.751  1.00  0.00     0.007 A 
ATOM     23  C   UNL A   1      19.438   5.988  12.791  1.00  0.00     0.007 A 
ENDBRANCH  20  21
ENDBRANCH  19  20
ENDBRANCH  15  19
BRANCH  16  24
ATOM     24  O   UNL A   1      14.735   4.442   9.221  1.00  0.00    -0.287 OA
BRANCH  24  25
ATOM     25  C   UNL A   1      13.582   3.661   8.929  1.00  0.00     0.505 C 
ATOM     26  F   UNL A   1      12.815   4.372   8.062  1.00  0.00    -0.184 F 
ATOM     27  F   UNL A   1      13.961   2.536   8.277  1.00  0.00    -0.184 F 
ENDBRANCH  24  25
ENDBRANCH  16  24
ENDBRANCH  10  13
ENDBRANCH   4   9
TORSDOF 7
ENDMDL
