MODEL 1
REMARK VINA RESULT:      -7.4      0.000      0.000
REMARK  7 active torsions:
REMARK  status: ('A' for Active; 'I' for Inactive)
REMARK    1  A    between atoms: O_5  and  C_13 
REMARK    2  A    between atoms: O_5  and  C_14 
REMARK    3  A    between atoms: O_6  and  C_15 
REMARK    4  A    between atoms: O_6  and  C_22 
REMARK       I    between atoms: N_8  and  C_20 
REMARK    5  A    between atoms: N_8  and  C_21 
REMARK    6  A    between atoms: C_10  and  C_13 
REMARK    7  A    between atoms: C_17  and  C_20 
ROOT
ATOM      1 CL   UNL A   1      13.403   5.820  19.214  1.00  0.00    -0.080 Cl
ATOM      2 CL   UNL A   1      17.507   8.826  17.206  1.00  0.00    -0.080 Cl
ATOM      3  N   UNL A   1      16.280   7.987  20.893  1.00  0.00    -0.270 NA
ATOM      4  C   UNL A   1      15.484   7.347  18.308  1.00  0.00     0.081 A 
ATOM      5  C   UNL A   1      14.777   6.843  19.383  1.00  0.00     0.080 A 
ATOM      6  C   UNL A   1      16.582   8.166  18.500  1.00  0.00     0.080 A 
ATOM      7  C   UNL A   1      15.213   7.192  20.651  1.00  0.00     0.142 A 
ATOM      8  C   UNL A   1      16.938   8.455  19.808  1.00  0.00     0.142 A 
ENDROOT
BRANCH   4   9
ATOM      9  N   UNL A   1      15.080   7.020  16.990  1.00  0.00    -0.320 N 
ATOM     10  C   UNL A   1      15.474   5.931  16.200  1.00  0.00     0.256 C 
ATOM     11  O   UNL A   1      16.275   5.048  16.552  1.00  0.00    -0.267 OA
ATOM     12  H   UNL A   1      14.437   7.639  16.575  1.00  0.00     0.169 HD
BRANCH  10  13
ATOM     13  C   UNL A   1      14.903   5.876  14.864  1.00  0.00     0.035 A 
ATOM     14  C   UNL A   1      13.624   6.381  14.631  1.00  0.00     0.056 A 
ATOM     15  C   UNL A   1      13.076   6.327  13.349  1.00  0.00     0.103 A 
ATOM     16  C   UNL A   1      13.808   5.768  12.301  1.00  0.00     0.108 A 
ATOM     17  C   UNL A   1      15.087   5.263  12.534  1.00  0.00     0.041 A 
ATOM     18  C   UNL A   1      15.634   5.317  13.816  1.00  0.00     0.020 A 
BRANCH  15  19
ATOM     19  O   UNL A   1      11.827   6.823  13.133  1.00  0.00    -0.348 OA
BRANCH  19  20
ATOM     20  C   UNL A   1      11.471   8.011  13.835  1.00  0.00     0.180 C 
BRANCH  20  21
ATOM     21  C   UNL A   1      12.164   9.179  13.223  1.00  0.00     0.010 A 
ATOM     22  C   UNL A   1      11.538  10.535  13.329  1.00  0.00     0.007 A 
ATOM     23  C   UNL A   1      12.773  10.214  14.117  1.00  0.00     0.007 A 
ENDBRANCH  20  21
ENDBRANCH  19  20
ENDBRANCH  15  19
BRANCH  16  24
ATOM     24  O   UNL A   1      13.284   5.710  11.045  1.00  0.00    -0.287 OA
BRANCH  24  25
ATOM     25  C   UNL A   1      13.446   4.495  10.324  1.00  0.00     0.505 C 
ATOM     26  F   UNL A   1      12.565   3.596  10.834  1.00  0.00    -0.184 F 
ATOM     27  F   UNL A   1      13.091   4.694   9.031  1.00  0.00    -0.184 F 
ENDBRANCH  24  25
ENDBRANCH  16  24
ENDBRANCH  10  13
ENDBRANCH   4   9
TORSDOF 7
ENDMDL
MODEL 2
REMARK VINA RESULT:      -7.3      0.360      1.811
REMARK  7 active torsions:
REMARK  status: ('A' for Active; 'I' for Inactive)
REMARK    1  A    between atoms: O_5  and  C_13 
REMARK    2  A    between atoms: O_5  and  C_14 
REMARK    3  A    between atoms: O_6  and  C_15 
REMARK    4  A    between atoms: O_6  and  C_22 
REMARK       I    between atoms: N_8  and  C_20 
REMARK    5  A    between atoms: N_8  and  C_21 
REMARK    6  A    between atoms: C_10  and  C_13 
REMARK    7  A    between atoms: C_17  and  C_20 
ROOT
ATOM      1 CL   UNL A   1      17.532   8.665  17.317  1.00  0.00    -0.080 Cl
ATOM      2 CL   UNL A   1      13.338   5.835  19.396  1.00  0.00    -0.080 Cl
ATOM      3  N   UNL A   1      16.320   7.899  21.023  1.00  0.00    -0.270 NA
ATOM      4  C   UNL A   1      15.467   7.274  18.453  1.00  0.00     0.081 A 
ATOM      5  C   UNL A   1      16.598   8.049  18.626  1.00  0.00     0.080 A 
ATOM      6  C   UNL A   1      14.755   6.804  19.541  1.00  0.00     0.080 A 
ATOM      7  C   UNL A   1      16.982   8.333  19.927  1.00  0.00     0.142 A 
ATOM      8  C   UNL A   1      15.220   7.144  20.801  1.00  0.00     0.142 A 
ENDROOT
BRANCH   4   9
ATOM      9  N   UNL A   1      15.032   6.955  17.143  1.00  0.00    -0.320 N 
ATOM     10  C   UNL A   1      15.448   5.902  16.316  1.00  0.00     0.256 C 
ATOM     11  O   UNL A   1      16.299   5.051  16.620  1.00  0.00    -0.267 OA
ATOM     12  H   UNL A   1      14.348   7.553  16.763  1.00  0.00     0.169 HD
BRANCH  10  13
ATOM     13  C   UNL A   1      14.833   5.849  14.999  1.00  0.00     0.035 A 
ATOM     14  C   UNL A   1      13.557   6.375  14.803  1.00  0.00     0.056 A 
ATOM     15  C   UNL A   1      12.967   6.322  13.540  1.00  0.00     0.103 A 
ATOM     16  C   UNL A   1      13.655   5.743  12.473  1.00  0.00     0.108 A 
ATOM     17  C   UNL A   1      14.931   5.216  12.669  1.00  0.00     0.041 A 
ATOM     18  C   UNL A   1      15.520   5.269  13.932  1.00  0.00     0.020 A 
BRANCH  15  19
ATOM     19  O   UNL A   1      11.720   6.839  13.360  1.00  0.00    -0.348 OA
BRANCH  19  20
ATOM     20  C   UNL A   1      11.434   8.080  14.001  1.00  0.00     0.180 C 
BRANCH  20  21
ATOM     21  C   UNL A   1      12.122   9.186  13.277  1.00  0.00     0.010 A 
ATOM     22  C   UNL A   1      11.533  10.562  13.323  1.00  0.00     0.007 A 
ATOM     23  C   UNL A   1      12.800  10.261  14.067  1.00  0.00     0.007 A 
ENDBRANCH  20  21
ENDBRANCH  19  20
ENDBRANCH  15  19
BRANCH  16  24
ATOM     24  O   UNL A   1      13.090   5.686  11.235  1.00  0.00    -0.287 OA
BRANCH  24  25
ATOM     25  C   UNL A   1      13.538   4.659  10.359  1.00  0.00     0.505 C 
ATOM     26  F   UNL A   1      12.437   4.029   9.871  1.00  0.00    -0.184 F 
ATOM     27  F   UNL A   1      14.163   5.221   9.296  1.00  0.00    -0.184 F 
ENDBRANCH  24  25
ENDBRANCH  16  24
ENDBRANCH  10  13
ENDBRANCH   4   9
TORSDOF 7
ENDMDL
MODEL 3
REMARK VINA RESULT:      -7.3      3.725      4.722
REMARK  7 active torsions:
REMARK  status: ('A' for Active; 'I' for Inactive)
REMARK    1  A    between atoms: O_5  and  C_13 
REMARK    2  A    between atoms: O_5  and  C_14 
REMARK    3  A    between atoms: O_6  and  C_15 
REMARK    4  A    between atoms: O_6  and  C_22 
REMARK       I    between atoms: N_8  and  C_20 
REMARK    5  A    between atoms: N_8  and  C_21 
REMARK    6  A    between atoms: C_10  and  C_13 
REMARK    7  A    between atoms: C_17  and  C_20 
ROOT
ATOM      1 CL   UNL A   1      18.735   8.271  15.340  1.00  0.00    -0.080 Cl
ATOM      2 CL   UNL A   1      20.835   3.640  13.325  1.00  0.00    -0.080 Cl
ATOM      3  N   UNL A   1      22.193   6.384  15.860  1.00  0.00    -0.270 NA
ATOM      4  C   UNL A   1      19.872   5.971  14.388  1.00  0.00     0.081 A 
ATOM      5  C   UNL A   1      19.980   7.090  15.192  1.00  0.00     0.080 A 
ATOM      6  C   UNL A   1      20.904   5.055  14.306  1.00  0.00     0.080 A 
ATOM      7  C   UNL A   1      21.157   7.251  15.905  1.00  0.00     0.142 A 
ATOM      8  C   UNL A   1      22.040   5.306  15.059  1.00  0.00     0.142 A 
ENDROOT
BRANCH   4   9
ATOM      9  N   UNL A   1      18.689   5.760  13.638  1.00  0.00    -0.320 N 
ATOM     10  C   UNL A   1      18.467   5.991  12.274  1.00  0.00     0.256 C 
ATOM     11  O   UNL A   1      19.312   6.435  11.479  1.00  0.00    -0.267 OA
ATOM     12  H   UNL A   1      17.922   5.405  14.143  1.00  0.00     0.169 HD
BRANCH  10  13
ATOM     13  C   UNL A   1      17.126   5.701  11.791  1.00  0.00     0.035 A 
ATOM     14  C   UNL A   1      16.062   5.623  12.690  1.00  0.00     0.056 A 
ATOM     15  C   UNL A   1      14.777   5.344  12.226  1.00  0.00     0.103 A 
ATOM     16  C   UNL A   1      14.555   5.141  10.864  1.00  0.00     0.108 A 
ATOM     17  C   UNL A   1      15.619   5.219   9.965  1.00  0.00     0.041 A 
ATOM     18  C   UNL A   1      16.905   5.498  10.429  1.00  0.00     0.020 A 
BRANCH  15  19
ATOM     19  O   UNL A   1      13.746   5.270  13.112  1.00  0.00    -0.348 OA
BRANCH  19  20
ATOM     20  C   UNL A   1      13.562   6.382  13.987  1.00  0.00     0.180 C 
BRANCH  20  21
ATOM     21  C   UNL A   1      13.294   7.609  13.184  1.00  0.00     0.010 A 
ATOM     22  C   UNL A   1      11.885   8.097  13.051  1.00  0.00     0.007 A 
ATOM     23  C   UNL A   1      12.869   8.859  13.888  1.00  0.00     0.007 A 
ENDBRANCH  20  21
ENDBRANCH  19  20
ENDBRANCH  15  19
BRANCH  16  24
ATOM     24  O   UNL A   1      13.304   4.869  10.398  1.00  0.00    -0.287 OA
BRANCH  24  25
ATOM     25  C   UNL A   1      13.204   4.179   9.159  1.00  0.00     0.505 C 
ATOM     26  F   UNL A   1      12.494   3.042   9.380  1.00  0.00    -0.184 F 
ATOM     27  F   UNL A   1      12.478   4.925   8.292  1.00  0.00    -0.184 F 
ENDBRANCH  24  25
ENDBRANCH  16  24
ENDBRANCH  10  13
ENDBRANCH   4   9
TORSDOF 7
ENDMDL
MODEL 4
REMARK VINA RESULT:      -7.2      3.744      4.714
REMARK  7 active torsions:
REMARK  status: ('A' for Active; 'I' for Inactive)
REMARK    1  A    between atoms: O_5  and  C_13 
REMARK    2  A    between atoms: O_5  and  C_14 
REMARK    3  A    between atoms: O_6  and  C_15 
REMARK    4  A    between atoms: O_6  and  C_22 
REMARK       I    between atoms: N_8  and  C_20 
REMARK    5  A    between atoms: N_8  and  C_21 
REMARK    6  A    between atoms: C_10  and  C_13 
REMARK    7  A    between atoms: C_17  and  C_20 
ROOT
ATOM      1 CL   UNL A   1      20.975   3.837  13.323  1.00  0.00    -0.080 Cl
ATOM      2 CL   UNL A   1      18.731   8.366  15.411  1.00  0.00    -0.080 Cl
ATOM      3  N   UNL A   1      22.257   6.594  15.883  1.00  0.00    -0.270 NA
ATOM      4  C   UNL A   1      19.940   6.119  14.422  1.00  0.00     0.081 A 
ATOM      5  C   UNL A   1      21.002   5.240  14.321  1.00  0.00     0.080 A 
ATOM      6  C   UNL A   1      20.015   7.231  15.240  1.00  0.00     0.080 A 
ATOM      7  C   UNL A   1      22.134   5.520  15.070  1.00  0.00     0.142 A 
ATOM      8  C   UNL A   1      21.191   7.423  15.947  1.00  0.00     0.142 A 
ENDROOT
BRANCH   4   9
ATOM      9  N   UNL A   1      18.760   5.878  13.677  1.00  0.00    -0.320 N 
ATOM     10  C   UNL A   1      18.538   6.070  12.306  1.00  0.00     0.256 C 
ATOM     11  O   UNL A   1      19.380   6.500  11.501  1.00  0.00    -0.267 OA
ATOM     12  H   UNL A   1      17.995   5.530  14.190  1.00  0.00     0.169 HD
BRANCH  10  13
ATOM     13  C   UNL A   1      17.200   5.755  11.830  1.00  0.00     0.035 A 
ATOM     14  C   UNL A   1      16.141   5.666  12.733  1.00  0.00     0.056 A 
ATOM     15  C   UNL A   1      14.858   5.363  12.275  1.00  0.00     0.103 A 
ATOM     16  C   UNL A   1      14.635   5.150  10.915  1.00  0.00     0.108 A 
ATOM     17  C   UNL A   1      15.694   5.240  10.012  1.00  0.00     0.041 A 
ATOM     18  C   UNL A   1      16.977   5.543  10.470  1.00  0.00     0.020 A 
BRANCH  15  19
ATOM     19  O   UNL A   1      13.832   5.277  13.166  1.00  0.00    -0.348 OA
BRANCH  19  20
ATOM     20  C   UNL A   1      13.608   6.407  14.007  1.00  0.00     0.180 C 
BRANCH  20  21
ATOM     21  C   UNL A   1      13.254   7.589  13.171  1.00  0.00     0.010 A 
ATOM     22  C   UNL A   1      11.820   8.005  13.069  1.00  0.00     0.007 A 
ATOM     23  C   UNL A   1      12.792   8.843  13.844  1.00  0.00     0.007 A 
ENDBRANCH  20  21
ENDBRANCH  19  20
ENDBRANCH  15  19
BRANCH  16  24
ATOM     24  O   UNL A   1      13.387   4.855  10.456  1.00  0.00    -0.287 OA
BRANCH  24  25
ATOM     25  C   UNL A   1      13.294   4.057   9.282  1.00  0.00     0.505 C 
ATOM     26  F   UNL A   1      12.635   2.916   9.614  1.00  0.00    -0.184 F 
ATOM     27  F   UNL A   1      12.523   4.696   8.369  1.00  0.00    -0.184 F 
ENDBRANCH  24  25
ENDBRANCH  16  24
ENDBRANCH  10  13
ENDBRANCH   4   9
TORSDOF 7
ENDMDL
MODEL 5
REMARK VINA RESULT:      -7.2      3.060      3.814
REMARK  7 active torsions:
REMARK  status: ('A' for Active; 'I' for Inactive)
REMARK    1  A    between atoms: O_5  and  C_13 
REMARK    2  A    between atoms: O_5  and  C_14 
REMARK    3  A    between atoms: O_6  and  C_15 
REMARK    4  A    between atoms: O_6  and  C_22 
REMARK       I    between atoms: N_8  and  C_20 
REMARK    5  A    between atoms: N_8  and  C_21 
REMARK    6  A    between atoms: C_10  and  C_13 
REMARK    7  A    between atoms: C_17  and  C_20 
ROOT
ATOM      1 CL   UNL A   1      17.250   7.982  16.350  1.00  0.00    -0.080 Cl
ATOM      2 CL   UNL A   1      20.200   3.813  14.393  1.00  0.00    -0.080 Cl
ATOM      3  N   UNL A   1      20.730   6.368  17.391  1.00  0.00    -0.270 NA
ATOM      4  C   UNL A   1      18.798   5.915  15.445  1.00  0.00     0.081 A 
ATOM      5  C   UNL A   1      18.623   6.942  16.352  1.00  0.00     0.080 A 
ATOM      6  C   UNL A   1      19.921   5.109  15.492  1.00  0.00     0.080 A 
ATOM      7  C   UNL A   1      19.614   7.128  17.302  1.00  0.00     0.142 A 
ATOM      8  C   UNL A   1      20.854   5.376  16.481  1.00  0.00     0.142 A 
ENDROOT
BRANCH   4   9
ATOM      9  N   UNL A   1      17.813   5.682  14.453  1.00  0.00    -0.320 N 
ATOM     10  C   UNL A   1      17.816   6.079  13.109  1.00  0.00     0.256 C 
ATOM     11  O   UNL A   1      18.724   6.724  12.558  1.00  0.00    -0.267 OA
ATOM     12  H   UNL A   1      17.022   5.176  14.748  1.00  0.00     0.169 HD
BRANCH  10  13
ATOM     13  C   UNL A   1      16.640   5.714  12.336  1.00  0.00     0.035 A 
ATOM     14  C   UNL A   1      15.450   5.389  12.988  1.00  0.00     0.056 A 
ATOM     15  C   UNL A   1      14.323   5.037  12.246  1.00  0.00     0.103 A 
ATOM     16  C   UNL A   1      14.385   5.010  10.853  1.00  0.00     0.108 A 
ATOM     17  C   UNL A   1      15.574   5.336  10.201  1.00  0.00     0.041 A 
ATOM     18  C   UNL A   1      16.702   5.687  10.943  1.00  0.00     0.020 A 
BRANCH  15  19
ATOM     19  O   UNL A   1      13.167   4.721  12.892  1.00  0.00    -0.348 OA
BRANCH  19  20
ATOM     20  C   UNL A   1      12.704   5.641  13.879  1.00  0.00     0.180 C 
BRANCH  20  21
ATOM     21  C   UNL A   1      12.110   6.833  13.210  1.00  0.00     0.010 A 
ATOM     22  C   UNL A   1      11.566   7.944  14.054  1.00  0.00     0.007 A 
ATOM     23  C   UNL A   1      12.835   8.141  13.278  1.00  0.00     0.007 A 
ENDBRANCH  20  21
ENDBRANCH  19  20
ENDBRANCH  15  19
BRANCH  16  24
ATOM     24  O   UNL A   1      13.290   4.670  10.117  1.00  0.00    -0.287 OA
BRANCH  24  25
ATOM     25  C   UNL A   1      13.464   3.689   9.102  1.00  0.00     0.505 C 
ATOM     26  F   UNL A   1      12.892   2.538   9.542  1.00  0.00    -0.184 F 
ATOM     27  F   UNL A   1      12.774   4.065   7.997  1.00  0.00    -0.184 F 
ENDBRANCH  24  25
ENDBRANCH  16  24
ENDBRANCH  10  13
ENDBRANCH   4   9
TORSDOF 7
ENDMDL
MODEL 6
REMARK VINA RESULT:      -7.1      2.616      3.323
REMARK  7 active torsions:
REMARK  status: ('A' for Active; 'I' for Inactive)
REMARK    1  A    between atoms: O_5  and  C_13 
REMARK    2  A    between atoms: O_5  and  C_14 
REMARK    3  A    between atoms: O_6  and  C_15 
REMARK    4  A    between atoms: O_6  and  C_22 
REMARK       I    between atoms: N_8  and  C_20 
REMARK    5  A    between atoms: N_8  and  C_21 
REMARK    6  A    between atoms: C_10  and  C_13 
REMARK    7  A    between atoms: C_17  and  C_20 
ROOT
ATOM      1 CL   UNL A   1      16.102   8.196  16.776  1.00  0.00    -0.080 Cl
ATOM      2 CL   UNL A   1      20.701   7.232  13.976  1.00  0.00    -0.080 Cl
ATOM      3  N   UNL A   1      19.958   8.713  17.588  1.00  0.00    -0.270 NA
ATOM      4  C   UNL A   1      18.458   7.750  15.456  1.00  0.00     0.081 A 
ATOM      5  C   UNL A   1      17.815   8.198  16.595  1.00  0.00     0.080 A 
ATOM      6  C   UNL A   1      19.837   7.775  15.363  1.00  0.00     0.080 A 
ATOM      7  C   UNL A   1      18.607   8.669  17.629  1.00  0.00     0.142 A 
ATOM      8  C   UNL A   1      20.539   8.264  16.453  1.00  0.00     0.142 A 
ENDROOT
BRANCH   4   9
ATOM      9  N   UNL A   1      17.693   7.259  14.369  1.00  0.00    -0.320 N 
ATOM     10  C   UNL A   1      17.478   5.928  13.984  1.00  0.00     0.256 C 
ATOM     11  O   UNL A   1      17.946   4.934  14.564  1.00  0.00    -0.267 OA
ATOM     12  H   UNL A   1      17.256   7.942  13.811  1.00  0.00     0.169 HD
BRANCH  10  13
ATOM     13  C   UNL A   1      16.661   5.735  12.797  1.00  0.00     0.035 A 
ATOM     14  C   UNL A   1      15.280   5.582  12.918  1.00  0.00     0.056 A 
ATOM     15  C   UNL A   1      14.496   5.396  11.779  1.00  0.00     0.103 A 
ATOM     16  C   UNL A   1      15.094   5.362  10.519  1.00  0.00     0.108 A 
ATOM     17  C   UNL A   1      16.475   5.515  10.398  1.00  0.00     0.041 A 
ATOM     18  C   UNL A   1      17.258   5.702  11.537  1.00  0.00     0.020 A 
BRANCH  15  19
ATOM     19  O   UNL A   1      13.149   5.247  11.909  1.00  0.00    -0.348 OA
BRANCH  19  20
ATOM     20  C   UNL A   1      12.563   5.691  13.131  1.00  0.00     0.180 C 
BRANCH  20  21
ATOM     21  C   UNL A   1      11.859   6.984  12.906  1.00  0.00     0.010 A 
ATOM     22  C   UNL A   1      11.393   7.775  14.089  1.00  0.00     0.007 A 
ATOM     23  C   UNL A   1      12.550   8.261  13.268  1.00  0.00     0.007 A 
ENDBRANCH  20  21
ENDBRANCH  19  20
ENDBRANCH  15  19
BRANCH  16  24
ATOM     24  O   UNL A   1      14.340   5.182   9.399  1.00  0.00    -0.287 OA
BRANCH  24  25
ATOM     25  C   UNL A   1      13.865   3.868   9.136  1.00  0.00     0.505 C 
ATOM     26  F   UNL A   1      12.749   3.981   8.369  1.00  0.00    -0.184 F 
ATOM     27  F   UNL A   1      14.781   3.206   8.388  1.00  0.00    -0.184 F 
ENDBRANCH  24  25
ENDBRANCH  16  24
ENDBRANCH  10  13
ENDBRANCH   4   9
TORSDOF 7
ENDMDL
MODEL 7
REMARK VINA RESULT:      -7.1      2.487      3.219
REMARK  7 active torsions:
REMARK  status: ('A' for Active; 'I' for Inactive)
REMARK    1  A    between atoms: O_5  and  C_13 
REMARK    2  A    between atoms: O_5  and  C_14 
REMARK    3  A    between atoms: O_6  and  C_15 
REMARK    4  A    between atoms: O_6  and  C_22 
REMARK       I    between atoms: N_8  and  C_20 
REMARK    5  A    between atoms: N_8  and  C_21 
REMARK    6  A    between atoms: C_10  and  C_13 
REMARK    7  A    between atoms: C_17  and  C_20 
ROOT
ATOM      1 CL   UNL A   1      19.559   4.099  15.340  1.00  0.00    -0.080 Cl
ATOM      2 CL   UNL A   1      16.095   8.110  16.691  1.00  0.00    -0.080 Cl
ATOM      3  N   UNL A   1      19.152   6.391  18.560  1.00  0.00    -0.270 NA
ATOM      4  C   UNL A   1      17.875   6.114  16.107  1.00  0.00     0.081 A 
ATOM      5  C   UNL A   1      18.950   5.300  16.412  1.00  0.00     0.080 A 
ATOM      6  C   UNL A   1      17.426   7.064  17.007  1.00  0.00     0.080 A 
ATOM      7  C   UNL A   1      19.552   5.477  17.647  1.00  0.00     0.142 A 
ATOM      8  C   UNL A   1      18.097   7.162  18.215  1.00  0.00     0.142 A 
ENDROOT
BRANCH   4   9
ATOM      9  N   UNL A   1      17.225   5.974  14.857  1.00  0.00    -0.320 N 
ATOM     10  C   UNL A   1      17.460   6.676  13.666  1.00  0.00     0.256 C 
ATOM     11  O   UNL A   1      18.314   7.566  13.521  1.00  0.00    -0.267 OA
ATOM     12  H   UNL A   1      16.513   5.294  14.819  1.00  0.00     0.169 HD
BRANCH  10  13
ATOM     13  C   UNL A   1      16.605   6.325  12.543  1.00  0.00     0.035 A 
ATOM     14  C   UNL A   1      15.239   6.603  12.594  1.00  0.00     0.056 A 
ATOM     15  C   UNL A   1      14.419   6.266  11.516  1.00  0.00     0.103 A 
ATOM     16  C   UNL A   1      14.966   5.652  10.390  1.00  0.00     0.108 A 
ATOM     17  C   UNL A   1      16.332   5.374  10.339  1.00  0.00     0.041 A 
ATOM     18  C   UNL A   1      17.151   5.711  11.416  1.00  0.00     0.020 A 
BRANCH  15  19
ATOM     19  O   UNL A   1      13.087   6.541  11.576  1.00  0.00    -0.348 OA
BRANCH  19  20
ATOM     20  C   UNL A   1      12.418   6.243  12.800  1.00  0.00     0.180 C 
BRANCH  20  21
ATOM     21  C   UNL A   1      11.629   7.429  13.238  1.00  0.00     0.010 A 
ATOM     22  C   UNL A   1      11.688   7.852  14.673  1.00  0.00     0.007 A 
ATOM     23  C   UNL A   1      12.351   8.684  13.616  1.00  0.00     0.007 A 
ENDBRANCH  20  21
ENDBRANCH  19  20
ENDBRANCH  15  19
BRANCH  16  24
ATOM     24  O   UNL A   1      14.175   5.319   9.331  1.00  0.00    -0.287 OA
BRANCH  24  25
ATOM     25  C   UNL A   1      13.714   3.976   9.257  1.00  0.00     0.505 C 
ATOM     26  F   UNL A   1      12.638   3.867  10.079  1.00  0.00    -0.184 F 
ATOM     27  F   UNL A   1      13.266   3.728   8.001  1.00  0.00    -0.184 F 
ENDBRANCH  24  25
ENDBRANCH  16  24
ENDBRANCH  10  13
ENDBRANCH   4   9
TORSDOF 7
ENDMDL
MODEL 8
REMARK VINA RESULT:      -6.8      2.278      3.683
REMARK  7 active torsions:
REMARK  status: ('A' for Active; 'I' for Inactive)
REMARK    1  A    between atoms: O_5  and  C_13 
REMARK    2  A    between atoms: O_5  and  C_14 
REMARK    3  A    between atoms: O_6  and  C_15 
REMARK    4  A    between atoms: O_6  and  C_22 
REMARK       I    between atoms: N_8  and  C_20 
REMARK    5  A    between atoms: N_8  and  C_21 
REMARK    6  A    between atoms: C_10  and  C_13 
REMARK    7  A    between atoms: C_17  and  C_20 
ROOT
ATOM      1 CL   UNL A   1      13.918   4.614  21.680  1.00  0.00    -0.080 Cl
ATOM      2 CL   UNL A   1      17.740   7.965  19.663  1.00  0.00    -0.080 Cl
ATOM      3  N   UNL A   1      17.093   6.406  23.261  1.00  0.00    -0.270 NA
ATOM      4  C   UNL A   1      15.875   6.294  20.765  1.00  0.00     0.081 A 
ATOM      5  C   UNL A   1      15.333   5.584  21.821  1.00  0.00     0.080 A 
ATOM      6  C   UNL A   1      17.014   7.059  20.934  1.00  0.00     0.080 A 
ATOM      7  C   UNL A   1      15.977   5.673  23.045  1.00  0.00     0.142 A 
ATOM      8  C   UNL A   1      17.584   7.081  22.197  1.00  0.00     0.142 A 
ENDROOT
BRANCH   4   9
ATOM      9  N   UNL A   1      15.254   6.236  19.493  1.00  0.00    -0.320 N 
ATOM     10  C   UNL A   1      15.691   5.573  18.338  1.00  0.00     0.256 C 
ATOM     11  O   UNL A   1      16.736   4.906  18.251  1.00  0.00    -0.267 OA
ATOM     12  H   UNL A   1      14.404   6.726  19.410  1.00  0.00     0.169 HD
BRANCH  10  13
ATOM     13  C   UNL A   1      14.846   5.720  17.163  1.00  0.00     0.035 A 
ATOM     14  C   UNL A   1      15.270   5.219  15.932  1.00  0.00     0.056 A 
ATOM     15  C   UNL A   1      14.459   5.362  14.806  1.00  0.00     0.103 A 
ATOM     16  C   UNL A   1      13.225   6.004  14.911  1.00  0.00     0.108 A 
ATOM     17  C   UNL A   1      12.802   6.505  16.142  1.00  0.00     0.041 A 
ATOM     18  C   UNL A   1      13.613   6.363  17.268  1.00  0.00     0.020 A 
BRANCH  15  19
ATOM     19  O   UNL A   1      14.882   4.869  13.609  1.00  0.00    -0.348 OA
BRANCH  19  20
ATOM     20  C   UNL A   1      15.774   5.685  12.851  1.00  0.00     0.180 C 
BRANCH  20  21
ATOM     21  C   UNL A   1      15.591   5.407  11.399  1.00  0.00     0.010 A 
ATOM     22  C   UNL A   1      14.215   5.124  10.880  1.00  0.00     0.007 A 
ATOM     23  C   UNL A   1      14.892   6.420  10.547  1.00  0.00     0.007 A 
ENDBRANCH  20  21
ENDBRANCH  19  20
ENDBRANCH  15  19
BRANCH  16  24
ATOM     24  O   UNL A   1      12.424   6.148  13.819  1.00  0.00    -0.287 OA
BRANCH  24  25
ATOM     25  C   UNL A   1      12.177   7.471  13.359  1.00  0.00     0.505 C 
ATOM     26  F   UNL A   1      13.378   8.035  13.068  1.00  0.00    -0.184 F 
ATOM     27  F   UNL A   1      11.484   7.416  12.196  1.00  0.00    -0.184 F 
ENDBRANCH  24  25
ENDBRANCH  16  24
ENDBRANCH  10  13
ENDBRANCH   4   9
TORSDOF 7
ENDMDL
MODEL 9
REMARK VINA RESULT:      -6.8      3.724      4.341
REMARK  7 active torsions:
REMARK  status: ('A' for Active; 'I' for Inactive)
REMARK    1  A    between atoms: O_5  and  C_13 
REMARK    2  A    between atoms: O_5  and  C_14 
REMARK    3  A    between atoms: O_6  and  C_15 
REMARK    4  A    between atoms: O_6  and  C_22 
REMARK       I    between atoms: N_8  and  C_20 
REMARK    5  A    between atoms: N_8  and  C_21 
REMARK    6  A    between atoms: C_10  and  C_13 
REMARK    7  A    between atoms: C_17  and  C_20 
ROOT
ATOM      1 CL   UNL A   1      17.926   4.729  16.329  1.00  0.00    -0.080 Cl
ATOM      2 CL   UNL A   1      21.388   6.486  12.478  1.00  0.00    -0.080 Cl
ATOM      3  N   UNL A   1      21.781   5.693  16.352  1.00  0.00    -0.270 NA
ATOM      4  C   UNL A   1      19.734   5.611  14.474  1.00  0.00     0.081 A 
ATOM      5  C   UNL A   1      19.475   5.244  15.782  1.00  0.00     0.080 A 
ATOM      6  C   UNL A   1      20.997   6.018  14.088  1.00  0.00     0.080 A 
ATOM      7  C   UNL A   1      20.528   5.303  16.680  1.00  0.00     0.142 A 
ATOM      8  C   UNL A   1      21.983   6.041  15.062  1.00  0.00     0.142 A 
ENDROOT
BRANCH   4   9
ATOM      9  N   UNL A   1      18.691   5.568  13.517  1.00  0.00    -0.320 N 
ATOM     10  C   UNL A   1      17.759   6.565  13.196  1.00  0.00     0.256 C 
ATOM     11  O   UNL A   1      17.703   7.686  13.726  1.00  0.00    -0.267 OA
ATOM     12  H   UNL A   1      18.610   4.728  13.010  1.00  0.00     0.169 HD
BRANCH  10  13
ATOM     13  C   UNL A   1      16.781   6.215  12.177  1.00  0.00     0.035 A 
ATOM     14  C   UNL A   1      15.425   6.458  12.400  1.00  0.00     0.056 A 
ATOM     15  C   UNL A   1      14.488   6.121  11.423  1.00  0.00     0.103 A 
ATOM     16  C   UNL A   1      14.905   5.542  10.225  1.00  0.00     0.108 A 
ATOM     17  C   UNL A   1      16.261   5.299  10.003  1.00  0.00     0.041 A 
ATOM     18  C   UNL A   1      17.198   5.636  10.979  1.00  0.00     0.020 A 
BRANCH  15  19
ATOM     19  O   UNL A   1      13.167   6.362  11.651  1.00  0.00    -0.348 OA
BRANCH  19  20
ATOM     20  C   UNL A   1      12.683   6.126  12.972  1.00  0.00     0.180 C 
BRANCH  20  21
ATOM     21  C   UNL A   1      11.657   7.149  13.318  1.00  0.00     0.010 A 
ATOM     22  C   UNL A   1      11.830   7.958  14.566  1.00  0.00     0.007 A 
ATOM     23  C   UNL A   1      12.016   8.599  13.223  1.00  0.00     0.007 A 
ENDBRANCH  20  21
ENDBRANCH  19  20
ENDBRANCH  15  19
BRANCH  16  24
ATOM     24  O   UNL A   1      13.999   5.210   9.264  1.00  0.00    -0.287 OA
BRANCH  24  25
ATOM     25  C   UNL A   1      13.661   3.835   9.131  1.00  0.00     0.505 C 
ATOM     26  F   UNL A   1      12.905   3.493  10.206  1.00  0.00    -0.184 F 
ATOM     27  F   UNL A   1      12.875   3.674   8.039  1.00  0.00    -0.184 F 
ENDBRANCH  24  25
ENDBRANCH  16  24
ENDBRANCH  10  13
ENDBRANCH   4   9
TORSDOF 7
ENDMDL
