MODEL 1
REMARK VINA RESULT:      -7.4      0.000      0.000
REMARK  7 active torsions:
REMARK  status: ('A' for Active; 'I' for Inactive)
REMARK    1  A    between atoms: O_5  and  C_13 
REMARK    2  A    between atoms: O_5  and  C_14 
REMARK    3  A    between atoms: O_6  and  C_15 
REMARK    4  A    between atoms: O_6  and  C_22 
REMARK       I    between atoms: N_8  and  C_20 
REMARK    5  A    between atoms: N_8  and  C_21 
REMARK    6  A    between atoms: C_10  and  C_13 
REMARK    7  A    between atoms: C_17  and  C_20 
ROOT
ATOM      1 CL   UNL A   1      17.114   8.626  14.429  1.00  0.00    -0.080 Cl
ATOM      2 CL   UNL A   1      12.690   6.262  16.609  1.00  0.00    -0.080 Cl
ATOM      3  N   UNL A   1      16.181   7.435  18.104  1.00  0.00    -0.270 NA
ATOM      4  C   UNL A   1      14.949   7.443  15.612  1.00  0.00     0.081 A 
ATOM      5  C   UNL A   1      16.224   7.961  15.744  1.00  0.00     0.080 A 
ATOM      6  C   UNL A   1      14.279   6.921  16.703  1.00  0.00     0.080 A 
ATOM      7  C   UNL A   1      16.795   7.933  17.007  1.00  0.00     0.142 A 
ATOM      8  C   UNL A   1      14.936   6.940  17.923  1.00  0.00     0.142 A 
ENDROOT
BRANCH   4   9
ATOM      9  N   UNL A   1      14.320   7.448  14.343  1.00  0.00    -0.320 N 
ATOM     10  C   UNL A   1      14.326   6.447  13.362  1.00  0.00     0.256 C 
ATOM     11  O   UNL A   1      14.909   5.355  13.461  1.00  0.00    -0.267 OA
ATOM     12  H   UNL A   1      13.813   8.262  14.121  1.00  0.00     0.169 HD
BRANCH  10  13
ATOM     13  C   UNL A   1      13.605   6.755  12.137  1.00  0.00     0.035 A 
ATOM     14  C   UNL A   1      12.387   7.432  12.196  1.00  0.00     0.056 A 
ATOM     15  C   UNL A   1      11.695   7.726  11.021  1.00  0.00     0.103 A 
ATOM     16  C   UNL A   1      12.221   7.342   9.787  1.00  0.00     0.108 A 
ATOM     17  C   UNL A   1      13.439   6.665   9.728  1.00  0.00     0.041 A 
ATOM     18  C   UNL A   1      14.131   6.371  10.903  1.00  0.00     0.020 A 
BRANCH  15  19
ATOM     19  O   UNL A   1      10.507   8.388  11.090  1.00  0.00    -0.348 OA
BRANCH  19  20
ATOM     20  C   UNL A   1      10.418   9.465  12.020  1.00  0.00     0.180 C 
BRANCH  20  21
ATOM     21  C   UNL A   1      11.289  10.587  11.567  1.00  0.00     0.010 A 
ATOM     22  C   UNL A   1      11.026  11.966  12.086  1.00  0.00     0.007 A 
ATOM     23  C   UNL A   1      12.238  11.210  12.542  1.00  0.00     0.007 A 
ENDBRANCH  20  21
ENDBRANCH  19  20
ENDBRANCH  15  19
BRANCH  16  24
ATOM     24  O   UNL A   1      11.556   7.625   8.632  1.00  0.00    -0.287 OA
BRANCH  24  25
ATOM     25  C   UNL A   1      11.038   6.527   7.891  1.00  0.00     0.505 C 
ATOM     26  F   UNL A   1      10.307   5.764   8.745  1.00  0.00    -0.184 F 
ATOM     27  F   UNL A   1      10.176   6.990   6.954  1.00  0.00    -0.184 F 
ENDBRANCH  24  25
ENDBRANCH  16  24
ENDBRANCH  10  13
ENDBRANCH   4   9
TORSDOF 7
ENDMDL
MODEL 2
REMARK VINA RESULT:      -7.3      0.598      1.941
REMARK  7 active torsions:
REMARK  status: ('A' for Active; 'I' for Inactive)
REMARK    1  A    between atoms: O_5  and  C_13 
REMARK    2  A    between atoms: O_5  and  C_14 
REMARK    3  A    between atoms: O_6  and  C_15 
REMARK    4  A    between atoms: O_6  and  C_22 
REMARK       I    between atoms: N_8  and  C_20 
REMARK    5  A    between atoms: N_8  and  C_21 
REMARK    6  A    between atoms: C_10  and  C_13 
REMARK    7  A    between atoms: C_17  and  C_20 
ROOT
ATOM      1 CL   UNL A   1      12.712   6.320  16.398  1.00  0.00    -0.080 Cl
ATOM      2 CL   UNL A   1      17.294   8.715  14.615  1.00  0.00    -0.080 Cl
ATOM      3  N   UNL A   1      16.109   7.381  18.167  1.00  0.00    -0.270 NA
ATOM      4  C   UNL A   1      15.043   7.512  15.603  1.00  0.00     0.081 A 
ATOM      5  C   UNL A   1      14.297   6.953  16.624  1.00  0.00     0.080 A 
ATOM      6  C   UNL A   1      16.312   8.007  15.840  1.00  0.00     0.080 A 
ATOM      7  C   UNL A   1      14.872   6.912  17.884  1.00  0.00     0.142 A 
ATOM      8  C   UNL A   1      16.798   7.918  17.135  1.00  0.00     0.142 A 
ENDROOT
BRANCH   4   9
ATOM      9  N   UNL A   1      14.500   7.578  14.296  1.00  0.00    -0.320 N 
ATOM     10  C   UNL A   1      14.453   6.575  13.319  1.00  0.00     0.256 C 
ATOM     11  O   UNL A   1      14.899   5.424  13.456  1.00  0.00    -0.267 OA
ATOM     12  H   UNL A   1      14.104   8.443  14.042  1.00  0.00     0.169 HD
BRANCH  10  13
ATOM     13  C   UNL A   1      13.850   6.953  12.050  1.00  0.00     0.035 A 
ATOM     14  C   UNL A   1      12.690   7.727  12.032  1.00  0.00     0.056 A 
ATOM     15  C   UNL A   1      12.112   8.088  10.814  1.00  0.00     0.103 A 
ATOM     16  C   UNL A   1      12.694   7.675   9.616  1.00  0.00     0.108 A 
ATOM     17  C   UNL A   1      13.854   6.901   9.634  1.00  0.00     0.041 A 
ATOM     18  C   UNL A   1      14.432   6.540  10.852  1.00  0.00     0.020 A 
BRANCH  15  19
ATOM     19  O   UNL A   1      10.980   8.845  10.808  1.00  0.00    -0.348 OA
BRANCH  19  20
ATOM     20  C   UNL A   1      10.814   9.772  11.879  1.00  0.00     0.180 C 
BRANCH  20  21
ATOM     21  C   UNL A   1      11.578  11.016  11.584  1.00  0.00     0.010 A 
ATOM     22  C   UNL A   1      11.016  12.335  12.018  1.00  0.00     0.007 A 
ATOM     23  C   UNL A   1      12.215  11.763  12.714  1.00  0.00     0.007 A 
ENDBRANCH  20  21
ENDBRANCH  19  20
ENDBRANCH  15  19
BRANCH  16  24
ATOM     24  O   UNL A   1      12.140   8.023   8.421  1.00  0.00    -0.287 OA
BRANCH  24  25
ATOM     25  C   UNL A   1      11.396   7.026   7.732  1.00  0.00     0.505 C 
ATOM     26  F   UNL A   1      12.229   6.442   6.832  1.00  0.00    -0.184 F 
ATOM     27  F   UNL A   1      11.033   6.057   8.607  1.00  0.00    -0.184 F 
ENDBRANCH  24  25
ENDBRANCH  16  24
ENDBRANCH  10  13
ENDBRANCH   4   9
TORSDOF 7
ENDMDL
MODEL 3
REMARK VINA RESULT:      -7.2      3.643      4.645
REMARK  7 active torsions:
REMARK  status: ('A' for Active; 'I' for Inactive)
REMARK    1  A    between atoms: O_5  and  C_13 
REMARK    2  A    between atoms: O_5  and  C_14 
REMARK    3  A    between atoms: O_6  and  C_15 
REMARK    4  A    between atoms: O_6  and  C_22 
REMARK       I    between atoms: N_8  and  C_20 
REMARK    5  A    between atoms: N_8  and  C_21 
REMARK    6  A    between atoms: C_10  and  C_13 
REMARK    7  A    between atoms: C_17  and  C_20 
ROOT
ATOM      1 CL   UNL A   1      17.847   8.489  12.429  1.00  0.00    -0.080 Cl
ATOM      2 CL   UNL A   1      18.704   3.989   9.441  1.00  0.00    -0.080 Cl
ATOM      3  N   UNL A   1      20.904   5.972  12.091  1.00  0.00    -0.270 NA
ATOM      4  C   UNL A   1      18.371   6.230  10.977  1.00  0.00     0.081 A 
ATOM      5  C   UNL A   1      18.804   7.156  11.907  1.00  0.00     0.080 A 
ATOM      6  C   UNL A   1      19.181   5.177  10.593  1.00  0.00     0.080 A 
ATOM      7  C   UNL A   1      20.075   6.984  12.432  1.00  0.00     0.142 A 
ATOM      8  C   UNL A   1      20.434   5.093  11.177  1.00  0.00     0.142 A 
ENDROOT
BRANCH   4   9
ATOM      9  N   UNL A   1      17.079   6.360  10.410  1.00  0.00    -0.320 N 
ATOM     10  C   UNL A   1      16.724   6.881   9.158  1.00  0.00     0.256 C 
ATOM     11  O   UNL A   1      17.523   7.327   8.318  1.00  0.00    -0.267 OA
ATOM     12  H   UNL A   1      16.333   6.043  10.969  1.00  0.00     0.169 HD
BRANCH  10  13
ATOM     13  C   UNL A   1      15.300   6.909   8.863  1.00  0.00     0.035 A 
ATOM     14  C   UNL A   1      14.371   6.752   9.892  1.00  0.00     0.056 A 
ATOM     15  C   UNL A   1      13.006   6.778   9.608  1.00  0.00     0.103 A 
ATOM     16  C   UNL A   1      12.569   6.960   8.296  1.00  0.00     0.108 A 
ATOM     17  C   UNL A   1      13.498   7.117   7.267  1.00  0.00     0.041 A 
ATOM     18  C   UNL A   1      14.863   7.091   7.551  1.00  0.00     0.020 A 
BRANCH  15  19
ATOM     19  O   UNL A   1      12.108   6.624  10.620  1.00  0.00    -0.348 OA
BRANCH  19  20
ATOM     20  C   UNL A   1      12.216   7.520  11.725  1.00  0.00     0.180 C 
BRANCH  20  21
ATOM     21  C   UNL A   1      11.834   8.893  11.292  1.00  0.00     0.010 A 
ATOM     22  C   UNL A   1      10.423   9.155  10.865  1.00  0.00     0.007 A 
ATOM     23  C   UNL A   1      10.929   9.705  12.165  1.00  0.00     0.007 A 
ENDBRANCH  20  21
ENDBRANCH  19  20
ENDBRANCH  15  19
BRANCH  16  24
ATOM     24  O   UNL A   1      11.238   6.989   8.007  1.00  0.00    -0.287 OA
BRANCH  24  25
ATOM     25  C   UNL A   1      10.829   6.441   6.760  1.00  0.00     0.505 C 
ATOM     26  F   UNL A   1      10.103   5.322   7.022  1.00  0.00    -0.184 F 
ATOM     27  F   UNL A   1       9.989   7.310   6.146  1.00  0.00    -0.184 F 
ENDBRANCH  24  25
ENDBRANCH  16  24
ENDBRANCH  10  13
ENDBRANCH   4   9
TORSDOF 7
ENDMDL
MODEL 4
REMARK VINA RESULT:      -7.2      3.629      4.648
REMARK  7 active torsions:
REMARK  status: ('A' for Active; 'I' for Inactive)
REMARK    1  A    between atoms: O_5  and  C_13 
REMARK    2  A    between atoms: O_5  and  C_14 
REMARK    3  A    between atoms: O_6  and  C_15 
REMARK    4  A    between atoms: O_6  and  C_22 
REMARK       I    between atoms: N_8  and  C_20 
REMARK    5  A    between atoms: N_8  and  C_21 
REMARK    6  A    between atoms: C_10  and  C_13 
REMARK    7  A    between atoms: C_17  and  C_20 
ROOT
ATOM      1 CL   UNL A   1      18.636   3.901   9.491  1.00  0.00    -0.080 Cl
ATOM      2 CL   UNL A   1      17.844   8.452  12.419  1.00  0.00    -0.080 Cl
ATOM      3  N   UNL A   1      20.869   5.894  12.105  1.00  0.00    -0.270 NA
ATOM      4  C   UNL A   1      18.335   6.166  10.996  1.00  0.00     0.081 A 
ATOM      5  C   UNL A   1      19.131   5.099  10.624  1.00  0.00     0.080 A 
ATOM      6  C   UNL A   1      18.783   7.100  11.913  1.00  0.00     0.080 A 
ATOM      7  C   UNL A   1      20.386   5.007  11.206  1.00  0.00     0.142 A 
ATOM      8  C   UNL A   1      20.053   6.919  12.436  1.00  0.00     0.142 A 
ENDROOT
BRANCH   4   9
ATOM      9  N   UNL A   1      17.044   6.305  10.431  1.00  0.00    -0.320 N 
ATOM     10  C   UNL A   1      16.684   6.893   9.210  1.00  0.00     0.256 C 
ATOM     11  O   UNL A   1      17.479   7.404   8.403  1.00  0.00    -0.267 OA
ATOM     12  H   UNL A   1      16.302   5.941  10.966  1.00  0.00     0.169 HD
BRANCH  10  13
ATOM     13  C   UNL A   1      15.261   6.912   8.909  1.00  0.00     0.035 A 
ATOM     14  C   UNL A   1      14.330   6.751   9.935  1.00  0.00     0.056 A 
ATOM     15  C   UNL A   1      12.965   6.768   9.646  1.00  0.00     0.103 A 
ATOM     16  C   UNL A   1      12.533   6.945   8.332  1.00  0.00     0.108 A 
ATOM     17  C   UNL A   1      13.464   7.106   7.306  1.00  0.00     0.041 A 
ATOM     18  C   UNL A   1      14.829   7.089   7.595  1.00  0.00     0.020 A 
BRANCH  15  19
ATOM     19  O   UNL A   1      12.064   6.610  10.655  1.00  0.00    -0.348 OA
BRANCH  19  20
ATOM     20  C   UNL A   1      12.195   7.474  11.781  1.00  0.00     0.180 C 
BRANCH  20  21
ATOM     21  C   UNL A   1      10.952   8.283  11.936  1.00  0.00     0.010 A 
ATOM     22  C   UNL A   1      11.052   9.776  11.935  1.00  0.00     0.007 A 
ATOM     23  C   UNL A   1      10.442   9.063  10.766  1.00  0.00     0.007 A 
ENDBRANCH  20  21
ENDBRANCH  19  20
ENDBRANCH  15  19
BRANCH  16  24
ATOM     24  O   UNL A   1      11.203   6.965   8.037  1.00  0.00    -0.287 OA
BRANCH  24  25
ATOM     25  C   UNL A   1      10.805   6.443   6.775  1.00  0.00     0.505 C 
ATOM     26  F   UNL A   1      10.030   5.352   7.008  1.00  0.00    -0.184 F 
ATOM     27  F   UNL A   1      10.017   7.349   6.147  1.00  0.00    -0.184 F 
ENDBRANCH  24  25
ENDBRANCH  16  24
ENDBRANCH  10  13
ENDBRANCH   4   9
TORSDOF 7
ENDMDL
MODEL 5
REMARK VINA RESULT:      -7.1      2.489      3.179
REMARK  7 active torsions:
REMARK  status: ('A' for Active; 'I' for Inactive)
REMARK    1  A    between atoms: O_5  and  C_13 
REMARK    2  A    between atoms: O_5  and  C_14 
REMARK    3  A    between atoms: O_6  and  C_15 
REMARK    4  A    between atoms: O_6  and  C_22 
REMARK       I    between atoms: N_8  and  C_20 
REMARK    5  A    between atoms: N_8  and  C_21 
REMARK    6  A    between atoms: C_10  and  C_13 
REMARK    7  A    between atoms: C_17  and  C_20 
ROOT
ATOM      1 CL   UNL A   1      17.544   3.952  11.442  1.00  0.00    -0.080 Cl
ATOM      2 CL   UNL A   1      15.364   8.315  13.915  1.00  0.00    -0.080 Cl
ATOM      3  N   UNL A   1      18.218   5.741  14.926  1.00  0.00    -0.270 NA
ATOM      4  C   UNL A   1      16.518   6.119  12.760  1.00  0.00     0.081 A 
ATOM      5  C   UNL A   1      17.415   5.067  12.747  1.00  0.00     0.080 A 
ATOM      6  C   UNL A   1      16.456   6.986  13.835  1.00  0.00     0.080 A 
ATOM      7  C   UNL A   1      18.240   4.921  13.851  1.00  0.00     0.142 A 
ATOM      8  C   UNL A   1      17.324   6.754  14.890  1.00  0.00     0.142 A 
ENDROOT
BRANCH   4   9
ATOM      9  N   UNL A   1      15.652   6.313  11.655  1.00  0.00    -0.320 N 
ATOM     10  C   UNL A   1      15.883   7.045  10.483  1.00  0.00     0.256 C 
ATOM     11  O   UNL A   1      16.929   7.663  10.222  1.00  0.00    -0.267 OA
ATOM     12  H   UNL A   1      14.773   5.875  11.720  1.00  0.00     0.169 HD
BRANCH  10  13
ATOM     13  C   UNL A   1      14.784   7.084   9.531  1.00  0.00     0.035 A 
ATOM     14  C   UNL A   1      13.472   7.217   9.987  1.00  0.00     0.056 A 
ATOM     15  C   UNL A   1      12.418   7.253   9.074  1.00  0.00     0.103 A 
ATOM     16  C   UNL A   1      12.675   7.156   7.707  1.00  0.00     0.108 A 
ATOM     17  C   UNL A   1      13.987   7.023   7.251  1.00  0.00     0.041 A 
ATOM     18  C   UNL A   1      15.041   6.987   8.164  1.00  0.00     0.020 A 
BRANCH  15  19
ATOM     19  O   UNL A   1      11.141   7.383   9.530  1.00  0.00    -0.348 OA
BRANCH  19  20
ATOM     20  C   UNL A   1      10.965   7.504  10.940  1.00  0.00     0.180 C 
BRANCH  20  21
ATOM     21  C   UNL A   1      10.431   8.858  11.261  1.00  0.00     0.010 A 
ATOM     22  C   UNL A   1      10.622   9.406  12.641  1.00  0.00     0.007 A 
ATOM     23  C   UNL A   1      11.390   9.983  11.489  1.00  0.00     0.007 A 
ENDBRANCH  20  21
ENDBRANCH  19  20
ENDBRANCH  15  19
BRANCH  16  24
ATOM     24  O   UNL A   1      11.654   7.192   6.806  1.00  0.00    -0.287 OA
BRANCH  24  25
ATOM     25  C   UNL A   1      11.175   5.947   6.312  1.00  0.00     0.505 C 
ATOM     26  F   UNL A   1      10.339   5.430   7.250  1.00  0.00    -0.184 F 
ATOM     27  F   UNL A   1      10.424   6.167   5.205  1.00  0.00    -0.184 F 
ENDBRANCH  24  25
ENDBRANCH  16  24
ENDBRANCH  10  13
ENDBRANCH   4   9
TORSDOF 7
ENDMDL
MODEL 6
REMARK VINA RESULT:      -7.1      2.553      3.351
REMARK  7 active torsions:
REMARK  status: ('A' for Active; 'I' for Inactive)
REMARK    1  A    between atoms: O_5  and  C_13 
REMARK    2  A    between atoms: O_5  and  C_14 
REMARK    3  A    between atoms: O_6  and  C_15 
REMARK    4  A    between atoms: O_6  and  C_22 
REMARK       I    between atoms: N_8  and  C_20 
REMARK    5  A    between atoms: N_8  and  C_21 
REMARK    6  A    between atoms: C_10  and  C_13 
REMARK    7  A    between atoms: C_17  and  C_20 
ROOT
ATOM      1 CL   UNL A   1      15.064   7.781  14.176  1.00  0.00    -0.080 Cl
ATOM      2 CL   UNL A   1      17.550   3.715  11.493  1.00  0.00    -0.080 Cl
ATOM      3  N   UNL A   1      17.917   5.197  15.163  1.00  0.00    -0.270 NA
ATOM      4  C   UNL A   1      16.365   5.728  12.919  1.00  0.00     0.081 A 
ATOM      5  C   UNL A   1      16.199   6.492  14.059  1.00  0.00     0.080 A 
ATOM      6  C   UNL A   1      17.293   4.704  12.880  1.00  0.00     0.080 A 
ATOM      7  C   UNL A   1      16.997   6.188  15.151  1.00  0.00     0.142 A 
ATOM      8  C   UNL A   1      18.041   4.479  14.024  1.00  0.00     0.142 A 
ENDROOT
BRANCH   4   9
ATOM      9  N   UNL A   1      15.573   5.998  11.776  1.00  0.00    -0.320 N 
ATOM     10  C   UNL A   1      15.930   6.693  10.611  1.00  0.00     0.256 C 
ATOM     11  O   UNL A   1      17.043   7.200  10.396  1.00  0.00    -0.267 OA
ATOM     12  H   UNL A   1      14.652   5.652  11.803  1.00  0.00     0.169 HD
BRANCH  10  13
ATOM     13  C   UNL A   1      14.883   6.834   9.611  1.00  0.00     0.035 A 
ATOM     14  C   UNL A   1      13.543   6.825   9.998  1.00  0.00     0.056 A 
ATOM     15  C   UNL A   1      12.540   6.959   9.037  1.00  0.00     0.103 A 
ATOM     16  C   UNL A   1      12.877   7.101   7.692  1.00  0.00     0.108 A 
ATOM     17  C   UNL A   1      14.217   7.110   7.305  1.00  0.00     0.041 A 
ATOM     18  C   UNL A   1      15.220   6.976   8.265  1.00  0.00     0.020 A 
BRANCH  15  19
ATOM     19  O   UNL A   1      11.235   6.949   9.426  1.00  0.00    -0.348 OA
BRANCH  19  20
ATOM     20  C   UNL A   1      10.962   7.261  10.791  1.00  0.00     0.180 C 
BRANCH  20  21
ATOM     21  C   UNL A   1      10.568   8.694  10.905  1.00  0.00     0.010 A 
ATOM     22  C   UNL A   1      10.431   9.303  12.266  1.00  0.00     0.007 A 
ATOM     23  C   UNL A   1      11.579   9.689  11.382  1.00  0.00     0.007 A 
ENDBRANCH  20  21
ENDBRANCH  19  20
ENDBRANCH  15  19
BRANCH  16  24
ATOM     24  O   UNL A   1      11.906   7.234   6.745  1.00  0.00    -0.287 OA
BRANCH  24  25
ATOM     25  C   UNL A   1      11.262   6.047   6.298  1.00  0.00     0.505 C 
ATOM     26  F   UNL A   1      10.113   6.415   5.675  1.00  0.00    -0.184 F 
ATOM     27  F   UNL A   1      12.035   5.448   5.360  1.00  0.00    -0.184 F 
ENDBRANCH  24  25
ENDBRANCH  16  24
ENDBRANCH  10  13
ENDBRANCH   4   9
TORSDOF 7
ENDMDL
MODEL 7
REMARK VINA RESULT:      -6.9      1.783      3.355
REMARK  7 active torsions:
REMARK  status: ('A' for Active; 'I' for Inactive)
REMARK    1  A    between atoms: O_5  and  C_13 
REMARK    2  A    between atoms: O_5  and  C_14 
REMARK    3  A    between atoms: O_6  and  C_15 
REMARK    4  A    between atoms: O_6  and  C_22 
REMARK       I    between atoms: N_8  and  C_20 
REMARK    5  A    between atoms: N_8  and  C_21 
REMARK    6  A    between atoms: C_10  and  C_13 
REMARK    7  A    between atoms: C_17  and  C_20 
ROOT
ATOM      1 CL   UNL A   1      12.623   6.197  16.799  1.00  0.00    -0.080 Cl
ATOM      2 CL   UNL A   1      16.765   8.617  14.172  1.00  0.00    -0.080 Cl
ATOM      3  N   UNL A   1      16.181   7.538  17.953  1.00  0.00    -0.270 NA
ATOM      4  C   UNL A   1      14.747   7.411  15.575  1.00  0.00     0.081 A 
ATOM      5  C   UNL A   1      14.188   6.910  16.736  1.00  0.00     0.080 A 
ATOM      6  C   UNL A   1      16.010   7.975  15.581  1.00  0.00     0.080 A 
ATOM      7  C   UNL A   1      14.943   6.998  17.895  1.00  0.00     0.142 A 
ATOM      8  C   UNL A   1      16.683   8.014  16.791  1.00  0.00     0.142 A 
ENDROOT
BRANCH   4   9
ATOM      9  N   UNL A   1      14.017   7.346  14.363  1.00  0.00    -0.320 N 
ATOM     10  C   UNL A   1      13.923   6.281  13.457  1.00  0.00     0.256 C 
ATOM     11  O   UNL A   1      14.491   5.183  13.585  1.00  0.00    -0.267 OA
ATOM     12  H   UNL A   1      13.509   8.155  14.126  1.00  0.00     0.169 HD
BRANCH  10  13
ATOM     13  C   UNL A   1      13.110   6.522  12.275  1.00  0.00     0.035 A 
ATOM     14  C   UNL A   1      13.506   7.480  11.340  1.00  0.00     0.056 A 
ATOM     15  C   UNL A   1      12.726   7.712  10.208  1.00  0.00     0.103 A 
ATOM     16  C   UNL A   1      11.551   6.987  10.009  1.00  0.00     0.108 A 
ATOM     17  C   UNL A   1      11.155   6.030  10.943  1.00  0.00     0.041 A 
ATOM     18  C   UNL A   1      11.936   5.798  12.076  1.00  0.00     0.020 A 
BRANCH  15  19
ATOM     19  O   UNL A   1      13.121   8.649   9.302  1.00  0.00    -0.348 OA
BRANCH  19  20
ATOM     20  C   UNL A   1      14.510   8.697   8.983  1.00  0.00     0.180 C 
BRANCH  20  21
ATOM     21  C   UNL A   1      14.903   7.443   8.280  1.00  0.00     0.010 A 
ATOM     22  C   UNL A   1      16.062   7.474   7.332  1.00  0.00     0.007 A 
ATOM     23  C   UNL A   1      16.189   6.773   8.652  1.00  0.00     0.007 A 
ENDBRANCH  20  21
ENDBRANCH  19  20
ENDBRANCH  15  19
BRANCH  16  24
ATOM     24  O   UNL A   1      10.781   7.204   8.906  1.00  0.00    -0.287 OA
BRANCH  24  25
ATOM     25  C   UNL A   1      11.103   6.471   7.731  1.00  0.00     0.505 C 
ATOM     26  F   UNL A   1      10.251   5.415   7.661  1.00  0.00    -0.184 F 
ATOM     27  F   UNL A   1      10.852   7.241   6.644  1.00  0.00    -0.184 F 
ENDBRANCH  24  25
ENDBRANCH  16  24
ENDBRANCH  10  13
ENDBRANCH   4   9
TORSDOF 7
ENDMDL
MODEL 8
REMARK VINA RESULT:      -6.9      3.382      4.090
REMARK  7 active torsions:
REMARK  status: ('A' for Active; 'I' for Inactive)
REMARK    1  A    between atoms: O_5  and  C_13 
REMARK    2  A    between atoms: O_5  and  C_14 
REMARK    3  A    between atoms: O_6  and  C_15 
REMARK    4  A    between atoms: O_6  and  C_22 
REMARK       I    between atoms: N_8  and  C_20 
REMARK    5  A    between atoms: N_8  and  C_21 
REMARK    6  A    between atoms: C_10  and  C_13 
REMARK    7  A    between atoms: C_17  and  C_20 
ROOT
ATOM      1 CL   UNL A   1      19.556   6.685   8.822  1.00  0.00    -0.080 Cl
ATOM      2 CL   UNL A   1      17.094   8.441  13.379  1.00  0.00    -0.080 Cl
ATOM      3  N   UNL A   1      20.876   7.654  12.443  1.00  0.00    -0.270 NA
ATOM      4  C   UNL A   1      18.418   7.566  11.149  1.00  0.00     0.081 A 
ATOM      5  C   UNL A   1      19.562   7.202  10.464  1.00  0.00     0.080 A 
ATOM      6  C   UNL A   1      18.480   7.973  12.469  1.00  0.00     0.080 A 
ATOM      7  C   UNL A   1      20.763   7.262  11.154  1.00  0.00     0.142 A 
ATOM      8  C   UNL A   1      19.729   8.000  13.068  1.00  0.00     0.142 A 
ENDROOT
BRANCH   4   9
ATOM      9  N   UNL A   1      17.165   7.522  10.489  1.00  0.00    -0.320 N 
ATOM     10  C   UNL A   1      16.146   6.568  10.614  1.00  0.00     0.256 C 
ATOM     11  O   UNL A   1      16.188   5.572  11.354  1.00  0.00    -0.267 OA
ATOM     12  H   UNL A   1      16.987   8.259   9.861  1.00  0.00     0.169 HD
BRANCH  10  13
ATOM     13  C   UNL A   1      14.973   6.779   9.779  1.00  0.00     0.035 A 
ATOM     14  C   UNL A   1      13.702   6.799  10.353  1.00  0.00     0.056 A 
ATOM     15  C   UNL A   1      12.579   6.999   9.551  1.00  0.00     0.103 A 
ATOM     16  C   UNL A   1      12.726   7.180   8.176  1.00  0.00     0.108 A 
ATOM     17  C   UNL A   1      13.997   7.160   7.602  1.00  0.00     0.041 A 
ATOM     18  C   UNL A   1      15.121   6.959   8.404  1.00  0.00     0.020 A 
BRANCH  15  19
ATOM     19  O   UNL A   1      11.342   7.017  10.122  1.00  0.00    -0.348 OA
BRANCH  19  20
ATOM     20  C   UNL A   1      10.768   8.295  10.385  1.00  0.00     0.180 C 
BRANCH  20  21
ATOM     21  C   UNL A   1      11.248   8.797  11.703  1.00  0.00     0.010 A 
ATOM     22  C   UNL A   1      12.246   9.912  11.738  1.00  0.00     0.007 A 
ATOM     23  C   UNL A   1      10.828  10.159  12.160  1.00  0.00     0.007 A 
ENDBRANCH  20  21
ENDBRANCH  19  20
ENDBRANCH  15  19
BRANCH  16  24
ATOM     24  O   UNL A   1      11.636   7.378   7.383  1.00  0.00    -0.287 OA
BRANCH  24  25
ATOM     25  C   UNL A   1      11.156   6.264   6.641  1.00  0.00     0.505 C 
ATOM     26  F   UNL A   1      10.387   5.517   7.476  1.00  0.00    -0.184 F 
ATOM     27  F   UNL A   1      10.339   6.705   5.654  1.00  0.00    -0.184 F 
ENDBRANCH  24  25
ENDBRANCH  16  24
ENDBRANCH  10  13
ENDBRANCH   4   9
TORSDOF 7
ENDMDL
MODEL 9
REMARK VINA RESULT:      -6.7      2.177      3.681
REMARK  7 active torsions:
REMARK  status: ('A' for Active; 'I' for Inactive)
REMARK    1  A    between atoms: O_5  and  C_13 
REMARK    2  A    between atoms: O_5  and  C_14 
REMARK    3  A    between atoms: O_6  and  C_15 
REMARK    4  A    between atoms: O_6  and  C_22 
REMARK       I    between atoms: N_8  and  C_20 
REMARK    5  A    between atoms: N_8  and  C_21 
REMARK    6  A    between atoms: C_10  and  C_13 
REMARK    7  A    between atoms: C_17  and  C_20 
ROOT
ATOM      1 CL   UNL A   1      17.425   8.119  14.336  1.00  0.00    -0.080 Cl
ATOM      2 CL   UNL A   1      12.654   6.415  16.395  1.00  0.00    -0.080 Cl
ATOM      3  N   UNL A   1      16.104   7.511  18.035  1.00  0.00    -0.270 NA
ATOM      4  C   UNL A   1      15.079   7.276  15.462  1.00  0.00     0.081 A 
ATOM      5  C   UNL A   1      16.379   7.708  15.641  1.00  0.00     0.080 A 
ATOM      6  C   UNL A   1      14.281   6.958  16.546  1.00  0.00     0.080 A 
ATOM      7  C   UNL A   1      16.844   7.808  16.942  1.00  0.00     0.142 A 
ATOM      8  C   UNL A   1      14.839   7.092  17.807  1.00  0.00     0.142 A 
ENDROOT
BRANCH   4   9
ATOM      9  N   UNL A   1      14.555   7.156  14.151  1.00  0.00    -0.320 N 
ATOM     10  C   UNL A   1      14.668   6.080  13.261  1.00  0.00     0.256 C 
ATOM     11  O   UNL A   1      15.271   5.020  13.496  1.00  0.00    -0.267 OA
ATOM     12  H   UNL A   1      14.045   7.932  13.823  1.00  0.00     0.169 HD
BRANCH  10  13
ATOM     13  C   UNL A   1      14.041   6.262  11.961  1.00  0.00     0.035 A 
ATOM     14  C   UNL A   1      14.822   6.567  10.846  1.00  0.00     0.056 A 
ATOM     15  C   UNL A   1      14.219   6.743   9.600  1.00  0.00     0.103 A 
ATOM     16  C   UNL A   1      12.836   6.615   9.470  1.00  0.00     0.108 A 
ATOM     17  C   UNL A   1      12.055   6.310  10.585  1.00  0.00     0.041 A 
ATOM     18  C   UNL A   1      12.658   6.134  11.830  1.00  0.00     0.020 A 
BRANCH  15  19
ATOM     19  O   UNL A   1      14.991   7.040   8.519  1.00  0.00    -0.348 OA
BRANCH  19  20
ATOM     20  C   UNL A   1      16.312   7.512   8.775  1.00  0.00     0.180 C 
BRANCH  20  21
ATOM     21  C   UNL A   1      17.297   6.644   8.070  1.00  0.00     0.010 A 
ATOM     22  C   UNL A   1      18.759   6.854   8.317  1.00  0.00     0.007 A 
ATOM     23  C   UNL A   1      18.072   5.635   8.858  1.00  0.00     0.007 A 
ENDBRANCH  20  21
ENDBRANCH  19  20
ENDBRANCH  15  19
BRANCH  16  24
ATOM     24  O   UNL A   1      12.237   6.783   8.258  1.00  0.00    -0.287 OA
BRANCH  24  25
ATOM     25  C   UNL A   1      10.861   6.437   8.157  1.00  0.00     0.505 C 
ATOM     26  F   UNL A   1      10.137   7.520   8.543  1.00  0.00    -0.184 F 
ATOM     27  F   UNL A   1      10.554   6.212   6.856  1.00  0.00    -0.184 F 
ENDBRANCH  24  25
ENDBRANCH  16  24
ENDBRANCH  10  13
ENDBRANCH   4   9
TORSDOF 7
ENDMDL
