MODEL 1
REMARK VINA RESULT:      -7.4      0.000      0.000
REMARK  7 active torsions:
REMARK  status: ('A' for Active; 'I' for Inactive)
REMARK    1  A    between atoms: O_5  and  C_13 
REMARK    2  A    between atoms: O_5  and  C_14 
REMARK    3  A    between atoms: O_6  and  C_15 
REMARK    4  A    between atoms: O_6  and  C_22 
REMARK       I    between atoms: N_8  and  C_20 
REMARK    5  A    between atoms: N_8  and  C_21 
REMARK    6  A    between atoms: C_10  and  C_13 
REMARK    7  A    between atoms: C_17  and  C_20 
ROOT
ATOM      1 CL   UNL A   1      17.314   8.542  14.517  1.00  0.00    -0.080 Cl
ATOM      2 CL   UNL A   1      12.727   6.413  16.600  1.00  0.00    -0.080 Cl
ATOM      3  N   UNL A   1      16.228   7.439  18.177  1.00  0.00    -0.270 NA
ATOM      4  C   UNL A   1      15.064   7.476  15.653  1.00  0.00     0.081 A 
ATOM      5  C   UNL A   1      16.358   7.935  15.814  1.00  0.00     0.080 A 
ATOM      6  C   UNL A   1      14.341   6.998  16.731  1.00  0.00     0.080 A 
ATOM      7  C   UNL A   1      16.893   7.895  17.092  1.00  0.00     0.142 A 
ATOM      8  C   UNL A   1      14.966   7.001  17.968  1.00  0.00     0.142 A 
ENDROOT
BRANCH   4   9
ATOM      9  N   UNL A   1      14.471   7.495  14.367  1.00  0.00    -0.320 N 
ATOM     10  C   UNL A   1      14.449   6.480  13.400  1.00  0.00     0.256 C 
ATOM     11  O   UNL A   1      14.969   5.360  13.530  1.00  0.00    -0.267 OA
ATOM     12  H   UNL A   1      14.014   8.332  14.120  1.00  0.00     0.169 HD
BRANCH  10  13
ATOM     13  C   UNL A   1      13.778   6.808  12.152  1.00  0.00     0.035 A 
ATOM     14  C   UNL A   1      12.545   7.460  12.173  1.00  0.00     0.056 A 
ATOM     15  C   UNL A   1      11.902   7.772  10.975  1.00  0.00     0.103 A 
ATOM     16  C   UNL A   1      12.491   7.433   9.757  1.00  0.00     0.108 A 
ATOM     17  C   UNL A   1      13.724   6.781   9.736  1.00  0.00     0.041 A 
ATOM     18  C   UNL A   1      14.367   6.468  10.934  1.00  0.00     0.020 A 
BRANCH  15  19
ATOM     19  O   UNL A   1      10.698   8.408  11.007  1.00  0.00    -0.348 OA
BRANCH  19  20
ATOM     20  C   UNL A   1      10.542   9.451  11.967  1.00  0.00     0.180 C 
BRANCH  20  21
ATOM     21  C   UNL A   1      11.364  10.627  11.565  1.00  0.00     0.010 A 
ATOM     22  C   UNL A   1      10.991  11.984  12.076  1.00  0.00     0.007 A 
ATOM     23  C   UNL A   1      12.222  11.299  12.591  1.00  0.00     0.007 A 
ENDBRANCH  20  21
ENDBRANCH  19  20
ENDBRANCH  15  19
BRANCH  16  24
ATOM     24  O   UNL A   1      11.873   7.734   8.581  1.00  0.00    -0.287 OA
BRANCH  24  25
ATOM     25  C   UNL A   1      11.411   6.647   7.789  1.00  0.00     0.505 C 
ATOM     26  F   UNL A   1      10.227   7.018   7.235  1.00  0.00    -0.184 F 
ATOM     27  F   UNL A   1      12.272   6.447   6.762  1.00  0.00    -0.184 F 
ENDBRANCH  24  25
ENDBRANCH  16  24
ENDBRANCH  10  13
ENDBRANCH   4   9
TORSDOF 7
ENDMDL
MODEL 2
REMARK VINA RESULT:      -7.3      0.462      1.843
REMARK  7 active torsions:
REMARK  status: ('A' for Active; 'I' for Inactive)
REMARK    1  A    between atoms: O_5  and  C_13 
REMARK    2  A    between atoms: O_5  and  C_14 
REMARK    3  A    between atoms: O_6  and  C_15 
REMARK    4  A    between atoms: O_6  and  C_22 
REMARK       I    between atoms: N_8  and  C_20 
REMARK    5  A    between atoms: N_8  and  C_21 
REMARK    6  A    between atoms: C_10  and  C_13 
REMARK    7  A    between atoms: C_17  and  C_20 
ROOT
ATOM      1 CL   UNL A   1      12.728   6.269  16.394  1.00  0.00    -0.080 Cl
ATOM      2 CL   UNL A   1      17.203   8.791  14.515  1.00  0.00    -0.080 Cl
ATOM      3  N   UNL A   1      16.122   7.445  18.095  1.00  0.00    -0.270 NA
ATOM      4  C   UNL A   1      15.007   7.526  15.551  1.00  0.00     0.081 A 
ATOM      5  C   UNL A   1      14.297   6.952  16.588  1.00  0.00     0.080 A 
ATOM      6  C   UNL A   1      16.265   8.062  15.762  1.00  0.00     0.080 A 
ATOM      7  C   UNL A   1      14.895   6.936  17.837  1.00  0.00     0.142 A 
ATOM      8  C   UNL A   1      16.776   7.996  17.048  1.00  0.00     0.142 A 
ENDROOT
BRANCH   4   9
ATOM      9  N   UNL A   1      14.440   7.567  14.253  1.00  0.00    -0.320 N 
ATOM     10  C   UNL A   1      14.456   6.577  13.261  1.00  0.00     0.256 C 
ATOM     11  O   UNL A   1      14.995   5.463  13.375  1.00  0.00    -0.267 OA
ATOM     12  H   UNL A   1      13.973   8.401  14.017  1.00  0.00     0.169 HD
BRANCH  10  13
ATOM     13  C   UNL A   1      13.805   6.923  12.007  1.00  0.00     0.035 A 
ATOM     14  C   UNL A   1      12.653   7.709  12.014  1.00  0.00     0.056 A 
ATOM     15  C   UNL A   1      12.029   8.040  10.811  1.00  0.00     0.103 A 
ATOM     16  C   UNL A   1      12.556   7.585   9.603  1.00  0.00     0.108 A 
ATOM     17  C   UNL A   1      13.709   6.799   9.596  1.00  0.00     0.041 A 
ATOM     18  C   UNL A   1      14.333   6.468  10.799  1.00  0.00     0.020 A 
BRANCH  15  19
ATOM     19  O   UNL A   1      10.905   8.808  10.828  1.00  0.00    -0.348 OA
BRANCH  19  20
ATOM     20  C   UNL A   1      10.769   9.735  11.904  1.00  0.00     0.180 C 
BRANCH  20  21
ATOM     21  C   UNL A   1      11.441  11.016  11.547  1.00  0.00     0.010 A 
ATOM     22  C   UNL A   1      10.962  12.288  12.175  1.00  0.00     0.007 A 
ATOM     23  C   UNL A   1      12.286  11.705  12.572  1.00  0.00     0.007 A 
ENDBRANCH  20  21
ENDBRANCH  19  20
ENDBRANCH  15  19
BRANCH  16  24
ATOM     24  O   UNL A   1      11.957   7.902   8.422  1.00  0.00    -0.287 OA
BRANCH  24  25
ATOM     25  C   UNL A   1      11.332   6.847   7.702  1.00  0.00     0.505 C 
ATOM     26  F   UNL A   1      10.307   6.382   8.463  1.00  0.00    -0.184 F 
ATOM     27  F   UNL A   1      10.776   7.348   6.571  1.00  0.00    -0.184 F 
ENDBRANCH  24  25
ENDBRANCH  16  24
ENDBRANCH  10  13
ENDBRANCH   4   9
TORSDOF 7
ENDMDL
MODEL 3
REMARK VINA RESULT:      -7.3      3.722      4.823
REMARK  7 active torsions:
REMARK  status: ('A' for Active; 'I' for Inactive)
REMARK    1  A    between atoms: O_5  and  C_13 
REMARK    2  A    between atoms: O_5  and  C_14 
REMARK    3  A    between atoms: O_6  and  C_15 
REMARK    4  A    between atoms: O_6  and  C_22 
REMARK       I    between atoms: N_8  and  C_20 
REMARK    5  A    between atoms: N_8  and  C_21 
REMARK    6  A    between atoms: C_10  and  C_13 
REMARK    7  A    between atoms: C_17  and  C_20 
ROOT
ATOM      1 CL   UNL A   1      18.122   8.228  12.346  1.00  0.00    -0.080 Cl
ATOM      2 CL   UNL A   1      18.772   3.869   9.107  1.00  0.00    -0.080 Cl
ATOM      3  N   UNL A   1      21.114   5.679  11.759  1.00  0.00    -0.270 NA
ATOM      4  C   UNL A   1      18.544   6.035  10.764  1.00  0.00     0.081 A 
ATOM      5  C   UNL A   1      19.031   6.906  11.720  1.00  0.00     0.080 A 
ATOM      6  C   UNL A   1      19.317   4.990  10.295  1.00  0.00     0.080 A 
ATOM      7  C   UNL A   1      20.318   6.686  12.184  1.00  0.00     0.142 A 
ATOM      8  C   UNL A   1      20.591   4.855  10.823  1.00  0.00     0.142 A 
ENDROOT
BRANCH   4   9
ATOM      9  N   UNL A   1      17.233   6.216  10.257  1.00  0.00    -0.320 N 
ATOM     10  C   UNL A   1      16.836   6.837   9.064  1.00  0.00     0.256 C 
ATOM     11  O   UNL A   1      17.607   7.345   8.234  1.00  0.00    -0.267 OA
ATOM     12  H   UNL A   1      16.506   5.859  10.816  1.00  0.00     0.169 HD
BRANCH  10  13
ATOM     13  C   UNL A   1      15.402   6.894   8.826  1.00  0.00     0.035 A 
ATOM     14  C   UNL A   1      14.512   6.790   9.895  1.00  0.00     0.056 A 
ATOM     15  C   UNL A   1      13.138   6.844   9.665  1.00  0.00     0.103 A 
ATOM     16  C   UNL A   1      12.653   7.002   8.367  1.00  0.00     0.108 A 
ATOM     17  C   UNL A   1      13.543   7.106   7.297  1.00  0.00     0.041 A 
ATOM     18  C   UNL A   1      14.918   7.052   7.527  1.00  0.00     0.020 A 
BRANCH  15  19
ATOM     19  O   UNL A   1      12.278   6.741  10.716  1.00  0.00    -0.348 OA
BRANCH  19  20
ATOM     20  C   UNL A   1      12.367   7.744  11.727  1.00  0.00     0.180 C 
BRANCH  20  21
ATOM     21  C   UNL A   1      11.965   9.062  11.158  1.00  0.00     0.010 A 
ATOM     22  C   UNL A   1      10.511   9.352  10.952  1.00  0.00     0.007 A 
ATOM     23  C   UNL A   1      11.271  10.052  12.040  1.00  0.00     0.007 A 
ENDBRANCH  20  21
ENDBRANCH  19  20
ENDBRANCH  15  19
BRANCH  16  24
ATOM     24  O   UNL A   1      11.313   7.058   8.130  1.00  0.00    -0.287 OA
BRANCH  24  25
ATOM     25  C   UNL A   1      10.841   6.502   6.909  1.00  0.00     0.505 C 
ATOM     26  F   UNL A   1      10.059   5.435   7.220  1.00  0.00    -0.184 F 
ATOM     27  F   UNL A   1      10.038   7.402   6.290  1.00  0.00    -0.184 F 
ENDBRANCH  24  25
ENDBRANCH  16  24
ENDBRANCH  10  13
ENDBRANCH   4   9
TORSDOF 7
ENDMDL
MODEL 4
REMARK VINA RESULT:      -7.2      3.364      4.026
REMARK  7 active torsions:
REMARK  status: ('A' for Active; 'I' for Inactive)
REMARK    1  A    between atoms: O_5  and  C_13 
REMARK    2  A    between atoms: O_5  and  C_14 
REMARK    3  A    between atoms: O_6  and  C_15 
REMARK    4  A    between atoms: O_6  and  C_22 
REMARK       I    between atoms: N_8  and  C_20 
REMARK    5  A    between atoms: N_8  and  C_21 
REMARK    6  A    between atoms: C_10  and  C_13 
REMARK    7  A    between atoms: C_17  and  C_20 
ROOT
ATOM      1 CL   UNL A   1      19.435   6.722   8.830  1.00  0.00    -0.080 Cl
ATOM      2 CL   UNL A   1      17.040   8.497  13.415  1.00  0.00    -0.080 Cl
ATOM      3  N   UNL A   1      20.812   7.748  12.414  1.00  0.00    -0.270 NA
ATOM      4  C   UNL A   1      18.331   7.614  11.169  1.00  0.00     0.081 A 
ATOM      5  C   UNL A   1      19.466   7.257  10.466  1.00  0.00     0.080 A 
ATOM      6  C   UNL A   1      18.413   8.037  12.483  1.00  0.00     0.080 A 
ATOM      7  C   UNL A   1      20.679   7.341  11.131  1.00  0.00     0.142 A 
ATOM      8  C   UNL A   1      19.673   8.087  13.058  1.00  0.00     0.142 A 
ENDROOT
BRANCH   4   9
ATOM      9  N   UNL A   1      17.066   7.547  10.535  1.00  0.00    -0.320 N 
ATOM     10  C   UNL A   1      16.080   6.557  10.655  1.00  0.00     0.256 C 
ATOM     11  O   UNL A   1      16.171   5.544  11.368  1.00  0.00    -0.267 OA
ATOM     12  H   UNL A   1      16.851   8.294   9.930  1.00  0.00     0.169 HD
BRANCH  10  13
ATOM     13  C   UNL A   1      14.884   6.751   9.850  1.00  0.00     0.035 A 
ATOM     14  C   UNL A   1      13.626   6.715  10.451  1.00  0.00     0.056 A 
ATOM     15  C   UNL A   1      12.479   6.900   9.679  1.00  0.00     0.103 A 
ATOM     16  C   UNL A   1      12.591   7.121   8.306  1.00  0.00     0.108 A 
ATOM     17  C   UNL A   1      13.849   7.157   7.705  1.00  0.00     0.041 A 
ATOM     18  C   UNL A   1      14.996   6.972   8.478  1.00  0.00     0.020 A 
BRANCH  15  19
ATOM     19  O   UNL A   1      11.256   6.863  10.275  1.00  0.00    -0.348 OA
BRANCH  19  20
ATOM     20  C   UNL A   1      11.070   7.687  11.424  1.00  0.00     0.180 C 
BRANCH  20  21
ATOM     21  C   UNL A   1      11.267   9.116  11.050  1.00  0.00     0.010 A 
ATOM     22  C   UNL A   1      10.883  10.183  12.027  1.00  0.00     0.007 A 
ATOM     23  C   UNL A   1      12.330   9.909  11.743  1.00  0.00     0.007 A 
ENDBRANCH  20  21
ENDBRANCH  19  20
ENDBRANCH  15  19
BRANCH  16  24
ATOM     24  O   UNL A   1      11.479   7.304   7.541  1.00  0.00    -0.287 OA
BRANCH  24  25
ATOM     25  C   UNL A   1      11.118   6.255   6.651  1.00  0.00     0.505 C 
ATOM     26  F   UNL A   1      10.338   5.382   7.342  1.00  0.00    -0.184 F 
ATOM     27  F   UNL A   1      10.345   6.761   5.659  1.00  0.00    -0.184 F 
ENDBRANCH  24  25
ENDBRANCH  16  24
ENDBRANCH  10  13
ENDBRANCH   4   9
TORSDOF 7
ENDMDL
MODEL 5
REMARK VINA RESULT:      -7.2      3.084      3.836
REMARK  7 active torsions:
REMARK  status: ('A' for Active; 'I' for Inactive)
REMARK    1  A    between atoms: O_5  and  C_13 
REMARK    2  A    between atoms: O_5  and  C_14 
REMARK    3  A    between atoms: O_6  and  C_15 
REMARK    4  A    between atoms: O_6  and  C_22 
REMARK       I    between atoms: N_8  and  C_20 
REMARK    5  A    between atoms: N_8  and  C_21 
REMARK    6  A    between atoms: C_10  and  C_13 
REMARK    7  A    between atoms: C_17  and  C_20 
ROOT
ATOM      1 CL   UNL A   1      18.369   4.212  10.080  1.00  0.00    -0.080 Cl
ATOM      2 CL   UNL A   1      16.411   7.944  13.566  1.00  0.00    -0.080 Cl
ATOM      3  N   UNL A   1      19.741   5.777  13.465  1.00  0.00    -0.270 NA
ATOM      4  C   UNL A   1      17.476   6.067  11.882  1.00  0.00     0.081 A 
ATOM      5  C   UNL A   1      18.462   5.175  11.504  1.00  0.00     0.080 A 
ATOM      6  C   UNL A   1      17.601   6.816  13.038  1.00  0.00     0.080 A 
ATOM      7  C   UNL A   1      19.571   5.067  12.327  1.00  0.00     0.142 A 
ATOM      8  C   UNL A   1      18.749   6.635  13.792  1.00  0.00     0.142 A 
ENDROOT
BRANCH   4   9
ATOM      9  N   UNL A   1      16.321   6.216  11.075  1.00  0.00    -0.320 N 
ATOM     10  C   UNL A   1      16.182   6.920   9.871  1.00  0.00     0.256 C 
ATOM     11  O   UNL A   1      17.091   7.548   9.304  1.00  0.00    -0.267 OA
ATOM     12  H   UNL A   1      15.509   5.765  11.403  1.00  0.00     0.169 HD
BRANCH  10  13
ATOM     13  C   UNL A   1      14.852   6.914   9.282  1.00  0.00     0.035 A 
ATOM     14  C   UNL A   1      13.733   6.711  10.089  1.00  0.00     0.056 A 
ATOM     15  C   UNL A   1      12.458   6.705   9.523  1.00  0.00     0.103 A 
ATOM     16  C   UNL A   1      12.303   6.901   8.151  1.00  0.00     0.108 A 
ATOM     17  C   UNL A   1      13.422   7.103   7.343  1.00  0.00     0.041 A 
ATOM     18  C   UNL A   1      14.697   7.110   7.910  1.00  0.00     0.020 A 
BRANCH  15  19
ATOM     19  O   UNL A   1      11.372   6.506  10.320  1.00  0.00    -0.348 OA
BRANCH  19  20
ATOM     20  C   UNL A   1      11.265   7.322  11.485  1.00  0.00     0.180 C 
BRANCH  20  21
ATOM     21  C   UNL A   1      11.118   8.749  11.082  1.00  0.00     0.010 A 
ATOM     22  C   UNL A   1      10.783   9.768  12.126  1.00  0.00     0.007 A 
ATOM     23  C   UNL A   1      12.154   9.737  11.517  1.00  0.00     0.007 A 
ENDBRANCH  20  21
ENDBRANCH  19  20
ENDBRANCH  15  19
BRANCH  16  24
ATOM     24  O   UNL A   1      11.063   6.898   7.586  1.00  0.00    -0.287 OA
BRANCH  24  25
ATOM     25  C   UNL A   1      10.831   5.982   6.523  1.00  0.00     0.505 C 
ATOM     26  F   UNL A   1      10.059   4.976   7.010  1.00  0.00    -0.184 F 
ATOM     27  F   UNL A   1      10.102   6.596   5.559  1.00  0.00    -0.184 F 
ENDBRANCH  24  25
ENDBRANCH  16  24
ENDBRANCH  10  13
ENDBRANCH   4   9
TORSDOF 7
ENDMDL
MODEL 6
REMARK VINA RESULT:      -7.2      2.675      3.634
REMARK  7 active torsions:
REMARK  status: ('A' for Active; 'I' for Inactive)
REMARK    1  A    between atoms: O_5  and  C_13 
REMARK    2  A    between atoms: O_5  and  C_14 
REMARK    3  A    between atoms: O_6  and  C_15 
REMARK    4  A    between atoms: O_6  and  C_22 
REMARK       I    between atoms: N_8  and  C_20 
REMARK    5  A    between atoms: N_8  and  C_21 
REMARK    6  A    between atoms: C_10  and  C_13 
REMARK    7  A    between atoms: C_17  and  C_20 
ROOT
ATOM      1 CL   UNL A   1      15.840   8.615  14.077  1.00  0.00    -0.080 Cl
ATOM      2 CL   UNL A   1      19.472   7.230  10.230  1.00  0.00    -0.080 Cl
ATOM      3  N   UNL A   1      19.782   8.113  14.093  1.00  0.00    -0.270 NA
ATOM      4  C   UNL A   1      17.733   7.929  12.224  1.00  0.00     0.081 A 
ATOM      5  C   UNL A   1      17.437   8.279  13.528  1.00  0.00     0.080 A 
ATOM      6  C   UNL A   1      19.035   7.670  11.836  1.00  0.00     0.080 A 
ATOM      7  C   UNL A   1      18.493   8.357  14.421  1.00  0.00     0.142 A 
ATOM      8  C   UNL A   1      20.020   7.775  12.805  1.00  0.00     0.142 A 
ENDROOT
BRANCH   4   9
ATOM      9  N   UNL A   1      16.689   7.835  11.271  1.00  0.00    -0.320 N 
ATOM     10  C   UNL A   1      15.881   6.730  10.967  1.00  0.00     0.256 C 
ATOM     11  O   UNL A   1      15.963   5.616  11.511  1.00  0.00    -0.267 OA
ATOM     12  H   UNL A   1      16.506   8.653  10.755  1.00  0.00     0.169 HD
BRANCH  10  13
ATOM     13  C   UNL A   1      14.901   6.931   9.912  1.00  0.00     0.035 A 
ATOM     14  C   UNL A   1      13.560   7.138  10.235  1.00  0.00     0.056 A 
ATOM     15  C   UNL A   1      12.621   7.329   9.222  1.00  0.00     0.103 A 
ATOM     16  C   UNL A   1      13.022   7.314   7.887  1.00  0.00     0.108 A 
ATOM     17  C   UNL A   1      14.362   7.108   7.563  1.00  0.00     0.041 A 
ATOM     18  C   UNL A   1      15.302   6.916   8.576  1.00  0.00     0.020 A 
BRANCH  15  19
ATOM     19  O   UNL A   1      11.314   7.530   9.550  1.00  0.00    -0.348 OA
BRANCH  19  20
ATOM     20  C   UNL A   1      10.987   7.534  10.938  1.00  0.00     0.180 C 
BRANCH  20  21
ATOM     21  C   UNL A   1      10.415   8.858  11.312  1.00  0.00     0.010 A 
ATOM     22  C   UNL A   1      10.674   9.401  12.683  1.00  0.00     0.007 A 
ATOM     23  C   UNL A   1      11.337  10.023  11.491  1.00  0.00     0.007 A 
ENDBRANCH  20  21
ENDBRANCH  19  20
ENDBRANCH  15  19
BRANCH  16  24
ATOM     24  O   UNL A   1      12.113   7.502   6.889  1.00  0.00    -0.287 OA
BRANCH  24  25
ATOM     25  C   UNL A   1      11.271   6.405   6.558  1.00  0.00     0.505 C 
ATOM     26  F   UNL A   1      10.153   6.909   5.972  1.00  0.00    -0.184 F 
ATOM     27  F   UNL A   1      11.884   5.639   5.623  1.00  0.00    -0.184 F 
ENDBRANCH  24  25
ENDBRANCH  16  24
ENDBRANCH  10  13
ENDBRANCH   4   9
TORSDOF 7
ENDMDL
MODEL 7
REMARK VINA RESULT:      -7.1      2.385      3.097
REMARK  7 active torsions:
REMARK  status: ('A' for Active; 'I' for Inactive)
REMARK    1  A    between atoms: O_5  and  C_13 
REMARK    2  A    between atoms: O_5  and  C_14 
REMARK    3  A    between atoms: O_6  and  C_15 
REMARK    4  A    between atoms: O_6  and  C_22 
REMARK       I    between atoms: N_8  and  C_20 
REMARK    5  A    between atoms: N_8  and  C_21 
REMARK    6  A    between atoms: C_10  and  C_13 
REMARK    7  A    between atoms: C_17  and  C_20 
ROOT
ATOM      1 CL   UNL A   1      17.283   3.737  11.819  1.00  0.00    -0.080 Cl
ATOM      2 CL   UNL A   1      15.375   8.379  13.992  1.00  0.00    -0.080 Cl
ATOM      3  N   UNL A   1      17.960   5.633  15.246  1.00  0.00    -0.270 NA
ATOM      4  C   UNL A   1      16.388   6.042  12.990  1.00  0.00     0.081 A 
ATOM      5  C   UNL A   1      17.193   4.921  13.066  1.00  0.00     0.080 A 
ATOM      6  C   UNL A   1      16.354   6.962  14.022  1.00  0.00     0.080 A 
ATOM      7  C   UNL A   1      17.957   4.762  14.211  1.00  0.00     0.142 A 
ATOM      8  C   UNL A   1      17.156   6.713  15.124  1.00  0.00     0.142 A 
ENDROOT
BRANCH   4   9
ATOM      9  N   UNL A   1      15.587   6.252  11.841  1.00  0.00    -0.320 N 
ATOM     10  C   UNL A   1      15.980   6.708  10.575  1.00  0.00     0.256 C 
ATOM     11  O   UNL A   1      17.141   7.012  10.255  1.00  0.00    -0.267 OA
ATOM     12  H   UNL A   1      14.629   6.050  11.945  1.00  0.00     0.169 HD
BRANCH  10  13
ATOM     13  C   UNL A   1      14.916   6.849   9.593  1.00  0.00     0.035 A 
ATOM     14  C   UNL A   1      13.584   6.869  10.006  1.00  0.00     0.056 A 
ATOM     15  C   UNL A   1      12.564   7.003   9.063  1.00  0.00     0.103 A 
ATOM     16  C   UNL A   1      12.877   7.117   7.709  1.00  0.00     0.108 A 
ATOM     17  C   UNL A   1      14.209   7.097   7.296  1.00  0.00     0.041 A 
ATOM     18  C   UNL A   1      15.229   6.963   8.238  1.00  0.00     0.020 A 
BRANCH  15  19
ATOM     19  O   UNL A   1      11.267   7.022   9.477  1.00  0.00    -0.348 OA
BRANCH  19  20
ATOM     20  C   UNL A   1      11.033   7.259  10.864  1.00  0.00     0.180 C 
BRANCH  20  21
ATOM     21  C   UNL A   1      10.558   8.658  11.057  1.00  0.00     0.010 A 
ATOM     22  C   UNL A   1      10.576   9.249  12.433  1.00  0.00     0.007 A 
ATOM     23  C   UNL A   1      11.553   9.723  11.398  1.00  0.00     0.007 A 
ENDBRANCH  20  21
ENDBRANCH  19  20
ENDBRANCH  15  19
BRANCH  16  24
ATOM     24  O   UNL A   1      11.890   7.250   6.779  1.00  0.00    -0.287 OA
BRANCH  24  25
ATOM     25  C   UNL A   1      11.246   6.062   6.335  1.00  0.00     0.505 C 
ATOM     26  F   UNL A   1      10.095   6.427   5.714  1.00  0.00    -0.184 F 
ATOM     27  F   UNL A   1      12.018   5.462   5.396  1.00  0.00    -0.184 F 
ENDBRANCH  24  25
ENDBRANCH  16  24
ENDBRANCH  10  13
ENDBRANCH   4   9
TORSDOF 7
ENDMDL
MODEL 8
REMARK VINA RESULT:      -7.1      2.711      4.288
REMARK  7 active torsions:
REMARK  status: ('A' for Active; 'I' for Inactive)
REMARK    1  A    between atoms: O_5  and  C_13 
REMARK    2  A    between atoms: O_5  and  C_14 
REMARK    3  A    between atoms: O_6  and  C_15 
REMARK    4  A    between atoms: O_6  and  C_22 
REMARK       I    between atoms: N_8  and  C_20 
REMARK    5  A    between atoms: N_8  and  C_21 
REMARK    6  A    between atoms: C_10  and  C_13 
REMARK    7  A    between atoms: C_17  and  C_20 
ROOT
ATOM      1 CL   UNL A   1      15.756   3.211  13.000  1.00  0.00    -0.080 Cl
ATOM      2 CL   UNL A   1      15.467   8.538  14.202  1.00  0.00    -0.080 Cl
ATOM      3  N   UNL A   1      16.999   5.390  16.082  1.00  0.00    -0.270 NA
ATOM      4  C   UNL A   1      15.662   5.857  13.691  1.00  0.00     0.081 A 
ATOM      5  C   UNL A   1      16.054   4.571  14.013  1.00  0.00     0.080 A 
ATOM      6  C   UNL A   1      15.926   6.914  14.542  1.00  0.00     0.080 A 
ATOM      7  C   UNL A   1      16.717   4.390  15.217  1.00  0.00     0.142 A 
ATOM      8  C   UNL A   1      16.596   6.629  15.721  1.00  0.00     0.142 A 
ENDROOT
BRANCH   4   9
ATOM      9  N   UNL A   1      14.981   6.095  12.472  1.00  0.00    -0.320 N 
ATOM     10  C   UNL A   1      13.609   6.291  12.261  1.00  0.00     0.256 C 
ATOM     11  O   UNL A   1      12.744   6.285  13.152  1.00  0.00    -0.267 OA
ATOM     12  H   UNL A   1      15.546   6.127  11.666  1.00  0.00     0.169 HD
BRANCH  10  13
ATOM     13  C   UNL A   1      13.200   6.488  10.880  1.00  0.00     0.035 A 
ATOM     14  C   UNL A   1      14.159   6.743   9.899  1.00  0.00     0.056 A 
ATOM     15  C   UNL A   1      13.765   6.933   8.574  1.00  0.00     0.103 A 
ATOM     16  C   UNL A   1      12.415   6.869   8.230  1.00  0.00     0.108 A 
ATOM     17  C   UNL A   1      11.457   6.614   9.211  1.00  0.00     0.041 A 
ATOM     18  C   UNL A   1      11.850   6.424  10.536  1.00  0.00     0.020 A 
BRANCH  15  19
ATOM     19  O   UNL A   1      14.709   7.181   7.624  1.00  0.00    -0.348 OA
BRANCH  19  20
ATOM     20  C   UNL A   1      15.963   7.690   8.074  1.00  0.00     0.180 C 
BRANCH  20  21
ATOM     21  C   UNL A   1      17.036   6.694   7.791  1.00  0.00     0.010 A 
ATOM     22  C   UNL A   1      18.439   6.998   8.215  1.00  0.00     0.007 A 
ATOM     23  C   UNL A   1      17.648   5.943   8.931  1.00  0.00     0.007 A 
ENDBRANCH  20  21
ENDBRANCH  19  20
ENDBRANCH  15  19
BRANCH  16  24
ATOM     24  O   UNL A   1      12.019   7.051   6.940  1.00  0.00    -0.287 OA
BRANCH  24  25
ATOM     25  C   UNL A   1      10.729   6.574   6.578  1.00  0.00     0.505 C 
ATOM     26  F   UNL A   1      10.166   7.499   5.757  1.00  0.00    -0.184 F 
ATOM     27  F   UNL A   1      10.862   5.440   5.848  1.00  0.00    -0.184 F 
ENDBRANCH  24  25
ENDBRANCH  16  24
ENDBRANCH  10  13
ENDBRANCH   4   9
TORSDOF 7
ENDMDL
MODEL 9
REMARK VINA RESULT:      -7.1      2.256      4.450
REMARK  7 active torsions:
REMARK  status: ('A' for Active; 'I' for Inactive)
REMARK    1  A    between atoms: O_5  and  C_13 
REMARK    2  A    between atoms: O_5  and  C_14 
REMARK    3  A    between atoms: O_6  and  C_15 
REMARK    4  A    between atoms: O_6  and  C_22 
REMARK       I    between atoms: N_8  and  C_20 
REMARK    5  A    between atoms: N_8  and  C_21 
REMARK    6  A    between atoms: C_10  and  C_13 
REMARK    7  A    between atoms: C_17  and  C_20 
ROOT
ATOM      1 CL   UNL A   1      12.774   6.367  14.682  1.00  0.00    -0.080 Cl
ATOM      2 CL   UNL A   1      17.355   8.543  12.633  1.00  0.00    -0.080 Cl
ATOM      3  N   UNL A   1      16.124   7.737  16.325  1.00  0.00    -0.270 NA
ATOM      4  C   UNL A   1      15.103   7.465  13.754  1.00  0.00     0.081 A 
ATOM      5  C   UNL A   1      14.346   7.053  14.835  1.00  0.00     0.080 A 
ATOM      6  C   UNL A   1      16.360   8.011  13.934  1.00  0.00     0.080 A 
ATOM      7  C   UNL A   1      14.899   7.210  16.096  1.00  0.00     0.142 A 
ATOM      8  C   UNL A   1      16.824   8.124  15.235  1.00  0.00     0.142 A 
ENDROOT
BRANCH   4   9
ATOM      9  N   UNL A   1      14.583   7.326  12.444  1.00  0.00    -0.320 N 
ATOM     10  C   UNL A   1      13.656   8.143  11.780  1.00  0.00     0.256 C 
ATOM     11  O   UNL A   1      13.127   9.158  12.263  1.00  0.00    -0.267 OA
ATOM     12  H   UNL A   1      14.916   6.554  11.931  1.00  0.00     0.169 HD
BRANCH  10  13
ATOM     13  C   UNL A   1      13.291   7.726  10.436  1.00  0.00     0.035 A 
ATOM     14  C   UNL A   1      14.278   7.561   9.465  1.00  0.00     0.056 A 
ATOM     15  C   UNL A   1      13.927   7.162   8.175  1.00  0.00     0.103 A 
ATOM     16  C   UNL A   1      12.589   6.930   7.856  1.00  0.00     0.108 A 
ATOM     17  C   UNL A   1      11.602   7.096   8.827  1.00  0.00     0.041 A 
ATOM     18  C   UNL A   1      11.953   7.494  10.117  1.00  0.00     0.020 A 
BRANCH  15  19
ATOM     19  O   UNL A   1      14.899   7.003   7.234  1.00  0.00    -0.348 OA
BRANCH  19  20
ATOM     20  C   UNL A   1      16.159   7.617   7.495  1.00  0.00     0.180 C 
BRANCH  20  21
ATOM     21  C   UNL A   1      17.186   6.565   7.739  1.00  0.00     0.010 A 
ATOM     22  C   UNL A   1      18.524   6.966   8.277  1.00  0.00     0.007 A 
ATOM     23  C   UNL A   1      17.555   6.223   9.149  1.00  0.00     0.007 A 
ENDBRANCH  20  21
ENDBRANCH  19  20
ENDBRANCH  15  19
BRANCH  16  24
ATOM     24  O   UNL A   1      12.234   6.539   6.601  1.00  0.00    -0.287 OA
BRANCH  24  25
ATOM     25  C   UNL A   1      10.860   6.249   6.371  1.00  0.00     0.505 C 
ATOM     26  F   UNL A   1      10.294   7.357   5.824  1.00  0.00    -0.184 F 
ATOM     27  F   UNL A   1      10.763   5.267   5.441  1.00  0.00    -0.184 F 
ENDBRANCH  24  25
ENDBRANCH  16  24
ENDBRANCH  10  13
ENDBRANCH   4   9
TORSDOF 7
ENDMDL
