MODEL 1
REMARK VINA RESULT:      -7.4      0.000      0.000
REMARK  7 active torsions:
REMARK  status: ('A' for Active; 'I' for Inactive)
REMARK    1  A    between atoms: O_5  and  C_13 
REMARK    2  A    between atoms: O_5  and  C_14 
REMARK    3  A    between atoms: O_6  and  C_15 
REMARK    4  A    between atoms: O_6  and  C_22 
REMARK       I    between atoms: N_8  and  C_20 
REMARK    5  A    between atoms: N_8  and  C_21 
REMARK    6  A    between atoms: C_10  and  C_13 
REMARK    7  A    between atoms: C_17  and  C_20 
ROOT
ATOM      1 CL   UNL A   1      12.739   6.265  16.464  1.00  0.00    -0.080 Cl
ATOM      2 CL   UNL A   1      17.166   8.860  14.572  1.00  0.00    -0.080 Cl
ATOM      3  N   UNL A   1      16.137   7.458  18.146  1.00  0.00    -0.270 NA
ATOM      4  C   UNL A   1      14.995   7.559  15.614  1.00  0.00     0.081 A 
ATOM      5  C   UNL A   1      14.302   6.963  16.651  1.00  0.00     0.080 A 
ATOM      6  C   UNL A   1      16.249   8.105  15.819  1.00  0.00     0.080 A 
ATOM      7  C   UNL A   1      14.914   6.939  17.894  1.00  0.00     0.142 A 
ATOM      8  C   UNL A   1      16.774   8.029  17.099  1.00  0.00     0.142 A 
ENDROOT
BRANCH   4   9
ATOM      9  N   UNL A   1      14.414   7.609  14.323  1.00  0.00    -0.320 N 
ATOM     10  C   UNL A   1      14.610   6.738  13.242  1.00  0.00     0.256 C 
ATOM     11  O   UNL A   1      15.356   5.745  13.253  1.00  0.00    -0.267 OA
ATOM     12  H   UNL A   1      13.791   8.355  14.164  1.00  0.00     0.169 HD
BRANCH  10  13
ATOM     13  C   UNL A   1      13.889   7.067  12.023  1.00  0.00     0.035 A 
ATOM     14  C   UNL A   1      12.850   7.997  12.057  1.00  0.00     0.056 A 
ATOM     15  C   UNL A   1      12.158   8.311  10.887  1.00  0.00     0.103 A 
ATOM     16  C   UNL A   1      12.503   7.695   9.685  1.00  0.00     0.108 A 
ATOM     17  C   UNL A   1      13.542   6.764   9.651  1.00  0.00     0.041 A 
ATOM     18  C   UNL A   1      14.235   6.450  10.821  1.00  0.00     0.020 A 
BRANCH  15  19
ATOM     19  O   UNL A   1      11.145   9.221  10.931  1.00  0.00    -0.348 OA
BRANCH  19  20
ATOM     20  C   UNL A   1      11.109  10.096  12.057  1.00  0.00     0.180 C 
BRANCH  20  21
ATOM     21  C   UNL A   1      11.722  11.404  11.691  1.00  0.00     0.010 A 
ATOM     22  C   UNL A   1      11.015  12.669  12.070  1.00  0.00     0.007 A 
ATOM     23  C   UNL A   1      12.280  12.273  12.774  1.00  0.00     0.007 A 
ENDBRANCH  20  21
ENDBRANCH  19  20
ENDBRANCH  15  19
BRANCH  16  24
ATOM     24  O   UNL A   1      11.836   7.994   8.536  1.00  0.00    -0.287 OA
BRANCH  24  25
ATOM     25  C   UNL A   1      11.215   6.918   7.842  1.00  0.00     0.505 C 
ATOM     26  F   UNL A   1      10.159   6.504   8.589  1.00  0.00    -0.184 F 
ATOM     27  F   UNL A   1      10.704   7.379   6.674  1.00  0.00    -0.184 F 
ENDBRANCH  24  25
ENDBRANCH  16  24
ENDBRANCH  10  13
ENDBRANCH   4   9
TORSDOF 7
ENDMDL
MODEL 2
REMARK VINA RESULT:      -7.4      0.575      1.872
REMARK  7 active torsions:
REMARK  status: ('A' for Active; 'I' for Inactive)
REMARK    1  A    between atoms: O_5  and  C_13 
REMARK    2  A    between atoms: O_5  and  C_14 
REMARK    3  A    between atoms: O_6  and  C_15 
REMARK    4  A    between atoms: O_6  and  C_22 
REMARK       I    between atoms: N_8  and  C_20 
REMARK    5  A    between atoms: N_8  and  C_21 
REMARK    6  A    between atoms: C_10  and  C_13 
REMARK    7  A    between atoms: C_17  and  C_20 
ROOT
ATOM      1 CL   UNL A   1      17.147   8.621  14.496  1.00  0.00    -0.080 Cl
ATOM      2 CL   UNL A   1      12.766   6.173  16.670  1.00  0.00    -0.080 Cl
ATOM      3  N   UNL A   1      16.252   7.367  18.159  1.00  0.00    -0.270 NA
ATOM      4  C   UNL A   1      15.004   7.396  15.677  1.00  0.00     0.081 A 
ATOM      5  C   UNL A   1      16.273   7.927  15.808  1.00  0.00     0.080 A 
ATOM      6  C   UNL A   1      14.347   6.850  16.764  1.00  0.00     0.080 A 
ATOM      7  C   UNL A   1      16.852   7.888  17.066  1.00  0.00     0.142 A 
ATOM      8  C   UNL A   1      15.012   6.860  17.980  1.00  0.00     0.142 A 
ENDROOT
BRANCH   4   9
ATOM      9  N   UNL A   1      14.366   7.412  14.411  1.00  0.00    -0.320 N 
ATOM     10  C   UNL A   1      14.357   6.415  13.426  1.00  0.00     0.256 C 
ATOM     11  O   UNL A   1      14.931   5.317  13.517  1.00  0.00    -0.267 OA
ATOM     12  H   UNL A   1      13.864   8.231  14.196  1.00  0.00     0.169 HD
BRANCH  10  13
ATOM     13  C   UNL A   1      13.630   6.734  12.207  1.00  0.00     0.035 A 
ATOM     14  C   UNL A   1      12.392   7.371  12.280  1.00  0.00     0.056 A 
ATOM     15  C   UNL A   1      11.695   7.676  11.111  1.00  0.00     0.103 A 
ATOM     16  C   UNL A   1      12.236   7.343   9.869  1.00  0.00     0.108 A 
ATOM     17  C   UNL A   1      13.475   6.705   9.796  1.00  0.00     0.041 A 
ATOM     18  C   UNL A   1      14.171   6.400  10.966  1.00  0.00     0.020 A 
BRANCH  15  19
ATOM     19  O   UNL A   1      10.487   8.299  11.193  1.00  0.00    -0.348 OA
BRANCH  19  20
ATOM     20  C   UNL A   1      10.392   9.415  12.076  1.00  0.00     0.180 C 
BRANCH  20  21
ATOM     21  C   UNL A   1      11.198  10.547  11.536  1.00  0.00     0.010 A 
ATOM     22  C   UNL A   1      10.980  11.922  12.086  1.00  0.00     0.007 A 
ATOM     23  C   UNL A   1      12.241  11.176  12.404  1.00  0.00     0.007 A 
ENDBRANCH  20  21
ENDBRANCH  19  20
ENDBRANCH  15  19
BRANCH  16  24
ATOM     24  O   UNL A   1      11.566   7.636   8.720  1.00  0.00    -0.287 OA
BRANCH  24  25
ATOM     25  C   UNL A   1      11.030   6.546   7.980  1.00  0.00     0.505 C 
ATOM     26  F   UNL A   1      10.182   5.872   8.800  1.00  0.00    -0.184 F 
ATOM     27  F   UNL A   1      10.279   7.028   6.960  1.00  0.00    -0.184 F 
ENDBRANCH  24  25
ENDBRANCH  16  24
ENDBRANCH  10  13
ENDBRANCH   4   9
TORSDOF 7
ENDMDL
MODEL 3
REMARK VINA RESULT:      -7.3      3.751      4.768
REMARK  7 active torsions:
REMARK  status: ('A' for Active; 'I' for Inactive)
REMARK    1  A    between atoms: O_5  and  C_13 
REMARK    2  A    between atoms: O_5  and  C_14 
REMARK    3  A    between atoms: O_6  and  C_15 
REMARK    4  A    between atoms: O_6  and  C_22 
REMARK       I    between atoms: N_8  and  C_20 
REMARK    5  A    between atoms: N_8  and  C_21 
REMARK    6  A    between atoms: C_10  and  C_13 
REMARK    7  A    between atoms: C_17  and  C_20 
ROOT
ATOM      1 CL   UNL A   1      17.828   8.472  12.337  1.00  0.00    -0.080 Cl
ATOM      2 CL   UNL A   1      18.691   3.993   9.319  1.00  0.00    -0.080 Cl
ATOM      3  N   UNL A   1      20.901   5.981  11.957  1.00  0.00    -0.270 NA
ATOM      4  C   UNL A   1      18.355   6.224  10.869  1.00  0.00     0.081 A 
ATOM      5  C   UNL A   1      18.790   7.149  11.799  1.00  0.00     0.080 A 
ATOM      6  C   UNL A   1      19.170   5.179  10.472  1.00  0.00     0.080 A 
ATOM      7  C   UNL A   1      20.067   6.984  12.312  1.00  0.00     0.142 A 
ATOM      8  C   UNL A   1      20.429   5.102  11.044  1.00  0.00     0.142 A 
ENDROOT
BRANCH   4   9
ATOM      9  N   UNL A   1      17.057   6.347  10.315  1.00  0.00    -0.320 N 
ATOM     10  C   UNL A   1      16.685   6.884   9.074  1.00  0.00     0.256 C 
ATOM     11  O   UNL A   1      17.471   7.354   8.236  1.00  0.00    -0.267 OA
ATOM     12  H   UNL A   1      16.320   6.011  10.874  1.00  0.00     0.169 HD
BRANCH  10  13
ATOM     13  C   UNL A   1      15.258   6.898   8.792  1.00  0.00     0.035 A 
ATOM     14  C   UNL A   1      14.339   6.806   9.837  1.00  0.00     0.056 A 
ATOM     15  C   UNL A   1      12.971   6.819   9.565  1.00  0.00     0.103 A 
ATOM     16  C   UNL A   1      12.522   6.924   8.249  1.00  0.00     0.108 A 
ATOM     17  C   UNL A   1      13.441   7.016   7.203  1.00  0.00     0.041 A 
ATOM     18  C   UNL A   1      14.809   7.003   7.475  1.00  0.00     0.020 A 
BRANCH  15  19
ATOM     19  O   UNL A   1      12.082   6.728  10.593  1.00  0.00    -0.348 OA
BRANCH  19  20
ATOM     20  C   UNL A   1      12.270   7.617  11.693  1.00  0.00     0.180 C 
BRANCH  20  21
ATOM     21  C   UNL A   1      11.037   8.429  11.893  1.00  0.00     0.010 A 
ATOM     22  C   UNL A   1      11.062   9.885  11.546  1.00  0.00     0.007 A 
ATOM     23  C   UNL A   1      10.289   8.922  10.694  1.00  0.00     0.007 A 
ENDBRANCH  20  21
ENDBRANCH  19  20
ENDBRANCH  15  19
BRANCH  16  24
ATOM     24  O   UNL A   1      11.189   6.939   7.971  1.00  0.00    -0.287 OA
BRANCH  24  25
ATOM     25  C   UNL A   1      10.789   6.548   6.663  1.00  0.00     0.505 C 
ATOM     26  F   UNL A   1       9.994   5.454   6.787  1.00  0.00    -0.184 F 
ATOM     27  F   UNL A   1      10.020   7.525   6.122  1.00  0.00    -0.184 F 
ENDBRANCH  24  25
ENDBRANCH  16  24
ENDBRANCH  10  13
ENDBRANCH   4   9
TORSDOF 7
ENDMDL
MODEL 4
REMARK VINA RESULT:      -7.2      3.725      4.686
REMARK  7 active torsions:
REMARK  status: ('A' for Active; 'I' for Inactive)
REMARK    1  A    between atoms: O_5  and  C_13 
REMARK    2  A    between atoms: O_5  and  C_14 
REMARK    3  A    between atoms: O_6  and  C_15 
REMARK    4  A    between atoms: O_6  and  C_22 
REMARK       I    between atoms: N_8  and  C_20 
REMARK    5  A    between atoms: N_8  and  C_21 
REMARK    6  A    between atoms: C_10  and  C_13 
REMARK    7  A    between atoms: C_17  and  C_20 
ROOT
ATOM      1 CL   UNL A   1      18.608   3.678   9.456  1.00  0.00    -0.080 Cl
ATOM      2 CL   UNL A   1      18.054   8.295  12.335  1.00  0.00    -0.080 Cl
ATOM      3  N   UNL A   1      20.959   5.601  12.019  1.00  0.00    -0.270 NA
ATOM      4  C   UNL A   1      18.426   5.972  10.936  1.00  0.00     0.081 A 
ATOM      5  C   UNL A   1      19.169   4.866  10.569  1.00  0.00     0.080 A 
ATOM      6  C   UNL A   1      18.925   6.896  11.835  1.00  0.00     0.080 A 
ATOM      7  C   UNL A   1      20.425   4.726  11.137  1.00  0.00     0.142 A 
ATOM      8  C   UNL A   1      20.193   6.666  12.346  1.00  0.00     0.142 A 
ENDROOT
BRANCH   4   9
ATOM      9  N   UNL A   1      17.135   6.162  10.384  1.00  0.00    -0.320 N 
ATOM     10  C   UNL A   1      16.783   6.802   9.187  1.00  0.00     0.256 C 
ATOM     11  O   UNL A   1      17.585   7.323   8.395  1.00  0.00    -0.267 OA
ATOM     12  H   UNL A   1      16.388   5.797  10.910  1.00  0.00     0.169 HD
BRANCH  10  13
ATOM     13  C   UNL A   1      15.359   6.865   8.896  1.00  0.00     0.035 A 
ATOM     14  C   UNL A   1      14.431   6.765   9.932  1.00  0.00     0.056 A 
ATOM     15  C   UNL A   1      13.065   6.824   9.652  1.00  0.00     0.103 A 
ATOM     16  C   UNL A   1      12.629   6.983   8.336  1.00  0.00     0.108 A 
ATOM     17  C   UNL A   1      13.558   7.082   7.300  1.00  0.00     0.041 A 
ATOM     18  C   UNL A   1      14.924   7.023   7.581  1.00  0.00     0.020 A 
BRANCH  15  19
ATOM     19  O   UNL A   1      12.167   6.726  10.671  1.00  0.00    -0.348 OA
BRANCH  19  20
ATOM     20  C   UNL A   1      12.296   7.659  11.741  1.00  0.00     0.180 C 
BRANCH  20  21
ATOM     21  C   UNL A   1      11.992   9.031  11.245  1.00  0.00     0.010 A 
ATOM     22  C   UNL A   1      10.565   9.418  11.008  1.00  0.00     0.007 A 
ATOM     23  C   UNL A   1      11.320  10.003  12.164  1.00  0.00     0.007 A 
ENDBRANCH  20  21
ENDBRANCH  19  20
ENDBRANCH  15  19
BRANCH  16  24
ATOM     24  O   UNL A   1      11.299   7.043   8.050  1.00  0.00    -0.287 OA
BRANCH  24  25
ATOM     25  C   UNL A   1      10.877   6.529   6.793  1.00  0.00     0.505 C 
ATOM     26  F   UNL A   1      10.092   5.447   7.036  1.00  0.00    -0.184 F 
ATOM     27  F   UNL A   1      10.091   7.446   6.179  1.00  0.00    -0.184 F 
ENDBRANCH  24  25
ENDBRANCH  16  24
ENDBRANCH  10  13
ENDBRANCH   4   9
TORSDOF 7
ENDMDL
MODEL 5
REMARK VINA RESULT:      -7.1      4.036      4.665
REMARK  7 active torsions:
REMARK  status: ('A' for Active; 'I' for Inactive)
REMARK    1  A    between atoms: O_5  and  C_13 
REMARK    2  A    between atoms: O_5  and  C_14 
REMARK    3  A    between atoms: O_6  and  C_15 
REMARK    4  A    between atoms: O_6  and  C_22 
REMARK       I    between atoms: N_8  and  C_20 
REMARK    5  A    between atoms: N_8  and  C_21 
REMARK    6  A    between atoms: C_10  and  C_13 
REMARK    7  A    between atoms: C_17  and  C_20 
ROOT
ATOM      1 CL   UNL A   1      16.961   4.836  12.644  1.00  0.00    -0.080 Cl
ATOM      2 CL   UNL A   1      19.075   6.922   8.052  1.00  0.00    -0.080 Cl
ATOM      3  N   UNL A   1      20.676   5.494  11.397  1.00  0.00    -0.270 NA
ATOM      4  C   UNL A   1      18.114   5.865  10.386  1.00  0.00     0.081 A 
ATOM      5  C   UNL A   1      18.278   5.315  11.644  1.00  0.00     0.080 A 
ATOM      6  C   UNL A   1      19.208   6.233   9.625  1.00  0.00     0.080 A 
ATOM      7  C   UNL A   1      19.575   5.152  12.103  1.00  0.00     0.142 A 
ATOM      8  C   UNL A   1      20.463   6.028  10.173  1.00  0.00     0.142 A 
ENDROOT
BRANCH   4   9
ATOM      9  N   UNL A   1      16.808   6.053   9.870  1.00  0.00    -0.320 N 
ATOM     10  C   UNL A   1      16.011   7.206   9.910  1.00  0.00     0.256 C 
ATOM     11  O   UNL A   1      16.344   8.285  10.427  1.00  0.00    -0.267 OA
ATOM     12  H   UNL A   1      16.408   5.271   9.425  1.00  0.00     0.169 HD
BRANCH  10  13
ATOM     13  C   UNL A   1      14.690   7.085   9.313  1.00  0.00     0.035 A 
ATOM     14  C   UNL A   1      13.585   6.806  10.117  1.00  0.00     0.056 A 
ATOM     15  C   UNL A   1      12.318   6.689   9.544  1.00  0.00     0.103 A 
ATOM     16  C   UNL A   1      12.158   6.851   8.168  1.00  0.00     0.108 A 
ATOM     17  C   UNL A   1      13.263   7.131   7.364  1.00  0.00     0.041 A 
ATOM     18  C   UNL A   1      14.529   7.247   7.937  1.00  0.00     0.020 A 
BRANCH  15  19
ATOM     19  O   UNL A   1      11.246   6.416  10.338  1.00  0.00    -0.348 OA
BRANCH  19  20
ATOM     20  C   UNL A   1      11.145   7.142  11.561  1.00  0.00     0.180 C 
BRANCH  20  21
ATOM     21  C   UNL A   1      10.692   8.533  11.280  1.00  0.00     0.010 A 
ATOM     22  C   UNL A   1      10.526   9.488  12.421  1.00  0.00     0.007 A 
ATOM     23  C   UNL A   1      11.659   9.662  11.454  1.00  0.00     0.007 A 
ENDBRANCH  20  21
ENDBRANCH  19  20
ENDBRANCH  15  19
BRANCH  16  24
ATOM     24  O   UNL A   1      10.926   6.741   7.597  1.00  0.00    -0.287 OA
BRANCH  24  25
ATOM     25  C   UNL A   1      10.792   5.848   6.498  1.00  0.00     0.505 C 
ATOM     26  F   UNL A   1      10.009   4.814   6.903  1.00  0.00    -0.184 F 
ATOM     27  F   UNL A   1      10.122   6.471   5.498  1.00  0.00    -0.184 F 
ENDBRANCH  24  25
ENDBRANCH  16  24
ENDBRANCH  10  13
ENDBRANCH   4   9
TORSDOF 7
ENDMDL
MODEL 6
REMARK VINA RESULT:      -7.0      2.035      2.984
REMARK  7 active torsions:
REMARK  status: ('A' for Active; 'I' for Inactive)
REMARK    1  A    between atoms: O_5  and  C_13 
REMARK    2  A    between atoms: O_5  and  C_14 
REMARK    3  A    between atoms: O_6  and  C_15 
REMARK    4  A    between atoms: O_6  and  C_22 
REMARK       I    between atoms: N_8  and  C_20 
REMARK    5  A    between atoms: N_8  and  C_21 
REMARK    6  A    between atoms: C_10  and  C_13 
REMARK    7  A    between atoms: C_17  and  C_20 
ROOT
ATOM      1 CL   UNL A   1      12.624   6.012  16.892  1.00  0.00    -0.080 Cl
ATOM      2 CL   UNL A   1      16.733   8.612  14.389  1.00  0.00    -0.080 Cl
ATOM      3  N   UNL A   1      16.128   7.417  18.131  1.00  0.00    -0.270 NA
ATOM      4  C   UNL A   1      14.730   7.315  15.731  1.00  0.00     0.081 A 
ATOM      5  C   UNL A   1      14.170   6.769  16.870  1.00  0.00     0.080 A 
ATOM      6  C   UNL A   1      15.977   7.913  15.770  1.00  0.00     0.080 A 
ATOM      7  C   UNL A   1      14.906   6.845  18.041  1.00  0.00     0.142 A 
ATOM      8  C   UNL A   1      16.633   7.937  16.990  1.00  0.00     0.142 A 
ENDROOT
BRANCH   4   9
ATOM      9  N   UNL A   1      14.018   7.263  14.507  1.00  0.00    -0.320 N 
ATOM     10  C   UNL A   1      14.026   6.253  13.535  1.00  0.00     0.256 C 
ATOM     11  O   UNL A   1      14.688   5.204  13.602  1.00  0.00    -0.267 OA
ATOM     12  H   UNL A   1      13.443   8.038  14.315  1.00  0.00     0.169 HD
BRANCH  10  13
ATOM     13  C   UNL A   1      13.205   6.497  12.360  1.00  0.00     0.035 A 
ATOM     14  C   UNL A   1      13.583   7.470  11.435  1.00  0.00     0.056 A 
ATOM     15  C   UNL A   1      12.794   7.704  10.308  1.00  0.00     0.103 A 
ATOM     16  C   UNL A   1      11.628   6.965  10.108  1.00  0.00     0.108 A 
ATOM     17  C   UNL A   1      11.250   5.992  11.033  1.00  0.00     0.041 A 
ATOM     18  C   UNL A   1      12.039   5.758  12.159  1.00  0.00     0.020 A 
BRANCH  15  19
ATOM     19  O   UNL A   1      13.172   8.656   9.411  1.00  0.00    -0.348 OA
BRANCH  19  20
ATOM     20  C   UNL A   1      14.552   8.700   9.056  1.00  0.00     0.180 C 
BRANCH  20  21
ATOM     21  C   UNL A   1      14.913   7.464   8.305  1.00  0.00     0.010 A 
ATOM     22  C   UNL A   1      16.084   7.496   7.374  1.00  0.00     0.007 A 
ATOM     23  C   UNL A   1      16.171   6.737   8.665  1.00  0.00     0.007 A 
ENDBRANCH  20  21
ENDBRANCH  19  20
ENDBRANCH  15  19
BRANCH  16  24
ATOM     24  O   UNL A   1      10.850   7.184   9.011  1.00  0.00    -0.287 OA
BRANCH  24  25
ATOM     25  C   UNL A   1      11.195   6.492   7.817  1.00  0.00     0.505 C 
ATOM     26  F   UNL A   1      10.042   6.044   7.256  1.00  0.00    -0.184 F 
ATOM     27  F   UNL A   1      11.737   7.368   6.936  1.00  0.00    -0.184 F 
ENDBRANCH  24  25
ENDBRANCH  16  24
ENDBRANCH  10  13
ENDBRANCH   4   9
TORSDOF 7
ENDMDL
MODEL 7
REMARK VINA RESULT:      -6.8      2.284      3.747
REMARK  7 active torsions:
REMARK  status: ('A' for Active; 'I' for Inactive)
REMARK    1  A    between atoms: O_5  and  C_13 
REMARK    2  A    between atoms: O_5  and  C_14 
REMARK    3  A    between atoms: O_6  and  C_15 
REMARK    4  A    between atoms: O_6  and  C_22 
REMARK       I    between atoms: N_8  and  C_20 
REMARK    5  A    between atoms: N_8  and  C_21 
REMARK    6  A    between atoms: C_10  and  C_13 
REMARK    7  A    between atoms: C_17  and  C_20 
ROOT
ATOM      1 CL   UNL A   1      13.406   4.500  18.648  1.00  0.00    -0.080 Cl
ATOM      2 CL   UNL A   1      17.474   7.467  16.512  1.00  0.00    -0.080 Cl
ATOM      3  N   UNL A   1      17.088   5.371  19.866  1.00  0.00    -0.270 NA
ATOM      4  C   UNL A   1      15.499   5.961  17.663  1.00  0.00     0.081 A 
ATOM      5  C   UNL A   1      14.995   5.164  18.673  1.00  0.00     0.080 A 
ATOM      6  C   UNL A   1      16.783   6.469  17.734  1.00  0.00     0.080 A 
ATOM      7  C   UNL A   1      15.826   4.899  19.750  1.00  0.00     0.142 A 
ATOM      8  C   UNL A   1      17.535   6.145  18.853  1.00  0.00     0.142 A 
ENDROOT
BRANCH   4   9
ATOM      9  N   UNL A   1      14.690   6.262  16.540  1.00  0.00    -0.320 N 
ATOM     10  C   UNL A   1      14.788   5.760  15.235  1.00  0.00     0.256 C 
ATOM     11  O   UNL A   1      15.635   4.939  14.848  1.00  0.00    -0.267 OA
ATOM     12  H   UNL A   1      13.965   6.909  16.697  1.00  0.00     0.169 HD
BRANCH  10  13
ATOM     13  C   UNL A   1      13.821   6.281  14.280  1.00  0.00     0.035 A 
ATOM     14  C   UNL A   1      13.938   5.966  12.927  1.00  0.00     0.056 A 
ATOM     15  C   UNL A   1      13.012   6.467  12.012  1.00  0.00     0.103 A 
ATOM     16  C   UNL A   1      11.970   7.283  12.451  1.00  0.00     0.108 A 
ATOM     17  C   UNL A   1      11.853   7.599  13.804  1.00  0.00     0.041 A 
ATOM     18  C   UNL A   1      12.779   7.098  14.719  1.00  0.00     0.020 A 
BRANCH  15  19
ATOM     19  O   UNL A   1      13.136   6.153  10.693  1.00  0.00    -0.348 OA
BRANCH  19  20
ATOM     20  C   UNL A   1      14.161   6.822   9.960  1.00  0.00     0.180 C 
BRANCH  20  21
ATOM     21  C   UNL A   1      13.736   6.981   8.541  1.00  0.00     0.010 A 
ATOM     22  C   UNL A   1      12.280   6.895   8.203  1.00  0.00     0.007 A 
ATOM     23  C   UNL A   1      12.990   8.214   8.139  1.00  0.00     0.007 A 
ENDBRANCH  20  21
ENDBRANCH  19  20
ENDBRANCH  15  19
BRANCH  16  24
ATOM     24  O   UNL A   1      11.059   7.778  11.567  1.00  0.00    -0.287 OA
BRANCH  24  25
ATOM     25  C   UNL A   1      10.975   9.192  11.437  1.00  0.00     0.505 C 
ATOM     26  F   UNL A   1      12.194   9.639  11.038  1.00  0.00    -0.184 F 
ATOM     27  F   UNL A   1      10.107   9.496  10.441  1.00  0.00    -0.184 F 
ENDBRANCH  24  25
ENDBRANCH  16  24
ENDBRANCH  10  13
ENDBRANCH   4   9
TORSDOF 7
ENDMDL
MODEL 8
REMARK VINA RESULT:      -6.8      2.464      3.488
REMARK  7 active torsions:
REMARK  status: ('A' for Active; 'I' for Inactive)
REMARK    1  A    between atoms: O_5  and  C_13 
REMARK    2  A    between atoms: O_5  and  C_14 
REMARK    3  A    between atoms: O_6  and  C_15 
REMARK    4  A    between atoms: O_6  and  C_22 
REMARK       I    between atoms: N_8  and  C_20 
REMARK    5  A    between atoms: N_8  and  C_21 
REMARK    6  A    between atoms: C_10  and  C_13 
REMARK    7  A    between atoms: C_17  and  C_20 
ROOT
ATOM      1 CL   UNL A   1      18.249   5.677  16.562  1.00  0.00    -0.080 Cl
ATOM      2 CL   UNL A   1      13.356   4.570  18.740  1.00  0.00    -0.080 Cl
ATOM      3  N   UNL A   1      17.047   4.667  20.213  1.00  0.00    -0.270 NA
ATOM      4  C   UNL A   1      15.848   5.107  17.744  1.00  0.00     0.081 A 
ATOM      5  C   UNL A   1      17.218   5.243  17.871  1.00  0.00     0.080 A 
ATOM      6  C   UNL A   1      15.066   4.755  18.829  1.00  0.00     0.080 A 
ATOM      7  C   UNL A   1      17.767   5.012  19.122  1.00  0.00     0.142 A 
ATOM      8  C   UNL A   1      15.712   4.547  20.037  1.00  0.00     0.142 A 
ENDROOT
BRANCH   4   9
ATOM      9  N   UNL A   1      15.237   5.332  16.486  1.00  0.00    -0.320 N 
ATOM     10  C   UNL A   1      14.576   6.481  16.029  1.00  0.00     0.256 C 
ATOM     11  O   UNL A   1      14.419   7.522  16.688  1.00  0.00    -0.267 OA
ATOM     12  H   UNL A   1      15.283   4.583  15.849  1.00  0.00     0.169 HD
BRANCH  10  13
ATOM     13  C   UNL A   1      14.022   6.403  14.687  1.00  0.00     0.035 A 
ATOM     14  C   UNL A   1      12.756   6.925  14.424  1.00  0.00     0.056 A 
ATOM     15  C   UNL A   1      12.225   6.850  13.136  1.00  0.00     0.103 A 
ATOM     16  C   UNL A   1      12.960   6.252  12.112  1.00  0.00     0.108 A 
ATOM     17  C   UNL A   1      14.226   5.730  12.375  1.00  0.00     0.041 A 
ATOM     18  C   UNL A   1      14.757   5.806  13.663  1.00  0.00     0.020 A 
BRANCH  15  19
ATOM     19  O   UNL A   1      10.987   7.362  12.890  1.00  0.00    -0.348 OA
BRANCH  19  20
ATOM     20  C   UNL A   1      10.778   8.735  13.216  1.00  0.00     0.180 C 
BRANCH  20  21
ATOM     21  C   UNL A   1      10.941   9.568  11.991  1.00  0.00     0.010 A 
ATOM     22  C   UNL A   1      11.169  11.041  12.139  1.00  0.00     0.007 A 
ATOM     23  C   UNL A   1      12.285  10.149  11.681  1.00  0.00     0.007 A 
ENDBRANCH  20  21
ENDBRANCH  19  20
ENDBRANCH  15  19
BRANCH  16  24
ATOM     24  O   UNL A   1      12.452   6.174  10.850  1.00  0.00    -0.287 OA
BRANCH  24  25
ATOM     25  C   UNL A   1      12.983   7.064   9.876  1.00  0.00     0.505 C 
ATOM     26  F   UNL A   1      13.524   6.310   8.884  1.00  0.00    -0.184 F 
ATOM     27  F   UNL A   1      11.968   7.767   9.317  1.00  0.00    -0.184 F 
ENDBRANCH  24  25
ENDBRANCH  16  24
ENDBRANCH  10  13
ENDBRANCH   4   9
TORSDOF 7
ENDMDL
MODEL 9
REMARK VINA RESULT:      -6.8      2.383      2.741
REMARK  7 active torsions:
REMARK  status: ('A' for Active; 'I' for Inactive)
REMARK    1  A    between atoms: O_5  and  C_13 
REMARK    2  A    between atoms: O_5  and  C_14 
REMARK    3  A    between atoms: O_6  and  C_15 
REMARK    4  A    between atoms: O_6  and  C_22 
REMARK       I    between atoms: N_8  and  C_20 
REMARK    5  A    between atoms: N_8  and  C_21 
REMARK    6  A    between atoms: C_10  and  C_13 
REMARK    7  A    between atoms: C_17  and  C_20 
ROOT
ATOM      1 CL   UNL A   1      16.102   3.162  13.081  1.00  0.00    -0.080 Cl
ATOM      2 CL   UNL A   1      16.817   8.506  14.001  1.00  0.00    -0.080 Cl
ATOM      3  N   UNL A   1      18.275   5.220  15.697  1.00  0.00    -0.270 NA
ATOM      4  C   UNL A   1      16.525   5.812  13.620  1.00  0.00     0.081 A 
ATOM      5  C   UNL A   1      16.798   4.492  13.927  1.00  0.00     0.080 A 
ATOM      6  C   UNL A   1      17.112   6.842  14.332  1.00  0.00     0.080 A 
ATOM      7  C   UNL A   1      17.676   4.249  14.971  1.00  0.00     0.142 A 
ATOM      8  C   UNL A   1      17.976   6.494  15.357  1.00  0.00     0.142 A 
ENDROOT
BRANCH   4   9
ATOM      9  N   UNL A   1      15.635   6.114  12.560  1.00  0.00    -0.320 N 
ATOM     10  C   UNL A   1      15.919   6.264  11.196  1.00  0.00     0.256 C 
ATOM     11  O   UNL A   1      17.046   6.150  10.686  1.00  0.00    -0.267 OA
ATOM     12  H   UNL A   1      14.691   6.233  12.817  1.00  0.00     0.169 HD
BRANCH  10  13
ATOM     13  C   UNL A   1      14.789   6.604  10.346  1.00  0.00     0.035 A 
ATOM     14  C   UNL A   1      13.513   6.721  10.896  1.00  0.00     0.056 A 
ATOM     15  C   UNL A   1      12.429   7.046  10.079  1.00  0.00     0.103 A 
ATOM     16  C   UNL A   1      12.623   7.253   8.713  1.00  0.00     0.108 A 
ATOM     17  C   UNL A   1      13.899   7.136   8.163  1.00  0.00     0.041 A 
ATOM     18  C   UNL A   1      14.982   6.811   8.980  1.00  0.00     0.020 A 
BRANCH  15  19
ATOM     19  O   UNL A   1      11.187   7.158  10.626  1.00  0.00    -0.348 OA
BRANCH  19  20
ATOM     20  C   UNL A   1      11.117   7.382  12.033  1.00  0.00     0.180 C 
BRANCH  20  21
ATOM     21  C   UNL A   1      10.665   8.778  12.294  1.00  0.00     0.010 A 
ATOM     22  C   UNL A   1      11.679   9.880  12.302  1.00  0.00     0.007 A 
ATOM     23  C   UNL A   1      10.694   9.771  11.175  1.00  0.00     0.007 A 
ENDBRANCH  20  21
ENDBRANCH  19  20
ENDBRANCH  15  19
BRANCH  16  24
ATOM     24  O   UNL A   1      11.573   7.572   7.906  1.00  0.00    -0.287 OA
BRANCH  24  25
ATOM     25  C   UNL A   1      11.060   6.547   7.064  1.00  0.00     0.505 C 
ATOM     26  F   UNL A   1      10.411   5.653   7.856  1.00  0.00    -0.184 F 
ATOM     27  F   UNL A   1      10.128   7.076   6.235  1.00  0.00    -0.184 F 
ENDBRANCH  24  25
ENDBRANCH  16  24
ENDBRANCH  10  13
ENDBRANCH   4   9
TORSDOF 7
ENDMDL
