MODEL 1
REMARK VINA RESULT:      -9.3      0.000      0.000
REMARK  4 active torsions:
REMARK  status: ('A' for Active; 'I' for Inactive)
REMARK    1  A    between atoms: O_1  and  C_5 
REMARK    2  A    between atoms: O_1  and  C_14 
REMARK    3  A    between atoms: O_2  and  C_18 
REMARK    4  A    between atoms: C_10  and  C_13 
ROOT
HETATM    1  O   UNL     1      22.292  -5.152  33.750  1.00  0.00    -0.343 OA
ENDROOT
BRANCH   1   2
HETATM    2  C   UNL     1      21.983  -6.327  33.012  1.00  0.00     0.129 C 
HETATM    3  C   UNL     1      21.139  -7.256  33.872  1.00  0.00     0.032 C 
HETATM    4  C   UNL     1      22.145  -7.950  34.789  1.00  0.00     0.002 C 
HETATM    5  C   UNL     1      23.501  -7.850  34.090  1.00  0.00     0.002 C 
HETATM    6  C   UNL     1      23.242  -7.142  32.762  1.00  0.00     0.032 C 
ENDBRANCH   1   2
BRANCH   1   7
HETATM    7  C   UNL     1      21.966  -3.955  33.168  1.00  0.00     0.103 A 
HETATM    8  C   UNL     1      21.599  -3.932  31.826  1.00  0.00     0.047 A 
HETATM    9  C   UNL     1      21.266  -2.720  31.222  1.00  0.00    -0.049 A 
HETATM   10  C   UNL     1      21.303  -1.538  31.962  1.00  0.00     0.010 A 
HETATM   11  C   UNL     1      21.672  -1.568  33.306  1.00  0.00     0.040 A 
HETATM   12  C   UNL     1      22.005  -2.780  33.912  1.00  0.00     0.101 A 
BRANCH   9  13
HETATM   13  C   UNL     1      20.865  -2.687  29.763  1.00  0.00     0.045 C 
HETATM   14  C   UNL     1      21.357  -3.856  28.910  1.00  0.00     0.132 C 
HETATM   15  N   UNL     1      20.450  -3.874  27.797  1.00  0.00    -0.360 N 
HETATM   16  C   UNL     1      19.255  -3.222  28.072  1.00  0.00     0.218 C 
HETATM   17  H   UNL     1      20.652  -4.301  26.934  1.00  0.00     0.162 HD
HETATM   18  O   UNL     1      18.283  -3.116  27.342  1.00  0.00    -0.274 OA
HETATM   19  C   UNL     1      19.349  -2.702  29.486  1.00  0.00     0.113 C 
ENDBRANCH   9  13
BRANCH  12  20
HETATM   20  O   UNL     1      22.365  -2.797  35.225  1.00  0.00    -0.353 OA
HETATM   21  C   UNL     1      22.361  -1.549  35.914  1.00  0.00     0.210 C 
ENDBRANCH  12  20
ENDBRANCH   1   7
TORSDOF 4
ENDMDL
MODEL 2
REMARK VINA RESULT:      -8.9      1.435      4.118
REMARK  4 active torsions:
REMARK  status: ('A' for Active; 'I' for Inactive)
REMARK    1  A    between atoms: O_1  and  C_5 
REMARK    2  A    between atoms: O_1  and  C_14 
REMARK    3  A    between atoms: O_2  and  C_18 
REMARK    4  A    between atoms: C_10  and  C_13 
ROOT
HETATM    1  O   UNL     1      22.082  -3.457  33.992  1.00  0.00    -0.343 OA
ENDROOT
BRANCH   1   2
HETATM    2  C   UNL     1      21.765  -2.075  33.882  1.00  0.00     0.129 C 
HETATM    3  C   UNL     1      23.050  -1.272  33.745  1.00  0.00     0.032 C 
HETATM    4  C   UNL     1      23.586  -1.160  35.172  1.00  0.00     0.002 C 
HETATM    5  C   UNL     1      22.389  -1.377  36.097  1.00  0.00     0.002 C 
HETATM    6  C   UNL     1      21.177  -1.562  35.187  1.00  0.00     0.032 C 
ENDBRANCH   1   2
BRANCH   1   7
HETATM    7  C   UNL     1      22.017  -4.197  32.840  1.00  0.00     0.103 A 
HETATM    8  C   UNL     1      21.415  -3.646  31.713  1.00  0.00     0.047 A 
HETATM    9  C   UNL     1      21.342  -4.390  30.536  1.00  0.00    -0.049 A 
HETATM   10  C   UNL     1      21.869  -5.681  30.491  1.00  0.00     0.010 A 
HETATM   11  C   UNL     1      22.470  -6.227  31.625  1.00  0.00     0.040 A 
HETATM   12  C   UNL     1      22.544  -5.484  32.803  1.00  0.00     0.101 A 
BRANCH   9  13
HETATM   13  C   UNL     1      20.691  -3.796  29.305  1.00  0.00     0.045 C 
HETATM   14  C   UNL     1      19.612  -2.743  29.564  1.00  0.00     0.132 C 
HETATM   15  N   UNL     1      19.558  -2.000  28.337  1.00  0.00    -0.360 N 
HETATM   16  C   UNL     1      20.712  -2.136  27.578  1.00  0.00     0.218 C 
HETATM   17  H   UNL     1      18.786  -1.454  28.062  1.00  0.00     0.162 HD
HETATM   18  O   UNL     1      20.973  -1.590  26.519  1.00  0.00    -0.274 OA
HETATM   19  C   UNL     1      21.636  -3.057  28.338  1.00  0.00     0.113 C 
ENDBRANCH   9  13
BRANCH  12  20
HETATM   20  O   UNL     1      23.132  -6.029  33.904  1.00  0.00    -0.353 OA
HETATM   21  C   UNL     1      23.372  -7.434  33.882  1.00  0.00     0.210 C 
ENDBRANCH  12  20
ENDBRANCH   1   7
TORSDOF 4
ENDMDL
MODEL 3
REMARK VINA RESULT:      -8.0      2.634      6.421
REMARK  4 active torsions:
REMARK  status: ('A' for Active; 'I' for Inactive)
REMARK    1  A    between atoms: O_1  and  C_5 
REMARK    2  A    between atoms: O_1  and  C_14 
REMARK    3  A    between atoms: O_2  and  C_18 
REMARK    4  A    between atoms: C_10  and  C_13 
ROOT
HETATM    1  O   UNL     1      20.725  -4.213  29.017  1.00  0.00    -0.343 OA
ENDROOT
BRANCH   1   2
HETATM    2  C   UNL     1      19.573  -3.392  28.881  1.00  0.00     0.129 C 
HETATM    3  C   UNL     1      18.326  -4.222  29.150  1.00  0.00     0.032 C 
HETATM    4  C   UNL     1      18.086  -4.985  27.848  1.00  0.00     0.002 C 
HETATM    5  C   UNL     1      18.798  -4.194  26.751  1.00  0.00     0.002 C 
HETATM    6  C   UNL     1      19.395  -2.965  27.432  1.00  0.00     0.032 C 
ENDBRANCH   1   2
BRANCH   1   7
HETATM    7  C   UNL     1      21.181  -4.431  30.291  1.00  0.00     0.103 A 
HETATM    8  C   UNL     1      21.332  -3.347  31.150  1.00  0.00     0.047 A 
HETATM    9  C   UNL     1      21.796  -3.555  32.450  1.00  0.00    -0.049 A 
HETATM   10  C   UNL     1      22.107  -4.844  32.882  1.00  0.00     0.010 A 
HETATM   11  C   UNL     1      21.953  -5.926  32.015  1.00  0.00     0.040 A 
HETATM   12  C   UNL     1      21.489  -5.719  30.716  1.00  0.00     0.101 A 
BRANCH   9  13
HETATM   13  C   UNL     1      21.962  -2.381  33.390  1.00  0.00     0.045 C 
HETATM   14  C   UNL     1      20.686  -1.605  33.720  1.00  0.00     0.132 C 
HETATM   15  N   UNL     1      20.995  -0.950  34.960  1.00  0.00    -0.360 N 
HETATM   16  C   UNL     1      22.043  -1.557  35.638  1.00  0.00     0.218 C 
HETATM   17  H   UNL     1      20.516  -0.157  35.293  1.00  0.00     0.162 HD
HETATM   18  O   UNL     1      22.494  -1.254  36.731  1.00  0.00    -0.274 OA
HETATM   19  C   UNL     1      22.504  -2.719  34.793  1.00  0.00     0.113 C 
ENDBRANCH   9  13
BRANCH  12  20
HETATM   20  O   UNL     1      21.344  -6.783  29.878  1.00  0.00    -0.353 OA
HETATM   21  C   UNL     1      22.480  -7.625  29.697  1.00  0.00     0.210 C 
ENDBRANCH  12  20
ENDBRANCH   1   7
TORSDOF 4
ENDMDL
MODEL 4
REMARK VINA RESULT:      -7.9      1.236      1.470
REMARK  4 active torsions:
REMARK  status: ('A' for Active; 'I' for Inactive)
REMARK    1  A    between atoms: O_1  and  C_5 
REMARK    2  A    between atoms: O_1  and  C_14 
REMARK    3  A    between atoms: O_2  and  C_18 
REMARK    4  A    between atoms: C_10  and  C_13 
ROOT
HETATM    1  O   UNL     1      22.559  -5.199  32.242  1.00  0.00    -0.343 OA
ENDROOT
BRANCH   1   2
HETATM    2  C   UNL     1      22.075  -6.513  31.995  1.00  0.00     0.129 C 
HETATM    3  C   UNL     1      21.287  -6.998  33.203  1.00  0.00     0.032 C 
HETATM    4  C   UNL     1      22.354  -7.447  34.201  1.00  0.00     0.002 C 
HETATM    5  C   UNL     1      23.611  -7.738  33.382  1.00  0.00     0.002 C 
HETATM    6  C   UNL     1      23.232  -7.498  31.923  1.00  0.00     0.032 C 
ENDBRANCH   1   2
BRANCH   1   7
HETATM    7  C   UNL     1      21.734  -4.163  31.891  1.00  0.00     0.103 A 
HETATM    8  C   UNL     1      21.044  -4.225  30.684  1.00  0.00     0.047 A 
HETATM    9  C   UNL     1      20.203  -3.176  30.315  1.00  0.00    -0.049 A 
HETATM   10  C   UNL     1      20.056  -2.070  31.152  1.00  0.00     0.010 A 
HETATM   11  C   UNL     1      20.751  -2.014  32.360  1.00  0.00     0.040 A 
HETATM   12  C   UNL     1      21.593  -3.063  32.731  1.00  0.00     0.101 A 
BRANCH   9  13
HETATM   13  C   UNL     1      19.448  -3.237  29.004  1.00  0.00     0.045 C 
HETATM   14  C   UNL     1      20.213  -2.754  27.771  1.00  0.00     0.132 C 
HETATM   15  N   UNL     1      19.533  -3.387  26.676  1.00  0.00    -0.360 N 
HETATM   16  C   UNL     1      18.802  -4.498  27.073  1.00  0.00     0.218 C 
HETATM   17  H   UNL     1      19.579  -3.068  25.746  1.00  0.00     0.162 HD
HETATM   18  O   UNL     1      18.164  -5.259  26.363  1.00  0.00    -0.274 OA
HETATM   19  C   UNL     1      18.983  -4.639  28.565  1.00  0.00     0.113 C 
ENDBRANCH   9  13
BRANCH  12  20
HETATM   20  O   UNL     1      22.267  -2.997  33.913  1.00  0.00    -0.353 OA
HETATM   21  C   UNL     1      22.062  -1.833  34.710  1.00  0.00     0.210 C 
ENDBRANCH  12  20
ENDBRANCH   1   7
TORSDOF 4
ENDMDL
MODEL 5
REMARK VINA RESULT:      -7.3      2.637      6.087
REMARK  4 active torsions:
REMARK  status: ('A' for Active; 'I' for Inactive)
REMARK    1  A    between atoms: O_1  and  C_5 
REMARK    2  A    between atoms: O_1  and  C_14 
REMARK    3  A    between atoms: O_2  and  C_18 
REMARK    4  A    between atoms: C_10  and  C_13 
ROOT
HETATM    1  O   UNL     1      20.680  -3.210  30.015  1.00  0.00    -0.343 OA
ENDROOT
BRANCH   1   2
HETATM    2  C   UNL     1      20.566  -3.800  28.726  1.00  0.00     0.129 C 
HETATM    3  C   UNL     1      21.550  -3.133  27.776  1.00  0.00     0.032 C 
HETATM    4  C   UNL     1      20.868  -1.827  27.372  1.00  0.00     0.002 C 
HETATM    5  C   UNL     1      19.373  -2.031  27.616  1.00  0.00     0.002 C 
HETATM    6  C   UNL     1      19.216  -3.468  28.110  1.00  0.00     0.032 C 
ENDBRANCH   1   2
BRANCH   1   7
HETATM    7  C   UNL     1      21.294  -3.960  30.984  1.00  0.00     0.103 A 
HETATM    8  C   UNL     1      21.799  -5.213  30.651  1.00  0.00     0.047 A 
HETATM    9  C   UNL     1      22.425  -5.987  31.629  1.00  0.00    -0.049 A 
HETATM   10  C   UNL     1      22.540  -5.505  32.933  1.00  0.00     0.010 A 
HETATM   11  C   UNL     1      22.030  -4.249  33.259  1.00  0.00     0.040 A 
HETATM   12  C   UNL     1      21.405  -3.474  32.282  1.00  0.00     0.101 A 
BRANCH   9  13
HETATM   13  C   UNL     1      22.979  -7.350  31.275  1.00  0.00     0.045 C 
HETATM   14  C   UNL     1      23.584  -7.482  29.876  1.00  0.00     0.132 C 
HETATM   15  N   UNL     1      24.464  -8.611  29.989  1.00  0.00    -0.360 N 
HETATM   16  C   UNL     1      24.823  -8.879  31.302  1.00  0.00     0.218 C 
HETATM   17  H   UNL     1      24.778  -9.137  29.218  1.00  0.00     0.162 HD
HETATM   18  O   UNL     1      25.590  -9.741  31.700  1.00  0.00    -0.274 OA
HETATM   19  C   UNL     1      24.125  -7.860  32.170  1.00  0.00     0.113 C 
ENDBRANCH   9  13
BRANCH  12  20
HETATM   20  O   UNL     1      20.909  -2.249  32.613  1.00  0.00    -0.353 OA
HETATM   21  C   UNL     1      21.353  -1.682  33.843  1.00  0.00     0.210 C 
ENDBRANCH  12  20
ENDBRANCH   1   7
TORSDOF 4
ENDMDL
MODEL 6
REMARK VINA RESULT:      -7.2      2.473      3.721
REMARK  4 active torsions:
REMARK  status: ('A' for Active; 'I' for Inactive)
REMARK    1  A    between atoms: O_1  and  C_5 
REMARK    2  A    between atoms: O_1  and  C_14 
REMARK    3  A    between atoms: O_2  and  C_18 
REMARK    4  A    between atoms: C_10  and  C_13 
ROOT
HETATM    1  O   UNL     1      23.013  -7.735  30.790  1.00  0.00    -0.343 OA
ENDROOT
BRANCH   1   2
HETATM    2  C   UNL     1      24.175  -7.637  29.976  1.00  0.00     0.129 C 
HETATM    3  C   UNL     1      23.846  -8.110  28.568  1.00  0.00     0.032 C 
HETATM    4  C   UNL     1      23.889  -9.635  28.656  1.00  0.00     0.002 C 
HETATM    5  C   UNL     1      24.750  -9.969  29.873  1.00  0.00     0.002 C 
HETATM    6  C   UNL     1      25.228  -8.633  30.436  1.00  0.00     0.032 C 
ENDBRANCH   1   2
BRANCH   1   7
HETATM    7  C   UNL     1      22.578  -6.580  31.386  1.00  0.00     0.103 A 
HETATM    8  C   UNL     1      21.864  -5.656  30.630  1.00  0.00     0.047 A 
HETATM    9  C   UNL     1      21.417  -4.476  31.225  1.00  0.00    -0.049 A 
HETATM   10  C   UNL     1      21.687  -4.226  32.571  1.00  0.00     0.010 A 
HETATM   11  C   UNL     1      22.404  -5.157  33.322  1.00  0.00     0.040 A 
HETATM   12  C   UNL     1      22.851  -6.337  32.728  1.00  0.00     0.101 A 
BRANCH   9  13
HETATM   13  C   UNL     1      20.638  -3.466  30.410  1.00  0.00     0.045 C 
HETATM   14  C   UNL     1      21.472  -2.535  29.528  1.00  0.00     0.132 C 
HETATM   15  N   UNL     1      20.545  -2.092  28.525  1.00  0.00    -0.360 N 
HETATM   16  C   UNL     1      19.453  -2.939  28.396  1.00  0.00     0.218 C 
HETATM   17  H   UNL     1      20.669  -1.277  27.988  1.00  0.00     0.162 HD
HETATM   18  O   UNL     1      18.533  -2.847  27.599  1.00  0.00    -0.274 OA
HETATM   19  C   UNL     1      19.635  -4.053  29.398  1.00  0.00     0.113 C 
ENDBRANCH   9  13
BRANCH  12  20
HETATM   20  O   UNL     1      23.551  -7.239  33.471  1.00  0.00    -0.353 OA
HETATM   21  C   UNL     1      22.843  -7.910  34.511  1.00  0.00     0.210 C 
ENDBRANCH  12  20
ENDBRANCH   1   7
TORSDOF 4
ENDMDL
MODEL 7
REMARK VINA RESULT:      -7.0      3.130      5.844
REMARK  4 active torsions:
REMARK  status: ('A' for Active; 'I' for Inactive)
REMARK    1  A    between atoms: O_1  and  C_5 
REMARK    2  A    between atoms: O_1  and  C_14 
REMARK    3  A    between atoms: O_2  and  C_18 
REMARK    4  A    between atoms: C_10  and  C_13 
ROOT
HETATM    1  O   UNL     1      22.083  -7.157  29.740  1.00  0.00    -0.343 OA
ENDROOT
BRANCH   1   2
HETATM    2  C   UNL     1      23.460  -7.113  29.387  1.00  0.00     0.129 C 
HETATM    3  C   UNL     1      23.605  -6.529  27.990  1.00  0.00     0.032 C 
HETATM    4  C   UNL     1      23.277  -7.690  27.053  1.00  0.00     0.002 C 
HETATM    5  C   UNL     1      23.508  -8.968  27.858  1.00  0.00     0.002 C 
HETATM    6  C   UNL     1      24.011  -8.522  29.229  1.00  0.00     0.032 C 
ENDBRANCH   1   2
BRANCH   1   7
HETATM    7  C   UNL     1      21.462  -5.953  29.949  1.00  0.00     0.103 A 
HETATM    8  C   UNL     1      21.945  -5.105  30.941  1.00  0.00     0.047 A 
HETATM    9  C   UNL     1      21.320  -3.878  31.165  1.00  0.00    -0.049 A 
HETATM   10  C   UNL     1      20.216  -3.506  30.398  1.00  0.00     0.010 A 
HETATM   11  C   UNL     1      19.737  -4.361  29.406  1.00  0.00     0.040 A 
HETATM   12  C   UNL     1      20.361  -5.589  29.181  1.00  0.00     0.101 A 
BRANCH   9  13
HETATM   13  C   UNL     1      21.841  -2.950  32.241  1.00  0.00     0.045 C 
HETATM   14  C   UNL     1      20.962  -1.739  32.560  1.00  0.00     0.132 C 
HETATM   15  N   UNL     1      21.367  -1.362  33.885  1.00  0.00    -0.360 N 
HETATM   16  C   UNL     1      21.993  -2.396  34.567  1.00  0.00     0.218 C 
HETATM   17  H   UNL     1      21.216  -0.468  34.268  1.00  0.00     0.162 HD
HETATM   18  O   UNL     1      22.400  -2.387  35.717  1.00  0.00    -0.274 OA
HETATM   19  C   UNL     1      22.035  -3.581  33.633  1.00  0.00     0.113 C 
ENDBRANCH   9  13
BRANCH  12  20
HETATM   20  O   UNL     1      19.884  -6.416  28.210  1.00  0.00    -0.353 OA
HETATM   21  C   UNL     1      18.613  -6.092  27.651  1.00  0.00     0.210 C 
ENDBRANCH  12  20
ENDBRANCH   1   7
TORSDOF 4
ENDMDL
MODEL 8
REMARK VINA RESULT:      -6.9      2.659      4.091
REMARK  4 active torsions:
REMARK  status: ('A' for Active; 'I' for Inactive)
REMARK    1  A    between atoms: O_1  and  C_5 
REMARK    2  A    between atoms: O_1  and  C_14 
REMARK    3  A    between atoms: O_2  and  C_18 
REMARK    4  A    between atoms: C_10  and  C_13 
ROOT
HETATM    1  O   UNL     1      21.328  -6.704  31.463  1.00  0.00    -0.343 OA
ENDROOT
BRANCH   1   2
HETATM    2  C   UNL     1      21.305  -5.960  32.674  1.00  0.00     0.129 C 
HETATM    3  C   UNL     1      22.732  -5.638  33.095  1.00  0.00     0.032 C 
HETATM    4  C   UNL     1      23.236  -6.923  33.752  1.00  0.00     0.002 C 
HETATM    5  C   UNL     1      21.993  -7.697  34.187  1.00  0.00     0.002 C 
HETATM    6  C   UNL     1      20.796  -6.824  33.817  1.00  0.00     0.032 C 
ENDBRANCH   1   2
BRANCH   1   7
HETATM    7  C   UNL     1      21.705  -6.030  30.331  1.00  0.00     0.103 A 
HETATM    8  C   UNL     1      20.993  -4.897  29.950  1.00  0.00     0.047 A 
HETATM    9  C   UNL     1      21.366  -4.202  28.799  1.00  0.00    -0.049 A 
HETATM   10  C   UNL     1      22.446  -4.644  28.036  1.00  0.00     0.010 A 
HETATM   11  C   UNL     1      23.155  -5.781  28.423  1.00  0.00     0.040 A 
HETATM   12  C   UNL     1      22.783  -6.476  29.574  1.00  0.00     0.101 A 
BRANCH   9  13
HETATM   13  C   UNL     1      20.597  -2.967  28.378  1.00  0.00     0.045 C 
HETATM   14  C   UNL     1      21.361  -1.972  27.504  1.00  0.00     0.132 C 
HETATM   15  N   UNL     1      20.324  -1.235  26.839  1.00  0.00    -0.360 N 
HETATM   16  C   UNL     1      19.114  -1.914  26.821  1.00  0.00     0.218 C 
HETATM   17  H   UNL     1      20.457  -0.345  26.439  1.00  0.00     0.162 HD
HETATM   18  O   UNL     1      18.073  -1.561  26.290  1.00  0.00    -0.274 OA
HETATM   19  C   UNL     1      19.328  -3.222  27.542  1.00  0.00     0.113 C 
ENDBRANCH   9  13
BRANCH  12  20
HETATM   20  O   UNL     1      23.482  -7.586  29.943  1.00  0.00    -0.353 OA
HETATM   21  C   UNL     1      23.735  -8.557  28.930  1.00  0.00     0.210 C 
ENDBRANCH  12  20
ENDBRANCH   1   7
TORSDOF 4
ENDMDL
MODEL 9
REMARK VINA RESULT:      -6.9      2.816      6.860
REMARK  4 active torsions:
REMARK  status: ('A' for Active; 'I' for Inactive)
REMARK    1  A    between atoms: O_1  and  C_5 
REMARK    2  A    between atoms: O_1  and  C_14 
REMARK    3  A    between atoms: O_2  and  C_18 
REMARK    4  A    between atoms: C_10  and  C_13 
ROOT
HETATM    1  O   UNL     1      19.569  -5.368  27.100  1.00  0.00    -0.343 OA
ENDROOT
BRANCH   1   2
HETATM    2  C   UNL     1      18.859  -6.574  27.351  1.00  0.00     0.129 C 
HETATM    3  C   UNL     1      19.274  -7.626  26.332  1.00  0.00     0.032 C 
HETATM    4  C   UNL     1      18.478  -7.276  25.075  1.00  0.00     0.002 C 
HETATM    5  C   UNL     1      17.278  -6.454  25.543  1.00  0.00     0.002 C 
HETATM    6  C   UNL     1      17.377  -6.385  27.065  1.00  0.00     0.032 C 
ENDBRANCH   1   2
BRANCH   1   7
HETATM    7  C   UNL     1      19.742  -4.521  28.163  1.00  0.00     0.103 A 
HETATM    8  C   UNL     1      20.563  -4.915  29.216  1.00  0.00     0.047 A 
HETATM    9  C   UNL     1      20.747  -4.062  30.304  1.00  0.00    -0.049 A 
HETATM   10  C   UNL     1      20.107  -2.823  30.337  1.00  0.00     0.010 A 
HETATM   11  C   UNL     1      19.285  -2.436  29.279  1.00  0.00     0.040 A 
HETATM   12  C   UNL     1      19.101  -3.287  28.189  1.00  0.00     0.101 A 
BRANCH   9  13
HETATM   13  C   UNL     1      21.640  -4.483  31.452  1.00  0.00     0.045 C 
HETATM   14  C   UNL     1      21.697  -3.520  32.639  1.00  0.00     0.132 C 
HETATM   15  N   UNL     1      22.132  -4.347  33.729  1.00  0.00    -0.360 N 
HETATM   16  C   UNL     1      21.904  -5.697  33.499  1.00  0.00     0.218 C 
HETATM   17  H   UNL     1      22.547  -3.996  34.550  1.00  0.00     0.162 HD
HETATM   18  O   UNL     1      22.124  -6.626  34.259  1.00  0.00    -0.274 OA
HETATM   19  C   UNL     1      21.270  -5.814  32.135  1.00  0.00     0.113 C 
ENDBRANCH   9  13
BRANCH  12  20
HETATM   20  O   UNL     1      18.294  -2.899  27.163  1.00  0.00    -0.353 OA
HETATM   21  C   UNL     1      18.868  -2.044  26.177  1.00  0.00     0.210 C 
ENDBRANCH  12  20
ENDBRANCH   1   7
TORSDOF 4
ENDMDL
