MODEL 1
REMARK VINA RESULT:      -9.2      0.000      0.000
REMARK  4 active torsions:
REMARK  status: ('A' for Active; 'I' for Inactive)
REMARK    1  A    between atoms: O_1  and  C_5 
REMARK    2  A    between atoms: O_1  and  C_14 
REMARK    3  A    between atoms: O_2  and  C_18 
REMARK    4  A    between atoms: C_10  and  C_13 
ROOT
HETATM    1  O   UNL     1      22.301  -5.152  33.749  1.00  0.00    -0.343 OA
ENDROOT
BRANCH   1   2
HETATM    2  C   UNL     1      21.986  -6.328  33.017  1.00  0.00     0.129 C 
HETATM    3  C   UNL     1      21.142  -7.252  33.883  1.00  0.00     0.032 C 
HETATM    4  C   UNL     1      22.150  -7.946  34.798  1.00  0.00     0.002 C 
HETATM    5  C   UNL     1      23.503  -7.852  34.094  1.00  0.00     0.002 C 
HETATM    6  C   UNL     1      23.241  -7.148  32.764  1.00  0.00     0.032 C 
ENDBRANCH   1   2
BRANCH   1   7
HETATM    7  C   UNL     1      21.972  -3.956  33.167  1.00  0.00     0.103 A 
HETATM    8  C   UNL     1      21.601  -3.935  31.826  1.00  0.00     0.047 A 
HETATM    9  C   UNL     1      21.264  -2.723  31.222  1.00  0.00    -0.049 A 
HETATM   10  C   UNL     1      21.302  -1.540  31.960  1.00  0.00     0.010 A 
HETATM   11  C   UNL     1      21.675  -1.569  33.303  1.00  0.00     0.040 A 
HETATM   12  C   UNL     1      22.012  -2.780  33.909  1.00  0.00     0.101 A 
BRANCH   9  13
HETATM   13  C   UNL     1      20.858  -2.693  29.764  1.00  0.00     0.045 C 
HETATM   14  C   UNL     1      21.349  -3.863  28.910  1.00  0.00     0.132 C 
HETATM   15  N   UNL     1      20.438  -3.883  27.801  1.00  0.00    -0.360 N 
HETATM   16  C   UNL     1      19.244  -3.233  28.078  1.00  0.00     0.218 C 
HETATM   17  H   UNL     1      20.638  -4.311  26.937  1.00  0.00     0.162 HD
HETATM   18  O   UNL     1      18.269  -3.129  27.352  1.00  0.00    -0.274 OA
HETATM   19  C   UNL     1      19.341  -2.711  29.492  1.00  0.00     0.113 C 
ENDBRANCH   9  13
BRANCH  12  20
HETATM   20  O   UNL     1      22.376  -2.795  35.221  1.00  0.00    -0.353 OA
HETATM   21  C   UNL     1      22.357  -1.548  35.913  1.00  0.00     0.210 C 
ENDBRANCH  12  20
ENDBRANCH   1   7
TORSDOF 4
ENDMDL
MODEL 2
REMARK VINA RESULT:      -8.9      1.438      4.117
REMARK  4 active torsions:
REMARK  status: ('A' for Active; 'I' for Inactive)
REMARK    1  A    between atoms: O_1  and  C_5 
REMARK    2  A    between atoms: O_1  and  C_14 
REMARK    3  A    between atoms: O_2  and  C_18 
REMARK    4  A    between atoms: C_10  and  C_13 
ROOT
HETATM    1  O   UNL     1      22.089  -3.463  33.995  1.00  0.00    -0.343 OA
ENDROOT
BRANCH   1   2
HETATM    2  C   UNL     1      21.768  -2.083  33.888  1.00  0.00     0.129 C 
HETATM    3  C   UNL     1      23.050  -1.274  33.759  1.00  0.00     0.032 C 
HETATM    4  C   UNL     1      23.580  -1.164  35.188  1.00  0.00     0.002 C 
HETATM    5  C   UNL     1      22.379  -1.388  36.107  1.00  0.00     0.002 C 
HETATM    6  C   UNL     1      21.172  -1.575  35.191  1.00  0.00     0.032 C 
ENDBRANCH   1   2
BRANCH   1   7
HETATM    7  C   UNL     1      22.026  -4.203  32.843  1.00  0.00     0.103 A 
HETATM    8  C   UNL     1      21.423  -3.651  31.717  1.00  0.00     0.047 A 
HETATM    9  C   UNL     1      21.351  -4.394  30.538  1.00  0.00    -0.049 A 
HETATM   10  C   UNL     1      21.880  -5.684  30.493  1.00  0.00     0.010 A 
HETATM   11  C   UNL     1      22.482  -6.231  31.625  1.00  0.00     0.040 A 
HETATM   12  C   UNL     1      22.555  -5.488  32.804  1.00  0.00     0.101 A 
BRANCH   9  13
HETATM   13  C   UNL     1      20.697  -3.801  29.309  1.00  0.00     0.045 C 
HETATM   14  C   UNL     1      19.625  -2.742  29.569  1.00  0.00     0.132 C 
HETATM   15  N   UNL     1      19.570  -2.002  28.340  1.00  0.00    -0.360 N 
HETATM   16  C   UNL     1      20.721  -2.145  27.578  1.00  0.00     0.218 C 
HETATM   17  H   UNL     1      18.799  -1.453  28.067  1.00  0.00     0.162 HD
HETATM   18  O   UNL     1      20.980  -1.603  26.516  1.00  0.00    -0.274 OA
HETATM   19  C   UNL     1      21.643  -3.069  28.337  1.00  0.00     0.113 C 
ENDBRANCH   9  13
BRANCH  12  20
HETATM   20  O   UNL     1      23.145  -6.033  33.905  1.00  0.00    -0.353 OA
HETATM   21  C   UNL     1      23.356  -7.443  33.895  1.00  0.00     0.210 C 
ENDBRANCH  12  20
ENDBRANCH   1   7
TORSDOF 4
ENDMDL
MODEL 3
REMARK VINA RESULT:      -8.0      2.623      6.411
REMARK  4 active torsions:
REMARK  status: ('A' for Active; 'I' for Inactive)
REMARK    1  A    between atoms: O_1  and  C_5 
REMARK    2  A    between atoms: O_1  and  C_14 
REMARK    3  A    between atoms: O_2  and  C_18 
REMARK    4  A    between atoms: C_10  and  C_13 
ROOT
HETATM    1  O   UNL     1      20.759  -4.307  29.105  1.00  0.00    -0.343 OA
ENDROOT
BRANCH   1   2
HETATM    2  C   UNL     1      19.637  -3.447  28.950  1.00  0.00     0.129 C 
HETATM    3  C   UNL     1      18.357  -4.248  29.130  1.00  0.00     0.032 C 
HETATM    4  C   UNL     1      18.154  -4.953  27.789  1.00  0.00     0.002 C 
HETATM    5  C   UNL     1      18.938  -4.142  26.758  1.00  0.00     0.002 C 
HETATM    6  C   UNL     1      19.538  -2.959  27.513  1.00  0.00     0.032 C 
ENDBRANCH   1   2
BRANCH   1   7
HETATM    7  C   UNL     1      21.222  -4.493  30.381  1.00  0.00     0.103 A 
HETATM    8  C   UNL     1      21.359  -3.391  31.219  1.00  0.00     0.047 A 
HETATM    9  C   UNL     1      21.831  -3.567  32.520  1.00  0.00    -0.049 A 
HETATM   10  C   UNL     1      22.165  -4.842  32.975  1.00  0.00     0.010 A 
HETATM   11  C   UNL     1      22.025  -5.942  32.130  1.00  0.00     0.040 A 
HETATM   12  C   UNL     1      21.553  -5.768  30.829  1.00  0.00     0.101 A 
BRANCH   9  13
HETATM   13  C   UNL     1      21.982  -2.373  33.438  1.00  0.00     0.045 C 
HETATM   14  C   UNL     1      20.695  -1.611  33.758  1.00  0.00     0.132 C 
HETATM   15  N   UNL     1      20.998  -0.928  34.984  1.00  0.00    -0.360 N 
HETATM   16  C   UNL     1      22.058  -1.504  35.669  1.00  0.00     0.218 C 
HETATM   17  H   UNL     1      20.507  -0.136  35.304  1.00  0.00     0.162 HD
HETATM   18  O   UNL     1      22.508  -1.173  36.754  1.00  0.00    -0.274 OA
HETATM   19  C   UNL     1      22.534  -2.675  34.844  1.00  0.00     0.113 C 
ENDBRANCH   9  13
BRANCH  12  20
HETATM   20  O   UNL     1      21.422  -6.850  30.012  1.00  0.00    -0.353 OA
HETATM   21  C   UNL     1      22.622  -7.424  29.501  1.00  0.00     0.210 C 
ENDBRANCH  12  20
ENDBRANCH   1   7
TORSDOF 4
ENDMDL
MODEL 4
REMARK VINA RESULT:      -7.7      1.582      2.135
REMARK  4 active torsions:
REMARK  status: ('A' for Active; 'I' for Inactive)
REMARK    1  A    between atoms: O_1  and  C_5 
REMARK    2  A    between atoms: O_1  and  C_14 
REMARK    3  A    between atoms: O_2  and  C_18 
REMARK    4  A    between atoms: C_10  and  C_13 
ROOT
HETATM    1  O   UNL     1      22.169  -5.186  32.049  1.00  0.00    -0.343 OA
ENDROOT
BRANCH   1   2
HETATM    2  C   UNL     1      21.757  -6.541  31.923  1.00  0.00     0.129 C 
HETATM    3  C   UNL     1      21.258  -7.044  33.270  1.00  0.00     0.032 C 
HETATM    4  C   UNL     1      22.529  -7.375  34.051  1.00  0.00     0.002 C 
HETATM    5  C   UNL     1      23.626  -7.595  33.010  1.00  0.00     0.002 C 
HETATM    6  C   UNL     1      22.956  -7.435  31.647  1.00  0.00     0.032 C 
ENDBRANCH   1   2
BRANCH   1   7
HETATM    7  C   UNL     1      21.336  -4.237  31.516  1.00  0.00     0.103 A 
HETATM    8  C   UNL     1      20.548  -4.568  30.417  1.00  0.00     0.047 A 
HETATM    9  C   UNL     1      19.697  -3.610  29.865  1.00  0.00    -0.049 A 
HETATM   10  C   UNL     1      19.640  -2.328  30.411  1.00  0.00     0.010 A 
HETATM   11  C   UNL     1      20.433  -2.003  31.511  1.00  0.00     0.040 A 
HETATM   12  C   UNL     1      21.284  -2.960  32.065  1.00  0.00     0.101 A 
BRANCH   9  13
HETATM   13  C   UNL     1      18.836  -3.963  28.671  1.00  0.00     0.045 C 
HETATM   14  C   UNL     1      19.004  -3.071  27.440  1.00  0.00     0.132 C 
HETATM   15  N   UNL     1      18.531  -3.887  26.359  1.00  0.00    -0.360 N 
HETATM   16  C   UNL     1      18.542  -5.241  26.667  1.00  0.00     0.218 C 
HETATM   17  H   UNL     1      18.232  -3.527  25.492  1.00  0.00     0.162 HD
HETATM   18  O   UNL     1      18.243  -6.171  25.935  1.00  0.00    -0.274 OA
HETATM   19  C   UNL     1      19.054  -5.369  28.081  1.00  0.00     0.113 C 
ENDBRANCH   9  13
BRANCH  12  20
HETATM   20  O   UNL     1      22.055  -2.631  33.139  1.00  0.00    -0.353 OA
HETATM   21  C   UNL     1      21.473  -1.769  34.114  1.00  0.00     0.210 C 
ENDBRANCH  12  20
ENDBRANCH   1   7
TORSDOF 4
ENDMDL
MODEL 5
REMARK VINA RESULT:      -7.4      2.621      6.052
REMARK  4 active torsions:
REMARK  status: ('A' for Active; 'I' for Inactive)
REMARK    1  A    between atoms: O_1  and  C_5 
REMARK    2  A    between atoms: O_1  and  C_14 
REMARK    3  A    between atoms: O_2  and  C_18 
REMARK    4  A    between atoms: C_10  and  C_13 
ROOT
HETATM    1  O   UNL     1      20.668  -3.181  30.117  1.00  0.00    -0.343 OA
ENDROOT
BRANCH   1   2
HETATM    2  C   UNL     1      20.465  -3.797  28.852  1.00  0.00     0.129 C 
HETATM    3  C   UNL     1      21.485  -3.259  27.859  1.00  0.00     0.032 C 
HETATM    4  C   UNL     1      20.922  -1.905  27.427  1.00  0.00     0.002 C 
HETATM    5  C   UNL     1      19.421  -1.957  27.709  1.00  0.00     0.002 C 
HETATM    6  C   UNL     1      19.139  -3.355  28.254  1.00  0.00     0.032 C 
ENDBRANCH   1   2
BRANCH   1   7
HETATM    7  C   UNL     1      21.297  -3.932  31.075  1.00  0.00     0.103 A 
HETATM    8  C   UNL     1      21.791  -5.188  30.734  1.00  0.00     0.047 A 
HETATM    9  C   UNL     1      22.433  -5.963  31.700  1.00  0.00    -0.049 A 
HETATM   10  C   UNL     1      22.576  -5.480  33.001  1.00  0.00     0.010 A 
HETATM   11  C   UNL     1      22.078  -4.221  33.336  1.00  0.00     0.040 A 
HETATM   12  C   UNL     1      21.437  -3.445  32.370  1.00  0.00     0.101 A 
BRANCH   9  13
HETATM   13  C   UNL     1      22.974  -7.329  31.337  1.00  0.00     0.045 C 
HETATM   14  C   UNL     1      23.555  -7.463  29.929  1.00  0.00     0.132 C 
HETATM   15  N   UNL     1      24.431  -8.597  30.027  1.00  0.00    -0.360 N 
HETATM   16  C   UNL     1      24.810  -8.868  31.335  1.00  0.00     0.218 C 
HETATM   17  H   UNL     1      24.731  -9.124  29.252  1.00  0.00     0.162 HD
HETATM   18  O   UNL     1      25.579  -9.734  31.720  1.00  0.00    -0.274 OA
HETATM   19  C   UNL     1      24.132  -7.845  32.213  1.00  0.00     0.113 C 
ENDBRANCH   9  13
BRANCH  12  20
HETATM   20  O   UNL     1      20.953  -2.217  32.709  1.00  0.00    -0.353 OA
HETATM   21  C   UNL     1      21.346  -1.694  33.975  1.00  0.00     0.210 C 
ENDBRANCH  12  20
ENDBRANCH   1   7
TORSDOF 4
ENDMDL
MODEL 6
REMARK VINA RESULT:      -7.3      2.576      3.851
REMARK  4 active torsions:
REMARK  status: ('A' for Active; 'I' for Inactive)
REMARK    1  A    between atoms: O_1  and  C_5 
REMARK    2  A    between atoms: O_1  and  C_14 
REMARK    3  A    between atoms: O_2  and  C_18 
REMARK    4  A    between atoms: C_10  and  C_13 
ROOT
HETATM    1  O   UNL     1      22.981  -7.869  30.551  1.00  0.00    -0.343 OA
ENDROOT
BRANCH   1   2
HETATM    2  C   UNL     1      24.139  -7.780  29.731  1.00  0.00     0.129 C 
HETATM    3  C   UNL     1      23.890  -8.517  28.423  1.00  0.00     0.032 C 
HETATM    4  C   UNL     1      24.099  -9.991  28.768  1.00  0.00     0.002 C 
HETATM    5  C   UNL     1      24.972 -10.017  30.023  1.00  0.00     0.002 C 
HETATM    6  C   UNL     1      25.289  -8.559  30.350  1.00  0.00     0.032 C 
ENDBRANCH   1   2
BRANCH   1   7
HETATM    7  C   UNL     1      22.602  -6.728  31.208  1.00  0.00     0.103 A 
HETATM    8  C   UNL     1      21.925  -5.735  30.506  1.00  0.00     0.047 A 
HETATM    9  C   UNL     1      21.534  -4.569  31.163  1.00  0.00    -0.049 A 
HETATM   10  C   UNL     1      21.823  -4.400  32.517  1.00  0.00     0.010 A 
HETATM   11  C   UNL     1      22.502  -5.398  33.215  1.00  0.00     0.040 A 
HETATM   12  C   UNL     1      22.893  -6.566  32.559  1.00  0.00     0.101 A 
BRANCH   9  13
HETATM   13  C   UNL     1      20.797  -3.485  30.406  1.00  0.00     0.045 C 
HETATM   14  C   UNL     1      21.657  -2.596  29.508  1.00  0.00     0.132 C 
HETATM   15  N   UNL     1      20.722  -2.062  28.558  1.00  0.00    -0.360 N 
HETATM   16  C   UNL     1      19.566  -2.825  28.460  1.00  0.00     0.218 C 
HETATM   17  H   UNL     1      20.882  -1.245  28.033  1.00  0.00     0.162 HD
HETATM   18  O   UNL     1      18.621  -2.647  27.709  1.00  0.00    -0.274 OA
HETATM   19  C   UNL     1      19.710  -3.973  29.429  1.00  0.00     0.113 C 
ENDBRANCH   9  13
BRANCH  12  20
HETATM   20  O   UNL     1      23.557  -7.534  33.250  1.00  0.00    -0.353 OA
HETATM   21  C   UNL     1      22.994  -7.942  34.495  1.00  0.00     0.210 C 
ENDBRANCH  12  20
ENDBRANCH   1   7
TORSDOF 4
ENDMDL
MODEL 7
REMARK VINA RESULT:      -7.2      2.652      5.429
REMARK  4 active torsions:
REMARK  status: ('A' for Active; 'I' for Inactive)
REMARK    1  A    between atoms: O_1  and  C_5 
REMARK    2  A    between atoms: O_1  and  C_14 
REMARK    3  A    between atoms: O_2  and  C_18 
REMARK    4  A    between atoms: C_10  and  C_13 
ROOT
HETATM    1  O   UNL     1      22.236  -5.581  30.026  1.00  0.00    -0.343 OA
ENDROOT
BRANCH   1   2
HETATM    2  C   UNL     1      21.803  -6.822  30.567  1.00  0.00     0.129 C 
HETATM    3  C   UNL     1      22.874  -7.368  31.500  1.00  0.00     0.032 C 
HETATM    4  C   UNL     1      23.909  -7.997  30.569  1.00  0.00     0.002 C 
HETATM    5  C   UNL     1      23.180  -8.296  29.259  1.00  0.00     0.002 C 
HETATM    6  C   UNL     1      21.727  -7.879  29.476  1.00  0.00     0.032 C 
ENDBRANCH   1   2
BRANCH   1   7
HETATM    7  C   UNL     1      21.548  -4.463  30.419  1.00  0.00     0.103 A 
HETATM    8  C   UNL     1      21.952  -3.788  31.567  1.00  0.00     0.047 A 
HETATM    9  C   UNL     1      21.259  -2.649  31.978  1.00  0.00    -0.049 A 
HETATM   10  C   UNL     1      20.167  -2.192  31.240  1.00  0.00     0.010 A 
HETATM   11  C   UNL     1      19.767  -2.874  30.092  1.00  0.00     0.040 A 
HETATM   12  C   UNL     1      20.459  -4.013  29.679  1.00  0.00     0.101 A 
BRANCH   9  13
HETATM   13  C   UNL     1      21.693  -1.908  33.224  1.00  0.00     0.045 C 
HETATM   14  C   UNL     1      20.579  -1.216  34.011  1.00  0.00     0.132 C 
HETATM   15  N   UNL     1      21.128  -1.076  35.330  1.00  0.00    -0.360 N 
HETATM   16  C   UNL     1      22.172  -1.958  35.571  1.00  0.00     0.218 C 
HETATM   17  H   UNL     1      20.800  -0.425  35.992  1.00  0.00     0.162 HD
HETATM   18  O   UNL     1      22.796  -2.103  36.609  1.00  0.00    -0.274 OA
HETATM   19  C   UNL     1      22.368  -2.767  34.311  1.00  0.00     0.113 C 
ENDBRANCH   9  13
BRANCH  12  20
HETATM   20  O   UNL     1      20.059  -4.672  28.556  1.00  0.00    -0.353 OA
HETATM   21  C   UNL     1      18.739  -4.409  28.087  1.00  0.00     0.210 C 
ENDBRANCH  12  20
ENDBRANCH   1   7
TORSDOF 4
ENDMDL
MODEL 8
REMARK VINA RESULT:      -7.0      3.073      5.943
REMARK  4 active torsions:
REMARK  status: ('A' for Active; 'I' for Inactive)
REMARK    1  A    between atoms: O_1  and  C_5 
REMARK    2  A    between atoms: O_1  and  C_14 
REMARK    3  A    between atoms: O_2  and  C_18 
REMARK    4  A    between atoms: C_10  and  C_13 
ROOT
HETATM    1  O   UNL     1      21.695  -6.774  29.039  1.00  0.00    -0.343 OA
ENDROOT
BRANCH   1   2
HETATM    2  C   UNL     1      23.117  -6.814  29.045  1.00  0.00     0.129 C 
HETATM    3  C   UNL     1      23.644  -6.251  27.734  1.00  0.00     0.032 C 
HETATM    4  C   UNL     1      23.495  -7.398  26.736  1.00  0.00     0.002 C 
HETATM    5  C   UNL     1      23.439  -8.681  27.565  1.00  0.00     0.002 C 
HETATM    6  C   UNL     1      23.606  -8.254  29.021  1.00  0.00     0.032 C 
ENDBRANCH   1   2
BRANCH   1   7
HETATM    7  C   UNL     1      21.109  -5.606  29.452  1.00  0.00     0.103 A 
HETATM    8  C   UNL     1      21.707  -4.873  30.473  1.00  0.00     0.047 A 
HETATM    9  C   UNL     1      21.120  -3.683  30.903  1.00  0.00    -0.049 A 
HETATM   10  C   UNL     1      19.939  -3.234  30.312  1.00  0.00     0.010 A 
HETATM   11  C   UNL     1      19.345  -3.974  29.290  1.00  0.00     0.040 A 
HETATM   12  C   UNL     1      19.932  -5.164  28.859  1.00  0.00     0.101 A 
BRANCH   9  13
HETATM   13  C   UNL     1      21.764  -2.879  32.012  1.00  0.00     0.045 C 
HETATM   14  C   UNL     1      21.058  -1.576  32.388  1.00  0.00     0.132 C 
HETATM   15  N   UNL     1      21.515  -1.313  33.723  1.00  0.00    -0.360 N 
HETATM   16  C   UNL     1      21.998  -2.449  34.356  1.00  0.00     0.218 C 
HETATM   17  H   UNL     1      21.488  -0.423  34.144  1.00  0.00     0.162 HD
HETATM   18  O   UNL     1      22.406  -2.543  35.503  1.00  0.00    -0.274 OA
HETATM   19  C   UNL     1      21.875  -3.589  33.375  1.00  0.00     0.113 C 
ENDBRANCH   9  13
BRANCH  12  20
HETATM   20  O   UNL     1      19.342  -5.879  27.860  1.00  0.00    -0.353 OA
HETATM   21  C   UNL     1      18.694  -5.138  26.829  1.00  0.00     0.210 C 
ENDBRANCH  12  20
ENDBRANCH   1   7
TORSDOF 4
ENDMDL
MODEL 9
REMARK VINA RESULT:      -6.8      2.701      6.921
REMARK  4 active torsions:
REMARK  status: ('A' for Active; 'I' for Inactive)
REMARK    1  A    between atoms: O_1  and  C_5 
REMARK    2  A    between atoms: O_1  and  C_14 
REMARK    3  A    between atoms: O_2  and  C_18 
REMARK    4  A    between atoms: C_10  and  C_13 
ROOT
HETATM    1  O   UNL     1      17.917  -4.635  27.635  1.00  0.00    -0.343 OA
ENDROOT
BRANCH   1   2
HETATM    2  C   UNL     1      17.877  -6.053  27.728  1.00  0.00     0.129 C 
HETATM    3  C   UNL     1      18.754  -6.655  26.641  1.00  0.00     0.032 C 
HETATM    4  C   UNL     1      17.896  -6.593  25.377  1.00  0.00     0.002 C 
HETATM    5  C   UNL     1      16.445  -6.506  25.850  1.00  0.00     0.002 C 
HETATM    6  C   UNL     1      16.490  -6.568  27.375  1.00  0.00     0.032 C 
ENDBRANCH   1   2
BRANCH   1   7
HETATM    7  C   UNL     1      18.976  -4.007  28.236  1.00  0.00     0.103 A 
HETATM    8  C   UNL     1      19.341  -4.380  29.526  1.00  0.00     0.047 A 
HETATM    9  C   UNL     1      20.417  -3.748  30.150  1.00  0.00    -0.049 A 
HETATM   10  C   UNL     1      21.120  -2.745  29.481  1.00  0.00     0.010 A 
HETATM   11  C   UNL     1      20.749  -2.376  28.189  1.00  0.00     0.040 A 
HETATM   12  C   UNL     1      19.673  -3.008  27.564  1.00  0.00     0.101 A 
BRANCH   9  13
HETATM   13  C   UNL     1      20.821  -4.149  31.552  1.00  0.00     0.045 C 
HETATM   14  C   UNL     1      21.963  -5.161  31.653  1.00  0.00     0.132 C 
HETATM   15  N   UNL     1      22.480  -4.962  32.978  1.00  0.00    -0.360 N 
HETATM   16  C   UNL     1      22.146  -3.720  33.501  1.00  0.00     0.218 C 
HETATM   17  H   UNL     1      23.013  -5.633  33.463  1.00  0.00     0.162 HD
HETATM   18  O   UNL     1      22.481  -3.254  34.578  1.00  0.00    -0.274 OA
HETATM   19  C   UNL     1      21.322  -3.007  32.456  1.00  0.00     0.113 C 
ENDBRANCH   9  13
BRANCH  12  20
HETATM   20  O   UNL     1      19.318  -2.638  26.302  1.00  0.00    -0.353 OA
HETATM   21  C   UNL     1      20.092  -1.610  25.688  1.00  0.00     0.210 C 
ENDBRANCH  12  20
ENDBRANCH   1   7
TORSDOF 4
ENDMDL
