MODEL 1
REMARK VINA RESULT:      -9.2      0.000      0.000
REMARK  4 active torsions:
REMARK  status: ('A' for Active; 'I' for Inactive)
REMARK    1  A    between atoms: O_1  and  C_5 
REMARK    2  A    between atoms: O_1  and  C_14 
REMARK    3  A    between atoms: O_2  and  C_18 
REMARK    4  A    between atoms: C_10  and  C_13 
ROOT
HETATM    1  O   UNL     1      22.293  -5.153  33.754  1.00  0.00    -0.343 OA
ENDROOT
BRANCH   1   2
HETATM    2  C   UNL     1      21.984  -6.328  33.016  1.00  0.00     0.129 C 
HETATM    3  C   UNL     1      21.139  -7.257  33.875  1.00  0.00     0.032 C 
HETATM    4  C   UNL     1      22.145  -7.951  34.792  1.00  0.00     0.002 C 
HETATM    5  C   UNL     1      23.501  -7.850  34.094  1.00  0.00     0.002 C 
HETATM    6  C   UNL     1      23.244  -7.142  32.766  1.00  0.00     0.032 C 
ENDBRANCH   1   2
BRANCH   1   7
HETATM    7  C   UNL     1      21.967  -3.955  33.173  1.00  0.00     0.103 A 
HETATM    8  C   UNL     1      21.600  -3.932  31.831  1.00  0.00     0.047 A 
HETATM    9  C   UNL     1      21.266  -2.719  31.228  1.00  0.00    -0.049 A 
HETATM   10  C   UNL     1      21.303  -1.537  31.968  1.00  0.00     0.010 A 
HETATM   11  C   UNL     1      21.672  -1.568  33.312  1.00  0.00     0.040 A 
HETATM   12  C   UNL     1      22.005  -2.781  33.917  1.00  0.00     0.101 A 
BRANCH   9  13
HETATM   13  C   UNL     1      20.865  -2.685  29.769  1.00  0.00     0.045 C 
HETATM   14  C   UNL     1      21.360  -3.853  28.914  1.00  0.00     0.132 C 
HETATM   15  N   UNL     1      20.452  -3.871  27.802  1.00  0.00    -0.360 N 
HETATM   16  C   UNL     1      19.257  -3.222  28.077  1.00  0.00     0.218 C 
HETATM   17  H   UNL     1      20.656  -4.298  26.938  1.00  0.00     0.162 HD
HETATM   18  O   UNL     1      18.284  -3.117  27.347  1.00  0.00    -0.274 OA
HETATM   19  C   UNL     1      19.350  -2.703  29.491  1.00  0.00     0.113 C 
ENDBRANCH   9  13
BRANCH  12  20
HETATM   20  O   UNL     1      22.365  -2.799  35.231  1.00  0.00    -0.353 OA
HETATM   21  C   UNL     1      22.357  -1.551  35.921  1.00  0.00     0.210 C 
ENDBRANCH  12  20
ENDBRANCH   1   7
TORSDOF 4
ENDMDL
MODEL 2
REMARK VINA RESULT:      -8.9      1.440      4.120
REMARK  4 active torsions:
REMARK  status: ('A' for Active; 'I' for Inactive)
REMARK    1  A    between atoms: O_1  and  C_5 
REMARK    2  A    between atoms: O_1  and  C_14 
REMARK    3  A    between atoms: O_2  and  C_18 
REMARK    4  A    between atoms: C_10  and  C_13 
ROOT
HETATM    1  O   UNL     1      22.101  -3.467  33.986  1.00  0.00    -0.343 OA
ENDROOT
BRANCH   1   2
HETATM    2  C   UNL     1      21.771  -2.088  33.883  1.00  0.00     0.129 C 
HETATM    3  C   UNL     1      23.049  -1.272  33.749  1.00  0.00     0.032 C 
HETATM    4  C   UNL     1      23.583  -1.161  35.177  1.00  0.00     0.002 C 
HETATM    5  C   UNL     1      22.388  -1.393  36.100  1.00  0.00     0.002 C 
HETATM    6  C   UNL     1      21.178  -1.585  35.189  1.00  0.00     0.032 C 
ENDBRANCH   1   2
BRANCH   1   7
HETATM    7  C   UNL     1      22.031  -4.206  32.835  1.00  0.00     0.103 A 
HETATM    8  C   UNL     1      21.431  -3.651  31.709  1.00  0.00     0.047 A 
HETATM    9  C   UNL     1      21.353  -4.394  30.531  1.00  0.00    -0.049 A 
HETATM   10  C   UNL     1      21.873  -5.687  30.485  1.00  0.00     0.010 A 
HETATM   11  C   UNL     1      22.473  -6.237  31.617  1.00  0.00     0.040 A 
HETATM   12  C   UNL     1      22.552  -5.495  32.796  1.00  0.00     0.101 A 
BRANCH   9  13
HETATM   13  C   UNL     1      20.702  -3.796  29.302  1.00  0.00     0.045 C 
HETATM   14  C   UNL     1      19.635  -2.732  29.563  1.00  0.00     0.132 C 
HETATM   15  N   UNL     1      19.583  -1.991  28.334  1.00  0.00    -0.360 N 
HETATM   16  C   UNL     1      20.734  -2.140  27.571  1.00  0.00     0.218 C 
HETATM   17  H   UNL     1      18.816  -1.438  28.062  1.00  0.00     0.162 HD
HETATM   18  O   UNL     1      20.995  -1.598  26.510  1.00  0.00    -0.274 OA
HETATM   19  C   UNL     1      21.651  -3.069  28.330  1.00  0.00     0.113 C 
ENDBRANCH   9  13
BRANCH  12  20
HETATM   20  O   UNL     1      23.140  -6.044  33.896  1.00  0.00    -0.353 OA
HETATM   21  C   UNL     1      23.372  -7.450  33.872  1.00  0.00     0.210 C 
ENDBRANCH  12  20
ENDBRANCH   1   7
TORSDOF 4
ENDMDL
MODEL 3
REMARK VINA RESULT:      -7.9      2.572      6.429
REMARK  4 active torsions:
REMARK  status: ('A' for Active; 'I' for Inactive)
REMARK    1  A    between atoms: O_1  and  C_5 
REMARK    2  A    between atoms: O_1  and  C_14 
REMARK    3  A    between atoms: O_2  and  C_18 
REMARK    4  A    between atoms: C_10  and  C_13 
ROOT
HETATM    1  O   UNL     1      20.443  -4.686  29.379  1.00  0.00    -0.343 OA
ENDROOT
BRANCH   1   2
HETATM    2  C   UNL     1      19.128  -4.149  29.403  1.00  0.00     0.129 C 
HETATM    3  C   UNL     1      18.323  -4.730  28.250  1.00  0.00     0.032 C 
HETATM    4  C   UNL     1      18.761  -3.920  27.031  1.00  0.00     0.002 C 
HETATM    5  C   UNL     1      19.325  -2.606  27.570  1.00  0.00     0.002 C 
HETATM    6  C   UNL     1      19.157  -2.662  29.087  1.00  0.00     0.032 C 
ENDBRANCH   1   2
BRANCH   1   7
HETATM    7  C   UNL     1      21.091  -4.787  30.582  1.00  0.00     0.103 A 
HETATM    8  C   UNL     1      21.246  -3.647  31.365  1.00  0.00     0.047 A 
HETATM    9  C   UNL     1      21.904  -3.736  32.592  1.00  0.00    -0.049 A 
HETATM   10  C   UNL     1      22.406  -4.963  33.028  1.00  0.00     0.010 A 
HETATM   11  C   UNL     1      22.249  -6.100  32.237  1.00  0.00     0.040 A 
HETATM   12  C   UNL     1      21.590  -6.013  31.010  1.00  0.00     0.101 A 
BRANCH   9  13
HETATM   13  C   UNL     1      22.075  -2.501  33.450  1.00  0.00     0.045 C 
HETATM   14  C   UNL     1      20.822  -1.644  33.642  1.00  0.00     0.132 C 
HETATM   15  N   UNL     1      21.092  -0.909  34.845  1.00  0.00    -0.360 N 
HETATM   16  C   UNL     1      22.068  -1.508  35.630  1.00  0.00     0.218 C 
HETATM   17  H   UNL     1      20.635  -0.072  35.088  1.00  0.00     0.162 HD
HETATM   18  O   UNL     1      22.469  -1.142  36.723  1.00  0.00    -0.274 OA
HETATM   19  C   UNL     1      22.517  -2.753  34.904  1.00  0.00     0.113 C 
ENDBRANCH   9  13
BRANCH  12  20
HETATM   20  O   UNL     1      21.443  -7.131  30.246  1.00  0.00    -0.353 OA
HETATM   21  C   UNL     1      22.627  -7.689  29.682  1.00  0.00     0.210 C 
ENDBRANCH  12  20
ENDBRANCH   1   7
TORSDOF 4
ENDMDL
MODEL 4
REMARK VINA RESULT:      -7.7      1.384      1.700
REMARK  4 active torsions:
REMARK  status: ('A' for Active; 'I' for Inactive)
REMARK    1  A    between atoms: O_1  and  C_5 
REMARK    2  A    between atoms: O_1  and  C_14 
REMARK    3  A    between atoms: O_2  and  C_18 
REMARK    4  A    between atoms: C_10  and  C_13 
ROOT
HETATM    1  O   UNL     1      22.125  -5.341  32.914  1.00  0.00    -0.343 OA
ENDROOT
BRANCH   1   2
HETATM    2  C   UNL     1      21.893  -6.682  32.500  1.00  0.00     0.129 C 
HETATM    3  C   UNL     1      21.246  -7.457  33.638  1.00  0.00     0.032 C 
HETATM    4  C   UNL     1      22.406  -7.815  34.566  1.00  0.00     0.002 C 
HETATM    5  C   UNL     1      23.672  -7.754  33.711  1.00  0.00     0.002 C 
HETATM    6  C   UNL     1      23.213  -7.409  32.297  1.00  0.00     0.032 C 
ENDBRANCH   1   2
BRANCH   1   7
HETATM    7  C   UNL     1      21.476  -4.359  32.213  1.00  0.00     0.103 A 
HETATM    8  C   UNL     1      20.832  -4.688  31.024  1.00  0.00     0.047 A 
HETATM    9  C   UNL     1      20.169  -3.696  30.300  1.00  0.00    -0.049 A 
HETATM   10  C   UNL     1      20.154  -2.382  30.768  1.00  0.00     0.010 A 
HETATM   11  C   UNL     1      20.802  -2.060  31.960  1.00  0.00     0.040 A 
HETATM   12  C   UNL     1      21.465  -3.050  32.685  1.00  0.00     0.101 A 
BRANCH   9  13
HETATM   13  C   UNL     1      19.465  -4.047  29.007  1.00  0.00     0.045 C 
HETATM   14  C   UNL     1      19.597  -3.023  27.878  1.00  0.00     0.132 C 
HETATM   15  N   UNL     1      19.335  -3.788  26.691  1.00  0.00    -0.360 N 
HETATM   16  C   UNL     1      19.522  -5.150  26.881  1.00  0.00     0.218 C 
HETATM   17  H   UNL     1      19.055  -3.390  25.835  1.00  0.00     0.162 HD
HETATM   18  O   UNL     1      19.421  -6.036  26.049  1.00  0.00    -0.274 OA
HETATM   19  C   UNL     1      19.934  -5.344  28.321  1.00  0.00     0.113 C 
ENDBRANCH   9  13
BRANCH  12  20
HETATM   20  O   UNL     1      22.095  -2.723  33.847  1.00  0.00    -0.353 OA
HETATM   21  C   UNL     1      21.618  -1.573  34.541  1.00  0.00     0.210 C 
ENDBRANCH  12  20
ENDBRANCH   1   7
TORSDOF 4
ENDMDL
MODEL 5
REMARK VINA RESULT:      -7.3      2.522      3.774
REMARK  4 active torsions:
REMARK  status: ('A' for Active; 'I' for Inactive)
REMARK    1  A    between atoms: O_1  and  C_5 
REMARK    2  A    between atoms: O_1  and  C_14 
REMARK    3  A    between atoms: O_2  and  C_18 
REMARK    4  A    between atoms: C_10  and  C_13 
ROOT
HETATM    1  O   UNL     1      22.996  -7.772  30.682  1.00  0.00    -0.343 OA
ENDROOT
BRANCH   1   2
HETATM    2  C   UNL     1      24.142  -7.679  29.846  1.00  0.00     0.129 C 
HETATM    3  C   UNL     1      23.817  -8.259  28.477  1.00  0.00     0.032 C 
HETATM    4  C   UNL     1      23.928  -9.772  28.666  1.00  0.00     0.002 C 
HETATM    5  C   UNL     1      24.819  -9.985  29.890  1.00  0.00     0.002 C 
HETATM    6  C   UNL     1      25.244  -8.595  30.354  1.00  0.00     0.032 C 
ENDBRANCH   1   2
BRANCH   1   7
HETATM    7  C   UNL     1      22.592  -6.620  31.305  1.00  0.00     0.103 A 
HETATM    8  C   UNL     1      21.915  -5.653  30.568  1.00  0.00     0.047 A 
HETATM    9  C   UNL     1      21.499  -4.476  31.190  1.00  0.00    -0.049 A 
HETATM   10  C   UNL     1      21.763  -4.271  32.544  1.00  0.00     0.010 A 
HETATM   11  C   UNL     1      22.442  -5.244  33.277  1.00  0.00     0.040 A 
HETATM   12  C   UNL     1      22.858  -6.422  32.656  1.00  0.00     0.101 A 
BRANCH   9  13
HETATM   13  C   UNL     1      20.761  -3.421  30.395  1.00  0.00     0.045 C 
HETATM   14  C   UNL     1      21.623  -2.554  29.476  1.00  0.00     0.132 C 
HETATM   15  N   UNL     1      20.692  -2.055  28.504  1.00  0.00    -0.360 N 
HETATM   16  C   UNL     1      19.542  -2.827  28.421  1.00  0.00     0.218 C 
HETATM   17  H   UNL     1      20.852  -1.253  27.956  1.00  0.00     0.162 HD
HETATM   18  O   UNL     1      18.601  -2.677  27.657  1.00  0.00    -0.274 OA
HETATM   19  C   UNL     1      19.684  -3.944  29.425  1.00  0.00     0.113 C 
ENDBRANCH   9  13
BRANCH  12  20
HETATM   20  O   UNL     1      23.522  -7.365  33.381  1.00  0.00    -0.353 OA
HETATM   21  C   UNL     1      22.832  -7.930  34.493  1.00  0.00     0.210 C 
ENDBRANCH  12  20
ENDBRANCH   1   7
TORSDOF 4
ENDMDL
MODEL 6
REMARK VINA RESULT:      -7.2      2.719      6.182
REMARK  4 active torsions:
REMARK  status: ('A' for Active; 'I' for Inactive)
REMARK    1  A    between atoms: O_1  and  C_5 
REMARK    2  A    between atoms: O_1  and  C_14 
REMARK    3  A    between atoms: O_2  and  C_18 
REMARK    4  A    between atoms: C_10  and  C_13 
ROOT
HETATM    1  O   UNL     1      21.047  -3.580  29.807  1.00  0.00    -0.343 OA
ENDROOT
BRANCH   1   2
HETATM    2  C   UNL     1      19.644  -3.666  29.596  1.00  0.00     0.129 C 
HETATM    3  C   UNL     1      19.367  -4.553  28.391  1.00  0.00     0.032 C 
HETATM    4  C   UNL     1      19.616  -3.648  27.184  1.00  0.00     0.002 C 
HETATM    5  C   UNL     1      19.468  -2.213  27.688  1.00  0.00     0.002 C 
HETATM    6  C   UNL     1      19.090  -2.317  29.163  1.00  0.00     0.032 C 
ENDBRANCH   1   2
BRANCH   1   7
HETATM    7  C   UNL     1      21.555  -4.281  30.869  1.00  0.00     0.103 A 
HETATM    8  C   UNL     1      22.122  -5.532  30.646  1.00  0.00     0.047 A 
HETATM    9  C   UNL     1      22.642  -6.256  31.719  1.00  0.00    -0.049 A 
HETATM   10  C   UNL     1      22.590  -5.727  33.009  1.00  0.00     0.010 A 
HETATM   11  C   UNL     1      22.020  -4.474  33.225  1.00  0.00     0.040 A 
HETATM   12  C   UNL     1      21.500  -3.748  32.153  1.00  0.00     0.101 A 
BRANCH   9  13
HETATM   13  C   UNL     1      23.262  -7.617  31.484  1.00  0.00     0.045 C 
HETATM   14  C   UNL     1      23.927  -7.820  30.122  1.00  0.00     0.132 C 
HETATM   15  N   UNL     1      24.844  -8.901  30.347  1.00  0.00    -0.360 N 
HETATM   16  C   UNL     1      25.160  -9.063  31.689  1.00  0.00     0.218 C 
HETATM   17  H   UNL     1      25.210  -9.467  29.628  1.00  0.00     0.162 HD
HETATM   18  O   UNL     1      25.944  -9.862  32.175  1.00  0.00    -0.274 OA
HETATM   19  C   UNL     1      24.390  -8.015  32.455  1.00  0.00     0.113 C 
ENDBRANCH   9  13
BRANCH  12  20
HETATM   20  O   UNL     1      20.944  -2.525  32.376  1.00  0.00    -0.353 OA
HETATM   21  C   UNL     1      21.466  -1.766  33.465  1.00  0.00     0.210 C 
ENDBRANCH  12  20
ENDBRANCH   1   7
TORSDOF 4
ENDMDL
MODEL 7
REMARK VINA RESULT:      -7.2      2.651      6.826
REMARK  4 active torsions:
REMARK  status: ('A' for Active; 'I' for Inactive)
REMARK    1  A    between atoms: O_1  and  C_5 
REMARK    2  A    between atoms: O_1  and  C_14 
REMARK    3  A    between atoms: O_2  and  C_18 
REMARK    4  A    between atoms: C_10  and  C_13 
ROOT
HETATM    1  O   UNL     1      20.534  -3.748  28.454  1.00  0.00    -0.343 OA
ENDROOT
BRANCH   1   2
HETATM    2  C   UNL     1      20.210  -2.369  28.335  1.00  0.00     0.129 C 
HETATM    3  C   UNL     1      18.793  -2.227  27.799  1.00  0.00     0.032 C 
HETATM    4  C   UNL     1      18.929  -2.449  26.293  1.00  0.00     0.002 C 
HETATM    5  C   UNL     1      20.388  -2.152  25.947  1.00  0.00     0.002 C 
HETATM    6  C   UNL     1      21.054  -1.718  27.251  1.00  0.00     0.032 C 
ENDBRANCH   1   2
BRANCH   1   7
HETATM    7  C   UNL     1      20.989  -4.172  29.675  1.00  0.00     0.103 A 
HETATM    8  C   UNL     1      21.251  -3.229  30.664  1.00  0.00     0.047 A 
HETATM    9  C   UNL     1      21.717  -3.648  31.911  1.00  0.00    -0.049 A 
HETATM   10  C   UNL     1      21.919  -5.005  32.161  1.00  0.00     0.010 A 
HETATM   11  C   UNL     1      21.656  -5.944  31.165  1.00  0.00     0.040 A 
HETATM   12  C   UNL     1      21.190  -5.527  29.917  1.00  0.00     0.101 A 
BRANCH   9  13
HETATM   13  C   UNL     1      22.002  -2.628  32.993  1.00  0.00     0.045 C 
HETATM   14  C   UNL     1      20.852  -1.681  33.337  1.00  0.00     0.132 C 
HETATM   15  N   UNL     1      21.168  -1.227  34.662  1.00  0.00    -0.360 N 
HETATM   16  C   UNL     1      22.044  -2.076  35.323  1.00  0.00     0.218 C 
HETATM   17  H   UNL     1      20.803  -0.403  35.058  1.00  0.00     0.162 HD
HETATM   18  O   UNL     1      22.452  -1.975  36.469  1.00  0.00    -0.274 OA
HETATM   19  C   UNL     1      22.369  -3.204  34.374  1.00  0.00     0.113 C 
ENDBRANCH   9  13
BRANCH  12  20
HETATM   20  O   UNL     1      20.936  -6.453  28.951  1.00  0.00    -0.353 OA
HETATM   21  C   UNL     1      21.275  -7.806  29.247  1.00  0.00     0.210 C 
ENDBRANCH  12  20
ENDBRANCH   1   7
TORSDOF 4
ENDMDL
MODEL 8
REMARK VINA RESULT:      -7.0      2.993      5.896
REMARK  4 active torsions:
REMARK  status: ('A' for Active; 'I' for Inactive)
REMARK    1  A    between atoms: O_1  and  C_5 
REMARK    2  A    between atoms: O_1  and  C_14 
REMARK    3  A    between atoms: O_2  and  C_18 
REMARK    4  A    between atoms: C_10  and  C_13 
ROOT
HETATM    1  O   UNL     1      21.317  -6.712  29.179  1.00  0.00    -0.343 OA
ENDROOT
BRANCH   1   2
HETATM    2  C   UNL     1      22.726  -6.898  29.137  1.00  0.00     0.129 C 
HETATM    3  C   UNL     1      23.295  -6.174  27.926  1.00  0.00     0.032 C 
HETATM    4  C   UNL     1      23.015  -7.112  26.752  1.00  0.00     0.002 C 
HETATM    5  C   UNL     1      22.833  -8.506  27.353  1.00  0.00     0.002 C 
HETATM    6  C   UNL     1      23.060  -8.354  28.855  1.00  0.00     0.032 C 
ENDBRANCH   1   2
BRANCH   1   7
HETATM    7  C   UNL     1      20.868  -5.479  29.575  1.00  0.00     0.103 A 
HETATM    8  C   UNL     1      21.545  -4.806  30.588  1.00  0.00     0.047 A 
HETATM    9  C   UNL     1      21.097  -3.551  31.001  1.00  0.00    -0.049 A 
HETATM   10  C   UNL     1      19.977  -2.977  30.401  1.00  0.00     0.010 A 
HETATM   11  C   UNL     1      19.303  -3.657  29.387  1.00  0.00     0.040 A 
HETATM   12  C   UNL     1      19.750  -4.913  28.973  1.00  0.00     0.101 A 
BRANCH   9  13
HETATM   13  C   UNL     1      21.829  -2.812  32.101  1.00  0.00     0.045 C 
HETATM   14  C   UNL     1      21.307  -1.411  32.424  1.00  0.00     0.132 C 
HETATM   15  N   UNL     1      21.771  -1.174  33.762  1.00  0.00    -0.360 N 
HETATM   16  C   UNL     1      22.077  -2.347  34.437  1.00  0.00     0.218 C 
HETATM   17  H   UNL     1      21.862  -0.277  34.157  1.00  0.00     0.162 HD
HETATM   18  O   UNL     1      22.447  -2.462  35.595  1.00  0.00    -0.274 OA
HETATM   19  C   UNL     1      21.814  -3.488  33.485  1.00  0.00     0.113 C 
ENDBRANCH   9  13
BRANCH  12  20
HETATM   20  O   UNL     1      19.084  -5.569  27.982  1.00  0.00    -0.353 OA
HETATM   21  C   UNL     1      17.742  -5.160  27.724  1.00  0.00     0.210 C 
ENDBRANCH  12  20
ENDBRANCH   1   7
TORSDOF 4
ENDMDL
MODEL 9
REMARK VINA RESULT:      -6.9      2.829      6.333
REMARK  4 active torsions:
REMARK  status: ('A' for Active; 'I' for Inactive)
REMARK    1  A    between atoms: O_1  and  C_5 
REMARK    2  A    between atoms: O_1  and  C_14 
REMARK    3  A    between atoms: O_2  and  C_18 
REMARK    4  A    between atoms: C_10  and  C_13 
ROOT
HETATM    1  O   UNL     1      19.046  -5.026  28.795  1.00  0.00    -0.343 OA
ENDROOT
BRANCH   1   2
HETATM    2  C   UNL     1      19.777  -5.720  27.793  1.00  0.00     0.129 C 
HETATM    3  C   UNL     1      19.257  -5.320  26.420  1.00  0.00     0.032 C 
HETATM    4  C   UNL     1      17.985  -6.147  26.237  1.00  0.00     0.002 C 
HETATM    5  C   UNL     1      18.113  -7.343  27.180  1.00  0.00     0.002 C 
HETATM    6  C   UNL     1      19.476  -7.210  27.853  1.00  0.00     0.032 C 
ENDBRANCH   1   2
BRANCH   1   7
HETATM    7  C   UNL     1      19.779  -4.383  29.759  1.00  0.00     0.103 A 
HETATM    8  C   UNL     1      20.554  -5.137  30.635  1.00  0.00     0.047 A 
HETATM    9  C   UNL     1      21.303  -4.495  31.622  1.00  0.00    -0.049 A 
HETATM   10  C   UNL     1      21.272  -3.105  31.728  1.00  0.00     0.010 A 
HETATM   11  C   UNL     1      20.492  -2.356  30.847  1.00  0.00     0.040 A 
HETATM   12  C   UNL     1      19.743  -2.997  29.860  1.00  0.00     0.101 A 
BRANCH   9  13
HETATM   13  C   UNL     1      22.150  -5.308  32.577  1.00  0.00     0.045 C 
HETATM   14  C   UNL     1      21.387  -6.065  33.665  1.00  0.00     0.132 C 
HETATM   15  N   UNL     1      22.292  -7.110  34.054  1.00  0.00    -0.360 N 
HETATM   16  C   UNL     1      23.249  -7.375  33.085  1.00  0.00     0.218 C 
HETATM   17  H   UNL     1      22.239  -7.587  34.914  1.00  0.00     0.162 HD
HETATM   18  O   UNL     1      24.116  -8.234  33.113  1.00  0.00    -0.274 OA
HETATM   19  C   UNL     1      22.992  -6.428  31.937  1.00  0.00     0.113 C 
ENDBRANCH   9  13
BRANCH  12  20
HETATM   20  O   UNL     1      18.984  -2.255  29.006  1.00  0.00    -0.353 OA
HETATM   21  C   UNL     1      19.588  -1.868  27.773  1.00  0.00     0.210 C 
ENDBRANCH  12  20
ENDBRANCH   1   7
TORSDOF 4
ENDMDL
