MODEL 1
REMARK VINA RESULT:      -6.2      0.000      0.000
REMARK  6 active torsions:
REMARK  status: ('A' for Active; 'I' for Inactive)
REMARK    1  A    between atoms: O_1  and  C_5 
REMARK    2  A    between atoms: O_2  and  C_7 
REMARK    3  A    between atoms: O_2  and  C_13 
REMARK    4  A    between atoms: C_4  and  C_5 
REMARK    5  A    between atoms: C_4  and  C_6 
REMARK    6  A    between atoms: C_5  and  C_7 
ROOT
HETATM    1  O   UNL     1      20.976  -6.803  33.828  1.00  0.00    -0.385 OA
HETATM    2  H   UNL     1      21.159  -7.608  34.338  1.00  0.00     0.210 HD
ENDROOT
BRANCH   1   3
HETATM    3  C   UNL     1      22.134  -6.438  33.088  1.00  0.00     0.221 C 
BRANCH   3   4
HETATM    4  C   UNL     1      22.476  -4.978  33.396  1.00  0.00     0.080 C 
BRANCH   4   5
HETATM    5  C   UNL     1      21.693  -4.019  32.533  1.00  0.00    -0.055 A 
HETATM    6  C   UNL     1      21.221  -4.444  31.301  1.00  0.00     0.007 A 
HETATM    7  C   UNL     1      20.498  -3.558  30.502  1.00  0.00     0.001 A 
HETATM    8  C   UNL     1      20.258  -2.258  30.947  1.00  0.00     0.000 A 
HETATM    9  C   UNL     1      20.739  -1.844  32.188  1.00  0.00     0.001 A 
HETATM   10  C   UNL     1      21.462  -2.730  32.987  1.00  0.00     0.007 A 
ENDBRANCH   4   5
ENDBRANCH   3   4
BRANCH   3  11
HETATM   11  C   UNL     1      23.262  -7.357  33.516  1.00  0.00     0.288 C 
HETATM   12  O   UNL     1      23.573  -7.583  34.678  1.00  0.00    -0.262 OA
BRANCH  11  13
HETATM   13  O   UNL     1      23.850  -7.905  32.411  1.00  0.00    -0.320 OA
BRANCH  13  14
HETATM   14  C   UNL     1      23.192  -7.640  31.167  1.00  0.00     0.174 C 
HETATM   15  C   UNL     1      24.149  -7.940  30.032  1.00  0.00     0.034 C 
ENDBRANCH  13  14
ENDBRANCH  11  13
ENDBRANCH   3  11
ENDBRANCH   1   3
TORSDOF 6
ENDMDL
MODEL 2
REMARK VINA RESULT:      -6.1      4.188      6.176
REMARK  6 active torsions:
REMARK  status: ('A' for Active; 'I' for Inactive)
REMARK    1  A    between atoms: O_1  and  C_5 
REMARK    2  A    between atoms: O_2  and  C_7 
REMARK    3  A    between atoms: O_2  and  C_13 
REMARK    4  A    between atoms: C_4  and  C_5 
REMARK    5  A    between atoms: C_4  and  C_6 
REMARK    6  A    between atoms: C_5  and  C_7 
ROOT
HETATM    1  O   UNL     1      21.551  -1.904  28.645  1.00  0.00    -0.385 OA
HETATM    2  H   UNL     1      22.207  -2.256  29.266  1.00  0.00     0.210 HD
ENDROOT
BRANCH   1   3
HETATM    3  C   UNL     1      20.360  -2.676  28.725  1.00  0.00     0.221 C 
BRANCH   3   4
HETATM    4  C   UNL     1      19.669  -2.378  30.058  1.00  0.00     0.080 C 
BRANCH   4   5
HETATM    5  C   UNL     1      20.499  -2.821  31.239  1.00  0.00    -0.055 A 
HETATM    6  C   UNL     1      20.755  -1.922  32.263  1.00  0.00     0.007 A 
HETATM    7  C   UNL     1      21.523  -2.330  33.354  1.00  0.00     0.001 A 
HETATM    8  C   UNL     1      22.024  -3.631  33.406  1.00  0.00     0.000 A 
HETATM    9  C   UNL     1      21.757  -4.524  32.369  1.00  0.00     0.001 A 
HETATM   10  C   UNL     1      20.990  -4.116  31.277  1.00  0.00     0.007 A 
ENDBRANCH   4   5
ENDBRANCH   3   4
BRANCH   3  11
HETATM   11  C   UNL     1      19.475  -2.280  27.559  1.00  0.00     0.288 C 
HETATM   12  O   UNL     1      19.765  -1.437  26.721  1.00  0.00    -0.262 OA
BRANCH  11  13
HETATM   13  O   UNL     1      18.330  -3.024  27.581  1.00  0.00    -0.320 OA
BRANCH  13  14
HETATM   14  C   UNL     1      18.463  -4.375  27.125  1.00  0.00     0.174 C 
HETATM   15  C   UNL     1      17.531  -5.259  27.927  1.00  0.00     0.034 C 
ENDBRANCH  13  14
ENDBRANCH  11  13
ENDBRANCH   3  11
ENDBRANCH   1   3
TORSDOF 6
ENDMDL
MODEL 3
REMARK VINA RESULT:      -6.1      3.670      5.643
REMARK  6 active torsions:
REMARK  status: ('A' for Active; 'I' for Inactive)
REMARK    1  A    between atoms: O_1  and  C_5 
REMARK    2  A    between atoms: O_2  and  C_7 
REMARK    3  A    between atoms: O_2  and  C_13 
REMARK    4  A    between atoms: C_4  and  C_5 
REMARK    5  A    between atoms: C_4  and  C_6 
REMARK    6  A    between atoms: C_5  and  C_7 
ROOT
HETATM    1  O   UNL     1      21.245  -4.427  28.438  1.00  0.00    -0.385 OA
HETATM    2  H   UNL     1      20.940  -5.286  28.107  1.00  0.00     0.210 HD
ENDROOT
BRANCH   1   3
HETATM    3  C   UNL     1      20.320  -3.933  29.398  1.00  0.00     0.221 C 
BRANCH   3   4
HETATM    4  C   UNL     1      20.862  -2.624  29.977  1.00  0.00     0.080 C 
BRANCH   4   5
HETATM    5  C   UNL     1      21.284  -2.774  31.419  1.00  0.00    -0.055 A 
HETATM    6  C   UNL     1      21.600  -4.033  31.906  1.00  0.00     0.007 A 
HETATM    7  C   UNL     1      21.990  -4.172  33.239  1.00  0.00     0.001 A 
HETATM    8  C   UNL     1      22.059  -3.050  34.065  1.00  0.00     0.000 A 
HETATM    9  C   UNL     1      21.739  -1.790  33.560  1.00  0.00     0.001 A 
HETATM   10  C   UNL     1      21.349  -1.651  32.228  1.00  0.00     0.007 A 
ENDBRANCH   4   5
ENDBRANCH   3   4
BRANCH   3  11
HETATM   11  C   UNL     1      19.000  -3.703  28.689  1.00  0.00     0.288 C 
HETATM   12  O   UNL     1      18.108  -4.535  28.592  1.00  0.00    -0.262 OA
BRANCH  11  13
HETATM   13  O   UNL     1      18.956  -2.426  28.205  1.00  0.00    -0.320 OA
BRANCH  13  14
HETATM   14  C   UNL     1      18.965  -2.306  26.779  1.00  0.00     0.174 C 
HETATM   15  C   UNL     1      20.276  -1.682  26.346  1.00  0.00     0.034 C 
ENDBRANCH  13  14
ENDBRANCH  11  13
ENDBRANCH   3  11
ENDBRANCH   1   3
TORSDOF 6
ENDMDL
MODEL 4
REMARK VINA RESULT:      -6.0      3.543      5.660
REMARK  6 active torsions:
REMARK  status: ('A' for Active; 'I' for Inactive)
REMARK    1  A    between atoms: O_1  and  C_5 
REMARK    2  A    between atoms: O_2  and  C_7 
REMARK    3  A    between atoms: O_2  and  C_13 
REMARK    4  A    between atoms: C_4  and  C_5 
REMARK    5  A    between atoms: C_4  and  C_6 
REMARK    6  A    between atoms: C_5  and  C_7 
ROOT
HETATM    1  O   UNL     1      21.043  -4.844  28.660  1.00  0.00    -0.385 OA
HETATM    2  H   UNL     1      21.923  -4.915  29.063  1.00  0.00     0.210 HD
ENDROOT
BRANCH   1   3
HETATM    3  C   UNL     1      20.173  -4.148  29.543  1.00  0.00     0.221 C 
BRANCH   3   4
HETATM    4  C   UNL     1      20.853  -2.850  29.983  1.00  0.00     0.080 C 
BRANCH   4   5
HETATM    5  C   UNL     1      21.267  -2.890  31.434  1.00  0.00    -0.055 A 
HETATM    6  C   UNL     1      21.231  -1.724  32.183  1.00  0.00     0.007 A 
HETATM    7  C   UNL     1      21.614  -1.760  33.524  1.00  0.00     0.001 A 
HETATM    8  C   UNL     1      22.028  -2.963  34.098  1.00  0.00     0.000 A 
HETATM    9  C   UNL     1      22.059  -4.127  33.332  1.00  0.00     0.001 A 
HETATM   10  C   UNL     1      21.676  -4.091  31.991  1.00  0.00     0.007 A 
ENDBRANCH   4   5
ENDBRANCH   3   4
BRANCH   3  11
HETATM   11  C   UNL     1      18.890  -3.856  28.789  1.00  0.00     0.288 C 
HETATM   12  O   UNL     1      17.946  -4.630  28.697  1.00  0.00    -0.262 OA
BRANCH  11  13
HETATM   13  O   UNL     1      18.946  -2.599  28.260  1.00  0.00    -0.320 OA
BRANCH  13  14
HETATM   14  C   UNL     1      19.002  -2.533  26.831  1.00  0.00     0.174 C 
HETATM   15  C   UNL     1      20.239  -1.759  26.423  1.00  0.00     0.034 C 
ENDBRANCH  13  14
ENDBRANCH  11  13
ENDBRANCH   3  11
ENDBRANCH   1   3
TORSDOF 6
ENDMDL
MODEL 5
REMARK VINA RESULT:      -6.0      4.213      5.803
REMARK  6 active torsions:
REMARK  status: ('A' for Active; 'I' for Inactive)
REMARK    1  A    between atoms: O_1  and  C_5 
REMARK    2  A    between atoms: O_2  and  C_7 
REMARK    3  A    between atoms: O_2  and  C_13 
REMARK    4  A    between atoms: C_4  and  C_5 
REMARK    5  A    between atoms: C_4  and  C_6 
REMARK    6  A    between atoms: C_5  and  C_7 
ROOT
HETATM    1  O   UNL     1      18.780  -1.954  29.829  1.00  0.00    -0.385 OA
HETATM    2  H   UNL     1      18.727  -1.019  30.084  1.00  0.00     0.210 HD
ENDROOT
BRANCH   1   3
HETATM    3  C   UNL     1      20.094  -2.245  29.373  1.00  0.00     0.221 C 
BRANCH   3   4
HETATM    4  C   UNL     1      20.562  -3.552  30.019  1.00  0.00     0.080 C 
BRANCH   4   5
HETATM    5  C   UNL     1      21.119  -3.332  31.404  1.00  0.00    -0.055 A 
HETATM    6  C   UNL     1      21.614  -4.414  32.116  1.00  0.00     0.007 A 
HETATM    7  C   UNL     1      22.130  -4.211  33.397  1.00  0.00     0.001 A 
HETATM    8  C   UNL     1      22.143  -2.930  33.948  1.00  0.00     0.000 A 
HETATM    9  C   UNL     1      21.642  -1.851  33.220  1.00  0.00     0.001 A 
HETATM   10  C   UNL     1      21.126  -2.054  31.939  1.00  0.00     0.007 A 
ENDBRANCH   4   5
ENDBRANCH   3   4
BRANCH   3  11
HETATM   11  C   UNL     1      20.039  -2.380  27.863  1.00  0.00     0.288 C 
HETATM   12  O   UNL     1      20.996  -2.231  27.116  1.00  0.00    -0.262 OA
BRANCH  11  13
HETATM   13  O   UNL     1      18.772  -2.716  27.480  1.00  0.00    -0.320 OA
BRANCH  13  14
HETATM   14  C   UNL     1      18.626  -4.020  26.906  1.00  0.00     0.174 C 
HETATM   15  C   UNL     1      17.776  -4.871  27.826  1.00  0.00     0.034 C 
ENDBRANCH  13  14
ENDBRANCH  11  13
ENDBRANCH   3  11
ENDBRANCH   1   3
TORSDOF 6
ENDMDL
MODEL 6
REMARK VINA RESULT:      -6.0      3.557      5.841
REMARK  6 active torsions:
REMARK  status: ('A' for Active; 'I' for Inactive)
REMARK    1  A    between atoms: O_1  and  C_5 
REMARK    2  A    between atoms: O_2  and  C_7 
REMARK    3  A    between atoms: O_2  and  C_13 
REMARK    4  A    between atoms: C_4  and  C_5 
REMARK    5  A    between atoms: C_4  and  C_6 
REMARK    6  A    between atoms: C_5  and  C_7 
ROOT
HETATM    1  O   UNL     1      21.857  -1.543  30.053  1.00  0.00    -0.385 OA
HETATM    2  H   UNL     1      22.742  -1.599  29.659  1.00  0.00     0.210 HD
ENDROOT
BRANCH   1   3
HETATM    3  C   UNL     1      21.243  -2.825  30.023  1.00  0.00     0.221 C 
BRANCH   3   4
HETATM    4  C   UNL     1      21.052  -3.314  31.460  1.00  0.00     0.080 C 
BRANCH   4   5
HETATM    5  C   UNL     1      21.764  -4.620  31.714  1.00  0.00    -0.055 A 
HETATM    6  C   UNL     1      22.170  -4.933  33.002  1.00  0.00     0.007 A 
HETATM    7  C   UNL     1      22.828  -6.140  33.238  1.00  0.00     0.001 A 
HETATM    8  C   UNL     1      23.072  -7.018  32.182  1.00  0.00     0.000 A 
HETATM    9  C   UNL     1      22.658  -6.690  30.891  1.00  0.00     0.001 A 
HETATM   10  C   UNL     1      22.000  -5.483  30.656  1.00  0.00     0.007 A 
ENDBRANCH   4   5
ENDBRANCH   3   4
BRANCH   3  11
HETATM   11  C   UNL     1      19.907  -2.678  29.321  1.00  0.00     0.288 C 
HETATM   12  O   UNL     1      18.931  -2.110  29.794  1.00  0.00    -0.262 OA
BRANCH  11  13
HETATM   13  O   UNL     1      19.974  -3.251  28.083  1.00  0.00    -0.320 OA
BRANCH  13  14
HETATM   14  C   UNL     1      19.551  -2.421  26.995  1.00  0.00     0.174 C 
HETATM   15  C   UNL     1      20.709  -1.545  26.566  1.00  0.00     0.034 C 
ENDBRANCH  13  14
ENDBRANCH  11  13
ENDBRANCH   3  11
ENDBRANCH   1   3
TORSDOF 6
ENDMDL
MODEL 7
REMARK VINA RESULT:      -6.0      1.252      2.194
REMARK  6 active torsions:
REMARK  status: ('A' for Active; 'I' for Inactive)
REMARK    1  A    between atoms: O_1  and  C_5 
REMARK    2  A    between atoms: O_2  and  C_7 
REMARK    3  A    between atoms: O_2  and  C_13 
REMARK    4  A    between atoms: C_4  and  C_5 
REMARK    5  A    between atoms: C_4  and  C_6 
REMARK    6  A    between atoms: C_5  and  C_7 
ROOT
HETATM    1  O   UNL     1      21.350  -7.695  33.551  1.00  0.00    -0.385 OA
HETATM    2  H   UNL     1      21.003  -8.504  33.142  1.00  0.00     0.210 HD
ENDROOT
BRANCH   1   3
HETATM    3  C   UNL     1      21.587  -6.720  32.543  1.00  0.00     0.221 C 
BRANCH   3   4
HETATM    4  C   UNL     1      22.507  -5.638  33.113  1.00  0.00     0.080 C 
BRANCH   4   5
HETATM    5  C   UNL     1      21.978  -4.248  32.850  1.00  0.00    -0.055 A 
HETATM    6  C   UNL     1      22.065  -3.290  33.848  1.00  0.00     0.007 A 
HETATM    7  C   UNL     1      21.577  -2.005  33.606  1.00  0.00     0.001 A 
HETATM    8  C   UNL     1      21.008  -1.698  32.370  1.00  0.00     0.000 A 
HETATM    9  C   UNL     1      20.927  -2.672  31.376  1.00  0.00     0.001 A 
HETATM   10  C   UNL     1      21.416  -3.957  31.618  1.00  0.00     0.007 A 
ENDBRANCH   4   5
ENDBRANCH   3   4
BRANCH   3  11
HETATM   11  C   UNL     1      22.242  -7.421  31.369  1.00  0.00     0.288 C 
HETATM   12  O   UNL     1      21.715  -7.590  30.278  1.00  0.00    -0.262 OA
BRANCH  11  13
HETATM   13  O   UNL     1      23.506  -7.806  31.713  1.00  0.00    -0.320 OA
BRANCH  13  14
HETATM   14  C   UNL     1      24.308  -8.318  30.642  1.00  0.00     0.174 C 
HETATM   15  C   UNL     1      25.491  -9.062  31.226  1.00  0.00     0.034 C 
ENDBRANCH  13  14
ENDBRANCH  11  13
ENDBRANCH   3  11
ENDBRANCH   1   3
TORSDOF 6
ENDMDL
MODEL 8
REMARK VINA RESULT:      -6.0      2.980      5.440
REMARK  6 active torsions:
REMARK  status: ('A' for Active; 'I' for Inactive)
REMARK    1  A    between atoms: O_1  and  C_5 
REMARK    2  A    between atoms: O_2  and  C_7 
REMARK    3  A    between atoms: O_2  and  C_13 
REMARK    4  A    between atoms: C_4  and  C_5 
REMARK    5  A    between atoms: C_4  and  C_6 
REMARK    6  A    between atoms: C_5  and  C_7 
ROOT
HETATM    1  O   UNL     1      19.590  -2.280  30.697  1.00  0.00    -0.385 OA
HETATM    2  H   UNL     1      19.978  -1.858  29.914  1.00  0.00     0.210 HD
ENDROOT
BRANCH   1   3
HETATM    3  C   UNL     1      20.625  -2.839  31.496  1.00  0.00     0.221 C 
BRANCH   3   4
HETATM    4  C   UNL     1      21.567  -3.639  30.593  1.00  0.00     0.080 C 
BRANCH   4   5
HETATM    5  C   UNL     1      22.045  -4.908  31.256  1.00  0.00    -0.055 A 
HETATM    6  C   UNL     1      22.397  -5.994  30.468  1.00  0.00     0.007 A 
HETATM    7  C   UNL     1      22.839  -7.167  31.080  1.00  0.00     0.001 A 
HETATM    8  C   UNL     1      22.923  -7.240  32.470  1.00  0.00     0.000 A 
HETATM    9  C   UNL     1      22.565  -6.140  33.249  1.00  0.00     0.001 A 
HETATM   10  C   UNL     1      22.123  -4.966  32.638  1.00  0.00     0.007 A 
ENDBRANCH   4   5
ENDBRANCH   3   4
BRANCH   3  11
HETATM   11  C   UNL     1      21.361  -1.693  32.162  1.00  0.00     0.288 C 
HETATM   12  O   UNL     1      21.985  -0.826  31.565  1.00  0.00    -0.262 OA
BRANCH  11  13
HETATM   13  O   UNL     1      21.196  -1.769  33.516  1.00  0.00    -0.320 OA
BRANCH  13  14
HETATM   14  C   UNL     1      22.388  -1.610  34.293  1.00  0.00     0.174 C 
HETATM   15  C   UNL     1      22.024  -1.632  35.762  1.00  0.00     0.034 C 
ENDBRANCH  13  14
ENDBRANCH  11  13
ENDBRANCH   3  11
ENDBRANCH   1   3
TORSDOF 6
ENDMDL
MODEL 9
REMARK VINA RESULT:      -6.0      4.125      5.911
REMARK  6 active torsions:
REMARK  status: ('A' for Active; 'I' for Inactive)
REMARK    1  A    between atoms: O_1  and  C_5 
REMARK    2  A    between atoms: O_2  and  C_7 
REMARK    3  A    between atoms: O_2  and  C_13 
REMARK    4  A    between atoms: C_4  and  C_5 
REMARK    5  A    between atoms: C_4  and  C_6 
REMARK    6  A    between atoms: C_5  and  C_7 
ROOT
HETATM    1  O   UNL     1      20.932  -1.634  28.104  1.00  0.00    -0.385 OA
HETATM    2  H   UNL     1      20.553  -0.814  28.456  1.00  0.00     0.210 HD
ENDROOT
BRANCH   1   3
HETATM    3  C   UNL     1      20.250  -2.749  28.662  1.00  0.00     0.221 C 
BRANCH   3   4
HETATM    4  C   UNL     1      19.662  -2.340  30.015  1.00  0.00     0.080 C 
BRANCH   4   5
HETATM    5  C   UNL     1      20.501  -2.832  31.170  1.00  0.00    -0.055 A 
HETATM    6  C   UNL     1      20.979  -4.134  31.155  1.00  0.00     0.007 A 
HETATM    7  C   UNL     1      21.754  -4.589  32.222  1.00  0.00     0.001 A 
HETATM    8  C   UNL     1      22.039  -3.738  33.289  1.00  0.00     0.000 A 
HETATM    9  C   UNL     1      21.552  -2.432  33.290  1.00  0.00     0.001 A 
HETATM   10  C   UNL     1      20.777  -1.976  32.223  1.00  0.00     0.007 A 
ENDBRANCH   4   5
ENDBRANCH   3   4
BRANCH   3  11
HETATM   11  C   UNL     1      19.152  -3.148  27.696  1.00  0.00     0.288 C 
HETATM   12  O   UNL     1      18.525  -2.366  26.993  1.00  0.00    -0.262 OA
BRANCH  11  13
HETATM   13  O   UNL     1      18.994  -4.505  27.717  1.00  0.00    -0.320 OA
BRANCH  13  14
HETATM   14  C   UNL     1      17.715  -4.971  28.160  1.00  0.00     0.174 C 
HETATM   15  C   UNL     1      17.286  -6.133  27.288  1.00  0.00     0.034 C 
ENDBRANCH  13  14
ENDBRANCH  11  13
ENDBRANCH   3  11
ENDBRANCH   1   3
TORSDOF 6
ENDMDL
