MODEL 1
REMARK VINA RESULT:      -6.2      0.000      0.000
REMARK  6 active torsions:
REMARK  status: ('A' for Active; 'I' for Inactive)
REMARK    1  A    between atoms: O_1  and  C_5 
REMARK    2  A    between atoms: O_2  and  C_7 
REMARK    3  A    between atoms: O_2  and  C_13 
REMARK    4  A    between atoms: C_4  and  C_5 
REMARK    5  A    between atoms: C_4  and  C_6 
REMARK    6  A    between atoms: C_5  and  C_7 
ROOT
HETATM    1  O   UNL     1      20.948  -6.818  33.707  1.00  0.00    -0.385 OA
HETATM    2  H   UNL     1      21.086  -7.617  34.239  1.00  0.00     0.210 HD
ENDROOT
BRANCH   1   3
HETATM    3  C   UNL     1      22.157  -6.477  33.042  1.00  0.00     0.221 C 
BRANCH   3   4
HETATM    4  C   UNL     1      22.498  -5.018  33.355  1.00  0.00     0.080 C 
BRANCH   4   5
HETATM    5  C   UNL     1      21.712  -4.055  32.499  1.00  0.00    -0.055 A 
HETATM    6  C   UNL     1      21.476  -2.771  32.964  1.00  0.00     0.007 A 
HETATM    7  C   UNL     1      20.749  -1.880  32.174  1.00  0.00     0.001 A 
HETATM    8  C   UNL     1      20.268  -2.286  30.929  1.00  0.00     0.000 A 
HETATM    9  C   UNL     1      20.514  -3.581  30.474  1.00  0.00     0.001 A 
HETATM   10  C   UNL     1      21.241  -4.472  31.265  1.00  0.00     0.007 A 
ENDBRANCH   4   5
ENDBRANCH   3   4
BRANCH   3  11
HETATM   11  C   UNL     1      23.242  -7.406  33.552  1.00  0.00     0.288 C 
HETATM   12  O   UNL     1      23.439  -7.662  34.733  1.00  0.00    -0.262 OA
BRANCH  11  13
HETATM   13  O   UNL     1      23.936  -7.923  32.496  1.00  0.00    -0.320 OA
BRANCH  13  14
HETATM   14  C   UNL     1      23.360  -7.691  31.206  1.00  0.00     0.174 C 
HETATM   15  C   UNL     1      24.310  -8.203  30.144  1.00  0.00     0.034 C 
ENDBRANCH  13  14
ENDBRANCH  11  13
ENDBRANCH   3  11
ENDBRANCH   1   3
TORSDOF 6
ENDMDL
MODEL 2
REMARK VINA RESULT:      -6.2      0.078      1.293
REMARK  6 active torsions:
REMARK  status: ('A' for Active; 'I' for Inactive)
REMARK    1  A    between atoms: O_1  and  C_5 
REMARK    2  A    between atoms: O_2  and  C_7 
REMARK    3  A    between atoms: O_2  and  C_13 
REMARK    4  A    between atoms: C_4  and  C_5 
REMARK    5  A    between atoms: C_4  and  C_6 
REMARK    6  A    between atoms: C_5  and  C_7 
ROOT
HETATM    1  O   UNL     1      20.957  -6.891  33.743  1.00  0.00    -0.385 OA
HETATM    2  H   UNL     1      20.377  -7.327  33.100  1.00  0.00     0.210 HD
ENDROOT
BRANCH   1   3
HETATM    3  C   UNL     1      22.156  -6.481  33.098  1.00  0.00     0.221 C 
BRANCH   3   4
HETATM    4  C   UNL     1      22.435  -5.020  33.459  1.00  0.00     0.080 C 
BRANCH   4   5
HETATM    5  C   UNL     1      21.683  -4.061  32.568  1.00  0.00    -0.055 A 
HETATM    6  C   UNL     1      21.195  -4.508  31.350  1.00  0.00     0.007 A 
HETATM    7  C   UNL     1      20.500  -3.622  30.526  1.00  0.00     0.001 A 
HETATM    8  C   UNL     1      20.304  -2.302  30.931  1.00  0.00     0.000 A 
HETATM    9  C   UNL     1      20.801  -1.867  32.159  1.00  0.00     0.001 A 
HETATM   10  C   UNL     1      21.496  -2.753  32.983  1.00  0.00     0.007 A 
ENDBRANCH   4   5
ENDBRANCH   3   4
BRANCH   3  11
HETATM   11  C   UNL     1      23.273  -7.381  33.587  1.00  0.00     0.288 C 
HETATM   12  O   UNL     1      23.527  -7.597  34.765  1.00  0.00    -0.262 OA
BRANCH  11  13
HETATM   13  O   UNL     1      23.926  -7.924  32.518  1.00  0.00    -0.320 OA
BRANCH  13  14
HETATM   14  C   UNL     1      23.379  -7.603  31.234  1.00  0.00     0.174 C 
HETATM   15  C   UNL     1      24.232  -8.247  30.161  1.00  0.00     0.034 C 
ENDBRANCH  13  14
ENDBRANCH  11  13
ENDBRANCH   3  11
ENDBRANCH   1   3
TORSDOF 6
ENDMDL
MODEL 3
REMARK VINA RESULT:      -6.1      3.685      5.755
REMARK  6 active torsions:
REMARK  status: ('A' for Active; 'I' for Inactive)
REMARK    1  A    between atoms: O_1  and  C_5 
REMARK    2  A    between atoms: O_2  and  C_7 
REMARK    3  A    between atoms: O_2  and  C_13 
REMARK    4  A    between atoms: C_4  and  C_5 
REMARK    5  A    between atoms: C_4  and  C_6 
REMARK    6  A    between atoms: C_5  and  C_7 
ROOT
HETATM    1  O   UNL     1      21.184  -4.530  28.487  1.00  0.00    -0.385 OA
HETATM    2  H   UNL     1      21.708  -3.807  28.108  1.00  0.00     0.210 HD
ENDROOT
BRANCH   1   3
HETATM    3  C   UNL     1      20.294  -4.007  29.464  1.00  0.00     0.221 C 
BRANCH   3   4
HETATM    4  C   UNL     1      20.867  -2.693  30.000  1.00  0.00     0.080 C 
BRANCH   4   5
HETATM    5  C   UNL     1      21.287  -2.805  31.445  1.00  0.00    -0.055 A 
HETATM    6  C   UNL     1      21.640  -4.045  31.955  1.00  0.00     0.007 A 
HETATM    7  C   UNL     1      22.028  -4.150  33.291  1.00  0.00     0.001 A 
HETATM    8  C   UNL     1      22.059  -3.012  34.099  1.00  0.00     0.000 A 
HETATM    9  C   UNL     1      21.702  -1.772  33.572  1.00  0.00     0.001 A 
HETATM   10  C   UNL     1      21.314  -1.668  32.236  1.00  0.00     0.007 A 
ENDBRANCH   4   5
ENDBRANCH   3   4
BRANCH   3  11
HETATM   11  C   UNL     1      18.955  -3.776  28.790  1.00  0.00     0.288 C 
HETATM   12  O   UNL     1      18.021  -4.567  28.810  1.00  0.00    -0.262 OA
BRANCH  11  13
HETATM   13  O   UNL     1      18.950  -2.550  28.189  1.00  0.00    -0.320 OA
BRANCH  13  14
HETATM   14  C   UNL     1      19.011  -2.564  26.759  1.00  0.00     0.174 C 
HETATM   15  C   UNL     1      20.195  -1.735  26.308  1.00  0.00     0.034 C 
ENDBRANCH  13  14
ENDBRANCH  11  13
ENDBRANCH   3  11
ENDBRANCH   1   3
TORSDOF 6
ENDMDL
MODEL 4
REMARK VINA RESULT:      -6.1      3.616      5.283
REMARK  6 active torsions:
REMARK  status: ('A' for Active; 'I' for Inactive)
REMARK    1  A    between atoms: O_1  and  C_5 
REMARK    2  A    between atoms: O_2  and  C_7 
REMARK    3  A    between atoms: O_2  and  C_13 
REMARK    4  A    between atoms: C_4  and  C_5 
REMARK    5  A    between atoms: C_4  and  C_6 
REMARK    6  A    between atoms: C_5  and  C_7 
ROOT
HETATM    1  O   UNL     1      21.626  -0.566  31.738  1.00  0.00    -0.385 OA
HETATM    2  H   UNL     1      22.016  -0.377  30.871  1.00  0.00     0.210 HD
ENDROOT
BRANCH   1   3
HETATM    3  C   UNL     1      21.035  -1.859  31.720  1.00  0.00     0.221 C 
BRANCH   3   4
HETATM    4  C   UNL     1      21.620  -2.651  30.548  1.00  0.00     0.080 C 
BRANCH   4   5
HETATM    5  C   UNL     1      20.561  -3.054  29.550  1.00  0.00    -0.055 A 
HETATM    6  C   UNL     1      19.594  -3.976  29.922  1.00  0.00     0.007 A 
HETATM    7  C   UNL     1      18.615  -4.349  29.001  1.00  0.00     0.001 A 
HETATM    8  C   UNL     1      18.616  -3.795  27.720  1.00  0.00     0.000 A 
HETATM    9  C   UNL     1      19.595  -2.870  27.361  1.00  0.00     0.001 A 
HETATM   10  C   UNL     1      20.574  -2.497  28.282  1.00  0.00     0.007 A 
ENDBRANCH   4   5
ENDBRANCH   3   4
BRANCH   3  11
HETATM   11  C   UNL     1      21.357  -2.532  33.040  1.00  0.00     0.288 C 
HETATM   12  O   UNL     1      21.710  -3.698  33.158  1.00  0.00    -0.262 OA
BRANCH  11  13
HETATM   13  O   UNL     1      21.216  -1.633  34.058  1.00  0.00    -0.320 OA
BRANCH  13  14
HETATM   14  C   UNL     1      21.990  -1.905  35.231  1.00  0.00     0.174 C 
HETATM   15  C   UNL     1      23.354  -1.264  35.080  1.00  0.00     0.034 C 
ENDBRANCH  13  14
ENDBRANCH  11  13
ENDBRANCH   3  11
ENDBRANCH   1   3
TORSDOF 6
ENDMDL
MODEL 5
REMARK VINA RESULT:      -6.0      4.448      6.207
REMARK  6 active torsions:
REMARK  status: ('A' for Active; 'I' for Inactive)
REMARK    1  A    between atoms: O_1  and  C_5 
REMARK    2  A    between atoms: O_2  and  C_7 
REMARK    3  A    between atoms: O_2  and  C_13 
REMARK    4  A    between atoms: C_4  and  C_5 
REMARK    5  A    between atoms: C_4  and  C_6 
REMARK    6  A    between atoms: C_5  and  C_7 
ROOT
HETATM    1  O   UNL     1      21.006  -1.618  27.908  1.00  0.00    -0.385 OA
HETATM    2  H   UNL     1      21.725  -1.944  27.344  1.00  0.00     0.210 HD
ENDROOT
BRANCH   1   3
HETATM    3  C   UNL     1      20.184  -2.708  28.304  1.00  0.00     0.221 C 
BRANCH   3   4
HETATM    4  C   UNL     1      19.518  -2.363  29.639  1.00  0.00     0.080 C 
BRANCH   4   5
HETATM    5  C   UNL     1      20.326  -2.848  30.818  1.00  0.00    -0.055 A 
HETATM    6  C   UNL     1      20.769  -4.162  30.843  1.00  0.00     0.007 A 
HETATM    7  C   UNL     1      21.515  -4.611  31.932  1.00  0.00     0.001 A 
HETATM    8  C   UNL     1      21.808  -3.741  32.983  1.00  0.00     0.000 A 
HETATM    9  C   UNL     1      21.356  -2.423  32.944  1.00  0.00     0.001 A 
HETATM   10  C   UNL     1      20.610  -1.973  31.854  1.00  0.00     0.007 A 
ENDBRANCH   4   5
ENDBRANCH   3   4
BRANCH   3  11
HETATM   11  C   UNL     1      19.144  -2.919  27.221  1.00  0.00     0.288 C 
HETATM   12  O   UNL     1      18.348  -2.068  26.847  1.00  0.00    -0.262 OA
BRANCH  11  13
HETATM   13  O   UNL     1      19.255  -4.184  26.720  1.00  0.00    -0.320 OA
BRANCH  13  14
HETATM   14  C   UNL     1      18.985  -5.241  27.648  1.00  0.00     0.174 C 
HETATM   15  C   UNL     1      17.499  -5.273  27.938  1.00  0.00     0.034 C 
ENDBRANCH  13  14
ENDBRANCH  11  13
ENDBRANCH   3  11
ENDBRANCH   1   3
TORSDOF 6
ENDMDL
MODEL 6
REMARK VINA RESULT:      -6.0      4.216      5.838
REMARK  6 active torsions:
REMARK  status: ('A' for Active; 'I' for Inactive)
REMARK    1  A    between atoms: O_1  and  C_5 
REMARK    2  A    between atoms: O_2  and  C_7 
REMARK    3  A    between atoms: O_2  and  C_13 
REMARK    4  A    between atoms: C_4  and  C_5 
REMARK    5  A    between atoms: C_4  and  C_6 
REMARK    6  A    between atoms: C_5  and  C_7 
ROOT
HETATM    1  O   UNL     1      18.680  -2.234  29.862  1.00  0.00    -0.385 OA
HETATM    2  H   UNL     1      18.542  -2.908  30.545  1.00  0.00     0.210 HD
ENDROOT
BRANCH   1   3
HETATM    3  C   UNL     1      20.007  -2.332  29.360  1.00  0.00     0.221 C 
BRANCH   3   4
HETATM    4  C   UNL     1      20.679  -3.559  29.982  1.00  0.00     0.080 C 
BRANCH   4   5
HETATM    5  C   UNL     1      21.169  -3.287  31.384  1.00  0.00    -0.055 A 
HETATM    6  C   UNL     1      21.167  -1.986  31.863  1.00  0.00     0.007 A 
HETATM    7  C   UNL     1      21.620  -1.734  33.158  1.00  0.00     0.001 A 
HETATM    8  C   UNL     1      22.069  -2.787  33.956  1.00  0.00     0.000 A 
HETATM    9  C   UNL     1      22.065  -4.090  33.461  1.00  0.00     0.001 A 
HETATM   10  C   UNL     1      21.612  -4.342  32.165  1.00  0.00     0.007 A 
ENDBRANCH   4   5
ENDBRANCH   3   4
BRANCH   3  11
HETATM   11  C   UNL     1      19.919  -2.472  27.853  1.00  0.00     0.288 C 
HETATM   12  O   UNL     1      20.853  -2.291  27.082  1.00  0.00    -0.262 OA
BRANCH  11  13
HETATM   13  O   UNL     1      18.656  -2.851  27.500  1.00  0.00    -0.320 OA
BRANCH  13  14
HETATM   14  C   UNL     1      18.536  -4.173  26.964  1.00  0.00     0.174 C 
HETATM   15  C   UNL     1      17.701  -5.013  27.907  1.00  0.00     0.034 C 
ENDBRANCH  13  14
ENDBRANCH  11  13
ENDBRANCH   3  11
ENDBRANCH   1   3
TORSDOF 6
ENDMDL
MODEL 7
REMARK VINA RESULT:      -6.0      4.398      6.102
REMARK  6 active torsions:
REMARK  status: ('A' for Active; 'I' for Inactive)
REMARK    1  A    between atoms: O_1  and  C_5 
REMARK    2  A    between atoms: O_2  and  C_7 
REMARK    3  A    between atoms: O_2  and  C_13 
REMARK    4  A    between atoms: C_4  and  C_5 
REMARK    5  A    between atoms: C_4  and  C_6 
REMARK    6  A    between atoms: C_5  and  C_7 
ROOT
HETATM    1  O   UNL     1      21.034  -1.686  27.928  1.00  0.00    -0.385 OA
HETATM    2  H   UNL     1      21.866  -1.677  28.426  1.00  0.00     0.210 HD
ENDROOT
BRANCH   1   3
HETATM    3  C   UNL     1      20.259  -2.812  28.318  1.00  0.00     0.221 C 
BRANCH   3   4
HETATM    4  C   UNL     1      19.545  -2.487  29.633  1.00  0.00     0.080 C 
BRANCH   4   5
HETATM    5  C   UNL     1      20.352  -2.908  30.836  1.00  0.00    -0.055 A 
HETATM    6  C   UNL     1      20.625  -1.981  31.830  1.00  0.00     0.007 A 
HETATM    7  C   UNL     1      21.371  -2.370  32.942  1.00  0.00     0.001 A 
HETATM    8  C   UNL     1      21.835  -3.681  33.046  1.00  0.00     0.000 A 
HETATM    9  C   UNL     1      21.552  -4.604  32.039  1.00  0.00     0.001 A 
HETATM   10  C   UNL     1      20.806  -4.214  30.927  1.00  0.00     0.007 A 
ENDBRANCH   4   5
ENDBRANCH   3   4
BRANCH   3  11
HETATM   11  C   UNL     1      19.257  -3.087  27.214  1.00  0.00     0.288 C 
HETATM   12  O   UNL     1      18.434  -2.279  26.804  1.00  0.00    -0.262 OA
BRANCH  11  13
HETATM   13  O   UNL     1      19.436  -4.355  26.739  1.00  0.00    -0.320 OA
BRANCH  13  14
HETATM   14  C   UNL     1      18.241  -5.128  26.580  1.00  0.00     0.174 C 
HETATM   15  C   UNL     1      17.616  -5.353  27.941  1.00  0.00     0.034 C 
ENDBRANCH  13  14
ENDBRANCH  11  13
ENDBRANCH   3  11
ENDBRANCH   1   3
TORSDOF 6
ENDMDL
MODEL 8
REMARK VINA RESULT:      -6.0      3.521      5.760
REMARK  6 active torsions:
REMARK  status: ('A' for Active; 'I' for Inactive)
REMARK    1  A    between atoms: O_1  and  C_5 
REMARK    2  A    between atoms: O_2  and  C_7 
REMARK    3  A    between atoms: O_2  and  C_13 
REMARK    4  A    between atoms: C_4  and  C_5 
REMARK    5  A    between atoms: C_4  and  C_6 
REMARK    6  A    between atoms: C_5  and  C_7 
ROOT
HETATM    1  O   UNL     1      21.861  -1.555  30.043  1.00  0.00    -0.385 OA
HETATM    2  H   UNL     1      21.679  -1.114  30.887  1.00  0.00     0.210 HD
ENDROOT
BRANCH   1   3
HETATM    3  C   UNL     1      21.248  -2.838  30.036  1.00  0.00     0.221 C 
BRANCH   3   4
HETATM    4  C   UNL     1      21.082  -3.312  31.482  1.00  0.00     0.080 C 
BRANCH   4   5
HETATM    5  C   UNL     1      21.785  -4.623  31.734  1.00  0.00    -0.055 A 
HETATM    6  C   UNL     1      22.187  -4.941  33.022  1.00  0.00     0.007 A 
HETATM    7  C   UNL     1      22.837  -6.153  33.256  1.00  0.00     0.001 A 
HETATM    8  C   UNL     1      23.077  -7.030  32.198  1.00  0.00     0.000 A 
HETATM    9  C   UNL     1      22.667  -6.697  30.908  1.00  0.00     0.001 A 
HETATM   10  C   UNL     1      22.017  -5.485  30.674  1.00  0.00     0.007 A 
ENDBRANCH   4   5
ENDBRANCH   3   4
BRANCH   3  11
HETATM   11  C   UNL     1      19.900  -2.701  29.356  1.00  0.00     0.288 C 
HETATM   12  O   UNL     1      18.936  -2.116  29.832  1.00  0.00    -0.262 OA
BRANCH  11  13
HETATM   13  O   UNL     1      19.942  -3.304  28.131  1.00  0.00    -0.320 OA
BRANCH  13  14
HETATM   14  C   UNL     1      19.443  -2.522  27.041  1.00  0.00     0.174 C 
HETATM   15  C   UNL     1      20.535  -1.585  26.568  1.00  0.00     0.034 C 
ENDBRANCH  13  14
ENDBRANCH  11  13
ENDBRANCH   3  11
ENDBRANCH   1   3
TORSDOF 6
ENDMDL
MODEL 9
REMARK VINA RESULT:      -6.0      3.547      5.905
REMARK  6 active torsions:
REMARK  status: ('A' for Active; 'I' for Inactive)
REMARK    1  A    between atoms: O_1  and  C_5 
REMARK    2  A    between atoms: O_2  and  C_7 
REMARK    3  A    between atoms: O_2  and  C_13 
REMARK    4  A    between atoms: C_4  and  C_5 
REMARK    5  A    between atoms: C_4  and  C_6 
REMARK    6  A    between atoms: C_5  and  C_7 
ROOT
HETATM    1  O   UNL     1      21.821  -1.567  29.960  1.00  0.00    -0.385 OA
HETATM    2  H   UNL     1      22.150  -1.360  29.072  1.00  0.00     0.210 HD
ENDROOT
BRANCH   1   3
HETATM    3  C   UNL     1      21.209  -2.850  29.953  1.00  0.00     0.221 C 
BRANCH   3   4
HETATM    4  C   UNL     1      21.026  -3.316  31.399  1.00  0.00     0.080 C 
BRANCH   4   5
HETATM    5  C   UNL     1      21.746  -4.614  31.672  1.00  0.00    -0.055 A 
HETATM    6  C   UNL     1      21.985  -5.491  30.626  1.00  0.00     0.007 A 
HETATM    7  C   UNL     1      22.651  -6.691  30.878  1.00  0.00     0.001 A 
HETATM    8  C   UNL     1      23.069  -6.998  32.173  1.00  0.00     0.000 A 
HETATM    9  C   UNL     1      22.822  -6.105  33.215  1.00  0.00     0.001 A 
HETATM   10  C   UNL     1      22.156  -4.906  32.963  1.00  0.00     0.007 A 
ENDBRANCH   4   5
ENDBRANCH   3   4
BRANCH   3  11
HETATM   11  C   UNL     1      19.870  -2.718  29.255  1.00  0.00     0.288 C 
HETATM   12  O   UNL     1      18.903  -2.123  29.712  1.00  0.00    -0.262 OA
BRANCH  11  13
HETATM   13  O   UNL     1      19.924  -3.337  28.039  1.00  0.00    -0.320 OA
BRANCH  13  14
HETATM   14  C   UNL     1      19.484  -2.552  26.926  1.00  0.00     0.174 C 
HETATM   15  C   UNL     1      20.570  -1.561  26.563  1.00  0.00     0.034 C 
ENDBRANCH  13  14
ENDBRANCH  11  13
ENDBRANCH   3  11
ENDBRANCH   1   3
TORSDOF 6
ENDMDL
