MODEL 1
REMARK VINA RESULT:      -8.1      0.000      0.000
REMARK  7 active torsions:
REMARK  status: ('A' for Active; 'I' for Inactive)
REMARK    1  A    between atoms: O_5  and  C_13 
REMARK    2  A    between atoms: O_5  and  C_14 
REMARK    3  A    between atoms: O_6  and  C_15 
REMARK    4  A    between atoms: O_6  and  C_22 
REMARK       I    between atoms: N_8  and  C_20 
REMARK    5  A    between atoms: N_8  and  C_21 
REMARK    6  A    between atoms: C_10  and  C_13 
REMARK    7  A    between atoms: C_17  and  C_20 
ROOT
ATOM      1 CL   UNL A   1      33.767  72.267  17.839  1.00  0.00    -0.080 Cl
ATOM      2 CL   UNL A   1      33.265  71.671  23.252  1.00  0.00    -0.080 Cl
ATOM      3  N   UNL A   1      34.244  69.188  20.307  1.00  0.00    -0.270 NA
ATOM      4  C   UNL A   1      33.543  71.868  20.537  1.00  0.00     0.081 A 
ATOM      5  C   UNL A   1      33.825  71.342  19.290  1.00  0.00     0.080 A 
ATOM      6  C   UNL A   1      33.604  71.079  21.671  1.00  0.00     0.080 A 
ATOM      7  C   UNL A   1      34.169  70.001  19.228  1.00  0.00     0.142 A 
ATOM      8  C   UNL A   1      33.959  69.750  21.503  1.00  0.00     0.142 A 
ENDROOT
BRANCH   4   9
ATOM      9  N   UNL A   1      33.186  73.234  20.654  1.00  0.00    -0.320 N 
ATOM     10  C   UNL A   1      31.905  73.804  20.661  1.00  0.00     0.256 C 
ATOM     11  O   UNL A   1      30.842  73.171  20.559  1.00  0.00    -0.267 OA
ATOM     12  H   UNL A   1      33.936  73.865  20.743  1.00  0.00     0.169 HD
BRANCH  10  13
ATOM     13  C   UNL A   1      31.857  75.254  20.770  1.00  0.00     0.035 A 
ATOM     14  C   UNL A   1      31.421  76.021  19.689  1.00  0.00     0.056 A 
ATOM     15  C   UNL A   1      31.376  77.411  19.795  1.00  0.00     0.103 A 
ATOM     16  C   UNL A   1      31.766  78.034  20.980  1.00  0.00     0.108 A 
ATOM     17  C   UNL A   1      32.202  77.267  22.061  1.00  0.00     0.041 A 
ATOM     18  C   UNL A   1      32.247  75.877  21.955  1.00  0.00     0.020 A 
BRANCH  15  19
ATOM     19  O   UNL A   1      30.950  78.150  18.733  1.00  0.00    -0.348 OA
BRANCH  19  20
ATOM     20  C   UNL A   1      30.718  77.454  17.510  1.00  0.00     0.180 C 
BRANCH  20  21
ATOM     21  C   UNL A   1      30.984  78.364  16.360  1.00  0.00     0.010 A 
ATOM     22  C   UNL A   1      32.398  78.736  16.039  1.00  0.00     0.007 A 
ATOM     23  C   UNL A   1      31.638  77.813  15.133  1.00  0.00     0.007 A 
ENDBRANCH  20  21
ENDBRANCH  19  20
ENDBRANCH  15  19
BRANCH  16  24
ATOM     24  O   UNL A   1      31.725  79.391  21.095  1.00  0.00    -0.287 OA
BRANCH  24  25
ATOM     25  C   UNL A   1      31.459  79.929  22.384  1.00  0.00     0.505 C 
ATOM     26  F   UNL A   1      31.776  81.250  22.350  1.00  0.00    -0.184 F 
ATOM     27  F   UNL A   1      30.128  79.858  22.630  1.00  0.00    -0.184 F 
ENDBRANCH  24  25
ENDBRANCH  16  24
ENDBRANCH  10  13
ENDBRANCH   4   9
TORSDOF 7
ENDMDL
MODEL 2
REMARK VINA RESULT:      -8.1      0.521      1.935
REMARK  7 active torsions:
REMARK  status: ('A' for Active; 'I' for Inactive)
REMARK    1  A    between atoms: O_5  and  C_13 
REMARK    2  A    between atoms: O_5  and  C_14 
REMARK    3  A    between atoms: O_6  and  C_15 
REMARK    4  A    between atoms: O_6  and  C_22 
REMARK       I    between atoms: N_8  and  C_20 
REMARK    5  A    between atoms: N_8  and  C_21 
REMARK    6  A    between atoms: C_10  and  C_13 
REMARK    7  A    between atoms: C_17  and  C_20 
ROOT
ATOM      1 CL   UNL A   1      33.415  71.664  23.289  1.00  0.00    -0.080 Cl
ATOM      2 CL   UNL A   1      33.345  72.091  17.837  1.00  0.00    -0.080 Cl
ATOM      3  N   UNL A   1      34.073  69.087  20.336  1.00  0.00    -0.270 NA
ATOM      4  C   UNL A   1      33.405  71.776  20.555  1.00  0.00     0.081 A 
ATOM      5  C   UNL A   1      33.584  71.023  21.700  1.00  0.00     0.080 A 
ATOM      6  C   UNL A   1      33.554  71.210  19.302  1.00  0.00     0.080 A 
ATOM      7  C   UNL A   1      33.917  69.688  21.537  1.00  0.00     0.142 A 
ATOM      8  C   UNL A   1      33.887  69.866  19.247  1.00  0.00     0.142 A 
ENDROOT
BRANCH   4   9
ATOM      9  N   UNL A   1      33.064  73.147  20.666  1.00  0.00    -0.320 N 
ATOM     10  C   UNL A   1      31.789  73.729  20.701  1.00  0.00     0.256 C 
ATOM     11  O   UNL A   1      30.718  73.104  20.638  1.00  0.00    -0.267 OA
ATOM     12  H   UNL A   1      33.822  73.772  20.726  1.00  0.00     0.169 HD
BRANCH  10  13
ATOM     13  C   UNL A   1      31.756  75.180  20.795  1.00  0.00     0.035 A 
ATOM     14  C   UNL A   1      31.498  75.946  19.658  1.00  0.00     0.056 A 
ATOM     15  C   UNL A   1      31.468  77.338  19.748  1.00  0.00     0.103 A 
ATOM     16  C   UNL A   1      31.696  77.963  20.974  1.00  0.00     0.108 A 
ATOM     17  C   UNL A   1      31.954  77.197  22.111  1.00  0.00     0.041 A 
ATOM     18  C   UNL A   1      31.984  75.805  22.021  1.00  0.00     0.020 A 
BRANCH  15  19
ATOM     19  O   UNL A   1      31.215  78.077  18.632  1.00  0.00    -0.348 OA
BRANCH  19  20
ATOM     20  C   UNL A   1      32.144  77.963  17.556  1.00  0.00     0.180 C 
BRANCH  20  21
ATOM     21  C   UNL A   1      31.404  77.819  16.271  1.00  0.00     0.010 A 
ATOM     22  C   UNL A   1      30.295  76.817  16.180  1.00  0.00     0.007 A 
ATOM     23  C   UNL A   1      29.983  78.284  16.195  1.00  0.00     0.007 A 
ENDBRANCH  20  21
ENDBRANCH  19  20
ENDBRANCH  15  19
BRANCH  16  24
ATOM     24  O   UNL A   1      31.668  79.321  21.075  1.00  0.00    -0.287 OA
BRANCH  24  25
ATOM     25  C   UNL A   1      31.436  79.876  22.364  1.00  0.00     0.505 C 
ATOM     26  F   UNL A   1      31.845  81.171  22.332  1.00  0.00    -0.184 F 
ATOM     27  F   UNL A   1      30.102  79.899  22.604  1.00  0.00    -0.184 F 
ENDBRANCH  24  25
ENDBRANCH  16  24
ENDBRANCH  10  13
ENDBRANCH   4   9
TORSDOF 7
ENDMDL
MODEL 3
REMARK VINA RESULT:      -7.9      2.482      4.029
REMARK  7 active torsions:
REMARK  status: ('A' for Active; 'I' for Inactive)
REMARK    1  A    between atoms: O_5  and  C_13 
REMARK    2  A    between atoms: O_5  and  C_14 
REMARK    3  A    between atoms: O_6  and  C_15 
REMARK    4  A    between atoms: O_6  and  C_22 
REMARK       I    between atoms: N_8  and  C_20 
REMARK    5  A    between atoms: N_8  and  C_21 
REMARK    6  A    between atoms: C_10  and  C_13 
REMARK    7  A    between atoms: C_17  and  C_20 
ROOT
ATOM      1 CL   UNL A   1      35.107  72.037  20.025  1.00  0.00    -0.080 Cl
ATOM      2 CL   UNL A   1      30.786  72.403  23.357  1.00  0.00    -0.080 Cl
ATOM      3  N   UNL A   1      33.838  69.869  23.104  1.00  0.00    -0.270 NA
ATOM      4  C   UNL A   1      32.979  72.134  21.741  1.00  0.00     0.081 A 
ATOM      5  C   UNL A   1      34.140  71.498  21.343  1.00  0.00     0.080 A 
ATOM      6  C   UNL A   1      32.239  71.659  22.808  1.00  0.00     0.080 A 
ATOM      7  C   UNL A   1      34.525  70.373  22.054  1.00  0.00     0.142 A 
ATOM      8  C   UNL A   1      32.710  70.527  23.455  1.00  0.00     0.142 A 
ENDROOT
BRANCH   4   9
ATOM      9  N   UNL A   1      32.541  73.289  21.048  1.00  0.00    -0.320 N 
ATOM     10  C   UNL A   1      32.743  74.636  21.380  1.00  0.00     0.256 C 
ATOM     11  O   UNL A   1      33.364  75.039  22.378  1.00  0.00    -0.267 OA
ATOM     12  H   UNL A   1      32.028  73.124  20.224  1.00  0.00     0.169 HD
BRANCH  10  13
ATOM     13  C   UNL A   1      32.144  75.609  20.479  1.00  0.00     0.035 A 
ATOM     14  C   UNL A   1      31.664  76.819  20.979  1.00  0.00     0.056 A 
ATOM     15  C   UNL A   1      31.089  77.751  20.115  1.00  0.00     0.103 A 
ATOM     16  C   UNL A   1      30.995  77.473  18.752  1.00  0.00     0.108 A 
ATOM     17  C   UNL A   1      31.475  76.262  18.252  1.00  0.00     0.041 A 
ATOM     18  C   UNL A   1      32.050  75.330  19.116  1.00  0.00     0.020 A 
BRANCH  15  19
ATOM     19  O   UNL A   1      30.624  78.930  20.614  1.00  0.00    -0.348 OA
BRANCH  19  20
ATOM     20  C   UNL A   1      30.267  78.953  21.995  1.00  0.00     0.180 C 
BRANCH  20  21
ATOM     21  C   UNL A   1      31.033  80.026  22.689  1.00  0.00     0.010 A 
ATOM     22  C   UNL A   1      32.481  79.803  22.996  1.00  0.00     0.007 A 
ATOM     23  C   UNL A   1      32.080  80.779  21.930  1.00  0.00     0.007 A 
ENDBRANCH  20  21
ENDBRANCH  19  20
ENDBRANCH  15  19
BRANCH  16  24
ATOM     24  O   UNL A   1      30.436  78.375  17.898  1.00  0.00    -0.287 OA
BRANCH  24  25
ATOM     25  C   UNL A   1      30.629  78.162  16.505  1.00  0.00     0.505 C 
ATOM     26  F   UNL A   1      29.426  78.327  15.895  1.00  0.00    -0.184 F 
ATOM     27  F   UNL A   1      31.445  79.127  16.016  1.00  0.00    -0.184 F 
ENDBRANCH  24  25
ENDBRANCH  16  24
ENDBRANCH  10  13
ENDBRANCH   4   9
TORSDOF 7
ENDMDL
MODEL 4
REMARK VINA RESULT:      -7.9      2.503      4.269
REMARK  7 active torsions:
REMARK  status: ('A' for Active; 'I' for Inactive)
REMARK    1  A    between atoms: O_5  and  C_13 
REMARK    2  A    between atoms: O_5  and  C_14 
REMARK    3  A    between atoms: O_6  and  C_15 
REMARK    4  A    between atoms: O_6  and  C_22 
REMARK       I    between atoms: N_8  and  C_20 
REMARK    5  A    between atoms: N_8  and  C_21 
REMARK    6  A    between atoms: C_10  and  C_13 
REMARK    7  A    between atoms: C_17  and  C_20 
ROOT
ATOM      1 CL   UNL A   1      30.858  72.469  23.283  1.00  0.00    -0.080 Cl
ATOM      2 CL   UNL A   1      35.176  72.117  19.944  1.00  0.00    -0.080 Cl
ATOM      3  N   UNL A   1      33.899  69.926  23.005  1.00  0.00    -0.270 NA
ATOM      4  C   UNL A   1      33.049  72.207  21.664  1.00  0.00     0.081 A 
ATOM      5  C   UNL A   1      32.308  71.725  22.727  1.00  0.00     0.080 A 
ATOM      6  C   UNL A   1      34.207  71.570  21.259  1.00  0.00     0.080 A 
ATOM      7  C   UNL A   1      32.774  70.585  23.363  1.00  0.00     0.142 A 
ATOM      8  C   UNL A   1      34.588  70.437  21.960  1.00  0.00     0.142 A 
ENDROOT
BRANCH   4   9
ATOM      9  N   UNL A   1      32.615  73.370  20.980  1.00  0.00    -0.320 N 
ATOM     10  C   UNL A   1      32.824  74.713  21.322  1.00  0.00     0.256 C 
ATOM     11  O   UNL A   1      33.448  75.105  22.322  1.00  0.00    -0.267 OA
ATOM     12  H   UNL A   1      32.100  73.213  20.156  1.00  0.00     0.169 HD
BRANCH  10  13
ATOM     13  C   UNL A   1      32.228  75.695  20.430  1.00  0.00     0.035 A 
ATOM     14  C   UNL A   1      31.638  76.846  20.953  1.00  0.00     0.056 A 
ATOM     15  C   UNL A   1      31.066  77.787  20.097  1.00  0.00     0.103 A 
ATOM     16  C   UNL A   1      31.084  77.577  18.718  1.00  0.00     0.108 A 
ATOM     17  C   UNL A   1      31.673  76.426  18.195  1.00  0.00     0.041 A 
ATOM     18  C   UNL A   1      32.245  75.485  19.051  1.00  0.00     0.020 A 
BRANCH  15  19
ATOM     19  O   UNL A   1      30.493  78.906  20.619  1.00  0.00    -0.348 OA
BRANCH  19  20
ATOM     20  C   UNL A   1      30.240  78.911  22.022  1.00  0.00     0.180 C 
BRANCH  20  21
ATOM     21  C   UNL A   1      31.004  80.019  22.663  1.00  0.00     0.010 A 
ATOM     22  C   UNL A   1      32.457  79.819  22.967  1.00  0.00     0.007 A 
ATOM     23  C   UNL A   1      32.040  80.745  21.863  1.00  0.00     0.007 A 
ENDBRANCH  20  21
ENDBRANCH  19  20
ENDBRANCH  15  19
BRANCH  16  24
ATOM     24  O   UNL A   1      30.529  78.489  17.872  1.00  0.00    -0.287 OA
BRANCH  24  25
ATOM     25  C   UNL A   1      30.622  78.227  16.477  1.00  0.00     0.505 C 
ATOM     26  F   UNL A   1      29.383  78.396  15.946  1.00  0.00    -0.184 F 
ATOM     27  F   UNL A   1      31.419  79.160  15.901  1.00  0.00    -0.184 F 
ENDBRANCH  24  25
ENDBRANCH  16  24
ENDBRANCH  10  13
ENDBRANCH   4   9
TORSDOF 7
ENDMDL
MODEL 5
REMARK VINA RESULT:      -7.8      1.518      1.733
REMARK  7 active torsions:
REMARK  status: ('A' for Active; 'I' for Inactive)
REMARK    1  A    between atoms: O_5  and  C_13 
REMARK    2  A    between atoms: O_5  and  C_14 
REMARK    3  A    between atoms: O_6  and  C_15 
REMARK    4  A    between atoms: O_6  and  C_22 
REMARK       I    between atoms: N_8  and  C_20 
REMARK    5  A    between atoms: N_8  and  C_21 
REMARK    6  A    between atoms: C_10  and  C_13 
REMARK    7  A    between atoms: C_17  and  C_20 
ROOT
ATOM      1 CL   UNL A   1      35.976  72.628  19.856  1.00  0.00    -0.080 Cl
ATOM      2 CL   UNL A   1      30.773  71.870  18.351  1.00  0.00    -0.080 Cl
ATOM      3  N   UNL A   1      34.005  69.558  18.279  1.00  0.00    -0.270 NA
ATOM      4  C   UNL A   1      33.397  72.151  19.074  1.00  0.00     0.081 A 
ATOM      5  C   UNL A   1      34.690  71.682  19.210  1.00  0.00     0.080 A 
ATOM      6  C   UNL A   1      32.402  71.349  18.547  1.00  0.00     0.080 A 
ATOM      7  C   UNL A   1      34.942  70.383  18.799  1.00  0.00     0.142 A 
ATOM      8  C   UNL A   1      32.756  70.064  18.167  1.00  0.00     0.142 A 
ENDROOT
BRANCH   4   9
ATOM      9  N   UNL A   1      33.087  73.473  19.480  1.00  0.00    -0.320 N 
ATOM     10  C   UNL A   1      32.585  73.912  20.712  1.00  0.00     0.256 C 
ATOM     11  O   UNL A   1      32.324  73.177  21.679  1.00  0.00    -0.267 OA
ATOM     12  H   UNL A   1      33.245  74.174  18.807  1.00  0.00     0.169 HD
BRANCH  10  13
ATOM     13  C   UNL A   1      32.339  75.342  20.824  1.00  0.00     0.035 A 
ATOM     14  C   UNL A   1      31.954  76.073  19.700  1.00  0.00     0.056 A 
ATOM     15  C   UNL A   1      31.719  77.444  19.808  1.00  0.00     0.103 A 
ATOM     16  C   UNL A   1      31.869  78.083  21.039  1.00  0.00     0.108 A 
ATOM     17  C   UNL A   1      32.253  77.351  22.163  1.00  0.00     0.041 A 
ATOM     18  C   UNL A   1      32.489  75.980  22.055  1.00  0.00     0.020 A 
BRANCH  15  19
ATOM     19  O   UNL A   1      31.343  78.148  18.705  1.00  0.00    -0.348 OA
BRANCH  19  20
ATOM     20  C   UNL A   1      30.842  77.401  17.598  1.00  0.00     0.180 C 
BRANCH  20  21
ATOM     21  C   UNL A   1      30.956  78.214  16.355  1.00  0.00     0.010 A 
ATOM     22  C   UNL A   1      32.300  78.728  15.942  1.00  0.00     0.007 A 
ATOM     23  C   UNL A   1      31.643  77.627  15.163  1.00  0.00     0.007 A 
ENDBRANCH  20  21
ENDBRANCH  19  20
ENDBRANCH  15  19
BRANCH  16  24
ATOM     24  O   UNL A   1      31.640  79.420  21.157  1.00  0.00    -0.287 OA
BRANCH  24  25
ATOM     25  C   UNL A   1      31.421  79.933  22.466  1.00  0.00     0.505 C 
ATOM     26  F   UNL A   1      31.741  81.253  22.447  1.00  0.00    -0.184 F 
ATOM     27  F   UNL A   1      30.099  79.860  22.756  1.00  0.00    -0.184 F 
ENDBRANCH  24  25
ENDBRANCH  16  24
ENDBRANCH  10  13
ENDBRANCH   4   9
TORSDOF 7
ENDMDL
MODEL 6
REMARK VINA RESULT:      -7.6      2.542      4.352
REMARK  7 active torsions:
REMARK  status: ('A' for Active; 'I' for Inactive)
REMARK    1  A    between atoms: O_5  and  C_13 
REMARK    2  A    between atoms: O_5  and  C_14 
REMARK    3  A    between atoms: O_6  and  C_15 
REMARK    4  A    between atoms: O_6  and  C_22 
REMARK       I    between atoms: N_8  and  C_20 
REMARK    5  A    between atoms: N_8  and  C_21 
REMARK    6  A    between atoms: C_10  and  C_13 
REMARK    7  A    between atoms: C_17  and  C_20 
ROOT
ATOM      1 CL   UNL A   1      30.650  73.012  22.953  1.00  0.00    -0.080 Cl
ATOM      2 CL   UNL A   1      34.952  72.301  19.652  1.00  0.00    -0.080 Cl
ATOM      3  N   UNL A   1      33.716  70.483  22.963  1.00  0.00    -0.270 NA
ATOM      4  C   UNL A   1      32.834  72.578  21.363  1.00  0.00     0.081 A 
ATOM      5  C   UNL A   1      32.105  72.220  22.481  1.00  0.00     0.080 A 
ATOM      6  C   UNL A   1      33.997  71.908  21.030  1.00  0.00     0.080 A 
ATOM      7  C   UNL A   1      32.586  71.170  23.246  1.00  0.00     0.142 A 
ATOM      8  C   UNL A   1      34.394  70.871  21.860  1.00  0.00     0.142 A 
ENDROOT
BRANCH   4   9
ATOM      9  N   UNL A   1      32.384  73.644  20.546  1.00  0.00    -0.320 N 
ATOM     10  C   UNL A   1      31.609  73.584  19.380  1.00  0.00     0.256 C 
ATOM     11  O   UNL A   1      31.179  72.540  18.863  1.00  0.00    -0.267 OA
ATOM     12  H   UNL A   1      32.652  74.546  20.837  1.00  0.00     0.169 HD
BRANCH  10  13
ATOM     13  C   UNL A   1      31.326  74.859  18.739  1.00  0.00     0.035 A 
ATOM     14  C   UNL A   1      31.313  76.031  19.495  1.00  0.00     0.056 A 
ATOM     15  C   UNL A   1      31.041  77.254  18.880  1.00  0.00     0.103 A 
ATOM     16  C   UNL A   1      30.781  77.303  17.511  1.00  0.00     0.108 A 
ATOM     17  C   UNL A   1      30.795  76.131  16.755  1.00  0.00     0.041 A 
ATOM     18  C   UNL A   1      31.067  74.909  17.370  1.00  0.00     0.020 A 
BRANCH  15  19
ATOM     19  O   UNL A   1      31.030  78.392  19.627  1.00  0.00    -0.348 OA
BRANCH  19  20
ATOM     20  C   UNL A   1      32.021  78.508  20.646  1.00  0.00     0.180 C 
BRANCH  20  21
ATOM     21  C   UNL A   1      31.358  78.609  21.977  1.00  0.00     0.010 A 
ATOM     22  C   UNL A   1      31.139  79.963  22.579  1.00  0.00     0.007 A 
ATOM     23  C   UNL A   1      29.974  79.174  22.059  1.00  0.00     0.007 A 
ENDBRANCH  20  21
ENDBRANCH  19  20
ENDBRANCH  15  19
BRANCH  16  24
ATOM     24  O   UNL A   1      30.515  78.491  16.899  1.00  0.00    -0.287 OA
BRANCH  24  25
ATOM     25  C   UNL A   1      31.463  78.964  15.950  1.00  0.00     0.505 C 
ATOM     26  F   UNL A   1      32.701  78.779  16.480  1.00  0.00    -0.184 F 
ATOM     27  F   UNL A   1      31.402  78.192  14.837  1.00  0.00    -0.184 F 
ENDBRANCH  24  25
ENDBRANCH  16  24
ENDBRANCH  10  13
ENDBRANCH   4   9
TORSDOF 7
ENDMDL
MODEL 7
REMARK VINA RESULT:      -7.4      3.429      6.367
REMARK  7 active torsions:
REMARK  status: ('A' for Active; 'I' for Inactive)
REMARK    1  A    between atoms: O_5  and  C_13 
REMARK    2  A    between atoms: O_5  and  C_14 
REMARK    3  A    between atoms: O_6  and  C_15 
REMARK    4  A    between atoms: O_6  and  C_22 
REMARK       I    between atoms: N_8  and  C_20 
REMARK    5  A    between atoms: N_8  and  C_21 
REMARK    6  A    between atoms: C_10  and  C_13 
REMARK    7  A    between atoms: C_17  and  C_20 
ROOT
ATOM      1 CL   UNL A   1      33.436  75.213  14.519  1.00  0.00    -0.080 Cl
ATOM      2 CL   UNL A   1      28.255  76.919  14.924  1.00  0.00    -0.080 Cl
ATOM      3  N   UNL A   1      30.397  75.357  11.962  1.00  0.00    -0.270 NA
ATOM      4  C   UNL A   1      30.830  76.041  14.621  1.00  0.00     0.081 A 
ATOM      5  C   UNL A   1      31.862  75.498  13.880  1.00  0.00     0.080 A 
ATOM      6  C   UNL A   1      29.584  76.248  14.057  1.00  0.00     0.080 A 
ATOM      7  C   UNL A   1      31.596  75.174  12.559  1.00  0.00     0.142 A 
ATOM      8  C   UNL A   1      29.420  75.891  12.729  1.00  0.00     0.142 A 
ENDROOT
BRANCH   4   9
ATOM      9  N   UNL A   1      31.050  76.388  15.977  1.00  0.00    -0.320 N 
ATOM     10  C   UNL A   1      31.000  75.563  17.109  1.00  0.00     0.256 C 
ATOM     11  O   UNL A   1      30.744  74.348  17.094  1.00  0.00    -0.267 OA
ATOM     12  H   UNL A   1      31.266  77.334  16.145  1.00  0.00     0.169 HD
BRANCH  10  13
ATOM     13  C   UNL A   1      31.247  76.219  18.384  1.00  0.00     0.035 A 
ATOM     14  C   UNL A   1      31.956  75.553  19.384  1.00  0.00     0.056 A 
ATOM     15  C   UNL A   1      32.192  76.182  20.606  1.00  0.00     0.103 A 
ATOM     16  C   UNL A   1      31.718  77.475  20.829  1.00  0.00     0.108 A 
ATOM     17  C   UNL A   1      31.009  78.140  19.829  1.00  0.00     0.041 A 
ATOM     18  C   UNL A   1      30.773  77.511  18.606  1.00  0.00     0.020 A 
BRANCH  15  19
ATOM     19  O   UNL A   1      32.885  75.524  21.576  1.00  0.00    -0.348 OA
BRANCH  19  20
ATOM     20  C   UNL A   1      32.317  74.312  22.070  1.00  0.00     0.180 C 
BRANCH  20  21
ATOM     21  C   UNL A   1      33.370  73.261  22.143  1.00  0.00     0.010 A 
ATOM     22  C   UNL A   1      33.361  72.153  21.136  1.00  0.00     0.007 A 
ATOM     23  C   UNL A   1      34.422  73.211  21.080  1.00  0.00     0.007 A 
ENDBRANCH  20  21
ENDBRANCH  19  20
ENDBRANCH  15  19
BRANCH  16  24
ATOM     24  O   UNL A   1      31.943  78.100  22.018  1.00  0.00    -0.287 OA
BRANCH  24  25
ATOM     25  C   UNL A   1      31.688  79.498  22.080  1.00  0.00     0.505 C 
ATOM     26  F   UNL A   1      30.526  79.672  22.762  1.00  0.00    -0.184 F 
ATOM     27  F   UNL A   1      32.659  80.095  22.814  1.00  0.00    -0.184 F 
ENDBRANCH  24  25
ENDBRANCH  16  24
ENDBRANCH  10  13
ENDBRANCH   4   9
TORSDOF 7
ENDMDL
MODEL 8
REMARK VINA RESULT:      -7.4      3.676      6.402
REMARK  7 active torsions:
REMARK  status: ('A' for Active; 'I' for Inactive)
REMARK    1  A    between atoms: O_5  and  C_13 
REMARK    2  A    between atoms: O_5  and  C_14 
REMARK    3  A    between atoms: O_6  and  C_15 
REMARK    4  A    between atoms: O_6  and  C_22 
REMARK       I    between atoms: N_8  and  C_20 
REMARK    5  A    between atoms: N_8  and  C_21 
REMARK    6  A    between atoms: C_10  and  C_13 
REMARK    7  A    between atoms: C_17  and  C_20 
ROOT
ATOM      1 CL   UNL A   1      28.267  76.797  14.968  1.00  0.00    -0.080 Cl
ATOM      2 CL   UNL A   1      33.511  75.271  14.671  1.00  0.00    -0.080 Cl
ATOM      3  N   UNL A   1      30.532  75.349  12.041  1.00  0.00    -0.270 NA
ATOM      4  C   UNL A   1      30.876  76.010  14.719  1.00  0.00     0.081 A 
ATOM      5  C   UNL A   1      29.639  76.183  14.127  1.00  0.00     0.080 A 
ATOM      6  C   UNL A   1      31.944  75.511  13.996  1.00  0.00     0.080 A 
ATOM      7  C   UNL A   1      29.518  75.838  12.790  1.00  0.00     0.142 A 
ATOM      8  C   UNL A   1      31.721  75.197  12.665  1.00  0.00     0.142 A 
ENDROOT
BRANCH   4   9
ATOM      9  N   UNL A   1      31.051  76.347  16.083  1.00  0.00    -0.320 N 
ATOM     10  C   UNL A   1      30.939  75.519  17.209  1.00  0.00     0.256 C 
ATOM     11  O   UNL A   1      30.656  74.310  17.179  1.00  0.00    -0.267 OA
ATOM     12  H   UNL A   1      31.283  77.287  16.264  1.00  0.00     0.169 HD
BRANCH  10  13
ATOM     13  C   UNL A   1      31.153  76.164  18.495  1.00  0.00     0.035 A 
ATOM     14  C   UNL A   1      31.587  75.414  19.588  1.00  0.00     0.056 A 
ATOM     15  C   UNL A   1      31.790  76.034  20.821  1.00  0.00     0.103 A 
ATOM     16  C   UNL A   1      31.559  77.402  20.962  1.00  0.00     0.108 A 
ATOM     17  C   UNL A   1      31.124  78.152  19.869  1.00  0.00     0.041 A 
ATOM     18  C   UNL A   1      30.921  77.533  18.635  1.00  0.00     0.020 A 
BRANCH  15  19
ATOM     19  O   UNL A   1      32.214  75.292  21.882  1.00  0.00    -0.348 OA
BRANCH  19  20
ATOM     20  C   UNL A   1      32.293  73.880  21.695  1.00  0.00     0.180 C 
BRANCH  20  21
ATOM     21  C   UNL A   1      31.320  73.203  22.598  1.00  0.00     0.010 A 
ATOM     22  C   UNL A   1      30.276  74.024  23.289  1.00  0.00     0.007 A 
ATOM     23  C   UNL A   1      29.888  73.097  22.175  1.00  0.00     0.007 A 
ENDBRANCH  20  21
ENDBRANCH  19  20
ENDBRANCH  15  19
BRANCH  16  24
ATOM     24  O   UNL A   1      31.755  78.018  22.161  1.00  0.00    -0.287 OA
BRANCH  24  25
ATOM     25  C   UNL A   1      31.825  79.438  22.162  1.00  0.00     0.505 C 
ATOM     26  F   UNL A   1      30.705  79.903  22.774  1.00  0.00    -0.184 F 
ATOM     27  F   UNL A   1      32.873  79.831  22.925  1.00  0.00    -0.184 F 
ENDBRANCH  24  25
ENDBRANCH  16  24
ENDBRANCH  10  13
ENDBRANCH   4   9
TORSDOF 7
ENDMDL
MODEL 9
REMARK VINA RESULT:      -7.3      2.342      2.813
REMARK  7 active torsions:
REMARK  status: ('A' for Active; 'I' for Inactive)
REMARK    1  A    between atoms: O_5  and  C_13 
REMARK    2  A    between atoms: O_5  and  C_14 
REMARK    3  A    between atoms: O_6  and  C_15 
REMARK    4  A    between atoms: O_6  and  C_22 
REMARK       I    between atoms: N_8  and  C_20 
REMARK    5  A    between atoms: N_8  and  C_21 
REMARK    6  A    between atoms: C_10  and  C_13 
REMARK    7  A    between atoms: C_17  and  C_20 
ROOT
ATOM      1 CL   UNL A   1      29.067  72.503  16.758  1.00  0.00    -0.080 Cl
ATOM      2 CL   UNL A   1      34.435  72.203  17.757  1.00  0.00    -0.080 Cl
ATOM      3  N   UNL A   1      31.858  69.802  15.916  1.00  0.00    -0.270 NA
ATOM      4  C   UNL A   1      31.755  72.260  17.209  1.00  0.00     0.081 A 
ATOM      5  C   UNL A   1      30.600  71.723  16.672  1.00  0.00     0.080 A 
ATOM      6  C   UNL A   1      32.961  71.591  17.112  1.00  0.00     0.080 A 
ATOM      7  C   UNL A   1      30.704  70.495  16.038  1.00  0.00     0.142 A 
ATOM      8  C   UNL A   1      32.959  70.369  16.458  1.00  0.00     0.142 A 
ENDROOT
BRANCH   4   9
ATOM      9  N   UNL A   1      31.702  73.513  17.867  1.00  0.00    -0.320 N 
ATOM     10  C   UNL A   1      31.590  73.775  19.240  1.00  0.00     0.256 C 
ATOM     11  O   UNL A   1      31.516  72.908  20.127  1.00  0.00    -0.267 OA
ATOM     12  H   UNL A   1      31.751  74.305  17.284  1.00  0.00     0.169 HD
BRANCH  10  13
ATOM     13  C   UNL A   1      31.534  75.179  19.616  1.00  0.00     0.035 A 
ATOM     14  C   UNL A   1      31.280  76.150  18.648  1.00  0.00     0.056 A 
ATOM     15  C   UNL A   1      31.227  77.497  19.010  1.00  0.00     0.103 A 
ATOM     16  C   UNL A   1      31.427  77.871  20.339  1.00  0.00     0.108 A 
ATOM     17  C   UNL A   1      31.681  76.899  21.307  1.00  0.00     0.041 A 
ATOM     18  C   UNL A   1      31.734  75.553  20.945  1.00  0.00     0.020 A 
BRANCH  15  19
ATOM     19  O   UNL A   1      30.980  78.437  18.057  1.00  0.00    -0.348 OA
BRANCH  19  20
ATOM     20  C   UNL A   1      30.259  78.015  16.901  1.00  0.00     0.180 C 
BRANCH  20  21
ATOM     21  C   UNL A   1      31.055  78.319  15.678  1.00  0.00     0.010 A 
ATOM     22  C   UNL A   1      32.463  78.804  15.830  1.00  0.00     0.007 A 
ATOM     23  C   UNL A   1      32.195  77.422  15.311  1.00  0.00     0.007 A 
ENDBRANCH  20  21
ENDBRANCH  19  20
ENDBRANCH  15  19
BRANCH  16  24
ATOM     24  O   UNL A   1      31.377  79.182  20.704  1.00  0.00    -0.287 OA
BRANCH  24  25
ATOM     25  C   UNL A   1      31.558  79.484  22.082  1.00  0.00     0.505 C 
ATOM     26  F   UNL A   1      32.222  80.666  22.158  1.00  0.00    -0.184 F 
ATOM     27  F   UNL A   1      30.347  79.684  22.657  1.00  0.00    -0.184 F 
ENDBRANCH  24  25
ENDBRANCH  16  24
ENDBRANCH  10  13
ENDBRANCH   4   9
TORSDOF 7
ENDMDL
