MODEL 1
REMARK VINA RESULT:      -6.8      0.000      0.000
REMARK  6 active torsions:
REMARK  status: ('A' for Active; 'I' for Inactive)
REMARK    1  A    between atoms: O_1  and  C_8 
REMARK    2  A    between atoms: O_2  and  C_11 
REMARK    3  A    between atoms: O_3  and  C_13 
REMARK    4  A    between atoms: C_6  and  C_7 
REMARK    5  A    between atoms: C_6  and  C_8 
REMARK    6  A    between atoms: C_8  and  C_14 
ROOT
HETATM    1  O   UNL     1      29.751  79.777  21.880  1.00  0.00    -0.385 OA
HETATM    2  H   UNL     1      29.364  80.215  22.653  1.00  0.00     0.210 HD
ENDROOT
BRANCH   1   3
HETATM    3  C   UNL     1      30.919  79.066  22.273  1.00  0.00     0.223 C 
BRANCH   3   4
HETATM    4  C   UNL     1      31.356  78.162  21.109  1.00  0.00     0.081 C 
BRANCH   4   5
HETATM    5  C   UNL     1      31.299  76.713  21.453  1.00  0.00    -0.052 A 
HETATM    6  C   UNL     1      30.807  76.309  22.694  1.00  0.00     0.046 A 
HETATM    7  C   UNL     1      30.754  74.953  23.017  1.00  0.00     0.099 A 
HETATM    8  C   UNL     1      31.194  74.001  22.098  1.00  0.00     0.098 A 
HETATM    9  C   UNL     1      31.687  74.404  20.857  1.00  0.00     0.040 A 
HETATM   10  C   UNL     1      31.739  75.760  20.535  1.00  0.00     0.010 A 
BRANCH   7  11
HETATM   11  O   UNL     1      30.271  74.572  24.231  1.00  0.00    -0.358 OA
HETATM   12  H   UNL     1      30.190  73.662  24.439  1.00  0.00     0.217 HD
ENDBRANCH   7  11
BRANCH   8  13
HETATM   13  O   UNL     1      31.147  72.673  22.401  1.00  0.00    -0.358 OA
HETATM   14  H   UNL     1      30.891  72.397  23.260  1.00  0.00     0.217 HD
ENDBRANCH   8  13
ENDBRANCH   4   5
ENDBRANCH   3   4
BRANCH   3  15
HETATM   15  C   UNL     1      31.985  80.088  22.609  1.00  0.00     0.203 C 
HETATM   16  O   UNL     1      33.011  79.545  23.313  1.00  0.00    -0.646 OA
HETATM   17  O   UNL     1      31.938  81.273  22.307  1.00  0.00    -0.646 OA
ENDBRANCH   3  15
ENDBRANCH   1   3
TORSDOF 6
ENDMDL
MODEL 2
REMARK VINA RESULT:      -6.6      3.519      4.480
REMARK  6 active torsions:
REMARK  status: ('A' for Active; 'I' for Inactive)
REMARK    1  A    between atoms: O_1  and  C_8 
REMARK    2  A    between atoms: O_2  and  C_11 
REMARK    3  A    between atoms: O_3  and  C_13 
REMARK    4  A    between atoms: C_6  and  C_7 
REMARK    5  A    between atoms: C_6  and  C_8 
REMARK    6  A    between atoms: C_8  and  C_14 
ROOT
HETATM    1  O   UNL     1      32.907  78.644  18.237  1.00  0.00    -0.385 OA
HETATM    2  H   UNL     1      33.419  79.241  17.669  1.00  0.00     0.210 HD
ENDROOT
BRANCH   1   3
HETATM    3  C   UNL     1      32.048  77.846  17.432  1.00  0.00     0.223 C 
BRANCH   3   4
HETATM    4  C   UNL     1      30.776  77.531  18.237  1.00  0.00     0.081 C 
BRANCH   4   5
HETATM    5  C   UNL     1      31.065  77.203  19.662  1.00  0.00    -0.052 A 
HETATM    6  C   UNL     1      30.828  78.150  20.658  1.00  0.00     0.046 A 
HETATM    7  C   UNL     1      31.099  77.843  21.992  1.00  0.00     0.099 A 
HETATM    8  C   UNL     1      31.606  76.588  22.329  1.00  0.00     0.098 A 
HETATM    9  C   UNL     1      31.844  75.641  21.332  1.00  0.00     0.040 A 
HETATM   10  C   UNL     1      31.573  75.948  19.999  1.00  0.00     0.010 A 
BRANCH   7  11
HETATM   11  O   UNL     1      30.862  78.776  22.955  1.00  0.00    -0.358 OA
HETATM   12  H   UNL     1      31.558  79.328  23.252  1.00  0.00     0.217 HD
ENDBRANCH   7  11
BRANCH   8  13
HETATM   13  O   UNL     1      31.873  76.276  23.628  1.00  0.00    -0.358 OA
HETATM   14  H   UNL     1      32.656  76.593  24.035  1.00  0.00     0.217 HD
ENDBRANCH   8  13
ENDBRANCH   4   5
ENDBRANCH   3   4
BRANCH   3  15
HETATM   15  C   UNL     1      31.728  78.637  16.180  1.00  0.00     0.203 C 
HETATM   16  O   UNL     1      30.482  79.176  16.220  1.00  0.00    -0.646 OA
HETATM   17  O   UNL     1      32.482  78.773  15.226  1.00  0.00    -0.646 OA
ENDBRANCH   3  15
ENDBRANCH   1   3
TORSDOF 6
ENDMDL
MODEL 3
REMARK VINA RESULT:      -6.5      3.275      4.072
REMARK  6 active torsions:
REMARK  status: ('A' for Active; 'I' for Inactive)
REMARK    1  A    between atoms: O_1  and  C_8 
REMARK    2  A    between atoms: O_2  and  C_11 
REMARK    3  A    between atoms: O_3  and  C_13 
REMARK    4  A    between atoms: C_6  and  C_7 
REMARK    5  A    between atoms: C_6  and  C_8 
REMARK    6  A    between atoms: C_8  and  C_14 
ROOT
HETATM    1  O   UNL     1      32.498  78.615  17.742  1.00  0.00    -0.385 OA
HETATM    2  H   UNL     1      32.089  79.474  17.929  1.00  0.00     0.210 HD
ENDROOT
BRANCH   1   3
HETATM    3  C   UNL     1      31.519  77.589  17.858  1.00  0.00     0.223 C 
BRANCH   3   4
HETATM    4  C   UNL     1      30.910  77.653  19.268  1.00  0.00     0.081 C 
BRANCH   4   5
HETATM    5  C   UNL     1      31.576  76.724  20.225  1.00  0.00    -0.052 A 
HETATM    6  C   UNL     1      31.377  76.875  21.597  1.00  0.00     0.046 A 
HETATM    7  C   UNL     1      32.001  76.006  22.493  1.00  0.00     0.099 A 
HETATM    8  C   UNL     1      32.824  74.986  22.015  1.00  0.00     0.098 A 
HETATM    9  C   UNL     1      33.024  74.836  20.643  1.00  0.00     0.040 A 
HETATM   10  C   UNL     1      32.400  75.705  19.748  1.00  0.00     0.010 A 
BRANCH   7  11
HETATM   11  O   UNL     1      31.797  76.162  23.830  1.00  0.00    -0.358 OA
HETATM   12  H   UNL     1      31.195  76.810  24.139  1.00  0.00     0.217 HD
ENDBRANCH   7  11
BRANCH   8  13
HETATM   13  O   UNL     1      33.438  74.131  22.880  1.00  0.00    -0.358 OA
HETATM   14  H   UNL     1      34.256  73.737  22.648  1.00  0.00     0.217 HD
ENDBRANCH   8  13
ENDBRANCH   4   5
ENDBRANCH   3   4
BRANCH   3  15
HETATM   15  C   UNL     1      30.471  77.835  16.792  1.00  0.00     0.203 C 
HETATM   16  O   UNL     1      30.196  79.155  16.639  1.00  0.00    -0.646 OA
HETATM   17  O   UNL     1      29.913  76.958  16.145  1.00  0.00    -0.646 OA
ENDBRANCH   3  15
ENDBRANCH   1   3
TORSDOF 6
ENDMDL
MODEL 4
REMARK VINA RESULT:      -6.5      1.497      1.541
REMARK  6 active torsions:
REMARK  status: ('A' for Active; 'I' for Inactive)
REMARK    1  A    between atoms: O_1  and  C_8 
REMARK    2  A    between atoms: O_2  and  C_11 
REMARK    3  A    between atoms: O_3  and  C_13 
REMARK    4  A    between atoms: C_6  and  C_7 
REMARK    5  A    between atoms: C_6  and  C_8 
REMARK    6  A    between atoms: C_8  and  C_14 
ROOT
HETATM    1  O   UNL     1      29.641  79.687  22.197  1.00  0.00    -0.385 OA
HETATM    2  H   UNL     1      29.748  80.649  22.130  1.00  0.00     0.210 HD
ENDROOT
BRANCH   1   3
HETATM    3  C   UNL     1      30.920  79.065  22.163  1.00  0.00     0.223 C 
BRANCH   3   4
HETATM    4  C   UNL     1      31.179  78.560  20.734  1.00  0.00     0.081 C 
BRANCH   4   5
HETATM    5  C   UNL     1      31.599  77.130  20.697  1.00  0.00    -0.052 A 
HETATM    6  C   UNL     1      32.212  76.554  21.810  1.00  0.00     0.046 A 
HETATM    7  C   UNL     1      32.606  75.216  21.775  1.00  0.00     0.099 A 
HETATM    8  C   UNL     1      32.387  74.455  20.627  1.00  0.00     0.098 A 
HETATM    9  C   UNL     1      31.775  75.031  19.514  1.00  0.00     0.040 A 
HETATM   10  C   UNL     1      31.381  76.368  19.549  1.00  0.00     0.010 A 
BRANCH   7  11
HETATM   11  O   UNL     1      33.202  74.665  22.868  1.00  0.00    -0.358 OA
HETATM   12  H   UNL     1      32.680  74.370  23.588  1.00  0.00     0.217 HD
ENDBRANCH   7  11
BRANCH   8  13
HETATM   13  O   UNL     1      32.766  73.147  20.582  1.00  0.00    -0.358 OA
HETATM   14  H   UNL     1      32.152  72.489  20.320  1.00  0.00     0.217 HD
ENDBRANCH   8  13
ENDBRANCH   4   5
ENDBRANCH   3   4
BRANCH   3  15
HETATM   15  C   UNL     1      31.944  80.102  22.576  1.00  0.00     0.203 C 
HETATM   16  O   UNL     1      32.965  79.559  23.286  1.00  0.00    -0.646 OA
HETATM   17  O   UNL     1      31.868  81.298  22.326  1.00  0.00    -0.646 OA
ENDBRANCH   3  15
ENDBRANCH   1   3
TORSDOF 6
ENDMDL
MODEL 5
REMARK VINA RESULT:      -6.3      3.557      4.567
REMARK  6 active torsions:
REMARK  status: ('A' for Active; 'I' for Inactive)
REMARK    1  A    between atoms: O_1  and  C_8 
REMARK    2  A    between atoms: O_2  and  C_11 
REMARK    3  A    between atoms: O_3  and  C_13 
REMARK    4  A    between atoms: C_6  and  C_7 
REMARK    5  A    between atoms: C_6  and  C_8 
REMARK    6  A    between atoms: C_8  and  C_14 
ROOT
HETATM    1  O   UNL     1      32.911  78.692  18.106  1.00  0.00    -0.385 OA
HETATM    2  H   UNL     1      33.172  78.382  18.987  1.00  0.00     0.210 HD
ENDROOT
BRANCH   1   3
HETATM    3  C   UNL     1      31.999  77.765  17.529  1.00  0.00     0.223 C 
BRANCH   3   4
HETATM    4  C   UNL     1      30.744  77.698  18.416  1.00  0.00     0.081 C 
BRANCH   4   5
HETATM    5  C   UNL     1      31.052  77.290  19.816  1.00  0.00    -0.052 A 
HETATM    6  C   UNL     1      31.557  76.016  20.077  1.00  0.00     0.046 A 
HETATM    7  C   UNL     1      31.844  75.634  21.388  1.00  0.00     0.099 A 
HETATM    8  C   UNL     1      31.625  76.527  22.437  1.00  0.00     0.098 A 
HETATM    9  C   UNL     1      31.119  77.800  22.176  1.00  0.00     0.040 A 
HETATM   10  C   UNL     1      30.832  78.182  20.866  1.00  0.00     0.010 A 
BRANCH   7  11
HETATM   11  O   UNL     1      32.338  74.389  21.629  1.00  0.00    -0.358 OA
HETATM   12  H   UNL     1      33.214  74.285  21.945  1.00  0.00     0.217 HD
ENDBRANCH   7  11
BRANCH   8  13
HETATM   13  O   UNL     1      31.903  76.165  23.721  1.00  0.00    -0.358 OA
HETATM   14  H   UNL     1      31.584  75.351  24.059  1.00  0.00     0.217 HD
ENDBRANCH   8  13
ENDBRANCH   4   5
ENDBRANCH   3   4
BRANCH   3  15
HETATM   15  C   UNL     1      31.665  78.260  16.136  1.00  0.00     0.203 C 
HETATM   16  O   UNL     1      30.675  79.189  16.146  1.00  0.00    -0.646 OA
HETATM   17  O   UNL     1      32.200  77.867  15.108  1.00  0.00    -0.646 OA
ENDBRANCH   3  15
ENDBRANCH   1   3
TORSDOF 6
ENDMDL
MODEL 6
REMARK VINA RESULT:      -6.2      3.531      4.627
REMARK  6 active torsions:
REMARK  status: ('A' for Active; 'I' for Inactive)
REMARK    1  A    between atoms: O_1  and  C_8 
REMARK    2  A    between atoms: O_2  and  C_11 
REMARK    3  A    between atoms: O_3  and  C_13 
REMARK    4  A    between atoms: C_6  and  C_7 
REMARK    5  A    between atoms: C_6  and  C_8 
REMARK    6  A    between atoms: C_8  and  C_14 
ROOT
HETATM    1  O   UNL     1      31.155  75.943  16.750  1.00  0.00    -0.385 OA
HETATM    2  H   UNL     1      32.085  75.792  16.978  1.00  0.00     0.210 HD
ENDROOT
BRANCH   1   3
HETATM    3  C   UNL     1      30.656  77.046  17.497  1.00  0.00     0.223 C 
BRANCH   3   4
HETATM    4  C   UNL     1      31.808  77.632  18.331  1.00  0.00     0.081 C 
BRANCH   4   5
HETATM    5  C   UNL     1      31.742  77.229  19.764  1.00  0.00    -0.052 A 
HETATM    6  C   UNL     1      31.126  78.064  20.696  1.00  0.00     0.046 A 
HETATM    7  C   UNL     1      31.064  77.687  22.038  1.00  0.00     0.099 A 
HETATM    8  C   UNL     1      31.620  76.475  22.447  1.00  0.00     0.098 A 
HETATM    9  C   UNL     1      32.237  75.640  21.515  1.00  0.00     0.040 A 
HETATM   10  C   UNL     1      32.298  76.017  20.174  1.00  0.00     0.010 A 
BRANCH   7  11
HETATM   11  O   UNL     1      30.459  78.510  22.938  1.00  0.00    -0.358 OA
HETATM   12  H   UNL     1      30.536  78.338  23.855  1.00  0.00     0.217 HD
ENDBRANCH   7  11
BRANCH   8  13
HETATM   13  O   UNL     1      31.565  76.095  23.755  1.00  0.00    -0.358 OA
HETATM   14  H   UNL     1      32.025  76.589  24.406  1.00  0.00     0.217 HD
ENDBRANCH   8  13
ENDBRANCH   4   5
ENDBRANCH   3   4
BRANCH   3  15
HETATM   15  C   UNL     1      30.119  78.061  16.508  1.00  0.00     0.203 C 
HETATM   16  O   UNL     1      29.553  77.471  15.425  1.00  0.00    -0.646 OA
HETATM   17  O   UNL     1      30.191  79.275  16.644  1.00  0.00    -0.646 OA
ENDBRANCH   3  15
ENDBRANCH   1   3
TORSDOF 6
ENDMDL
MODEL 7
REMARK VINA RESULT:      -6.2      3.021      4.330
REMARK  6 active torsions:
REMARK  status: ('A' for Active; 'I' for Inactive)
REMARK    1  A    between atoms: O_1  and  C_8 
REMARK    2  A    between atoms: O_2  and  C_11 
REMARK    3  A    between atoms: O_3  and  C_13 
REMARK    4  A    between atoms: C_6  and  C_7 
REMARK    5  A    between atoms: C_6  and  C_8 
REMARK    6  A    between atoms: C_8  and  C_14 
ROOT
HETATM    1  O   UNL     1      32.929  77.506  22.944  1.00  0.00    -0.385 OA
HETATM    2  H   UNL     1      32.540  76.649  23.177  1.00  0.00     0.210 HD
ENDROOT
BRANCH   1   3
HETATM    3  C   UNL     1      32.261  78.034  21.803  1.00  0.00     0.223 C 
BRANCH   3   4
HETATM    4  C   UNL     1      31.255  76.986  21.298  1.00  0.00     0.081 C 
BRANCH   4   5
HETATM    5  C   UNL     1      31.244  76.870  19.812  1.00  0.00    -0.052 A 
HETATM    6  C   UNL     1      30.682  77.885  19.037  1.00  0.00     0.046 A 
HETATM    7  C   UNL     1      30.671  77.775  17.646  1.00  0.00     0.099 A 
HETATM    8  C   UNL     1      31.222  76.652  17.031  1.00  0.00     0.098 A 
HETATM    9  C   UNL     1      31.783  75.637  17.806  1.00  0.00     0.040 A 
HETATM   10  C   UNL     1      31.794  75.746  19.196  1.00  0.00     0.010 A 
BRANCH   7  11
HETATM   11  O   UNL     1      30.120  78.773  16.901  1.00  0.00    -0.358 OA
HETATM   12  H   UNL     1      29.952  78.638  15.990  1.00  0.00     0.217 HD
ENDBRANCH   7  11
BRANCH   8  13
HETATM   13  O   UNL     1      31.218  76.534  15.674  1.00  0.00    -0.358 OA
HETATM   14  H   UNL     1      30.469  76.179  15.236  1.00  0.00     0.217 HD
ENDBRANCH   8  13
ENDBRANCH   4   5
ENDBRANCH   3   4
BRANCH   3  15
HETATM   15  C   UNL     1      31.564  79.309  22.231  1.00  0.00     0.203 C 
HETATM   16  O   UNL     1      30.355  79.065  22.799  1.00  0.00    -0.646 OA
HETATM   17  O   UNL     1      32.012  80.437  22.076  1.00  0.00    -0.646 OA
ENDBRANCH   3  15
ENDBRANCH   1   3
TORSDOF 6
ENDMDL
MODEL 8
REMARK VINA RESULT:      -6.0      2.086      5.472
REMARK  6 active torsions:
REMARK  status: ('A' for Active; 'I' for Inactive)
REMARK    1  A    between atoms: O_1  and  C_8 
REMARK    2  A    between atoms: O_2  and  C_11 
REMARK    3  A    between atoms: O_3  and  C_13 
REMARK    4  A    between atoms: C_6  and  C_7 
REMARK    5  A    between atoms: C_6  and  C_8 
REMARK    6  A    between atoms: C_8  and  C_14 
ROOT
HETATM    1  O   UNL     1      31.639  73.042  23.278  1.00  0.00    -0.385 OA
HETATM    2  H   UNL     1      31.503  73.734  23.944  1.00  0.00     0.210 HD
ENDROOT
BRANCH   1   3
HETATM    3  C   UNL     1      32.413  73.563  22.205  1.00  0.00     0.223 C 
BRANCH   3   4
HETATM    4  C   UNL     1      32.644  75.063  22.452  1.00  0.00     0.081 C 
BRANCH   4   5
HETATM    5  C   UNL     1      32.054  75.920  21.385  1.00  0.00    -0.052 A 
HETATM    6  C   UNL     1      31.636  77.217  21.682  1.00  0.00     0.046 A 
HETATM    7  C   UNL     1      31.083  78.018  20.682  1.00  0.00     0.099 A 
HETATM    8  C   UNL     1      30.948  77.521  19.386  1.00  0.00     0.098 A 
HETATM    9  C   UNL     1      31.364  76.223  19.089  1.00  0.00     0.040 A 
HETATM   10  C   UNL     1      31.917  75.423  20.088  1.00  0.00     0.010 A 
BRANCH   7  11
HETATM   11  O   UNL     1      30.681  79.283  20.984  1.00  0.00    -0.358 OA
HETATM   12  H   UNL     1      30.914  79.996  20.423  1.00  0.00     0.217 HD
ENDBRANCH   7  11
BRANCH   8  13
HETATM   13  O   UNL     1      30.410  78.295  18.401  1.00  0.00    -0.358 OA
HETATM   14  H   UNL     1      30.545  79.222  18.408  1.00  0.00     0.217 HD
ENDBRANCH   8  13
ENDBRANCH   4   5
ENDBRANCH   3   4
BRANCH   3  15
HETATM   15  C   UNL     1      33.722  72.801  22.173  1.00  0.00     0.203 C 
HETATM   16  O   UNL     1      34.455  73.088  21.067  1.00  0.00    -0.646 OA
HETATM   17  O   UNL     1      34.087  72.003  23.026  1.00  0.00    -0.646 OA
ENDBRANCH   3  15
ENDBRANCH   1   3
TORSDOF 6
ENDMDL
MODEL 9
REMARK VINA RESULT:      -6.0      2.190      2.571
REMARK  6 active torsions:
REMARK  status: ('A' for Active; 'I' for Inactive)
REMARK    1  A    between atoms: O_1  and  C_8 
REMARK    2  A    between atoms: O_2  and  C_11 
REMARK    3  A    between atoms: O_3  and  C_13 
REMARK    4  A    between atoms: C_6  and  C_7 
REMARK    5  A    between atoms: C_6  and  C_8 
REMARK    6  A    between atoms: C_8  and  C_14 
ROOT
HETATM    1  O   UNL     1      30.457  77.455  23.093  1.00  0.00    -0.385 OA
HETATM    2  H   UNL     1      29.994  76.614  22.956  1.00  0.00     0.210 HD
ENDROOT
BRANCH   1   3
HETATM    3  C   UNL     1      31.678  77.449  22.363  1.00  0.00     0.223 C 
BRANCH   3   4
HETATM    4  C   UNL     1      31.485  76.600  21.095  1.00  0.00     0.081 C 
BRANCH   4   5
HETATM    5  C   UNL     1      32.392  75.419  21.051  1.00  0.00    -0.052 A 
HETATM    6  C   UNL     1      32.824  74.825  22.237  1.00  0.00     0.046 A 
HETATM    7  C   UNL     1      33.674  73.719  22.196  1.00  0.00     0.099 A 
HETATM    8  C   UNL     1      34.092  73.208  20.968  1.00  0.00     0.098 A 
HETATM    9  C   UNL     1      33.661  73.802  19.781  1.00  0.00     0.040 A 
HETATM   10  C   UNL     1      32.811  74.907  19.823  1.00  0.00     0.010 A 
BRANCH   7  11
HETATM   11  O   UNL     1      34.087  73.149  23.361  1.00  0.00    -0.358 OA
HETATM   12  H   UNL     1      33.581  73.258  24.141  1.00  0.00     0.217 HD
ENDBRANCH   7  11
BRANCH   8  13
HETATM   13  O   UNL     1      34.921  72.128  20.914  1.00  0.00    -0.358 OA
HETATM   14  H   UNL     1      35.132  71.660  21.698  1.00  0.00     0.217 HD
ENDBRANCH   8  13
ENDBRANCH   4   5
ENDBRANCH   3   4
BRANCH   3  15
HETATM   15  C   UNL     1      32.012  78.886  22.020  1.00  0.00     0.203 C 
HETATM   16  O   UNL     1      32.707  79.501  23.011  1.00  0.00    -0.646 OA
HETATM   17  O   UNL     1      31.687  79.451  20.984  1.00  0.00    -0.646 OA
ENDBRANCH   3  15
ENDBRANCH   1   3
TORSDOF 6
ENDMDL
