MODEL 1
REMARK VINA RESULT:      -6.8      0.000      0.000
REMARK  6 active torsions:
REMARK  status: ('A' for Active; 'I' for Inactive)
REMARK    1  A    between atoms: O_1  and  C_8 
REMARK    2  A    between atoms: O_2  and  C_11 
REMARK    3  A    between atoms: O_3  and  C_13 
REMARK    4  A    between atoms: C_6  and  C_7 
REMARK    5  A    between atoms: C_6  and  C_8 
REMARK    6  A    between atoms: C_8  and  C_14 
ROOT
HETATM    1  O   UNL     1      29.756  79.769  21.855  1.00  0.00    -0.385 OA
HETATM    2  H   UNL     1      29.846  80.712  22.065  1.00  0.00     0.210 HD
ENDROOT
BRANCH   1   3
HETATM    3  C   UNL     1      30.925  79.076  22.275  1.00  0.00     0.223 C 
BRANCH   3   4
HETATM    4  C   UNL     1      31.396  78.169  21.125  1.00  0.00     0.081 C 
BRANCH   4   5
HETATM    5  C   UNL     1      31.321  76.721  21.468  1.00  0.00    -0.052 A 
HETATM    6  C   UNL     1      30.809  76.321  22.703  1.00  0.00     0.046 A 
HETATM    7  C   UNL     1      30.740  74.965  23.024  1.00  0.00     0.099 A 
HETATM    8  C   UNL     1      31.183  74.010  22.110  1.00  0.00     0.098 A 
HETATM    9  C   UNL     1      31.696  74.409  20.876  1.00  0.00     0.040 A 
HETATM   10  C   UNL     1      31.765  75.764  20.555  1.00  0.00     0.010 A 
BRANCH   7  11
HETATM   11  O   UNL     1      30.238  74.588  24.232  1.00  0.00    -0.358 OA
HETATM   12  H   UNL     1      30.588  74.954  25.019  1.00  0.00     0.217 HD
ENDBRANCH   7  11
BRANCH   8  13
HETATM   13  O   UNL     1      31.120  72.682  22.412  1.00  0.00    -0.358 OA
HETATM   14  H   UNL     1      30.296  72.288  22.622  1.00  0.00     0.217 HD
ENDBRANCH   8  13
ENDBRANCH   4   5
ENDBRANCH   3   4
BRANCH   3  15
HETATM   15  C   UNL     1      31.972  80.114  22.623  1.00  0.00     0.203 C 
HETATM   16  O   UNL     1      33.022  79.577  23.296  1.00  0.00    -0.646 OA
HETATM   17  O   UNL     1      31.891  81.306  22.356  1.00  0.00    -0.646 OA
ENDBRANCH   3  15
ENDBRANCH   1   3
TORSDOF 6
ENDMDL
MODEL 2
REMARK VINA RESULT:      -6.6      3.520      4.492
REMARK  6 active torsions:
REMARK  status: ('A' for Active; 'I' for Inactive)
REMARK    1  A    between atoms: O_1  and  C_8 
REMARK    2  A    between atoms: O_2  and  C_11 
REMARK    3  A    between atoms: O_3  and  C_13 
REMARK    4  A    between atoms: C_6  and  C_7 
REMARK    5  A    between atoms: C_6  and  C_8 
REMARK    6  A    between atoms: C_8  and  C_14 
ROOT
HETATM    1  O   UNL     1      32.908  78.633  18.221  1.00  0.00    -0.385 OA
HETATM    2  H   UNL     1      33.447  79.197  17.644  1.00  0.00     0.210 HD
ENDROOT
BRANCH   1   3
HETATM    3  C   UNL     1      32.033  77.842  17.426  1.00  0.00     0.223 C 
BRANCH   3   4
HETATM    4  C   UNL     1      30.764  77.546  18.243  1.00  0.00     0.081 C 
BRANCH   4   5
HETATM    5  C   UNL     1      31.060  77.214  19.665  1.00  0.00    -0.052 A 
HETATM    6  C   UNL     1      30.833  78.160  20.665  1.00  0.00     0.046 A 
HETATM    7  C   UNL     1      31.111  77.849  21.996  1.00  0.00     0.099 A 
HETATM    8  C   UNL     1      31.617  76.592  22.327  1.00  0.00     0.098 A 
HETATM    9  C   UNL     1      31.845  75.647  21.328  1.00  0.00     0.040 A 
HETATM   10  C   UNL     1      31.567  75.957  19.997  1.00  0.00     0.010 A 
BRANCH   7  11
HETATM   11  O   UNL     1      30.884  78.781  22.962  1.00  0.00    -0.358 OA
HETATM   12  H   UNL     1      30.878  79.691  22.743  1.00  0.00     0.217 HD
ENDBRANCH   7  11
BRANCH   8  13
HETATM   13  O   UNL     1      31.891  76.277  23.624  1.00  0.00    -0.358 OA
HETATM   14  H   UNL     1      31.735  76.905  24.302  1.00  0.00     0.217 HD
ENDBRANCH   8  13
ENDBRANCH   4   5
ENDBRANCH   3   4
BRANCH   3  15
HETATM   15  C   UNL     1      31.712  78.633  16.174  1.00  0.00     0.203 C 
HETATM   16  O   UNL     1      30.469  79.177  16.217  1.00  0.00    -0.646 OA
HETATM   17  O   UNL     1      32.464  78.763  15.217  1.00  0.00    -0.646 OA
ENDBRANCH   3  15
ENDBRANCH   1   3
TORSDOF 6
ENDMDL
MODEL 3
REMARK VINA RESULT:      -6.5      1.508      1.554
REMARK  6 active torsions:
REMARK  status: ('A' for Active; 'I' for Inactive)
REMARK    1  A    between atoms: O_1  and  C_8 
REMARK    2  A    between atoms: O_2  and  C_11 
REMARK    3  A    between atoms: O_3  and  C_13 
REMARK    4  A    between atoms: C_6  and  C_7 
REMARK    5  A    between atoms: C_6  and  C_8 
REMARK    6  A    between atoms: C_8  and  C_14 
ROOT
HETATM    1  O   UNL     1      29.645  79.668  22.224  1.00  0.00    -0.385 OA
HETATM    2  H   UNL     1      29.511  80.224  21.441  1.00  0.00     0.210 HD
ENDROOT
BRANCH   1   3
HETATM    3  C   UNL     1      30.940  79.081  22.174  1.00  0.00     0.223 C 
BRANCH   3   4
HETATM    4  C   UNL     1      31.189  78.569  20.746  1.00  0.00     0.081 C 
BRANCH   4   5
HETATM    5  C   UNL     1      31.632  77.146  20.715  1.00  0.00    -0.052 A 
HETATM    6  C   UNL     1      32.205  76.569  21.848  1.00  0.00     0.046 A 
HETATM    7  C   UNL     1      32.620  75.237  21.819  1.00  0.00     0.099 A 
HETATM    8  C   UNL     1      32.462  74.483  20.656  1.00  0.00     0.098 A 
HETATM    9  C   UNL     1      31.890  75.061  19.523  1.00  0.00     0.040 A 
HETATM   10  C   UNL     1      31.475  76.392  19.552  1.00  0.00     0.010 A 
BRANCH   7  11
HETATM   11  O   UNL     1      33.177  74.685  22.932  1.00  0.00    -0.358 OA
HETATM   12  H   UNL     1      33.405  73.777  22.940  1.00  0.00     0.217 HD
ENDBRANCH   7  11
BRANCH   8  13
HETATM   13  O   UNL     1      32.863  73.182  20.616  1.00  0.00    -0.358 OA
HETATM   14  H   UNL     1      32.741  72.678  19.835  1.00  0.00     0.217 HD
ENDBRANCH   8  13
ENDBRANCH   4   5
ENDBRANCH   3   4
BRANCH   3  15
HETATM   15  C   UNL     1      31.941  80.151  22.560  1.00  0.00     0.203 C 
HETATM   16  O   UNL     1      32.961  79.653  23.305  1.00  0.00    -0.646 OA
HETATM   17  O   UNL     1      31.850  81.334  22.261  1.00  0.00    -0.646 OA
ENDBRANCH   3  15
ENDBRANCH   1   3
TORSDOF 6
ENDMDL
MODEL 4
REMARK VINA RESULT:      -6.3      3.362      4.084
REMARK  6 active torsions:
REMARK  status: ('A' for Active; 'I' for Inactive)
REMARK    1  A    between atoms: O_1  and  C_8 
REMARK    2  A    between atoms: O_2  and  C_11 
REMARK    3  A    between atoms: O_3  and  C_13 
REMARK    4  A    between atoms: C_6  and  C_7 
REMARK    5  A    between atoms: C_6  and  C_8 
REMARK    6  A    between atoms: C_8  and  C_14 
ROOT
HETATM    1  O   UNL     1      32.868  78.824  18.028  1.00  0.00    -0.385 OA
HETATM    2  H   UNL     1      33.045  78.886  18.979  1.00  0.00     0.210 HD
ENDROOT
BRANCH   1   3
HETATM    3  C   UNL     1      31.959  77.757  17.783  1.00  0.00     0.223 C 
BRANCH   3   4
HETATM    4  C   UNL     1      31.074  77.575  19.026  1.00  0.00     0.081 C 
BRANCH   4   5
HETATM    5  C   UNL     1      31.687  76.673  20.042  1.00  0.00    -0.052 A 
HETATM    6  C   UNL     1      31.442  76.882  21.399  1.00  0.00     0.046 A 
HETATM    7  C   UNL     1      32.018  76.038  22.350  1.00  0.00     0.099 A 
HETATM    8  C   UNL     1      32.837  74.986  21.943  1.00  0.00     0.098 A 
HETATM    9  C   UNL     1      33.083  74.778  20.586  1.00  0.00     0.040 A 
HETATM   10  C   UNL     1      32.508  75.621  19.636  1.00  0.00     0.010 A 
BRANCH   7  11
HETATM   11  O   UNL     1      31.770  76.252  23.672  1.00  0.00    -0.358 OA
HETATM   12  H   UNL     1      31.566  75.530  24.233  1.00  0.00     0.217 HD
ENDBRANCH   7  11
BRANCH   8  13
HETATM   13  O   UNL     1      33.404  74.155  22.862  1.00  0.00    -0.358 OA
HETATM   14  H   UNL     1      33.576  74.464  23.730  1.00  0.00     0.217 HD
ENDBRANCH   8  13
ENDBRANCH   4   5
ENDBRANCH   3   4
BRANCH   3  15
HETATM   15  C   UNL     1      31.135  78.128  16.567  1.00  0.00     0.203 C 
HETATM   16  O   UNL     1      30.035  78.853  16.896  1.00  0.00    -0.646 OA
HETATM   17  O   UNL     1      31.402  77.807  15.417  1.00  0.00    -0.646 OA
ENDBRANCH   3  15
ENDBRANCH   1   3
TORSDOF 6
ENDMDL
MODEL 5
REMARK VINA RESULT:      -6.3      3.532      4.545
REMARK  6 active torsions:
REMARK  status: ('A' for Active; 'I' for Inactive)
REMARK    1  A    between atoms: O_1  and  C_8 
REMARK    2  A    between atoms: O_2  and  C_11 
REMARK    3  A    between atoms: O_3  and  C_13 
REMARK    4  A    between atoms: C_6  and  C_7 
REMARK    5  A    between atoms: C_6  and  C_8 
REMARK    6  A    between atoms: C_8  and  C_14 
ROOT
HETATM    1  O   UNL     1      32.892  78.717  18.170  1.00  0.00    -0.385 OA
HETATM    2  H   UNL     1      33.712  78.781  17.655  1.00  0.00     0.210 HD
ENDROOT
BRANCH   1   3
HETATM    3  C   UNL     1      31.993  77.825  17.522  1.00  0.00     0.223 C 
BRANCH   3   4
HETATM    4  C   UNL     1      30.736  77.680  18.395  1.00  0.00     0.081 C 
BRANCH   4   5
HETATM    5  C   UNL     1      31.051  77.284  19.797  1.00  0.00    -0.052 A 
HETATM    6  C   UNL     1      31.568  76.016  20.064  1.00  0.00     0.046 A 
HETATM    7  C   UNL     1      31.863  75.645  21.377  1.00  0.00     0.099 A 
HETATM    8  C   UNL     1      31.641  76.542  22.421  1.00  0.00     0.098 A 
HETATM    9  C   UNL     1      31.123  77.810  22.154  1.00  0.00     0.040 A 
HETATM   10  C   UNL     1      30.829  78.181  20.842  1.00  0.00     0.010 A 
BRANCH   7  11
HETATM   11  O   UNL     1      32.367  74.405  21.625  1.00  0.00    -0.358 OA
HETATM   12  H   UNL     1      33.064  74.297  22.241  1.00  0.00     0.217 HD
ENDBRANCH   7  11
BRANCH   8  13
HETATM   13  O   UNL     1      31.926  76.192  23.706  1.00  0.00    -0.358 OA
HETATM   14  H   UNL     1      32.723  75.739  23.903  1.00  0.00     0.217 HD
ENDBRANCH   8  13
ENDBRANCH   4   5
ENDBRANCH   3   4
BRANCH   3  15
HETATM   15  C   UNL     1      31.660  78.415  16.167  1.00  0.00     0.203 C 
HETATM   16  O   UNL     1      30.570  79.223  16.214  1.00  0.00    -0.646 OA
HETATM   17  O   UNL     1      32.278  78.189  15.135  1.00  0.00    -0.646 OA
ENDBRANCH   3  15
ENDBRANCH   1   3
TORSDOF 6
ENDMDL
MODEL 6
REMARK VINA RESULT:      -6.2      3.478      4.477
REMARK  6 active torsions:
REMARK  status: ('A' for Active; 'I' for Inactive)
REMARK    1  A    between atoms: O_1  and  C_8 
REMARK    2  A    between atoms: O_2  and  C_11 
REMARK    3  A    between atoms: O_3  and  C_13 
REMARK    4  A    between atoms: C_6  and  C_7 
REMARK    5  A    between atoms: C_6  and  C_8 
REMARK    6  A    between atoms: C_8  and  C_14 
ROOT
HETATM    1  O   UNL     1      30.747  75.877  17.099  1.00  0.00    -0.385 OA
HETATM    2  H   UNL     1      30.140  75.832  16.344  1.00  0.00     0.210 HD
ENDROOT
BRANCH   1   3
HETATM    3  C   UNL     1      30.709  77.184  17.660  1.00  0.00     0.223 C 
BRANCH   3   4
HETATM    4  C   UNL     1      32.010  77.415  18.447  1.00  0.00     0.081 C 
BRANCH   4   5
HETATM    5  C   UNL     1      31.886  77.046  19.885  1.00  0.00    -0.052 A 
HETATM    6  C   UNL     1      31.190  77.878  20.762  1.00  0.00     0.046 A 
HETATM    7  C   UNL     1      31.075  77.532  22.109  1.00  0.00     0.099 A 
HETATM    8  C   UNL     1      31.655  76.354  22.578  1.00  0.00     0.098 A 
HETATM    9  C   UNL     1      32.352  75.522  21.701  1.00  0.00     0.040 A 
HETATM   10  C   UNL     1      32.467  75.868  20.355  1.00  0.00     0.010 A 
BRANCH   7  11
HETATM   11  O   UNL     1      30.393  78.352  22.955  1.00  0.00    -0.358 OA
HETATM   12  H   UNL     1      30.040  78.013  23.753  1.00  0.00     0.217 HD
ENDBRANCH   7  11
BRANCH   8  13
HETATM   13  O   UNL     1      31.548  76.005  23.891  1.00  0.00    -0.358 OA
HETATM   14  H   UNL     1      30.704  75.849  24.267  1.00  0.00     0.217 HD
ENDBRANCH   8  13
ENDBRANCH   4   5
ENDBRANCH   3   4
BRANCH   3  15
HETATM   15  C   UNL     1      30.571  78.168  16.517  1.00  0.00     0.203 C 
HETATM   16  O   UNL     1      31.033  77.660  15.346  1.00  0.00    -0.646 OA
HETATM   17  O   UNL     1      30.117  79.300  16.619  1.00  0.00    -0.646 OA
ENDBRANCH   3  15
ENDBRANCH   1   3
TORSDOF 6
ENDMDL
MODEL 7
REMARK VINA RESULT:      -6.1      2.893      4.178
REMARK  6 active torsions:
REMARK  status: ('A' for Active; 'I' for Inactive)
REMARK    1  A    between atoms: O_1  and  C_8 
REMARK    2  A    between atoms: O_2  and  C_11 
REMARK    3  A    between atoms: O_3  and  C_13 
REMARK    4  A    between atoms: C_6  and  C_7 
REMARK    5  A    between atoms: C_6  and  C_8 
REMARK    6  A    between atoms: C_8  and  C_14 
ROOT
HETATM    1  O   UNL     1      32.983  77.925  22.971  1.00  0.00    -0.385 OA
HETATM    2  H   UNL     1      33.910  78.116  22.762  1.00  0.00     0.210 HD
ENDROOT
BRANCH   1   3
HETATM    3  C   UNL     1      32.161  78.305  21.874  1.00  0.00     0.223 C 
BRANCH   3   4
HETATM    4  C   UNL     1      31.279  77.107  21.486  1.00  0.00     0.081 C 
BRANCH   4   5
HETATM    5  C   UNL     1      31.222  76.888  20.013  1.00  0.00    -0.052 A 
HETATM    6  C   UNL     1      30.738  77.893  19.177  1.00  0.00     0.046 A 
HETATM    7  C   UNL     1      30.684  77.688  17.797  1.00  0.00     0.099 A 
HETATM    8  C   UNL     1      31.114  76.477  17.256  1.00  0.00     0.098 A 
HETATM    9  C   UNL     1      31.598  75.471  18.093  1.00  0.00     0.040 A 
HETATM   10  C   UNL     1      31.651  75.676  19.471  1.00  0.00     0.010 A 
BRANCH   7  11
HETATM   11  O   UNL     1      30.210  78.677  16.991  1.00  0.00    -0.358 OA
HETATM   12  H   UNL     1      30.517  79.556  17.098  1.00  0.00     0.217 HD
ENDBRANCH   7  11
BRANCH   8  13
HETATM   13  O   UNL     1      31.067  76.265  15.911  1.00  0.00    -0.358 OA
HETATM   14  H   UNL     1      30.765  76.944  15.340  1.00  0.00     0.217 HD
ENDBRANCH   8  13
ENDBRANCH   4   5
ENDBRANCH   3   4
BRANCH   3  15
HETATM   15  C   UNL     1      31.324  79.487  22.318  1.00  0.00     0.203 C 
HETATM   16  O   UNL     1      32.077  80.597  22.530  1.00  0.00    -0.646 OA
HETATM   17  O   UNL     1      30.112  79.461  22.489  1.00  0.00    -0.646 OA
ENDBRANCH   3  15
ENDBRANCH   1   3
TORSDOF 6
ENDMDL
MODEL 8
REMARK VINA RESULT:      -6.1      1.945      5.729
REMARK  6 active torsions:
REMARK  status: ('A' for Active; 'I' for Inactive)
REMARK    1  A    between atoms: O_1  and  C_8 
REMARK    2  A    between atoms: O_2  and  C_11 
REMARK    3  A    between atoms: O_3  and  C_13 
REMARK    4  A    between atoms: C_6  and  C_7 
REMARK    5  A    between atoms: C_6  and  C_8 
REMARK    6  A    between atoms: C_8  and  C_14 
ROOT
HETATM    1  O   UNL     1      31.550  73.192  23.166  1.00  0.00    -0.385 OA
HETATM    2  H   UNL     1      31.557  72.411  23.741  1.00  0.00     0.210 HD
ENDROOT
BRANCH   1   3
HETATM    3  C   UNL     1      32.616  73.099  22.228  1.00  0.00     0.223 C 
BRANCH   3   4
HETATM    4  C   UNL     1      33.442  74.394  22.297  1.00  0.00     0.081 C 
BRANCH   4   5
HETATM    5  C   UNL     1      32.708  75.573  21.759  1.00  0.00    -0.052 A 
HETATM    6  C   UNL     1      32.683  76.768  22.479  1.00  0.00     0.046 A 
HETATM    7  C   UNL     1      31.995  77.872  21.975  1.00  0.00     0.099 A 
HETATM    8  C   UNL     1      31.331  77.781  20.752  1.00  0.00     0.098 A 
HETATM    9  C   UNL     1      31.355  76.586  20.032  1.00  0.00     0.040 A 
HETATM   10  C   UNL     1      32.043  75.483  20.536  1.00  0.00     0.010 A 
BRANCH   7  11
HETATM   11  O   UNL     1      31.979  79.033  22.686  1.00  0.00    -0.358 OA
HETATM   12  H   UNL     1      31.588  79.056  23.537  1.00  0.00     0.217 HD
ENDBRANCH   7  11
BRANCH   8  13
HETATM   13  O   UNL     1      30.657  78.853  20.249  1.00  0.00    -0.358 OA
HETATM   14  H   UNL     1      30.745  79.694  20.653  1.00  0.00     0.217 HD
ENDBRANCH   8  13
ENDBRANCH   4   5
ENDBRANCH   3   4
BRANCH   3  15
HETATM   15  C   UNL     1      33.450  71.891  22.604  1.00  0.00     0.203 C 
HETATM   16  O   UNL     1      33.581  71.018  21.571  1.00  0.00    -0.646 OA
HETATM   17  O   UNL     1      33.942  71.696  23.707  1.00  0.00    -0.646 OA
ENDBRANCH   3  15
ENDBRANCH   1   3
TORSDOF 6
ENDMDL
MODEL 9
REMARK VINA RESULT:      -5.9      2.278      2.737
REMARK  6 active torsions:
REMARK  status: ('A' for Active; 'I' for Inactive)
REMARK    1  A    between atoms: O_1  and  C_8 
REMARK    2  A    between atoms: O_2  and  C_11 
REMARK    3  A    between atoms: O_3  and  C_13 
REMARK    4  A    between atoms: C_6  and  C_7 
REMARK    5  A    between atoms: C_6  and  C_8 
REMARK    6  A    between atoms: C_8  and  C_14 
ROOT
HETATM    1  O   UNL     1      30.557  77.102  23.163  1.00  0.00    -0.385 OA
HETATM    2  H   UNL     1      30.868  77.266  24.067  1.00  0.00     0.210 HD
ENDROOT
BRANCH   1   3
HETATM    3  C   UNL     1      31.604  77.385  22.242  1.00  0.00     0.223 C 
BRANCH   3   4
HETATM    4  C   UNL     1      31.455  76.450  21.031  1.00  0.00     0.081 C 
BRANCH   4   5
HETATM    5  C   UNL     1      32.417  75.312  21.061  1.00  0.00    -0.052 A 
HETATM    6  C   UNL     1      32.804  74.758  22.282  1.00  0.00     0.046 A 
HETATM    7  C   UNL     1      33.706  73.693  22.310  1.00  0.00     0.099 A 
HETATM    8  C   UNL     1      34.219  73.183  21.118  1.00  0.00     0.098 A 
HETATM    9  C   UNL     1      33.832  73.737  19.897  1.00  0.00     0.040 A 
HETATM   10  C   UNL     1      32.931  74.801  19.869  1.00  0.00     0.010 A 
BRANCH   7  11
HETATM   11  O   UNL     1      34.075  73.161  23.507  1.00  0.00    -0.358 OA
HETATM   12  H   UNL     1      33.458  73.114  24.209  1.00  0.00     0.217 HD
ENDBRANCH   7  11
BRANCH   8  13
HETATM   13  O   UNL     1      35.098  72.143  21.133  1.00  0.00    -0.358 OA
HETATM   14  H   UNL     1      36.019  72.306  21.065  1.00  0.00     0.217 HD
ENDBRANCH   8  13
ENDBRANCH   4   5
ENDBRANCH   3   4
BRANCH   3  15
HETATM   15  C   UNL     1      31.475  78.839  21.837  1.00  0.00     0.203 C 
HETATM   16  O   UNL     1      30.983  79.609  22.842  1.00  0.00    -0.646 OA
HETATM   17  O   UNL     1      31.758  79.285  20.733  1.00  0.00    -0.646 OA
ENDBRANCH   3  15
ENDBRANCH   1   3
TORSDOF 6
ENDMDL
