MODEL 1
REMARK VINA RESULT:      -6.8      0.000      0.000
REMARK  6 active torsions:
REMARK  status: ('A' for Active; 'I' for Inactive)
REMARK    1  A    between atoms: O_1  and  C_8 
REMARK    2  A    between atoms: O_2  and  C_11 
REMARK    3  A    between atoms: O_3  and  C_13 
REMARK    4  A    between atoms: C_6  and  C_7 
REMARK    5  A    between atoms: C_6  and  C_8 
REMARK    6  A    between atoms: C_8  and  C_14 
ROOT
HETATM    1  O   UNL     1      29.763  79.752  21.833  1.00  0.00    -0.385 OA
HETATM    2  H   UNL     1      29.857  79.990  20.897  1.00  0.00     0.210 HD
ENDROOT
BRANCH   1   3
HETATM    3  C   UNL     1      30.930  79.065  22.267  1.00  0.00     0.223 C 
BRANCH   3   4
HETATM    4  C   UNL     1      31.412  78.151  21.128  1.00  0.00     0.081 C 
BRANCH   4   5
HETATM    5  C   UNL     1      31.326  76.705  21.476  1.00  0.00    -0.052 A 
HETATM    6  C   UNL     1      30.811  76.314  22.712  1.00  0.00     0.046 A 
HETATM    7  C   UNL     1      30.731  74.959  23.038  1.00  0.00     0.099 A 
HETATM    8  C   UNL     1      31.167  73.997  22.128  1.00  0.00     0.098 A 
HETATM    9  C   UNL     1      31.683  74.388  20.892  1.00  0.00     0.040 A 
HETATM   10  C   UNL     1      31.762  75.741  20.566  1.00  0.00     0.010 A 
BRANCH   7  11
HETATM   11  O   UNL     1      30.226  74.590  24.247  1.00  0.00    -0.358 OA
HETATM   12  H   UNL     1      29.328  74.762  24.452  1.00  0.00     0.217 HD
ENDBRANCH   7  11
BRANCH   8  13
HETATM   13  O   UNL     1      31.093  72.671  22.434  1.00  0.00    -0.358 OA
HETATM   14  H   UNL     1      30.319  72.325  22.834  1.00  0.00     0.217 HD
ENDBRANCH   8  13
ENDBRANCH   4   5
ENDBRANCH   3   4
BRANCH   3  15
HETATM   15  C   UNL     1      31.972  80.109  22.616  1.00  0.00     0.203 C 
HETATM   16  O   UNL     1      33.013  79.582  23.310  1.00  0.00    -0.646 OA
HETATM   17  O   UNL     1      31.894  81.296  22.331  1.00  0.00    -0.646 OA
ENDBRANCH   3  15
ENDBRANCH   1   3
TORSDOF 6
ENDMDL
MODEL 2
REMARK VINA RESULT:      -6.6      3.509      4.485
REMARK  6 active torsions:
REMARK  status: ('A' for Active; 'I' for Inactive)
REMARK    1  A    between atoms: O_1  and  C_8 
REMARK    2  A    between atoms: O_2  and  C_11 
REMARK    3  A    between atoms: O_3  and  C_13 
REMARK    4  A    between atoms: C_6  and  C_7 
REMARK    5  A    between atoms: C_6  and  C_8 
REMARK    6  A    between atoms: C_8  and  C_14 
ROOT
HETATM    1  O   UNL     1      32.910  78.626  18.230  1.00  0.00    -0.385 OA
HETATM    2  H   UNL     1      33.199  79.405  17.729  1.00  0.00     0.210 HD
ENDROOT
BRANCH   1   3
HETATM    3  C   UNL     1      32.038  77.842  17.424  1.00  0.00     0.223 C 
BRANCH   3   4
HETATM    4  C   UNL     1      30.768  77.534  18.235  1.00  0.00     0.081 C 
BRANCH   4   5
HETATM    5  C   UNL     1      31.061  77.206  19.659  1.00  0.00    -0.052 A 
HETATM    6  C   UNL     1      30.825  78.153  20.656  1.00  0.00     0.046 A 
HETATM    7  C   UNL     1      31.100  77.845  21.989  1.00  0.00     0.099 A 
HETATM    8  C   UNL     1      31.611  76.592  22.324  1.00  0.00     0.098 A 
HETATM    9  C   UNL     1      31.848  75.645  21.327  1.00  0.00     0.040 A 
HETATM   10  C   UNL     1      31.573  75.952  19.995  1.00  0.00     0.010 A 
BRANCH   7  11
HETATM   11  O   UNL     1      30.864  78.778  22.953  1.00  0.00    -0.358 OA
HETATM   12  H   UNL     1      30.081  78.735  23.464  1.00  0.00     0.217 HD
ENDBRANCH   7  11
BRANCH   8  13
HETATM   13  O   UNL     1      31.882  76.280  23.623  1.00  0.00    -0.358 OA
HETATM   14  H   UNL     1      32.133  76.954  24.224  1.00  0.00     0.217 HD
ENDBRANCH   8  13
ENDBRANCH   4   5
ENDBRANCH   3   4
BRANCH   3  15
HETATM   15  C   UNL     1      31.718  78.646  16.181  1.00  0.00     0.203 C 
HETATM   16  O   UNL     1      30.467  79.173  16.219  1.00  0.00    -0.646 OA
HETATM   17  O   UNL     1      32.477  78.800  15.233  1.00  0.00    -0.646 OA
ENDBRANCH   3  15
ENDBRANCH   1   3
TORSDOF 6
ENDMDL
MODEL 3
REMARK VINA RESULT:      -6.5      1.515      1.565
REMARK  6 active torsions:
REMARK  status: ('A' for Active; 'I' for Inactive)
REMARK    1  A    between atoms: O_1  and  C_8 
REMARK    2  A    between atoms: O_2  and  C_11 
REMARK    3  A    between atoms: O_3  and  C_13 
REMARK    4  A    between atoms: C_6  and  C_7 
REMARK    5  A    between atoms: C_6  and  C_8 
REMARK    6  A    between atoms: C_8  and  C_14 
ROOT
HETATM    1  O   UNL     1      29.634  79.684  22.218  1.00  0.00    -0.385 OA
HETATM    2  H   UNL     1      29.029  79.129  22.733  1.00  0.00     0.210 HD
ENDROOT
BRANCH   1   3
HETATM    3  C   UNL     1      30.917  79.070  22.173  1.00  0.00     0.223 C 
BRANCH   3   4
HETATM    4  C   UNL     1      31.164  78.560  20.743  1.00  0.00     0.081 C 
BRANCH   4   5
HETATM    5  C   UNL     1      31.615  77.140  20.709  1.00  0.00    -0.052 A 
HETATM    6  C   UNL     1      32.177  76.559  21.846  1.00  0.00     0.046 A 
HETATM    7  C   UNL     1      32.600  75.230  21.814  1.00  0.00     0.099 A 
HETATM    8  C   UNL     1      32.460  74.482  20.645  1.00  0.00     0.098 A 
HETATM    9  C   UNL     1      31.898  75.063  19.508  1.00  0.00     0.040 A 
HETATM   10  C   UNL     1      31.476  76.392  19.540  1.00  0.00     0.010 A 
BRANCH   7  11
HETATM   11  O   UNL     1      33.146  74.674  22.930  1.00  0.00    -0.358 OA
HETATM   12  H   UNL     1      32.860  74.949  23.778  1.00  0.00     0.217 HD
ENDBRANCH   7  11
BRANCH   8  13
HETATM   13  O   UNL     1      32.868  73.183  20.602  1.00  0.00    -0.358 OA
HETATM   14  H   UNL     1      33.064  72.780  19.779  1.00  0.00     0.217 HD
ENDBRANCH   8  13
ENDBRANCH   4   5
ENDBRANCH   3   4
BRANCH   3  15
HETATM   15  C   UNL     1      31.938  80.116  22.571  1.00  0.00     0.203 C 
HETATM   16  O   UNL     1      32.974  79.581  23.267  1.00  0.00    -0.646 OA
HETATM   17  O   UNL     1      31.850  81.311  22.320  1.00  0.00    -0.646 OA
ENDBRANCH   3  15
ENDBRANCH   1   3
TORSDOF 6
ENDMDL
MODEL 4
REMARK VINA RESULT:      -6.4      3.311      4.109
REMARK  6 active torsions:
REMARK  status: ('A' for Active; 'I' for Inactive)
REMARK    1  A    between atoms: O_1  and  C_8 
REMARK    2  A    between atoms: O_2  and  C_11 
REMARK    3  A    between atoms: O_3  and  C_13 
REMARK    4  A    between atoms: C_6  and  C_7 
REMARK    5  A    between atoms: C_6  and  C_8 
REMARK    6  A    between atoms: C_8  and  C_14 
ROOT
HETATM    1  O   UNL     1      32.558  78.645  17.740  1.00  0.00    -0.385 OA
HETATM    2  H   UNL     1      32.562  79.141  18.573  1.00  0.00     0.210 HD
ENDROOT
BRANCH   1   3
HETATM    3  C   UNL     1      31.577  77.616  17.806  1.00  0.00     0.223 C 
BRANCH   3   4
HETATM    4  C   UNL     1      30.927  77.650  19.199  1.00  0.00     0.081 C 
BRANCH   4   5
HETATM    5  C   UNL     1      31.596  76.735  20.167  1.00  0.00    -0.052 A 
HETATM    6  C   UNL     1      31.406  76.911  21.538  1.00  0.00     0.046 A 
HETATM    7  C   UNL     1      32.032  76.054  22.444  1.00  0.00     0.099 A 
HETATM    8  C   UNL     1      32.848  75.024  21.979  1.00  0.00     0.098 A 
HETATM    9  C   UNL     1      33.039  74.849  20.609  1.00  0.00     0.040 A 
HETATM   10  C   UNL     1      32.413  75.704  19.703  1.00  0.00     0.010 A 
BRANCH   7  11
HETATM   11  O   UNL     1      31.838  76.236  23.780  1.00  0.00    -0.358 OA
HETATM   12  H   UNL     1      32.297  76.916  24.231  1.00  0.00     0.217 HD
ENDBRANCH   7  11
BRANCH   8  13
HETATM   13  O   UNL     1      33.464  74.181  22.855  1.00  0.00    -0.358 OA
HETATM   14  H   UNL     1      34.014  73.492  22.535  1.00  0.00     0.217 HD
ENDBRANCH   8  13
ENDBRANCH   4   5
ENDBRANCH   3   4
BRANCH   3  15
HETATM   15  C   UNL     1      30.561  77.884  16.715  1.00  0.00     0.203 C 
HETATM   16  O   UNL     1      30.316  79.211  16.557  1.00  0.00    -0.646 OA
HETATM   17  O   UNL     1      30.000  77.020  16.054  1.00  0.00    -0.646 OA
ENDBRANCH   3  15
ENDBRANCH   1   3
TORSDOF 6
ENDMDL
MODEL 5
REMARK VINA RESULT:      -6.3      3.541      4.568
REMARK  6 active torsions:
REMARK  status: ('A' for Active; 'I' for Inactive)
REMARK    1  A    between atoms: O_1  and  C_8 
REMARK    2  A    between atoms: O_2  and  C_11 
REMARK    3  A    between atoms: O_3  and  C_13 
REMARK    4  A    between atoms: C_6  and  C_7 
REMARK    5  A    between atoms: C_6  and  C_8 
REMARK    6  A    between atoms: C_8  and  C_14 
ROOT
HETATM    1  O   UNL     1      32.908  78.718  18.102  1.00  0.00    -0.385 OA
HETATM    2  H   UNL     1      33.440  79.102  17.387  1.00  0.00     0.210 HD
ENDROOT
BRANCH   1   3
HETATM    3  C   UNL     1      31.998  77.769  17.558  1.00  0.00     0.223 C 
BRANCH   3   4
HETATM    4  C   UNL     1      30.744  77.730  18.448  1.00  0.00     0.081 C 
BRANCH   4   5
HETATM    5  C   UNL     1      31.043  77.306  19.844  1.00  0.00    -0.052 A 
HETATM    6  C   UNL     1      31.532  76.024  20.094  1.00  0.00     0.046 A 
HETATM    7  C   UNL     1      31.812  75.626  21.402  1.00  0.00     0.099 A 
HETATM    8  C   UNL     1      31.602  76.511  22.459  1.00  0.00     0.098 A 
HETATM    9  C   UNL     1      31.113  77.793  22.210  1.00  0.00     0.040 A 
HETATM   10  C   UNL     1      30.833  78.190  20.902  1.00  0.00     0.010 A 
BRANCH   7  11
HETATM   11  O   UNL     1      32.290  74.372  21.633  1.00  0.00    -0.358 OA
HETATM   12  H   UNL     1      32.227  73.998  22.489  1.00  0.00     0.217 HD
ENDBRANCH   7  11
BRANCH   8  13
HETATM   13  O   UNL     1      31.873  76.135  23.741  1.00  0.00    -0.358 OA
HETATM   14  H   UNL     1      31.207  75.728  24.260  1.00  0.00     0.217 HD
ENDBRANCH   8  13
ENDBRANCH   4   5
ENDBRANCH   3   4
BRANCH   3  15
HETATM   15  C   UNL     1      31.662  78.214  16.149  1.00  0.00     0.203 C 
HETATM   16  O   UNL     1      30.706  79.179  16.131  1.00  0.00    -0.646 OA
HETATM   17  O   UNL     1      32.168  77.758  15.132  1.00  0.00    -0.646 OA
ENDBRANCH   3  15
ENDBRANCH   1   3
TORSDOF 6
ENDMDL
MODEL 6
REMARK VINA RESULT:      -6.2      2.861      4.156
REMARK  6 active torsions:
REMARK  status: ('A' for Active; 'I' for Inactive)
REMARK    1  A    between atoms: O_1  and  C_8 
REMARK    2  A    between atoms: O_2  and  C_11 
REMARK    3  A    between atoms: O_3  and  C_13 
REMARK    4  A    between atoms: C_6  and  C_7 
REMARK    5  A    between atoms: C_6  and  C_8 
REMARK    6  A    between atoms: C_8  and  C_14 
ROOT
HETATM    1  O   UNL     1      33.025  78.033  22.938  1.00  0.00    -0.385 OA
HETATM    2  H   UNL     1      33.350  78.812  23.414  1.00  0.00     0.210 HD
ENDROOT
BRANCH   1   3
HETATM    3  C   UNL     1      32.082  78.439  21.953  1.00  0.00     0.223 C 
BRANCH   3   4
HETATM    4  C   UNL     1      31.219  77.224  21.572  1.00  0.00     0.081 C 
BRANCH   4   5
HETATM    5  C   UNL     1      31.218  76.957  20.106  1.00  0.00    -0.052 A 
HETATM    6  C   UNL     1      30.742  77.925  19.221  1.00  0.00     0.046 A 
HETATM    7  C   UNL     1      30.740  77.675  17.849  1.00  0.00     0.099 A 
HETATM    8  C   UNL     1      31.213  76.457  17.362  1.00  0.00     0.098 A 
HETATM    9  C   UNL     1      31.688  75.488  18.246  1.00  0.00     0.040 A 
HETATM   10  C   UNL     1      31.690  75.739  19.618  1.00  0.00     0.010 A 
BRANCH   7  11
HETATM   11  O   UNL     1      30.275  78.628  16.995  1.00  0.00    -0.358 OA
HETATM   12  H   UNL     1      30.494  79.528  17.134  1.00  0.00     0.217 HD
ENDBRANCH   7  11
BRANCH   8  13
HETATM   13  O   UNL     1      31.217  76.202  16.023  1.00  0.00    -0.358 OA
HETATM   14  H   UNL     1      31.885  76.569  15.478  1.00  0.00     0.217 HD
ENDBRANCH   8  13
ENDBRANCH   4   5
ENDBRANCH   3   4
BRANCH   3  15
HETATM   15  C   UNL     1      31.241  79.546  22.555  1.00  0.00     0.203 C 
HETATM   16  O   UNL     1      29.913  79.349  22.353  1.00  0.00    -0.646 OA
HETATM   17  O   UNL     1      31.688  80.523  23.142  1.00  0.00    -0.646 OA
ENDBRANCH   3  15
ENDBRANCH   1   3
TORSDOF 6
ENDMDL
MODEL 7
REMARK VINA RESULT:      -6.1      1.964      5.781
REMARK  6 active torsions:
REMARK  status: ('A' for Active; 'I' for Inactive)
REMARK    1  A    between atoms: O_1  and  C_8 
REMARK    2  A    between atoms: O_2  and  C_11 
REMARK    3  A    between atoms: O_3  and  C_13 
REMARK    4  A    between atoms: C_6  and  C_7 
REMARK    5  A    between atoms: C_6  and  C_8 
REMARK    6  A    between atoms: C_8  and  C_14 
ROOT
HETATM    1  O   UNL     1      31.631  72.817  23.261  1.00  0.00    -0.385 OA
HETATM    2  H   UNL     1      31.427  71.873  23.350  1.00  0.00     0.210 HD
ENDROOT
BRANCH   1   3
HETATM    3  C   UNL     1      32.520  73.008  22.167  1.00  0.00     0.223 C 
BRANCH   3   4
HETATM    4  C   UNL     1      33.325  74.296  22.410  1.00  0.00     0.081 C 
BRANCH   4   5
HETATM    5  C   UNL     1      32.663  75.503  21.839  1.00  0.00    -0.052 A 
HETATM    6  C   UNL     1      32.735  76.722  22.514  1.00  0.00     0.046 A 
HETATM    7  C   UNL     1      32.116  77.853  21.980  1.00  0.00     0.099 A 
HETATM    8  C   UNL     1      31.424  77.763  20.772  1.00  0.00     0.098 A 
HETATM    9  C   UNL     1      31.351  76.544  20.098  1.00  0.00     0.040 A 
HETATM   10  C   UNL     1      31.970  75.415  20.632  1.00  0.00     0.010 A 
BRANCH   7  11
HETATM   11  O   UNL     1      32.194  79.037  22.647  1.00  0.00    -0.358 OA
HETATM   12  H   UNL     1      32.991  79.283  23.073  1.00  0.00     0.217 HD
ENDBRANCH   7  11
BRANCH   8  13
HETATM   13  O   UNL     1      30.816  78.861  20.241  1.00  0.00    -0.358 OA
HETATM   14  H   UNL     1      30.432  78.817  19.387  1.00  0.00     0.217 HD
ENDBRANCH   8  13
ENDBRANCH   4   5
ENDBRANCH   3   4
BRANCH   3  15
HETATM   15  C   UNL     1      33.425  71.796  22.096  1.00  0.00     0.203 C 
HETATM   16  O   UNL     1      34.106  71.597  23.254  1.00  0.00    -0.646 OA
HETATM   17  O   UNL     1      33.556  71.077  21.114  1.00  0.00    -0.646 OA
ENDBRANCH   3  15
ENDBRANCH   1   3
TORSDOF 6
ENDMDL
MODEL 8
REMARK VINA RESULT:      -6.0      2.243      2.666
REMARK  6 active torsions:
REMARK  status: ('A' for Active; 'I' for Inactive)
REMARK    1  A    between atoms: O_1  and  C_8 
REMARK    2  A    between atoms: O_2  and  C_11 
REMARK    3  A    between atoms: O_3  and  C_13 
REMARK    4  A    between atoms: C_6  and  C_7 
REMARK    5  A    between atoms: C_6  and  C_8 
REMARK    6  A    between atoms: C_8  and  C_14 
ROOT
HETATM    1  O   UNL     1      30.583  77.312  23.156  1.00  0.00    -0.385 OA
HETATM    2  H   UNL     1      30.877  77.227  24.076  1.00  0.00     0.210 HD
ENDROOT
BRANCH   1   3
HETATM    3  C   UNL     1      31.718  77.412  22.304  1.00  0.00     0.223 C 
BRANCH   3   4
HETATM    4  C   UNL     1      31.489  76.513  21.078  1.00  0.00     0.081 C 
BRANCH   4   5
HETATM    5  C   UNL     1      32.410  75.342  21.045  1.00  0.00    -0.052 A 
HETATM    6  C   UNL     1      32.818  74.740  22.235  1.00  0.00     0.046 A 
HETATM    7  C   UNL     1      33.681  73.644  22.204  1.00  0.00     0.099 A 
HETATM    8  C   UNL     1      34.135  73.150  20.981  1.00  0.00     0.098 A 
HETATM    9  C   UNL     1      33.729  73.752  19.791  1.00  0.00     0.040 A 
HETATM   10  C   UNL     1      32.866  74.847  19.822  1.00  0.00     0.010 A 
BRANCH   7  11
HETATM   11  O   UNL     1      34.070  73.065  23.373  1.00  0.00    -0.358 OA
HETATM   12  H   UNL     1      34.971  73.087  23.629  1.00  0.00     0.217 HD
ENDBRANCH   7  11
BRANCH   8  13
HETATM   13  O   UNL     1      34.977  72.080  20.938  1.00  0.00    -0.358 OA
HETATM   14  H   UNL     1      35.204  71.629  21.728  1.00  0.00     0.217 HD
ENDBRANCH   8  13
ENDBRANCH   4   5
ENDBRANCH   3   4
BRANCH   3  15
HETATM   15  C   UNL     1      31.861  78.866  21.903  1.00  0.00     0.203 C 
HETATM   16  O   UNL     1      32.225  79.652  22.949  1.00  0.00    -0.646 OA
HETATM   17  O   UNL     1      31.660  79.305  20.778  1.00  0.00    -0.646 OA
ENDBRANCH   3  15
ENDBRANCH   1   3
TORSDOF 6
ENDMDL
MODEL 9
REMARK VINA RESULT:      -5.9      1.608      2.319
REMARK  6 active torsions:
REMARK  status: ('A' for Active; 'I' for Inactive)
REMARK    1  A    between atoms: O_1  and  C_8 
REMARK    2  A    between atoms: O_2  and  C_11 
REMARK    3  A    between atoms: O_3  and  C_13 
REMARK    4  A    between atoms: C_6  and  C_7 
REMARK    5  A    between atoms: C_6  and  C_8 
REMARK    6  A    between atoms: C_8  and  C_14 
ROOT
HETATM    1  O   UNL     1      31.397  78.996  20.348  1.00  0.00    -0.385 OA
HETATM    2  H   UNL     1      30.793  79.737  20.180  1.00  0.00     0.210 HD
ENDROOT
BRANCH   1   3
HETATM    3  C   UNL     1      30.999  78.321  21.536  1.00  0.00     0.223 C 
BRANCH   3   4
HETATM    4  C   UNL     1      32.246  77.694  22.182  1.00  0.00     0.081 C 
BRANCH   4   5
HETATM    5  C   UNL     1      32.137  76.215  22.325  1.00  0.00    -0.052 A 
HETATM    6  C   UNL     1      33.278  75.418  22.229  1.00  0.00     0.046 A 
HETATM    7  C   UNL     1      33.175  74.033  22.362  1.00  0.00     0.099 A 
HETATM    8  C   UNL     1      31.932  73.445  22.591  1.00  0.00     0.098 A 
HETATM    9  C   UNL     1      30.790  74.242  22.686  1.00  0.00     0.040 A 
HETATM   10  C   UNL     1      30.893  75.626  22.553  1.00  0.00     0.010 A 
BRANCH   7  11
HETATM   11  O   UNL     1      34.296  73.267  22.267  1.00  0.00    -0.358 OA
HETATM   12  H   UNL     1      35.015  73.552  21.738  1.00  0.00     0.217 HD
ENDBRANCH   7  11
BRANCH   8  13
HETATM   13  O   UNL     1      31.819  72.094  22.724  1.00  0.00    -0.358 OA
HETATM   14  H   UNL     1      31.699  71.557  21.965  1.00  0.00     0.217 HD
ENDBRANCH   8  13
ENDBRANCH   4   5
ENDBRANCH   3   4
BRANCH   3  15
HETATM   15  C   UNL     1      30.358  79.345  22.450  1.00  0.00     0.203 C 
HETATM   16  O   UNL     1      31.278  80.143  23.050  1.00  0.00    -0.646 OA
HETATM   17  O   UNL     1      29.155  79.445  22.653  1.00  0.00    -0.646 OA
ENDBRANCH   3  15
ENDBRANCH   1   3
TORSDOF 6
ENDMDL
