MODEL 1
REMARK VINA RESULT:     -21.3      0.000      0.000
REMARK  4 active torsions:
REMARK  status: ('A' for Active; 'I' for Inactive)
REMARK    1  A    between atoms: O_1  and  C_5 
REMARK    2  A    between atoms: O_1  and  C_14 
REMARK    3  A    between atoms: O_2  and  C_18 
REMARK    4  A    between atoms: C_10  and  C_13 
ROOT
HETATM    1  O   UNL     1     -53.555  48.328   9.123  1.00  0.00    -0.343 OA
ENDROOT
BRANCH   1   2
HETATM    2  C   UNL     1     -52.296  47.896   8.623  1.00  0.00     0.129 C 
HETATM    3  C   UNL     1     -52.075  48.482   7.237  1.00  0.00     0.032 C 
HETATM    4  C   UNL     1     -52.889  47.585   6.306  1.00  0.00     0.002 C 
HETATM    5  C   UNL     1     -53.069  46.257   7.042  1.00  0.00     0.002 C 
HETATM    6  C   UNL     1     -52.315  46.398   8.363  1.00  0.00     0.032 C 
ENDBRANCH   1   2
BRANCH   1   7
HETATM    7  C   UNL     1     -53.554  48.947  10.345  1.00  0.00     0.103 A 
HETATM    8  C   UNL     1     -53.212  48.212  11.476  1.00  0.00     0.047 A 
HETATM    9  C   UNL     1     -53.208  48.831  12.727  1.00  0.00    -0.049 A 
HETATM   10  C   UNL     1     -53.547  50.180  12.839  1.00  0.00     0.010 A 
HETATM   11  C   UNL     1     -53.889  50.910  11.702  1.00  0.00     0.040 A 
HETATM   12  C   UNL     1     -53.893  50.292  10.450  1.00  0.00     0.101 A 
BRANCH   9  13
HETATM   13  C   UNL     1     -52.837  48.039  13.962  1.00  0.00     0.045 C 
HETATM   14  C   UNL     1     -51.838  46.900  13.748  1.00  0.00     0.132 C 
HETATM   15  N   UNL     1     -51.276  46.689  15.052  1.00  0.00    -0.360 N 
HETATM   16  C   UNL     1     -51.430  47.789  15.884  1.00  0.00     0.218 C 
HETATM   17  H   UNL     1     -50.829  45.856  15.325  1.00  0.00     0.162 HD
HETATM   18  O   UNL     1     -51.016  47.920  17.025  1.00  0.00    -0.274 OA
HETATM   19  C   UNL     1     -52.170  48.842  15.095  1.00  0.00     0.113 C 
ENDBRANCH   9  13
BRANCH  12  20
HETATM   20  O   UNL     1     -54.230  51.015   9.346  1.00  0.00    -0.353 OA
HETATM   21  C   UNL     1     -53.919  52.406   9.364  1.00  0.00     0.210 C 
ENDBRANCH  12  20
ENDBRANCH   1   7
TORSDOF 4
ENDMDL
MODEL 2
REMARK VINA RESULT:     -21.2      1.056      1.265
REMARK  4 active torsions:
REMARK  status: ('A' for Active; 'I' for Inactive)
REMARK    1  A    between atoms: O_1  and  C_5 
REMARK    2  A    between atoms: O_1  and  C_14 
REMARK    3  A    between atoms: O_2  and  C_18 
REMARK    4  A    between atoms: C_10  and  C_13 
ROOT
HETATM    1  O   UNL     1     -53.666  48.100   9.628  1.00  0.00    -0.343 OA
ENDROOT
BRANCH   1   2
HETATM    2  C   UNL     1     -52.419  47.724   9.059  1.00  0.00     0.129 C 
HETATM    3  C   UNL     1     -52.218  48.467   7.746  1.00  0.00     0.032 C 
HETATM    4  C   UNL     1     -53.054  47.686   6.732  1.00  0.00     0.002 C 
HETATM    5  C   UNL     1     -53.229  46.283   7.313  1.00  0.00     0.002 C 
HETATM    6  C   UNL     1     -52.451  46.266   8.627  1.00  0.00     0.032 C 
ENDBRANCH   1   2
BRANCH   1   7
HETATM    7  C   UNL     1     -53.623  48.950  10.702  1.00  0.00     0.103 A 
HETATM    8  C   UNL     1     -53.242  48.452  11.945  1.00  0.00     0.047 A 
HETATM    9  C   UNL     1     -53.196  49.306  13.046  1.00  0.00    -0.049 A 
HETATM   10  C   UNL     1     -53.531  50.652  12.900  1.00  0.00     0.010 A 
HETATM   11  C   UNL     1     -53.912  51.144  11.652  1.00  0.00     0.040 A 
HETATM   12  C   UNL     1     -53.959  50.291  10.550  1.00  0.00     0.101 A 
BRANCH   9  13
HETATM   13  C   UNL     1     -52.781  48.773  14.400  1.00  0.00     0.045 C 
HETATM   14  C   UNL     1     -53.858  48.801  15.487  1.00  0.00     0.132 C 
HETATM   15  N   UNL     1     -53.420  47.811  16.429  1.00  0.00    -0.360 N 
HETATM   16  C   UNL     1     -52.534  46.899  15.872  1.00  0.00     0.218 C 
HETATM   17  H   UNL     1     -53.715  47.781  17.368  1.00  0.00     0.162 HD
HETATM   18  O   UNL     1     -52.034  45.926  16.413  1.00  0.00    -0.274 OA
HETATM   19  C   UNL     1     -52.335  47.298  14.430  1.00  0.00     0.113 C 
ENDBRANCH   9  13
BRANCH  12  20
HETATM   20  O   UNL     1     -54.334  50.782   9.336  1.00  0.00    -0.353 OA
HETATM   21  C   UNL     1     -53.927  52.112   9.023  1.00  0.00     0.210 C 
ENDBRANCH  12  20
ENDBRANCH   1   7
TORSDOF 4
ENDMDL
MODEL 3
REMARK VINA RESULT:     -21.2      1.157      1.527
REMARK  4 active torsions:
REMARK  status: ('A' for Active; 'I' for Inactive)
REMARK    1  A    between atoms: O_1  and  C_5 
REMARK    2  A    between atoms: O_1  and  C_14 
REMARK    3  A    between atoms: O_2  and  C_18 
REMARK    4  A    between atoms: C_10  and  C_13 
ROOT
HETATM    1  O   UNL     1     -53.373  48.202   9.858  1.00  0.00    -0.343 OA
ENDROOT
BRANCH   1   2
HETATM    2  C   UNL     1     -54.620  47.804   9.305  1.00  0.00     0.129 C 
HETATM    3  C   UNL     1     -54.689  46.285   9.256  1.00  0.00     0.032 C 
HETATM    4  C   UNL     1     -53.880  45.904   8.017  1.00  0.00     0.002 C 
HETATM    5  C   UNL     1     -53.861  47.143   7.121  1.00  0.00     0.002 C 
HETATM    6  C   UNL     1     -54.699  48.198   7.838  1.00  0.00     0.032 C 
ENDBRANCH   1   2
BRANCH   1   7
HETATM    7  C   UNL     1     -53.416  48.923  11.023  1.00  0.00     0.103 A 
HETATM    8  C   UNL     1     -53.158  48.277  12.228  1.00  0.00     0.047 A 
HETATM    9  C   UNL     1     -53.200  48.999  13.421  1.00  0.00    -0.049 A 
HETATM   10  C   UNL     1     -53.502  50.361  13.403  1.00  0.00     0.010 A 
HETATM   11  C   UNL     1     -53.761  51.001  12.192  1.00  0.00     0.040 A 
HETATM   12  C   UNL     1     -53.718  50.280  10.998  1.00  0.00     0.101 A 
BRANCH   9  13
HETATM   13  C   UNL     1     -52.918  48.304  14.736  1.00  0.00     0.045 C 
HETATM   14  C   UNL     1     -52.544  46.825  14.642  1.00  0.00     0.132 C 
HETATM   15  N   UNL     1     -51.842  46.571  15.868  1.00  0.00    -0.360 N 
HETATM   16  C   UNL     1     -51.347  47.729  16.450  1.00  0.00     0.218 C 
HETATM   17  H   UNL     1     -51.723  45.672  16.254  1.00  0.00     0.162 HD
HETATM   18  O   UNL     1     -50.674  47.821  17.464  1.00  0.00    -0.274 OA
HETATM   19  C   UNL     1     -51.750  48.880  15.560  1.00  0.00     0.113 C 
ENDBRANCH   9  13
BRANCH  12  20
HETATM   20  O   UNL     1     -53.974  50.916   9.821  1.00  0.00    -0.353 OA
HETATM   21  C   UNL     1     -53.920  52.341   9.829  1.00  0.00     0.210 C 
ENDBRANCH  12  20
ENDBRANCH   1   7
TORSDOF 4
ENDMDL
MODEL 4
REMARK VINA RESULT:     -21.2      1.503      1.942
REMARK  4 active torsions:
REMARK  status: ('A' for Active; 'I' for Inactive)
REMARK    1  A    between atoms: O_1  and  C_5 
REMARK    2  A    between atoms: O_1  and  C_14 
REMARK    3  A    between atoms: O_2  and  C_18 
REMARK    4  A    between atoms: C_10  and  C_13 
ROOT
HETATM    1  O   UNL     1     -53.481  48.196   9.806  1.00  0.00    -0.343 OA
ENDROOT
BRANCH   1   2
HETATM    2  C   UNL     1     -54.587  48.285   8.916  1.00  0.00     0.129 C 
HETATM    3  C   UNL     1     -55.562  47.153   9.207  1.00  0.00     0.032 C 
HETATM    4  C   UNL     1     -54.950  45.934   8.519  1.00  0.00     0.002 C 
HETATM    5  C   UNL     1     -54.016  46.476   7.438  1.00  0.00     0.002 C 
HETATM    6  C   UNL     1     -54.143  47.997   7.490  1.00  0.00     0.032 C 
ENDBRANCH   1   2
BRANCH   1   7
HETATM    7  C   UNL     1     -53.507  49.014  10.905  1.00  0.00     0.103 A 
HETATM    8  C   UNL     1     -53.158  48.491  12.146  1.00  0.00     0.047 A 
HETATM    9  C   UNL     1     -53.181  49.313  13.273  1.00  0.00    -0.049 A 
HETATM   10  C   UNL     1     -53.555  50.652  13.153  1.00  0.00     0.010 A 
HETATM   11  C   UNL     1     -53.905  51.169  11.907  1.00  0.00     0.040 A 
HETATM   12  C   UNL     1     -53.882  50.348  10.779  1.00  0.00     0.101 A 
BRANCH   9  13
HETATM   13  C   UNL     1     -52.801  48.752  14.627  1.00  0.00     0.045 C 
HETATM   14  C   UNL     1     -53.933  48.656  15.651  1.00  0.00     0.132 C 
HETATM   15  N   UNL     1     -53.473  47.660  16.576  1.00  0.00    -0.360 N 
HETATM   16  C   UNL     1     -52.493  46.839  16.035  1.00  0.00     0.218 C 
HETATM   17  H   UNL     1     -53.815  47.568  17.495  1.00  0.00     0.162 HD
HETATM   18  O   UNL     1     -51.951  45.882  16.563  1.00  0.00    -0.274 OA
HETATM   19  C   UNL     1     -52.248  47.314  14.623  1.00  0.00     0.113 C 
ENDBRANCH   9  13
BRANCH  12  20
HETATM   20  O   UNL     1     -54.226  50.864   9.566  1.00  0.00    -0.353 OA
HETATM   21  C   UNL     1     -53.922  52.237   9.337  1.00  0.00     0.210 C 
ENDBRANCH  12  20
ENDBRANCH   1   7
TORSDOF 4
ENDMDL
MODEL 5
REMARK VINA RESULT:     -20.2      2.940      4.312
REMARK  4 active torsions:
REMARK  status: ('A' for Active; 'I' for Inactive)
REMARK    1  A    between atoms: O_1  and  C_5 
REMARK    2  A    between atoms: O_1  and  C_14 
REMARK    3  A    between atoms: O_2  and  C_18 
REMARK    4  A    between atoms: C_10  and  C_13 
ROOT
HETATM    1  O   UNL     1     -53.101  44.905   9.659  1.00  0.00    -0.343 OA
ENDROOT
BRANCH   1   2
HETATM    2  C   UNL     1     -51.942  44.800   8.841  1.00  0.00     0.129 C 
HETATM    3  C   UNL     1     -52.233  43.871   7.671  1.00  0.00     0.032 C 
HETATM    4  C   UNL     1     -52.098  42.465   8.255  1.00  0.00     0.002 C 
HETATM    5  C   UNL     1     -51.225  42.602   9.502  1.00  0.00     0.002 C 
HETATM    6  C   UNL     1     -50.833  44.075   9.587  1.00  0.00     0.032 C 
ENDBRANCH   1   2
BRANCH   1   7
HETATM    7  C   UNL     1     -53.698  46.137   9.726  1.00  0.00     0.103 A 
HETATM    8  C   UNL     1     -53.195  47.085  10.613  1.00  0.00     0.047 A 
HETATM    9  C   UNL     1     -53.795  48.342  10.692  1.00  0.00    -0.049 A 
HETATM   10  C   UNL     1     -54.893  48.644   9.887  1.00  0.00     0.010 A 
HETATM   11  C   UNL     1     -55.391  47.690   9.001  1.00  0.00     0.040 A 
HETATM   12  C   UNL     1     -54.793  46.432   8.921  1.00  0.00     0.101 A 
BRANCH   9  13
HETATM   13  C   UNL     1     -53.253  49.379  11.653  1.00  0.00     0.045 C 
HETATM   14  C   UNL     1     -53.908  50.759  11.583  1.00  0.00     0.132 C 
HETATM   15  N   UNL     1     -53.622  51.338  12.865  1.00  0.00    -0.360 N 
HETATM   16  C   UNL     1     -53.316  50.385  13.826  1.00  0.00     0.218 C 
HETATM   17  H   UNL     1     -53.643  52.306  13.044  1.00  0.00     0.162 HD
HETATM   18  O   UNL     1     -53.078  50.572  15.008  1.00  0.00    -0.274 OA
HETATM   19  C   UNL     1     -53.384  49.037  13.149  1.00  0.00     0.113 C 
ENDBRANCH   9  13
BRANCH  12  20
HETATM   20  O   UNL     1     -55.289  45.507   8.053  1.00  0.00    -0.353 OA
HETATM   21  C   UNL     1     -56.040  44.432   8.612  1.00  0.00     0.210 C 
ENDBRANCH  12  20
ENDBRANCH   1   7
TORSDOF 4
ENDMDL
MODEL 6
REMARK VINA RESULT:     -19.9      2.625      5.865
REMARK  4 active torsions:
REMARK  status: ('A' for Active; 'I' for Inactive)
REMARK    1  A    between atoms: O_1  and  C_5 
REMARK    2  A    between atoms: O_1  and  C_14 
REMARK    3  A    between atoms: O_2  and  C_18 
REMARK    4  A    between atoms: C_10  and  C_13 
ROOT
HETATM    1  O   UNL     1     -52.935  49.648  13.759  1.00  0.00    -0.343 OA
ENDROOT
BRANCH   1   2
HETATM    2  C   UNL     1     -53.260  48.463  14.473  1.00  0.00     0.129 C 
HETATM    3  C   UNL     1     -52.904  48.645  15.942  1.00  0.00     0.032 C 
HETATM    4  C   UNL     1     -51.395  48.412  16.002  1.00  0.00     0.002 C 
HETATM    5  C   UNL     1     -51.040  47.587  14.765  1.00  0.00     0.002 C 
HETATM    6  C   UNL     1     -52.357  47.319  14.040  1.00  0.00     0.032 C 
ENDBRANCH   1   2
BRANCH   1   7
HETATM    7  C   UNL     1     -53.346  49.714  12.453  1.00  0.00     0.103 A 
HETATM    8  C   UNL     1     -53.421  48.542  11.707  1.00  0.00     0.047 A 
HETATM    9  C   UNL     1     -53.837  48.595  10.377  1.00  0.00    -0.049 A 
HETATM   10  C   UNL     1     -54.175  49.820   9.800  1.00  0.00     0.010 A 
HETATM   11  C   UNL     1     -54.097  50.990  10.553  1.00  0.00     0.040 A 
HETATM   12  C   UNL     1     -53.681  50.938  11.884  1.00  0.00     0.101 A 
BRANCH   9  13
HETATM   13  C   UNL     1     -53.922  47.325   9.559  1.00  0.00     0.045 C 
HETATM   14  C   UNL     1     -53.498  46.041  10.275  1.00  0.00     0.132 C 
HETATM   15  N   UNL     1     -54.149  45.002   9.528  1.00  0.00    -0.360 N 
HETATM   16  C   UNL     1     -55.229  45.469   8.792  1.00  0.00     0.218 C 
HETATM   17  H   UNL     1     -53.861  44.060   9.538  1.00  0.00     0.162 HD
HETATM   18  O   UNL     1     -55.995  44.816   8.103  1.00  0.00    -0.274 OA
HETATM   19  C   UNL     1     -55.325  46.955   9.041  1.00  0.00     0.113 C 
ENDBRANCH   9  13
BRANCH  12  20
HETATM   20  O   UNL     1     -53.608  52.088  12.610  1.00  0.00    -0.353 OA
HETATM   21  C   UNL     1     -53.676  53.315  11.887  1.00  0.00     0.210 C 
ENDBRANCH  12  20
ENDBRANCH   1   7
TORSDOF 4
ENDMDL
MODEL 7
REMARK VINA RESULT:     -19.7      2.712      6.217
REMARK  4 active torsions:
REMARK  status: ('A' for Active; 'I' for Inactive)
REMARK    1  A    between atoms: O_1  and  C_5 
REMARK    2  A    between atoms: O_1  and  C_14 
REMARK    3  A    between atoms: O_2  and  C_18 
REMARK    4  A    between atoms: C_10  and  C_13 
ROOT
HETATM    1  O   UNL     1     -52.827  47.844  13.935  1.00  0.00    -0.343 OA
ENDROOT
BRANCH   1   2
HETATM    2  C   UNL     1     -51.755  46.997  13.542  1.00  0.00     0.129 C 
HETATM    3  C   UNL     1     -52.181  45.544  13.684  1.00  0.00     0.032 C 
HETATM    4  C   UNL     1     -52.031  45.244  15.175  1.00  0.00     0.002 C 
HETATM    5  C   UNL     1     -51.039  46.272  15.720  1.00  0.00     0.002 C 
HETATM    6  C   UNL     1     -50.600  47.114  14.524  1.00  0.00     0.032 C 
ENDBRANCH   1   2
BRANCH   1   7
HETATM    7  C   UNL     1     -53.202  48.818  13.047  1.00  0.00     0.103 A 
HETATM    8  C   UNL     1     -53.467  48.464  11.727  1.00  0.00     0.047 A 
HETATM    9  C   UNL     1     -53.848  49.446  10.812  1.00  0.00    -0.049 A 
HETATM   10  C   UNL     1     -53.962  50.775  11.221  1.00  0.00     0.010 A 
HETATM   11  C   UNL     1     -53.695  51.122  12.545  1.00  0.00     0.040 A 
HETATM   12  C   UNL     1     -53.313  50.141  13.461  1.00  0.00     0.101 A 
BRANCH   9  13
HETATM   13  C   UNL     1     -54.139  49.069   9.376  1.00  0.00     0.045 C 
HETATM   14  C   UNL     1     -53.059  49.439   8.358  1.00  0.00     0.132 C 
HETATM   15  N   UNL     1     -53.306  48.549   7.258  1.00  0.00    -0.360 N 
HETATM   16  C   UNL     1     -54.040  47.431   7.630  1.00  0.00     0.218 C 
HETATM   17  H   UNL     1     -52.990  48.713   6.341  1.00  0.00     0.162 HD
HETATM   18  O   UNL     1     -54.360  46.486   6.928  1.00  0.00    -0.274 OA
HETATM   19  C   UNL     1     -54.334  47.565   9.105  1.00  0.00     0.113 C 
ENDBRANCH   9  13
BRANCH  12  20
HETATM   20  O   UNL     1     -53.054  50.492  14.751  1.00  0.00    -0.353 OA
HETATM   21  C   UNL     1     -53.073  49.448  15.722  1.00  0.00     0.210 C 
ENDBRANCH  12  20
ENDBRANCH   1   7
TORSDOF 4
ENDMDL
MODEL 8
REMARK VINA RESULT:     -19.7      2.688      6.453
REMARK  4 active torsions:
REMARK  status: ('A' for Active; 'I' for Inactive)
REMARK    1  A    between atoms: O_1  and  C_5 
REMARK    2  A    between atoms: O_1  and  C_14 
REMARK    3  A    between atoms: O_2  and  C_18 
REMARK    4  A    between atoms: C_10  and  C_13 
ROOT
HETATM    1  O   UNL     1     -53.687  48.639  13.060  1.00  0.00    -0.343 OA
ENDROOT
BRANCH   1   2
HETATM    2  C   UNL     1     -52.479  48.759  13.799  1.00  0.00     0.129 C 
HETATM    3  C   UNL     1     -51.962  47.372  14.151  1.00  0.00     0.032 C 
HETATM    4  C   UNL     1     -52.799  46.946  15.357  1.00  0.00     0.002 C 
HETATM    5  C   UNL     1     -53.330  48.234  15.985  1.00  0.00     0.002 C 
HETATM    6  C   UNL     1     -52.750  49.380  15.160  1.00  0.00     0.032 C 
ENDBRANCH   1   2
BRANCH   1   7
HETATM    7  C   UNL     1     -53.652  49.041  11.750  1.00  0.00     0.103 A 
HETATM    8  C   UNL     1     -53.430  48.093  10.756  1.00  0.00     0.047 A 
HETATM    9  C   UNL     1     -53.391  48.490   9.419  1.00  0.00    -0.049 A 
HETATM   10  C   UNL     1     -53.573  49.832   9.084  1.00  0.00     0.010 A 
HETATM   11  C   UNL     1     -53.794  50.777  10.085  1.00  0.00     0.040 A 
HETATM   12  C   UNL     1     -53.834  50.381  11.423  1.00  0.00     0.101 A 
BRANCH   9  13
HETATM   13  C   UNL     1     -53.151  47.465   8.333  1.00  0.00     0.045 C 
HETATM   14  C   UNL     1     -54.281  46.460   8.102  1.00  0.00     0.132 C 
HETATM   15  N   UNL     1     -54.057  45.996   6.762  1.00  0.00    -0.360 N 
HETATM   16  C   UNL     1     -53.281  46.871   6.015  1.00  0.00     0.218 C 
HETATM   17  H   UNL     1     -54.416  45.149   6.411  1.00  0.00     0.162 HD
HETATM   18  O   UNL     1     -52.967  46.767   4.841  1.00  0.00    -0.274 OA
HETATM   19  C   UNL     1     -52.930  48.030   6.916  1.00  0.00     0.113 C 
ENDBRANCH   9  13
BRANCH  12  20
HETATM   20  O   UNL     1     -54.050  51.313  12.392  1.00  0.00    -0.353 OA
HETATM   21  C   UNL     1     -53.681  52.656  12.093  1.00  0.00     0.210 C 
ENDBRANCH  12  20
ENDBRANCH   1   7
TORSDOF 4
ENDMDL
MODEL 9
REMARK VINA RESULT:     -19.5      2.696      4.657
REMARK  4 active torsions:
REMARK  status: ('A' for Active; 'I' for Inactive)
REMARK    1  A    between atoms: O_1  and  C_5 
REMARK    2  A    between atoms: O_1  and  C_14 
REMARK    3  A    between atoms: O_2  and  C_18 
REMARK    4  A    between atoms: C_10  and  C_13 
ROOT
HETATM    1  O   UNL     1     -52.740  45.195   8.887  1.00  0.00    -0.343 OA
ENDROOT
BRANCH   1   2
HETATM    2  C   UNL     1     -53.599  44.062   8.877  1.00  0.00     0.129 C 
HETATM    3  C   UNL     1     -54.055  43.760  10.297  1.00  0.00     0.032 C 
HETATM    4  C   UNL     1     -52.879  43.015  10.927  1.00  0.00     0.002 C 
HETATM    5  C   UNL     1     -52.070  42.433   9.768  1.00  0.00     0.002 C 
HETATM    6  C   UNL     1     -52.821  42.812   8.493  1.00  0.00     0.032 C 
ENDBRANCH   1   2
BRANCH   1   7
HETATM    7  C   UNL     1     -53.342  46.425   8.833  1.00  0.00     0.103 A 
HETATM    8  C   UNL     1     -53.473  47.168  10.002  1.00  0.00     0.047 A 
HETATM    9  C   UNL     1     -54.084  48.421   9.960  1.00  0.00    -0.049 A 
HETATM   10  C   UNL     1     -54.563  48.924   8.750  1.00  0.00     0.010 A 
HETATM   11  C   UNL     1     -54.430  48.174   7.583  1.00  0.00     0.040 A 
HETATM   12  C   UNL     1     -53.818  46.921   7.623  1.00  0.00     0.101 A 
BRANCH   9  13
HETATM   13  C   UNL     1     -54.228  49.235  11.228  1.00  0.00     0.045 C 
HETATM   14  C   UNL     1     -53.338  48.811  12.397  1.00  0.00     0.132 C 
HETATM   15  N   UNL     1     -53.267  49.988  13.217  1.00  0.00    -0.360 N 
HETATM   16  C   UNL     1     -53.577  51.146  12.517  1.00  0.00     0.218 C 
HETATM   17  H   UNL     1     -53.025  49.975  14.171  1.00  0.00     0.162 HD
HETATM   18  O   UNL     1     -53.556  52.293  12.934  1.00  0.00    -0.274 OA
HETATM   19  C   UNL     1     -53.900  50.735  11.101  1.00  0.00     0.113 C 
ENDBRANCH   9  13
BRANCH  12  20
HETATM   20  O   UNL     1     -53.694  46.197   6.476  1.00  0.00    -0.353 OA
HETATM   21  C   UNL     1     -52.951  46.790   5.414  1.00  0.00     0.210 C 
ENDBRANCH  12  20
ENDBRANCH   1   7
TORSDOF 4
ENDMDL
