MODEL 1
REMARK VINA RESULT:     -21.3      0.000      0.000
REMARK  4 active torsions:
REMARK  status: ('A' for Active; 'I' for Inactive)
REMARK    1  A    between atoms: O_1  and  C_5 
REMARK    2  A    between atoms: O_1  and  C_14 
REMARK    3  A    between atoms: O_2  and  C_18 
REMARK    4  A    between atoms: C_10  and  C_13 
ROOT
HETATM    1  O   UNL     1     -53.565  48.340   9.133  1.00  0.00    -0.343 OA
ENDROOT
BRANCH   1   2
HETATM    2  C   UNL     1     -52.314  47.871   8.645  1.00  0.00     0.129 C 
HETATM    3  C   UNL     1     -52.051  48.472   7.272  1.00  0.00     0.032 C 
HETATM    4  C   UNL     1     -52.882  47.619   6.314  1.00  0.00     0.002 C 
HETATM    5  C   UNL     1     -53.121  46.287   7.025  1.00  0.00     0.002 C 
HETATM    6  C   UNL     1     -52.383  46.379   8.359  1.00  0.00     0.032 C 
ENDBRANCH   1   2
BRANCH   1   7
HETATM    7  C   UNL     1     -53.558  48.953  10.358  1.00  0.00     0.103 A 
HETATM    8  C   UNL     1     -53.210  48.212  11.484  1.00  0.00     0.047 A 
HETATM    9  C   UNL     1     -53.201  48.824  12.737  1.00  0.00    -0.049 A 
HETATM   10  C   UNL     1     -53.540  50.171  12.859  1.00  0.00     0.010 A 
HETATM   11  C   UNL     1     -53.888  50.907  11.728  1.00  0.00     0.040 A 
HETATM   12  C   UNL     1     -53.897  50.297  10.473  1.00  0.00     0.101 A 
BRANCH   9  13
HETATM   13  C   UNL     1     -52.822  48.025  13.966  1.00  0.00     0.045 C 
HETATM   14  C   UNL     1     -51.805  46.904  13.746  1.00  0.00     0.132 C 
HETATM   15  N   UNL     1     -51.245  46.689  15.050  1.00  0.00    -0.360 N 
HETATM   16  C   UNL     1     -51.422  47.777  15.894  1.00  0.00     0.218 C 
HETATM   17  H   UNL     1     -50.786  45.860  15.318  1.00  0.00     0.162 HD
HETATM   18  O   UNL     1     -51.016  47.902  17.038  1.00  0.00    -0.274 OA
HETATM   19  C   UNL     1     -52.175  48.826  15.112  1.00  0.00     0.113 C 
ENDBRANCH   9  13
BRANCH  12  20
HETATM   20  O   UNL     1     -54.240  51.025   9.374  1.00  0.00    -0.353 OA
HETATM   21  C   UNL     1     -53.923  52.415   9.395  1.00  0.00     0.210 C 
ENDBRANCH  12  20
ENDBRANCH   1   7
TORSDOF 4
ENDMDL
MODEL 2
REMARK VINA RESULT:     -21.2      1.037      1.252
REMARK  4 active torsions:
REMARK  status: ('A' for Active; 'I' for Inactive)
REMARK    1  A    between atoms: O_1  and  C_5 
REMARK    2  A    between atoms: O_1  and  C_14 
REMARK    3  A    between atoms: O_2  and  C_18 
REMARK    4  A    between atoms: C_10  and  C_13 
ROOT
HETATM    1  O   UNL     1     -53.662  48.139   9.586  1.00  0.00    -0.343 OA
ENDROOT
BRANCH   1   2
HETATM    2  C   UNL     1     -52.415  47.769   9.012  1.00  0.00     0.129 C 
HETATM    3  C   UNL     1     -52.230  48.503   7.692  1.00  0.00     0.032 C 
HETATM    4  C   UNL     1     -53.065  47.707   6.690  1.00  0.00     0.002 C 
HETATM    5  C   UNL     1     -53.224  46.307   7.283  1.00  0.00     0.002 C 
HETATM    6  C   UNL     1     -52.438  46.308   8.592  1.00  0.00     0.032 C 
ENDBRANCH   1   2
BRANCH   1   7
HETATM    7  C   UNL     1     -53.618  48.970  10.675  1.00  0.00     0.103 A 
HETATM    8  C   UNL     1     -53.226  48.452  11.905  1.00  0.00     0.047 A 
HETATM    9  C   UNL     1     -53.177  49.287  13.022  1.00  0.00    -0.049 A 
HETATM   10  C   UNL     1     -53.523  50.634  12.902  1.00  0.00     0.010 A 
HETATM   11  C   UNL     1     -53.917  51.145  11.666  1.00  0.00     0.040 A 
HETATM   12  C   UNL     1     -53.965  50.311  10.549  1.00  0.00     0.101 A 
BRANCH   9  13
HETATM   13  C   UNL     1     -52.750  48.732  14.363  1.00  0.00     0.045 C 
HETATM   14  C   UNL     1     -53.812  48.756  15.464  1.00  0.00     0.132 C 
HETATM   15  N   UNL     1     -53.370  47.749  16.387  1.00  0.00    -0.360 N 
HETATM   16  C   UNL     1     -52.499  46.838  15.807  1.00  0.00     0.218 C 
HETATM   17  H   UNL     1     -53.653  47.710  17.329  1.00  0.00     0.162 HD
HETATM   18  O   UNL     1     -52.000  45.853  16.328  1.00  0.00    -0.274 OA
HETATM   19  C   UNL     1     -52.315  47.254  14.368  1.00  0.00     0.113 C 
ENDBRANCH   9  13
BRANCH  12  20
HETATM   20  O   UNL     1     -54.351  50.821   9.347  1.00  0.00    -0.353 OA
HETATM   21  C   UNL     1     -53.954  52.159   9.053  1.00  0.00     0.210 C 
ENDBRANCH  12  20
ENDBRANCH   1   7
TORSDOF 4
ENDMDL
MODEL 3
REMARK VINA RESULT:     -20.5      1.499      1.849
REMARK  4 active torsions:
REMARK  status: ('A' for Active; 'I' for Inactive)
REMARK    1  A    between atoms: O_1  and  C_5 
REMARK    2  A    between atoms: O_1  and  C_14 
REMARK    3  A    between atoms: O_2  and  C_18 
REMARK    4  A    between atoms: C_10  and  C_13 
ROOT
HETATM    1  O   UNL     1     -53.257  47.737  10.536  1.00  0.00    -0.343 OA
ENDROOT
BRANCH   1   2
HETATM    2  C   UNL     1     -52.341  46.669  10.739  1.00  0.00     0.129 C 
HETATM    3  C   UNL     1     -51.362  46.616   9.575  1.00  0.00     0.032 C 
HETATM    4  C   UNL     1     -52.130  45.907   8.460  1.00  0.00     0.002 C 
HETATM    5  C   UNL     1     -53.237  45.107   9.146  1.00  0.00     0.002 C 
HETATM    6  C   UNL     1     -53.058  45.331  10.645  1.00  0.00     0.032 C 
ENDBRANCH   1   2
BRANCH   1   7
HETATM    7  C   UNL     1     -53.324  48.688  11.521  1.00  0.00     0.103 A 
HETATM    8  C   UNL     1     -52.992  48.335  12.826  1.00  0.00     0.047 A 
HETATM    9  C   UNL     1     -53.058  49.293  13.837  1.00  0.00    -0.049 A 
HETATM   10  C   UNL     1     -53.455  50.597  13.540  1.00  0.00     0.010 A 
HETATM   11  C   UNL     1     -53.787  50.943  12.231  1.00  0.00     0.040 A 
HETATM   12  C   UNL     1     -53.722  49.986  11.218  1.00  0.00     0.101 A 
BRANCH   9  13
HETATM   13  C   UNL     1     -52.697  48.918  15.259  1.00  0.00     0.045 C 
HETATM   14  C   UNL     1     -53.679  47.989  15.973  1.00  0.00     0.132 C 
HETATM   15  N   UNL     1     -52.890  47.391  17.013  1.00  0.00    -0.360 N 
HETATM   16  C   UNL     1     -51.528  47.457  16.755  1.00  0.00     0.218 C 
HETATM   17  H   UNL     1     -53.273  46.978  17.820  1.00  0.00     0.162 HD
HETATM   18  O   UNL     1     -50.622  46.995  17.429  1.00  0.00    -0.274 OA
HETATM   19  C   UNL     1     -51.361  48.170  15.434  1.00  0.00     0.113 C 
ENDBRANCH   9  13
BRANCH  12  20
HETATM   20  O   UNL     1     -54.049  50.335   9.943  1.00  0.00    -0.353 OA
HETATM   21  C   UNL     1     -53.981  51.720   9.613  1.00  0.00     0.210 C 
ENDBRANCH  12  20
ENDBRANCH   1   7
TORSDOF 4
ENDMDL
MODEL 4
REMARK VINA RESULT:     -20.4      2.914      4.256
REMARK  4 active torsions:
REMARK  status: ('A' for Active; 'I' for Inactive)
REMARK    1  A    between atoms: O_1  and  C_5 
REMARK    2  A    between atoms: O_1  and  C_14 
REMARK    3  A    between atoms: O_2  and  C_18 
REMARK    4  A    between atoms: C_10  and  C_13 
ROOT
HETATM    1  O   UNL     1     -53.055  44.922   9.546  1.00  0.00    -0.343 OA
ENDROOT
BRANCH   1   2
HETATM    2  C   UNL     1     -51.842  44.908   8.803  1.00  0.00     0.129 C 
HETATM    3  C   UNL     1     -52.102  44.321   7.423  1.00  0.00     0.032 C 
HETATM    4  C   UNL     1     -52.124  42.809   7.648  1.00  0.00     0.002 C 
HETATM    5  C   UNL     1     -51.352  42.558   8.943  1.00  0.00     0.002 C 
HETATM    6  C   UNL     1     -50.858  43.924   9.415  1.00  0.00     0.032 C 
ENDBRANCH   1   2
BRANCH   1   7
HETATM    7  C   UNL     1     -53.692  46.130   9.663  1.00  0.00     0.103 A 
HETATM    8  C   UNL     1     -53.181  47.083  10.538  1.00  0.00     0.047 A 
HETATM    9  C   UNL     1     -53.821  48.316  10.667  1.00  0.00    -0.049 A 
HETATM   10  C   UNL     1     -54.969  48.588   9.922  1.00  0.00     0.010 A 
HETATM   11  C   UNL     1     -55.476  47.628   9.048  1.00  0.00     0.040 A 
HETATM   12  C   UNL     1     -54.836  46.395   8.917  1.00  0.00     0.101 A 
BRANCH   9  13
HETATM   13  C   UNL     1     -53.271  49.358  11.616  1.00  0.00     0.045 C 
HETATM   14  C   UNL     1     -53.966  50.721  11.586  1.00  0.00     0.132 C 
HETATM   15  N   UNL     1     -53.646  51.296  12.862  1.00  0.00    -0.360 N 
HETATM   16  C   UNL     1     -53.275  50.342  13.800  1.00  0.00     0.218 C 
HETATM   17  H   UNL     1     -53.685  52.261  13.052  1.00  0.00     0.162 HD
HETATM   18  O   UNL     1     -52.996  50.525  14.974  1.00  0.00    -0.274 OA
HETATM   19  C   UNL     1     -53.332  48.999  13.113  1.00  0.00     0.113 C 
ENDBRANCH   9  13
BRANCH  12  20
HETATM   20  O   UNL     1     -55.341  45.464   8.060  1.00  0.00    -0.353 OA
HETATM   21  C   UNL     1     -56.236  44.498   8.607  1.00  0.00     0.210 C 
ENDBRANCH  12  20
ENDBRANCH   1   7
TORSDOF 4
ENDMDL
MODEL 5
REMARK VINA RESULT:     -19.9      2.622      5.874
REMARK  4 active torsions:
REMARK  status: ('A' for Active; 'I' for Inactive)
REMARK    1  A    between atoms: O_1  and  C_5 
REMARK    2  A    between atoms: O_1  and  C_14 
REMARK    3  A    between atoms: O_2  and  C_18 
REMARK    4  A    between atoms: C_10  and  C_13 
ROOT
HETATM    1  O   UNL     1     -52.974  49.613  13.759  1.00  0.00    -0.343 OA
ENDROOT
BRANCH   1   2
HETATM    2  C   UNL     1     -53.266  48.402  14.444  1.00  0.00     0.129 C 
HETATM    3  C   UNL     1     -52.984  48.581  15.929  1.00  0.00     0.032 C 
HETATM    4  C   UNL     1     -51.469  48.426  16.052  1.00  0.00     0.002 C 
HETATM    5  C   UNL     1     -51.018  47.639  14.822  1.00  0.00     0.002 C 
HETATM    6  C   UNL     1     -52.286  47.313  14.038  1.00  0.00     0.032 C 
ENDBRANCH   1   2
BRANCH   1   7
HETATM    7  C   UNL     1     -53.367  49.691  12.449  1.00  0.00     0.103 A 
HETATM    8  C   UNL     1     -53.442  48.525  11.694  1.00  0.00     0.047 A 
HETATM    9  C   UNL     1     -53.841  48.591  10.359  1.00  0.00    -0.049 A 
HETATM   10  C   UNL     1     -54.160  49.822   9.785  1.00  0.00     0.010 A 
HETATM   11  C   UNL     1     -54.081  50.987  10.547  1.00  0.00     0.040 A 
HETATM   12  C   UNL     1     -53.683  50.922  11.883  1.00  0.00     0.101 A 
BRANCH   9  13
HETATM   13  C   UNL     1     -53.926  47.326   9.531  1.00  0.00     0.045 C 
HETATM   14  C   UNL     1     -53.462  46.044  10.223  1.00  0.00     0.132 C 
HETATM   15  N   UNL     1     -54.115  45.001   9.485  1.00  0.00    -0.360 N 
HETATM   16  C   UNL     1     -55.222  45.456   8.782  1.00  0.00     0.218 C 
HETATM   17  H   UNL     1     -53.812  44.064   9.477  1.00  0.00     0.162 HD
HETATM   18  O   UNL     1     -55.996  44.796   8.108  1.00  0.00    -0.274 OA
HETATM   19  C   UNL     1     -55.337  46.938   9.048  1.00  0.00     0.113 C 
ENDBRANCH   9  13
BRANCH  12  20
HETATM   20  O   UNL     1     -53.610  52.067  12.618  1.00  0.00    -0.353 OA
HETATM   21  C   UNL     1     -53.691  53.299  11.906  1.00  0.00     0.210 C 
ENDBRANCH  12  20
ENDBRANCH   1   7
TORSDOF 4
ENDMDL
MODEL 6
REMARK VINA RESULT:     -19.8      2.663      6.368
REMARK  4 active torsions:
REMARK  status: ('A' for Active; 'I' for Inactive)
REMARK    1  A    between atoms: O_1  and  C_5 
REMARK    2  A    between atoms: O_1  and  C_14 
REMARK    3  A    between atoms: O_2  and  C_18 
REMARK    4  A    between atoms: C_10  and  C_13 
ROOT
HETATM    1  O   UNL     1     -53.660  48.827  13.151  1.00  0.00    -0.343 OA
ENDROOT
BRANCH   1   2
HETATM    2  C   UNL     1     -52.401  48.749  13.807  1.00  0.00     0.129 C 
HETATM    3  C   UNL     1     -51.957  47.296  13.879  1.00  0.00     0.032 C 
HETATM    4  C   UNL     1     -52.742  46.713  15.053  1.00  0.00     0.002 C 
HETATM    5  C   UNL     1     -53.143  47.899  15.930  1.00  0.00     0.002 C 
HETATM    6  C   UNL     1     -52.541  49.138  15.270  1.00  0.00     0.032 C 
ENDBRANCH   1   2
BRANCH   1   7
HETATM    7  C   UNL     1     -53.645  49.183  11.828  1.00  0.00     0.103 A 
HETATM    8  C   UNL     1     -53.480  48.194  10.862  1.00  0.00     0.047 A 
HETATM    9  C   UNL     1     -53.462  48.543   9.512  1.00  0.00    -0.049 A 
HETATM   10  C   UNL     1     -53.607  49.878   9.134  1.00  0.00     0.010 A 
HETATM   11  C   UNL     1     -53.771  50.864  10.107  1.00  0.00     0.040 A 
HETATM   12  C   UNL     1     -53.790  50.516  11.458  1.00  0.00     0.101 A 
BRANCH   9  13
HETATM   13  C   UNL     1     -53.285  47.473   8.456  1.00  0.00     0.045 C 
HETATM   14  C   UNL     1     -54.403  46.433   8.367  1.00  0.00     0.132 C 
HETATM   15  N   UNL     1     -54.278  45.911   7.036  1.00  0.00    -0.360 N 
HETATM   16  C   UNL     1     -53.591  46.768   6.188  1.00  0.00     0.218 C 
HETATM   17  H   UNL     1     -54.642  45.040   6.754  1.00  0.00     0.162 HD
HETATM   18  O   UNL     1     -53.373  46.616   4.997  1.00  0.00    -0.274 OA
HETATM   19  C   UNL     1     -53.198  47.976   7.002  1.00  0.00     0.113 C 
ENDBRANCH   9  13
BRANCH  12  20
HETATM   20  O   UNL     1     -53.949  51.487  12.399  1.00  0.00    -0.353 OA
HETATM   21  C   UNL     1     -53.710  52.832  11.989  1.00  0.00     0.210 C 
ENDBRANCH  12  20
ENDBRANCH   1   7
TORSDOF 4
ENDMDL
MODEL 7
REMARK VINA RESULT:     -19.8      2.719      6.190
REMARK  4 active torsions:
REMARK  status: ('A' for Active; 'I' for Inactive)
REMARK    1  A    between atoms: O_1  and  C_5 
REMARK    2  A    between atoms: O_1  and  C_14 
REMARK    3  A    between atoms: O_2  and  C_18 
REMARK    4  A    between atoms: C_10  and  C_13 
ROOT
HETATM    1  O   UNL     1     -52.783  47.812  13.835  1.00  0.00    -0.343 OA
ENDROOT
BRANCH   1   2
HETATM    2  C   UNL     1     -51.777  46.905  13.402  1.00  0.00     0.129 C 
HETATM    3  C   UNL     1     -52.268  45.478  13.593  1.00  0.00     0.032 C 
HETATM    4  C   UNL     1     -52.054  45.194  15.079  1.00  0.00     0.002 C 
HETATM    5  C   UNL     1     -50.984  46.178  15.552  1.00  0.00     0.002 C 
HETATM    6  C   UNL     1     -50.567  46.978  14.320  1.00  0.00     0.032 C 
ENDBRANCH   1   2
BRANCH   1   7
HETATM    7  C   UNL     1     -53.175  48.772  12.940  1.00  0.00     0.103 A 
HETATM    8  C   UNL     1     -53.416  48.408  11.618  1.00  0.00     0.047 A 
HETATM    9  C   UNL     1     -53.815  49.376  10.697  1.00  0.00    -0.049 A 
HETATM   10  C   UNL     1     -53.968  50.703  11.100  1.00  0.00     0.010 A 
HETATM   11  C   UNL     1     -53.723  51.061  12.425  1.00  0.00     0.040 A 
HETATM   12  C   UNL     1     -53.325  50.093  13.348  1.00  0.00     0.101 A 
BRANCH   9  13
HETATM   13  C   UNL     1     -54.081  48.988   9.258  1.00  0.00     0.045 C 
HETATM   14  C   UNL     1     -52.970  49.320   8.261  1.00  0.00     0.132 C 
HETATM   15  N   UNL     1     -53.212  48.421   7.168  1.00  0.00    -0.360 N 
HETATM   16  C   UNL     1     -53.979  47.325   7.537  1.00  0.00     0.218 C 
HETATM   17  H   UNL     1     -52.870  48.566   6.256  1.00  0.00     0.162 HD
HETATM   18  O   UNL     1     -54.304  46.378   6.839  1.00  0.00    -0.274 OA
HETATM   19  C   UNL     1     -54.304  47.485   9.002  1.00  0.00     0.113 C 
ENDBRANCH   9  13
BRANCH  12  20
HETATM   20  O   UNL     1     -53.088  50.455  14.640  1.00  0.00    -0.353 OA
HETATM   21  C   UNL     1     -52.986  49.405  15.598  1.00  0.00     0.210 C 
ENDBRANCH  12  20
ENDBRANCH   1   7
TORSDOF 4
ENDMDL
MODEL 8
REMARK VINA RESULT:     -19.4      2.616      3.954
REMARK  4 active torsions:
REMARK  status: ('A' for Active; 'I' for Inactive)
REMARK    1  A    between atoms: O_1  and  C_5 
REMARK    2  A    between atoms: O_1  and  C_14 
REMARK    3  A    between atoms: O_2  and  C_18 
REMARK    4  A    between atoms: C_10  and  C_13 
ROOT
HETATM    1  O   UNL     1     -53.735  45.241   9.473  1.00  0.00    -0.343 OA
ENDROOT
BRANCH   1   2
HETATM    2  C   UNL     1     -52.474  44.671   9.799  1.00  0.00     0.129 C 
HETATM    3  C   UNL     1     -51.504  44.900   8.649  1.00  0.00     0.032 C 
HETATM    4  C   UNL     1     -51.863  43.822   7.626  1.00  0.00     0.002 C 
HETATM    5  C   UNL     1     -52.580  42.718   8.401  1.00  0.00     0.002 C 
HETATM    6  C   UNL     1     -52.579  43.156   9.864  1.00  0.00     0.032 C 
ENDBRANCH   1   2
BRANCH   1   7
HETATM    7  C   UNL     1     -53.787  46.607   9.371  1.00  0.00     0.103 A 
HETATM    8  C   UNL     1     -53.451  47.382  10.477  1.00  0.00     0.047 A 
HETATM    9  C   UNL     1     -53.501  48.773  10.387  1.00  0.00    -0.049 A 
HETATM   10  C   UNL     1     -53.888  49.381   9.193  1.00  0.00     0.010 A 
HETATM   11  C   UNL     1     -54.225  48.599   8.089  1.00  0.00     0.040 A 
HETATM   12  C   UNL     1     -54.175  47.207   8.178  1.00  0.00     0.101 A 
BRANCH   9  13
HETATM   13  C   UNL     1     -53.134  49.622  11.585  1.00  0.00     0.045 C 
HETATM   14  C   UNL     1     -53.889  50.946  11.720  1.00  0.00     0.132 C 
HETATM   15  N   UNL     1     -53.770  51.267  13.114  1.00  0.00    -0.360 N 
HETATM   16  C   UNL     1     -53.477  50.157  13.894  1.00  0.00     0.218 C 
HETATM   17  H   UNL     1     -53.884  52.174  13.477  1.00  0.00     0.162 HD
HETATM   18  O   UNL     1     -53.364  50.113  15.109  1.00  0.00    -0.274 OA
HETATM   19  C   UNL     1     -53.373  48.974  12.962  1.00  0.00     0.113 C 
ENDBRANCH   9  13
BRANCH  12  20
HETATM   20  O   UNL     1     -54.507  46.453   7.093  1.00  0.00    -0.353 OA
HETATM   21  C   UNL     1     -53.736  46.647   5.910  1.00  0.00     0.210 C 
ENDBRANCH  12  20
ENDBRANCH   1   7
TORSDOF 4
ENDMDL
MODEL 9
REMARK VINA RESULT:     -19.0      2.907      5.833
REMARK  4 active torsions:
REMARK  status: ('A' for Active; 'I' for Inactive)
REMARK    1  A    between atoms: O_1  and  C_5 
REMARK    2  A    between atoms: O_1  and  C_14 
REMARK    3  A    between atoms: O_2  and  C_18 
REMARK    4  A    between atoms: C_10  and  C_13 
ROOT
HETATM    1  O   UNL     1     -51.957  46.243  13.418  1.00  0.00    -0.343 OA
ENDROOT
BRANCH   1   2
HETATM    2  C   UNL     1     -51.723  45.960  12.044  1.00  0.00     0.129 C 
HETATM    3  C   UNL     1     -52.351  44.620  11.691  1.00  0.00     0.032 C 
HETATM    4  C   UNL     1     -51.351  43.582  12.200  1.00  0.00     0.002 C 
HETATM    5  C   UNL     1     -50.004  44.298  12.298  1.00  0.00     0.002 C 
HETATM    6  C   UNL     1     -50.242  45.721  11.798  1.00  0.00     0.032 C 
ENDBRANCH   1   2
BRANCH   1   7
HETATM    7  C   UNL     1     -52.376  47.511  13.723  1.00  0.00     0.103 A 
HETATM    8  C   UNL     1     -52.967  48.287  12.730  1.00  0.00     0.047 A 
HETATM    9  C   UNL     1     -53.397  49.580  13.029  1.00  0.00    -0.049 A 
HETATM   10  C   UNL     1     -53.233  50.091  14.316  1.00  0.00     0.010 A 
HETATM   11  C   UNL     1     -52.640  49.308  15.306  1.00  0.00     0.040 A 
HETATM   12  C   UNL     1     -52.210  48.014  15.009  1.00  0.00     0.101 A 
BRANCH   9  13
HETATM   13  C   UNL     1     -54.041  50.429  11.954  1.00  0.00     0.045 C 
HETATM   14  C   UNL     1     -53.663  51.911  11.959  1.00  0.00     0.132 C 
HETATM   15  N   UNL     1     -53.944  52.341  10.619  1.00  0.00    -0.360 N 
HETATM   16  C   UNL     1     -53.989  51.286   9.718  1.00  0.00     0.218 C 
HETATM   17  H   UNL     1     -54.090  53.281  10.365  1.00  0.00     0.162 HD
HETATM   18  O   UNL     1     -54.159  51.347   8.511  1.00  0.00    -0.274 OA
HETATM   19  C   UNL     1     -53.727  50.022  10.502  1.00  0.00     0.113 C 
ENDBRANCH   9  13
BRANCH  12  20
HETATM   20  O   UNL     1     -51.631  47.260  15.984  1.00  0.00    -0.353 OA
HETATM   21  C   UNL     1     -50.534  47.840  16.687  1.00  0.00     0.210 C 
ENDBRANCH  12  20
ENDBRANCH   1   7
TORSDOF 4
ENDMDL
