MODEL 1
REMARK VINA RESULT:     -21.3      0.000      0.000
REMARK  4 active torsions:
REMARK  status: ('A' for Active; 'I' for Inactive)
REMARK    1  A    between atoms: O_1  and  C_5 
REMARK    2  A    between atoms: O_1  and  C_14 
REMARK    3  A    between atoms: O_2  and  C_18 
REMARK    4  A    between atoms: C_10  and  C_13 
ROOT
HETATM    1  O   UNL     1     -53.559  48.280   9.168  1.00  0.00    -0.343 OA
ENDROOT
BRANCH   1   2
HETATM    2  C   UNL     1     -52.308  47.812   8.680  1.00  0.00     0.129 C 
HETATM    3  C   UNL     1     -52.000  48.485   7.351  1.00  0.00     0.032 C 
HETATM    4  C   UNL     1     -52.827  47.708   6.327  1.00  0.00     0.002 C 
HETATM    5  C   UNL     1     -53.110  46.343   6.954  1.00  0.00     0.002 C 
HETATM    6  C   UNL     1     -52.401  46.341   8.307  1.00  0.00     0.032 C 
ENDBRANCH   1   2
BRANCH   1   7
HETATM    7  C   UNL     1     -53.551  48.903  10.388  1.00  0.00     0.103 A 
HETATM    8  C   UNL     1     -53.199  48.172  11.519  1.00  0.00     0.047 A 
HETATM    9  C   UNL     1     -53.189  48.795  12.768  1.00  0.00    -0.049 A 
HETATM   10  C   UNL     1     -53.532  50.142  12.879  1.00  0.00     0.010 A 
HETATM   11  C   UNL     1     -53.885  50.868  11.742  1.00  0.00     0.040 A 
HETATM   12  C   UNL     1     -53.895  50.246  10.492  1.00  0.00     0.101 A 
BRANCH   9  13
HETATM   13  C   UNL     1     -52.806  48.007  14.002  1.00  0.00     0.045 C 
HETATM   14  C   UNL     1     -51.796  46.879  13.787  1.00  0.00     0.132 C 
HETATM   15  N   UNL     1     -51.228  46.674  15.089  1.00  0.00    -0.360 N 
HETATM   16  C   UNL     1     -51.392  47.773  15.922  1.00  0.00     0.218 C 
HETATM   17  H   UNL     1     -50.772  45.846  15.362  1.00  0.00     0.162 HD
HETATM   18  O   UNL     1     -50.976  47.909  17.061  1.00  0.00    -0.274 OA
HETATM   19  C   UNL     1     -52.144  48.818  15.134  1.00  0.00     0.113 C 
ENDBRANCH   9  13
BRANCH  12  20
HETATM   20  O   UNL     1     -54.242  50.965   9.388  1.00  0.00    -0.353 OA
HETATM   21  C   UNL     1     -53.920  52.354   9.392  1.00  0.00     0.210 C 
ENDBRANCH  12  20
ENDBRANCH   1   7
TORSDOF 4
ENDMDL
MODEL 2
REMARK VINA RESULT:     -21.2      1.058      1.267
REMARK  4 active torsions:
REMARK  status: ('A' for Active; 'I' for Inactive)
REMARK    1  A    between atoms: O_1  and  C_5 
REMARK    2  A    between atoms: O_1  and  C_14 
REMARK    3  A    between atoms: O_2  and  C_18 
REMARK    4  A    between atoms: C_10  and  C_13 
ROOT
HETATM    1  O   UNL     1     -53.673  48.191   9.582  1.00  0.00    -0.343 OA
ENDROOT
BRANCH   1   2
HETATM    2  C   UNL     1     -52.426  47.834   8.999  1.00  0.00     0.129 C 
HETATM    3  C   UNL     1     -52.269  48.551   7.666  1.00  0.00     0.032 C 
HETATM    4  C   UNL     1     -53.101  47.725   6.686  1.00  0.00     0.002 C 
HETATM    5  C   UNL     1     -53.228  46.332   7.302  1.00  0.00     0.002 C 
HETATM    6  C   UNL     1     -52.427  46.367   8.601  1.00  0.00     0.032 C 
ENDBRANCH   1   2
BRANCH   1   7
HETATM    7  C   UNL     1     -53.630  49.028  10.666  1.00  0.00     0.103 A 
HETATM    8  C   UNL     1     -53.251  48.515  11.903  1.00  0.00     0.047 A 
HETATM    9  C   UNL     1     -53.204  49.356  13.014  1.00  0.00    -0.049 A 
HETATM   10  C   UNL     1     -53.539  50.704  12.884  1.00  0.00     0.010 A 
HETATM   11  C   UNL     1     -53.919  51.211  11.642  1.00  0.00     0.040 A 
HETATM   12  C   UNL     1     -53.965  50.371  10.529  1.00  0.00     0.101 A 
BRANCH   9  13
HETATM   13  C   UNL     1     -52.791  48.806  14.362  1.00  0.00     0.045 C 
HETATM   14  C   UNL     1     -53.870  48.818  15.446  1.00  0.00     0.132 C 
HETATM   15  N   UNL     1     -53.431  47.817  16.377  1.00  0.00    -0.360 N 
HETATM   16  C   UNL     1     -52.541  46.915  15.810  1.00  0.00     0.218 C 
HETATM   17  H   UNL     1     -53.728  47.774  17.314  1.00  0.00     0.162 HD
HETATM   18  O   UNL     1     -52.039  45.936  16.339  1.00  0.00    -0.274 OA
HETATM   19  C   UNL     1     -52.340  47.333  14.374  1.00  0.00     0.113 C 
ENDBRANCH   9  13
BRANCH  12  20
HETATM   20  O   UNL     1     -54.339  50.877   9.321  1.00  0.00    -0.353 OA
HETATM   21  C   UNL     1     -53.928  52.209   9.022  1.00  0.00     0.210 C 
ENDBRANCH  12  20
ENDBRANCH   1   7
TORSDOF 4
ENDMDL
MODEL 3
REMARK VINA RESULT:     -21.1      1.541      1.989
REMARK  4 active torsions:
REMARK  status: ('A' for Active; 'I' for Inactive)
REMARK    1  A    between atoms: O_1  and  C_5 
REMARK    2  A    between atoms: O_1  and  C_14 
REMARK    3  A    between atoms: O_2  and  C_18 
REMARK    4  A    between atoms: C_10  and  C_13 
ROOT
HETATM    1  O   UNL     1     -53.597  48.186   9.788  1.00  0.00    -0.343 OA
ENDROOT
BRANCH   1   2
HETATM    2  C   UNL     1     -54.722  48.290   8.925  1.00  0.00     0.129 C 
HETATM    3  C   UNL     1     -55.696  47.161   9.227  1.00  0.00     0.032 C 
HETATM    4  C   UNL     1     -55.108  45.945   8.512  1.00  0.00     0.002 C 
HETATM    5  C   UNL     1     -54.196  46.495   7.415  1.00  0.00     0.002 C 
HETATM    6  C   UNL     1     -54.314  48.015   7.487  1.00  0.00     0.032 C 
ENDBRANCH   1   2
BRANCH   1   7
HETATM    7  C   UNL     1     -53.577  49.017  10.878  1.00  0.00     0.103 A 
HETATM    8  C   UNL     1     -53.218  48.497  12.118  1.00  0.00     0.047 A 
HETATM    9  C   UNL     1     -53.194  49.332  13.236  1.00  0.00    -0.049 A 
HETATM   10  C   UNL     1     -53.531  50.679  13.108  1.00  0.00     0.010 A 
HETATM   11  C   UNL     1     -53.890  51.193  11.863  1.00  0.00     0.040 A 
HETATM   12  C   UNL     1     -53.914  50.359  10.744  1.00  0.00     0.101 A 
BRANCH   9  13
HETATM   13  C   UNL     1     -52.804  48.774  14.588  1.00  0.00     0.045 C 
HETATM   14  C   UNL     1     -53.923  48.700  15.627  1.00  0.00     0.132 C 
HETATM   15  N   UNL     1     -53.464  47.703  16.553  1.00  0.00    -0.360 N 
HETATM   16  C   UNL     1     -52.503  46.866  16.004  1.00  0.00     0.218 C 
HETATM   17  H   UNL     1     -53.795  47.622  17.477  1.00  0.00     0.162 HD
HETATM   18  O   UNL     1     -51.967  45.906  16.532  1.00  0.00    -0.274 OA
HETATM   19  C   UNL     1     -52.270  47.329  14.586  1.00  0.00     0.113 C 
ENDBRANCH   9  13
BRANCH  12  20
HETATM   20  O   UNL     1     -54.267  50.872   9.532  1.00  0.00    -0.353 OA
HETATM   21  C   UNL     1     -53.919  52.231   9.278  1.00  0.00     0.210 C 
ENDBRANCH  12  20
ENDBRANCH   1   7
TORSDOF 4
ENDMDL
MODEL 4
REMARK VINA RESULT:     -20.5      1.537      1.861
REMARK  4 active torsions:
REMARK  status: ('A' for Active; 'I' for Inactive)
REMARK    1  A    between atoms: O_1  and  C_5 
REMARK    2  A    between atoms: O_1  and  C_14 
REMARK    3  A    between atoms: O_2  and  C_18 
REMARK    4  A    between atoms: C_10  and  C_13 
ROOT
HETATM    1  O   UNL     1     -53.288  47.865  10.475  1.00  0.00    -0.343 OA
ENDROOT
BRANCH   1   2
HETATM    2  C   UNL     1     -52.747  46.597  10.822  1.00  0.00     0.129 C 
HETATM    3  C   UNL     1     -51.385  46.432  10.165  1.00  0.00     0.032 C 
HETATM    4  C   UNL     1     -51.701  46.038   8.722  1.00  0.00     0.002 C 
HETATM    5  C   UNL     1     -53.114  45.456   8.738  1.00  0.00     0.002 C 
HETATM    6  C   UNL     1     -53.568  45.481  10.195  1.00  0.00     0.032 C 
ENDBRANCH   1   2
BRANCH   1   7
HETATM    7  C   UNL     1     -53.355  48.801  11.473  1.00  0.00     0.103 A 
HETATM    8  C   UNL     1     -53.025  48.430  12.773  1.00  0.00     0.047 A 
HETATM    9  C   UNL     1     -53.091  49.373  13.799  1.00  0.00    -0.049 A 
HETATM   10  C   UNL     1     -53.486  50.681  13.520  1.00  0.00     0.010 A 
HETATM   11  C   UNL     1     -53.816  51.046  12.215  1.00  0.00     0.040 A 
HETATM   12  C   UNL     1     -53.751  50.104  11.189  1.00  0.00     0.101 A 
BRANCH   9  13
HETATM   13  C   UNL     1     -52.732  48.977  15.215  1.00  0.00     0.045 C 
HETATM   14  C   UNL     1     -53.754  48.102  15.942  1.00  0.00     0.132 C 
HETATM   15  N   UNL     1     -52.985  47.460  16.970  1.00  0.00    -0.360 N 
HETATM   16  C   UNL     1     -51.625  47.453  16.695  1.00  0.00     0.218 C 
HETATM   17  H   UNL     1     -53.379  47.067  17.783  1.00  0.00     0.162 HD
HETATM   18  O   UNL     1     -50.736  46.942  17.356  1.00  0.00    -0.274 OA
HETATM   19  C   UNL     1     -51.437  48.157  15.373  1.00  0.00     0.113 C 
ENDBRANCH   9  13
BRANCH  12  20
HETATM   20  O   UNL     1     -54.076  50.472   9.918  1.00  0.00    -0.353 OA
HETATM   21  C   UNL     1     -53.950  51.854   9.592  1.00  0.00     0.210 C 
ENDBRANCH  12  20
ENDBRANCH   1   7
TORSDOF 4
ENDMDL
MODEL 5
REMARK VINA RESULT:     -20.5      2.911      4.246
REMARK  4 active torsions:
REMARK  status: ('A' for Active; 'I' for Inactive)
REMARK    1  A    between atoms: O_1  and  C_5 
REMARK    2  A    between atoms: O_1  and  C_14 
REMARK    3  A    between atoms: O_2  and  C_18 
REMARK    4  A    between atoms: C_10  and  C_13 
ROOT
HETATM    1  O   UNL     1     -53.038  44.931   9.517  1.00  0.00    -0.343 OA
ENDROOT
BRANCH   1   2
HETATM    2  C   UNL     1     -51.834  44.924   8.761  1.00  0.00     0.129 C 
HETATM    3  C   UNL     1     -52.104  44.331   7.386  1.00  0.00     0.032 C 
HETATM    4  C   UNL     1     -52.111  42.820   7.615  1.00  0.00     0.002 C 
HETATM    5  C   UNL     1     -51.323  42.579   8.902  1.00  0.00     0.002 C 
HETATM    6  C   UNL     1     -50.835  43.950   9.365  1.00  0.00     0.032 C 
ENDBRANCH   1   2
BRANCH   1   7
HETATM    7  C   UNL     1     -53.679  46.136   9.644  1.00  0.00     0.103 A 
HETATM    8  C   UNL     1     -53.169  47.084  10.525  1.00  0.00     0.047 A 
HETATM    9  C   UNL     1     -53.813  48.314  10.665  1.00  0.00    -0.049 A 
HETATM   10  C   UNL     1     -54.964  48.587   9.925  1.00  0.00     0.010 A 
HETATM   11  C   UNL     1     -55.470  47.632   9.045  1.00  0.00     0.040 A 
HETATM   12  C   UNL     1     -54.826  46.402   8.904  1.00  0.00     0.101 A 
BRANCH   9  13
HETATM   13  C   UNL     1     -53.263  49.352  11.620  1.00  0.00     0.045 C 
HETATM   14  C   UNL     1     -53.954  50.716  11.592  1.00  0.00     0.132 C 
HETATM   15  N   UNL     1     -53.638  51.285  12.872  1.00  0.00    -0.360 N 
HETATM   16  C   UNL     1     -53.274  50.328  13.808  1.00  0.00     0.218 C 
HETATM   17  H   UNL     1     -53.675  52.250  13.065  1.00  0.00     0.162 HD
HETATM   18  O   UNL     1     -52.999  50.506  14.983  1.00  0.00    -0.274 OA
HETATM   19  C   UNL     1     -53.332  48.987  13.116  1.00  0.00     0.113 C 
ENDBRANCH   9  13
BRANCH  12  20
HETATM   20  O   UNL     1     -55.330  45.476   8.042  1.00  0.00    -0.353 OA
HETATM   21  C   UNL     1     -56.247  44.524   8.578  1.00  0.00     0.210 C 
ENDBRANCH  12  20
ENDBRANCH   1   7
TORSDOF 4
ENDMDL
MODEL 6
REMARK VINA RESULT:     -20.0      3.061      4.956
REMARK  4 active torsions:
REMARK  status: ('A' for Active; 'I' for Inactive)
REMARK    1  A    between atoms: O_1  and  C_5 
REMARK    2  A    between atoms: O_1  and  C_14 
REMARK    3  A    between atoms: O_2  and  C_18 
REMARK    4  A    between atoms: C_10  and  C_13 
ROOT
HETATM    1  O   UNL     1     -55.979  46.072   8.517  1.00  0.00    -0.343 OA
ENDROOT
BRANCH   1   2
HETATM    2  C   UNL     1     -55.460  44.834   8.049  1.00  0.00     0.129 C 
HETATM    3  C   UNL     1     -56.542  43.768   8.134  1.00  0.00     0.032 C 
HETATM    4  C   UNL     1     -56.551  43.347   9.603  1.00  0.00     0.002 C 
HETATM    5  C   UNL     1     -55.181  43.726  10.165  1.00  0.00     0.002 C 
HETATM    6  C   UNL     1     -54.391  44.315   8.998  1.00  0.00     0.032 C 
ENDBRANCH   1   2
BRANCH   1   7
HETATM    7  C   UNL     1     -55.098  47.118   8.601  1.00  0.00     0.103 A 
HETATM    8  C   UNL     1     -55.206  48.010   9.665  1.00  0.00     0.047 A 
HETATM    9  C   UNL     1     -54.316  49.079   9.761  1.00  0.00    -0.049 A 
HETATM   10  C   UNL     1     -53.326  49.254   8.794  1.00  0.00     0.010 A 
HETATM   11  C   UNL     1     -53.225  48.357   7.731  1.00  0.00     0.040 A 
HETATM   12  C   UNL     1     -54.114  47.286   7.634  1.00  0.00     0.101 A 
BRANCH   9  13
HETATM   13  C   UNL     1     -54.425  50.052  10.916  1.00  0.00     0.045 C 
HETATM   14  C   UNL     1     -53.631  49.689  12.171  1.00  0.00     0.132 C 
HETATM   15  N   UNL     1     -53.471  50.944  12.850  1.00  0.00    -0.360 N 
HETATM   16  C   UNL     1     -53.630  52.033  12.004  1.00  0.00     0.218 C 
HETATM   17  H   UNL     1     -53.269  51.024  13.810  1.00  0.00     0.162 HD
HETATM   18  O   UNL     1     -53.507  53.214  12.284  1.00  0.00    -0.274 OA
HETATM   19  C   UNL     1     -53.937  51.486  10.631  1.00  0.00     0.113 C 
ENDBRANCH   9  13
BRANCH  12  20
HETATM   20  O   UNL     1     -54.006  46.417   6.590  1.00  0.00    -0.353 OA
HETATM   21  C   UNL     1     -53.212  46.833   5.481  1.00  0.00     0.210 C 
ENDBRANCH  12  20
ENDBRANCH   1   7
TORSDOF 4
ENDMDL
MODEL 7
REMARK VINA RESULT:     -19.9      2.660      6.349
REMARK  4 active torsions:
REMARK  status: ('A' for Active; 'I' for Inactive)
REMARK    1  A    between atoms: O_1  and  C_5 
REMARK    2  A    between atoms: O_1  and  C_14 
REMARK    3  A    between atoms: O_2  and  C_18 
REMARK    4  A    between atoms: C_10  and  C_13 
ROOT
HETATM    1  O   UNL     1     -53.651  48.967  13.275  1.00  0.00    -0.343 OA
ENDROOT
BRANCH   1   2
HETATM    2  C   UNL     1     -52.379  48.818  13.892  1.00  0.00     0.129 C 
HETATM    3  C   UNL     1     -51.982  47.349  13.881  1.00  0.00     0.032 C 
HETATM    4  C   UNL     1     -52.754  46.735  15.048  1.00  0.00     0.002 C 
HETATM    5  C   UNL     1     -53.093  47.889  15.991  1.00  0.00     0.002 C 
HETATM    6  C   UNL     1     -52.469  49.139  15.375  1.00  0.00     0.032 C 
ENDBRANCH   1   2
BRANCH   1   7
HETATM    7  C   UNL     1     -53.658  49.304  11.947  1.00  0.00     0.103 A 
HETATM    8  C   UNL     1     -53.501  48.303  10.993  1.00  0.00     0.047 A 
HETATM    9  C   UNL     1     -53.504  48.633   9.638  1.00  0.00    -0.049 A 
HETATM   10  C   UNL     1     -53.662  49.962   9.244  1.00  0.00     0.010 A 
HETATM   11  C   UNL     1     -53.818  50.960  10.204  1.00  0.00     0.040 A 
HETATM   12  C   UNL     1     -53.816  50.631  11.560  1.00  0.00     0.101 A 
BRANCH   9  13
HETATM   13  C   UNL     1     -53.336  47.550   8.595  1.00  0.00     0.045 C 
HETATM   14  C   UNL     1     -54.457  46.512   8.525  1.00  0.00     0.132 C 
HETATM   15  N   UNL     1     -54.341  45.972   7.199  1.00  0.00    -0.360 N 
HETATM   16  C   UNL     1     -53.655  46.816   6.337  1.00  0.00     0.218 C 
HETATM   17  H   UNL     1     -54.708  45.099   6.931  1.00  0.00     0.162 HD
HETATM   18  O   UNL     1     -53.443  46.649   5.147  1.00  0.00    -0.274 OA
HETATM   19  C   UNL     1     -53.254  48.034   7.134  1.00  0.00     0.113 C 
ENDBRANCH   9  13
BRANCH  12  20
HETATM   20  O   UNL     1     -53.968  51.615  12.490  1.00  0.00    -0.353 OA
HETATM   21  C   UNL     1     -53.697  52.950  12.070  1.00  0.00     0.210 C 
ENDBRANCH  12  20
ENDBRANCH   1   7
TORSDOF 4
ENDMDL
MODEL 8
REMARK VINA RESULT:     -19.8      2.619      5.862
REMARK  4 active torsions:
REMARK  status: ('A' for Active; 'I' for Inactive)
REMARK    1  A    between atoms: O_1  and  C_5 
REMARK    2  A    between atoms: O_1  and  C_14 
REMARK    3  A    between atoms: O_2  and  C_18 
REMARK    4  A    between atoms: C_10  and  C_13 
ROOT
HETATM    1  O   UNL     1     -52.946  49.722  13.773  1.00  0.00    -0.343 OA
ENDROOT
BRANCH   1   2
HETATM    2  C   UNL     1     -53.317  48.563  14.508  1.00  0.00     0.129 C 
HETATM    3  C   UNL     1     -52.906  48.734  15.963  1.00  0.00     0.032 C 
HETATM    4  C   UNL     1     -51.411  48.415  15.979  1.00  0.00     0.002 C 
HETATM    5  C   UNL     1     -51.143  47.562  14.740  1.00  0.00     0.002 C 
HETATM    6  C   UNL     1     -52.495  47.365  14.059  1.00  0.00     0.032 C 
ENDBRANCH   1   2
BRANCH   1   7
HETATM    7  C   UNL     1     -53.348  49.776  12.464  1.00  0.00     0.103 A 
HETATM    8  C   UNL     1     -53.408  48.599  11.725  1.00  0.00     0.047 A 
HETATM    9  C   UNL     1     -53.814  48.642  10.391  1.00  0.00    -0.049 A 
HETATM   10  C   UNL     1     -54.155  49.860   9.803  1.00  0.00     0.010 A 
HETATM   11  C   UNL     1     -54.092  51.036  10.550  1.00  0.00     0.040 A 
HETATM   12  C   UNL     1     -53.686  50.994  11.884  1.00  0.00     0.101 A 
BRANCH   9  13
HETATM   13  C   UNL     1     -53.884  47.365   9.580  1.00  0.00     0.045 C 
HETATM   14  C   UNL     1     -53.464  46.088  10.310  1.00  0.00     0.132 C 
HETATM   15  N   UNL     1     -54.101  45.042   9.562  1.00  0.00    -0.360 N 
HETATM   16  C   UNL     1     -55.174  45.500   8.809  1.00  0.00     0.218 C 
HETATM   17  H   UNL     1     -53.810  44.101   9.581  1.00  0.00     0.162 HD
HETATM   18  O   UNL     1     -55.929  44.839   8.115  1.00  0.00    -0.274 OA
HETATM   19  C   UNL     1     -55.279  46.987   9.047  1.00  0.00     0.113 C 
ENDBRANCH   9  13
BRANCH  12  20
HETATM   20  O   UNL     1     -53.627  52.150  12.604  1.00  0.00    -0.353 OA
HETATM   21  C   UNL     1     -53.682  53.372  11.871  1.00  0.00     0.210 C 
ENDBRANCH  12  20
ENDBRANCH   1   7
TORSDOF 4
ENDMDL
MODEL 9
REMARK VINA RESULT:     -19.7      2.709      6.230
REMARK  4 active torsions:
REMARK  status: ('A' for Active; 'I' for Inactive)
REMARK    1  A    between atoms: O_1  and  C_5 
REMARK    2  A    between atoms: O_1  and  C_14 
REMARK    3  A    between atoms: O_2  and  C_18 
REMARK    4  A    between atoms: C_10  and  C_13 
ROOT
HETATM    1  O   UNL     1     -52.740  47.809  14.007  1.00  0.00    -0.343 OA
ENDROOT
BRANCH   1   2
HETATM    2  C   UNL     1     -51.739  46.918  13.533  1.00  0.00     0.129 C 
HETATM    3  C   UNL     1     -52.181  45.483  13.781  1.00  0.00     0.032 C 
HETATM    4  C   UNL     1     -51.873  45.237  15.257  1.00  0.00     0.002 C 
HETATM    5  C   UNL     1     -50.803  46.256  15.647  1.00  0.00     0.002 C 
HETATM    6  C   UNL     1     -50.479  47.039  14.377  1.00  0.00     0.032 C 
ENDBRANCH   1   2
BRANCH   1   7
HETATM    7  C   UNL     1     -53.147  48.794  13.146  1.00  0.00     0.103 A 
HETATM    8  C   UNL     1     -53.433  48.463  11.825  1.00  0.00     0.047 A 
HETATM    9  C   UNL     1     -53.847  49.457  10.939  1.00  0.00    -0.049 A 
HETATM   10  C   UNL     1     -53.971  50.776  11.376  1.00  0.00     0.010 A 
HETATM   11  C   UNL     1     -53.681  51.101  12.701  1.00  0.00     0.040 A 
HETATM   12  C   UNL     1     -53.268  50.108  13.589  1.00  0.00     0.101 A 
BRANCH   9  13
HETATM   13  C   UNL     1     -54.162  49.105   9.501  1.00  0.00     0.045 C 
HETATM   14  C   UNL     1     -53.097  49.488   8.472  1.00  0.00     0.132 C 
HETATM   15  N   UNL     1     -53.365  48.617   7.362  1.00  0.00    -0.360 N 
HETATM   16  C   UNL     1     -54.097  47.495   7.728  1.00  0.00     0.218 C 
HETATM   17  H   UNL     1     -53.063  48.795   6.442  1.00  0.00     0.162 HD
HETATM   18  O   UNL     1     -54.431  46.563   7.015  1.00  0.00    -0.274 OA
HETATM   19  C   UNL     1     -54.366  47.606   9.209  1.00  0.00     0.113 C 
ENDBRANCH   9  13
BRANCH  12  20
HETATM   20  O   UNL     1     -52.987  50.437  14.880  1.00  0.00    -0.353 OA
HETATM   21  C   UNL     1     -53.008  49.380  15.837  1.00  0.00     0.210 C 
ENDBRANCH  12  20
ENDBRANCH   1   7
TORSDOF 4
ENDMDL
