MODEL 1
REMARK VINA RESULT:      -3.8      0.000      0.000
REMARK  2 active torsions:
REMARK  status: ('A' for Active; 'I' for Inactive)
REMARK    1  A    between atoms: C_3  and  C_4 
REMARK    2  A    between atoms: C_4  and  C_6 
ROOT
ATOM      1  O   UNL A   1      -6.660  -4.837  47.057  1.00  0.00    -0.648 OA
ATOM      2  O   UNL A   1      -4.883  -3.433  47.353  1.00  0.00    -0.648 OA
ATOM      3  C   UNL A   1      -6.093  -3.711  47.111  1.00  0.00     0.172 C 
ENDROOT
BRANCH   3   4
ATOM      4  C   UNL A   1      -6.975  -2.490  46.829  1.00  0.00     0.113 C 
BRANCH   4   5
ATOM      5  C   UNL A   1      -8.383  -2.771  46.315  1.00  0.00     0.006 C 
ATOM      6  C   UNL A   1      -9.259  -1.527  46.307  1.00  0.00     0.005 C 
ENDBRANCH   4   5
ENDBRANCH   3   4
TORSDOF 2
ENDMDL
MODEL 2
REMARK VINA RESULT:      -3.6      2.778      2.980
REMARK  2 active torsions:
REMARK  status: ('A' for Active; 'I' for Inactive)
REMARK    1  A    between atoms: C_3  and  C_4 
REMARK    2  A    between atoms: C_4  and  C_6 
ROOT
ATOM      1  O   UNL A   1      -8.452  -5.049  44.795  1.00  0.00    -0.648 OA
ATOM      2  O   UNL A   1      -9.403  -4.875  46.865  1.00  0.00    -0.648 OA
ATOM      3  C   UNL A   1      -9.074  -4.454  45.718  1.00  0.00     0.172 C 
ENDROOT
BRANCH   3   4
ATOM      4  C   UNL A   1      -9.483  -3.004  45.439  1.00  0.00     0.113 C 
BRANCH   4   5
ATOM      5  C   UNL A   1      -8.897  -1.941  46.362  1.00  0.00     0.006 C 
ATOM      6  C   UNL A   1      -8.972  -0.544  45.763  1.00  0.00     0.005 C 
ENDBRANCH   4   5
ENDBRANCH   3   4
TORSDOF 2
ENDMDL
MODEL 3
REMARK VINA RESULT:      -3.5     15.502     16.716
REMARK  2 active torsions:
REMARK  status: ('A' for Active; 'I' for Inactive)
REMARK    1  A    between atoms: C_3  and  C_4 
REMARK    2  A    between atoms: C_4  and  C_6 
ROOT
ATOM      1  O   UNL A   1       5.426 -10.681  58.772  1.00  0.00    -0.648 OA
ATOM      2  O   UNL A   1       5.450  -8.784  57.499  1.00  0.00    -0.648 OA
ATOM      3  C   UNL A   1       4.980  -9.889  57.895  1.00  0.00     0.172 C 
ENDROOT
BRANCH   3   4
ATOM      4  C   UNL A   1       3.693 -10.318  57.182  1.00  0.00     0.113 C 
BRANCH   4   5
ATOM      5  C   UNL A   1       3.035  -9.278  56.283  1.00  0.00     0.006 C 
ATOM      6  C   UNL A   1       2.972  -9.722  54.828  1.00  0.00     0.005 C 
ENDBRANCH   4   5
ENDBRANCH   3   4
TORSDOF 2
ENDMDL
MODEL 4
REMARK VINA RESULT:      -3.5     15.616     17.097
REMARK  2 active torsions:
REMARK  status: ('A' for Active; 'I' for Inactive)
REMARK    1  A    between atoms: C_3  and  C_4 
REMARK    2  A    between atoms: C_4  and  C_6 
ROOT
ATOM      1  O   UNL A   1       3.516  -9.595  55.269  1.00  0.00    -0.648 OA
ATOM      2  O   UNL A   1       2.568  -9.839  57.333  1.00  0.00    -0.648 OA
ATOM      3  C   UNL A   1       3.524  -9.631  56.530  1.00  0.00     0.172 C 
ENDROOT
BRANCH   3   4
ATOM      4  C   UNL A   1       4.880  -9.413  57.210  1.00  0.00     0.113 C 
BRANCH   4   5
ATOM      5  C   UNL A   1       5.083 -10.095  58.558  1.00  0.00     0.006 C 
ATOM      6  C   UNL A   1       5.570 -11.530  58.417  1.00  0.00     0.005 C 
ENDBRANCH   4   5
ENDBRANCH   3   4
TORSDOF 2
ENDMDL
MODEL 5
REMARK VINA RESULT:      -3.5     15.495     16.722
REMARK  2 active torsions:
REMARK  status: ('A' for Active; 'I' for Inactive)
REMARK    1  A    between atoms: C_3  and  C_4 
REMARK    2  A    between atoms: C_4  and  C_6 
ROOT
ATOM      1  O   UNL A   1       5.481  -8.767  57.466  1.00  0.00    -0.648 OA
ATOM      2  O   UNL A   1       5.376 -10.622  58.794  1.00  0.00    -0.648 OA
ATOM      3  C   UNL A   1       4.978  -9.850  57.874  1.00  0.00     0.172 C 
ENDROOT
BRANCH   3   4
ATOM      4  C   UNL A   1       3.689 -10.307  57.184  1.00  0.00     0.113 C 
BRANCH   4   5
ATOM      5  C   UNL A   1       3.013  -9.295  56.266  1.00  0.00     0.006 C 
ATOM      6  C   UNL A   1       2.917  -9.785  54.828  1.00  0.00     0.005 C 
ENDBRANCH   4   5
ENDBRANCH   3   4
TORSDOF 2
ENDMDL
MODEL 6
REMARK VINA RESULT:      -3.4     12.673     13.114
REMARK  2 active torsions:
REMARK  status: ('A' for Active; 'I' for Inactive)
REMARK    1  A    between atoms: C_3  and  C_4 
REMARK    2  A    between atoms: C_4  and  C_6 
ROOT
ATOM      1  O   UNL A   1       2.929  -6.379  54.282  1.00  0.00    -0.648 OA
ATOM      2  O   UNL A   1       4.485  -4.720  54.490  1.00  0.00    -0.648 OA
ATOM      3  C   UNL A   1       3.437  -5.352  54.811  1.00  0.00     0.172 C 
ENDROOT
BRANCH   3   4
ATOM      4  C   UNL A   1       2.682  -4.755  56.004  1.00  0.00     0.113 C 
BRANCH   4   5
ATOM      5  C   UNL A   1       1.782  -3.560  55.710  1.00  0.00     0.006 C 
ATOM      6  C   UNL A   1       0.876  -3.213  56.883  1.00  0.00     0.005 C 
ENDBRANCH   4   5
ENDBRANCH   3   4
TORSDOF 2
ENDMDL
MODEL 7
REMARK VINA RESULT:      -3.4     15.400     16.227
REMARK  2 active torsions:
REMARK  status: ('A' for Active; 'I' for Inactive)
REMARK    1  A    between atoms: C_3  and  C_4 
REMARK    2  A    between atoms: C_4  and  C_6 
ROOT
ATOM      1  O   UNL A   1       5.227  -7.283  56.815  1.00  0.00    -0.648 OA
ATOM      2  O   UNL A   1       5.519  -9.336  57.773  1.00  0.00    -0.648 OA
ATOM      3  C   UNL A   1       5.022  -8.521  56.942  1.00  0.00     0.172 C 
ENDROOT
BRANCH   3   4
ATOM      4  C   UNL A   1       4.014  -9.148  55.972  1.00  0.00     0.113 C 
BRANCH   4   5
ATOM      5  C   UNL A   1       3.161 -10.286  56.519  1.00  0.00     0.006 C 
ATOM      6  C   UNL A   1       2.125 -10.772  55.515  1.00  0.00     0.005 C 
ENDBRANCH   4   5
ENDBRANCH   3   4
TORSDOF 2
ENDMDL
MODEL 8
REMARK VINA RESULT:      -3.4     14.073     14.924
REMARK  2 active torsions:
REMARK  status: ('A' for Active; 'I' for Inactive)
REMARK    1  A    between atoms: C_3  and  C_4 
REMARK    2  A    between atoms: C_4  and  C_6 
ROOT
ATOM      1  O   UNL A   1       4.097  -9.221  55.964  1.00  0.00    -0.648 OA
ATOM      2  O   UNL A   1       5.391  -7.552  56.836  1.00  0.00    -0.648 OA
ATOM      3  C   UNL A   1       4.375  -8.023  56.247  1.00  0.00     0.172 C 
ENDROOT
BRANCH   3   4
ATOM      4  C   UNL A   1       3.356  -6.966  55.809  1.00  0.00     0.113 C 
BRANCH   4   5
ATOM      5  C   UNL A   1       3.698  -5.516  56.132  1.00  0.00     0.006 C 
ATOM      6  C   UNL A   1       2.511  -4.582  55.945  1.00  0.00     0.005 C 
ENDBRANCH   4   5
ENDBRANCH   3   4
TORSDOF 2
ENDMDL
MODEL 9
REMARK VINA RESULT:      -3.4     15.347     16.224
REMARK  2 active torsions:
REMARK  status: ('A' for Active; 'I' for Inactive)
REMARK    1  A    between atoms: C_3  and  C_4 
REMARK    2  A    between atoms: C_4  and  C_6 
ROOT
ATOM      1  O   UNL A   1       1.775  -9.352  57.117  1.00  0.00    -0.648 OA
ATOM      2  O   UNL A   1       2.551 -11.376  56.396  1.00  0.00    -0.648 OA
ATOM      3  C   UNL A   1       2.586 -10.118  56.525  1.00  0.00     0.172 C 
ENDROOT
BRANCH   3   4
ATOM      4  C   UNL A   1       3.782  -9.448  55.842  1.00  0.00     0.113 C 
BRANCH   4   5
ATOM      5  C   UNL A   1       4.844  -8.853  56.760  1.00  0.00     0.006 C 
ATOM      6  C   UNL A   1       5.374  -9.861  57.769  1.00  0.00     0.005 C 
ENDBRANCH   4   5
ENDBRANCH   3   4
TORSDOF 2
ENDMDL
