MODEL 1
REMARK VINA RESULT:      -3.7      0.000      0.000
REMARK  2 active torsions:
REMARK  status: ('A' for Active; 'I' for Inactive)
REMARK    1  A    between atoms: C_3  and  C_4 
REMARK    2  A    between atoms: C_4  and  C_6 
ROOT
ATOM      1  O   UNL A   1      -4.617  -3.504  47.652  1.00  0.00    -0.648 OA
ATOM      2  O   UNL A   1      -5.795  -4.767  46.157  1.00  0.00    -0.648 OA
ATOM      3  C   UNL A   1      -5.608  -3.775  46.920  1.00  0.00     0.172 C 
ENDROOT
BRANCH   3   4
ATOM      4  C   UNL A   1      -6.774  -2.781  46.956  1.00  0.00     0.113 C 
BRANCH   4   5
ATOM      5  C   UNL A   1      -8.119  -3.290  46.450  1.00  0.00     0.006 C 
ATOM      6  C   UNL A   1      -9.096  -2.160  46.156  1.00  0.00     0.005 C 
ENDBRANCH   4   5
ENDBRANCH   3   4
TORSDOF 2
ENDMDL
MODEL 2
REMARK VINA RESULT:      -3.5     15.206     16.442
REMARK  2 active torsions:
REMARK  status: ('A' for Active; 'I' for Inactive)
REMARK    1  A    between atoms: C_3  and  C_4 
REMARK    2  A    between atoms: C_4  and  C_6 
ROOT
ATOM      1  O   UNL A   1       5.515 -10.733  58.645  1.00  0.00    -0.648 OA
ATOM      2  O   UNL A   1       5.445  -8.750  57.513  1.00  0.00    -0.648 OA
ATOM      3  C   UNL A   1       5.009  -9.887  57.857  1.00  0.00     0.172 C 
ENDROOT
BRANCH   3   4
ATOM      4  C   UNL A   1       3.684 -10.281  57.195  1.00  0.00     0.113 C 
BRANCH   4   5
ATOM      5  C   UNL A   1       3.058  -9.251  56.261  1.00  0.00     0.006 C 
ATOM      6  C   UNL A   1       2.973  -9.744  54.824  1.00  0.00     0.005 C 
ENDBRANCH   4   5
ENDBRANCH   3   4
TORSDOF 2
ENDMDL
MODEL 3
REMARK VINA RESULT:      -3.5     15.189     16.428
REMARK  2 active torsions:
REMARK  status: ('A' for Active; 'I' for Inactive)
REMARK    1  A    between atoms: C_3  and  C_4 
REMARK    2  A    between atoms: C_4  and  C_6 
ROOT
ATOM      1  O   UNL A   1       5.459  -8.740  57.481  1.00  0.00    -0.648 OA
ATOM      2  O   UNL A   1       5.429 -10.637  58.753  1.00  0.00    -0.648 OA
ATOM      3  C   UNL A   1       4.995  -9.850  57.863  1.00  0.00     0.172 C 
ENDROOT
BRANCH   3   4
ATOM      4  C   UNL A   1       3.710 -10.323  57.175  1.00  0.00     0.113 C 
BRANCH   4   5
ATOM      5  C   UNL A   1       3.010  -9.315  56.272  1.00  0.00     0.006 C 
ATOM      6  C   UNL A   1       2.904  -9.797  54.833  1.00  0.00     0.005 C 
ENDBRANCH   4   5
ENDBRANCH   3   4
TORSDOF 2
ENDMDL
MODEL 4
REMARK VINA RESULT:      -3.4     15.654     16.949
REMARK  2 active torsions:
REMARK  status: ('A' for Active; 'I' for Inactive)
REMARK    1  A    between atoms: C_3  and  C_4 
REMARK    2  A    between atoms: C_4  and  C_6 
ROOT
ATOM      1  O   UNL A   1       5.451  -7.678  56.980  1.00  0.00    -0.648 OA
ATOM      2  O   UNL A   1       4.458  -8.587  55.134  1.00  0.00    -0.648 OA
ATOM      3  C   UNL A   1       4.793  -8.555  56.353  1.00  0.00     0.172 C 
ENDROOT
BRANCH   3   4
ATOM      4  C   UNL A   1       4.341  -9.775  57.163  1.00  0.00     0.113 C 
BRANCH   4   5
ATOM      5  C   UNL A   1       5.136 -10.086  58.426  1.00  0.00     0.006 C 
ATOM      6  C   UNL A   1       5.576 -11.542  58.493  1.00  0.00     0.005 C 
ENDBRANCH   4   5
ENDBRANCH   3   4
TORSDOF 2
ENDMDL
MODEL 5
REMARK VINA RESULT:      -3.3     13.526     14.501
REMARK  2 active torsions:
REMARK  status: ('A' for Active; 'I' for Inactive)
REMARK    1  A    between atoms: C_3  and  C_4 
REMARK    2  A    between atoms: C_4  and  C_6 
ROOT
ATOM      1  O   UNL A   1       4.868  -8.016  54.755  1.00  0.00    -0.648 OA
ATOM      2  O   UNL A   1       5.327  -7.416  56.911  1.00  0.00    -0.648 OA
ATOM      3  C   UNL A   1       4.641  -7.426  55.848  1.00  0.00     0.172 C 
ENDROOT
BRANCH   3   4
ATOM      4  C   UNL A   1       3.366  -6.580  55.914  1.00  0.00     0.113 C 
BRANCH   4   5
ATOM      5  C   UNL A   1       3.553  -5.067  55.918  1.00  0.00     0.006 C 
ATOM      6  C   UNL A   1       2.231  -4.317  56.002  1.00  0.00     0.005 C 
ENDBRANCH   4   5
ENDBRANCH   3   4
TORSDOF 2
ENDMDL
MODEL 6
REMARK VINA RESULT:      -3.2     14.289     15.011
REMARK  2 active torsions:
REMARK  status: ('A' for Active; 'I' for Inactive)
REMARK    1  A    between atoms: C_3  and  C_4 
REMARK    2  A    between atoms: C_4  and  C_6 
ROOT
ATOM      1  O   UNL A   1       1.128  -9.576  56.430  1.00  0.00    -0.648 OA
ATOM      2  O   UNL A   1       2.165 -11.604  56.260  1.00  0.00    -0.648 OA
ATOM      3  C   UNL A   1       1.990 -10.382  55.983  1.00  0.00     0.172 C 
ENDROOT
BRANCH   3   4
ATOM      4  C   UNL A   1       2.964  -9.828  54.938  1.00  0.00     0.113 C 
BRANCH   4   5
ATOM      5  C   UNL A   1       3.903  -8.720  55.403  1.00  0.00     0.006 C 
ATOM      6  C   UNL A   1       4.622  -9.072  56.698  1.00  0.00     0.005 C 
ENDBRANCH   4   5
ENDBRANCH   3   4
TORSDOF 2
ENDMDL
MODEL 7
REMARK VINA RESULT:      -3.2     15.204     16.007
REMARK  2 active torsions:
REMARK  status: ('A' for Active; 'I' for Inactive)
REMARK    1  A    between atoms: C_3  and  C_4 
REMARK    2  A    between atoms: C_4  and  C_6 
ROOT
ATOM      1  O   UNL A   1       3.513 -10.626  57.283  1.00  0.00    -0.648 OA
ATOM      2  O   UNL A   1       5.286  -9.374  57.998  1.00  0.00    -0.648 OA
ATOM      3  C   UNL A   1       4.308  -9.646  57.242  1.00  0.00     0.172 C 
ENDROOT
BRANCH   3   4
ATOM      4  C   UNL A   1       4.086  -8.635  56.112  1.00  0.00     0.113 C 
BRANCH   4   5
ATOM      5  C   UNL A   1       4.895  -7.345  56.184  1.00  0.00     0.006 C 
ATOM      6  C   UNL A   1       4.016  -6.103  56.160  1.00  0.00     0.005 C 
ENDBRANCH   4   5
ENDBRANCH   3   4
TORSDOF 2
ENDMDL
MODEL 8
REMARK VINA RESULT:      -3.2     15.044     15.649
REMARK  2 active torsions:
REMARK  status: ('A' for Active; 'I' for Inactive)
REMARK    1  A    between atoms: C_3  and  C_4 
REMARK    2  A    between atoms: C_4  and  C_6 
ROOT
ATOM      1  O   UNL A   1       5.379  -9.015  57.700  1.00  0.00    -0.648 OA
ATOM      2  O   UNL A   1       6.088  -8.160  55.704  1.00  0.00    -0.648 OA
ATOM      3  C   UNL A   1       5.219  -8.526  56.547  1.00  0.00     0.172 C 
ENDROOT
BRANCH   3   4
ATOM      4  C   UNL A   1       3.772  -8.360  56.072  1.00  0.00     0.113 C 
BRANCH   4   5
ATOM      5  C   UNL A   1       3.258  -9.396  55.079  1.00  0.00     0.006 C 
ATOM      6  C   UNL A   1       2.459 -10.503  55.752  1.00  0.00     0.005 C 
ENDBRANCH   4   5
ENDBRANCH   3   4
TORSDOF 2
ENDMDL
MODEL 9
REMARK VINA RESULT:      -3.2     14.758     15.858
REMARK  2 active torsions:
REMARK  status: ('A' for Active; 'I' for Inactive)
REMARK    1  A    between atoms: C_3  and  C_4 
REMARK    2  A    between atoms: C_4  and  C_6 
ROOT
ATOM      1  O   UNL A   1       5.486  -9.418  58.003  1.00  0.00    -0.648 OA
ATOM      2  O   UNL A   1       3.408 -10.216  57.488  1.00  0.00    -0.648 OA
ATOM      3  C   UNL A   1       4.450  -9.527  57.290  1.00  0.00     0.172 C 
ENDROOT
BRANCH   3   4
ATOM      4  C   UNL A   1       4.420  -8.698  56.001  1.00  0.00     0.113 C 
BRANCH   4   5
ATOM      5  C   UNL A   1       4.601  -7.192  56.156  1.00  0.00     0.006 C 
ATOM      6  C   UNL A   1       3.322  -6.419  55.872  1.00  0.00     0.005 C 
ENDBRANCH   4   5
ENDBRANCH   3   4
TORSDOF 2
ENDMDL
