MODEL 1
REMARK VINA RESULT:      -5.7      0.000      0.000
REMARK  3 active torsions:
REMARK  status: ('A' for Active; 'I' for Inactive)
REMARK    1  A    between atoms: C_3  and  C_4 
REMARK    2  A    between atoms: C_3  and  C_5 
REMARK    3  A    between atoms: C_5  and  C_10 
ROOT
HETATM    1  O   UNL     1       4.843  -9.965  59.617  1.00  0.00    -0.648 OA
HETATM    2  O   UNL     1       5.558 -11.950  58.773  1.00  0.00    -0.648 OA
HETATM    3  C   UNL     1       5.428 -10.736  58.667  1.00  0.00     0.172 C 
ENDROOT
BRANCH   3   4
HETATM    4  C   UNL     1       5.869  -9.947  57.459  1.00  0.00     0.117 C 
BRANCH   4   5
HETATM    5  C   UNL     1       4.851  -8.864  57.086  1.00  0.00     0.049 C 
BRANCH   5   6
HETATM    6  C   UNL     1       3.860  -9.299  56.061  1.00  0.00    -0.058 A 
HETATM    7  C   UNL     1       2.956 -10.321  56.354  1.00  0.00     0.007 A 
HETATM    8  C   UNL     1       2.028 -10.729  55.395  1.00  0.00     0.001 A 
HETATM    9  C   UNL     1       2.004 -10.114  54.143  1.00  0.00     0.000 A 
HETATM   10  C   UNL     1       2.907  -9.093  53.849  1.00  0.00     0.001 A 
HETATM   11  C   UNL     1       3.834  -8.685  54.809  1.00  0.00     0.007 A 
ENDBRANCH   5   6
ENDBRANCH   4   5
ENDBRANCH   3   4
TORSDOF 3
ENDMDL
MODEL 2
REMARK VINA RESULT:      -5.7      3.142      4.805
REMARK  3 active torsions:
REMARK  status: ('A' for Active; 'I' for Inactive)
REMARK    1  A    between atoms: C_3  and  C_4 
REMARK    2  A    between atoms: C_3  and  C_5 
REMARK    3  A    between atoms: C_5  and  C_10 
ROOT
HETATM    1  O   UNL     1      -0.249 -10.061  56.635  1.00  0.00    -0.648 OA
HETATM    2  O   UNL     1      -1.265 -10.750  54.723  1.00  0.00    -0.648 OA
HETATM    3  C   UNL     1      -0.267 -10.684  55.430  1.00  0.00     0.172 C 
ENDROOT
BRANCH   3   4
HETATM    4  C   UNL     1       1.076 -11.255  55.043  1.00  0.00     0.117 C 
BRANCH   4   5
HETATM    5  C   UNL     1       2.020 -10.170  54.512  1.00  0.00     0.049 C 
BRANCH   5   6
HETATM    6  C   UNL     1       3.110  -9.806  55.462  1.00  0.00    -0.058 A 
HETATM    7  C   UNL     1       3.971  -8.749  55.164  1.00  0.00     0.007 A 
HETATM    8  C   UNL     1       4.990  -8.407  56.053  1.00  0.00     0.001 A 
HETATM    9  C   UNL     1       5.148  -9.121  57.241  1.00  0.00     0.000 A 
HETATM   10  C   UNL     1       4.288 -10.177  57.540  1.00  0.00     0.001 A 
HETATM   11  C   UNL     1       3.268 -10.519  56.651  1.00  0.00     0.007 A 
ENDBRANCH   5   6
ENDBRANCH   4   5
ENDBRANCH   3   4
TORSDOF 3
ENDMDL
MODEL 3
REMARK VINA RESULT:      -5.7      3.144      4.578
REMARK  3 active torsions:
REMARK  status: ('A' for Active; 'I' for Inactive)
REMARK    1  A    between atoms: C_3  and  C_4 
REMARK    2  A    between atoms: C_3  and  C_5 
REMARK    3  A    between atoms: C_5  and  C_10 
ROOT
HETATM    1  O   UNL     1      -0.260  -9.969  56.637  1.00  0.00    -0.648 OA
HETATM    2  O   UNL     1      -1.316 -10.829  54.818  1.00  0.00    -0.648 OA
HETATM    3  C   UNL     1      -0.302 -10.696  55.493  1.00  0.00     0.172 C 
ENDROOT
BRANCH   3   4
HETATM    4  C   UNL     1       1.035 -11.294  55.127  1.00  0.00     0.117 C 
BRANCH   4   5
HETATM    5  C   UNL     1       1.987 -10.241  54.549  1.00  0.00     0.049 C 
BRANCH   5   6
HETATM    6  C   UNL     1       3.082  -9.847  55.480  1.00  0.00    -0.058 A 
HETATM    7  C   UNL     1       3.275 -10.552  56.669  1.00  0.00     0.007 A 
HETATM    8  C   UNL     1       4.300 -10.185  57.541  1.00  0.00     0.001 A 
HETATM    9  C   UNL     1       5.133  -9.111  57.224  1.00  0.00     0.000 A 
HETATM   10  C   UNL     1       4.941  -8.406  56.036  1.00  0.00     0.001 A 
HETATM   11  C   UNL     1       3.917  -8.775  55.164  1.00  0.00     0.007 A 
ENDBRANCH   5   6
ENDBRANCH   4   5
ENDBRANCH   3   4
TORSDOF 3
ENDMDL
MODEL 4
REMARK VINA RESULT:      -5.7      0.963      1.797
REMARK  3 active torsions:
REMARK  status: ('A' for Active; 'I' for Inactive)
REMARK    1  A    between atoms: C_3  and  C_4 
REMARK    2  A    between atoms: C_3  and  C_5 
REMARK    3  A    between atoms: C_5  and  C_10 
ROOT
HETATM    1  O   UNL     1       6.650 -10.507  57.726  1.00  0.00    -0.648 OA
HETATM    2  O   UNL     1       5.500 -12.150  58.793  1.00  0.00    -0.648 OA
HETATM    3  C   UNL     1       5.521 -11.061  58.232  1.00  0.00     0.172 C 
ENDROOT
BRANCH   3   4
HETATM    4  C   UNL     1       4.305 -10.182  58.060  1.00  0.00     0.117 C 
BRANCH   4   5
HETATM    5  C   UNL     1       4.463  -9.223  56.875  1.00  0.00     0.049 C 
BRANCH   5   6
HETATM    6  C   UNL     1       3.536  -9.509  55.743  1.00  0.00    -0.058 A 
HETATM    7  C   UNL     1       3.623  -8.768  54.565  1.00  0.00     0.007 A 
HETATM    8  C   UNL     1       2.756  -9.035  53.505  1.00  0.00     0.001 A 
HETATM    9  C   UNL     1       1.800 -10.045  53.625  1.00  0.00     0.000 A 
HETATM   10  C   UNL     1       1.712 -10.787  54.803  1.00  0.00     0.001 A 
HETATM   11  C   UNL     1       2.580 -10.519  55.861  1.00  0.00     0.007 A 
ENDBRANCH   5   6
ENDBRANCH   4   5
ENDBRANCH   3   4
TORSDOF 3
ENDMDL
MODEL 5
REMARK VINA RESULT:      -5.6      1.388      2.397
REMARK  3 active torsions:
REMARK  status: ('A' for Active; 'I' for Inactive)
REMARK    1  A    between atoms: C_3  and  C_4 
REMARK    2  A    between atoms: C_3  and  C_5 
REMARK    3  A    between atoms: C_5  and  C_10 
ROOT
HETATM    1  O   UNL     1       5.609  -8.802  57.405  1.00  0.00    -0.648 OA
HETATM    2  O   UNL     1       5.714 -10.784  58.511  1.00  0.00    -0.648 OA
HETATM    3  C   UNL     1       5.101  -9.995  57.801  1.00  0.00     0.172 C 
ENDROOT
BRANCH   3   4
HETATM    4  C   UNL     1       3.695 -10.230  57.304  1.00  0.00     0.117 C 
BRANCH   4   5
HETATM    5  C   UNL     1       3.400  -9.420  56.036  1.00  0.00     0.049 C 
BRANCH   5   6
HETATM    6  C   UNL     1       2.495 -10.116  55.077  1.00  0.00    -0.058 A 
HETATM    7  C   UNL     1       2.395  -9.665  53.761  1.00  0.00     0.007 A 
HETATM    8  C   UNL     1       1.549 -10.315  52.862  1.00  0.00     0.001 A 
HETATM    9  C   UNL     1       0.802 -11.417  53.281  1.00  0.00     0.000 A 
HETATM   10  C   UNL     1       0.901 -11.867  54.597  1.00  0.00     0.001 A 
HETATM   11  C   UNL     1       1.748 -11.217  55.495  1.00  0.00     0.007 A 
ENDBRANCH   5   6
ENDBRANCH   4   5
ENDBRANCH   3   4
TORSDOF 3
ENDMDL
MODEL 6
REMARK VINA RESULT:      -5.5      3.051      4.436
REMARK  3 active torsions:
REMARK  status: ('A' for Active; 'I' for Inactive)
REMARK    1  A    between atoms: C_3  and  C_4 
REMARK    2  A    between atoms: C_3  and  C_5 
REMARK    3  A    between atoms: C_5  and  C_10 
ROOT
HETATM    1  O   UNL     1       0.584 -12.477  53.935  1.00  0.00    -0.648 OA
HETATM    2  O   UNL     1       0.656 -12.135  56.180  1.00  0.00    -0.648 OA
HETATM    3  C   UNL     1       0.969 -11.798  55.045  1.00  0.00     0.172 C 
ENDROOT
BRANCH   3   4
HETATM    4  C   UNL     1       1.845 -10.610  54.733  1.00  0.00     0.117 C 
BRANCH   4   5
HETATM    5  C   UNL     1       2.860 -10.345  55.851  1.00  0.00     0.049 C 
BRANCH   5   6
HETATM    6  C   UNL     1       3.326  -8.930  55.916  1.00  0.00    -0.058 A 
HETATM    7  C   UNL     1       4.602  -8.638  56.398  1.00  0.00     0.007 A 
HETATM    8  C   UNL     1       5.039  -7.314  56.459  1.00  0.00     0.001 A 
HETATM    9  C   UNL     1       4.199  -6.283  56.039  1.00  0.00     0.000 A 
HETATM   10  C   UNL     1       2.923  -6.575  55.558  1.00  0.00     0.001 A 
HETATM   11  C   UNL     1       2.487  -7.898  55.496  1.00  0.00     0.007 A 
ENDBRANCH   5   6
ENDBRANCH   4   5
ENDBRANCH   3   4
TORSDOF 3
ENDMDL
MODEL 7
REMARK VINA RESULT:      -5.5      3.624      4.640
REMARK  3 active torsions:
REMARK  status: ('A' for Active; 'I' for Inactive)
REMARK    1  A    between atoms: C_3  and  C_4 
REMARK    2  A    between atoms: C_3  and  C_5 
REMARK    3  A    between atoms: C_5  and  C_10 
ROOT
HETATM    1  O   UNL     1       3.018  -4.981  54.251  1.00  0.00    -0.648 OA
HETATM    2  O   UNL     1       2.168  -4.257  56.229  1.00  0.00    -0.648 OA
HETATM    3  C   UNL     1       2.967  -4.944  55.605  1.00  0.00     0.172 C 
ENDROOT
BRANCH   3   4
HETATM    4  C   UNL     1       3.975  -5.860  56.257  1.00  0.00     0.117 C 
BRANCH   4   5
HETATM    5  C   UNL     1       4.476  -6.934  55.284  1.00  0.00     0.049 C 
BRANCH   5   6
HETATM    6  C   UNL     1       3.750  -8.232  55.399  1.00  0.00    -0.058 A 
HETATM    7  C   UNL     1       2.907  -8.653  54.370  1.00  0.00     0.007 A 
HETATM    8  C   UNL     1       2.228  -9.867  54.476  1.00  0.00     0.001 A 
HETATM    9  C   UNL     1       2.393 -10.661  55.611  1.00  0.00     0.000 A 
HETATM   10  C   UNL     1       3.236 -10.240  56.640  1.00  0.00     0.001 A 
HETATM   11  C   UNL     1       3.915  -9.027  56.533  1.00  0.00     0.007 A 
ENDBRANCH   5   6
ENDBRANCH   4   5
ENDBRANCH   3   4
TORSDOF 3
ENDMDL
MODEL 8
REMARK VINA RESULT:      -5.4      3.639      4.554
REMARK  3 active torsions:
REMARK  status: ('A' for Active; 'I' for Inactive)
REMARK    1  A    between atoms: C_3  and  C_4 
REMARK    2  A    between atoms: C_3  and  C_5 
REMARK    3  A    between atoms: C_5  and  C_10 
ROOT
HETATM    1  O   UNL     1       3.245  -4.687  54.300  1.00  0.00    -0.648 OA
HETATM    2  O   UNL     1       2.141  -4.273  56.243  1.00  0.00    -0.648 OA
HETATM    3  C   UNL     1       3.033  -4.848  55.630  1.00  0.00     0.172 C 
ENDROOT
BRANCH   3   4
HETATM    4  C   UNL     1       3.989  -5.829  56.264  1.00  0.00     0.117 C 
BRANCH   4   5
HETATM    5  C   UNL     1       4.463  -6.886  55.260  1.00  0.00     0.049 C 
BRANCH   5   6
HETATM    6  C   UNL     1       3.779  -8.203  55.406  1.00  0.00    -0.058 A 
HETATM    7  C   UNL     1       3.936  -8.944  56.578  1.00  0.00     0.007 A 
HETATM    8  C   UNL     1       3.296 -10.175  56.717  1.00  0.00     0.001 A 
HETATM    9  C   UNL     1       2.498 -10.666  55.683  1.00  0.00     0.000 A 
HETATM   10  C   UNL     1       2.341  -9.926  54.511  1.00  0.00     0.001 A 
HETATM   11  C   UNL     1       2.981  -8.694  54.374  1.00  0.00     0.007 A 
ENDBRANCH   5   6
ENDBRANCH   4   5
ENDBRANCH   3   4
TORSDOF 3
ENDMDL
MODEL 9
REMARK VINA RESULT:      -5.4      3.551      4.903
REMARK  3 active torsions:
REMARK  status: ('A' for Active; 'I' for Inactive)
REMARK    1  A    between atoms: C_3  and  C_4 
REMARK    2  A    between atoms: C_3  and  C_5 
REMARK    3  A    between atoms: C_5  and  C_10 
ROOT
HETATM    1  O   UNL     1       2.295  -4.315  55.982  1.00  0.00    -0.648 OA
HETATM    2  O   UNL     1       4.366  -4.519  55.070  1.00  0.00    -0.648 OA
HETATM    3  C   UNL     1       3.274  -5.002  55.342  1.00  0.00     0.172 C 
ENDROOT
BRANCH   3   4
HETATM    4  C   UNL     1       2.886  -6.427  55.031  1.00  0.00     0.117 C 
BRANCH   4   5
HETATM    5  C   UNL     1       4.117  -7.320  54.834  1.00  0.00     0.049 C 
BRANCH   5   6
HETATM    6  C   UNL     1       4.216  -8.432  55.821  1.00  0.00    -0.058 A 
HETATM    7  C   UNL     1       5.310  -8.504  56.683  1.00  0.00     0.007 A 
HETATM    8  C   UNL     1       5.404  -9.545  57.608  1.00  0.00     0.001 A 
HETATM    9  C   UNL     1       4.402 -10.514  57.669  1.00  0.00     0.000 A 
HETATM   10  C   UNL     1       3.308 -10.443  56.807  1.00  0.00     0.001 A 
HETATM   11  C   UNL     1       3.215  -9.402  55.884  1.00  0.00     0.007 A 
ENDBRANCH   5   6
ENDBRANCH   4   5
ENDBRANCH   3   4
TORSDOF 3
ENDMDL
