MODEL 1
REMARK VINA RESULT:      -5.6      0.000      0.000
REMARK  3 active torsions:
REMARK  status: ('A' for Active; 'I' for Inactive)
REMARK    1  A    between atoms: C_3  and  C_4 
REMARK    2  A    between atoms: C_3  and  C_5 
REMARK    3  A    between atoms: C_5  and  C_10 
ROOT
HETATM    1  O   UNL     1      -0.358  -9.993  56.636  1.00  0.00    -0.648 OA
HETATM    2  O   UNL     1      -1.359 -10.928  54.824  1.00  0.00    -0.648 OA
HETATM    3  C   UNL     1      -0.360 -10.745  55.508  1.00  0.00     0.172 C 
ENDROOT
BRANCH   3   4
HETATM    4  C   UNL     1       1.002 -11.302  55.170  1.00  0.00     0.117 C 
BRANCH   4   5
HETATM    5  C   UNL     1       1.924 -10.227  54.581  1.00  0.00     0.049 C 
BRANCH   5   6
HETATM    6  C   UNL     1       3.042  -9.835  55.486  1.00  0.00    -0.058 A 
HETATM    7  C   UNL     1       3.224 -10.500  56.699  1.00  0.00     0.007 A 
HETATM    8  C   UNL     1       4.270 -10.134  57.546  1.00  0.00     0.001 A 
HETATM    9  C   UNL     1       5.135  -9.102  57.179  1.00  0.00     0.000 A 
HETATM   10  C   UNL     1       4.954  -8.437  55.967  1.00  0.00     0.001 A 
HETATM   11  C   UNL     1       3.908  -8.804  55.120  1.00  0.00     0.007 A 
ENDBRANCH   5   6
ENDBRANCH   4   5
ENDBRANCH   3   4
TORSDOF 3
ENDMDL
MODEL 2
REMARK VINA RESULT:      -5.6      0.147      1.464
REMARK  3 active torsions:
REMARK  status: ('A' for Active; 'I' for Inactive)
REMARK    1  A    between atoms: C_3  and  C_4 
REMARK    2  A    between atoms: C_3  and  C_5 
REMARK    3  A    between atoms: C_5  and  C_10 
ROOT
HETATM    1  O   UNL     1      -0.492 -10.295  56.598  1.00  0.00    -0.648 OA
HETATM    2  O   UNL     1      -1.269 -11.043  54.598  1.00  0.00    -0.648 OA
HETATM    3  C   UNL     1      -0.348 -10.901  55.394  1.00  0.00     0.172 C 
ENDROOT
BRANCH   3   4
HETATM    4  C   UNL     1       1.068 -11.352  55.128  1.00  0.00     0.117 C 
BRANCH   4   5
HETATM    5  C   UNL     1       1.936 -10.207  54.593  1.00  0.00     0.049 C 
BRANCH   5   6
HETATM    6  C   UNL     1       3.055  -9.827  55.502  1.00  0.00    -0.058 A 
HETATM    7  C   UNL     1       3.906  -8.777  55.159  1.00  0.00     0.007 A 
HETATM    8  C   UNL     1       4.953  -8.420  56.009  1.00  0.00     0.001 A 
HETATM    9  C   UNL     1       5.148  -9.114  57.204  1.00  0.00     0.000 A 
HETATM   10  C   UNL     1       4.297 -10.165  57.547  1.00  0.00     0.001 A 
HETATM   11  C   UNL     1       3.250 -10.520  56.697  1.00  0.00     0.007 A 
ENDBRANCH   5   6
ENDBRANCH   4   5
ENDBRANCH   3   4
TORSDOF 3
ENDMDL
MODEL 3
REMARK VINA RESULT:      -5.5      3.302      4.955
REMARK  3 active torsions:
REMARK  status: ('A' for Active; 'I' for Inactive)
REMARK    1  A    between atoms: C_3  and  C_4 
REMARK    2  A    between atoms: C_3  and  C_5 
REMARK    3  A    between atoms: C_5  and  C_10 
ROOT
HETATM    1  O   UNL     1       5.514 -11.855  58.871  1.00  0.00    -0.648 OA
HETATM    2  O   UNL     1       6.484 -10.167  57.700  1.00  0.00    -0.648 OA
HETATM    3  C   UNL     1       5.478 -10.746  58.092  1.00  0.00     0.172 C 
ENDROOT
BRANCH   3   4
HETATM    4  C   UNL     1       4.073 -10.322  57.737  1.00  0.00     0.117 C 
BRANCH   4   5
HETATM    5  C   UNL     1       4.060  -9.316  56.580  1.00  0.00     0.049 C 
BRANCH   5   6
HETATM    6  C   UNL     1       3.155  -9.700  55.460  1.00  0.00    -0.058 A 
HETATM    7  C   UNL     1       3.211  -9.010  54.249  1.00  0.00     0.007 A 
HETATM    8  C   UNL     1       2.365  -9.369  53.200  1.00  0.00     0.001 A 
HETATM    9  C   UNL     1       1.461 -10.419  53.363  1.00  0.00     0.000 A 
HETATM   10  C   UNL     1       1.404 -11.110  54.573  1.00  0.00     0.001 A 
HETATM   11  C   UNL     1       2.251 -10.751  55.621  1.00  0.00     0.007 A 
ENDBRANCH   5   6
ENDBRANCH   4   5
ENDBRANCH   3   4
TORSDOF 3
ENDMDL
MODEL 4
REMARK VINA RESULT:      -5.5      3.223      4.968
REMARK  3 active torsions:
REMARK  status: ('A' for Active; 'I' for Inactive)
REMARK    1  A    between atoms: C_3  and  C_4 
REMARK    2  A    between atoms: C_3  and  C_5 
REMARK    3  A    between atoms: C_5  and  C_10 
ROOT
HETATM    1  O   UNL     1       5.768  -9.104  57.615  1.00  0.00    -0.648 OA
HETATM    2  O   UNL     1       5.514 -11.020  58.810  1.00  0.00    -0.648 OA
HETATM    3  C   UNL     1       5.079 -10.204  58.005  1.00  0.00     0.172 C 
ENDROOT
BRANCH   3   4
HETATM    4  C   UNL     1       3.713 -10.299  57.369  1.00  0.00     0.117 C 
BRANCH   4   5
HETATM    5  C   UNL     1       3.628  -9.468  56.084  1.00  0.00     0.049 C 
BRANCH   5   6
HETATM    6  C   UNL     1       2.694 -10.030  55.067  1.00  0.00    -0.058 A 
HETATM    7  C   UNL     1       2.622  -9.460  53.795  1.00  0.00     0.007 A 
HETATM    8  C   UNL     1       1.750  -9.985  52.842  1.00  0.00     0.001 A 
HETATM    9  C   UNL     1       0.948 -11.082  53.161  1.00  0.00     0.000 A 
HETATM   10  C   UNL     1       1.019 -11.652  54.432  1.00  0.00     0.001 A 
HETATM   11  C   UNL     1       1.893 -11.127  55.384  1.00  0.00     0.007 A 
ENDBRANCH   5   6
ENDBRANCH   4   5
ENDBRANCH   3   4
TORSDOF 3
ENDMDL
MODEL 5
REMARK VINA RESULT:      -5.5      3.167      4.724
REMARK  3 active torsions:
REMARK  status: ('A' for Active; 'I' for Inactive)
REMARK    1  A    between atoms: C_3  and  C_4 
REMARK    2  A    between atoms: C_3  and  C_5 
REMARK    3  A    between atoms: C_5  and  C_10 
ROOT
HETATM    1  O   UNL     1       5.527  -8.814  57.637  1.00  0.00    -0.648 OA
HETATM    2  O   UNL     1       5.518 -10.759  58.810  1.00  0.00    -0.648 OA
HETATM    3  C   UNL     1       5.002 -10.015  57.986  1.00  0.00     0.172 C 
ENDROOT
BRANCH   3   4
HETATM    4  C   UNL     1       3.705 -10.318  57.277  1.00  0.00     0.117 C 
BRANCH   4   5
HETATM    5  C   UNL     1       3.451  -9.346  56.119  1.00  0.00     0.049 C 
BRANCH   5   6
HETATM    6  C   UNL     1       2.635  -9.928  55.015  1.00  0.00    -0.058 A 
HETATM    7  C   UNL     1       1.841 -11.050  55.252  1.00  0.00     0.007 A 
HETATM    8  C   UNL     1       1.076 -11.595  54.220  1.00  0.00     0.001 A 
HETATM    9  C   UNL     1       1.106 -11.017  52.951  1.00  0.00     0.000 A 
HETATM   10  C   UNL     1       1.900  -9.895  52.713  1.00  0.00     0.001 A 
HETATM   11  C   UNL     1       2.663  -9.350  53.746  1.00  0.00     0.007 A 
ENDBRANCH   5   6
ENDBRANCH   4   5
ENDBRANCH   3   4
TORSDOF 3
ENDMDL
MODEL 6
REMARK VINA RESULT:      -5.4      3.169      4.538
REMARK  3 active torsions:
REMARK  status: ('A' for Active; 'I' for Inactive)
REMARK    1  A    between atoms: C_3  and  C_4 
REMARK    2  A    between atoms: C_3  and  C_5 
REMARK    3  A    between atoms: C_5  and  C_10 
ROOT
HETATM    1  O   UNL     1       2.214  -4.271  56.203  1.00  0.00    -0.648 OA
HETATM    2  O   UNL     1       2.941  -5.082  54.209  1.00  0.00    -0.648 OA
HETATM    3  C   UNL     1       3.001  -5.061  55.433  1.00  0.00     0.172 C 
ENDROOT
BRANCH   3   4
HETATM    4  C   UNL     1       3.977  -5.884  56.239  1.00  0.00     0.117 C 
BRANCH   4   5
HETATM    5  C   UNL     1       4.594  -7.011  55.403  1.00  0.00     0.049 C 
BRANCH   5   6
HETATM    6  C   UNL     1       3.825  -8.288  55.456  1.00  0.00    -0.058 A 
HETATM    7  C   UNL     1       3.904  -9.103  56.586  1.00  0.00     0.007 A 
HETATM    8  C   UNL     1       3.186 -10.297  56.638  1.00  0.00     0.001 A 
HETATM    9  C   UNL     1       2.387 -10.677  55.559  1.00  0.00     0.000 A 
HETATM   10  C   UNL     1       2.308  -9.863  54.429  1.00  0.00     0.001 A 
HETATM   11  C   UNL     1       3.026  -8.669  54.378  1.00  0.00     0.007 A 
ENDBRANCH   5   6
ENDBRANCH   4   5
ENDBRANCH   3   4
TORSDOF 3
ENDMDL
MODEL 7
REMARK VINA RESULT:      -5.3      3.369      4.944
REMARK  3 active torsions:
REMARK  status: ('A' for Active; 'I' for Inactive)
REMARK    1  A    between atoms: C_3  and  C_4 
REMARK    2  A    between atoms: C_3  and  C_5 
REMARK    3  A    between atoms: C_5  and  C_10 
ROOT
HETATM    1  O   UNL     1       2.312  -4.304  55.673  1.00  0.00    -0.648 OA
HETATM    2  O   UNL     1       4.064  -4.576  54.253  1.00  0.00    -0.648 OA
HETATM    3  C   UNL     1       3.470  -4.887  55.278  1.00  0.00     0.172 C 
ENDROOT
BRANCH   3   4
HETATM    4  C   UNL     1       3.963  -5.933  56.249  1.00  0.00     0.117 C 
BRANCH   4   5
HETATM    5  C   UNL     1       4.671  -7.086  55.528  1.00  0.00     0.049 C 
BRANCH   5   6
HETATM    6  C   UNL     1       3.842  -8.321  55.413  1.00  0.00    -0.058 A 
HETATM    7  C   UNL     1       3.126  -8.573  54.243  1.00  0.00     0.007 A 
HETATM    8  C   UNL     1       2.351  -9.728  54.134  1.00  0.00     0.001 A 
HETATM    9  C   UNL     1       2.293 -10.631  55.196  1.00  0.00     0.000 A 
HETATM   10  C   UNL     1       3.008 -10.379  56.366  1.00  0.00     0.001 A 
HETATM   11  C   UNL     1       3.784  -9.224  56.474  1.00  0.00     0.007 A 
ENDBRANCH   5   6
ENDBRANCH   4   5
ENDBRANCH   3   4
TORSDOF 3
ENDMDL
MODEL 8
REMARK VINA RESULT:      -5.3      3.530      4.592
REMARK  3 active torsions:
REMARK  status: ('A' for Active; 'I' for Inactive)
REMARK    1  A    between atoms: C_3  and  C_4 
REMARK    2  A    between atoms: C_3  and  C_5 
REMARK    3  A    between atoms: C_5  and  C_10 
ROOT
HETATM    1  O   UNL     1       2.126  -3.918  55.425  1.00  0.00    -0.648 OA
HETATM    2  O   UNL     1       3.929  -4.438  54.143  1.00  0.00    -0.648 OA
HETATM    3  C   UNL     1       3.177  -4.700  55.074  1.00  0.00     0.172 C 
ENDROOT
BRANCH   3   4
HETATM    4  C   UNL     1       3.339  -5.905  55.970  1.00  0.00     0.117 C 
BRANCH   4   5
HETATM    5  C   UNL     1       3.859  -7.121  55.195  1.00  0.00     0.049 C 
BRANCH   5   6
HETATM    6  C   UNL     1       4.067  -8.329  56.044  1.00  0.00    -0.058 A 
HETATM    7  C   UNL     1       3.083  -9.317  56.103  1.00  0.00     0.007 A 
HETATM    8  C   UNL     1       3.276 -10.448  56.897  1.00  0.00     0.001 A 
HETATM    9  C   UNL     1       4.454 -10.591  57.631  1.00  0.00     0.000 A 
HETATM   10  C   UNL     1       5.437  -9.604  57.572  1.00  0.00     0.001 A 
HETATM   11  C   UNL     1       5.244  -8.474  56.778  1.00  0.00     0.007 A 
ENDBRANCH   5   6
ENDBRANCH   4   5
ENDBRANCH   3   4
TORSDOF 3
ENDMDL
MODEL 9
REMARK VINA RESULT:      -5.3      1.540      2.405
REMARK  3 active torsions:
REMARK  status: ('A' for Active; 'I' for Inactive)
REMARK    1  A    between atoms: C_3  and  C_4 
REMARK    2  A    between atoms: C_3  and  C_5 
REMARK    3  A    between atoms: C_5  and  C_10 
ROOT
HETATM    1  O   UNL     1      -0.162 -11.765  53.879  1.00  0.00    -0.648 OA
HETATM    2  O   UNL     1       0.614 -12.147  55.981  1.00  0.00    -0.648 OA
HETATM    3  C   UNL     1       0.710 -11.576  54.901  1.00  0.00     0.172 C 
ENDROOT
BRANCH   3   4
HETATM    4  C   UNL     1       1.823 -10.616  54.555  1.00  0.00     0.117 C 
BRANCH   4   5
HETATM    5  C   UNL     1       2.775 -10.404  55.737  1.00  0.00     0.049 C 
BRANCH   5   6
HETATM    6  C   UNL     1       3.273  -9.004  55.862  1.00  0.00    -0.058 A 
HETATM    7  C   UNL     1       2.475  -7.940  55.441  1.00  0.00     0.007 A 
HETATM    8  C   UNL     1       2.939  -6.630  55.558  1.00  0.00     0.001 A 
HETATM    9  C   UNL     1       4.203  -6.384  56.096  1.00  0.00     0.000 A 
HETATM   10  C   UNL     1       5.001  -7.447  56.517  1.00  0.00     0.001 A 
HETATM   11  C   UNL     1       4.536  -8.757  56.400  1.00  0.00     0.007 A 
ENDBRANCH   5   6
ENDBRANCH   4   5
ENDBRANCH   3   4
TORSDOF 3
ENDMDL
