MODEL 1
REMARK VINA RESULT:      -5.6      0.000      0.000
REMARK  3 active torsions:
REMARK  status: ('A' for Active; 'I' for Inactive)
REMARK    1  A    between atoms: C_3  and  C_4 
REMARK    2  A    between atoms: C_3  and  C_5 
REMARK    3  A    between atoms: C_5  and  C_10 
ROOT
HETATM    1  O   UNL     1       2.285  -4.326  59.775  1.00  0.00    -0.648 OA
HETATM    2  O   UNL     1       1.044  -5.594  58.356  1.00  0.00    -0.648 OA
HETATM    3  C   UNL     1       2.119  -5.331  58.880  1.00  0.00     0.172 C 
ENDROOT
BRANCH   3   4
HETATM    4  C   UNL     1       3.403  -6.066  58.577  1.00  0.00     0.117 C 
BRANCH   4   5
HETATM    5  C   UNL     1       4.226  -5.347  57.502  1.00  0.00     0.049 C 
BRANCH   5   6
HETATM    6  C   UNL     1       5.423  -4.637  58.037  1.00  0.00    -0.058 A 
HETATM    7  C   UNL     1       6.118  -3.736  57.230  1.00  0.00     0.007 A 
HETATM    8  C   UNL     1       7.238  -3.070  57.730  1.00  0.00     0.001 A 
HETATM    9  C   UNL     1       7.662  -3.307  59.037  1.00  0.00     0.000 A 
HETATM   10  C   UNL     1       6.968  -4.209  59.844  1.00  0.00     0.001 A 
HETATM   11  C   UNL     1       5.848  -4.872  59.344  1.00  0.00     0.007 A 
ENDBRANCH   5   6
ENDBRANCH   4   5
ENDBRANCH   3   4
TORSDOF 3
ENDMDL
MODEL 2
REMARK VINA RESULT:      -5.5      3.403      4.971
REMARK  3 active torsions:
REMARK  status: ('A' for Active; 'I' for Inactive)
REMARK    1  A    between atoms: C_3  and  C_4 
REMARK    2  A    between atoms: C_3  and  C_5 
REMARK    3  A    between atoms: C_5  and  C_10 
ROOT
HETATM    1  O   UNL     1       9.512  -4.369  59.806  1.00  0.00    -0.648 OA
HETATM    2  O   UNL     1       8.732  -5.594  61.552  1.00  0.00    -0.648 OA
HETATM    3  C   UNL     1       8.534  -4.803  60.638  1.00  0.00     0.172 C 
ENDROOT
BRANCH   3   4
HETATM    4  C   UNL     1       7.190  -4.186  60.338  1.00  0.00     0.117 C 
BRANCH   4   5
HETATM    5  C   UNL     1       7.165  -3.528  58.953  1.00  0.00     0.049 C 
BRANCH   5   6
HETATM    6  C   UNL     1       6.106  -4.067  58.052  1.00  0.00    -0.058 A 
HETATM    7  C   UNL     1       5.193  -5.005  58.532  1.00  0.00     0.007 A 
HETATM    8  C   UNL     1       4.202  -5.510  57.690  1.00  0.00     0.001 A 
HETATM    9  C   UNL     1       4.125  -5.075  56.366  1.00  0.00     0.000 A 
HETATM   10  C   UNL     1       5.038  -4.137  55.885  1.00  0.00     0.001 A 
HETATM   11  C   UNL     1       6.028  -3.632  56.729  1.00  0.00     0.007 A 
ENDBRANCH   5   6
ENDBRANCH   4   5
ENDBRANCH   3   4
TORSDOF 3
ENDMDL
MODEL 3
REMARK VINA RESULT:      -5.5      3.386      4.810
REMARK  3 active torsions:
REMARK  status: ('A' for Active; 'I' for Inactive)
REMARK    1  A    between atoms: C_3  and  C_4 
REMARK    2  A    between atoms: C_3  and  C_5 
REMARK    3  A    between atoms: C_5  and  C_10 
ROOT
HETATM    1  O   UNL     1       8.730  -5.485  61.599  1.00  0.00    -0.648 OA
HETATM    2  O   UNL     1       9.608  -4.476  59.762  1.00  0.00    -0.648 OA
HETATM    3  C   UNL     1       8.674  -4.644  60.537  1.00  0.00     0.172 C 
ENDROOT
BRANCH   3   4
HETATM    4  C   UNL     1       7.333  -3.965  60.394  1.00  0.00     0.117 C 
BRANCH   4   5
HETATM    5  C   UNL     1       7.091  -3.485  58.959  1.00  0.00     0.049 C 
BRANCH   5   6
HETATM    6  C   UNL     1       5.992  -4.212  58.260  1.00  0.00    -0.058 A 
HETATM    7  C   UNL     1       5.712  -3.932  56.922  1.00  0.00     0.007 A 
HETATM    8  C   UNL     1       4.684  -4.612  56.267  1.00  0.00     0.001 A 
HETATM    9  C   UNL     1       3.938  -5.572  56.951  1.00  0.00     0.000 A 
HETATM   10  C   UNL     1       4.217  -5.852  58.288  1.00  0.00     0.001 A 
HETATM   11  C   UNL     1       5.245  -5.172  58.942  1.00  0.00     0.007 A 
ENDBRANCH   5   6
ENDBRANCH   4   5
ENDBRANCH   3   4
TORSDOF 3
ENDMDL
MODEL 4
REMARK VINA RESULT:      -5.5      0.154      1.748
REMARK  3 active torsions:
REMARK  status: ('A' for Active; 'I' for Inactive)
REMARK    1  A    between atoms: C_3  and  C_4 
REMARK    2  A    between atoms: C_3  and  C_5 
REMARK    3  A    between atoms: C_5  and  C_10 
ROOT
HETATM    1  O   UNL     1       1.175  -5.458  58.024  1.00  0.00    -0.648 OA
HETATM    2  O   UNL     1       2.066  -4.409  59.832  1.00  0.00    -0.648 OA
HETATM    3  C   UNL     1       2.173  -5.205  58.907  1.00  0.00     0.172 C 
ENDROOT
BRANCH   3   4
HETATM    4  C   UNL     1       3.411  -6.030  58.647  1.00  0.00     0.117 C 
BRANCH   4   5
HETATM    5  C   UNL     1       4.285  -5.409  57.552  1.00  0.00     0.049 C 
BRANCH   5   6
HETATM    6  C   UNL     1       5.460  -4.656  58.078  1.00  0.00    -0.058 A 
HETATM    7  C   UNL     1       5.876  -4.844  59.396  1.00  0.00     0.007 A 
HETATM    8  C   UNL     1       6.975  -4.140  59.889  1.00  0.00     0.001 A 
HETATM    9  C   UNL     1       7.659  -3.248  59.062  1.00  0.00     0.000 A 
HETATM   10  C   UNL     1       7.243  -3.059  57.744  1.00  0.00     0.001 A 
HETATM   11  C   UNL     1       6.144  -3.764  57.252  1.00  0.00     0.007 A 
ENDBRANCH   5   6
ENDBRANCH   4   5
ENDBRANCH   3   4
TORSDOF 3
ENDMDL
MODEL 5
REMARK VINA RESULT:      -5.4      3.449      4.698
REMARK  3 active torsions:
REMARK  status: ('A' for Active; 'I' for Inactive)
REMARK    1  A    between atoms: C_3  and  C_4 
REMARK    2  A    between atoms: C_3  and  C_5 
REMARK    3  A    between atoms: C_5  and  C_10 
ROOT
HETATM    1  O   UNL     1       4.506   1.519  57.454  1.00  0.00    -0.648 OA
HETATM    2  O   UNL     1       4.814   0.384  55.510  1.00  0.00    -0.648 OA
HETATM    3  C   UNL     1       5.128   0.601  56.674  1.00  0.00     0.172 C 
ENDROOT
BRANCH   3   4
HETATM    4  C   UNL     1       6.264  -0.099  57.381  1.00  0.00     0.117 C 
BRANCH   4   5
HETATM    5  C   UNL     1       6.506  -1.502  56.812  1.00  0.00     0.049 C 
BRANCH   5   6
HETATM    6  C   UNL     1       6.542  -2.572  57.850  1.00  0.00    -0.058 A 
HETATM    7  C   UNL     1       7.686  -2.749  58.629  1.00  0.00     0.007 A 
HETATM    8  C   UNL     1       7.722  -3.749  59.601  1.00  0.00     0.001 A 
HETATM    9  C   UNL     1       6.612  -4.573  59.793  1.00  0.00     0.000 A 
HETATM   10  C   UNL     1       5.469  -4.397  59.014  1.00  0.00     0.001 A 
HETATM   11  C   UNL     1       5.434  -3.396  58.044  1.00  0.00     0.007 A 
ENDBRANCH   5   6
ENDBRANCH   4   5
ENDBRANCH   3   4
TORSDOF 3
ENDMDL
MODEL 6
REMARK VINA RESULT:      -5.3      2.863      4.734
REMARK  3 active torsions:
REMARK  status: ('A' for Active; 'I' for Inactive)
REMARK    1  A    between atoms: C_3  and  C_4 
REMARK    2  A    between atoms: C_3  and  C_5 
REMARK    3  A    between atoms: C_5  and  C_10 
ROOT
HETATM    1  O   UNL     1       5.964  -0.956  57.468  1.00  0.00    -0.648 OA
HETATM    2  O   UNL     1       8.006  -0.838  58.458  1.00  0.00    -0.648 OA
HETATM    3  C   UNL     1       7.143  -1.486  57.878  1.00  0.00     0.172 C 
ENDROOT
BRANCH   3   4
HETATM    4  C   UNL     1       7.264  -2.959  57.572  1.00  0.00     0.117 C 
BRANCH   4   5
HETATM    5  C   UNL     1       6.535  -3.815  58.614  1.00  0.00     0.049 C 
BRANCH   5   6
HETATM    6  C   UNL     1       5.436  -4.647  58.044  1.00  0.00    -0.058 A 
HETATM    7  C   UNL     1       5.075  -4.502  56.704  1.00  0.00     0.007 A 
HETATM    8  C   UNL     1       4.047  -5.280  56.170  1.00  0.00     0.001 A 
HETATM    9  C   UNL     1       3.381  -6.203  56.976  1.00  0.00     0.000 A 
HETATM   10  C   UNL     1       3.741  -6.348  58.316  1.00  0.00     0.001 A 
HETATM   11  C   UNL     1       4.770  -5.571  58.849  1.00  0.00     0.007 A 
ENDBRANCH   5   6
ENDBRANCH   4   5
ENDBRANCH   3   4
TORSDOF 3
ENDMDL
MODEL 7
REMARK VINA RESULT:      -5.3      3.175      4.625
REMARK  3 active torsions:
REMARK  status: ('A' for Active; 'I' for Inactive)
REMARK    1  A    between atoms: C_3  and  C_4 
REMARK    2  A    between atoms: C_3  and  C_5 
REMARK    3  A    between atoms: C_5  and  C_10 
ROOT
HETATM    1  O   UNL     1       5.125  -0.280  55.688  1.00  0.00    -0.648 OA
HETATM    2  O   UNL     1       4.804   1.090  57.472  1.00  0.00    -0.648 OA
HETATM    3  C   UNL     1       5.424   0.185  56.927  1.00  0.00     0.172 C 
ENDROOT
BRANCH   3   4
HETATM    4  C   UNL     1       6.576  -0.550  57.569  1.00  0.00     0.117 C 
BRANCH   4   5
HETATM    5  C   UNL     1       6.869  -1.876  56.857  1.00  0.00     0.049 C 
BRANCH   5   6
HETATM    6  C   UNL     1       6.266  -3.063  57.529  1.00  0.00    -0.058 A 
HETATM    7  C   UNL     1       5.324  -3.841  56.856  1.00  0.00     0.007 A 
HETATM    8  C   UNL     1       4.759  -4.952  57.483  1.00  0.00     0.001 A 
HETATM    9  C   UNL     1       5.138  -5.285  58.783  1.00  0.00     0.000 A 
HETATM   10  C   UNL     1       6.081  -4.508  59.457  1.00  0.00     0.001 A 
HETATM   11  C   UNL     1       6.645  -3.397  58.829  1.00  0.00     0.007 A 
ENDBRANCH   5   6
ENDBRANCH   4   5
ENDBRANCH   3   4
TORSDOF 3
ENDMDL
MODEL 8
REMARK VINA RESULT:      -5.3      2.805      4.155
REMARK  3 active torsions:
REMARK  status: ('A' for Active; 'I' for Inactive)
REMARK    1  A    between atoms: C_3  and  C_4 
REMARK    2  A    between atoms: C_3  and  C_5 
REMARK    3  A    between atoms: C_5  and  C_10 
ROOT
HETATM    1  O   UNL     1       4.779  -5.830  59.349  1.00  0.00    -0.648 OA
HETATM    2  O   UNL     1       5.951  -4.000  60.010  1.00  0.00    -0.648 OA
HETATM    3  C   UNL     1       5.480  -4.693  59.117  1.00  0.00     0.172 C 
ENDROOT
BRANCH   3   4
HETATM    4  C   UNL     1       5.644  -4.394  57.646  1.00  0.00     0.117 C 
BRANCH   4   5
HETATM    5  C   UNL     1       6.702  -3.312  57.403  1.00  0.00     0.049 C 
BRANCH   5   6
HETATM    6  C   UNL     1       6.140  -2.024  56.904  1.00  0.00    -0.058 A 
HETATM    7  C   UNL     1       6.117  -0.904  57.735  1.00  0.00     0.007 A 
HETATM    8  C   UNL     1       5.591   0.301  57.269  1.00  0.00     0.001 A 
HETATM    9  C   UNL     1       5.089   0.386  55.970  1.00  0.00     0.000 A 
HETATM   10  C   UNL     1       5.112  -0.733  55.138  1.00  0.00     0.001 A 
HETATM   11  C   UNL     1       5.638  -1.938  55.605  1.00  0.00     0.007 A 
ENDBRANCH   5   6
ENDBRANCH   4   5
ENDBRANCH   3   4
TORSDOF 3
ENDMDL
MODEL 9
REMARK VINA RESULT:      -5.3      1.735      2.540
REMARK  3 active torsions:
REMARK  status: ('A' for Active; 'I' for Inactive)
REMARK    1  A    between atoms: C_3  and  C_4 
REMARK    2  A    between atoms: C_3  and  C_5 
REMARK    3  A    between atoms: C_5  and  C_10 
ROOT
HETATM    1  O   UNL     1       2.573  -6.569  57.971  1.00  0.00    -0.648 OA
HETATM    2  O   UNL     1       3.968  -6.559  59.763  1.00  0.00    -0.648 OA
HETATM    3  C   UNL     1       3.696  -6.188  58.628  1.00  0.00     0.172 C 
ENDROOT
BRANCH   3   4
HETATM    4  C   UNL     1       4.584  -5.288  57.803  1.00  0.00     0.117 C 
BRANCH   4   5
HETATM    5  C   UNL     1       5.701  -4.666  58.648  1.00  0.00     0.049 C 
BRANCH   5   6
HETATM    6  C   UNL     1       6.048  -3.271  58.251  1.00  0.00    -0.058 A 
HETATM    7  C   UNL     1       5.074  -2.443  57.693  1.00  0.00     0.007 A 
HETATM    8  C   UNL     1       5.396  -1.137  57.321  1.00  0.00     0.001 A 
HETATM    9  C   UNL     1       6.694  -0.661  57.508  1.00  0.00     0.000 A 
HETATM   10  C   UNL     1       7.669  -1.489  58.065  1.00  0.00     0.001 A 
HETATM   11  C   UNL     1       7.345  -2.793  58.437  1.00  0.00     0.007 A 
ENDBRANCH   5   6
ENDBRANCH   4   5
ENDBRANCH   3   4
TORSDOF 3
ENDMDL
