MODEL 1
REMARK VINA RESULT:      -5.6      0.000      0.000
REMARK  3 active torsions:
REMARK  status: ('A' for Active; 'I' for Inactive)
REMARK    1  A    between atoms: C_3  and  C_4 
REMARK    2  A    between atoms: C_3  and  C_5 
REMARK    3  A    between atoms: C_5  and  C_10 
ROOT
HETATM    1  O   UNL     1       2.384  -4.509  59.768  1.00  0.00    -0.648 OA
HETATM    2  O   UNL     1       1.313  -5.709  58.165  1.00  0.00    -0.648 OA
HETATM    3  C   UNL     1       2.343  -5.409  58.755  1.00  0.00     0.172 C 
ENDROOT
BRANCH   3   4
HETATM    4  C   UNL     1       3.701  -5.974  58.415  1.00  0.00     0.117 C 
BRANCH   4   5
HETATM    5  C   UNL     1       4.488  -5.038  57.490  1.00  0.00     0.049 C 
BRANCH   5   6
HETATM    6  C   UNL     1       5.699  -4.444  58.125  1.00  0.00    -0.058 A 
HETATM    7  C   UNL     1       6.048  -4.800  59.429  1.00  0.00     0.007 A 
HETATM    8  C   UNL     1       7.181  -4.245  60.024  1.00  0.00     0.001 A 
HETATM    9  C   UNL     1       7.965  -3.334  59.315  1.00  0.00     0.000 A 
HETATM   10  C   UNL     1       7.617  -2.979  58.013  1.00  0.00     0.001 A 
HETATM   11  C   UNL     1       6.484  -3.535  57.418  1.00  0.00     0.007 A 
ENDBRANCH   5   6
ENDBRANCH   4   5
ENDBRANCH   3   4
TORSDOF 3
ENDMDL
MODEL 2
REMARK VINA RESULT:      -5.6      3.299      4.747
REMARK  3 active torsions:
REMARK  status: ('A' for Active; 'I' for Inactive)
REMARK    1  A    between atoms: C_3  and  C_4 
REMARK    2  A    between atoms: C_3  and  C_5 
REMARK    3  A    between atoms: C_5  and  C_10 
ROOT
HETATM    1  O   UNL     1       9.686  -4.632  59.854  1.00  0.00    -0.648 OA
HETATM    2  O   UNL     1       8.669  -5.805  61.513  1.00  0.00    -0.648 OA
HETATM    3  C   UNL     1       8.647  -4.905  60.682  1.00  0.00     0.172 C 
ENDROOT
BRANCH   3   4
HETATM    4  C   UNL     1       7.480  -3.967  60.491  1.00  0.00     0.117 C 
BRANCH   4   5
HETATM    5  C   UNL     1       7.440  -3.395  59.069  1.00  0.00     0.049 C 
BRANCH   5   6
HETATM    6  C   UNL     1       6.346  -3.958  58.227  1.00  0.00    -0.058 A 
HETATM    7  C   UNL     1       5.437  -4.862  58.776  1.00  0.00     0.007 A 
HETATM    8  C   UNL     1       4.413  -5.389  57.989  1.00  0.00     0.001 A 
HETATM    9  C   UNL     1       4.299  -5.011  56.651  1.00  0.00     0.000 A 
HETATM   10  C   UNL     1       5.208  -4.107  56.100  1.00  0.00     0.001 A 
HETATM   11  C   UNL     1       6.230  -3.580  56.889  1.00  0.00     0.007 A 
ENDBRANCH   5   6
ENDBRANCH   4   5
ENDBRANCH   3   4
TORSDOF 3
ENDMDL
MODEL 3
REMARK VINA RESULT:      -5.5      0.238      1.473
REMARK  3 active torsions:
REMARK  status: ('A' for Active; 'I' for Inactive)
REMARK    1  A    between atoms: C_3  and  C_4 
REMARK    2  A    between atoms: C_3  and  C_5 
REMARK    3  A    between atoms: C_5  and  C_10 
ROOT
HETATM    1  O   UNL     1       2.406  -4.859  59.771  1.00  0.00    -0.648 OA
HETATM    2  O   UNL     1       1.367  -5.583  57.884  1.00  0.00    -0.648 OA
HETATM    3  C   UNL     1       2.387  -5.447  58.549  1.00  0.00     0.172 C 
ENDROOT
BRANCH   3   4
HETATM    4  C   UNL     1       3.756  -5.884  58.086  1.00  0.00     0.117 C 
BRANCH   4   5
HETATM    5  C   UNL     1       4.501  -4.751  57.371  1.00  0.00     0.049 C 
BRANCH   5   6
HETATM    6  C   UNL     1       5.718  -4.284  58.093  1.00  0.00    -0.058 A 
HETATM    7  C   UNL     1       6.609  -3.410  57.468  1.00  0.00     0.007 A 
HETATM    8  C   UNL     1       7.748  -2.972  58.143  1.00  0.00     0.001 A 
HETATM    9  C   UNL     1       7.997  -3.408  59.445  1.00  0.00     0.000 A 
HETATM   10  C   UNL     1       7.108  -4.281  60.071  1.00  0.00     0.001 A 
HETATM   11  C   UNL     1       5.968  -4.718  59.395  1.00  0.00     0.007 A 
ENDBRANCH   5   6
ENDBRANCH   4   5
ENDBRANCH   3   4
TORSDOF 3
ENDMDL
MODEL 4
REMARK VINA RESULT:      -5.5      3.519      4.594
REMARK  3 active torsions:
REMARK  status: ('A' for Active; 'I' for Inactive)
REMARK    1  A    between atoms: C_3  and  C_4 
REMARK    2  A    between atoms: C_3  and  C_5 
REMARK    3  A    between atoms: C_5  and  C_10 
ROOT
HETATM    1  O   UNL     1       4.983   0.501  55.474  1.00  0.00    -0.648 OA
HETATM    2  O   UNL     1       4.342   1.614  57.348  1.00  0.00    -0.648 OA
HETATM    3  C   UNL     1       5.016   0.746  56.807  1.00  0.00     0.172 C 
ENDROOT
BRANCH   3   4
HETATM    4  C   UNL     1       5.945  -0.181  57.553  1.00  0.00     0.117 C 
BRANCH   4   5
HETATM    5  C   UNL     1       5.792  -1.633  57.085  1.00  0.00     0.049 C 
BRANCH   5   6
HETATM    6  C   UNL     1       6.274  -2.637  58.076  1.00  0.00    -0.058 A 
HETATM    7  C   UNL     1       5.417  -3.645  58.521  1.00  0.00     0.007 A 
HETATM    8  C   UNL     1       5.867  -4.585  59.448  1.00  0.00     0.001 A 
HETATM    9  C   UNL     1       7.174  -4.517  59.931  1.00  0.00     0.000 A 
HETATM   10  C   UNL     1       8.031  -3.510  59.487  1.00  0.00     0.001 A 
HETATM   11  C   UNL     1       7.581  -2.571  58.559  1.00  0.00     0.007 A 
ENDBRANCH   5   6
ENDBRANCH   4   5
ENDBRANCH   3   4
TORSDOF 3
ENDMDL
MODEL 5
REMARK VINA RESULT:      -5.4      3.474      4.608
REMARK  3 active torsions:
REMARK  status: ('A' for Active; 'I' for Inactive)
REMARK    1  A    between atoms: C_3  and  C_4 
REMARK    2  A    between atoms: C_3  and  C_5 
REMARK    3  A    between atoms: C_5  and  C_10 
ROOT
HETATM    1  O   UNL     1       4.453   1.562  57.526  1.00  0.00    -0.648 OA
HETATM    2  O   UNL     1       4.809   0.448  55.578  1.00  0.00    -0.648 OA
HETATM    3  C   UNL     1       5.075   0.632  56.760  1.00  0.00     0.172 C 
ENDROOT
BRANCH   3   4
HETATM    4  C   UNL     1       6.147  -0.124  57.507  1.00  0.00     0.117 C 
BRANCH   4   5
HETATM    5  C   UNL     1       6.384  -1.514  56.905  1.00  0.00     0.049 C 
BRANCH   5   6
HETATM    6  C   UNL     1       6.496  -2.597  57.923  1.00  0.00    -0.058 A 
HETATM    7  C   UNL     1       7.675  -2.749  58.654  1.00  0.00     0.007 A 
HETATM    8  C   UNL     1       7.780  -3.763  59.606  1.00  0.00     0.001 A 
HETATM    9  C   UNL     1       6.706  -4.625  59.828  1.00  0.00     0.000 A 
HETATM   10  C   UNL     1       5.527  -4.474  59.098  1.00  0.00     0.001 A 
HETATM   11  C   UNL     1       5.422  -3.459  58.146  1.00  0.00     0.007 A 
ENDBRANCH   5   6
ENDBRANCH   4   5
ENDBRANCH   3   4
TORSDOF 3
ENDMDL
MODEL 6
REMARK VINA RESULT:      -5.4      3.165      5.018
REMARK  3 active torsions:
REMARK  status: ('A' for Active; 'I' for Inactive)
REMARK    1  A    between atoms: C_3  and  C_4 
REMARK    2  A    between atoms: C_3  and  C_5 
REMARK    3  A    between atoms: C_5  and  C_10 
ROOT
HETATM    1  O   UNL     1       8.641  -4.823  61.035  1.00  0.00    -0.648 OA
HETATM    2  O   UNL     1       8.358  -3.023  59.678  1.00  0.00    -0.648 OA
HETATM    3  C   UNL     1       7.924  -4.052  60.182  1.00  0.00     0.172 C 
ENDROOT
BRANCH   3   4
HETATM    4  C   UNL     1       6.551  -4.611  59.896  1.00  0.00     0.117 C 
BRANCH   4   5
HETATM    5  C   UNL     1       5.950  -4.014  58.618  1.00  0.00     0.049 C 
BRANCH   5   6
HETATM    6  C   UNL     1       4.974  -4.911  57.938  1.00  0.00    -0.058 A 
HETATM    7  C   UNL     1       4.744  -4.781  56.568  1.00  0.00     0.007 A 
HETATM    8  C   UNL     1       3.831  -5.621  55.930  1.00  0.00     0.001 A 
HETATM    9  C   UNL     1       3.146  -6.590  56.663  1.00  0.00     0.000 A 
HETATM   10  C   UNL     1       3.375  -6.721  58.033  1.00  0.00     0.001 A 
HETATM   11  C   UNL     1       4.289  -5.882  58.669  1.00  0.00     0.007 A 
ENDBRANCH   5   6
ENDBRANCH   4   5
ENDBRANCH   3   4
TORSDOF 3
ENDMDL
MODEL 7
REMARK VINA RESULT:      -5.4      1.510      2.211
REMARK  3 active torsions:
REMARK  status: ('A' for Active; 'I' for Inactive)
REMARK    1  A    between atoms: C_3  and  C_4 
REMARK    2  A    between atoms: C_3  and  C_5 
REMARK    3  A    between atoms: C_5  and  C_10 
ROOT
HETATM    1  O   UNL     1       3.309  -6.199  59.722  1.00  0.00    -0.648 OA
HETATM    2  O   UNL     1       2.688  -7.246  57.804  1.00  0.00    -0.648 OA
HETATM    3  C   UNL     1       3.363  -6.404  58.383  1.00  0.00     0.172 C 
ENDROOT
BRANCH   3   4
HETATM    4  C   UNL     1       4.315  -5.464  57.682  1.00  0.00     0.117 C 
BRANCH   4   5
HETATM    5  C   UNL     1       5.382  -4.922  58.640  1.00  0.00     0.049 C 
BRANCH   5   6
HETATM    6  C   UNL     1       5.881  -3.565  58.275  1.00  0.00    -0.058 A 
HETATM    7  C   UNL     1       5.007  -2.624  57.729  1.00  0.00     0.007 A 
HETATM    8  C   UNL     1       5.473  -1.354  57.388  1.00  0.00     0.001 A 
HETATM    9  C   UNL     1       6.813  -1.025  57.593  1.00  0.00     0.000 A 
HETATM   10  C   UNL     1       7.687  -1.965  58.139  1.00  0.00     0.001 A 
HETATM   11  C   UNL     1       7.221  -3.234  58.480  1.00  0.00     0.007 A 
ENDBRANCH   5   6
ENDBRANCH   4   5
ENDBRANCH   3   4
TORSDOF 3
ENDMDL
MODEL 8
REMARK VINA RESULT:      -5.3      3.412      4.889
REMARK  3 active torsions:
REMARK  status: ('A' for Active; 'I' for Inactive)
REMARK    1  A    between atoms: C_3  and  C_4 
REMARK    2  A    between atoms: C_3  and  C_5 
REMARK    3  A    between atoms: C_5  and  C_10 
ROOT
HETATM    1  O   UNL     1       4.785   0.929  57.011  1.00  0.00    -0.648 OA
HETATM    2  O   UNL     1       6.182   0.158  55.394  1.00  0.00    -0.648 OA
HETATM    3  C   UNL     1       5.841   0.201  56.569  1.00  0.00     0.172 C 
ENDROOT
BRANCH   3   4
HETATM    4  C   UNL     1       6.564  -0.520  57.681  1.00  0.00     0.117 C 
BRANCH   4   5
HETATM    5  C   UNL     1       7.166  -1.845  57.198  1.00  0.00     0.049 C 
BRANCH   5   6
HETATM    6  C   UNL     1       6.391  -3.046  57.623  1.00  0.00    -0.058 A 
HETATM    7  C   UNL     1       5.472  -3.627  56.749  1.00  0.00     0.007 A 
HETATM    8  C   UNL     1       4.746  -4.751  57.145  1.00  0.00     0.001 A 
HETATM    9  C   UNL     1       4.941  -5.294  58.416  1.00  0.00     0.000 A 
HETATM   10  C   UNL     1       5.860  -4.713  59.289  1.00  0.00     0.001 A 
HETATM   11  C   UNL     1       6.585  -3.590  58.892  1.00  0.00     0.007 A 
ENDBRANCH   5   6
ENDBRANCH   4   5
ENDBRANCH   3   4
TORSDOF 3
ENDMDL
MODEL 9
REMARK VINA RESULT:      -5.3      3.284      4.740
REMARK  3 active torsions:
REMARK  status: ('A' for Active; 'I' for Inactive)
REMARK    1  A    between atoms: C_3  and  C_4 
REMARK    2  A    between atoms: C_3  and  C_5 
REMARK    3  A    between atoms: C_5  and  C_10 
ROOT
HETATM    1  O   UNL     1       6.195   0.093  55.715  1.00  0.00    -0.648 OA
HETATM    2  O   UNL     1       4.994   0.802  57.509  1.00  0.00    -0.648 OA
HETATM    3  C   UNL     1       5.931   0.164  57.043  1.00  0.00     0.172 C 
ENDROOT
BRANCH   3   4
HETATM    4  C   UNL     1       6.889  -0.651  57.878  1.00  0.00     0.117 C 
BRANCH   4   5
HETATM    5  C   UNL     1       7.279  -1.958  57.179  1.00  0.00     0.049 C 
BRANCH   5   6
HETATM    6  C   UNL     1       6.439  -3.124  57.576  1.00  0.00    -0.058 A 
HETATM    7  C   UNL     1       6.559  -3.668  58.855  1.00  0.00     0.007 A 
HETATM    8  C   UNL     1       5.773  -4.759  59.227  1.00  0.00     0.001 A 
HETATM    9  C   UNL     1       4.867  -5.306  58.319  1.00  0.00     0.000 A 
HETATM   10  C   UNL     1       4.746  -4.764  57.040  1.00  0.00     0.001 A 
HETATM   11  C   UNL     1       5.532  -3.673  56.669  1.00  0.00     0.007 A 
ENDBRANCH   5   6
ENDBRANCH   4   5
ENDBRANCH   3   4
TORSDOF 3
ENDMDL
