MODEL 1
REMARK VINA RESULT:      -5.6      0.000      0.000
REMARK  3 active torsions:
REMARK  status: ('A' for Active; 'I' for Inactive)
REMARK    1  A    between atoms: C_3  and  C_4 
REMARK    2  A    between atoms: C_3  and  C_5 
REMARK    3  A    between atoms: C_5  and  C_10 
ROOT
HETATM    1  O   UNL     1       8.649  -5.719  61.481  1.00  0.00    -0.648 OA
HETATM    2  O   UNL     1       9.672  -4.499  59.861  1.00  0.00    -0.648 OA
HETATM    3  C   UNL     1       8.690  -4.729  60.555  1.00  0.00     0.172 C 
ENDROOT
BRANCH   3   4
HETATM    4  C   UNL     1       7.390  -3.968  60.450  1.00  0.00     0.117 C 
BRANCH   4   5
HETATM    5  C   UNL     1       7.125  -3.495  59.016  1.00  0.00     0.049 C 
BRANCH   5   6
HETATM    6  C   UNL     1       6.014  -4.223  58.340  1.00  0.00    -0.058 A 
HETATM    7  C   UNL     1       5.748  -3.993  56.990  1.00  0.00     0.007 A 
HETATM    8  C   UNL     1       4.709  -4.673  56.356  1.00  0.00     0.001 A 
HETATM    9  C   UNL     1       3.934  -5.585  57.073  1.00  0.00     0.000 A 
HETATM   10  C   UNL     1       4.198  -5.816  58.423  1.00  0.00     0.001 A 
HETATM   11  C   UNL     1       5.238  -5.135  59.056  1.00  0.00     0.007 A 
ENDBRANCH   5   6
ENDBRANCH   4   5
ENDBRANCH   3   4
TORSDOF 3
ENDMDL
MODEL 2
REMARK VINA RESULT:      -5.6      3.357      4.829
REMARK  3 active torsions:
REMARK  status: ('A' for Active; 'I' for Inactive)
REMARK    1  A    between atoms: C_3  and  C_4 
REMARK    2  A    between atoms: C_3  and  C_5 
REMARK    3  A    between atoms: C_5  and  C_10 
ROOT
HETATM    1  O   UNL     1       2.211  -4.408  59.790  1.00  0.00    -0.648 OA
HETATM    2  O   UNL     1       1.051  -5.637  58.271  1.00  0.00    -0.648 OA
HETATM    3  C   UNL     1       2.101  -5.377  58.848  1.00  0.00     0.172 C 
ENDROOT
BRANCH   3   4
HETATM    4  C   UNL     1       3.409  -6.075  58.565  1.00  0.00     0.117 C 
BRANCH   4   5
HETATM    5  C   UNL     1       4.227  -5.336  57.500  1.00  0.00     0.049 C 
BRANCH   5   6
HETATM    6  C   UNL     1       5.425  -4.634  58.044  1.00  0.00    -0.058 A 
HETATM    7  C   UNL     1       6.129  -3.734  57.243  1.00  0.00     0.007 A 
HETATM    8  C   UNL     1       7.250  -3.077  57.751  1.00  0.00     0.001 A 
HETATM    9  C   UNL     1       7.667  -3.321  59.060  1.00  0.00     0.000 A 
HETATM   10  C   UNL     1       6.964  -4.221  59.861  1.00  0.00     0.001 A 
HETATM   11  C   UNL     1       5.843  -4.876  59.353  1.00  0.00     0.007 A 
ENDBRANCH   5   6
ENDBRANCH   4   5
ENDBRANCH   3   4
TORSDOF 3
ENDMDL
MODEL 3
REMARK VINA RESULT:      -5.6      3.306      5.025
REMARK  3 active torsions:
REMARK  status: ('A' for Active; 'I' for Inactive)
REMARK    1  A    between atoms: C_3  and  C_4 
REMARK    2  A    between atoms: C_3  and  C_5 
REMARK    3  A    between atoms: C_5  and  C_10 
ROOT
HETATM    1  O   UNL     1       1.261  -5.789  58.066  1.00  0.00    -0.648 OA
HETATM    2  O   UNL     1       2.268  -4.660  59.761  1.00  0.00    -0.648 OA
HETATM    3  C   UNL     1       2.341  -5.396  58.784  1.00  0.00     0.172 C 
ENDROOT
BRANCH   3   4
HETATM    4  C   UNL     1       3.634  -5.985  58.273  1.00  0.00     0.117 C 
BRANCH   4   5
HETATM    5  C   UNL     1       4.414  -4.981  57.416  1.00  0.00     0.049 C 
BRANCH   5   6
HETATM    6  C   UNL     1       5.621  -4.426  58.093  1.00  0.00    -0.058 A 
HETATM    7  C   UNL     1       5.924  -4.806  59.400  1.00  0.00     0.007 A 
HETATM    8  C   UNL     1       7.053  -4.287  60.034  1.00  0.00     0.001 A 
HETATM    9  C   UNL     1       7.880  -3.388  59.360  1.00  0.00     0.000 A 
HETATM   10  C   UNL     1       7.577  -3.008  58.052  1.00  0.00     0.001 A 
HETATM   11  C   UNL     1       6.449  -3.528  57.419  1.00  0.00     0.007 A 
ENDBRANCH   5   6
ENDBRANCH   4   5
ENDBRANCH   3   4
TORSDOF 3
ENDMDL
MODEL 4
REMARK VINA RESULT:      -5.5      4.229      5.380
REMARK  3 active torsions:
REMARK  status: ('A' for Active; 'I' for Inactive)
REMARK    1  A    between atoms: C_3  and  C_4 
REMARK    2  A    between atoms: C_3  and  C_5 
REMARK    3  A    between atoms: C_5  and  C_10 
ROOT
HETATM    1  O   UNL     1       4.723   0.745  55.587  1.00  0.00    -0.648 OA
HETATM    2  O   UNL     1       4.269   1.667  57.614  1.00  0.00    -0.648 OA
HETATM    3  C   UNL     1       4.912   0.886  56.922  1.00  0.00     0.172 C 
ENDROOT
BRANCH   3   4
HETATM    4  C   UNL     1       5.972  -0.041  57.467  1.00  0.00     0.117 C 
BRANCH   4   5
HETATM    5  C   UNL     1       5.752  -1.486  57.006  1.00  0.00     0.049 C 
BRANCH   5   6
HETATM    6  C   UNL     1       6.209  -2.507  57.992  1.00  0.00    -0.058 A 
HETATM    7  C   UNL     1       7.529  -2.500  58.442  1.00  0.00     0.007 A 
HETATM    8  C   UNL     1       7.958  -3.454  59.365  1.00  0.00     0.001 A 
HETATM    9  C   UNL     1       7.065  -4.416  59.837  1.00  0.00     0.000 A 
HETATM   10  C   UNL     1       5.745  -4.425  59.387  1.00  0.00     0.001 A 
HETATM   11  C   UNL     1       5.317  -3.469  58.466  1.00  0.00     0.007 A 
ENDBRANCH   5   6
ENDBRANCH   4   5
ENDBRANCH   3   4
TORSDOF 3
ENDMDL
MODEL 5
REMARK VINA RESULT:      -5.5      3.393      5.063
REMARK  3 active torsions:
REMARK  status: ('A' for Active; 'I' for Inactive)
REMARK    1  A    between atoms: C_3  and  C_4 
REMARK    2  A    between atoms: C_3  and  C_5 
REMARK    3  A    between atoms: C_5  and  C_10 
ROOT
HETATM    1  O   UNL     1       2.078  -4.637  59.773  1.00  0.00    -0.648 OA
HETATM    2  O   UNL     1       1.095  -5.605  57.967  1.00  0.00    -0.648 OA
HETATM    3  C   UNL     1       2.072  -5.454  58.690  1.00  0.00     0.172 C 
ENDROOT
BRANCH   3   4
HETATM    4  C   UNL     1       3.402  -6.129  58.456  1.00  0.00     0.117 C 
BRANCH   4   5
HETATM    5  C   UNL     1       4.234  -5.391  57.401  1.00  0.00     0.049 C 
BRANCH   5   6
HETATM    6  C   UNL     1       5.407  -4.662  57.964  1.00  0.00    -0.058 A 
HETATM    7  C   UNL     1       5.816  -4.907  59.275  1.00  0.00     0.007 A 
HETATM    8  C   UNL     1       6.914  -4.226  59.803  1.00  0.00     0.001 A 
HETATM    9  C   UNL     1       7.602  -3.301  59.018  1.00  0.00     0.000 A 
HETATM   10  C   UNL     1       7.194  -3.056  57.707  1.00  0.00     0.001 A 
HETATM   11  C   UNL     1       6.097  -3.738  57.180  1.00  0.00     0.007 A 
ENDBRANCH   5   6
ENDBRANCH   4   5
ENDBRANCH   3   4
TORSDOF 3
ENDMDL
MODEL 6
REMARK VINA RESULT:      -5.5      4.223      5.360
REMARK  3 active torsions:
REMARK  status: ('A' for Active; 'I' for Inactive)
REMARK    1  A    between atoms: C_3  and  C_4 
REMARK    2  A    between atoms: C_3  and  C_5 
REMARK    3  A    between atoms: C_5  and  C_10 
ROOT
HETATM    1  O   UNL     1       4.771   0.597  55.644  1.00  0.00    -0.648 OA
HETATM    2  O   UNL     1       4.268   1.664  57.585  1.00  0.00    -0.648 OA
HETATM    3  C   UNL     1       4.959   0.870  56.959  1.00  0.00     0.172 C 
ENDROOT
BRANCH   3   4
HETATM    4  C   UNL     1       6.084   0.071  57.571  1.00  0.00     0.117 C 
BRANCH   4   5
HETATM    5  C   UNL     1       6.213  -1.313  56.924  1.00  0.00     0.049 C 
BRANCH   5   6
HETATM    6  C   UNL     1       6.365  -2.423  57.907  1.00  0.00    -0.058 A 
HETATM    7  C   UNL     1       5.269  -3.224  58.230  1.00  0.00     0.007 A 
HETATM    8  C   UNL     1       5.411  -4.263  59.150  1.00  0.00     0.001 A 
HETATM    9  C   UNL     1       6.649  -4.502  59.746  1.00  0.00     0.000 A 
HETATM   10  C   UNL     1       7.745  -3.702  59.424  1.00  0.00     0.001 A 
HETATM   11  C   UNL     1       7.603  -2.663  58.503  1.00  0.00     0.007 A 
ENDBRANCH   5   6
ENDBRANCH   4   5
ENDBRANCH   3   4
TORSDOF 3
ENDMDL
MODEL 7
REMARK VINA RESULT:      -5.4      4.091      5.216
REMARK  3 active torsions:
REMARK  status: ('A' for Active; 'I' for Inactive)
REMARK    1  A    between atoms: C_3  and  C_4 
REMARK    2  A    between atoms: C_3  and  C_5 
REMARK    3  A    between atoms: C_5  and  C_10 
ROOT
HETATM    1  O   UNL     1       4.457   1.516  57.367  1.00  0.00    -0.648 OA
HETATM    2  O   UNL     1       4.953   0.360  55.475  1.00  0.00    -0.648 OA
HETATM    3  C   UNL     1       5.139   0.576  56.666  1.00  0.00     0.172 C 
ENDROOT
BRANCH   3   4
HETATM    4  C   UNL     1       6.168  -0.148  57.500  1.00  0.00     0.117 C 
BRANCH   4   5
HETATM    5  C   UNL     1       6.512  -1.520  56.910  1.00  0.00     0.049 C 
BRANCH   5   6
HETATM    6  C   UNL     1       6.558  -2.614  57.922  1.00  0.00    -0.058 A 
HETATM    7  C   UNL     1       5.456  -3.452  58.093  1.00  0.00     0.007 A 
HETATM    8  C   UNL     1       5.498  -4.477  59.039  1.00  0.00     0.001 A 
HETATM    9  C   UNL     1       6.642  -4.663  59.814  1.00  0.00     0.000 A 
HETATM   10  C   UNL     1       7.744  -3.825  59.644  1.00  0.00     0.001 A 
HETATM   11  C   UNL     1       7.702  -2.802  58.697  1.00  0.00     0.007 A 
ENDBRANCH   5   6
ENDBRANCH   4   5
ENDBRANCH   3   4
TORSDOF 3
ENDMDL
MODEL 8
REMARK VINA RESULT:      -5.4      1.187      1.663
REMARK  3 active torsions:
REMARK  status: ('A' for Active; 'I' for Inactive)
REMARK    1  A    between atoms: C_3  and  C_4 
REMARK    2  A    between atoms: C_3  and  C_5 
REMARK    3  A    between atoms: C_5  and  C_10 
ROOT
HETATM    1  O   UNL     1       8.125  -2.730  59.387  1.00  0.00    -0.648 OA
HETATM    2  O   UNL     1       8.805  -4.429  60.735  1.00  0.00    -0.648 OA
HETATM    3  C   UNL     1       7.944  -3.906  60.037  1.00  0.00     0.172 C 
ENDROOT
BRANCH   3   4
HETATM    4  C   UNL     1       6.563  -4.482  59.836  1.00  0.00     0.117 C 
BRANCH   4   5
HETATM    5  C   UNL     1       5.894  -3.923  58.576  1.00  0.00     0.049 C 
BRANCH   5   6
HETATM    6  C   UNL     1       4.943  -4.872  57.929  1.00  0.00    -0.058 A 
HETATM    7  C   UNL     1       4.698  -4.788  56.558  1.00  0.00     0.007 A 
HETATM    8  C   UNL     1       3.810  -5.676  55.951  1.00  0.00     0.001 A 
HETATM    9  C   UNL     1       3.166  -6.649  56.717  1.00  0.00     0.000 A 
HETATM   10  C   UNL     1       3.410  -6.733  58.088  1.00  0.00     0.001 A 
HETATM   11  C   UNL     1       4.299  -5.845  58.693  1.00  0.00     0.007 A 
ENDBRANCH   5   6
ENDBRANCH   4   5
ENDBRANCH   3   4
TORSDOF 3
ENDMDL
MODEL 9
REMARK VINA RESULT:      -5.4      3.146      4.657
REMARK  3 active torsions:
REMARK  status: ('A' for Active; 'I' for Inactive)
REMARK    1  A    between atoms: C_3  and  C_4 
REMARK    2  A    between atoms: C_3  and  C_5 
REMARK    3  A    between atoms: C_5  and  C_10 
ROOT
HETATM    1  O   UNL     1       2.506  -6.839  57.800  1.00  0.00    -0.648 OA
HETATM    2  O   UNL     1       3.549  -6.412  59.773  1.00  0.00    -0.648 OA
HETATM    3  C   UNL     1       3.457  -6.246  58.563  1.00  0.00     0.172 C 
ENDROOT
BRANCH   3   4
HETATM    4  C   UNL     1       4.405  -5.389  57.759  1.00  0.00     0.117 C 
BRANCH   4   5
HETATM    5  C   UNL     1       5.539  -4.830  58.627  1.00  0.00     0.049 C 
BRANCH   5   6
HETATM    6  C   UNL     1       5.957  -3.449  58.252  1.00  0.00    -0.058 A 
HETATM    7  C   UNL     1       7.274  -3.038  58.462  1.00  0.00     0.007 A 
HETATM    8  C   UNL     1       7.667  -1.746  58.111  1.00  0.00     0.001 A 
HETATM    9  C   UNL     1       6.742  -0.865  57.550  1.00  0.00     0.000 A 
HETATM   10  C   UNL     1       5.426  -1.276  57.339  1.00  0.00     0.001 A 
HETATM   11  C   UNL     1       5.034  -2.568  57.689  1.00  0.00     0.007 A 
ENDBRANCH   5   6
ENDBRANCH   4   5
ENDBRANCH   3   4
TORSDOF 3
ENDMDL
