MODEL 1
REMARK VINA RESULT:      -6.4      0.000      0.000
REMARK  6 active torsions:
REMARK  status: ('A' for Active; 'I' for Inactive)
REMARK    1  A    between atoms: O_1  and  C_11 
REMARK    2  A    between atoms: C_4  and  C_5 
REMARK    3  A    between atoms: C_4  and  C_6 
REMARK    4  A    between atoms: C_5  and  C_7 
REMARK    5  A    between atoms: C_6  and  C_8 
REMARK    6  A    between atoms: C_8  and  C_12 
ROOT
HETATM    1  O   UNL     1      31.786  76.171  23.659  1.00  0.00    -0.361 OA
HETATM    2  H   UNL     1      31.905  75.246  23.744  1.00  0.00     0.217 HD
ENDROOT
BRANCH   1   3
HETATM    3  C   UNL     1      31.577  76.721  22.432  1.00  0.00     0.066 A 
HETATM    4  C   UNL     1      31.996  76.047  21.284  1.00  0.00     0.043 A 
HETATM    5  C   UNL     1      31.776  76.621  20.041  1.00  0.00    -0.056 A 
HETATM    6  C   UNL     1      31.148  77.851  19.918  1.00  0.00     0.007 A 
HETATM    7  C   UNL     1      30.729  78.524  21.064  1.00  0.00     0.003 A 
HETATM    8  C   UNL     1      30.943  77.959  22.322  1.00  0.00     0.036 A 
BRANCH   5   9
HETATM    9  C   UNL     1      32.230  75.894  18.801  1.00  0.00     0.038 C 
BRANCH   9  10
HETATM   10  C   UNL     1      31.161  75.808  17.704  1.00  0.00     0.005 C 
BRANCH  10  11
HETATM   11  C   UNL     1      31.740  75.963  16.291  1.00  0.00     0.011 C 
BRANCH  11  12
HETATM   12  C   UNL     1      31.169  77.178  15.559  1.00  0.00     0.113 C 
BRANCH  12  13
HETATM   13  C   UNL     1      31.375  78.479  16.304  1.00  0.00     0.172 C 
HETATM   14  O   UNL     1      30.195  79.106  16.543  1.00  0.00    -0.648 OA
HETATM   15  O   UNL     1      32.453  78.921  16.675  1.00  0.00    -0.648 OA
ENDBRANCH  12  13
ENDBRANCH  11  12
ENDBRANCH  10  11
ENDBRANCH   9  10
ENDBRANCH   5   9
ENDBRANCH   1   3
TORSDOF 6
ENDMDL
MODEL 2
REMARK VINA RESULT:      -6.3      2.087      5.467
REMARK  6 active torsions:
REMARK  status: ('A' for Active; 'I' for Inactive)
REMARK    1  A    between atoms: O_1  and  C_11 
REMARK    2  A    between atoms: C_4  and  C_5 
REMARK    3  A    between atoms: C_4  and  C_6 
REMARK    4  A    between atoms: C_5  and  C_7 
REMARK    5  A    between atoms: C_6  and  C_8 
REMARK    6  A    between atoms: C_8  and  C_12 
ROOT
HETATM    1  O   UNL     1      29.987  79.456  16.555  1.00  0.00    -0.361 OA
HETATM    2  H   UNL     1      30.618  80.130  16.711  1.00  0.00     0.217 HD
ENDROOT
BRANCH   1   3
HETATM    3  C   UNL     1      30.305  78.156  16.800  1.00  0.00     0.066 A 
HETATM    4  C   UNL     1      30.967  77.809  17.978  1.00  0.00     0.043 A 
HETATM    5  C   UNL     1      31.285  76.480  18.213  1.00  0.00    -0.056 A 
HETATM    6  C   UNL     1      30.956  75.489  17.299  1.00  0.00     0.007 A 
HETATM    7  C   UNL     1      30.294  75.836  16.122  1.00  0.00     0.003 A 
HETATM    8  C   UNL     1      29.967  77.170  15.872  1.00  0.00     0.036 A 
BRANCH   5   9
HETATM    9  C   UNL     1      32.002  76.104  19.484  1.00  0.00     0.038 C 
BRANCH   9  10
HETATM   10  C   UNL     1      31.366  76.687  20.752  1.00  0.00     0.005 C 
BRANCH  10  11
HETATM   11  C   UNL     1      32.203  77.811  21.378  1.00  0.00     0.011 C 
BRANCH  11  12
HETATM   12  C   UNL     1      31.429  79.128  21.473  1.00  0.00     0.113 C 
BRANCH  12  13
HETATM   13  C   UNL     1      32.050  80.118  22.434  1.00  0.00     0.172 C 
HETATM   14  O   UNL     1      32.934  79.512  23.269  1.00  0.00    -0.648 OA
HETATM   15  O   UNL     1      31.820  81.318  22.464  1.00  0.00    -0.648 OA
ENDBRANCH  12  13
ENDBRANCH  11  12
ENDBRANCH  10  11
ENDBRANCH   9  10
ENDBRANCH   5   9
ENDBRANCH   1   3
TORSDOF 6
ENDMDL
MODEL 3
REMARK VINA RESULT:      -6.3      3.177      4.485
REMARK  6 active torsions:
REMARK  status: ('A' for Active; 'I' for Inactive)
REMARK    1  A    between atoms: O_1  and  C_11 
REMARK    2  A    between atoms: C_4  and  C_5 
REMARK    3  A    between atoms: C_4  and  C_6 
REMARK    4  A    between atoms: C_5  and  C_7 
REMARK    5  A    between atoms: C_6  and  C_8 
REMARK    6  A    between atoms: C_8  and  C_12 
ROOT
HETATM    1  O   UNL     1      30.002  74.712  24.319  1.00  0.00    -0.361 OA
HETATM    2  H   UNL     1      30.079  74.057  24.984  1.00  0.00     0.217 HD
ENDROOT
BRANCH   1   3
HETATM    3  C   UNL     1      30.492  74.475  23.072  1.00  0.00     0.066 A 
HETATM    4  C   UNL     1      31.094  75.507  22.351  1.00  0.00     0.043 A 
HETATM    5  C   UNL     1      31.588  75.250  21.081  1.00  0.00    -0.056 A 
HETATM    6  C   UNL     1      31.494  73.988  20.514  1.00  0.00     0.007 A 
HETATM    7  C   UNL     1      30.892  72.958  21.234  1.00  0.00     0.003 A 
HETATM    8  C   UNL     1      30.391  73.200  22.514  1.00  0.00     0.036 A 
BRANCH   5   9
HETATM    9  C   UNL     1      32.238  76.365  20.301  1.00  0.00     0.038 C 
BRANCH   9  10
HETATM   10  C   UNL     1      31.264  77.159  19.422  1.00  0.00     0.005 C 
BRANCH  10  11
HETATM   11  C   UNL     1      30.711  78.408  20.121  1.00  0.00     0.011 C 
BRANCH  11  12
HETATM   12  C   UNL     1      31.677  78.965  21.169  1.00  0.00     0.113 C 
BRANCH  12  13
HETATM   13  C   UNL     1      30.995  79.367  22.458  1.00  0.00     0.172 C 
HETATM   14  O   UNL     1      31.729  80.281  23.143  1.00  0.00    -0.648 OA
HETATM   15  O   UNL     1      29.912  78.954  22.847  1.00  0.00    -0.648 OA
ENDBRANCH  12  13
ENDBRANCH  11  12
ENDBRANCH  10  11
ENDBRANCH   9  10
ENDBRANCH   5   9
ENDBRANCH   1   3
TORSDOF 6
ENDMDL
MODEL 4
REMARK VINA RESULT:      -6.3      2.245      3.088
REMARK  6 active torsions:
REMARK  status: ('A' for Active; 'I' for Inactive)
REMARK    1  A    between atoms: O_1  and  C_11 
REMARK    2  A    between atoms: C_4  and  C_5 
REMARK    3  A    between atoms: C_4  and  C_6 
REMARK    4  A    between atoms: C_5  and  C_7 
REMARK    5  A    between atoms: C_6  and  C_8 
REMARK    6  A    between atoms: C_8  and  C_12 
ROOT
HETATM    1  O   UNL     1      31.850  81.151  22.101  1.00  0.00    -0.361 OA
HETATM    2  H   UNL     1      31.254  81.871  22.035  1.00  0.00     0.217 HD
ENDROOT
BRANCH   1   3
HETATM    3  C   UNL     1      31.375  79.889  22.280  1.00  0.00     0.066 A 
HETATM    4  C   UNL     1      32.236  78.797  22.166  1.00  0.00     0.043 A 
HETATM    5  C   UNL     1      31.737  77.516  22.352  1.00  0.00    -0.056 A 
HETATM    6  C   UNL     1      30.399  77.301  22.648  1.00  0.00     0.007 A 
HETATM    7  C   UNL     1      29.540  78.393  22.762  1.00  0.00     0.003 A 
HETATM    8  C   UNL     1      30.027  79.688  22.579  1.00  0.00     0.036 A 
BRANCH   5   9
HETATM    9  C   UNL     1      32.666  76.335  22.227  1.00  0.00     0.038 C 
BRANCH   9  10
HETATM   10  C   UNL     1      32.267  75.344  21.126  1.00  0.00     0.005 C 
BRANCH  10  11
HETATM   11  C   UNL     1      32.574  75.863  19.715  1.00  0.00     0.011 C 
BRANCH  11  12
HETATM   12  C   UNL     1      31.318  76.349  18.988  1.00  0.00     0.113 C 
BRANCH  12  13
HETATM   13  C   UNL     1      31.376  77.813  18.608  1.00  0.00     0.172 C 
HETATM   14  O   UNL     1      30.350  78.509  19.163  1.00  0.00    -0.648 OA
HETATM   15  O   UNL     1      32.236  78.332  17.912  1.00  0.00    -0.648 OA
ENDBRANCH  12  13
ENDBRANCH  11  12
ENDBRANCH  10  11
ENDBRANCH   9  10
ENDBRANCH   5   9
ENDBRANCH   1   3
TORSDOF 6
ENDMDL
MODEL 5
REMARK VINA RESULT:      -6.0      3.511      4.911
REMARK  6 active torsions:
REMARK  status: ('A' for Active; 'I' for Inactive)
REMARK    1  A    between atoms: O_1  and  C_11 
REMARK    2  A    between atoms: C_4  and  C_5 
REMARK    3  A    between atoms: C_4  and  C_6 
REMARK    4  A    between atoms: C_5  and  C_7 
REMARK    5  A    between atoms: C_6  and  C_8 
REMARK    6  A    between atoms: C_8  and  C_12 
ROOT
HETATM    1  O   UNL     1      32.399  71.789  22.329  1.00  0.00    -0.361 OA
HETATM    2  H   UNL     1      33.324  71.703  22.447  1.00  0.00     0.217 HD
ENDROOT
BRANCH   1   3
HETATM    3  C   UNL     1      31.793  72.986  22.552  1.00  0.00     0.066 A 
HETATM    4  C   UNL     1      32.391  74.165  22.108  1.00  0.00     0.043 A 
HETATM    5  C   UNL     1      31.761  75.378  22.343  1.00  0.00    -0.056 A 
HETATM    6  C   UNL     1      30.548  75.440  23.011  1.00  0.00     0.007 A 
HETATM    7  C   UNL     1      29.949  74.262  23.455  1.00  0.00     0.003 A 
HETATM    8  C   UNL     1      30.571  73.034  23.225  1.00  0.00     0.036 A 
BRANCH   5   9
HETATM    9  C   UNL     1      32.408  76.653  21.864  1.00  0.00     0.038 C 
BRANCH   9  10
HETATM   10  C   UNL     1      31.826  77.191  20.552  1.00  0.00     0.005 C 
BRANCH  10  11
HETATM   11  C   UNL     1      31.116  78.541  20.721  1.00  0.00     0.011 C 
BRANCH  11  12
HETATM   12  C   UNL     1      31.041  78.979  22.186  1.00  0.00     0.113 C 
BRANCH  12  13
HETATM   13  C   UNL     1      31.987  80.111  22.521  1.00  0.00     0.172 C 
HETATM   14  O   UNL     1      32.987  79.695  23.341  1.00  0.00    -0.648 OA
HETATM   15  O   UNL     1      31.900  81.257  22.104  1.00  0.00    -0.648 OA
ENDBRANCH  12  13
ENDBRANCH  11  12
ENDBRANCH  10  11
ENDBRANCH   9  10
ENDBRANCH   5   9
ENDBRANCH   1   3
TORSDOF 6
ENDMDL
MODEL 6
REMARK VINA RESULT:      -6.0      1.382      2.267
REMARK  6 active torsions:
REMARK  status: ('A' for Active; 'I' for Inactive)
REMARK    1  A    between atoms: O_1  and  C_11 
REMARK    2  A    between atoms: C_4  and  C_5 
REMARK    3  A    between atoms: C_4  and  C_6 
REMARK    4  A    between atoms: C_5  and  C_7 
REMARK    5  A    between atoms: C_6  and  C_8 
REMARK    6  A    between atoms: C_8  and  C_12 
ROOT
HETATM    1  O   UNL     1      31.850  76.239  23.760  1.00  0.00    -0.361 OA
HETATM    2  H   UNL     1      31.975  77.083  24.146  1.00  0.00     0.217 HD
ENDROOT
BRANCH   1   3
HETATM    3  C   UNL     1      32.036  76.069  22.423  1.00  0.00     0.066 A 
HETATM    4  C   UNL     1      31.433  76.943  21.517  1.00  0.00     0.043 A 
HETATM    5  C   UNL     1      31.631  76.756  20.157  1.00  0.00    -0.056 A 
HETATM    6  C   UNL     1      32.417  75.717  19.681  1.00  0.00     0.007 A 
HETATM    7  C   UNL     1      33.019  74.844  20.586  1.00  0.00     0.003 A 
HETATM    8  C   UNL     1      32.829  75.019  21.957  1.00  0.00     0.036 A 
BRANCH   5   9
HETATM    9  C   UNL     1      30.979  77.699  19.178  1.00  0.00     0.038 C 
BRANCH   9  10
HETATM   10  C   UNL     1      30.811  77.115  17.770  1.00  0.00     0.005 C 
BRANCH  10  11
HETATM   11  C   UNL     1      30.085  78.068  16.811  1.00  0.00     0.011 C 
BRANCH  11  12
HETATM   12  C   UNL     1      30.591  77.942  15.372  1.00  0.00     0.113 C 
BRANCH  12  13
HETATM   13  C   UNL     1      32.098  78.014  15.259  1.00  0.00     0.172 C 
HETATM   14  O   UNL     1      32.621  76.829  14.851  1.00  0.00    -0.648 OA
HETATM   15  O   UNL     1      32.780  79.004  15.479  1.00  0.00    -0.648 OA
ENDBRANCH  12  13
ENDBRANCH  11  12
ENDBRANCH  10  11
ENDBRANCH   9  10
ENDBRANCH   5   9
ENDBRANCH   1   3
TORSDOF 6
ENDMDL
MODEL 7
REMARK VINA RESULT:      -5.9      1.395      2.085
REMARK  6 active torsions:
REMARK  status: ('A' for Active; 'I' for Inactive)
REMARK    1  A    between atoms: O_1  and  C_11 
REMARK    2  A    between atoms: C_4  and  C_5 
REMARK    3  A    between atoms: C_4  and  C_6 
REMARK    4  A    between atoms: C_5  and  C_7 
REMARK    5  A    between atoms: C_6  and  C_8 
REMARK    6  A    between atoms: C_8  and  C_12 
ROOT
HETATM    1  O   UNL     1      31.461  79.623  21.113  1.00  0.00    -0.361 OA
HETATM    2  H   UNL     1      32.082  80.237  20.775  1.00  0.00     0.217 HD
ENDROOT
BRANCH   1   3
HETATM    3  C   UNL     1      31.776  78.301  21.176  1.00  0.00     0.066 A 
HETATM    4  C   UNL     1      31.451  77.454  20.115  1.00  0.00     0.043 A 
HETATM    5  C   UNL     1      31.779  76.109  20.195  1.00  0.00    -0.056 A 
HETATM    6  C   UNL     1      32.423  75.590  21.308  1.00  0.00     0.007 A 
HETATM    7  C   UNL     1      32.748  76.437  22.367  1.00  0.00     0.003 A 
HETATM    8  C   UNL     1      32.425  77.793  22.301  1.00  0.00     0.036 A 
BRANCH   5   9
HETATM    9  C   UNL     1      31.427  75.193  19.050  1.00  0.00     0.038 C 
BRANCH   9  10
HETATM   10  C   UNL     1      31.934  75.678  17.687  1.00  0.00     0.005 C 
BRANCH  10  11
HETATM   11  C   UNL     1      30.800  75.945  16.687  1.00  0.00     0.011 C 
BRANCH  11  12
HETATM   12  C   UNL     1      31.138  77.074  15.712  1.00  0.00     0.113 C 
BRANCH  12  13
HETATM   13  C   UNL     1      31.084  78.447  16.344  1.00  0.00     0.172 C 
HETATM   14  O   UNL     1      32.330  78.949  16.545  1.00  0.00    -0.648 OA
HETATM   15  O   UNL     1      30.064  79.059  16.628  1.00  0.00    -0.648 OA
ENDBRANCH  12  13
ENDBRANCH  11  12
ENDBRANCH  10  11
ENDBRANCH   9  10
ENDBRANCH   5   9
ENDBRANCH   1   3
TORSDOF 6
ENDMDL
MODEL 8
REMARK VINA RESULT:      -5.9      1.843      2.777
REMARK  6 active torsions:
REMARK  status: ('A' for Active; 'I' for Inactive)
REMARK    1  A    between atoms: O_1  and  C_11 
REMARK    2  A    between atoms: C_4  and  C_5 
REMARK    3  A    between atoms: C_4  and  C_6 
REMARK    4  A    between atoms: C_5  and  C_7 
REMARK    5  A    between atoms: C_6  and  C_8 
REMARK    6  A    between atoms: C_8  and  C_12 
ROOT
HETATM    1  O   UNL     1      29.995  74.590  24.327  1.00  0.00    -0.361 OA
HETATM    2  H   UNL     1      29.333  73.971  24.562  1.00  0.00     0.217 HD
ENDROOT
BRANCH   1   3
HETATM    3  C   UNL     1      30.539  74.565  23.080  1.00  0.00     0.066 A 
HETATM    4  C   UNL     1      31.012  75.742  22.501  1.00  0.00     0.043 A 
HETATM    5  C   UNL     1      31.563  75.700  21.229  1.00  0.00    -0.056 A 
HETATM    6  C   UNL     1      31.651  74.510  20.522  1.00  0.00     0.007 A 
HETATM    7  C   UNL     1      31.178  73.333  21.102  1.00  0.00     0.003 A 
HETATM    8  C   UNL     1      30.622  73.360  22.381  1.00  0.00     0.036 A 
BRANCH   5   9
HETATM    9  C   UNL     1      32.073  76.972  20.601  1.00  0.00     0.038 C 
BRANCH   9  10
HETATM   10  C   UNL     1      31.144  77.553  19.528  1.00  0.00     0.005 C 
BRANCH  10  11
HETATM   11  C   UNL     1      31.725  77.445  18.112  1.00  0.00     0.011 C 
BRANCH  11  12
HETATM   12  C   UNL     1      30.682  76.989  17.089  1.00  0.00     0.113 C 
BRANCH  12  13
HETATM   13  C   UNL     1      30.048  78.135  16.330  1.00  0.00     0.172 C 
HETATM   14  O   UNL     1      29.300  77.686  15.289  1.00  0.00    -0.648 OA
HETATM   15  O   UNL     1      30.160  79.320  16.610  1.00  0.00    -0.648 OA
ENDBRANCH  12  13
ENDBRANCH  11  12
ENDBRANCH  10  11
ENDBRANCH   9  10
ENDBRANCH   5   9
ENDBRANCH   1   3
TORSDOF 6
ENDMDL
MODEL 9
REMARK VINA RESULT:      -5.9      1.659      1.964
REMARK  6 active torsions:
REMARK  status: ('A' for Active; 'I' for Inactive)
REMARK    1  A    between atoms: O_1  and  C_11 
REMARK    2  A    between atoms: C_4  and  C_5 
REMARK    3  A    between atoms: C_4  and  C_6 
REMARK    4  A    between atoms: C_5  and  C_7 
REMARK    5  A    between atoms: C_6  and  C_8 
REMARK    6  A    between atoms: C_8  and  C_12 
ROOT
HETATM    1  O   UNL     1      31.574  76.059  23.634  1.00  0.00    -0.361 OA
HETATM    2  H   UNL     1      32.257  76.353  24.205  1.00  0.00     0.217 HD
ENDROOT
BRANCH   1   3
HETATM    3  C   UNL     1      31.394  76.657  22.426  1.00  0.00     0.066 A 
HETATM    4  C   UNL     1      31.618  75.939  21.251  1.00  0.00     0.043 A 
HETATM    5  C   UNL     1      31.430  76.562  20.026  1.00  0.00    -0.056 A 
HETATM    6  C   UNL     1      31.023  77.886  19.949  1.00  0.00     0.007 A 
HETATM    7  C   UNL     1      30.799  78.603  21.123  1.00  0.00     0.003 A 
HETATM    8  C   UNL     1      30.984  77.989  22.362  1.00  0.00     0.036 A 
BRANCH   5   9
HETATM    9  C   UNL     1      31.673  75.787  18.756  1.00  0.00     0.038 C 
BRANCH   9  10
HETATM   10  C   UNL     1      31.718  76.658  17.495  1.00  0.00     0.005 C 
BRANCH  10  11
HETATM   11  C   UNL     1      30.592  76.334  16.504  1.00  0.00     0.011 C 
BRANCH  11  12
HETATM   12  C   UNL     1      29.928  77.595  15.946  1.00  0.00     0.113 C 
BRANCH  12  13
HETATM   13  C   UNL     1      29.105  77.337  14.703  1.00  0.00     0.172 C 
HETATM   14  O   UNL     1      29.866  77.407  13.580  1.00  0.00    -0.648 OA
HETATM   15  O   UNL     1      27.911  77.074  14.684  1.00  0.00    -0.648 OA
ENDBRANCH  12  13
ENDBRANCH  11  12
ENDBRANCH  10  11
ENDBRANCH   9  10
ENDBRANCH   5   9
ENDBRANCH   1   3
TORSDOF 6
ENDMDL
