MODEL 1
REMARK VINA RESULT:      -7.9      0.000      0.000
REMARK  7 active torsions:
REMARK  status: ('A' for Active; 'I' for Inactive)
REMARK    1  A    between atoms: O_1  and  C_2 
REMARK    2  A    between atoms: C_2  and  C_3 
REMARK    3  A    between atoms: C_2  and  C_8 
REMARK    4  A    between atoms: C_3  and  C_4 
REMARK    5  A    between atoms: C_4  and  C_5 
REMARK    6  A    between atoms: C_8  and  C_9 
REMARK    7  A    between atoms: C_11  and  O_15 
ROOT
HETATM    1  O   UNL     1     -53.267  48.350   8.185  1.00  0.00    -0.395 OA
HETATM    2  H   UNL     1     -53.153  47.757   7.426  1.00  0.00     0.210 HD
ENDROOT
BRANCH   1   3
HETATM    3  C   UNL     1     -53.861  47.630   9.267  1.00  0.00     0.122 C 
BRANCH   3   4
HETATM    4  C   UNL     1     -54.281  48.636  10.344  1.00  0.00     0.042 C 
BRANCH   4   5
HETATM    5  C   UNL     1     -55.019  49.833   9.751  1.00  0.00     0.116 C 
BRANCH   5   6
HETATM    6  C   UNL     1     -54.138  51.046   9.762  1.00  0.00     0.172 C 
HETATM    7  O   UNL     1     -53.789  51.676  10.745  1.00  0.00    -0.648 OA
HETATM    8  O   UNL     1     -53.707  51.391   8.533  1.00  0.00    -0.648 OA
ENDBRANCH   5   6
ENDBRANCH   4   5
ENDBRANCH   3   4
BRANCH   3   9
HETATM    9  C   UNL     1     -52.882  46.592   9.843  1.00  0.00     0.070 C 
BRANCH   9  10
HETATM   10  C   UNL     1     -52.693  45.396   8.939  1.00  0.00    -0.053 A 
HETATM   11  C   UNL     1     -53.787  44.820   8.279  1.00  0.00     0.043 A 
HETATM   12  C   UNL     1     -53.603  43.715   7.455  1.00  0.00     0.066 A 
HETATM   13  C   UNL     1     -52.340  43.162   7.272  1.00  0.00     0.036 A 
HETATM   14  C   UNL     1     -51.246  43.726   7.928  1.00  0.00     0.003 A 
HETATM   15  C   UNL     1     -51.420  44.836   8.757  1.00  0.00     0.007 A 
BRANCH  12  16
HETATM   16  O   UNL     1     -54.702  43.197   6.835  1.00  0.00    -0.361 OA
HETATM   17  H   UNL     1     -54.826  42.269   6.799  1.00  0.00     0.217 HD
ENDBRANCH  12  16
ENDBRANCH   9  10
ENDBRANCH   3   9
ENDBRANCH   1   3
TORSDOF 7
ENDMDL
MODEL 2
REMARK VINA RESULT:      -7.7      1.642      2.085
REMARK  7 active torsions:
REMARK  status: ('A' for Active; 'I' for Inactive)
REMARK    1  A    between atoms: O_1  and  C_2 
REMARK    2  A    between atoms: C_2  and  C_3 
REMARK    3  A    between atoms: C_2  and  C_8 
REMARK    4  A    between atoms: C_3  and  C_4 
REMARK    5  A    between atoms: C_4  and  C_5 
REMARK    6  A    between atoms: C_8  and  C_9 
REMARK    7  A    between atoms: C_11  and  O_15 
ROOT
HETATM    1  O   UNL     1     -52.777  48.526   8.180  1.00  0.00    -0.395 OA
HETATM    2  H   UNL     1     -51.956  48.051   8.384  1.00  0.00     0.210 HD
ENDROOT
BRANCH   1   3
HETATM    3  C   UNL     1     -53.801  48.119   9.090  1.00  0.00     0.122 C 
BRANCH   3   4
HETATM    4  C   UNL     1     -54.786  49.281   9.260  1.00  0.00     0.042 C 
BRANCH   4   5
HETATM    5  C   UNL     1     -54.184  50.427  10.067  1.00  0.00     0.116 C 
BRANCH   5   6
HETATM    6  C   UNL     1     -54.164  51.685   9.252  1.00  0.00     0.172 C 
HETATM    7  O   UNL     1     -53.781  52.780   9.625  1.00  0.00    -0.648 OA
HETATM    8  O   UNL     1     -54.596  51.498   7.990  1.00  0.00    -0.648 OA
ENDBRANCH   5   6
ENDBRANCH   4   5
ENDBRANCH   3   4
BRANCH   3   9
HETATM    9  C   UNL     1     -53.203  47.709  10.447  1.00  0.00     0.070 C 
BRANCH   9  10
HETATM   10  C   UNL     1     -53.021  46.216  10.585  1.00  0.00    -0.053 A 
HETATM   11  C   UNL     1     -53.452  45.349   9.572  1.00  0.00     0.043 A 
HETATM   12  C   UNL     1     -53.286  43.975   9.712  1.00  0.00     0.066 A 
HETATM   13  C   UNL     1     -52.696  43.438  10.851  1.00  0.00     0.036 A 
HETATM   14  C   UNL     1     -52.268  44.293  11.865  1.00  0.00     0.003 A 
HETATM   15  C   UNL     1     -52.429  45.674  11.735  1.00  0.00     0.007 A 
BRANCH  12  16
HETATM   16  O   UNL     1     -53.721  43.177   8.694  1.00  0.00    -0.361 OA
HETATM   17  H   UNL     1     -54.367  43.494   8.094  1.00  0.00     0.217 HD
ENDBRANCH  12  16
ENDBRANCH   9  10
ENDBRANCH   3   9
ENDBRANCH   1   3
TORSDOF 7
ENDMDL
MODEL 3
REMARK VINA RESULT:      -7.6      1.437      6.328
REMARK  7 active torsions:
REMARK  status: ('A' for Active; 'I' for Inactive)
REMARK    1  A    between atoms: O_1  and  C_2 
REMARK    2  A    between atoms: C_2  and  C_3 
REMARK    3  A    between atoms: C_2  and  C_8 
REMARK    4  A    between atoms: C_3  and  C_4 
REMARK    5  A    between atoms: C_4  and  C_5 
REMARK    6  A    between atoms: C_8  and  C_9 
REMARK    7  A    between atoms: C_11  and  O_15 
ROOT
HETATM    1  O   UNL     1     -54.028  43.732   9.589  1.00  0.00    -0.395 OA
HETATM    2  H   UNL     1     -53.596  42.886   9.396  1.00  0.00     0.210 HD
ENDROOT
BRANCH   1   3
HETATM    3  C   UNL     1     -53.649  44.696   8.604  1.00  0.00     0.122 C 
BRANCH   3   4
HETATM    4  C   UNL     1     -52.701  44.021   7.607  1.00  0.00     0.042 C 
BRANCH   4   5
HETATM    5  C   UNL     1     -53.416  42.971   6.761  1.00  0.00     0.116 C 
BRANCH   5   6
HETATM    6  C   UNL     1     -54.530  43.601   5.981  1.00  0.00     0.172 C 
HETATM    7  O   UNL     1     -54.418  44.479   5.143  1.00  0.00    -0.648 OA
HETATM    8  O   UNL     1     -55.734  43.071   6.267  1.00  0.00    -0.648 OA
ENDBRANCH   5   6
ENDBRANCH   4   5
ENDBRANCH   3   4
BRANCH   3   9
HETATM    9  C   UNL     1     -52.975  45.916   9.257  1.00  0.00     0.070 C 
BRANCH   9  10
HETATM   10  C   UNL     1     -53.898  47.106   9.376  1.00  0.00    -0.053 A 
HETATM   11  C   UNL     1     -53.422  48.333   9.857  1.00  0.00     0.043 A 
HETATM   12  C   UNL     1     -54.282  49.420   9.969  1.00  0.00     0.066 A 
HETATM   13  C   UNL     1     -55.622  49.312   9.611  1.00  0.00     0.036 A 
HETATM   14  C   UNL     1     -56.104  48.095   9.134  1.00  0.00     0.003 A 
HETATM   15  C   UNL     1     -55.249  46.996   9.017  1.00  0.00     0.007 A 
BRANCH  12  16
HETATM   16  O   UNL     1     -53.765  50.591  10.441  1.00  0.00    -0.361 OA
HETATM   17  H   UNL     1     -53.088  51.030   9.965  1.00  0.00     0.217 HD
ENDBRANCH  12  16
ENDBRANCH   9  10
ENDBRANCH   3   9
ENDBRANCH   1   3
TORSDOF 7
ENDMDL
MODEL 4
REMARK VINA RESULT:      -7.5      2.357      3.802
REMARK  7 active torsions:
REMARK  status: ('A' for Active; 'I' for Inactive)
REMARK    1  A    between atoms: O_1  and  C_2 
REMARK    2  A    between atoms: C_2  and  C_3 
REMARK    3  A    between atoms: C_2  and  C_8 
REMARK    4  A    between atoms: C_3  and  C_4 
REMARK    5  A    between atoms: C_4  and  C_5 
REMARK    6  A    between atoms: C_8  and  C_9 
REMARK    7  A    between atoms: C_11  and  O_15 
ROOT
HETATM    1  O   UNL     1     -54.893  46.297   8.261  1.00  0.00    -0.395 OA
HETATM    2  H   UNL     1     -55.188  46.748   7.455  1.00  0.00     0.210 HD
ENDROOT
BRANCH   1   3
HETATM    3  C   UNL     1     -54.307  47.250   9.151  1.00  0.00     0.122 C 
BRANCH   3   4
HETATM    4  C   UNL     1     -54.956  48.614   8.894  1.00  0.00     0.042 C 
BRANCH   4   5
HETATM    5  C   UNL     1     -54.802  49.554  10.086  1.00  0.00     0.116 C 
BRANCH   5   6
HETATM    6  C   UNL     1     -54.149  50.834   9.660  1.00  0.00     0.172 C 
HETATM    7  O   UNL     1     -53.944  51.192   8.513  1.00  0.00    -0.648 OA
HETATM    8  O   UNL     1     -53.813  51.621  10.699  1.00  0.00    -0.648 OA
ENDBRANCH   5   6
ENDBRANCH   4   5
ENDBRANCH   3   4
BRANCH   3   9
HETATM    9  C   UNL     1     -52.783  47.325   8.954  1.00  0.00     0.070 C 
BRANCH   9  10
HETATM   10  C   UNL     1     -52.008  46.946  10.195  1.00  0.00    -0.053 A 
HETATM   11  C   UNL     1     -52.485  47.290  11.467  1.00  0.00     0.043 A 
HETATM   12  C   UNL     1     -51.761  46.941  12.602  1.00  0.00     0.066 A 
HETATM   13  C   UNL     1     -50.557  46.252  12.498  1.00  0.00     0.036 A 
HETATM   14  C   UNL     1     -50.074  45.908  11.237  1.00  0.00     0.003 A 
HETATM   15  C   UNL     1     -50.794  46.252  10.090  1.00  0.00     0.007 A 
BRANCH  12  16
HETATM   16  O   UNL     1     -52.273  47.299  13.814  1.00  0.00    -0.361 OA
HETATM   17  H   UNL     1     -51.788  47.126  14.597  1.00  0.00     0.217 HD
ENDBRANCH  12  16
ENDBRANCH   9  10
ENDBRANCH   3   9
ENDBRANCH   1   3
TORSDOF 7
ENDMDL
MODEL 5
REMARK VINA RESULT:      -7.3      1.423      2.039
REMARK  7 active torsions:
REMARK  status: ('A' for Active; 'I' for Inactive)
REMARK    1  A    between atoms: O_1  and  C_2 
REMARK    2  A    between atoms: C_2  and  C_3 
REMARK    3  A    between atoms: C_2  and  C_8 
REMARK    4  A    between atoms: C_3  and  C_4 
REMARK    5  A    between atoms: C_4  and  C_5 
REMARK    6  A    between atoms: C_8  and  C_9 
REMARK    7  A    between atoms: C_11  and  O_15 
ROOT
HETATM    1  O   UNL     1     -52.298  48.379   7.885  1.00  0.00    -0.395 OA
HETATM    2  H   UNL     1     -52.959  48.826   7.333  1.00  0.00     0.210 HD
ENDROOT
BRANCH   1   3
HETATM    3  C   UNL     1     -52.960  47.615   8.896  1.00  0.00     0.122 C 
BRANCH   3   4
HETATM    4  C   UNL     1     -53.448  48.577   9.985  1.00  0.00     0.042 C 
BRANCH   4   5
HETATM    5  C   UNL     1     -54.661  49.384   9.532  1.00  0.00     0.116 C 
BRANCH   5   6
HETATM    6  C   UNL     1     -54.308  50.837   9.421  1.00  0.00     0.172 C 
HETATM    7  O   UNL     1     -54.443  51.539   8.434  1.00  0.00    -0.648 OA
HETATM    8  O   UNL     1     -53.834  51.350  10.572  1.00  0.00    -0.648 OA
ENDBRANCH   5   6
ENDBRANCH   4   5
ENDBRANCH   3   4
BRANCH   3   9
HETATM    9  C   UNL     1     -52.018  46.552   9.489  1.00  0.00     0.070 C 
BRANCH   9  10
HETATM   10  C   UNL     1     -52.144  45.209   8.809  1.00  0.00    -0.053 A 
HETATM   11  C   UNL     1     -51.046  44.341   8.736  1.00  0.00     0.043 A 
HETATM   12  C   UNL     1     -51.171  43.109   8.102  1.00  0.00     0.066 A 
HETATM   13  C   UNL     1     -52.377  42.718   7.531  1.00  0.00     0.036 A 
HETATM   14  C   UNL     1     -53.474  43.577   7.596  1.00  0.00     0.003 A 
HETATM   15  C   UNL     1     -53.359  44.816   8.230  1.00  0.00     0.007 A 
BRANCH  12  16
HETATM   16  O   UNL     1     -50.072  42.303   8.063  1.00  0.00    -0.361 OA
HETATM   17  H   UNL     1     -49.218  42.668   8.186  1.00  0.00     0.217 HD
ENDBRANCH  12  16
ENDBRANCH   9  10
ENDBRANCH   3   9
ENDBRANCH   1   3
TORSDOF 7
ENDMDL
MODEL 6
REMARK VINA RESULT:      -7.2      2.542      5.470
REMARK  7 active torsions:
REMARK  status: ('A' for Active; 'I' for Inactive)
REMARK    1  A    between atoms: O_1  and  C_2 
REMARK    2  A    between atoms: C_2  and  C_3 
REMARK    3  A    between atoms: C_2  and  C_8 
REMARK    4  A    between atoms: C_3  and  C_4 
REMARK    5  A    between atoms: C_4  and  C_5 
REMARK    6  A    between atoms: C_8  and  C_9 
REMARK    7  A    between atoms: C_11  and  O_15 
ROOT
HETATM    1  O   UNL     1     -52.061  46.497   7.456  1.00  0.00    -0.395 OA
HETATM    2  H   UNL     1     -52.855  46.237   6.964  1.00  0.00     0.210 HD
ENDROOT
BRANCH   1   3
HETATM    3  C   UNL     1     -51.833  45.568   8.519  1.00  0.00     0.122 C 
BRANCH   3   4
HETATM    4  C   UNL     1     -52.239  44.172   8.035  1.00  0.00     0.042 C 
BRANCH   4   5
HETATM    5  C   UNL     1     -52.369  44.109   6.516  1.00  0.00     0.116 C 
BRANCH   5   6
HETATM    6  C   UNL     1     -53.802  43.908   6.124  1.00  0.00     0.172 C 
HETATM    7  O   UNL     1     -54.386  44.466   5.212  1.00  0.00    -0.648 OA
HETATM    8  O   UNL     1     -54.427  42.984   6.879  1.00  0.00    -0.648 OA
ENDBRANCH   5   6
ENDBRANCH   4   5
ENDBRANCH   3   4
BRANCH   3   9
HETATM    9  C   UNL     1     -52.628  45.963   9.776  1.00  0.00     0.070 C 
BRANCH   9  10
HETATM   10  C   UNL     1     -54.002  46.505   9.459  1.00  0.00    -0.053 A 
HETATM   11  C   UNL     1     -55.033  45.646   9.058  1.00  0.00     0.043 A 
HETATM   12  C   UNL     1     -56.293  46.157   8.762  1.00  0.00     0.066 A 
HETATM   13  C   UNL     1     -56.551  47.521   8.855  1.00  0.00     0.036 A 
HETATM   14  C   UNL     1     -55.530  48.384   9.250  1.00  0.00     0.003 A 
HETATM   15  C   UNL     1     -54.262  47.881   9.550  1.00  0.00     0.007 A 
BRANCH  12  16
HETATM   16  O   UNL     1     -57.260  45.275   8.379  1.00  0.00    -0.361 OA
HETATM   17  H   UNL     1     -58.156  45.548   8.345  1.00  0.00     0.217 HD
ENDBRANCH  12  16
ENDBRANCH   9  10
ENDBRANCH   3   9
ENDBRANCH   1   3
TORSDOF 7
ENDMDL
MODEL 7
REMARK VINA RESULT:      -7.2      2.196      6.620
REMARK  7 active torsions:
REMARK  status: ('A' for Active; 'I' for Inactive)
REMARK    1  A    between atoms: O_1  and  C_2 
REMARK    2  A    between atoms: C_2  and  C_3 
REMARK    3  A    between atoms: C_2  and  C_8 
REMARK    4  A    between atoms: C_3  and  C_4 
REMARK    5  A    between atoms: C_4  and  C_5 
REMARK    6  A    between atoms: C_8  and  C_9 
REMARK    7  A    between atoms: C_11  and  O_15 
ROOT
HETATM    1  O   UNL     1     -54.092  42.919   7.416  1.00  0.00    -0.395 OA
HETATM    2  H   UNL     1     -53.415  42.386   7.860  1.00  0.00     0.210 HD
ENDROOT
BRANCH   1   3
HETATM    3  C   UNL     1     -53.762  44.305   7.535  1.00  0.00     0.122 C 
BRANCH   3   4
HETATM    4  C   UNL     1     -52.352  44.515   6.974  1.00  0.00     0.042 C 
BRANCH   4   5
HETATM    5  C   UNL     1     -52.274  44.185   5.486  1.00  0.00     0.116 C 
BRANCH   5   6
HETATM    6  C   UNL     1     -51.269  43.099   5.245  1.00  0.00     0.172 C 
HETATM    7  O   UNL     1     -50.316  43.153   4.488  1.00  0.00    -0.648 OA
HETATM    8  O   UNL     1     -51.492  42.003   5.996  1.00  0.00    -0.648 OA
ENDBRANCH   5   6
ENDBRANCH   4   5
ENDBRANCH   3   4
BRANCH   3   9
HETATM    9  C   UNL     1     -53.840  44.766   9.001  1.00  0.00     0.070 C 
BRANCH   9  10
HETATM   10  C   UNL     1     -54.455  46.138   9.155  1.00  0.00    -0.053 A 
HETATM   11  C   UNL     1     -53.733  47.181   9.748  1.00  0.00     0.043 A 
HETATM   12  C   UNL     1     -54.311  48.438   9.891  1.00  0.00     0.066 A 
HETATM   13  C   UNL     1     -55.609  48.682   9.454  1.00  0.00     0.036 A 
HETATM   14  C   UNL     1     -56.336  47.649   8.865  1.00  0.00     0.003 A 
HETATM   15  C   UNL     1     -55.765  46.383   8.716  1.00  0.00     0.007 A 
BRANCH  12  16
HETATM   16  O   UNL     1     -53.561  49.418  10.473  1.00  0.00    -0.361 OA
HETATM   17  H   UNL     1     -52.753  49.201  10.895  1.00  0.00     0.217 HD
ENDBRANCH  12  16
ENDBRANCH   9  10
ENDBRANCH   3   9
ENDBRANCH   1   3
TORSDOF 7
ENDMDL
MODEL 8
REMARK VINA RESULT:      -7.1      1.433      1.705
REMARK  7 active torsions:
REMARK  status: ('A' for Active; 'I' for Inactive)
REMARK    1  A    between atoms: O_1  and  C_2 
REMARK    2  A    between atoms: C_2  and  C_3 
REMARK    3  A    between atoms: C_2  and  C_8 
REMARK    4  A    between atoms: C_3  and  C_4 
REMARK    5  A    between atoms: C_4  and  C_5 
REMARK    6  A    between atoms: C_8  and  C_9 
REMARK    7  A    between atoms: C_11  and  O_15 
ROOT
HETATM    1  O   UNL     1     -52.188  47.587  12.051  1.00  0.00    -0.395 OA
HETATM    2  H   UNL     1     -51.674  46.835  12.383  1.00  0.00     0.210 HD
ENDROOT
BRANCH   1   3
HETATM    3  C   UNL     1     -52.810  47.230  10.815  1.00  0.00     0.122 C 
BRANCH   3   4
HETATM    4  C   UNL     1     -53.879  48.280  10.491  1.00  0.00     0.042 C 
BRANCH   4   5
HETATM    5  C   UNL     1     -53.543  49.066   9.227  1.00  0.00     0.116 C 
BRANCH   5   6
HETATM    6  C   UNL     1     -53.927  50.505   9.391  1.00  0.00     0.172 C 
HETATM    7  O   UNL     1     -54.099  51.313   8.494  1.00  0.00    -0.648 OA
HETATM    8  O   UNL     1     -54.112  50.855  10.678  1.00  0.00    -0.648 OA
ENDBRANCH   5   6
ENDBRANCH   4   5
ENDBRANCH   3   4
BRANCH   3   9
HETATM    9  C   UNL     1     -53.433  45.825  10.896  1.00  0.00     0.070 C 
BRANCH   9  10
HETATM   10  C   UNL     1     -53.264  45.031   9.622  1.00  0.00    -0.053 A 
HETATM   11  C   UNL     1     -54.187  45.158   8.575  1.00  0.00     0.043 A 
HETATM   12  C   UNL     1     -54.026  44.417   7.409  1.00  0.00     0.066 A 
HETATM   13  C   UNL     1     -52.955  43.541   7.260  1.00  0.00     0.036 A 
HETATM   14  C   UNL     1     -52.033  43.408   8.297  1.00  0.00     0.003 A 
HETATM   15  C   UNL     1     -52.186  44.147   9.473  1.00  0.00     0.007 A 
BRANCH  12  16
HETATM   16  O   UNL     1     -54.952  44.581   6.421  1.00  0.00    -0.361 OA
HETATM   17  H   UNL     1     -55.121  45.435   6.074  1.00  0.00     0.217 HD
ENDBRANCH  12  16
ENDBRANCH   9  10
ENDBRANCH   3   9
ENDBRANCH   1   3
TORSDOF 7
ENDMDL
MODEL 9
REMARK VINA RESULT:      -6.9      2.309      3.323
REMARK  7 active torsions:
REMARK  status: ('A' for Active; 'I' for Inactive)
REMARK    1  A    between atoms: O_1  and  C_2 
REMARK    2  A    between atoms: C_2  and  C_3 
REMARK    3  A    between atoms: C_2  and  C_8 
REMARK    4  A    between atoms: C_3  and  C_4 
REMARK    5  A    between atoms: C_4  and  C_5 
REMARK    6  A    between atoms: C_8  and  C_9 
REMARK    7  A    between atoms: C_11  and  O_15 
ROOT
HETATM    1  O   UNL     1     -54.489  44.134  10.281  1.00  0.00    -0.395 OA
HETATM    2  H   UNL     1     -55.093  43.625   9.719  1.00  0.00     0.210 HD
ENDROOT
BRANCH   1   3
HETATM    3  C   UNL     1     -53.501  44.768   9.466  1.00  0.00     0.122 C 
BRANCH   3   4
HETATM    4  C   UNL     1     -53.409  46.242   9.876  1.00  0.00     0.042 C 
BRANCH   4   5
HETATM    5  C   UNL     1     -52.135  46.901   9.357  1.00  0.00     0.116 C 
BRANCH   5   6
HETATM    6  C   UNL     1     -52.471  47.985   8.377  1.00  0.00     0.172 C 
HETATM    7  O   UNL     1     -51.738  48.425   7.509  1.00  0.00    -0.648 OA
HETATM    8  O   UNL     1     -53.730  48.442   8.514  1.00  0.00    -0.648 OA
ENDBRANCH   5   6
ENDBRANCH   4   5
ENDBRANCH   3   4
BRANCH   3   9
HETATM    9  C   UNL     1     -53.851  44.638   7.973  1.00  0.00     0.070 C 
BRANCH   9  10
HETATM   10  C   UNL     1     -52.746  44.003   7.162  1.00  0.00    -0.053 A 
HETATM   11  C   UNL     1     -52.688  44.182   5.773  1.00  0.00     0.043 A 
HETATM   12  C   UNL     1     -51.670  43.589   5.035  1.00  0.00     0.066 A 
HETATM   13  C   UNL     1     -50.698  42.810   5.654  1.00  0.00     0.036 A 
HETATM   14  C   UNL     1     -50.749  42.624   7.035  1.00  0.00     0.003 A 
HETATM   15  C   UNL     1     -51.767  43.216   7.786  1.00  0.00     0.007 A 
BRANCH  12  16
HETATM   16  O   UNL     1     -51.660  43.798   3.687  1.00  0.00    -0.361 OA
HETATM   17  H   UNL     1     -52.455  44.013   3.240  1.00  0.00     0.217 HD
ENDBRANCH  12  16
ENDBRANCH   9  10
ENDBRANCH   3   9
ENDBRANCH   1   3
TORSDOF 7
ENDMDL
