MODEL 1
REMARK VINA RESULT:      -8.0      0.000      0.000
REMARK  7 active torsions:
REMARK  status: ('A' for Active; 'I' for Inactive)
REMARK    1  A    between atoms: O_1  and  C_2 
REMARK    2  A    between atoms: C_2  and  C_3 
REMARK    3  A    between atoms: C_2  and  C_8 
REMARK    4  A    between atoms: C_3  and  C_4 
REMARK    5  A    between atoms: C_4  and  C_5 
REMARK    6  A    between atoms: C_8  and  C_9 
REMARK    7  A    between atoms: C_11  and  O_15 
ROOT
HETATM    1  O   UNL     1     -52.990  48.289   8.115  1.00  0.00    -0.395 OA
HETATM    2  H   UNL     1     -52.884  49.218   8.375  1.00  0.00     0.210 HD
ENDROOT
BRANCH   1   3
HETATM    3  C   UNL     1     -53.648  47.574   9.163  1.00  0.00     0.122 C 
BRANCH   3   4
HETATM    4  C   UNL     1     -53.946  48.552  10.304  1.00  0.00     0.042 C 
BRANCH   4   5
HETATM    5  C   UNL     1     -54.879  49.677   9.863  1.00  0.00     0.116 C 
BRANCH   5   6
HETATM    6  C   UNL     1     -54.099  50.931   9.608  1.00  0.00     0.172 C 
HETATM    7  O   UNL     1     -53.752  51.356   8.519  1.00  0.00    -0.648 OA
HETATM    8  O   UNL     1     -53.820  51.613  10.735  1.00  0.00    -0.648 OA
ENDBRANCH   5   6
ENDBRANCH   4   5
ENDBRANCH   3   4
BRANCH   3   9
HETATM    9  C   UNL     1     -52.782  46.403   9.660  1.00  0.00     0.070 C 
BRANCH   9  10
HETATM   10  C   UNL     1     -52.718  45.257   8.678  1.00  0.00    -0.053 A 
HETATM   11  C   UNL     1     -53.884  44.775   8.068  1.00  0.00     0.043 A 
HETATM   12  C   UNL     1     -53.815  43.715   7.170  1.00  0.00     0.066 A 
HETATM   13  C   UNL     1     -52.598  43.116   6.863  1.00  0.00     0.036 A 
HETATM   14  C   UNL     1     -51.434  43.588   7.466  1.00  0.00     0.003 A 
HETATM   15  C   UNL     1     -51.491  44.652   8.369  1.00  0.00     0.007 A 
BRANCH  12  16
HETATM   16  O   UNL     1     -54.981  43.287   6.604  1.00  0.00    -0.361 OA
HETATM   17  H   UNL     1     -55.145  42.370   6.507  1.00  0.00     0.217 HD
ENDBRANCH  12  16
ENDBRANCH   9  10
ENDBRANCH   3   9
ENDBRANCH   1   3
TORSDOF 7
ENDMDL
MODEL 2
REMARK VINA RESULT:      -7.9      1.944      2.586
REMARK  7 active torsions:
REMARK  status: ('A' for Active; 'I' for Inactive)
REMARK    1  A    between atoms: O_1  and  C_2 
REMARK    2  A    between atoms: C_2  and  C_3 
REMARK    3  A    between atoms: C_2  and  C_8 
REMARK    4  A    between atoms: C_3  and  C_4 
REMARK    5  A    between atoms: C_4  and  C_5 
REMARK    6  A    between atoms: C_8  and  C_9 
REMARK    7  A    between atoms: C_11  and  O_15 
ROOT
HETATM    1  O   UNL     1     -53.003  48.584   8.197  1.00  0.00    -0.395 OA
HETATM    2  H   UNL     1     -53.285  49.418   7.789  1.00  0.00     0.210 HD
ENDROOT
BRANCH   1   3
HETATM    3  C   UNL     1     -53.965  48.184   9.175  1.00  0.00     0.122 C 
BRANCH   3   4
HETATM    4  C   UNL     1     -54.996  49.308   9.328  1.00  0.00     0.042 C 
BRANCH   4   5
HETATM    5  C   UNL     1     -54.455  50.470  10.156  1.00  0.00     0.116 C 
BRANCH   5   6
HETATM    6  C   UNL     1     -54.216  51.665   9.284  1.00  0.00     0.172 C 
HETATM    7  O   UNL     1     -53.720  52.723   9.630  1.00  0.00    -0.648 OA
HETATM    8  O   UNL     1     -54.583  51.461   8.004  1.00  0.00    -0.648 OA
ENDBRANCH   5   6
ENDBRANCH   4   5
ENDBRANCH   3   4
BRANCH   3   9
HETATM    9  C   UNL     1     -53.287  47.879  10.523  1.00  0.00     0.070 C 
BRANCH   9  10
HETATM   10  C   UNL     1     -53.029  46.405  10.732  1.00  0.00    -0.053 A 
HETATM   11  C   UNL     1     -53.499  45.460   9.810  1.00  0.00     0.043 A 
HETATM   12  C   UNL     1     -53.261  44.105  10.016  1.00  0.00     0.066 A 
HETATM   13  C   UNL     1     -52.560  43.664  11.133  1.00  0.00     0.036 A 
HETATM   14  C   UNL     1     -52.091  44.597  12.057  1.00  0.00     0.003 A 
HETATM   15  C   UNL     1     -52.324  45.960  11.860  1.00  0.00     0.007 A 
BRANCH  12  16
HETATM   16  O   UNL     1     -53.739  43.230   9.085  1.00  0.00    -0.361 OA
HETATM   17  H   UNL     1     -53.540  43.355   8.178  1.00  0.00     0.217 HD
ENDBRANCH  12  16
ENDBRANCH   9  10
ENDBRANCH   3   9
ENDBRANCH   1   3
TORSDOF 7
ENDMDL
MODEL 3
REMARK VINA RESULT:      -7.6      1.429      6.264
REMARK  7 active torsions:
REMARK  status: ('A' for Active; 'I' for Inactive)
REMARK    1  A    between atoms: O_1  and  C_2 
REMARK    2  A    between atoms: C_2  and  C_3 
REMARK    3  A    between atoms: C_2  and  C_8 
REMARK    4  A    between atoms: C_3  and  C_4 
REMARK    5  A    between atoms: C_4  and  C_5 
REMARK    6  A    between atoms: C_8  and  C_9 
REMARK    7  A    between atoms: C_11  and  O_15 
ROOT
HETATM    1  O   UNL     1     -54.053  43.643   9.838  1.00  0.00    -0.395 OA
HETATM    2  H   UNL     1     -54.039  42.801   9.358  1.00  0.00     0.210 HD
ENDROOT
BRANCH   1   3
HETATM    3  C   UNL     1     -53.742  44.709   8.938  1.00  0.00     0.122 C 
BRANCH   3   4
HETATM    4  C   UNL     1     -52.779  44.176   7.872  1.00  0.00     0.042 C 
BRANCH   4   5
HETATM    5  C   UNL     1     -53.424  43.095   7.009  1.00  0.00     0.116 C 
BRANCH   5   6
HETATM    6  C   UNL     1     -54.441  43.700   6.090  1.00  0.00     0.172 C 
HETATM    7  O   UNL     1     -54.219  44.486   5.185  1.00  0.00    -0.648 OA
HETATM    8  O   UNL     1     -55.691  43.260   6.329  1.00  0.00    -0.648 OA
ENDBRANCH   5   6
ENDBRANCH   4   5
ENDBRANCH   3   4
BRANCH   3   9
HETATM    9  C   UNL     1     -53.119  45.900   9.689  1.00  0.00     0.070 C 
BRANCH   9  10
HETATM   10  C   UNL     1     -53.959  47.154   9.605  1.00  0.00    -0.053 A 
HETATM   11  C   UNL     1     -53.462  48.378  10.073  1.00  0.00     0.043 A 
HETATM   12  C   UNL     1     -54.246  49.524   9.997  1.00  0.00     0.066 A 
HETATM   13  C   UNL     1     -55.529  49.479   9.460  1.00  0.00     0.036 A 
HETATM   14  C   UNL     1     -56.032  48.265   8.994  1.00  0.00     0.003 A 
HETATM   15  C   UNL     1     -55.253  47.108   9.065  1.00  0.00     0.007 A 
BRANCH  12  16
HETATM   16  O   UNL     1     -53.713  50.688  10.465  1.00  0.00    -0.361 OA
HETATM   17  H   UNL     1     -54.167  51.498  10.337  1.00  0.00     0.217 HD
ENDBRANCH  12  16
ENDBRANCH   9  10
ENDBRANCH   3   9
ENDBRANCH   1   3
TORSDOF 7
ENDMDL
MODEL 4
REMARK VINA RESULT:      -7.3      2.247      6.276
REMARK  7 active torsions:
REMARK  status: ('A' for Active; 'I' for Inactive)
REMARK    1  A    between atoms: O_1  and  C_2 
REMARK    2  A    between atoms: C_2  and  C_3 
REMARK    3  A    between atoms: C_2  and  C_8 
REMARK    4  A    between atoms: C_3  and  C_4 
REMARK    5  A    between atoms: C_4  and  C_5 
REMARK    6  A    between atoms: C_8  and  C_9 
REMARK    7  A    between atoms: C_11  and  O_15 
ROOT
HETATM    1  O   UNL     1     -54.013  42.915   7.535  1.00  0.00    -0.395 OA
HETATM    2  H   UNL     1     -53.730  42.438   8.330  1.00  0.00     0.210 HD
ENDROOT
BRANCH   1   3
HETATM    3  C   UNL     1     -53.681  44.299   7.667  1.00  0.00     0.122 C 
BRANCH   3   4
HETATM    4  C   UNL     1     -52.235  44.496   7.197  1.00  0.00     0.042 C 
BRANCH   4   5
HETATM    5  C   UNL     1     -51.868  43.541   6.065  1.00  0.00     0.116 C 
BRANCH   5   6
HETATM    6  C   UNL     1     -51.768  44.285   4.767  1.00  0.00     0.172 C 
HETATM    7  O   UNL     1     -52.504  45.181   4.391  1.00  0.00    -0.648 OA
HETATM    8  O   UNL     1     -50.723  43.889   4.015  1.00  0.00    -0.648 OA
ENDBRANCH   5   6
ENDBRANCH   4   5
ENDBRANCH   3   4
BRANCH   3   9
HETATM    9  C   UNL     1     -53.850  44.771   9.122  1.00  0.00     0.070 C 
BRANCH   9  10
HETATM   10  C   UNL     1     -54.459  46.150   9.227  1.00  0.00    -0.053 A 
HETATM   11  C   UNL     1     -53.742  47.204   9.808  1.00  0.00     0.043 A 
HETATM   12  C   UNL     1     -54.314  48.468   9.906  1.00  0.00     0.066 A 
HETATM   13  C   UNL     1     -55.601  48.708   9.435  1.00  0.00     0.036 A 
HETATM   14  C   UNL     1     -56.323  47.665   8.858  1.00  0.00     0.003 A 
HETATM   15  C   UNL     1     -55.757  46.392   8.754  1.00  0.00     0.007 A 
BRANCH  12  16
HETATM   16  O   UNL     1     -53.570  49.458  10.478  1.00  0.00    -0.361 OA
HETATM   17  H   UNL     1     -53.133  50.087   9.938  1.00  0.00     0.217 HD
ENDBRANCH  12  16
ENDBRANCH   9  10
ENDBRANCH   3   9
ENDBRANCH   1   3
TORSDOF 7
ENDMDL
MODEL 5
REMARK VINA RESULT:      -7.3      1.299      1.796
REMARK  7 active torsions:
REMARK  status: ('A' for Active; 'I' for Inactive)
REMARK    1  A    between atoms: O_1  and  C_2 
REMARK    2  A    between atoms: C_2  and  C_3 
REMARK    3  A    between atoms: C_2  and  C_8 
REMARK    4  A    between atoms: C_3  and  C_4 
REMARK    5  A    between atoms: C_4  and  C_5 
REMARK    6  A    between atoms: C_8  and  C_9 
REMARK    7  A    between atoms: C_11  and  O_15 
ROOT
HETATM    1  O   UNL     1     -52.977  48.308   8.144  1.00  0.00    -0.395 OA
HETATM    2  H   UNL     1     -53.011  49.258   8.335  1.00  0.00     0.210 HD
ENDROOT
BRANCH   1   3
HETATM    3  C   UNL     1     -53.586  47.586   9.217  1.00  0.00     0.122 C 
BRANCH   3   4
HETATM    4  C   UNL     1     -53.943  48.579  10.328  1.00  0.00     0.042 C 
BRANCH   4   5
HETATM    5  C   UNL     1     -54.861  49.691   9.827  1.00  0.00     0.116 C 
BRANCH   5   6
HETATM    6  C   UNL     1     -54.080  50.950   9.603  1.00  0.00     0.172 C 
HETATM    7  O   UNL     1     -53.713  51.391   8.527  1.00  0.00    -0.648 OA
HETATM    8  O   UNL     1     -53.824  51.618  10.745  1.00  0.00    -0.648 OA
ENDBRANCH   5   6
ENDBRANCH   4   5
ENDBRANCH   3   4
BRANCH   3   9
HETATM    9  C   UNL     1     -52.646  46.489   9.747  1.00  0.00     0.070 C 
BRANCH   9  10
HETATM   10  C   UNL     1     -52.589  45.276   8.848  1.00  0.00    -0.053 A 
HETATM   11  C   UNL     1     -51.389  44.573   8.673  1.00  0.00     0.043 A 
HETATM   12  C   UNL     1     -51.347  43.462   7.838  1.00  0.00     0.066 A 
HETATM   13  C   UNL     1     -52.484  43.030   7.164  1.00  0.00     0.036 A 
HETATM   14  C   UNL     1     -53.681  43.724   7.330  1.00  0.00     0.003 A 
HETATM   15  C   UNL     1     -53.735  44.842   8.167  1.00  0.00     0.007 A 
BRANCH  12  16
HETATM   16  O   UNL     1     -50.154  42.814   7.706  1.00  0.00    -0.361 OA
HETATM   17  H   UNL     1     -50.128  41.878   7.689  1.00  0.00     0.217 HD
ENDBRANCH  12  16
ENDBRANCH   9  10
ENDBRANCH   3   9
ENDBRANCH   1   3
TORSDOF 7
ENDMDL
MODEL 6
REMARK VINA RESULT:      -7.3      2.484      4.023
REMARK  7 active torsions:
REMARK  status: ('A' for Active; 'I' for Inactive)
REMARK    1  A    between atoms: O_1  and  C_2 
REMARK    2  A    between atoms: C_2  and  C_3 
REMARK    3  A    between atoms: C_2  and  C_8 
REMARK    4  A    between atoms: C_3  and  C_4 
REMARK    5  A    between atoms: C_4  and  C_5 
REMARK    6  A    between atoms: C_8  and  C_9 
REMARK    7  A    between atoms: C_11  and  O_15 
ROOT
HETATM    1  O   UNL     1     -55.405  46.776   8.137  1.00  0.00    -0.395 OA
HETATM    2  H   UNL     1     -54.721  46.619   7.468  1.00  0.00     0.210 HD
ENDROOT
BRANCH   1   3
HETATM    3  C   UNL     1     -54.785  47.101   9.383  1.00  0.00     0.122 C 
BRANCH   3   4
HETATM    4  C   UNL     1     -54.986  48.598   9.647  1.00  0.00     0.042 C 
BRANCH   4   5
HETATM    5  C   UNL     1     -53.763  49.417   9.245  1.00  0.00     0.116 C 
BRANCH   5   6
HETATM    6  C   UNL     1     -54.066  50.883   9.336  1.00  0.00     0.172 C 
HETATM    7  O   UNL     1     -54.422  51.604   8.420  1.00  0.00    -0.648 OA
HETATM    8  O   UNL     1     -53.939  51.367  10.586  1.00  0.00    -0.648 OA
ENDBRANCH   5   6
ENDBRANCH   4   5
ENDBRANCH   3   4
BRANCH   3   9
HETATM    9  C   UNL     1     -53.288  46.747   9.364  1.00  0.00     0.070 C 
BRANCH   9  10
HETATM   10  C   UNL     1     -52.786  46.232  10.693  1.00  0.00    -0.053 A 
HETATM   11  C   UNL     1     -52.491  47.120  11.736  1.00  0.00     0.043 A 
HETATM   12  C   UNL     1     -52.024  46.636  12.954  1.00  0.00     0.066 A 
HETATM   13  C   UNL     1     -51.840  45.273  13.158  1.00  0.00     0.036 A 
HETATM   14  C   UNL     1     -52.128  44.383  12.125  1.00  0.00     0.003 A 
HETATM   15  C   UNL     1     -52.598  44.858  10.898  1.00  0.00     0.007 A 
BRANCH  12  16
HETATM   16  O   UNL     1     -51.755  47.545  13.935  1.00  0.00    -0.361 OA
HETATM   17  H   UNL     1     -52.364  48.233  14.116  1.00  0.00     0.217 HD
ENDBRANCH  12  16
ENDBRANCH   9  10
ENDBRANCH   3   9
ENDBRANCH   1   3
TORSDOF 7
ENDMDL
MODEL 7
REMARK VINA RESULT:      -7.1      2.827      5.621
REMARK  7 active torsions:
REMARK  status: ('A' for Active; 'I' for Inactive)
REMARK    1  A    between atoms: O_1  and  C_2 
REMARK    2  A    between atoms: C_2  and  C_3 
REMARK    3  A    between atoms: C_2  and  C_8 
REMARK    4  A    between atoms: C_3  and  C_4 
REMARK    5  A    between atoms: C_4  and  C_5 
REMARK    6  A    between atoms: C_8  and  C_9 
REMARK    7  A    between atoms: C_11  and  O_15 
ROOT
HETATM    1  O   UNL     1     -52.316  45.492   6.910  1.00  0.00    -0.395 OA
HETATM    2  H   UNL     1     -52.815  45.052   6.205  1.00  0.00     0.210 HD
ENDROOT
BRANCH   1   3
HETATM    3  C   UNL     1     -52.156  44.596   8.012  1.00  0.00     0.122 C 
BRANCH   3   4
HETATM    4  C   UNL     1     -52.988  43.339   7.737  1.00  0.00     0.042 C 
BRANCH   4   5
HETATM    5  C   UNL     1     -53.223  43.125   6.244  1.00  0.00     0.116 C 
BRANCH   5   6
HETATM    6  C   UNL     1     -54.627  43.499   5.878  1.00  0.00     0.172 C 
HETATM    7  O   UNL     1     -55.644  42.942   6.254  1.00  0.00    -0.648 OA
HETATM    8  O   UNL     1     -54.689  44.583   5.081  1.00  0.00    -0.648 OA
ENDBRANCH   5   6
ENDBRANCH   4   5
ENDBRANCH   3   4
BRANCH   3   9
HETATM    9  C   UNL     1     -52.589  45.259   9.331  1.00  0.00     0.070 C 
BRANCH   9  10
HETATM   10  C   UNL     1     -53.786  46.167   9.169  1.00  0.00    -0.053 A 
HETATM   11  C   UNL     1     -55.062  45.632   8.949  1.00  0.00     0.043 A 
HETATM   12  C   UNL     1     -56.156  46.477   8.795  1.00  0.00     0.066 A 
HETATM   13  C   UNL     1     -56.007  47.859   8.853  1.00  0.00     0.036 A 
HETATM   14  C   UNL     1     -54.740  48.399   9.069  1.00  0.00     0.003 A 
HETATM   15  C   UNL     1     -53.635  47.560   9.226  1.00  0.00     0.007 A 
BRANCH  12  16
HETATM   16  O   UNL     1     -57.375  45.902   8.586  1.00  0.00    -0.361 OA
HETATM   17  H   UNL     1     -57.522  45.010   8.832  1.00  0.00     0.217 HD
ENDBRANCH  12  16
ENDBRANCH   9  10
ENDBRANCH   3   9
ENDBRANCH   1   3
TORSDOF 7
ENDMDL
MODEL 8
REMARK VINA RESULT:      -7.1      1.632      1.933
REMARK  7 active torsions:
REMARK  status: ('A' for Active; 'I' for Inactive)
REMARK    1  A    between atoms: O_1  and  C_2 
REMARK    2  A    between atoms: C_2  and  C_3 
REMARK    3  A    between atoms: C_2  and  C_8 
REMARK    4  A    between atoms: C_3  and  C_4 
REMARK    5  A    between atoms: C_4  and  C_5 
REMARK    6  A    between atoms: C_8  and  C_9 
REMARK    7  A    between atoms: C_11  and  O_15 
ROOT
HETATM    1  O   UNL     1     -55.524  46.653   8.071  1.00  0.00    -0.395 OA
HETATM    2  H   UNL     1     -56.488  46.734   8.130  1.00  0.00     0.210 HD
ENDROOT
BRANCH   1   3
HETATM    3  C   UNL     1     -54.919  47.354   9.159  1.00  0.00     0.122 C 
BRANCH   3   4
HETATM    4  C   UNL     1     -55.190  48.851   8.981  1.00  0.00     0.042 C 
BRANCH   4   5
HETATM    5  C   UNL     1     -54.692  49.668  10.170  1.00  0.00     0.116 C 
BRANCH   5   6
HETATM    6  C   UNL     1     -54.097  50.961   9.701  1.00  0.00     0.172 C 
HETATM    7  O   UNL     1     -53.940  51.305   8.542  1.00  0.00    -0.648 OA
HETATM    8  O   UNL     1     -53.757  51.779  10.715  1.00  0.00    -0.648 OA
ENDBRANCH   5   6
ENDBRANCH   4   5
ENDBRANCH   3   4
BRANCH   3   9
HETATM    9  C   UNL     1     -53.406  47.077   9.221  1.00  0.00     0.070 C 
BRANCH   9  10
HETATM   10  C   UNL     1     -53.069  45.610   9.091  1.00  0.00    -0.053 A 
HETATM   11  C   UNL     1     -52.320  45.143   8.003  1.00  0.00     0.043 A 
HETATM   12  C   UNL     1     -52.022  43.789   7.890  1.00  0.00     0.066 A 
HETATM   13  C   UNL     1     -52.459  42.878   8.846  1.00  0.00     0.036 A 
HETATM   14  C   UNL     1     -53.207  43.333   9.931  1.00  0.00     0.003 A 
HETATM   15  C   UNL     1     -53.512  44.691  10.054  1.00  0.00     0.007 A 
BRANCH  12  16
HETATM   16  O   UNL     1     -51.287  43.391   6.812  1.00  0.00    -0.361 OA
HETATM   17  H   UNL     1     -51.246  42.483   6.583  1.00  0.00     0.217 HD
ENDBRANCH  12  16
ENDBRANCH   9  10
ENDBRANCH   3   9
ENDBRANCH   1   3
TORSDOF 7
ENDMDL
MODEL 9
REMARK VINA RESULT:      -6.8      2.185      6.650
REMARK  7 active torsions:
REMARK  status: ('A' for Active; 'I' for Inactive)
REMARK    1  A    between atoms: O_1  and  C_2 
REMARK    2  A    between atoms: C_2  and  C_3 
REMARK    3  A    between atoms: C_2  and  C_8 
REMARK    4  A    between atoms: C_3  and  C_4 
REMARK    5  A    between atoms: C_4  and  C_5 
REMARK    6  A    between atoms: C_8  and  C_9 
REMARK    7  A    between atoms: C_11  and  O_15 
ROOT
HETATM    1  O   UNL     1     -52.871  45.011   6.590  1.00  0.00    -0.395 OA
HETATM    2  H   UNL     1     -52.093  44.504   6.310  1.00  0.00     0.210 HD
ENDROOT
BRANCH   1   3
HETATM    3  C   UNL     1     -53.291  44.562   7.881  1.00  0.00     0.122 C 
BRANCH   3   4
HETATM    4  C   UNL     1     -53.321  43.030   7.873  1.00  0.00     0.042 C 
BRANCH   4   5
HETATM    5  C   UNL     1     -53.003  42.459   6.495  1.00  0.00     0.116 C 
BRANCH   5   6
HETATM    6  C   UNL     1     -54.266  42.224   5.723  1.00  0.00     0.172 C 
HETATM    7  O   UNL     1     -55.403  42.335   6.149  1.00  0.00    -0.648 OA
HETATM    8  O   UNL     1     -54.041  41.894   4.438  1.00  0.00    -0.648 OA
ENDBRANCH   5   6
ENDBRANCH   4   5
ENDBRANCH   3   4
BRANCH   3   9
HETATM    9  C   UNL     1     -54.674  45.134   8.240  1.00  0.00     0.070 C 
BRANCH   9  10
HETATM   10  C   UNL     1     -54.593  46.432   9.009  1.00  0.00    -0.053 A 
HETATM   11  C   UNL     1     -53.579  46.641   9.953  1.00  0.00     0.043 A 
HETATM   12  C   UNL     1     -53.519  47.838  10.659  1.00  0.00     0.066 A 
HETATM   13  C   UNL     1     -54.457  48.842  10.446  1.00  0.00     0.036 A 
HETATM   14  C   UNL     1     -55.471  48.642   9.510  1.00  0.00     0.003 A 
HETATM   15  C   UNL     1     -55.541  47.444   8.795  1.00  0.00     0.007 A 
BRANCH  12  16
HETATM   16  O   UNL     1     -52.509  47.989  11.564  1.00  0.00    -0.361 OA
HETATM   17  H   UNL     1     -51.617  47.919  11.287  1.00  0.00     0.217 HD
ENDBRANCH  12  16
ENDBRANCH   9  10
ENDBRANCH   3   9
ENDBRANCH   1   3
TORSDOF 7
ENDMDL
