MODEL 1
REMARK VINA RESULT:      -8.0      0.000      0.000
REMARK  7 active torsions:
REMARK  status: ('A' for Active; 'I' for Inactive)
REMARK    1  A    between atoms: O_1  and  C_2 
REMARK    2  A    between atoms: C_2  and  C_3 
REMARK    3  A    between atoms: C_2  and  C_8 
REMARK    4  A    between atoms: C_3  and  C_4 
REMARK    5  A    between atoms: C_4  and  C_5 
REMARK    6  A    between atoms: C_8  and  C_9 
REMARK    7  A    between atoms: C_11  and  O_15 
ROOT
HETATM    1  O   UNL     1     -53.136  48.336   8.181  1.00  0.00    -0.395 OA
HETATM    2  H   UNL     1     -52.226  48.010   8.100  1.00  0.00     0.210 HD
ENDROOT
BRANCH   1   3
HETATM    3  C   UNL     1     -53.811  47.615   9.214  1.00  0.00     0.122 C 
BRANCH   3   4
HETATM    4  C   UNL     1     -54.117  48.586  10.360  1.00  0.00     0.042 C 
BRANCH   4   5
HETATM    5  C   UNL     1     -54.965  49.767   9.897  1.00  0.00     0.116 C 
BRANCH   5   6
HETATM    6  C   UNL     1     -54.096  50.958   9.627  1.00  0.00     0.172 C 
HETATM    7  O   UNL     1     -53.685  51.320   8.538  1.00  0.00    -0.648 OA
HETATM    8  O   UNL     1     -53.811  51.661  10.740  1.00  0.00    -0.648 OA
ENDBRANCH   5   6
ENDBRANCH   4   5
ENDBRANCH   3   4
BRANCH   3   9
HETATM    9  C   UNL     1     -52.956  46.436   9.711  1.00  0.00     0.070 C 
BRANCH   9  10
HETATM   10  C   UNL     1     -52.841  45.322   8.697  1.00  0.00    -0.053 A 
HETATM   11  C   UNL     1     -53.985  44.794   8.084  1.00  0.00     0.043 A 
HETATM   12  C   UNL     1     -53.867  43.764   7.156  1.00  0.00     0.066 A 
HETATM   13  C   UNL     1     -52.622  43.241   6.822  1.00  0.00     0.036 A 
HETATM   14  C   UNL     1     -51.479  43.759   7.429  1.00  0.00     0.003 A 
HETATM   15  C   UNL     1     -51.585  44.793   8.362  1.00  0.00     0.007 A 
BRANCH  12  16
HETATM   16  O   UNL     1     -55.013  43.289   6.588  1.00  0.00    -0.361 OA
HETATM   17  H   UNL     1     -55.401  42.498   6.907  1.00  0.00     0.217 HD
ENDBRANCH  12  16
ENDBRANCH   9  10
ENDBRANCH   3   9
ENDBRANCH   1   3
TORSDOF 7
ENDMDL
MODEL 2
REMARK VINA RESULT:      -7.7      1.433      6.269
REMARK  7 active torsions:
REMARK  status: ('A' for Active; 'I' for Inactive)
REMARK    1  A    between atoms: O_1  and  C_2 
REMARK    2  A    between atoms: C_2  and  C_3 
REMARK    3  A    between atoms: C_2  and  C_8 
REMARK    4  A    between atoms: C_3  and  C_4 
REMARK    5  A    between atoms: C_4  and  C_5 
REMARK    6  A    between atoms: C_8  and  C_9 
REMARK    7  A    between atoms: C_11  and  O_15 
ROOT
HETATM    1  O   UNL     1     -53.756  43.471   9.152  1.00  0.00    -0.395 OA
HETATM    2  H   UNL     1     -52.971  43.353   9.708  1.00  0.00     0.210 HD
ENDROOT
BRANCH   1   3
HETATM    3  C   UNL     1     -53.620  44.669   8.383  1.00  0.00     0.122 C 
BRANCH   3   4
HETATM    4  C   UNL     1     -52.741  44.363   7.166  1.00  0.00     0.042 C 
BRANCH   4   5
HETATM    5  C   UNL     1     -53.349  43.279   6.280  1.00  0.00     0.116 C 
BRANCH   5   6
HETATM    6  C   UNL     1     -54.735  43.664   5.861  1.00  0.00     0.172 C 
HETATM    7  O   UNL     1     -55.775  43.186   6.280  1.00  0.00    -0.648 OA
HETATM    8  O   UNL     1     -54.750  44.661   4.955  1.00  0.00    -0.648 OA
ENDBRANCH   5   6
ENDBRANCH   4   5
ENDBRANCH   3   4
BRANCH   3   9
HETATM    9  C   UNL     1     -53.007  45.800   9.228  1.00  0.00     0.070 C 
BRANCH   9  10
HETATM   10  C   UNL     1     -53.916  47.000   9.354  1.00  0.00    -0.053 A 
HETATM   11  C   UNL     1     -53.433  48.210   9.869  1.00  0.00     0.043 A 
HETATM   12  C   UNL     1     -54.280  49.307   9.987  1.00  0.00     0.066 A 
HETATM   13  C   UNL     1     -55.614  49.225   9.600  1.00  0.00     0.036 A 
HETATM   14  C   UNL     1     -56.104  48.025   9.089  1.00  0.00     0.003 A 
HETATM   15  C   UNL     1     -55.262  46.917   8.966  1.00  0.00     0.007 A 
BRANCH  12  16
HETATM   16  O   UNL     1     -53.757  50.461  10.492  1.00  0.00    -0.361 OA
HETATM   17  H   UNL     1     -52.867  50.483  10.784  1.00  0.00     0.217 HD
ENDBRANCH  12  16
ENDBRANCH   9  10
ENDBRANCH   3   9
ENDBRANCH   1   3
TORSDOF 7
ENDMDL
MODEL 3
REMARK VINA RESULT:      -7.5      2.475      4.012
REMARK  7 active torsions:
REMARK  status: ('A' for Active; 'I' for Inactive)
REMARK    1  A    between atoms: O_1  and  C_2 
REMARK    2  A    between atoms: C_2  and  C_3 
REMARK    3  A    between atoms: C_2  and  C_8 
REMARK    4  A    between atoms: C_3  and  C_4 
REMARK    5  A    between atoms: C_4  and  C_5 
REMARK    6  A    between atoms: C_8  and  C_9 
REMARK    7  A    between atoms: C_11  and  O_15 
ROOT
HETATM    1  O   UNL     1     -55.495  46.522   8.111  1.00  0.00    -0.395 OA
HETATM    2  H   UNL     1     -54.899  46.612   7.351  1.00  0.00     0.210 HD
ENDROOT
BRANCH   1   3
HETATM    3  C   UNL     1     -54.873  47.078   9.272  1.00  0.00     0.122 C 
BRANCH   3   4
HETATM    4  C   UNL     1     -55.119  48.591   9.275  1.00  0.00     0.042 C 
BRANCH   4   5
HETATM    5  C   UNL     1     -53.815  49.381   9.228  1.00  0.00     0.116 C 
BRANCH   5   6
HETATM    6  C   UNL     1     -54.093  50.851   9.323  1.00  0.00     0.172 C 
HETATM    7  O   UNL     1     -54.485  51.571   8.421  1.00  0.00    -0.648 OA
HETATM    8  O   UNL     1     -53.897  51.342  10.561  1.00  0.00    -0.648 OA
ENDBRANCH   5   6
ENDBRANCH   4   5
ENDBRANCH   3   4
BRANCH   3   9
HETATM    9  C   UNL     1     -53.365  46.770   9.291  1.00  0.00     0.070 C 
BRANCH   9  10
HETATM   10  C   UNL     1     -52.885  46.257  10.628  1.00  0.00    -0.053 A 
HETATM   11  C   UNL     1     -52.520  47.148  11.645  1.00  0.00     0.043 A 
HETATM   12  C   UNL     1     -52.073  46.664  12.871  1.00  0.00     0.066 A 
HETATM   13  C   UNL     1     -51.978  45.297  13.108  1.00  0.00     0.036 A 
HETATM   14  C   UNL     1     -52.337  44.403  12.101  1.00  0.00     0.003 A 
HETATM   15  C   UNL     1     -52.788  44.878  10.867  1.00  0.00     0.007 A 
BRANCH  12  16
HETATM   16  O   UNL     1     -51.732  47.577  13.826  1.00  0.00    -0.361 OA
HETATM   17  H   UNL     1     -52.198  48.388  13.886  1.00  0.00     0.217 HD
ENDBRANCH  12  16
ENDBRANCH   9  10
ENDBRANCH   3   9
ENDBRANCH   1   3
TORSDOF 7
ENDMDL
MODEL 4
REMARK VINA RESULT:      -7.3      2.219      6.312
REMARK  7 active torsions:
REMARK  status: ('A' for Active; 'I' for Inactive)
REMARK    1  A    between atoms: O_1  and  C_2 
REMARK    2  A    between atoms: C_2  and  C_3 
REMARK    3  A    between atoms: C_2  and  C_8 
REMARK    4  A    between atoms: C_3  and  C_4 
REMARK    5  A    between atoms: C_4  and  C_5 
REMARK    6  A    between atoms: C_8  and  C_9 
REMARK    7  A    between atoms: C_11  and  O_15 
ROOT
HETATM    1  O   UNL     1     -54.579  43.285   7.077  1.00  0.00    -0.395 OA
HETATM    2  H   UNL     1     -54.701  42.707   7.847  1.00  0.00     0.210 HD
ENDROOT
BRANCH   1   3
HETATM    3  C   UNL     1     -53.692  44.352   7.418  1.00  0.00     0.122 C 
BRANCH   3   4
HETATM    4  C   UNL     1     -52.258  43.904   7.112  1.00  0.00     0.042 C 
BRANCH   4   5
HETATM    5  C   UNL     1     -52.153  43.212   5.756  1.00  0.00     0.116 C 
BRANCH   5   6
HETATM    6  C   UNL     1     -51.791  44.203   4.692  1.00  0.00     0.172 C 
HETATM    7  O   UNL     1     -52.399  45.224   4.419  1.00  0.00    -0.648 OA
HETATM    8  O   UNL     1     -50.657  43.881   4.040  1.00  0.00    -0.648 OA
ENDBRANCH   5   6
ENDBRANCH   4   5
ENDBRANCH   3   4
BRANCH   3   9
HETATM    9  C   UNL     1     -53.838  44.739   8.901  1.00  0.00     0.070 C 
BRANCH   9  10
HETATM   10  C   UNL     1     -54.452  46.105   9.096  1.00  0.00    -0.053 A 
HETATM   11  C   UNL     1     -53.721  47.137   9.699  1.00  0.00     0.043 A 
HETATM   12  C   UNL     1     -54.299  48.389   9.879  1.00  0.00     0.066 A 
HETATM   13  C   UNL     1     -55.605  48.639   9.470  1.00  0.00     0.036 A 
HETATM   14  C   UNL     1     -56.341  47.618   8.872  1.00  0.00     0.003 A 
HETATM   15  C   UNL     1     -55.770  46.357   8.685  1.00  0.00     0.007 A 
BRANCH  12  16
HETATM   16  O   UNL     1     -53.541  49.357  10.469  1.00  0.00    -0.361 OA
HETATM   17  H   UNL     1     -53.597  50.243  10.170  1.00  0.00     0.217 HD
ENDBRANCH  12  16
ENDBRANCH   9  10
ENDBRANCH   3   9
ENDBRANCH   1   3
TORSDOF 7
ENDMDL
MODEL 5
REMARK VINA RESULT:      -7.3      1.484      2.086
REMARK  7 active torsions:
REMARK  status: ('A' for Active; 'I' for Inactive)
REMARK    1  A    between atoms: O_1  and  C_2 
REMARK    2  A    between atoms: C_2  and  C_3 
REMARK    3  A    between atoms: C_2  and  C_8 
REMARK    4  A    between atoms: C_3  and  C_4 
REMARK    5  A    between atoms: C_4  and  C_5 
REMARK    6  A    between atoms: C_8  and  C_9 
REMARK    7  A    between atoms: C_11  and  O_15 
ROOT
HETATM    1  O   UNL     1     -52.877  48.304   8.111  1.00  0.00    -0.395 OA
HETATM    2  H   UNL     1     -53.027  47.853   7.265  1.00  0.00     0.210 HD
ENDROOT
BRANCH   1   3
HETATM    3  C   UNL     1     -53.511  47.570   9.161  1.00  0.00     0.122 C 
BRANCH   3   4
HETATM    4  C   UNL     1     -54.019  48.566  10.209  1.00  0.00     0.042 C 
BRANCH   4   5
HETATM    5  C   UNL     1     -54.972  49.593   9.606  1.00  0.00     0.116 C 
BRANCH   5   6
HETATM    6  C   UNL     1     -54.338  50.952   9.601  1.00  0.00     0.172 C 
HETATM    7  O   UNL     1     -53.769  51.486  10.537  1.00  0.00    -0.648 OA
HETATM    8  O   UNL     1     -54.420  51.564   8.404  1.00  0.00    -0.648 OA
ENDBRANCH   5   6
ENDBRANCH   4   5
ENDBRANCH   3   4
BRANCH   3   9
HETATM    9  C   UNL     1     -52.537  46.560   9.794  1.00  0.00     0.070 C 
BRANCH   9  10
HETATM   10  C   UNL     1     -52.429  45.273   9.010  1.00  0.00    -0.053 A 
HETATM   11  C   UNL     1     -51.204  44.601   8.907  1.00  0.00     0.043 A 
HETATM   12  C   UNL     1     -51.115  43.420   8.177  1.00  0.00     0.066 A 
HETATM   13  C   UNL     1     -52.230  42.889   7.537  1.00  0.00     0.036 A 
HETATM   14  C   UNL     1     -53.452  43.553   7.631  1.00  0.00     0.003 A 
HETATM   15  C   UNL     1     -53.553  44.739   8.362  1.00  0.00     0.007 A 
BRANCH  12  16
HETATM   16  O   UNL     1     -49.899  42.806   8.113  1.00  0.00    -0.361 OA
HETATM   17  H   UNL     1     -49.574  42.331   8.853  1.00  0.00     0.217 HD
ENDBRANCH  12  16
ENDBRANCH   9  10
ENDBRANCH   3   9
ENDBRANCH   1   3
TORSDOF 7
ENDMDL
MODEL 6
REMARK VINA RESULT:      -7.1      3.188      5.644
REMARK  7 active torsions:
REMARK  status: ('A' for Active; 'I' for Inactive)
REMARK    1  A    between atoms: O_1  and  C_2 
REMARK    2  A    between atoms: C_2  and  C_3 
REMARK    3  A    between atoms: C_2  and  C_8 
REMARK    4  A    between atoms: C_3  and  C_4 
REMARK    5  A    between atoms: C_4  and  C_5 
REMARK    6  A    between atoms: C_8  and  C_9 
REMARK    7  A    between atoms: C_11  and  O_15 
ROOT
HETATM    1  O   UNL     1     -51.711  43.708   9.688  1.00  0.00    -0.395 OA
HETATM    2  H   UNL     1     -51.962  43.961  10.590  1.00  0.00     0.210 HD
ENDROOT
BRANCH   1   3
HETATM    3  C   UNL     1     -52.506  44.438   8.751  1.00  0.00     0.122 C 
BRANCH   3   4
HETATM    4  C   UNL     1     -51.901  44.251   7.355  1.00  0.00     0.042 C 
BRANCH   4   5
HETATM    5  C   UNL     1     -52.614  43.157   6.565  1.00  0.00     0.116 C 
BRANCH   5   6
HETATM    6  C   UNL     1     -53.902  43.677   6.001  1.00  0.00     0.172 C 
HETATM    7  O   UNL     1     -54.019  44.498   5.108  1.00  0.00    -0.648 OA
HETATM    8  O   UNL     1     -54.986  43.112   6.565  1.00  0.00    -0.648 OA
ENDBRANCH   5   6
ENDBRANCH   4   5
ENDBRANCH   3   4
BRANCH   3   9
HETATM    9  C   UNL     1     -52.568  45.930   9.124  1.00  0.00     0.070 C 
BRANCH   9  10
HETATM   10  C   UNL     1     -53.967  46.495   9.064  1.00  0.00    -0.053 A 
HETATM   11  C   UNL     1     -55.067  45.657   8.838  1.00  0.00     0.043 A 
HETATM   12  C   UNL     1     -56.350  46.189   8.778  1.00  0.00     0.066 A 
HETATM   13  C   UNL     1     -56.567  47.554   8.938  1.00  0.00     0.036 A 
HETATM   14  C   UNL     1     -55.479  48.396   9.161  1.00  0.00     0.003 A 
HETATM   15  C   UNL     1     -54.185  47.872   9.223  1.00  0.00     0.007 A 
BRANCH  12  16
HETATM   16  O   UNL     1     -57.384  45.326   8.558  1.00  0.00    -0.361 OA
HETATM   17  H   UNL     1     -57.652  45.130   7.682  1.00  0.00     0.217 HD
ENDBRANCH  12  16
ENDBRANCH   9  10
ENDBRANCH   3   9
ENDBRANCH   1   3
TORSDOF 7
ENDMDL
MODEL 7
REMARK VINA RESULT:      -7.1      2.508      3.624
REMARK  7 active torsions:
REMARK  status: ('A' for Active; 'I' for Inactive)
REMARK    1  A    between atoms: O_1  and  C_2 
REMARK    2  A    between atoms: C_2  and  C_3 
REMARK    3  A    between atoms: C_2  and  C_8 
REMARK    4  A    between atoms: C_3  and  C_4 
REMARK    5  A    between atoms: C_4  and  C_5 
REMARK    6  A    between atoms: C_8  and  C_9 
REMARK    7  A    between atoms: C_11  and  O_15 
ROOT
HETATM    1  O   UNL     1     -55.442  46.587   8.083  1.00  0.00    -0.395 OA
HETATM    2  H   UNL     1     -56.302  47.012   7.940  1.00  0.00     0.210 HD
ENDROOT
BRANCH   1   3
HETATM    3  C   UNL     1     -54.817  47.154   9.236  1.00  0.00     0.122 C 
BRANCH   3   4
HETATM    4  C   UNL     1     -55.066  48.666   9.226  1.00  0.00     0.042 C 
BRANCH   4   5
HETATM    5  C   UNL     1     -53.765  49.460   9.302  1.00  0.00     0.116 C 
BRANCH   5   6
HETATM    6  C   UNL     1     -54.053  50.912   9.535  1.00  0.00     0.172 C 
HETATM    7  O   UNL     1     -53.915  51.516  10.585  1.00  0.00    -0.648 OA
HETATM    8  O   UNL     1     -54.470  51.548   8.424  1.00  0.00    -0.648 OA
ENDBRANCH   5   6
ENDBRANCH   4   5
ENDBRANCH   3   4
BRANCH   3   9
HETATM    9  C   UNL     1     -53.308  46.850   9.251  1.00  0.00     0.070 C 
BRANCH   9  10
HETATM   10  C   UNL     1     -52.841  46.248  10.556  1.00  0.00    -0.053 A 
HETATM   11  C   UNL     1     -52.642  44.866  10.673  1.00  0.00     0.043 A 
HETATM   12  C   UNL     1     -52.218  44.321  11.881  1.00  0.00     0.066 A 
HETATM   13  C   UNL     1     -51.988  45.131  12.988  1.00  0.00     0.036 A 
HETATM   14  C   UNL     1     -52.186  46.506  12.882  1.00  0.00     0.003 A 
HETATM   15  C   UNL     1     -52.611  47.064  11.673  1.00  0.00     0.007 A 
BRANCH  12  16
HETATM   16  O   UNL     1     -52.038  42.971  11.938  1.00  0.00    -0.361 OA
HETATM   17  H   UNL     1     -52.528  42.458  12.549  1.00  0.00     0.217 HD
ENDBRANCH  12  16
ENDBRANCH   9  10
ENDBRANCH   3   9
ENDBRANCH   1   3
TORSDOF 7
ENDMDL
MODEL 8
REMARK VINA RESULT:      -7.0      1.485      6.271
REMARK  7 active torsions:
REMARK  status: ('A' for Active; 'I' for Inactive)
REMARK    1  A    between atoms: O_1  and  C_2 
REMARK    2  A    between atoms: C_2  and  C_3 
REMARK    3  A    between atoms: C_2  and  C_8 
REMARK    4  A    between atoms: C_3  and  C_4 
REMARK    5  A    between atoms: C_4  and  C_5 
REMARK    6  A    between atoms: C_8  and  C_9 
REMARK    7  A    between atoms: C_11  and  O_15 
ROOT
HETATM    1  O   UNL     1     -52.231  46.175   7.480  1.00  0.00    -0.395 OA
HETATM    2  H   UNL     1     -51.538  46.853   7.493  1.00  0.00     0.210 HD
ENDROOT
BRANCH   1   3
HETATM    3  C   UNL     1     -52.026  45.265   8.563  1.00  0.00     0.122 C 
BRANCH   3   4
HETATM    4  C   UNL     1     -51.673  43.892   7.980  1.00  0.00     0.042 C 
BRANCH   4   5
HETATM    5  C   UNL     1     -52.315  43.670   6.614  1.00  0.00     0.116 C 
BRANCH   5   6
HETATM    6  C   UNL     1     -53.335  42.574   6.689  1.00  0.00     0.172 C 
HETATM    7  O   UNL     1     -53.124  41.381   6.555  1.00  0.00    -0.648 OA
HETATM    8  O   UNL     1     -54.572  43.029   6.966  1.00  0.00    -0.648 OA
ENDBRANCH   5   6
ENDBRANCH   4   5
ENDBRANCH   3   4
BRANCH   3   9
HETATM    9  C   UNL     1     -53.278  45.174   9.453  1.00  0.00     0.070 C 
BRANCH   9  10
HETATM   10  C   UNL     1     -54.102  46.441   9.442  1.00  0.00    -0.053 A 
HETATM   11  C   UNL     1     -53.605  47.620  10.014  1.00  0.00     0.043 A 
HETATM   12  C   UNL     1     -54.375  48.778  10.004  1.00  0.00     0.066 A 
HETATM   13  C   UNL     1     -55.643  48.790   9.433  1.00  0.00     0.036 A 
HETATM   14  C   UNL     1     -56.146  47.621   8.864  1.00  0.00     0.003 A 
HETATM   15  C   UNL     1     -55.382  46.451   8.868  1.00  0.00     0.007 A 
BRANCH  12  16
HETATM   16  O   UNL     1     -53.841  49.898  10.572  1.00  0.00    -0.361 OA
HETATM   17  H   UNL     1     -52.945  50.122  10.414  1.00  0.00     0.217 HD
ENDBRANCH  12  16
ENDBRANCH   9  10
ENDBRANCH   3   9
ENDBRANCH   1   3
TORSDOF 7
ENDMDL
MODEL 9
REMARK VINA RESULT:      -6.9      2.313      2.923
REMARK  7 active torsions:
REMARK  status: ('A' for Active; 'I' for Inactive)
REMARK    1  A    between atoms: O_1  and  C_2 
REMARK    2  A    between atoms: C_2  and  C_3 
REMARK    3  A    between atoms: C_2  and  C_8 
REMARK    4  A    between atoms: C_3  and  C_4 
REMARK    5  A    between atoms: C_4  and  C_5 
REMARK    6  A    between atoms: C_8  and  C_9 
REMARK    7  A    between atoms: C_11  and  O_15 
ROOT
HETATM    1  O   UNL     1     -55.299  48.648   7.733  1.00  0.00    -0.395 OA
HETATM    2  H   UNL     1     -56.003  48.459   7.093  1.00  0.00     0.210 HD
ENDROOT
BRANCH   1   3
HETATM    3  C   UNL     1     -55.576  47.967   8.959  1.00  0.00     0.122 C 
BRANCH   3   4
HETATM    4  C   UNL     1     -54.626  48.503  10.035  1.00  0.00     0.042 C 
BRANCH   4   5
HETATM    5  C   UNL     1     -53.585  49.456   9.454  1.00  0.00     0.116 C 
BRANCH   5   6
HETATM    6  C   UNL     1     -54.021  50.878   9.634  1.00  0.00     0.172 C 
HETATM    7  O   UNL     1     -53.979  51.520  10.669  1.00  0.00    -0.648 OA
HETATM    8  O   UNL     1     -54.461  51.439   8.491  1.00  0.00    -0.648 OA
ENDBRANCH   5   6
ENDBRANCH   4   5
ENDBRANCH   3   4
BRANCH   3   9
HETATM    9  C   UNL     1     -55.410  46.445   8.794  1.00  0.00     0.070 C 
BRANCH   9  10
HETATM   10  C   UNL     1     -54.125  45.924   9.393  1.00  0.00    -0.053 A 
HETATM   11  C   UNL     1     -52.884  46.383   8.930  1.00  0.00     0.043 A 
HETATM   12  C   UNL     1     -51.707  45.891   9.485  1.00  0.00     0.066 A 
HETATM   13  C   UNL     1     -51.737  44.940  10.500  1.00  0.00     0.036 A 
HETATM   14  C   UNL     1     -52.967  44.476  10.964  1.00  0.00     0.003 A 
HETATM   15  C   UNL     1     -54.155  44.964  10.415  1.00  0.00     0.007 A 
BRANCH  12  16
HETATM   16  O   UNL     1     -50.528  46.374   8.998  1.00  0.00    -0.361 OA
HETATM   17  H   UNL     1     -50.363  47.296   9.000  1.00  0.00     0.217 HD
ENDBRANCH  12  16
ENDBRANCH   9  10
ENDBRANCH   3   9
ENDBRANCH   1   3
TORSDOF 7
ENDMDL
