MODEL 1
REMARK VINA RESULT:      -6.4      0.000      0.000
REMARK  6 active torsions:
REMARK  status: ('A' for Active; 'I' for Inactive)
REMARK    1  A    between atoms: O_1  and  C_11 
REMARK    2  A    between atoms: C_4  and  C_5 
REMARK    3  A    between atoms: C_4  and  C_6 
REMARK    4  A    between atoms: C_5  and  C_7 
REMARK    5  A    between atoms: C_6  and  C_8 
REMARK    6  A    between atoms: C_8  and  C_12 
ROOT
HETATM    1  O   UNL     1      10.807   8.121  14.604  1.00  0.00    -0.361 OA
HETATM    2  H   UNL     1      10.883   8.804  15.240  1.00  0.00     0.217 HD
ENDROOT
BRANCH   1   3
HETATM    3  C   UNL     1      10.988   8.396  13.284  1.00  0.00     0.066 A 
HETATM    4  C   UNL     1      11.326   7.373  12.397  1.00  0.00     0.043 A 
HETATM    5  C   UNL     1      11.508   7.670  11.054  1.00  0.00    -0.056 A 
HETATM    6  C   UNL     1      11.360   8.964  10.578  1.00  0.00     0.007 A 
HETATM    7  C   UNL     1      11.022   9.986  11.464  1.00  0.00     0.003 A 
HETATM    8  C   UNL     1      10.835   9.702  12.817  1.00  0.00     0.036 A 
BRANCH   5   9
HETATM    9  C   UNL     1      11.874   6.566  10.096  1.00  0.00     0.038 C 
BRANCH   9  10
HETATM   10  C   UNL     1      13.089   6.884   9.216  1.00  0.00     0.005 C 
BRANCH  10  11
HETATM   11  C   UNL     1      12.758   6.886   7.717  1.00  0.00     0.011 C 
BRANCH  11  12
HETATM   12  C   UNL     1      11.252   6.955   7.454  1.00  0.00     0.113 C 
BRANCH  12  13
HETATM   13  C   UNL     1      10.768   5.912   6.470  1.00  0.00     0.172 C 
HETATM   14  O   UNL     1      11.230   6.160   5.218  1.00  0.00    -0.648 OA
HETATM   15  O   UNL     1      10.068   4.948   6.744  1.00  0.00    -0.648 OA
ENDBRANCH  12  13
ENDBRANCH  11  12
ENDBRANCH  10  11
ENDBRANCH   9  10
ENDBRANCH   5   9
ENDBRANCH   1   3
TORSDOF 6
ENDMDL
MODEL 2
REMARK VINA RESULT:      -6.3      3.492      4.893
REMARK  6 active torsions:
REMARK  status: ('A' for Active; 'I' for Inactive)
REMARK    1  A    between atoms: O_1  and  C_11 
REMARK    2  A    between atoms: C_4  and  C_5 
REMARK    3  A    between atoms: C_4  and  C_6 
REMARK    4  A    between atoms: C_5  and  C_7 
REMARK    5  A    between atoms: C_6  and  C_8 
REMARK    6  A    between atoms: C_8  and  C_12 
ROOT
HETATM    1  O   UNL     1      16.165   7.521   6.335  1.00  0.00    -0.361 OA
HETATM    2  H   UNL     1      16.711   6.917   5.871  1.00  0.00     0.217 HD
ENDROOT
BRANCH   1   3
HETATM    3  C   UNL     1      15.793   7.256   7.617  1.00  0.00     0.066 A 
HETATM    4  C   UNL     1      14.442   7.127   7.940  1.00  0.00     0.043 A 
HETATM    5  C   UNL     1      14.079   6.858   9.251  1.00  0.00    -0.056 A 
HETATM    6  C   UNL     1      15.034   6.715  10.246  1.00  0.00     0.007 A 
HETATM    7  C   UNL     1      16.384   6.843   9.923  1.00  0.00     0.003 A 
HETATM    8  C   UNL     1      16.764   7.113   8.608  1.00  0.00     0.036 A 
BRANCH   5   9
HETATM    9  C   UNL     1      12.619   6.721   9.601  1.00  0.00     0.038 C 
BRANCH   9  10
HETATM   10  C   UNL     1      11.668   7.051   8.444  1.00  0.00     0.005 C 
BRANCH  10  11
HETATM   11  C   UNL     1      10.424   6.153   8.419  1.00  0.00     0.011 C 
BRANCH  11  12
HETATM   12  C   UNL     1      10.210   5.494   7.055  1.00  0.00     0.113 C 
BRANCH  12  13
HETATM   13  C   UNL     1      10.662   6.355   5.896  1.00  0.00     0.172 C 
HETATM   14  O   UNL     1      11.535   5.691   5.095  1.00  0.00    -0.648 OA
HETATM   15  O   UNL     1      10.288   7.498   5.672  1.00  0.00    -0.648 OA
ENDBRANCH  12  13
ENDBRANCH  11  12
ENDBRANCH  10  11
ENDBRANCH   9  10
ENDBRANCH   5   9
ENDBRANCH   1   3
TORSDOF 6
ENDMDL
MODEL 3
REMARK VINA RESULT:      -6.0      2.501      5.817
REMARK  6 active torsions:
REMARK  status: ('A' for Active; 'I' for Inactive)
REMARK    1  A    between atoms: O_1  and  C_11 
REMARK    2  A    between atoms: C_4  and  C_5 
REMARK    3  A    between atoms: C_4  and  C_6 
REMARK    4  A    between atoms: C_5  and  C_7 
REMARK    5  A    between atoms: C_6  and  C_8 
REMARK    6  A    between atoms: C_8  and  C_12 
ROOT
HETATM    1  O   UNL     1      15.943   7.462   6.568  1.00  0.00    -0.361 OA
HETATM    2  H   UNL     1      15.841   6.910   5.817  1.00  0.00     0.217 HD
ENDROOT
BRANCH   1   3
HETATM    3  C   UNL     1      15.230   7.211   7.699  1.00  0.00     0.066 A 
HETATM    4  C   UNL     1      13.838   7.119   7.641  1.00  0.00     0.043 A 
HETATM    5  C   UNL     1      13.126   6.863   8.803  1.00  0.00    -0.056 A 
HETATM    6  C   UNL     1      13.770   6.696  10.020  1.00  0.00     0.007 A 
HETATM    7  C   UNL     1      15.160   6.787  10.077  1.00  0.00     0.003 A 
HETATM    8  C   UNL     1      15.891   7.044   8.916  1.00  0.00     0.036 A 
BRANCH   5   9
HETATM    9  C   UNL     1      11.622   6.765   8.742  1.00  0.00     0.038 C 
BRANCH   9  10
HETATM   10  C   UNL     1      10.932   6.954  10.098  1.00  0.00     0.005 C 
BRANCH  10  11
HETATM   11  C   UNL     1      10.232   8.313  10.229  1.00  0.00     0.011 C 
BRANCH  11  12
HETATM   12  C   UNL     1      11.103   9.350  10.942  1.00  0.00     0.113 C 
BRANCH  12  13
HETATM   13  C   UNL     1      11.433   8.974  12.370  1.00  0.00     0.172 C 
HETATM   14  O   UNL     1      12.775   8.931  12.573  1.00  0.00    -0.648 OA
HETATM   15  O   UNL     1      10.617   8.755  13.253  1.00  0.00    -0.648 OA
ENDBRANCH  12  13
ENDBRANCH  11  12
ENDBRANCH  10  11
ENDBRANCH   9  10
ENDBRANCH   5   9
ENDBRANCH   1   3
TORSDOF 6
ENDMDL
MODEL 4
REMARK VINA RESULT:      -5.9      2.574      3.179
REMARK  6 active torsions:
REMARK  status: ('A' for Active; 'I' for Inactive)
REMARK    1  A    between atoms: O_1  and  C_11 
REMARK    2  A    between atoms: C_4  and  C_5 
REMARK    3  A    between atoms: C_4  and  C_6 
REMARK    4  A    between atoms: C_5  and  C_7 
REMARK    5  A    between atoms: C_6  and  C_8 
REMARK    6  A    between atoms: C_8  and  C_12 
ROOT
HETATM    1  O   UNL     1       9.086   4.658  10.576  1.00  0.00    -0.361 OA
HETATM    2  H   UNL     1       8.306   5.039  10.929  1.00  0.00     0.217 HD
ENDROOT
BRANCH   1   3
HETATM    3  C   UNL     1      10.304   5.076  11.013  1.00  0.00     0.066 A 
HETATM    4  C   UNL     1      11.027   6.016  10.277  1.00  0.00     0.043 A 
HETATM    5  C   UNL     1      12.268   6.431  10.737  1.00  0.00    -0.056 A 
HETATM    6  C   UNL     1      12.804   5.929  11.913  1.00  0.00     0.007 A 
HETATM    7  C   UNL     1      12.082   4.990  12.649  1.00  0.00     0.003 A 
HETATM    8  C   UNL     1      10.831   4.563  12.199  1.00  0.00     0.036 A 
BRANCH   5   9
HETATM    9  C   UNL     1      13.049   7.445   9.941  1.00  0.00     0.038 C 
BRANCH   9  10
HETATM   10  C   UNL     1      14.047   6.827   8.954  1.00  0.00     0.005 C 
BRANCH  10  11
HETATM   11  C   UNL     1      13.656   7.053   7.488  1.00  0.00     0.011 C 
BRANCH  11  12
HETATM   12  C   UNL     1      12.273   7.692   7.347  1.00  0.00     0.113 C 
BRANCH  12  13
HETATM   13  C   UNL     1      11.292   6.834   6.578  1.00  0.00     0.172 C 
HETATM   14  O   UNL     1      10.075   6.813   7.180  1.00  0.00    -0.648 OA
HETATM   15  O   UNL     1      11.532   6.242   5.535  1.00  0.00    -0.648 OA
ENDBRANCH  12  13
ENDBRANCH  11  12
ENDBRANCH  10  11
ENDBRANCH   9  10
ENDBRANCH   5   9
ENDBRANCH   1   3
TORSDOF 6
ENDMDL
MODEL 5
REMARK VINA RESULT:      -5.9      1.841      5.234
REMARK  6 active torsions:
REMARK  status: ('A' for Active; 'I' for Inactive)
REMARK    1  A    between atoms: O_1  and  C_11 
REMARK    2  A    between atoms: C_4  and  C_5 
REMARK    3  A    between atoms: C_4  and  C_6 
REMARK    4  A    between atoms: C_5  and  C_7 
REMARK    5  A    between atoms: C_6  and  C_8 
REMARK    6  A    between atoms: C_8  and  C_12 
ROOT
HETATM    1  O   UNL     1       9.753   6.384   8.179  1.00  0.00    -0.361 OA
HETATM    2  H   UNL     1       9.214   7.077   7.851  1.00  0.00     0.217 HD
ENDROOT
BRANCH   1   3
HETATM    3  C   UNL     1      11.094   6.570   8.314  1.00  0.00     0.066 A 
HETATM    4  C   UNL     1      11.683   6.511   9.577  1.00  0.00     0.043 A 
HETATM    5  C   UNL     1      13.052   6.702   9.698  1.00  0.00    -0.056 A 
HETATM    6  C   UNL     1      13.844   6.952   8.587  1.00  0.00     0.007 A 
HETATM    7  C   UNL     1      13.254   7.011   7.325  1.00  0.00     0.003 A 
HETATM    8  C   UNL     1      11.879   6.819   7.187  1.00  0.00     0.036 A 
BRANCH   5   9
HETATM    9  C   UNL     1      13.689   6.640  11.062  1.00  0.00     0.038 C 
BRANCH   9  10
HETATM   10  C   UNL     1      14.213   7.991  11.566  1.00  0.00     0.005 C 
BRANCH  10  11
HETATM   11  C   UNL     1      13.261   8.666  12.563  1.00  0.00     0.011 C 
BRANCH  11  12
HETATM   12  C   UNL     1      12.365   9.711  11.894  1.00  0.00     0.113 C 
BRANCH  12  13
HETATM   13  C   UNL     1      10.890   9.391  12.001  1.00  0.00     0.172 C 
HETATM   14  O   UNL     1      10.313   9.296  10.775  1.00  0.00    -0.648 OA
HETATM   15  O   UNL     1      10.276   9.214  13.044  1.00  0.00    -0.648 OA
ENDBRANCH  12  13
ENDBRANCH  11  12
ENDBRANCH  10  11
ENDBRANCH   9  10
ENDBRANCH   5   9
ENDBRANCH   1   3
TORSDOF 6
ENDMDL
MODEL 6
REMARK VINA RESULT:      -5.9      2.623      6.277
REMARK  6 active torsions:
REMARK  status: ('A' for Active; 'I' for Inactive)
REMARK    1  A    between atoms: O_1  and  C_11 
REMARK    2  A    between atoms: C_4  and  C_5 
REMARK    3  A    between atoms: C_4  and  C_6 
REMARK    4  A    between atoms: C_5  and  C_7 
REMARK    5  A    between atoms: C_6  and  C_8 
REMARK    6  A    between atoms: C_8  and  C_12 
ROOT
HETATM    1  O   UNL     1       9.800   6.328   7.392  1.00  0.00    -0.361 OA
HETATM    2  H   UNL     1       9.615   5.412   7.321  1.00  0.00     0.217 HD
ENDROOT
BRANCH   1   3
HETATM    3  C   UNL     1      10.826   6.756   8.176  1.00  0.00     0.066 A 
HETATM    4  C   UNL     1      10.583   7.145   9.494  1.00  0.00     0.043 A 
HETATM    5  C   UNL     1      11.640   7.579  10.280  1.00  0.00    -0.056 A 
HETATM    6  C   UNL     1      12.933   7.633   9.781  1.00  0.00     0.007 A 
HETATM    7  C   UNL     1      13.175   7.244   8.465  1.00  0.00     0.003 A 
HETATM    8  C   UNL     1      12.122   6.805   7.661  1.00  0.00     0.036 A 
BRANCH   5   9
HETATM    9  C   UNL     1      11.378   8.001  11.704  1.00  0.00     0.038 C 
BRANCH   9  10
HETATM   10  C   UNL     1      10.607   9.320  11.830  1.00  0.00     0.005 C 
BRANCH  10  11
HETATM   11  C   UNL     1      11.441  10.541  11.420  1.00  0.00     0.011 C 
BRANCH  11  12
HETATM   12  C   UNL     1      11.928  11.345  12.627  1.00  0.00     0.113 C 
BRANCH  12  13
HETATM   13  C   UNL     1      11.992  12.834  12.368  1.00  0.00     0.172 C 
HETATM   14  O   UNL     1      10.884  13.273  11.716  1.00  0.00    -0.648 OA
HETATM   15  O   UNL     1      12.902  13.576  12.710  1.00  0.00    -0.648 OA
ENDBRANCH  12  13
ENDBRANCH  11  12
ENDBRANCH  10  11
ENDBRANCH   9  10
ENDBRANCH   5   9
ENDBRANCH   1   3
TORSDOF 6
ENDMDL
MODEL 7
REMARK VINA RESULT:      -5.8      3.494      5.242
REMARK  6 active torsions:
REMARK  status: ('A' for Active; 'I' for Inactive)
REMARK    1  A    between atoms: O_1  and  C_11 
REMARK    2  A    between atoms: C_4  and  C_5 
REMARK    3  A    between atoms: C_4  and  C_6 
REMARK    4  A    between atoms: C_5  and  C_7 
REMARK    5  A    between atoms: C_6  and  C_8 
REMARK    6  A    between atoms: C_8  and  C_12 
ROOT
HETATM    1  O   UNL     1       9.432   6.439   9.297  1.00  0.00    -0.361 OA
HETATM    2  H   UNL     1       9.243   6.062  10.133  1.00  0.00     0.217 HD
ENDROOT
BRANCH   1   3
HETATM    3  C   UNL     1      10.722   6.590   8.895  1.00  0.00     0.066 A 
HETATM    4  C   UNL     1      11.752   6.588   9.836  1.00  0.00     0.043 A 
HETATM    5  C   UNL     1      13.063   6.743   9.411  1.00  0.00    -0.056 A 
HETATM    6  C   UNL     1      13.369   6.901   8.067  1.00  0.00     0.007 A 
HETATM    7  C   UNL     1      12.340   6.903   7.126  1.00  0.00     0.003 A 
HETATM    8  C   UNL     1      11.016   6.747   7.540  1.00  0.00     0.036 A 
BRANCH   5   9
HETATM    9  C   UNL     1      14.176   6.743  10.427  1.00  0.00     0.038 C 
BRANCH   9  10
HETATM   10  C   UNL     1      14.939   8.070  10.515  1.00  0.00     0.005 C 
BRANCH  10  11
HETATM   11  C   UNL     1      16.450   7.906  10.305  1.00  0.00     0.011 C 
BRANCH  11  12
HETATM   12  C   UNL     1      16.788   6.698   9.430  1.00  0.00     0.113 C 
BRANCH  12  13
HETATM   13  C   UNL     1      17.535   7.065   8.166  1.00  0.00     0.172 C 
HETATM   14  O   UNL     1      16.695   7.554   7.218  1.00  0.00    -0.648 OA
HETATM   15  O   UNL     1      18.742   6.965   8.001  1.00  0.00    -0.648 OA
ENDBRANCH  12  13
ENDBRANCH  11  12
ENDBRANCH  10  11
ENDBRANCH   9  10
ENDBRANCH   5   9
ENDBRANCH   1   3
TORSDOF 6
ENDMDL
MODEL 8
REMARK VINA RESULT:      -5.8      1.679      1.821
REMARK  6 active torsions:
REMARK  status: ('A' for Active; 'I' for Inactive)
REMARK    1  A    between atoms: O_1  and  C_11 
REMARK    2  A    between atoms: C_4  and  C_5 
REMARK    3  A    between atoms: C_4  and  C_6 
REMARK    4  A    between atoms: C_5  and  C_7 
REMARK    5  A    between atoms: C_6  and  C_8 
REMARK    6  A    between atoms: C_8  and  C_12 
ROOT
HETATM    1  O   UNL     1      12.668  11.145  12.956  1.00  0.00    -0.361 OA
HETATM    2  H   UNL     1      12.562  11.109  13.886  1.00  0.00     0.217 HD
ENDROOT
BRANCH   1   3
HETATM    3  C   UNL     1      12.166  10.151  12.174  1.00  0.00     0.066 A 
HETATM    4  C   UNL     1      13.001   9.129  11.722  1.00  0.00     0.043 A 
HETATM    5  C   UNL     1      12.475   8.123  10.926  1.00  0.00    -0.056 A 
HETATM    6  C   UNL     1      11.134   8.114  10.571  1.00  0.00     0.007 A 
HETATM    7  C   UNL     1      10.299   9.135  11.024  1.00  0.00     0.003 A 
HETATM    8  C   UNL     1      10.815  10.154  11.826  1.00  0.00     0.036 A 
BRANCH   5   9
HETATM    9  C   UNL     1      13.377   7.019  10.436  1.00  0.00     0.038 C 
BRANCH   9  10
HETATM   10  C   UNL     1      14.267   7.422   9.254  1.00  0.00     0.005 C 
BRANCH  10  11
HETATM   11  C   UNL     1      13.726   6.930   7.904  1.00  0.00     0.011 C 
BRANCH  11  12
HETATM   12  C   UNL     1      12.546   7.770   7.409  1.00  0.00     0.113 C 
BRANCH  12  13
HETATM   13  C   UNL     1      11.351   6.939   6.997  1.00  0.00     0.172 C 
HETATM   14  O   UNL     1      11.633   6.166   5.916  1.00  0.00    -0.648 OA
HETATM   15  O   UNL     1      10.266   6.927   7.561  1.00  0.00    -0.648 OA
ENDBRANCH  12  13
ENDBRANCH  11  12
ENDBRANCH  10  11
ENDBRANCH   9  10
ENDBRANCH   5   9
ENDBRANCH   1   3
TORSDOF 6
ENDMDL
MODEL 9
REMARK VINA RESULT:      -5.7      2.416      5.638
REMARK  6 active torsions:
REMARK  status: ('A' for Active; 'I' for Inactive)
REMARK    1  A    between atoms: O_1  and  C_11 
REMARK    2  A    between atoms: C_4  and  C_5 
REMARK    3  A    between atoms: C_4  and  C_6 
REMARK    4  A    between atoms: C_5  and  C_7 
REMARK    5  A    between atoms: C_6  and  C_8 
REMARK    6  A    between atoms: C_8  and  C_12 
ROOT
HETATM    1  O   UNL     1      15.619   7.379   6.775  1.00  0.00    -0.361 OA
HETATM    2  H   UNL     1      15.432   7.569   5.877  1.00  0.00     0.217 HD
ENDROOT
BRANCH   1   3
HETATM    3  C   UNL     1      14.601   7.149   7.648  1.00  0.00     0.066 A 
HETATM    4  C   UNL     1      14.870   6.992   9.008  1.00  0.00     0.043 A 
HETATM    5  C   UNL     1      13.822   6.758   9.886  1.00  0.00    -0.056 A 
HETATM    6  C   UNL     1      12.513   6.676   9.436  1.00  0.00     0.007 A 
HETATM    7  C   UNL     1      12.244   6.834   8.077  1.00  0.00     0.003 A 
HETATM    8  C   UNL     1      13.288   7.071   7.182  1.00  0.00     0.036 A 
BRANCH   5   9
HETATM    9  C   UNL     1      14.112   6.586  11.355  1.00  0.00     0.038 C 
BRANCH   9  10
HETATM   10  C   UNL     1      13.043   7.187  12.274  1.00  0.00     0.005 C 
BRANCH  10  11
HETATM   11  C   UNL     1      13.247   8.687  12.528  1.00  0.00     0.011 C 
BRANCH  11  12
HETATM   12  C   UNL     1      12.327   9.553  11.664  1.00  0.00     0.113 C 
BRANCH  12  13
HETATM   13  C   UNL     1      10.857   9.281  11.896  1.00  0.00     0.172 C 
HETATM   14  O   UNL     1      10.216   8.999  10.732  1.00  0.00    -0.648 OA
HETATM   15  O   UNL     1      10.297   9.285  12.983  1.00  0.00    -0.648 OA
ENDBRANCH  12  13
ENDBRANCH  11  12
ENDBRANCH  10  11
ENDBRANCH   9  10
ENDBRANCH   5   9
ENDBRANCH   1   3
TORSDOF 6
ENDMDL
