MODEL 1
REMARK VINA RESULT:      -6.6      0.000      0.000
REMARK  6 active torsions:
REMARK  status: ('A' for Active; 'I' for Inactive)
REMARK    1  A    between atoms: O_1  and  C_11 
REMARK    2  A    between atoms: C_4  and  C_5 
REMARK    3  A    between atoms: C_4  and  C_6 
REMARK    4  A    between atoms: C_5  and  C_7 
REMARK    5  A    between atoms: C_6  and  C_8 
REMARK    6  A    between atoms: C_8  and  C_12 
ROOT
HETATM    1  O   UNL     1      11.269   7.189  16.413  1.00  0.00    -0.361 OA
HETATM    2  H   UNL     1      11.698   6.724  17.104  1.00  0.00     0.217 HD
ENDROOT
BRANCH   1   3
HETATM    3  C   UNL     1      11.808   7.201  15.164  1.00  0.00     0.066 A 
HETATM    4  C   UNL     1      12.499   6.085  14.691  1.00  0.00     0.043 A 
HETATM    5  C   UNL     1      13.043   6.113  13.415  1.00  0.00    -0.056 A 
HETATM    6  C   UNL     1      12.913   7.229  12.602  1.00  0.00     0.007 A 
HETATM    7  C   UNL     1      12.222   8.344  13.075  1.00  0.00     0.003 A 
HETATM    8  C   UNL     1      11.669   8.331  14.357  1.00  0.00     0.036 A 
BRANCH   5   9
HETATM    9  C   UNL     1      13.791   4.909  12.904  1.00  0.00     0.038 C 
BRANCH   9  10
HETATM   10  C   UNL     1      13.914   4.856  11.376  1.00  0.00     0.005 C 
BRANCH  10  11
HETATM   11  C   UNL     1      12.634   4.361  10.689  1.00  0.00     0.011 C 
BRANCH  11  12
HETATM   12  C   UNL     1      12.895   3.175   9.758  1.00  0.00     0.113 C 
BRANCH  12  13
HETATM   13  C   UNL     1      13.425   3.585   8.401  1.00  0.00     0.172 C 
HETATM   14  O   UNL     1      12.963   4.810   8.038  1.00  0.00    -0.648 OA
HETATM   15  O   UNL     1      14.191   2.929   7.710  1.00  0.00    -0.648 OA
ENDBRANCH  12  13
ENDBRANCH  11  12
ENDBRANCH  10  11
ENDBRANCH   9  10
ENDBRANCH   5   9
ENDBRANCH   1   3
TORSDOF 6
ENDMDL
MODEL 2
REMARK VINA RESULT:      -6.5      0.906      1.150
REMARK  6 active torsions:
REMARK  status: ('A' for Active; 'I' for Inactive)
REMARK    1  A    between atoms: O_1  and  C_11 
REMARK    2  A    between atoms: C_4  and  C_5 
REMARK    3  A    between atoms: C_4  and  C_6 
REMARK    4  A    between atoms: C_5  and  C_7 
REMARK    5  A    between atoms: C_6  and  C_8 
REMARK    6  A    between atoms: C_8  and  C_12 
ROOT
HETATM    1  O   UNL     1      11.314   6.892  16.329  1.00  0.00    -0.361 OA
HETATM    2  H   UNL     1      11.045   7.658  16.796  1.00  0.00     0.217 HD
ENDROOT
BRANCH   1   3
HETATM    3  C   UNL     1      11.819   7.005  15.071  1.00  0.00     0.066 A 
HETATM    4  C   UNL     1      12.478   5.924  14.483  1.00  0.00     0.043 A 
HETATM    5  C   UNL     1      12.988   6.055  13.200  1.00  0.00    -0.056 A 
HETATM    6  C   UNL     1      12.855   7.240  12.491  1.00  0.00     0.007 A 
HETATM    7  C   UNL     1      12.197   8.319  13.078  1.00  0.00     0.003 A 
HETATM    8  C   UNL     1      11.678   8.202  14.368  1.00  0.00     0.036 A 
BRANCH   5   9
HETATM    9  C   UNL     1      13.701   4.889  12.565  1.00  0.00     0.038 C 
BRANCH   9  10
HETATM   10  C   UNL     1      14.970   5.278  11.798  1.00  0.00     0.005 C 
BRANCH  10  11
HETATM   11  C   UNL     1      14.837   5.080  10.282  1.00  0.00     0.011 C 
BRANCH  11  12
HETATM   12  C   UNL     1      13.434   4.623   9.876  1.00  0.00     0.113 C 
BRANCH  12  13
HETATM   13  C   UNL     1      13.439   3.427   8.950  1.00  0.00     0.172 C 
HETATM   14  O   UNL     1      12.769   2.377   9.493  1.00  0.00    -0.648 OA
HETATM   15  O   UNL     1      13.953   3.389   7.841  1.00  0.00    -0.648 OA
ENDBRANCH  12  13
ENDBRANCH  11  12
ENDBRANCH  10  11
ENDBRANCH   9  10
ENDBRANCH   5   9
ENDBRANCH   1   3
TORSDOF 6
ENDMDL
MODEL 3
REMARK VINA RESULT:      -6.3      3.127      4.594
REMARK  6 active torsions:
REMARK  status: ('A' for Active; 'I' for Inactive)
REMARK    1  A    between atoms: O_1  and  C_11 
REMARK    2  A    between atoms: C_4  and  C_5 
REMARK    3  A    between atoms: C_4  and  C_6 
REMARK    4  A    between atoms: C_5  and  C_7 
REMARK    5  A    between atoms: C_6  and  C_8 
REMARK    6  A    between atoms: C_8  and  C_12 
ROOT
HETATM    1  O   UNL     1      18.163   5.857   9.602  1.00  0.00    -0.361 OA
HETATM    2  H   UNL     1      18.103   5.110   9.039  1.00  0.00     0.217 HD
ENDROOT
BRANCH   1   3
HETATM    3  C   UNL     1      17.565   5.838  10.824  1.00  0.00     0.066 A 
HETATM    4  C   UNL     1      16.173   5.857  10.921  1.00  0.00     0.043 A 
HETATM    5  C   UNL     1      15.579   5.838  12.174  1.00  0.00    -0.056 A 
HETATM    6  C   UNL     1      16.342   5.801  13.331  1.00  0.00     0.007 A 
HETATM    7  C   UNL     1      17.733   5.781  13.234  1.00  0.00     0.003 A 
HETATM    8  C   UNL     1      18.345   5.800  11.980  1.00  0.00     0.036 A 
BRANCH   5   9
HETATM    9  C   UNL     1      14.075   5.861  12.280  1.00  0.00     0.038 C 
BRANCH   9  10
HETATM   10  C   UNL     1      13.410   4.516  11.962  1.00  0.00     0.005 C 
BRANCH  10  11
HETATM   11  C   UNL     1      12.614   4.538  10.651  1.00  0.00     0.011 C 
BRANCH  11  12
HETATM   12  C   UNL     1      12.879   3.302   9.788  1.00  0.00     0.113 C 
BRANCH  12  13
HETATM   13  C   UNL     1      13.395   3.636   8.406  1.00  0.00     0.172 C 
HETATM   14  O   UNL     1      12.958   4.855   7.995  1.00  0.00    -0.648 OA
HETATM   15  O   UNL     1      14.129   2.928   7.732  1.00  0.00    -0.648 OA
ENDBRANCH  12  13
ENDBRANCH  11  12
ENDBRANCH  10  11
ENDBRANCH   9  10
ENDBRANCH   5   9
ENDBRANCH   1   3
TORSDOF 6
ENDMDL
MODEL 4
REMARK VINA RESULT:      -6.1      2.560      5.962
REMARK  6 active torsions:
REMARK  status: ('A' for Active; 'I' for Inactive)
REMARK    1  A    between atoms: O_1  and  C_11 
REMARK    2  A    between atoms: C_4  and  C_5 
REMARK    3  A    between atoms: C_4  and  C_6 
REMARK    4  A    between atoms: C_5  and  C_7 
REMARK    5  A    between atoms: C_6  and  C_8 
REMARK    6  A    between atoms: C_8  and  C_12 
ROOT
HETATM    1  O   UNL     1      18.144   6.063   9.687  1.00  0.00    -0.361 OA
HETATM    2  H   UNL     1      18.110   5.541   8.910  1.00  0.00     0.217 HD
ENDROOT
BRANCH   1   3
HETATM    3  C   UNL     1      17.261   5.837  10.697  1.00  0.00     0.066 A 
HETATM    4  C   UNL     1      15.952   5.451  10.407  1.00  0.00     0.043 A 
HETATM    5  C   UNL     1      15.064   5.225  11.448  1.00  0.00    -0.056 A 
HETATM    6  C   UNL     1      15.453   5.375  12.771  1.00  0.00     0.007 A 
HETATM    7  C   UNL     1      16.761   5.760  13.060  1.00  0.00     0.003 A 
HETATM    8  C   UNL     1      17.666   5.991  12.023  1.00  0.00     0.036 A 
BRANCH   5   9
HETATM    9  C   UNL     1      13.648   4.811  11.136  1.00  0.00     0.038 C 
BRANCH   9  10
HETATM   10  C   UNL     1      12.657   5.074  12.276  1.00  0.00     0.005 C 
BRANCH  10  11
HETATM   11  C   UNL     1      11.815   6.337  12.056  1.00  0.00     0.011 C 
BRANCH  11  12
HETATM   12  C   UNL     1      12.372   7.547  12.811  1.00  0.00     0.113 C 
BRANCH  12  13
HETATM   13  C   UNL     1      12.176   7.460  14.308  1.00  0.00     0.172 C 
HETATM   14  O   UNL     1      13.358   7.280  14.954  1.00  0.00    -0.648 OA
HETATM   15  O   UNL     1      11.106   7.559  14.891  1.00  0.00    -0.648 OA
ENDBRANCH  12  13
ENDBRANCH  11  12
ENDBRANCH  10  11
ENDBRANCH   9  10
ENDBRANCH   5   9
ENDBRANCH   1   3
TORSDOF 6
ENDMDL
MODEL 5
REMARK VINA RESULT:      -6.1      2.647      3.360
REMARK  6 active torsions:
REMARK  status: ('A' for Active; 'I' for Inactive)
REMARK    1  A    between atoms: O_1  and  C_11 
REMARK    2  A    between atoms: C_4  and  C_5 
REMARK    3  A    between atoms: C_4  and  C_6 
REMARK    4  A    between atoms: C_5  and  C_7 
REMARK    5  A    between atoms: C_6  and  C_8 
REMARK    6  A    between atoms: C_8  and  C_12 
ROOT
HETATM    1  O   UNL     1      11.257   2.733  13.410  1.00  0.00    -0.361 OA
HETATM    2  H   UNL     1      10.444   2.768  13.876  1.00  0.00     0.217 HD
ENDROOT
BRANCH   1   3
HETATM    3  C   UNL     1      12.335   3.422  13.871  1.00  0.00     0.066 A 
HETATM    4  C   UNL     1      12.976   4.349  13.047  1.00  0.00     0.043 A 
HETATM    5  C   UNL     1      14.075   5.043  13.531  1.00  0.00    -0.056 A 
HETATM    6  C   UNL     1      14.548   4.833  14.818  1.00  0.00     0.007 A 
HETATM    7  C   UNL     1      13.908   3.908  15.641  1.00  0.00     0.003 A 
HETATM    8  C   UNL     1      12.801   3.202  15.168  1.00  0.00     0.036 A 
BRANCH   5   9
HETATM    9  C   UNL     1      14.769   6.043  12.642  1.00  0.00     0.038 C 
BRANCH   9  10
HETATM   10  C   UNL     1      16.024   5.496  11.952  1.00  0.00     0.005 C 
BRANCH  10  11
HETATM   11  C   UNL     1      15.872   5.394  10.428  1.00  0.00     0.011 C 
BRANCH  11  12
HETATM   12  C   UNL     1      14.446   5.695   9.964  1.00  0.00     0.113 C 
BRANCH  12  13
HETATM   13  C   UNL     1      13.762   4.507   9.323  1.00  0.00     0.172 C 
HETATM   14  O   UNL     1      12.445   4.457   9.650  1.00  0.00    -0.648 OA
HETATM   15  O   UNL     1      14.297   3.694   8.583  1.00  0.00    -0.648 OA
ENDBRANCH  12  13
ENDBRANCH  11  12
ENDBRANCH  10  11
ENDBRANCH   9  10
ENDBRANCH   5   9
ENDBRANCH   1   3
TORSDOF 6
ENDMDL
MODEL 6
REMARK VINA RESULT:      -6.0      2.254      5.278
REMARK  6 active torsions:
REMARK  status: ('A' for Active; 'I' for Inactive)
REMARK    1  A    between atoms: O_1  and  C_11 
REMARK    2  A    between atoms: C_4  and  C_5 
REMARK    3  A    between atoms: C_4  and  C_6 
REMARK    4  A    between atoms: C_5  and  C_7 
REMARK    5  A    between atoms: C_6  and  C_8 
REMARK    6  A    between atoms: C_8  and  C_12 
ROOT
HETATM    1  O   UNL     1      11.506   3.510  12.113  1.00  0.00    -0.361 OA
HETATM    2  H   UNL     1      10.748   4.042  12.253  1.00  0.00     0.217 HD
ENDROOT
BRANCH   1   3
HETATM    3  C   UNL     1      12.653   4.069  11.642  1.00  0.00     0.066 A 
HETATM    4  C   UNL     1      13.582   4.613  12.530  1.00  0.00     0.043 A 
HETATM    5  C   UNL     1      14.746   5.180  12.034  1.00  0.00    -0.056 A 
HETATM    6  C   UNL     1      15.004   5.217  10.672  1.00  0.00     0.007 A 
HETATM    7  C   UNL     1      14.076   4.673   9.784  1.00  0.00     0.003 A 
HETATM    8  C   UNL     1      12.901   4.099  10.269  1.00  0.00     0.036 A 
BRANCH   5   9
HETATM    9  C   UNL     1      15.749   5.769  12.993  1.00  0.00     0.038 C 
BRANCH   9  10
HETATM   10  C   UNL     1      15.507   7.249  13.314  1.00  0.00     0.005 C 
BRANCH  10  11
HETATM   11  C   UNL     1      14.360   7.465  14.310  1.00  0.00     0.011 C 
BRANCH  11  12
HETATM   12  C   UNL     1      13.295   8.423  13.772  1.00  0.00     0.113 C 
BRANCH  12  13
HETATM   13  C   UNL     1      11.905   7.825  13.759  1.00  0.00     0.172 C 
HETATM   14  O   UNL     1      11.576   7.361  12.526  1.00  0.00    -0.648 OA
HETATM   15  O   UNL     1      11.161   7.739  14.725  1.00  0.00    -0.648 OA
ENDBRANCH  12  13
ENDBRANCH  11  12
ENDBRANCH  10  11
ENDBRANCH   9  10
ENDBRANCH   5   9
ENDBRANCH   1   3
TORSDOF 6
ENDMDL
MODEL 7
REMARK VINA RESULT:      -5.9      3.963      5.401
REMARK  6 active torsions:
REMARK  status: ('A' for Active; 'I' for Inactive)
REMARK    1  A    between atoms: O_1  and  C_11 
REMARK    2  A    between atoms: C_4  and  C_5 
REMARK    3  A    between atoms: C_4  and  C_6 
REMARK    4  A    between atoms: C_5  and  C_7 
REMARK    5  A    between atoms: C_6  and  C_8 
REMARK    6  A    between atoms: C_8  and  C_12 
ROOT
HETATM    1  O   UNL     1      11.491   3.762  11.866  1.00  0.00    -0.361 OA
HETATM    2  H   UNL     1      10.757   3.974  11.324  1.00  0.00     0.217 HD
ENDROOT
BRANCH   1   3
HETATM    3  C   UNL     1      12.722   4.259  11.569  1.00  0.00     0.066 A 
HETATM    4  C   UNL     1      13.539   4.754  12.586  1.00  0.00     0.043 A 
HETATM    5  C   UNL     1      14.791   5.258  12.267  1.00  0.00    -0.056 A 
HETATM    6  C   UNL     1      15.245   5.280  10.957  1.00  0.00     0.007 A 
HETATM    7  C   UNL     1      14.429   4.785   9.941  1.00  0.00     0.003 A 
HETATM    8  C   UNL     1      13.167   4.274  10.246  1.00  0.00     0.036 A 
BRANCH   5   9
HETATM    9  C   UNL     1      15.674   5.795  13.365  1.00  0.00     0.038 C 
BRANCH   9  10
HETATM   10  C   UNL     1      16.321   7.146  13.039  1.00  0.00     0.005 C 
BRANCH  10  11
HETATM   11  C   UNL     1      17.836   7.158  13.283  1.00  0.00     0.011 C 
BRANCH  11  12
HETATM   12  C   UNL     1      18.529   5.927  12.695  1.00  0.00     0.113 C 
BRANCH  12  13
HETATM   13  C   UNL     1      19.200   6.195  11.365  1.00  0.00     0.172 C 
HETATM   14  O   UNL     1      20.548   6.288  11.500  1.00  0.00    -0.648 OA
HETATM   15  O   UNL     1      18.628   6.297  10.289  1.00  0.00    -0.648 OA
ENDBRANCH  12  13
ENDBRANCH  11  12
ENDBRANCH  10  11
ENDBRANCH   9  10
ENDBRANCH   5   9
ENDBRANCH   1   3
TORSDOF 6
ENDMDL
MODEL 8
REMARK VINA RESULT:      -5.8      2.693      3.159
REMARK  6 active torsions:
REMARK  status: ('A' for Active; 'I' for Inactive)
REMARK    1  A    between atoms: O_1  and  C_11 
REMARK    2  A    between atoms: C_4  and  C_5 
REMARK    3  A    between atoms: C_4  and  C_6 
REMARK    4  A    between atoms: C_5  and  C_7 
REMARK    5  A    between atoms: C_6  and  C_8 
REMARK    6  A    between atoms: C_8  and  C_12 
ROOT
HETATM    1  O   UNL     1      11.457   7.117  16.594  1.00  0.00    -0.361 OA
HETATM    2  H   UNL     1      12.088   7.143  17.286  1.00  0.00     0.217 HD
ENDROOT
BRANCH   1   3
HETATM    3  C   UNL     1      11.867   7.141  15.297  1.00  0.00     0.066 A 
HETATM    4  C   UNL     1      12.560   6.054  14.764  1.00  0.00     0.043 A 
HETATM    5  C   UNL     1      12.972   6.093  13.440  1.00  0.00    -0.056 A 
HETATM    6  C   UNL     1      12.708   7.193  12.638  1.00  0.00     0.007 A 
HETATM    7  C   UNL     1      12.016   8.279  13.170  1.00  0.00     0.003 A 
HETATM    8  C   UNL     1      11.594   8.253  14.500  1.00  0.00     0.036 A 
BRANCH   5   9
HETATM    9  C   UNL     1      13.723   4.919  12.864  1.00  0.00     0.038 C 
BRANCH   9  10
HETATM   10  C   UNL     1      13.787   4.914  11.332  1.00  0.00     0.005 C 
BRANCH  10  11
HETATM   11  C   UNL     1      15.176   5.274  10.790  1.00  0.00     0.011 C 
BRANCH  11  12
HETATM   12  C   UNL     1      16.178   5.569  11.909  1.00  0.00     0.113 C 
BRANCH  12  13
HETATM   13  C   UNL     1      17.578   5.841  11.402  1.00  0.00     0.172 C 
HETATM   14  O   UNL     1      18.446   6.039  12.428  1.00  0.00    -0.648 OA
HETATM   15  O   UNL     1      17.916   5.864  10.227  1.00  0.00    -0.648 OA
ENDBRANCH  12  13
ENDBRANCH  11  12
ENDBRANCH  10  11
ENDBRANCH   9  10
ENDBRANCH   5   9
ENDBRANCH   1   3
TORSDOF 6
ENDMDL
MODEL 9
REMARK VINA RESULT:      -5.8      1.977      5.844
REMARK  6 active torsions:
REMARK  status: ('A' for Active; 'I' for Inactive)
REMARK    1  A    between atoms: O_1  and  C_11 
REMARK    2  A    between atoms: C_4  and  C_5 
REMARK    3  A    between atoms: C_4  and  C_6 
REMARK    4  A    between atoms: C_5  and  C_7 
REMARK    5  A    between atoms: C_6  and  C_8 
REMARK    6  A    between atoms: C_8  and  C_12 
ROOT
HETATM    1  O   UNL     1      16.307   5.136   9.558  1.00  0.00    -0.361 OA
HETATM    2  H   UNL     1      17.107   5.383   9.979  1.00  0.00     0.217 HD
ENDROOT
BRANCH   1   3
HETATM    3  C   UNL     1      15.187   4.920  10.300  1.00  0.00     0.066 A 
HETATM    4  C   UNL     1      15.192   5.194  11.668  1.00  0.00     0.043 A 
HETATM    5  C   UNL     1      14.042   4.969  12.411  1.00  0.00    -0.056 A 
HETATM    6  C   UNL     1      12.889   4.475  11.819  1.00  0.00     0.007 A 
HETATM    7  C   UNL     1      12.884   4.202  10.452  1.00  0.00     0.003 A 
HETATM    8  C   UNL     1      14.033   4.424   9.692  1.00  0.00     0.036 A 
BRANCH   5   9
HETATM    9  C   UNL     1      14.047   5.263  13.889  1.00  0.00     0.038 C 
BRANCH   9  10
HETATM   10  C   UNL     1      12.668   5.151  14.551  1.00  0.00     0.005 C 
BRANCH  10  11
HETATM   11  C   UNL     1      12.103   6.509  14.987  1.00  0.00     0.011 C 
BRANCH  11  12
HETATM   12  C   UNL     1      11.615   7.345  13.802  1.00  0.00     0.113 C 
BRANCH  12  13
HETATM   13  C   UNL     1      12.239   8.722  13.744  1.00  0.00     0.172 C 
HETATM   14  O   UNL     1      13.500   8.716  14.248  1.00  0.00    -0.648 OA
HETATM   15  O   UNL     1      11.707   9.723  13.286  1.00  0.00    -0.648 OA
ENDBRANCH  12  13
ENDBRANCH  11  12
ENDBRANCH  10  11
ENDBRANCH   9  10
ENDBRANCH   5   9
ENDBRANCH   1   3
TORSDOF 6
ENDMDL
