MODEL 1
REMARK VINA RESULT:      -6.5      0.000      0.000
REMARK  6 active torsions:
REMARK  status: ('A' for Active; 'I' for Inactive)
REMARK    1  A    between atoms: O_1  and  C_11 
REMARK    2  A    between atoms: C_4  and  C_5 
REMARK    3  A    between atoms: C_4  and  C_6 
REMARK    4  A    between atoms: C_5  and  C_7 
REMARK    5  A    between atoms: C_6  and  C_8 
REMARK    6  A    between atoms: C_8  and  C_12 
ROOT
HETATM    1  O   UNL     1      11.341   6.852  16.320  1.00  0.00    -0.361 OA
HETATM    2  H   UNL     1      10.554   7.309  16.543  1.00  0.00     0.217 HD
ENDROOT
BRANCH   1   3
HETATM    3  C   UNL     1      11.875   6.985  15.076  1.00  0.00     0.066 A 
HETATM    4  C   UNL     1      12.722   5.998  14.570  1.00  0.00     0.043 A 
HETATM    5  C   UNL     1      13.259   6.148  13.300  1.00  0.00    -0.056 A 
HETATM    6  C   UNL     1      12.970   7.260  12.524  1.00  0.00     0.007 A 
HETATM    7  C   UNL     1      12.123   8.246  13.029  1.00  0.00     0.003 A 
HETATM    8  C   UNL     1      11.575   8.108  14.305  1.00  0.00     0.036 A 
BRANCH   5   9
HETATM    9  C   UNL     1      14.176   5.083  12.754  1.00  0.00     0.038 C 
BRANCH   9  10
HETATM   10  C   UNL     1      14.037   4.857  11.244  1.00  0.00     0.005 C 
BRANCH  10  11
HETATM   11  C   UNL     1      12.714   4.181  10.860  1.00  0.00     0.011 C 
BRANCH  11  12
HETATM   12  C   UNL     1      12.889   3.152   9.741  1.00  0.00     0.113 C 
BRANCH  12  13
HETATM   13  C   UNL     1      13.289   3.769   8.419  1.00  0.00     0.172 C 
HETATM   14  O   UNL     1      14.135   2.961   7.730  1.00  0.00    -0.648 OA
HETATM   15  O   UNL     1      12.897   4.845   7.990  1.00  0.00    -0.648 OA
ENDBRANCH  12  13
ENDBRANCH  11  12
ENDBRANCH  10  11
ENDBRANCH   9  10
ENDBRANCH   5   9
ENDBRANCH   1   3
TORSDOF 6
ENDMDL
MODEL 2
REMARK VINA RESULT:      -6.4      0.929      1.203
REMARK  6 active torsions:
REMARK  status: ('A' for Active; 'I' for Inactive)
REMARK    1  A    between atoms: O_1  and  C_11 
REMARK    2  A    between atoms: C_4  and  C_5 
REMARK    3  A    between atoms: C_4  and  C_6 
REMARK    4  A    between atoms: C_5  and  C_7 
REMARK    5  A    between atoms: C_6  and  C_8 
REMARK    6  A    between atoms: C_8  and  C_12 
ROOT
HETATM    1  O   UNL     1      11.691   7.141  16.632  1.00  0.00    -0.361 OA
HETATM    2  H   UNL     1      10.808   7.144  16.944  1.00  0.00     0.217 HD
ENDROOT
BRANCH   1   3
HETATM    3  C   UNL     1      11.941   7.165  15.295  1.00  0.00     0.066 A 
HETATM    4  C   UNL     1      12.418   6.022  14.653  1.00  0.00     0.043 A 
HETATM    5  C   UNL     1      12.668   6.062  13.290  1.00  0.00    -0.056 A 
HETATM    6  C   UNL     1      12.453   7.217  12.553  1.00  0.00     0.007 A 
HETATM    7  C   UNL     1      11.976   8.359  13.195  1.00  0.00     0.003 A 
HETATM    8  C   UNL     1      11.719   8.334  14.566  1.00  0.00     0.036 A 
BRANCH   5   9
HETATM    9  C   UNL     1      13.185   4.828  12.595  1.00  0.00     0.038 C 
BRANCH   9  10
HETATM   10  C   UNL     1      14.599   4.982  12.023  1.00  0.00     0.005 C 
BRANCH  10  11
HETATM   11  C   UNL     1      14.609   5.205  10.505  1.00  0.00     0.011 C 
BRANCH  11  12
HETATM   12  C   UNL     1      13.309   4.746   9.841  1.00  0.00     0.113 C 
BRANCH  12  13
HETATM   13  C   UNL     1      13.467   3.481   9.027  1.00  0.00     0.172 C 
HETATM   14  O   UNL     1      12.856   2.426   9.626  1.00  0.00    -0.648 OA
HETATM   15  O   UNL     1      14.045   3.395   7.953  1.00  0.00    -0.648 OA
ENDBRANCH  12  13
ENDBRANCH  11  12
ENDBRANCH  10  11
ENDBRANCH   9  10
ENDBRANCH   5   9
ENDBRANCH   1   3
TORSDOF 6
ENDMDL
MODEL 3
REMARK VINA RESULT:      -6.1      3.091      4.502
REMARK  6 active torsions:
REMARK  status: ('A' for Active; 'I' for Inactive)
REMARK    1  A    between atoms: O_1  and  C_11 
REMARK    2  A    between atoms: C_4  and  C_5 
REMARK    3  A    between atoms: C_4  and  C_6 
REMARK    4  A    between atoms: C_5  and  C_7 
REMARK    5  A    between atoms: C_6  and  C_8 
REMARK    6  A    between atoms: C_8  and  C_12 
ROOT
HETATM    1  O   UNL     1      18.273   6.025   9.581  1.00  0.00    -0.361 OA
HETATM    2  H   UNL     1      19.176   6.272   9.605  1.00  0.00     0.217 HD
ENDROOT
BRANCH   1   3
HETATM    3  C   UNL     1      17.551   5.970  10.733  1.00  0.00     0.066 A 
HETATM    4  C   UNL     1      16.157   5.990  10.685  1.00  0.00     0.043 A 
HETATM    5  C   UNL     1      15.435   5.933  11.868  1.00  0.00    -0.056 A 
HETATM    6  C   UNL     1      16.074   5.857  13.097  1.00  0.00     0.007 A 
HETATM    7  C   UNL     1      17.467   5.837  13.144  1.00  0.00     0.003 A 
HETATM    8  C   UNL     1      18.207   5.893  11.962  1.00  0.00     0.036 A 
BRANCH   5   9
HETATM    9  C   UNL     1      13.929   5.956  11.817  1.00  0.00     0.038 C 
BRANCH   9  10
HETATM   10  C   UNL     1      13.280   4.577  11.981  1.00  0.00     0.005 C 
BRANCH  10  11
HETATM   11  C   UNL     1      12.334   4.220  10.826  1.00  0.00     0.011 C 
BRANCH  11  12
HETATM   12  C   UNL     1      12.957   3.219   9.851  1.00  0.00     0.113 C 
BRANCH  12  13
HETATM   13  C   UNL     1      13.297   3.824   8.507  1.00  0.00     0.172 C 
HETATM   14  O   UNL     1      14.043   2.974   7.755  1.00  0.00    -0.648 OA
HETATM   15  O   UNL     1      12.939   4.925   8.113  1.00  0.00    -0.648 OA
ENDBRANCH  12  13
ENDBRANCH  11  12
ENDBRANCH  10  11
ENDBRANCH   9  10
ENDBRANCH   5   9
ENDBRANCH   1   3
TORSDOF 6
ENDMDL
MODEL 4
REMARK VINA RESULT:      -6.1      2.480      3.210
REMARK  6 active torsions:
REMARK  status: ('A' for Active; 'I' for Inactive)
REMARK    1  A    between atoms: O_1  and  C_11 
REMARK    2  A    between atoms: C_4  and  C_5 
REMARK    3  A    between atoms: C_4  and  C_6 
REMARK    4  A    between atoms: C_5  and  C_7 
REMARK    5  A    between atoms: C_6  and  C_8 
REMARK    6  A    between atoms: C_8  and  C_12 
ROOT
HETATM    1  O   UNL     1      11.207   2.699  12.983  1.00  0.00    -0.361 OA
HETATM    2  H   UNL     1      10.401   3.146  12.816  1.00  0.00     0.217 HD
ENDROOT
BRANCH   1   3
HETATM    3  C   UNL     1      12.233   3.354  13.593  1.00  0.00     0.066 A 
HETATM    4  C   UNL     1      12.981   4.293  12.883  1.00  0.00     0.043 A 
HETATM    5  C   UNL     1      14.024   4.952  13.518  1.00  0.00    -0.056 A 
HETATM    6  C   UNL     1      14.335   4.693  14.845  1.00  0.00     0.007 A 
HETATM    7  C   UNL     1      13.587   3.755  15.553  1.00  0.00     0.003 A 
HETATM    8  C   UNL     1      12.535   3.085  14.928  1.00  0.00     0.036 A 
BRANCH   5   9
HETATM    9  C   UNL     1      14.834   5.966  12.752  1.00  0.00     0.038 C 
BRANCH   9  10
HETATM   10  C   UNL     1      14.095   6.578  11.556  1.00  0.00     0.005 C 
BRANCH  10  11
HETATM   11  C   UNL     1      14.773   6.274  10.214  1.00  0.00     0.011 C 
BRANCH  11  12
HETATM   12  C   UNL     1      14.789   4.777   9.896  1.00  0.00     0.113 C 
BRANCH  12  13
HETATM   13  C   UNL     1      13.577   4.317   9.116  1.00  0.00     0.172 C 
HETATM   14  O   UNL     1      13.936   3.602   8.018  1.00  0.00    -0.648 OA
HETATM   15  O   UNL     1      12.413   4.529   9.423  1.00  0.00    -0.648 OA
ENDBRANCH  12  13
ENDBRANCH  11  12
ENDBRANCH  10  11
ENDBRANCH   9  10
ENDBRANCH   5   9
ENDBRANCH   1   3
TORSDOF 6
ENDMDL
MODEL 5
REMARK VINA RESULT:      -6.1      2.518      5.886
REMARK  6 active torsions:
REMARK  status: ('A' for Active; 'I' for Inactive)
REMARK    1  A    between atoms: O_1  and  C_11 
REMARK    2  A    between atoms: C_4  and  C_5 
REMARK    3  A    between atoms: C_4  and  C_6 
REMARK    4  A    between atoms: C_5  and  C_7 
REMARK    5  A    between atoms: C_6  and  C_8 
REMARK    6  A    between atoms: C_8  and  C_12 
ROOT
HETATM    1  O   UNL     1      18.153   6.007   9.618  1.00  0.00    -0.361 OA
HETATM    2  H   UNL     1      18.959   5.530   9.589  1.00  0.00     0.217 HD
ENDROOT
BRANCH   1   3
HETATM    3  C   UNL     1      17.283   5.809  10.645  1.00  0.00     0.066 A 
HETATM    4  C   UNL     1      15.959   5.456  10.381  1.00  0.00     0.043 A 
HETATM    5  C   UNL     1      15.084   5.258  11.438  1.00  0.00    -0.056 A 
HETATM    6  C   UNL     1      15.500   5.404  12.753  1.00  0.00     0.007 A 
HETATM    7  C   UNL     1      16.823   5.756  13.017  1.00  0.00     0.003 A 
HETATM    8  C   UNL     1      17.715   5.958  11.963  1.00  0.00     0.036 A 
BRANCH   5   9
HETATM    9  C   UNL     1      13.653   4.878  11.153  1.00  0.00     0.038 C 
BRANCH   9  10
HETATM   10  C   UNL     1      12.705   5.090  12.340  1.00  0.00     0.005 C 
BRANCH  10  11
HETATM   11  C   UNL     1      11.785   6.305  12.161  1.00  0.00     0.011 C 
BRANCH  11  12
HETATM   12  C   UNL     1      12.377   7.578  12.771  1.00  0.00     0.113 C 
BRANCH  12  13
HETATM   13  C   UNL     1      12.452   7.538  14.282  1.00  0.00     0.172 C 
HETATM   14  O   UNL     1      13.729   7.694  14.719  1.00  0.00    -0.648 OA
HETATM   15  O   UNL     1      11.500   7.407  15.037  1.00  0.00    -0.648 OA
ENDBRANCH  12  13
ENDBRANCH  11  12
ENDBRANCH  10  11
ENDBRANCH   9  10
ENDBRANCH   5   9
ENDBRANCH   1   3
TORSDOF 6
ENDMDL
MODEL 6
REMARK VINA RESULT:      -6.0      2.128      5.185
REMARK  6 active torsions:
REMARK  status: ('A' for Active; 'I' for Inactive)
REMARK    1  A    between atoms: O_1  and  C_11 
REMARK    2  A    between atoms: C_4  and  C_5 
REMARK    3  A    between atoms: C_4  and  C_6 
REMARK    4  A    between atoms: C_5  and  C_7 
REMARK    5  A    between atoms: C_6  and  C_8 
REMARK    6  A    between atoms: C_8  and  C_12 
ROOT
HETATM    1  O   UNL     1      11.516   4.020  11.583  1.00  0.00    -0.361 OA
HETATM    2  H   UNL     1      10.813   4.544  11.252  1.00  0.00     0.217 HD
ENDROOT
BRANCH   1   3
HETATM    3  C   UNL     1      12.797   4.470  11.500  1.00  0.00     0.066 A 
HETATM    4  C   UNL     1      13.513   4.755  12.663  1.00  0.00     0.043 A 
HETATM    5  C   UNL     1      14.818   5.214  12.563  1.00  0.00    -0.056 A 
HETATM    6  C   UNL     1      15.424   5.394  11.328  1.00  0.00     0.007 A 
HETATM    7  C   UNL     1      14.708   5.108  10.166  1.00  0.00     0.003 A 
HETATM    8  C   UNL     1      13.395   4.646  10.252  1.00  0.00     0.036 A 
BRANCH   5   9
HETATM    9  C   UNL     1      15.592   5.524  13.819  1.00  0.00     0.038 C 
BRANCH   9  10
HETATM   10  C   UNL     1      15.724   7.023  14.114  1.00  0.00     0.005 C 
BRANCH  10  11
HETATM   11  C   UNL     1      14.477   7.611  14.789  1.00  0.00     0.011 C 
BRANCH  11  12
HETATM   12  C   UNL     1      13.555   8.317  13.792  1.00  0.00     0.113 C 
BRANCH  12  13
HETATM   13  C   UNL     1      12.127   7.819  13.842  1.00  0.00     0.172 C 
HETATM   14  O   UNL     1      11.611   7.670  12.595  1.00  0.00    -0.648 OA
HETATM   15  O   UNL     1      11.502   7.556  14.859  1.00  0.00    -0.648 OA
ENDBRANCH  12  13
ENDBRANCH  11  12
ENDBRANCH  10  11
ENDBRANCH   9  10
ENDBRANCH   5   9
ENDBRANCH   1   3
TORSDOF 6
ENDMDL
MODEL 7
REMARK VINA RESULT:      -6.0      2.262      5.194
REMARK  6 active torsions:
REMARK  status: ('A' for Active; 'I' for Inactive)
REMARK    1  A    between atoms: O_1  and  C_11 
REMARK    2  A    between atoms: C_4  and  C_5 
REMARK    3  A    between atoms: C_4  and  C_6 
REMARK    4  A    between atoms: C_5  and  C_7 
REMARK    5  A    between atoms: C_6  and  C_8 
REMARK    6  A    between atoms: C_8  and  C_12 
ROOT
HETATM    1  O   UNL     1      11.524   3.374  12.195  1.00  0.00    -0.361 OA
HETATM    2  H   UNL     1      10.898   3.898  12.654  1.00  0.00     0.217 HD
ENDROOT
BRANCH   1   3
HETATM    3  C   UNL     1      12.605   3.959  11.611  1.00  0.00     0.066 A 
HETATM    4  C   UNL     1      13.546   4.627  12.395  1.00  0.00     0.043 A 
HETATM    5  C   UNL     1      14.642   5.219  11.785  1.00  0.00    -0.056 A 
HETATM    6  C   UNL     1      14.819   5.158  10.411  1.00  0.00     0.007 A 
HETATM    7  C   UNL     1      13.879   4.490   9.628  1.00  0.00     0.003 A 
HETATM    8  C   UNL     1      12.772   3.889  10.227  1.00  0.00     0.036 A 
BRANCH   5   9
HETATM    9  C   UNL     1      15.658   5.943  12.631  1.00  0.00     0.038 C 
BRANCH   9  10
HETATM   10  C   UNL     1      15.299   7.405  12.919  1.00  0.00     0.005 C 
BRANCH  10  11
HETATM   11  C   UNL     1      14.418   7.571  14.165  1.00  0.00     0.011 C 
BRANCH  11  12
HETATM   12  C   UNL     1      13.238   8.515  13.922  1.00  0.00     0.113 C 
BRANCH  12  13
HETATM   13  C   UNL     1      11.951   7.791  13.593  1.00  0.00     0.172 C 
HETATM   14  O   UNL     1      11.189   7.606  14.701  1.00  0.00    -0.648 OA
HETATM   15  O   UNL     1      11.607   7.427  12.477  1.00  0.00    -0.648 OA
ENDBRANCH  12  13
ENDBRANCH  11  12
ENDBRANCH  10  11
ENDBRANCH   9  10
ENDBRANCH   5   9
ENDBRANCH   1   3
TORSDOF 6
ENDMDL
MODEL 8
REMARK VINA RESULT:      -6.0      2.792      6.470
REMARK  6 active torsions:
REMARK  status: ('A' for Active; 'I' for Inactive)
REMARK    1  A    between atoms: O_1  and  C_11 
REMARK    2  A    between atoms: C_4  and  C_5 
REMARK    3  A    between atoms: C_4  and  C_6 
REMARK    4  A    between atoms: C_5  and  C_7 
REMARK    5  A    between atoms: C_6  and  C_8 
REMARK    6  A    between atoms: C_8  and  C_12 
ROOT
HETATM    1  O   UNL     1      12.732   3.175   9.365  1.00  0.00    -0.361 OA
HETATM    2  H   UNL     1      13.144   2.342   9.251  1.00  0.00     0.217 HD
ENDROOT
BRANCH   1   3
HETATM    3  C   UNL     1      13.346   4.145  10.095  1.00  0.00     0.066 A 
HETATM    4  C   UNL     1      12.653   4.794  11.118  1.00  0.00     0.043 A 
HETATM    5  C   UNL     1      13.293   5.781  11.853  1.00  0.00    -0.056 A 
HETATM    6  C   UNL     1      14.608   6.133  11.591  1.00  0.00     0.007 A 
HETATM    7  C   UNL     1      15.301   5.484  10.570  1.00  0.00     0.003 A 
HETATM    8  C   UNL     1      14.670   4.489   9.822  1.00  0.00     0.036 A 
BRANCH   5   9
HETATM    9  C   UNL     1      12.544   6.484  12.956  1.00  0.00     0.038 C 
BRANCH   9  10
HETATM   10  C   UNL     1      13.057   7.898  13.252  1.00  0.00     0.005 C 
BRANCH  10  11
HETATM   11  C   UNL     1      11.925   8.913  13.463  1.00  0.00     0.011 C 
BRANCH  11  12
HETATM   12  C   UNL     1      12.391  10.153  14.229  1.00  0.00     0.113 C 
BRANCH  12  13
HETATM   13  C   UNL     1      12.184  11.442  13.464  1.00  0.00     0.172 C 
HETATM   14  O   UNL     1      13.129  12.364  13.782  1.00  0.00    -0.648 OA
HETATM   15  O   UNL     1      11.302  11.646  12.643  1.00  0.00    -0.648 OA
ENDBRANCH  12  13
ENDBRANCH  11  12
ENDBRANCH  10  11
ENDBRANCH   9  10
ENDBRANCH   5   9
ENDBRANCH   1   3
TORSDOF 6
ENDMDL
MODEL 9
REMARK VINA RESULT:      -5.9      2.185      2.571
REMARK  6 active torsions:
REMARK  status: ('A' for Active; 'I' for Inactive)
REMARK    1  A    between atoms: O_1  and  C_11 
REMARK    2  A    between atoms: C_4  and  C_5 
REMARK    3  A    between atoms: C_4  and  C_6 
REMARK    4  A    between atoms: C_5  and  C_7 
REMARK    5  A    between atoms: C_6  and  C_8 
REMARK    6  A    between atoms: C_8  and  C_12 
ROOT
HETATM    1  O   UNL     1      11.403   7.239  16.589  1.00  0.00    -0.361 OA
HETATM    2  H   UNL     1      12.030   7.042  17.257  1.00  0.00     0.217 HD
ENDROOT
BRANCH   1   3
HETATM    3  C   UNL     1      11.778   7.231  15.281  1.00  0.00     0.066 A 
HETATM    4  C   UNL     1      12.326   6.078  14.718  1.00  0.00     0.043 A 
HETATM    5  C   UNL     1      12.703   6.086  13.384  1.00  0.00    -0.056 A 
HETATM    6  C   UNL     1      12.546   7.219  12.599  1.00  0.00     0.007 A 
HETATM    7  C   UNL     1      11.998   8.371  13.161  1.00  0.00     0.003 A 
HETATM    8  C   UNL     1      11.613   8.378  14.503  1.00  0.00     0.036 A 
BRANCH   5   9
HETATM    9  C   UNL     1      13.297   4.841  12.775  1.00  0.00     0.038 C 
BRANCH   9  10
HETATM   10  C   UNL     1      12.964   4.655  11.290  1.00  0.00     0.005 C 
BRANCH  10  11
HETATM   11  C   UNL     1      14.208   4.665  10.392  1.00  0.00     0.011 C 
BRANCH  11  12
HETATM   12  C   UNL     1      14.678   6.085  10.065  1.00  0.00     0.113 C 
BRANCH  12  13
HETATM   13  C   UNL     1      15.827   6.549  10.933  1.00  0.00     0.172 C 
HETATM   14  O   UNL     1      16.609   5.508  11.318  1.00  0.00    -0.648 OA
HETATM   15  O   UNL     1      16.058   7.709  11.244  1.00  0.00    -0.648 OA
ENDBRANCH  12  13
ENDBRANCH  11  12
ENDBRANCH  10  11
ENDBRANCH   9  10
ENDBRANCH   5   9
ENDBRANCH   1   3
TORSDOF 6
ENDMDL
