MODEL 1
REMARK VINA RESULT:      -6.4      0.000      0.000
REMARK  6 active torsions:
REMARK  status: ('A' for Active; 'I' for Inactive)
REMARK    1  A    between atoms: O_1  and  C_11 
REMARK    2  A    between atoms: C_4  and  C_5 
REMARK    3  A    between atoms: C_4  and  C_6 
REMARK    4  A    between atoms: C_5  and  C_7 
REMARK    5  A    between atoms: C_6  and  C_8 
REMARK    6  A    between atoms: C_8  and  C_12 
ROOT
HETATM    1  O   UNL     1      11.536   6.955  16.471  1.00  0.00    -0.361 OA
HETATM    2  H   UNL     1      12.040   6.440  17.070  1.00  0.00     0.217 HD
ENDROOT
BRANCH   1   3
HETATM    3  C   UNL     1      11.910   7.040  15.166  1.00  0.00     0.066 A 
HETATM    4  C   UNL     1      12.558   5.968  14.553  1.00  0.00     0.043 A 
HETATM    5  C   UNL     1      12.933   6.070  13.222  1.00  0.00    -0.056 A 
HETATM    6  C   UNL     1      12.676   7.219  12.489  1.00  0.00     0.007 A 
HETATM    7  C   UNL     1      12.027   8.291  13.101  1.00  0.00     0.003 A 
HETATM    8  C   UNL     1      11.644   8.202  14.440  1.00  0.00     0.036 A 
BRANCH   5   9
HETATM    9  C   UNL     1      13.635   4.912  12.560  1.00  0.00     0.038 C 
BRANCH   9  10
HETATM   10  C   UNL     1      14.968   5.287  11.902  1.00  0.00     0.005 C 
BRANCH  10  11
HETATM   11  C   UNL     1      15.015   4.945  10.407  1.00  0.00     0.011 C 
BRANCH  11  12
HETATM   12  C   UNL     1      13.618   4.790   9.802  1.00  0.00     0.113 C 
BRANCH  12  13
HETATM   13  C   UNL     1      13.417   3.472   9.087  1.00  0.00     0.172 C 
HETATM   14  O   UNL     1      14.092   3.440   7.909  1.00  0.00    -0.648 OA
HETATM   15  O   UNL     1      12.757   2.531   9.504  1.00  0.00    -0.648 OA
ENDBRANCH  12  13
ENDBRANCH  11  12
ENDBRANCH  10  11
ENDBRANCH   9  10
ENDBRANCH   5   9
ENDBRANCH   1   3
TORSDOF 6
ENDMDL
MODEL 2
REMARK VINA RESULT:      -6.0      3.199      4.867
REMARK  6 active torsions:
REMARK  status: ('A' for Active; 'I' for Inactive)
REMARK    1  A    between atoms: O_1  and  C_11 
REMARK    2  A    between atoms: C_4  and  C_5 
REMARK    3  A    between atoms: C_4  and  C_6 
REMARK    4  A    between atoms: C_5  and  C_7 
REMARK    5  A    between atoms: C_6  and  C_8 
REMARK    6  A    between atoms: C_8  and  C_12 
ROOT
HETATM    1  O   UNL     1      18.254   6.138   9.604  1.00  0.00    -0.361 OA
HETATM    2  H   UNL     1      19.068   5.762   9.334  1.00  0.00     0.217 HD
ENDROOT
BRANCH   1   3
HETATM    3  C   UNL     1      17.820   5.975  10.883  1.00  0.00     0.066 A 
HETATM    4  C   UNL     1      16.472   5.718  11.137  1.00  0.00     0.043 A 
HETATM    5  C   UNL     1      16.046   5.555  12.446  1.00  0.00    -0.056 A 
HETATM    6  C   UNL     1      16.934   5.643  13.508  1.00  0.00     0.007 A 
HETATM    7  C   UNL     1      18.281   5.898  13.255  1.00  0.00     0.003 A 
HETATM    8  C   UNL     1      18.725   6.064  11.942  1.00  0.00     0.036 A 
BRANCH   5   9
HETATM    9  C   UNL     1      14.589   5.280  12.721  1.00  0.00     0.038 C 
BRANCH   9  10
HETATM   10  C   UNL     1      13.655   5.664  11.567  1.00  0.00     0.005 C 
BRANCH  10  11
HETATM   11  C   UNL     1      12.952   4.454  10.938  1.00  0.00     0.011 C 
BRANCH  11  12
HETATM   12  C   UNL     1      12.968   4.501   9.409  1.00  0.00     0.113 C 
BRANCH  12  13
HETATM   13  C   UNL     1      13.422   3.205   8.775  1.00  0.00     0.172 C 
HETATM   14  O   UNL     1      12.964   2.129   9.465  1.00  0.00    -0.648 OA
HETATM   15  O   UNL     1      14.096   3.109   7.759  1.00  0.00    -0.648 OA
ENDBRANCH  12  13
ENDBRANCH  11  12
ENDBRANCH  10  11
ENDBRANCH   9  10
ENDBRANCH   5   9
ENDBRANCH   1   3
TORSDOF 6
ENDMDL
MODEL 3
REMARK VINA RESULT:      -6.0      2.655      6.463
REMARK  6 active torsions:
REMARK  status: ('A' for Active; 'I' for Inactive)
REMARK    1  A    between atoms: O_1  and  C_11 
REMARK    2  A    between atoms: C_4  and  C_5 
REMARK    3  A    between atoms: C_4  and  C_6 
REMARK    4  A    between atoms: C_5  and  C_7 
REMARK    5  A    between atoms: C_6  and  C_8 
REMARK    6  A    between atoms: C_8  and  C_12 
ROOT
HETATM    1  O   UNL     1      12.527   3.471   9.518  1.00  0.00    -0.361 OA
HETATM    2  H   UNL     1      12.395   3.541   8.593  1.00  0.00     0.217 HD
ENDROOT
BRANCH   1   3
HETATM    3  C   UNL     1      13.188   4.453  10.188  1.00  0.00     0.066 A 
HETATM    4  C   UNL     1      12.599   5.062  11.296  1.00  0.00     0.043 A 
HETATM    5  C   UNL     1      13.286   6.062  11.968  1.00  0.00    -0.056 A 
HETATM    6  C   UNL     1      14.547   6.468  11.558  1.00  0.00     0.007 A 
HETATM    7  C   UNL     1      15.136   5.860  10.450  1.00  0.00     0.003 A 
HETATM    8  C   UNL     1      14.457   4.852   9.765  1.00  0.00     0.036 A 
BRANCH   5   9
HETATM    9  C   UNL     1      12.650   6.721  13.165  1.00  0.00     0.038 C 
BRANCH   9  10
HETATM   10  C   UNL     1      11.886   8.009  12.833  1.00  0.00     0.005 C 
BRANCH  10  11
HETATM   11  C   UNL     1      11.829   8.991  14.011  1.00  0.00     0.011 C 
BRANCH  11  12
HETATM   12  C   UNL     1      12.882  10.095  13.899  1.00  0.00     0.113 C 
BRANCH  12  13
HETATM   13  C   UNL     1      12.299  11.445  13.544  1.00  0.00     0.172 C 
HETATM   14  O   UNL     1      13.042  12.457  14.060  1.00  0.00    -0.648 OA
HETATM   15  O   UNL     1      11.301  11.630  12.862  1.00  0.00    -0.648 OA
ENDBRANCH  12  13
ENDBRANCH  11  12
ENDBRANCH  10  11
ENDBRANCH   9  10
ENDBRANCH   5   9
ENDBRANCH   1   3
TORSDOF 6
ENDMDL
MODEL 4
REMARK VINA RESULT:      -6.0      2.576      6.003
REMARK  6 active torsions:
REMARK  status: ('A' for Active; 'I' for Inactive)
REMARK    1  A    between atoms: O_1  and  C_11 
REMARK    2  A    between atoms: C_4  and  C_5 
REMARK    3  A    between atoms: C_4  and  C_6 
REMARK    4  A    between atoms: C_5  and  C_7 
REMARK    5  A    between atoms: C_6  and  C_8 
REMARK    6  A    between atoms: C_8  and  C_12 
ROOT
HETATM    1  O   UNL     1      18.041   6.026   9.620  1.00  0.00    -0.361 OA
HETATM    2  H   UNL     1      18.620   5.350   9.328  1.00  0.00     0.217 HD
ENDROOT
BRANCH   1   3
HETATM    3  C   UNL     1      17.240   5.816  10.699  1.00  0.00     0.066 A 
HETATM    4  C   UNL     1      15.914   5.421  10.519  1.00  0.00     0.043 A 
HETATM    5  C   UNL     1      15.110   5.212  11.629  1.00  0.00    -0.056 A 
HETATM    6  C   UNL     1      15.599   5.389  12.915  1.00  0.00     0.007 A 
HETATM    7  C   UNL     1      16.924   5.783  13.095  1.00  0.00     0.003 A 
HETATM    8  C   UNL     1      17.745   5.997  11.987  1.00  0.00     0.036 A 
BRANCH   5   9
HETATM    9  C   UNL     1      13.676   4.787  11.435  1.00  0.00     0.038 C 
BRANCH   9  10
HETATM   10  C   UNL     1      12.740   5.222  12.569  1.00  0.00     0.005 C 
BRANCH  10  11
HETATM   11  C   UNL     1      12.059   6.570  12.298  1.00  0.00     0.011 C 
BRANCH  11  12
HETATM   12  C   UNL     1      12.795   7.737  12.961  1.00  0.00     0.113 C 
BRANCH  12  13
HETATM   13  C   UNL     1      11.904   8.581  13.845  1.00  0.00     0.172 C 
HETATM   14  O   UNL     1      11.181   7.812  14.700  1.00  0.00    -0.648 OA
HETATM   15  O   UNL     1      11.839   9.802  13.828  1.00  0.00    -0.648 OA
ENDBRANCH  12  13
ENDBRANCH  11  12
ENDBRANCH  10  11
ENDBRANCH   9  10
ENDBRANCH   5   9
ENDBRANCH   1   3
TORSDOF 6
ENDMDL
MODEL 5
REMARK VINA RESULT:      -5.9      1.482      1.672
REMARK  6 active torsions:
REMARK  status: ('A' for Active; 'I' for Inactive)
REMARK    1  A    between atoms: O_1  and  C_11 
REMARK    2  A    between atoms: C_4  and  C_5 
REMARK    3  A    between atoms: C_4  and  C_6 
REMARK    4  A    between atoms: C_5  and  C_7 
REMARK    5  A    between atoms: C_6  and  C_8 
REMARK    6  A    between atoms: C_8  and  C_12 
ROOT
HETATM    1  O   UNL     1      13.106   9.859  14.684  1.00  0.00    -0.361 OA
HETATM    2  H   UNL     1      12.383  10.165  15.195  1.00  0.00     0.217 HD
ENDROOT
BRANCH   1   3
HETATM    3  C   UNL     1      12.974   8.739  13.922  1.00  0.00     0.066 A 
HETATM    4  C   UNL     1      14.106   8.027  13.525  1.00  0.00     0.043 A 
HETATM    5  C   UNL     1      13.955   6.888  12.748  1.00  0.00    -0.056 A 
HETATM    6  C   UNL     1      12.700   6.444  12.360  1.00  0.00     0.007 A 
HETATM    7  C   UNL     1      11.569   7.155  12.758  1.00  0.00     0.003 A 
HETATM    8  C   UNL     1      11.705   8.303  13.540  1.00  0.00     0.036 A 
BRANCH   5   9
HETATM    9  C   UNL     1      15.178   6.120  12.317  1.00  0.00     0.038 C 
BRANCH   9  10
HETATM   10  C   UNL     1      15.511   6.265  10.827  1.00  0.00     0.005 C 
BRANCH  10  11
HETATM   11  C   UNL     1      15.295   4.967  10.037  1.00  0.00     0.011 C 
BRANCH  11  12
HETATM   12  C   UNL     1      13.859   4.829   9.526  1.00  0.00     0.113 C 
BRANCH  12  13
HETATM   13  C   UNL     1      13.554   3.459   8.962  1.00  0.00     0.172 C 
HETATM   14  O   UNL     1      14.270   3.216   7.835  1.00  0.00    -0.648 OA
HETATM   15  O   UNL     1      12.782   2.645   9.451  1.00  0.00    -0.648 OA
ENDBRANCH  12  13
ENDBRANCH  11  12
ENDBRANCH  10  11
ENDBRANCH   9  10
ENDBRANCH   5   9
ENDBRANCH   1   3
TORSDOF 6
ENDMDL
MODEL 6
REMARK VINA RESULT:      -5.9      1.895      5.177
REMARK  6 active torsions:
REMARK  status: ('A' for Active; 'I' for Inactive)
REMARK    1  A    between atoms: O_1  and  C_11 
REMARK    2  A    between atoms: C_4  and  C_5 
REMARK    3  A    between atoms: C_4  and  C_6 
REMARK    4  A    between atoms: C_5  and  C_7 
REMARK    5  A    between atoms: C_6  and  C_8 
REMARK    6  A    between atoms: C_8  and  C_12 
ROOT
HETATM    1  O   UNL     1      11.928   4.233  10.874  1.00  0.00    -0.361 OA
HETATM    2  H   UNL     1      11.710   3.324  10.930  1.00  0.00     0.217 HD
ENDROOT
BRANCH   1   3
HETATM    3  C   UNL     1      13.214   4.637  11.060  1.00  0.00     0.066 A 
HETATM    4  C   UNL     1      13.695   4.863  12.350  1.00  0.00     0.043 A 
HETATM    5  C   UNL     1      15.008   5.275  12.523  1.00  0.00    -0.056 A 
HETATM    6  C   UNL     1      15.851   5.466  11.438  1.00  0.00     0.007 A 
HETATM    7  C   UNL     1      15.370   5.240  10.149  1.00  0.00     0.003 A 
HETATM    8  C   UNL     1      14.051   4.825   9.960  1.00  0.00     0.036 A 
BRANCH   5   9
HETATM    9  C   UNL     1      15.529   5.520  13.916  1.00  0.00     0.038 C 
BRANCH   9  10
HETATM   10  C   UNL     1      15.579   7.002  14.309  1.00  0.00     0.005 C 
BRANCH  10  11
HETATM   11  C   UNL     1      14.266   7.501  14.926  1.00  0.00     0.011 C 
BRANCH  11  12
HETATM   12  C   UNL     1      13.428   8.310  13.934  1.00  0.00     0.113 C 
BRANCH  12  13
HETATM   13  C   UNL     1      11.987   7.856  13.859  1.00  0.00     0.172 C 
HETATM   14  O   UNL     1      11.623   7.569  12.582  1.00  0.00    -0.648 OA
HETATM   15  O   UNL     1      11.230   7.732  14.811  1.00  0.00    -0.648 OA
ENDBRANCH  12  13
ENDBRANCH  11  12
ENDBRANCH  10  11
ENDBRANCH   9  10
ENDBRANCH   5   9
ENDBRANCH   1   3
TORSDOF 6
ENDMDL
MODEL 7
REMARK VINA RESULT:      -5.8      2.342      2.793
REMARK  6 active torsions:
REMARK  status: ('A' for Active; 'I' for Inactive)
REMARK    1  A    between atoms: O_1  and  C_11 
REMARK    2  A    between atoms: C_4  and  C_5 
REMARK    3  A    between atoms: C_4  and  C_6 
REMARK    4  A    between atoms: C_5  and  C_7 
REMARK    5  A    between atoms: C_6  and  C_8 
REMARK    6  A    between atoms: C_8  and  C_12 
ROOT
HETATM    1  O   UNL     1      11.225   7.238  16.427  1.00  0.00    -0.361 OA
HETATM    2  H   UNL     1      11.022   8.046  16.857  1.00  0.00     0.217 HD
ENDROOT
BRANCH   1   3
HETATM    3  C   UNL     1      11.710   7.247  15.156  1.00  0.00     0.066 A 
HETATM    4  C   UNL     1      12.311   6.103  14.630  1.00  0.00     0.043 A 
HETATM    5  C   UNL     1      12.800   6.128  13.332  1.00  0.00    -0.056 A 
HETATM    6  C   UNL     1      12.704   7.269  12.550  1.00  0.00     0.007 A 
HETATM    7  C   UNL     1      12.104   8.412  13.076  1.00  0.00     0.003 A 
HETATM    8  C   UNL     1      11.606   8.402  14.379  1.00  0.00     0.036 A 
BRANCH   5   9
HETATM    9  C   UNL     1      13.451   4.893  12.763  1.00  0.00     0.038 C 
BRANCH   9  10
HETATM   10  C   UNL     1      13.325   4.770  11.240  1.00  0.00     0.005 C 
BRANCH  10  11
HETATM   11  C   UNL     1      14.653   5.008  10.509  1.00  0.00     0.011 C 
BRANCH  11  12
HETATM   12  C   UNL     1      15.803   5.305  11.474  1.00  0.00     0.113 C 
BRANCH  12  13
HETATM   13  C   UNL     1      16.700   6.430  11.008  1.00  0.00     0.172 C 
HETATM   14  O   UNL     1      16.205   7.642  11.372  1.00  0.00    -0.648 OA
HETATM   15  O   UNL     1      17.752   6.295  10.400  1.00  0.00    -0.648 OA
ENDBRANCH  12  13
ENDBRANCH  11  12
ENDBRANCH  10  11
ENDBRANCH   9  10
ENDBRANCH   5   9
ENDBRANCH   1   3
TORSDOF 6
ENDMDL
MODEL 8
REMARK VINA RESULT:      -5.7      3.019      6.316
REMARK  6 active torsions:
REMARK  status: ('A' for Active; 'I' for Inactive)
REMARK    1  A    between atoms: O_1  and  C_11 
REMARK    2  A    between atoms: C_4  and  C_5 
REMARK    3  A    between atoms: C_4  and  C_6 
REMARK    4  A    between atoms: C_5  and  C_7 
REMARK    5  A    between atoms: C_6  and  C_8 
REMARK    6  A    between atoms: C_8  and  C_12 
ROOT
HETATM    1  O   UNL     1      16.263   7.658  10.438  1.00  0.00    -0.361 OA
HETATM    2  H   UNL     1      16.071   8.220   9.714  1.00  0.00     0.217 HD
ENDROOT
BRANCH   1   3
HETATM    3  C   UNL     1      15.273   6.914  11.003  1.00  0.00     0.066 A 
HETATM    4  C   UNL     1      14.757   7.270  12.249  1.00  0.00     0.043 A 
HETATM    5  C   UNL     1      13.749   6.501  12.812  1.00  0.00    -0.056 A 
HETATM    6  C   UNL     1      13.246   5.386  12.160  1.00  0.00     0.007 A 
HETATM    7  C   UNL     1      13.761   5.031  10.914  1.00  0.00     0.003 A 
HETATM    8  C   UNL     1      14.775   5.795  10.335  1.00  0.00     0.036 A 
BRANCH   5   9
HETATM    9  C   UNL     1      13.191   6.884  14.160  1.00  0.00     0.038 C 
BRANCH   9  10
HETATM   10  C   UNL     1      11.826   7.578  14.093  1.00  0.00     0.005 C 
BRANCH  10  11
HETATM   11  C   UNL     1      11.866   8.905  13.323  1.00  0.00     0.011 C 
BRANCH  11  12
HETATM   12  C   UNL     1      12.737   9.955  14.017  1.00  0.00     0.113 C 
BRANCH  12  13
HETATM   13  C   UNL     1      12.401  11.373  13.612  1.00  0.00     0.172 C 
HETATM   14  O   UNL     1      11.218  11.432  12.946  1.00  0.00    -0.648 OA
HETATM   15  O   UNL     1      13.077  12.361  13.859  1.00  0.00    -0.648 OA
ENDBRANCH  12  13
ENDBRANCH  11  12
ENDBRANCH  10  11
ENDBRANCH   9  10
ENDBRANCH   5   9
ENDBRANCH   1   3
TORSDOF 6
ENDMDL
MODEL 9
REMARK VINA RESULT:      -5.7      3.570      5.328
REMARK  6 active torsions:
REMARK  status: ('A' for Active; 'I' for Inactive)
REMARK    1  A    between atoms: O_1  and  C_11 
REMARK    2  A    between atoms: C_4  and  C_5 
REMARK    3  A    between atoms: C_4  and  C_6 
REMARK    4  A    between atoms: C_5  and  C_7 
REMARK    5  A    between atoms: C_6  and  C_8 
REMARK    6  A    between atoms: C_8  and  C_12 
ROOT
HETATM    1  O   UNL     1      20.720   5.980  11.226  1.00  0.00    -0.361 OA
HETATM    2  H   UNL     1      21.444   5.993  11.820  1.00  0.00     0.217 HD
ENDROOT
BRANCH   1   3
HETATM    3  C   UNL     1      19.448   5.918  11.706  1.00  0.00     0.066 A 
HETATM    4  C   UNL     1      18.370   5.863  10.822  1.00  0.00     0.043 A 
HETATM    5  C   UNL     1      17.080   5.801  11.327  1.00  0.00    -0.056 A 
HETATM    6  C   UNL     1      16.842   5.791  12.693  1.00  0.00     0.007 A 
HETATM    7  C   UNL     1      17.919   5.845  13.576  1.00  0.00     0.003 A 
HETATM    8  C   UNL     1      19.223   5.908  13.083  1.00  0.00     0.036 A 
BRANCH   5   9
HETATM    9  C   UNL     1      15.914   5.744  10.372  1.00  0.00     0.038 C 
BRANCH   9  10
HETATM   10  C   UNL     1      14.552   5.961  11.041  1.00  0.00     0.005 C 
BRANCH  10  11
HETATM   11  C   UNL     1      13.813   4.648  11.334  1.00  0.00     0.011 C 
BRANCH  11  12
HETATM   12  C   UNL     1      12.675   4.388  10.344  1.00  0.00     0.113 C 
BRANCH  12  13
HETATM   13  C   UNL     1      13.157   3.937   8.983  1.00  0.00     0.172 C 
HETATM   14  O   UNL     1      12.960   4.898   8.044  1.00  0.00    -0.648 OA
HETATM   15  O   UNL     1      13.680   2.860   8.736  1.00  0.00    -0.648 OA
ENDBRANCH  12  13
ENDBRANCH  11  12
ENDBRANCH  10  11
ENDBRANCH   9  10
ENDBRANCH   5   9
ENDBRANCH   1   3
TORSDOF 6
ENDMDL
