MODEL 1
REMARK VINA RESULT:      -6.5      0.000      0.000
REMARK  6 active torsions:
REMARK  status: ('A' for Active; 'I' for Inactive)
REMARK    1  A    between atoms: O_1  and  C_11 
REMARK    2  A    between atoms: C_4  and  C_5 
REMARK    3  A    between atoms: C_4  and  C_6 
REMARK    4  A    between atoms: C_5  and  C_7 
REMARK    5  A    between atoms: C_6  and  C_8 
REMARK    6  A    between atoms: C_8  and  C_12 
ROOT
HETATM    1  O   UNL     1      10.653   8.382  14.698  1.00  0.00    -0.361 OA
HETATM    2  H   UNL     1      11.113   7.702  15.150  1.00  0.00     0.217 HD
ENDROOT
BRANCH   1   3
HETATM    3  C   UNL     1      10.850   8.564  13.364  1.00  0.00     0.066 A 
HETATM    4  C   UNL     1      11.111   7.469  12.540  1.00  0.00     0.043 A 
HETATM    5  C   UNL     1      11.310   7.672  11.183  1.00  0.00    -0.056 A 
HETATM    6  C   UNL     1      11.255   8.942  10.630  1.00  0.00     0.007 A 
HETATM    7  C   UNL     1      10.994  10.037  11.453  1.00  0.00     0.003 A 
HETATM    8  C   UNL     1      10.791   9.848  12.821  1.00  0.00     0.036 A 
BRANCH   5   9
HETATM    9  C   UNL     1      11.593   6.489  10.292  1.00  0.00     0.038 C 
BRANCH   9  10
HETATM   10  C   UNL     1      12.803   6.681   9.369  1.00  0.00     0.005 C 
BRANCH  10  11
HETATM   11  C   UNL     1      12.405   6.983   7.918  1.00  0.00     0.011 C 
BRANCH  11  12
HETATM   12  C   UNL     1      11.077   6.328   7.530  1.00  0.00     0.113 C 
BRANCH  12  13
HETATM   13  C   UNL     1      10.714   6.528   6.075  1.00  0.00     0.172 C 
HETATM   14  O   UNL     1      10.113   7.730   5.875  1.00  0.00    -0.648 OA
HETATM   15  O   UNL     1      10.940   5.736   5.172  1.00  0.00    -0.648 OA
ENDBRANCH  12  13
ENDBRANCH  11  12
ENDBRANCH  10  11
ENDBRANCH   9  10
ENDBRANCH   5   9
ENDBRANCH   1   3
TORSDOF 6
ENDMDL
MODEL 2
REMARK VINA RESULT:      -6.2      3.301      4.750
REMARK  6 active torsions:
REMARK  status: ('A' for Active; 'I' for Inactive)
REMARK    1  A    between atoms: O_1  and  C_11 
REMARK    2  A    between atoms: C_4  and  C_5 
REMARK    3  A    between atoms: C_4  and  C_6 
REMARK    4  A    between atoms: C_5  and  C_7 
REMARK    5  A    between atoms: C_6  and  C_8 
REMARK    6  A    between atoms: C_8  and  C_12 
ROOT
HETATM    1  O   UNL     1      16.041   7.571   6.573  1.00  0.00    -0.361 OA
HETATM    2  H   UNL     1      16.240   6.892   5.959  1.00  0.00     0.217 HD
ENDROOT
BRANCH   1   3
HETATM    3  C   UNL     1      15.656   7.251   7.838  1.00  0.00     0.066 A 
HETATM    4  C   UNL     1      14.302   7.096   8.138  1.00  0.00     0.043 A 
HETATM    5  C   UNL     1      13.925   6.770   9.432  1.00  0.00    -0.056 A 
HETATM    6  C   UNL     1      14.869   6.597  10.434  1.00  0.00     0.007 A 
HETATM    7  C   UNL     1      16.221   6.752  10.134  1.00  0.00     0.003 A 
HETATM    8  C   UNL     1      16.616   7.079   8.836  1.00  0.00     0.036 A 
BRANCH   5   9
HETATM    9  C   UNL     1      12.462   6.604   9.757  1.00  0.00     0.038 C 
BRANCH   9  10
HETATM   10  C   UNL     1      11.560   7.672   9.128  1.00  0.00     0.005 C 
BRANCH  10  11
HETATM   11  C   UNL     1      10.365   7.077   8.372  1.00  0.00     0.011 C 
BRANCH  11  12
HETATM   12  C   UNL     1      10.774   5.918   7.459  1.00  0.00     0.113 C 
BRANCH  12  13
HETATM   13  C   UNL     1      10.779   6.284   5.992  1.00  0.00     0.172 C 
HETATM   14  O   UNL     1      10.336   7.553   5.796  1.00  0.00    -0.648 OA
HETATM   15  O   UNL     1      11.151   5.560   5.080  1.00  0.00    -0.648 OA
ENDBRANCH  12  13
ENDBRANCH  11  12
ENDBRANCH  10  11
ENDBRANCH   9  10
ENDBRANCH   5   9
ENDBRANCH   1   3
TORSDOF 6
ENDMDL
MODEL 3
REMARK VINA RESULT:      -6.1      2.647      6.404
REMARK  6 active torsions:
REMARK  status: ('A' for Active; 'I' for Inactive)
REMARK    1  A    between atoms: O_1  and  C_11 
REMARK    2  A    between atoms: C_4  and  C_5 
REMARK    3  A    between atoms: C_4  and  C_6 
REMARK    4  A    between atoms: C_5  and  C_7 
REMARK    5  A    between atoms: C_6  and  C_8 
REMARK    6  A    between atoms: C_8  and  C_12 
ROOT
HETATM    1  O   UNL     1      10.444   5.552   6.716  1.00  0.00    -0.361 OA
HETATM    2  H   UNL     1       9.558   5.725   6.465  1.00  0.00     0.217 HD
ENDROOT
BRANCH   1   3
HETATM    3  C   UNL     1      11.114   6.436   7.503  1.00  0.00     0.066 A 
HETATM    4  C   UNL     1      10.480   7.009   8.605  1.00  0.00     0.043 A 
HETATM    5  C   UNL     1      11.177   7.910   9.398  1.00  0.00    -0.056 A 
HETATM    6  C   UNL     1      12.491   8.250   9.114  1.00  0.00     0.007 A 
HETATM    7  C   UNL     1      13.124   7.677   8.013  1.00  0.00     0.003 A 
HETATM    8  C   UNL     1      12.436   6.769   7.206  1.00  0.00     0.036 A 
BRANCH   5   9
HETATM    9  C   UNL     1      10.492   8.531  10.589  1.00  0.00     0.038 C 
BRANCH   9  10
HETATM   10  C   UNL     1      11.457   9.132  11.618  1.00  0.00     0.005 C 
BRANCH  10  11
HETATM   11  C   UNL     1      11.013  10.513  12.118  1.00  0.00     0.011 C 
BRANCH  11  12
HETATM   12  C   UNL     1      12.199  11.414  12.469  1.00  0.00     0.113 C 
BRANCH  12  13
HETATM   13  C   UNL     1      11.907  12.887  12.285  1.00  0.00     0.172 C 
HETATM   14  O   UNL     1      12.944  13.655  12.709  1.00  0.00    -0.648 OA
HETATM   15  O   UNL     1      10.886  13.353  11.799  1.00  0.00    -0.648 OA
ENDBRANCH  12  13
ENDBRANCH  11  12
ENDBRANCH  10  11
ENDBRANCH   9  10
ENDBRANCH   5   9
ENDBRANCH   1   3
TORSDOF 6
ENDMDL
MODEL 4
REMARK VINA RESULT:      -6.0      2.476      5.930
REMARK  6 active torsions:
REMARK  status: ('A' for Active; 'I' for Inactive)
REMARK    1  A    between atoms: O_1  and  C_11 
REMARK    2  A    between atoms: C_4  and  C_5 
REMARK    3  A    between atoms: C_4  and  C_6 
REMARK    4  A    between atoms: C_5  and  C_7 
REMARK    5  A    between atoms: C_6  and  C_8 
REMARK    6  A    between atoms: C_8  and  C_12 
ROOT
HETATM    1  O   UNL     1      15.899   7.384   6.536  1.00  0.00    -0.361 OA
HETATM    2  H   UNL     1      16.368   8.186   6.412  1.00  0.00     0.217 HD
ENDROOT
BRANCH   1   3
HETATM    3  C   UNL     1      15.195   7.179   7.682  1.00  0.00     0.066 A 
HETATM    4  C   UNL     1      13.804   7.082   7.639  1.00  0.00     0.043 A 
HETATM    5  C   UNL     1      13.100   6.873   8.815  1.00  0.00    -0.056 A 
HETATM    6  C   UNL     1      13.753   6.757  10.033  1.00  0.00     0.007 A 
HETATM    7  C   UNL     1      15.143   6.853  10.076  1.00  0.00     0.003 A 
HETATM    8  C   UNL     1      15.865   7.063   8.900  1.00  0.00     0.036 A 
BRANCH   5   9
HETATM    9  C   UNL     1      11.596   6.771   8.770  1.00  0.00     0.038 C 
BRANCH   9  10
HETATM   10  C   UNL     1      10.914   7.033  10.117  1.00  0.00     0.005 C 
BRANCH  10  11
HETATM   11  C   UNL     1      10.260   8.419  10.197  1.00  0.00     0.011 C 
BRANCH  11  12
HETATM   12  C   UNL     1      11.103   9.415  10.996  1.00  0.00     0.113 C 
BRANCH  12  13
HETATM   13  C   UNL     1      11.435   8.934  12.391  1.00  0.00     0.172 C 
HETATM   14  O   UNL     1      12.778   8.856  12.582  1.00  0.00    -0.648 OA
HETATM   15  O   UNL     1      10.621   8.664  13.263  1.00  0.00    -0.648 OA
ENDBRANCH  12  13
ENDBRANCH  11  12
ENDBRANCH  10  11
ENDBRANCH   9  10
ENDBRANCH   5   9
ENDBRANCH   1   3
TORSDOF 6
ENDMDL
MODEL 5
REMARK VINA RESULT:      -6.0      2.645      3.304
REMARK  6 active torsions:
REMARK  status: ('A' for Active; 'I' for Inactive)
REMARK    1  A    between atoms: O_1  and  C_11 
REMARK    2  A    between atoms: C_4  and  C_5 
REMARK    3  A    between atoms: C_4  and  C_6 
REMARK    4  A    between atoms: C_5  and  C_7 
REMARK    5  A    between atoms: C_6  and  C_8 
REMARK    6  A    between atoms: C_8  and  C_12 
ROOT
HETATM    1  O   UNL     1       9.125   4.814  10.326  1.00  0.00    -0.361 OA
HETATM    2  H   UNL     1       8.727   3.982  10.490  1.00  0.00     0.217 HD
ENDROOT
BRANCH   1   3
HETATM    3  C   UNL     1      10.307   5.131  10.920  1.00  0.00     0.066 A 
HETATM    4  C   UNL     1      11.137   6.098  10.351  1.00  0.00     0.043 A 
HETATM    5  C   UNL     1      12.339   6.410  10.968  1.00  0.00    -0.056 A 
HETATM    6  C   UNL     1      12.731   5.780  12.140  1.00  0.00     0.007 A 
HETATM    7  C   UNL     1      11.901   4.815  12.708  1.00  0.00     0.003 A 
HETATM    8  C   UNL     1      10.688   4.490  12.099  1.00  0.00     0.036 A 
BRANCH   5   9
HETATM    9  C   UNL     1      13.238   7.453  10.353  1.00  0.00     0.038 C 
BRANCH   9  10
HETATM   10  C   UNL     1      13.761   7.080   8.961  1.00  0.00     0.005 C 
BRANCH  10  11
HETATM   11  C   UNL     1      12.895   7.642   7.826  1.00  0.00     0.011 C 
BRANCH  11  12
HETATM   12  C   UNL     1      12.448   6.557   6.843  1.00  0.00     0.113 C 
BRANCH  12  13
HETATM   13  C   UNL     1      10.974   6.624   6.507  1.00  0.00     0.172 C 
HETATM   14  O   UNL     1      10.741   6.248   5.223  1.00  0.00    -0.648 OA
HETATM   15  O   UNL     1      10.084   6.949   7.280  1.00  0.00    -0.648 OA
ENDBRANCH  12  13
ENDBRANCH  11  12
ENDBRANCH  10  11
ENDBRANCH   9  10
ENDBRANCH   5   9
ENDBRANCH   1   3
TORSDOF 6
ENDMDL
MODEL 6
REMARK VINA RESULT:      -6.0      2.223      5.077
REMARK  6 active torsions:
REMARK  status: ('A' for Active; 'I' for Inactive)
REMARK    1  A    between atoms: O_1  and  C_11 
REMARK    2  A    between atoms: C_4  and  C_5 
REMARK    3  A    between atoms: C_4  and  C_6 
REMARK    4  A    between atoms: C_5  and  C_7 
REMARK    5  A    between atoms: C_6  and  C_8 
REMARK    6  A    between atoms: C_8  and  C_12 
ROOT
HETATM    1  O   UNL     1       9.231   5.423   9.937  1.00  0.00    -0.361 OA
HETATM    2  H   UNL     1       8.913   4.580   9.683  1.00  0.00     0.217 HD
ENDROOT
BRANCH   1   3
HETATM    3  C   UNL     1      10.357   5.928   9.363  1.00  0.00     0.066 A 
HETATM    4  C   UNL     1      11.485   6.183  10.143  1.00  0.00     0.043 A 
HETATM    5  C   UNL     1      12.624   6.697   9.543  1.00  0.00    -0.056 A 
HETATM    6  C   UNL     1      12.663   6.963   8.182  1.00  0.00     0.007 A 
HETATM    7  C   UNL     1      11.536   6.707   7.403  1.00  0.00     0.003 A 
HETATM    8  C   UNL     1      10.382   6.189   7.993  1.00  0.00     0.036 A 
BRANCH   5   9
HETATM    9  C   UNL     1      13.843   6.975  10.386  1.00  0.00     0.038 C 
BRANCH   9  10
HETATM   10  C   UNL     1      13.974   8.437  10.828  1.00  0.00     0.005 C 
BRANCH  10  11
HETATM   11  C   UNL     1      13.311   8.713  12.184  1.00  0.00     0.011 C 
BRANCH  11  12
HETATM   12  C   UNL     1      12.332   9.888  12.125  1.00  0.00     0.113 C 
BRANCH  12  13
HETATM   13  C   UNL     1      10.884   9.458  12.061  1.00  0.00     0.172 C 
HETATM   14  O   UNL     1      10.454   9.353  10.777  1.00  0.00    -0.648 OA
HETATM   15  O   UNL     1      10.174   9.208  13.025  1.00  0.00    -0.648 OA
ENDBRANCH  12  13
ENDBRANCH  11  12
ENDBRANCH  10  11
ENDBRANCH   9  10
ENDBRANCH   5   9
ENDBRANCH   1   3
TORSDOF 6
ENDMDL
MODEL 7
REMARK VINA RESULT:      -6.0      3.098      6.618
REMARK  6 active torsions:
REMARK  status: ('A' for Active; 'I' for Inactive)
REMARK    1  A    between atoms: O_1  and  C_11 
REMARK    2  A    between atoms: C_4  and  C_5 
REMARK    3  A    between atoms: C_4  and  C_6 
REMARK    4  A    between atoms: C_5  and  C_7 
REMARK    5  A    between atoms: C_6  and  C_8 
REMARK    6  A    between atoms: C_8  and  C_12 
ROOT
HETATM    1  O   UNL     1      15.744   7.541   7.007  1.00  0.00    -0.361 OA
HETATM    2  H   UNL     1      15.751   7.757   6.096  1.00  0.00     0.217 HD
ENDROOT
BRANCH   1   3
HETATM    3  C   UNL     1      14.575   7.561   7.702  1.00  0.00     0.066 A 
HETATM    4  C   UNL     1      14.505   8.214   8.933  1.00  0.00     0.043 A 
HETATM    5  C   UNL     1      13.306   8.225   9.630  1.00  0.00    -0.056 A 
HETATM    6  C   UNL     1      12.176   7.599   9.126  1.00  0.00     0.007 A 
HETATM    7  C   UNL     1      12.246   6.946   7.896  1.00  0.00     0.003 A 
HETATM    8  C   UNL     1      13.445   6.927   7.183  1.00  0.00     0.036 A 
BRANCH   5   9
HETATM    9  C   UNL     1      13.230   8.930  10.961  1.00  0.00     0.038 C 
BRANCH   9  10
HETATM   10  C   UNL     1      11.805   9.072  11.509  1.00  0.00     0.005 C 
BRANCH  10  11
HETATM   11  C   UNL     1      11.318  10.527  11.539  1.00  0.00     0.011 C 
BRANCH  11  12
HETATM   12  C   UNL     1      12.146  11.398  12.487  1.00  0.00     0.113 C 
BRANCH  12  13
HETATM   13  C   UNL     1      11.867  12.877  12.337  1.00  0.00     0.172 C 
HETATM   14  O   UNL     1      12.916  13.625  12.766  1.00  0.00    -0.648 OA
HETATM   15  O   UNL     1      10.846  13.364  11.872  1.00  0.00    -0.648 OA
ENDBRANCH  12  13
ENDBRANCH  11  12
ENDBRANCH  10  11
ENDBRANCH   9  10
ENDBRANCH   5   9
ENDBRANCH   1   3
TORSDOF 6
ENDMDL
MODEL 8
REMARK VINA RESULT:      -5.8      2.271      5.261
REMARK  6 active torsions:
REMARK  status: ('A' for Active; 'I' for Inactive)
REMARK    1  A    between atoms: O_1  and  C_11 
REMARK    2  A    between atoms: C_4  and  C_5 
REMARK    3  A    between atoms: C_4  and  C_6 
REMARK    4  A    between atoms: C_5  and  C_7 
REMARK    5  A    between atoms: C_6  and  C_8 
REMARK    6  A    between atoms: C_8  and  C_12 
ROOT
HETATM    1  O   UNL     1       9.376   6.139   9.499  1.00  0.00    -0.361 OA
HETATM    2  H   UNL     1       8.639   6.172   8.921  1.00  0.00     0.217 HD
ENDROOT
BRANCH   1   3
HETATM    3  C   UNL     1      10.623   6.405   9.025  1.00  0.00     0.066 A 
HETATM    4  C   UNL     1      11.696   6.518   9.910  1.00  0.00     0.043 A 
HETATM    5  C   UNL     1      12.962   6.790   9.412  1.00  0.00    -0.056 A 
HETATM    6  C   UNL     1      13.180   6.952   8.052  1.00  0.00     0.007 A 
HETATM    7  C   UNL     1      12.108   6.839   7.169  1.00  0.00     0.003 A 
HETATM    8  C   UNL     1      10.829   6.565   7.655  1.00  0.00     0.036 A 
BRANCH   5   9
HETATM    9  C   UNL     1      14.122   6.914  10.368  1.00  0.00     0.038 C 
BRANCH   9  10
HETATM   10  C   UNL     1      14.247   8.297  11.018  1.00  0.00     0.005 C 
BRANCH  10  11
HETATM   11  C   UNL     1      13.803   8.308  12.487  1.00  0.00     0.011 C 
BRANCH  11  12
HETATM   12  C   UNL     1      12.307   8.591  12.641  1.00  0.00     0.113 C 
BRANCH  12  13
HETATM   13  C   UNL     1      11.885   9.920  12.053  1.00  0.00     0.172 C 
HETATM   14  O   UNL     1      10.959   9.757  11.073  1.00  0.00    -0.648 OA
HETATM   15  O   UNL     1      12.293  11.016  12.410  1.00  0.00    -0.648 OA
ENDBRANCH  12  13
ENDBRANCH  11  12
ENDBRANCH  10  11
ENDBRANCH   9  10
ENDBRANCH   5   9
ENDBRANCH   1   3
TORSDOF 6
ENDMDL
MODEL 9
REMARK VINA RESULT:      -5.8      2.119      5.438
REMARK  6 active torsions:
REMARK  status: ('A' for Active; 'I' for Inactive)
REMARK    1  A    between atoms: O_1  and  C_11 
REMARK    2  A    between atoms: C_4  and  C_5 
REMARK    3  A    between atoms: C_4  and  C_6 
REMARK    4  A    between atoms: C_5  and  C_7 
REMARK    5  A    between atoms: C_6  and  C_8 
REMARK    6  A    between atoms: C_8  and  C_12 
ROOT
HETATM    1  O   UNL     1      13.980   7.354   6.970  1.00  0.00    -0.361 OA
HETATM    2  H   UNL     1      14.426   8.152   7.174  1.00  0.00     0.217 HD
ENDROOT
BRANCH   1   3
HETATM    3  C   UNL     1      12.889   6.981   7.693  1.00  0.00     0.066 A 
HETATM    4  C   UNL     1      12.987   6.829   9.077  1.00  0.00     0.043 A 
HETATM    5  C   UNL     1      11.866   6.448   9.799  1.00  0.00    -0.056 A 
HETATM    6  C   UNL     1      10.651   6.215   9.172  1.00  0.00     0.007 A 
HETATM    7  C   UNL     1      10.553   6.368   7.790  1.00  0.00     0.003 A 
HETATM    8  C   UNL     1      11.672   6.751   7.050  1.00  0.00     0.036 A 
BRANCH   5   9
HETATM    9  C   UNL     1      11.971   6.281  11.294  1.00  0.00     0.038 C 
BRANCH   9  10
HETATM   10  C   UNL     1      13.168   7.009  11.918  1.00  0.00     0.005 C 
BRANCH  10  11
HETATM   11  C   UNL     1      12.768   8.292  12.658  1.00  0.00     0.011 C 
BRANCH  11  12
HETATM   12  C   UNL     1      12.655   9.495  11.718  1.00  0.00     0.113 C 
BRANCH  12  13
HETATM   13  C   UNL     1      11.234   9.981  11.536  1.00  0.00     0.172 C 
HETATM   14  O   UNL     1      11.041  11.183  12.138  1.00  0.00    -0.648 OA
HETATM   15  O   UNL     1      10.358   9.398  10.913  1.00  0.00    -0.648 OA
ENDBRANCH  12  13
ENDBRANCH  11  12
ENDBRANCH  10  11
ENDBRANCH   9  10
ENDBRANCH   5   9
ENDBRANCH   1   3
TORSDOF 6
ENDMDL
