MODEL 1
REMARK VINA RESULT:      -6.4      0.000      0.000
REMARK  6 active torsions:
REMARK  status: ('A' for Active; 'I' for Inactive)
REMARK    1  A    between atoms: O_1  and  C_11 
REMARK    2  A    between atoms: C_4  and  C_5 
REMARK    3  A    between atoms: C_4  and  C_6 
REMARK    4  A    between atoms: C_5  and  C_7 
REMARK    5  A    between atoms: C_6  and  C_8 
REMARK    6  A    between atoms: C_8  and  C_12 
ROOT
HETATM    1  O   UNL     1      10.431   8.364  14.470  1.00  0.00    -0.361 OA
HETATM    2  H   UNL     1      11.021   8.520  15.181  1.00  0.00     0.217 HD
ENDROOT
BRANCH   1   3
HETATM    3  C   UNL     1      10.835   8.587  13.190  1.00  0.00     0.066 A 
HETATM    4  C   UNL     1      11.020   7.512  12.319  1.00  0.00     0.043 A 
HETATM    5  C   UNL     1      11.432   7.756  11.018  1.00  0.00    -0.056 A 
HETATM    6  C   UNL     1      11.664   9.047  10.566  1.00  0.00     0.007 A 
HETATM    7  C   UNL     1      11.479  10.120  11.436  1.00  0.00     0.003 A 
HETATM    8  C   UNL     1      11.064   9.890  12.749  1.00  0.00     0.036 A 
BRANCH   5   9
HETATM    9  C   UNL     1      11.634   6.596  10.076  1.00  0.00     0.038 C 
BRANCH   9  10
HETATM   10  C   UNL     1      12.899   6.705   9.216  1.00  0.00     0.005 C 
BRANCH  10  11
HETATM   11  C   UNL     1      12.598   7.045   7.751  1.00  0.00     0.011 C 
BRANCH  11  12
HETATM   12  C   UNL     1      11.115   6.881   7.408  1.00  0.00     0.113 C 
BRANCH  12  13
HETATM   13  C   UNL     1      10.860   5.853   6.329  1.00  0.00     0.172 C 
HETATM   14  O   UNL     1      10.067   4.847   6.780  1.00  0.00    -0.648 OA
HETATM   15  O   UNL     1      11.283   5.906   5.183  1.00  0.00    -0.648 OA
ENDBRANCH  12  13
ENDBRANCH  11  12
ENDBRANCH  10  11
ENDBRANCH   9  10
ENDBRANCH   5   9
ENDBRANCH   1   3
TORSDOF 6
ENDMDL
MODEL 2
REMARK VINA RESULT:      -6.2      3.451      4.817
REMARK  6 active torsions:
REMARK  status: ('A' for Active; 'I' for Inactive)
REMARK    1  A    between atoms: O_1  and  C_11 
REMARK    2  A    between atoms: C_4  and  C_5 
REMARK    3  A    between atoms: C_4  and  C_6 
REMARK    4  A    between atoms: C_5  and  C_7 
REMARK    5  A    between atoms: C_6  and  C_8 
REMARK    6  A    between atoms: C_8  and  C_12 
ROOT
HETATM    1  O   UNL     1      16.152   7.594   6.477  1.00  0.00    -0.361 OA
HETATM    2  H   UNL     1      16.718   8.326   6.328  1.00  0.00     0.217 HD
ENDROOT
BRANCH   1   3
HETATM    3  C   UNL     1      15.775   7.274   7.744  1.00  0.00     0.066 A 
HETATM    4  C   UNL     1      14.422   7.128   8.055  1.00  0.00     0.043 A 
HETATM    5  C   UNL     1      14.054   6.801   9.351  1.00  0.00    -0.056 A 
HETATM    6  C   UNL     1      15.004   6.618  10.344  1.00  0.00     0.007 A 
HETATM    7  C   UNL     1      16.356   6.763  10.034  1.00  0.00     0.003 A 
HETATM    8  C   UNL     1      16.742   7.091   8.734  1.00  0.00     0.036 A 
BRANCH   5   9
HETATM    9  C   UNL     1      12.593   6.645   9.688  1.00  0.00     0.038 C 
BRANCH   9  10
HETATM   10  C   UNL     1      11.647   7.300   8.673  1.00  0.00     0.005 C 
BRANCH  10  11
HETATM   11  C   UNL     1      10.336   6.523   8.490  1.00  0.00     0.011 C 
BRANCH  11  12
HETATM   12  C   UNL     1      10.352   5.643   7.238  1.00  0.00     0.113 C 
BRANCH  12  13
HETATM   13  C   UNL     1      10.667   6.408   5.972  1.00  0.00     0.172 C 
HETATM   14  O   UNL     1      11.452   5.681   5.136  1.00  0.00    -0.648 OA
HETATM   15  O   UNL     1      10.261   7.529   5.700  1.00  0.00    -0.648 OA
ENDBRANCH  12  13
ENDBRANCH  11  12
ENDBRANCH  10  11
ENDBRANCH   9  10
ENDBRANCH   5   9
ENDBRANCH   1   3
TORSDOF 6
ENDMDL
MODEL 3
REMARK VINA RESULT:      -5.9      2.068      5.057
REMARK  6 active torsions:
REMARK  status: ('A' for Active; 'I' for Inactive)
REMARK    1  A    between atoms: O_1  and  C_11 
REMARK    2  A    between atoms: C_4  and  C_5 
REMARK    3  A    between atoms: C_4  and  C_6 
REMARK    4  A    between atoms: C_5  and  C_7 
REMARK    5  A    between atoms: C_6  and  C_8 
REMARK    6  A    between atoms: C_8  and  C_12 
ROOT
HETATM    1  O   UNL     1       9.203   5.391   9.972  1.00  0.00    -0.361 OA
HETATM    2  H   UNL     1       8.717   5.883  10.603  1.00  0.00     0.217 HD
ENDROOT
BRANCH   1   3
HETATM    3  C   UNL     1      10.345   5.906   9.440  1.00  0.00     0.066 A 
HETATM    4  C   UNL     1      11.454   6.134  10.256  1.00  0.00     0.043 A 
HETATM    5  C   UNL     1      12.610   6.661   9.699  1.00  0.00    -0.056 A 
HETATM    6  C   UNL     1      12.684   6.963   8.348  1.00  0.00     0.007 A 
HETATM    7  C   UNL     1      11.577   6.734   7.533  1.00  0.00     0.003 A 
HETATM    8  C   UNL     1      10.406   6.205   8.079  1.00  0.00     0.036 A 
BRANCH   5   9
HETATM    9  C   UNL     1      13.808   6.909  10.580  1.00  0.00     0.038 C 
BRANCH   9  10
HETATM   10  C   UNL     1      14.010   8.383  10.953  1.00  0.00     0.005 C 
BRANCH  10  11
HETATM   11  C   UNL     1      13.283   8.778  12.246  1.00  0.00     0.011 C 
BRANCH  11  12
HETATM   12  C   UNL     1      12.295   9.926  12.030  1.00  0.00     0.113 C 
BRANCH  12  13
HETATM   13  C   UNL     1      10.851   9.476  12.006  1.00  0.00     0.172 C 
HETATM   14  O   UNL     1      10.391   9.351  10.734  1.00  0.00    -0.648 OA
HETATM   15  O   UNL     1      10.168   9.227  12.990  1.00  0.00    -0.648 OA
ENDBRANCH  12  13
ENDBRANCH  11  12
ENDBRANCH  10  11
ENDBRANCH   9  10
ENDBRANCH   5   9
ENDBRANCH   1   3
TORSDOF 6
ENDMDL
MODEL 4
REMARK VINA RESULT:      -5.9      1.645      2.034
REMARK  6 active torsions:
REMARK  status: ('A' for Active; 'I' for Inactive)
REMARK    1  A    between atoms: O_1  and  C_11 
REMARK    2  A    between atoms: C_4  and  C_5 
REMARK    3  A    between atoms: C_4  and  C_6 
REMARK    4  A    between atoms: C_5  and  C_7 
REMARK    5  A    between atoms: C_6  and  C_8 
REMARK    6  A    between atoms: C_8  and  C_12 
ROOT
HETATM    1  O   UNL     1      12.617  11.158  12.966  1.00  0.00    -0.361 OA
HETATM    2  H   UNL     1      13.256  10.939  13.616  1.00  0.00     0.217 HD
ENDROOT
BRANCH   1   3
HETATM    3  C   UNL     1      12.138  10.195  12.132  1.00  0.00     0.066 A 
HETATM    4  C   UNL     1      13.015   9.289  11.535  1.00  0.00     0.043 A 
HETATM    5  C   UNL     1      12.512   8.314  10.687  1.00  0.00    -0.056 A 
HETATM    6  C   UNL     1      11.153   8.224  10.422  1.00  0.00     0.007 A 
HETATM    7  C   UNL     1      10.277   9.129  11.019  1.00  0.00     0.003 A 
HETATM    8  C   UNL     1      10.769  10.115  11.875  1.00  0.00     0.036 A 
BRANCH   5   9
HETATM    9  C   UNL     1      13.459   7.335  10.040  1.00  0.00     0.038 C 
BRANCH   9  10
HETATM   10  C   UNL     1      14.085   7.845   8.737  1.00  0.00     0.005 C 
BRANCH  10  11
HETATM   11  C   UNL     1      13.073   7.946   7.587  1.00  0.00     0.011 C 
BRANCH  11  12
HETATM   12  C   UNL     1      12.430   6.597   7.257  1.00  0.00     0.113 C 
BRANCH  12  13
HETATM   13  C   UNL     1      11.015   6.720   6.736  1.00  0.00     0.172 C 
HETATM   14  O   UNL     1      10.963   6.528   5.393  1.00  0.00    -0.648 OA
HETATM   15  O   UNL     1      10.025   6.941   7.418  1.00  0.00    -0.648 OA
ENDBRANCH  12  13
ENDBRANCH  11  12
ENDBRANCH  10  11
ENDBRANCH   9  10
ENDBRANCH   5   9
ENDBRANCH   1   3
TORSDOF 6
ENDMDL
MODEL 5
REMARK VINA RESULT:      -5.9      2.656      6.558
REMARK  6 active torsions:
REMARK  status: ('A' for Active; 'I' for Inactive)
REMARK    1  A    between atoms: O_1  and  C_11 
REMARK    2  A    between atoms: C_4  and  C_5 
REMARK    3  A    between atoms: C_4  and  C_6 
REMARK    4  A    between atoms: C_5  and  C_7 
REMARK    5  A    between atoms: C_6  and  C_8 
REMARK    6  A    between atoms: C_8  and  C_12 
ROOT
HETATM    1  O   UNL     1      14.250   7.206   6.893  1.00  0.00    -0.361 OA
HETATM    2  H   UNL     1      14.541   6.496   6.354  1.00  0.00     0.217 HD
ENDROOT
BRANCH   1   3
HETATM    3  C   UNL     1      13.032   7.147   7.495  1.00  0.00     0.066 A 
HETATM    4  C   UNL     1      12.880   7.594   8.808  1.00  0.00     0.043 A 
HETATM    5  C   UNL     1      11.632   7.527   9.409  1.00  0.00    -0.056 A 
HETATM    6  C   UNL     1      10.532   7.025   8.729  1.00  0.00     0.007 A 
HETATM    7  C   UNL     1      10.684   6.580   7.417  1.00  0.00     0.003 A 
HETATM    8  C   UNL     1      11.934   6.641   6.799  1.00  0.00     0.036 A 
BRANCH   5   9
HETATM    9  C   UNL     1      11.467   8.008  10.829  1.00  0.00     0.038 C 
BRANCH   9  10
HETATM   10  C   UNL     1      12.296   9.254  11.163  1.00  0.00     0.005 C 
BRANCH  10  11
HETATM   11  C   UNL     1      11.462  10.373  11.801  1.00  0.00     0.011 C 
BRANCH  11  12
HETATM   12  C   UNL     1      12.314  11.325  12.645  1.00  0.00     0.113 C 
BRANCH  12  13
HETATM   13  C   UNL     1      12.050  12.785  12.350  1.00  0.00     0.172 C 
HETATM   14  O   UNL     1      10.874  12.953  11.690  1.00  0.00    -0.648 OA
HETATM   15  O   UNL     1      12.773  13.716  12.672  1.00  0.00    -0.648 OA
ENDBRANCH  12  13
ENDBRANCH  11  12
ENDBRANCH  10  11
ENDBRANCH   9  10
ENDBRANCH   5   9
ENDBRANCH   1   3
TORSDOF 6
ENDMDL
MODEL 6
REMARK VINA RESULT:      -5.9      2.654      6.390
REMARK  6 active torsions:
REMARK  status: ('A' for Active; 'I' for Inactive)
REMARK    1  A    between atoms: O_1  and  C_11 
REMARK    2  A    between atoms: C_4  and  C_5 
REMARK    3  A    between atoms: C_4  and  C_6 
REMARK    4  A    between atoms: C_5  and  C_7 
REMARK    5  A    between atoms: C_6  and  C_8 
REMARK    6  A    between atoms: C_8  and  C_12 
ROOT
HETATM    1  O   UNL     1       9.554   5.570   8.678  1.00  0.00    -0.361 OA
HETATM    2  H   UNL     1       9.692   4.655   8.823  1.00  0.00     0.217 HD
ENDROOT
BRANCH   1   3
HETATM    3  C   UNL     1      10.615   6.422   8.648  1.00  0.00     0.066 A 
HETATM    4  C   UNL     1      10.825   7.312   9.702  1.00  0.00     0.043 A 
HETATM    5  C   UNL     1      11.910   8.174   9.657  1.00  0.00    -0.056 A 
HETATM    6  C   UNL     1      12.790   8.168   8.584  1.00  0.00     0.007 A 
HETATM    7  C   UNL     1      12.579   7.278   7.532  1.00  0.00     0.003 A 
HETATM    8  C   UNL     1      11.492   6.404   7.563  1.00  0.00     0.036 A 
BRANCH   5   9
HETATM    9  C   UNL     1      12.138   9.137  10.794  1.00  0.00     0.038 C 
BRANCH   9  10
HETATM   10  C   UNL     1      10.862   9.830  11.287  1.00  0.00     0.005 C 
BRANCH  10  11
HETATM   11  C   UNL     1      11.079  10.638  12.573  1.00  0.00     0.011 C 
BRANCH  11  12
HETATM   12  C   UNL     1      12.307  11.546  12.490  1.00  0.00     0.113 C 
BRANCH  12  13
HETATM   13  C   UNL     1      11.961  13.005  12.291  1.00  0.00     0.172 C 
HETATM   14  O   UNL     1      12.967  13.816  12.709  1.00  0.00    -0.648 OA
HETATM   15  O   UNL     1      10.925  13.428  11.798  1.00  0.00    -0.648 OA
ENDBRANCH  12  13
ENDBRANCH  11  12
ENDBRANCH  10  11
ENDBRANCH   9  10
ENDBRANCH   5   9
ENDBRANCH   1   3
TORSDOF 6
ENDMDL
MODEL 7
REMARK VINA RESULT:      -5.8      1.637      2.140
REMARK  6 active torsions:
REMARK  status: ('A' for Active; 'I' for Inactive)
REMARK    1  A    between atoms: O_1  and  C_11 
REMARK    2  A    between atoms: C_4  and  C_5 
REMARK    3  A    between atoms: C_4  and  C_6 
REMARK    4  A    between atoms: C_5  and  C_7 
REMARK    5  A    between atoms: C_6  and  C_8 
REMARK    6  A    between atoms: C_8  and  C_12 
ROOT
HETATM    1  O   UNL     1      10.734   8.385  14.767  1.00  0.00    -0.361 OA
HETATM    2  H   UNL     1       9.955   8.647  15.218  1.00  0.00     0.217 HD
ENDROOT
BRANCH   1   3
HETATM    3  C   UNL     1      10.848   8.594  13.428  1.00  0.00     0.066 A 
HETATM    4  C   UNL     1      10.915   7.508  12.555  1.00  0.00     0.043 A 
HETATM    5  C   UNL     1      11.032   7.737  11.192  1.00  0.00    -0.056 A 
HETATM    6  C   UNL     1      11.083   9.025  10.682  1.00  0.00     0.007 A 
HETATM    7  C   UNL     1      11.015  10.111  11.554  1.00  0.00     0.003 A 
HETATM    8  C   UNL     1      10.897   9.896  12.928  1.00  0.00     0.036 A 
BRANCH   5   9
HETATM    9  C   UNL     1      11.107   6.564  10.248  1.00  0.00     0.038 C 
BRANCH   9  10
HETATM   10  C   UNL     1      10.486   6.832   8.872  1.00  0.00     0.005 C 
BRANCH  10  11
HETATM   11  C   UNL     1      11.486   6.657   7.721  1.00  0.00     0.011 C 
BRANCH  11  12
HETATM   12  C   UNL     1      12.645   7.653   7.801  1.00  0.00     0.113 C 
BRANCH  12  13
HETATM   13  C   UNL     1      13.963   7.077   7.332  1.00  0.00     0.172 C 
HETATM   14  O   UNL     1      13.822   6.408   6.158  1.00  0.00    -0.648 OA
HETATM   15  O   UNL     1      15.036   7.200   7.905  1.00  0.00    -0.648 OA
ENDBRANCH  12  13
ENDBRANCH  11  12
ENDBRANCH  10  11
ENDBRANCH   9  10
ENDBRANCH   5   9
ENDBRANCH   1   3
TORSDOF 6
ENDMDL
MODEL 8
REMARK VINA RESULT:      -5.7      1.904      5.891
REMARK  6 active torsions:
REMARK  status: ('A' for Active; 'I' for Inactive)
REMARK    1  A    between atoms: O_1  and  C_11 
REMARK    2  A    between atoms: C_4  and  C_5 
REMARK    3  A    between atoms: C_4  and  C_6 
REMARK    4  A    between atoms: C_5  and  C_7 
REMARK    5  A    between atoms: C_6  and  C_8 
REMARK    6  A    between atoms: C_8  and  C_12 
ROOT
HETATM    1  O   UNL     1      11.430   6.128   5.267  1.00  0.00    -0.361 OA
HETATM    2  H   UNL     1      12.004   6.626   4.718  1.00  0.00     0.217 HD
ENDROOT
BRANCH   1   3
HETATM    3  C   UNL     1      11.461   6.298   6.616  1.00  0.00     0.066 A 
HETATM    4  C   UNL     1      12.627   6.750   7.236  1.00  0.00     0.043 A 
HETATM    5  C   UNL     1      12.643   6.917   8.613  1.00  0.00    -0.056 A 
HETATM    6  C   UNL     1      11.523   6.644   9.384  1.00  0.00     0.007 A 
HETATM    7  C   UNL     1      10.359   6.193   8.764  1.00  0.00     0.003 A 
HETATM    8  C   UNL     1      10.327   6.020   7.380  1.00  0.00     0.036 A 
BRANCH   5   9
HETATM    9  C   UNL     1      13.902   7.404   9.284  1.00  0.00     0.038 C 
BRANCH   9  10
HETATM   10  C   UNL     1      13.708   8.669  10.128  1.00  0.00     0.005 C 
BRANCH  10  11
HETATM   11  C   UNL     1      13.762   8.395  11.637  1.00  0.00     0.011 C 
BRANCH  11  12
HETATM   12  C   UNL     1      12.427   8.678  12.328  1.00  0.00     0.113 C 
BRANCH  12  13
HETATM   13  C   UNL     1      11.840  10.025  11.967  1.00  0.00     0.172 C 
HETATM   14  O   UNL     1      10.781   9.895  11.126  1.00  0.00    -0.648 OA
HETATM   15  O   UNL     1      12.234  11.106  12.382  1.00  0.00    -0.648 OA
ENDBRANCH  12  13
ENDBRANCH  11  12
ENDBRANCH  10  11
ENDBRANCH   9  10
ENDBRANCH   5   9
ENDBRANCH   1   3
TORSDOF 6
ENDMDL
MODEL 9
REMARK VINA RESULT:      -5.7      1.327      1.731
REMARK  6 active torsions:
REMARK  status: ('A' for Active; 'I' for Inactive)
REMARK    1  A    between atoms: O_1  and  C_11 
REMARK    2  A    between atoms: C_4  and  C_5 
REMARK    3  A    between atoms: C_4  and  C_6 
REMARK    4  A    between atoms: C_5  and  C_7 
REMARK    5  A    between atoms: C_6  and  C_8 
REMARK    6  A    between atoms: C_8  and  C_12 
ROOT
HETATM    1  O   UNL     1      10.354   5.933  12.433  1.00  0.00    -0.361 OA
HETATM    2  H   UNL     1      10.491   5.711  13.333  1.00  0.00     0.217 HD
ENDROOT
BRANCH   1   3
HETATM    3  C   UNL     1      11.163   6.843  11.827  1.00  0.00     0.066 A 
HETATM    4  C   UNL     1      12.226   6.412  11.032  1.00  0.00     0.043 A 
HETATM    5  C   UNL     1      13.042   7.352  10.421  1.00  0.00    -0.056 A 
HETATM    6  C   UNL     1      12.821   8.712  10.584  1.00  0.00     0.007 A 
HETATM    7  C   UNL     1      11.759   9.142  11.378  1.00  0.00     0.003 A 
HETATM    8  C   UNL     1      10.929   8.208  11.999  1.00  0.00     0.036 A 
BRANCH   5   9
HETATM    9  C   UNL     1      14.192   6.887   9.564  1.00  0.00     0.038 C 
BRANCH   9  10
HETATM   10  C   UNL     1      14.228   7.528   8.171  1.00  0.00     0.005 C 
BRANCH  10  11
HETATM   11  C   UNL     1      13.423   6.739   7.129  1.00  0.00     0.011 C 
BRANCH  11  12
HETATM   12  C   UNL     1      11.965   7.199   7.051  1.00  0.00     0.113 C 
BRANCH  12  13
HETATM   13  C   UNL     1      11.059   6.201   6.363  1.00  0.00     0.172 C 
HETATM   14  O   UNL     1      10.249   5.572   7.253  1.00  0.00    -0.648 OA
HETATM   15  O   UNL     1      11.025   5.985   5.161  1.00  0.00    -0.648 OA
ENDBRANCH  12  13
ENDBRANCH  11  12
ENDBRANCH  10  11
ENDBRANCH   9  10
ENDBRANCH   5   9
ENDBRANCH   1   3
TORSDOF 6
ENDMDL
