MODEL 1
REMARK VINA RESULT:     -19.1      0.000      0.000
REMARK  7 active torsions:
REMARK  status: ('A' for Active; 'I' for Inactive)
REMARK    1  A    between atoms: O_1  and  C_12 
REMARK    2  A    between atoms: O_3  and  C_15 
REMARK    3  A    between atoms: C_5  and  C_6 
REMARK    4  A    between atoms: C_5  and  C_7 
REMARK    5  A    between atoms: C_6  and  C_8 
REMARK    6  A    between atoms: C_7  and  C_9 
REMARK    7  A    between atoms: C_9  and  C_14 
ROOT
HETATM    1  O   UNL     1     -54.145  51.707   8.166  1.00  0.00    -0.358 OA
HETATM    2  H   UNL     1     -53.640  52.495   8.155  1.00  0.00     0.217 HD
ENDROOT
BRANCH   1   3
HETATM    3  C   UNL     1     -53.989  50.810   9.180  1.00  0.00     0.099 A 
HETATM    4  C   UNL     1     -53.886  51.272  10.492  1.00  0.00     0.046 A 
HETATM    5  C   UNL     1     -53.723  50.365  11.540  1.00  0.00    -0.055 A 
HETATM    6  C   UNL     1     -53.663  48.997  11.275  1.00  0.00     0.010 A 
HETATM    7  C   UNL     1     -53.768  48.536   9.962  1.00  0.00     0.040 A 
HETATM    8  C   UNL     1     -53.930  49.443   8.915  1.00  0.00     0.098 A 
BRANCH   5   9
HETATM    9  C   UNL     1     -53.610  50.865  12.959  1.00  0.00     0.038 C 
BRANCH   9  10
HETATM   10  C   UNL     1     -53.918  49.801  14.018  1.00  0.00     0.005 C 
BRANCH  10  11
HETATM   11  C   UNL     1     -52.679  49.378  14.820  1.00  0.00     0.011 C 
BRANCH  11  12
HETATM   12  C   UNL     1     -52.615  47.866  15.039  1.00  0.00     0.113 C 
BRANCH  12  13
HETATM   13  C   UNL     1     -53.063  47.442  16.419  1.00  0.00     0.172 C 
HETATM   14  O   UNL     1     -52.051  46.857  17.112  1.00  0.00    -0.648 OA
HETATM   15  O   UNL     1     -54.181  47.610  16.886  1.00  0.00    -0.648 OA
ENDBRANCH  12  13
ENDBRANCH  11  12
ENDBRANCH  10  11
ENDBRANCH   9  10
ENDBRANCH   5   9
BRANCH   8  16
HETATM   16  O   UNL     1     -54.030  48.980   7.638  1.00  0.00    -0.358 OA
HETATM   17  H   UNL     1     -53.453  48.305   7.338  1.00  0.00     0.217 HD
ENDBRANCH   8  16
ENDBRANCH   1   3
TORSDOF 7
ENDMDL
MODEL 2
REMARK VINA RESULT:     -19.0      2.554      6.901
REMARK  7 active torsions:
REMARK  status: ('A' for Active; 'I' for Inactive)
REMARK    1  A    between atoms: O_1  and  C_12 
REMARK    2  A    between atoms: O_3  and  C_15 
REMARK    3  A    between atoms: C_5  and  C_6 
REMARK    4  A    between atoms: C_5  and  C_7 
REMARK    5  A    between atoms: C_6  and  C_8 
REMARK    6  A    between atoms: C_7  and  C_9 
REMARK    7  A    between atoms: C_9  and  C_14 
ROOT
HETATM    1  O   UNL     1     -53.833  52.244  12.711  1.00  0.00    -0.358 OA
HETATM    2  H   UNL     1     -54.502  52.534  13.300  1.00  0.00     0.217 HD
ENDROOT
BRANCH   1   3
HETATM    3  C   UNL     1     -53.627  50.910  12.518  1.00  0.00     0.099 A 
HETATM    4  C   UNL     1     -53.789  50.370  11.243  1.00  0.00     0.046 A 
HETATM    5  C   UNL     1     -53.583  49.006  11.032  1.00  0.00    -0.055 A 
HETATM    6  C   UNL     1     -53.216  48.183  12.098  1.00  0.00     0.010 A 
HETATM    7  C   UNL     1     -53.052  48.725  13.373  1.00  0.00     0.040 A 
HETATM    8  C   UNL     1     -53.259  50.089  13.583  1.00  0.00     0.098 A 
BRANCH   5   9
HETATM    9  C   UNL     1     -53.760  48.420   9.654  1.00  0.00     0.038 C 
BRANCH   9  10
HETATM   10  C   UNL     1     -53.287  49.340   8.523  1.00  0.00     0.005 C 
BRANCH  10  11
HETATM   11  C   UNL     1     -52.277  48.666   7.585  1.00  0.00     0.011 C 
BRANCH  11  12
HETATM   12  C   UNL     1     -52.817  47.370   6.981  1.00  0.00     0.113 C 
BRANCH  12  13
HETATM   13  C   UNL     1     -52.902  47.403   5.471  1.00  0.00     0.172 C 
HETATM   14  O   UNL     1     -53.751  46.453   5.001  1.00  0.00    -0.648 OA
HETATM   15  O   UNL     1     -52.310  48.188   4.743  1.00  0.00    -0.648 OA
ENDBRANCH  12  13
ENDBRANCH  11  12
ENDBRANCH  10  11
ENDBRANCH   9  10
ENDBRANCH   5   9
BRANCH   8  16
HETATM   16  O   UNL     1     -53.097  50.606  14.833  1.00  0.00    -0.358 OA
HETATM   17  H   UNL     1     -53.659  50.330  15.530  1.00  0.00     0.217 HD
ENDBRANCH   8  16
ENDBRANCH   1   3
TORSDOF 7
ENDMDL
MODEL 3
REMARK VINA RESULT:     -18.9      0.638      1.933
REMARK  7 active torsions:
REMARK  status: ('A' for Active; 'I' for Inactive)
REMARK    1  A    between atoms: O_1  and  C_12 
REMARK    2  A    between atoms: O_3  and  C_15 
REMARK    3  A    between atoms: C_5  and  C_6 
REMARK    4  A    between atoms: C_5  and  C_7 
REMARK    5  A    between atoms: C_6  and  C_8 
REMARK    6  A    between atoms: C_7  and  C_9 
REMARK    7  A    between atoms: C_9  and  C_14 
ROOT
HETATM    1  O   UNL     1     -54.180  49.211   8.034  1.00  0.00    -0.358 OA
HETATM    2  H   UNL     1     -54.256  48.277   8.048  1.00  0.00     0.217 HD
ENDROOT
BRANCH   1   3
HETATM    3  C   UNL     1     -54.021  49.900   9.199  1.00  0.00     0.099 A 
HETATM    4  C   UNL     1     -53.825  49.198  10.388  1.00  0.00     0.046 A 
HETATM    5  C   UNL     1     -53.664  49.891  11.589  1.00  0.00    -0.055 A 
HETATM    6  C   UNL     1     -53.699  51.286  11.599  1.00  0.00     0.010 A 
HETATM    7  C   UNL     1     -53.894  51.987  10.409  1.00  0.00     0.040 A 
HETATM    8  C   UNL     1     -54.056  51.294   9.209  1.00  0.00     0.098 A 
BRANCH   5   9
HETATM    9  C   UNL     1     -53.453  49.132  12.875  1.00  0.00     0.038 C 
BRANCH   9  10
HETATM   10  C   UNL     1     -53.302  50.030  14.108  1.00  0.00     0.005 C 
BRANCH  10  11
HETATM   11  C   UNL     1     -52.524  49.357  15.247  1.00  0.00     0.011 C 
BRANCH  11  12
HETATM   12  C   UNL     1     -52.673  47.835  15.235  1.00  0.00     0.113 C 
BRANCH  12  13
HETATM   13  C   UNL     1     -53.035  47.259  16.586  1.00  0.00     0.172 C 
HETATM   14  O   UNL     1     -54.290  47.621  16.960  1.00  0.00    -0.648 OA
HETATM   15  O   UNL     1     -52.318  46.538  17.266  1.00  0.00    -0.648 OA
ENDBRANCH  12  13
ENDBRANCH  11  12
ENDBRANCH  10  11
ENDBRANCH   9  10
ENDBRANCH   5   9
BRANCH   8  16
HETATM   16  O   UNL     1     -54.247  51.990   8.054  1.00  0.00    -0.358 OA
HETATM   17  H   UNL     1     -54.055  51.589   7.229  1.00  0.00     0.217 HD
ENDBRANCH   8  16
ENDBRANCH   1   3
TORSDOF 7
ENDMDL
MODEL 4
REMARK VINA RESULT:     -18.5      2.398      7.104
REMARK  7 active torsions:
REMARK  status: ('A' for Active; 'I' for Inactive)
REMARK    1  A    between atoms: O_1  and  C_12 
REMARK    2  A    between atoms: O_3  and  C_15 
REMARK    3  A    between atoms: C_5  and  C_6 
REMARK    4  A    between atoms: C_5  and  C_7 
REMARK    5  A    between atoms: C_6  and  C_8 
REMARK    6  A    between atoms: C_7  and  C_9 
REMARK    7  A    between atoms: C_9  and  C_14 
ROOT
HETATM    1  O   UNL     1     -52.769  47.829  13.982  1.00  0.00    -0.358 OA
HETATM    2  H   UNL     1     -53.146  46.987  13.820  1.00  0.00     0.217 HD
ENDROOT
BRANCH   1   3
HETATM    3  C   UNL     1     -53.124  48.895  13.210  1.00  0.00     0.099 A 
HETATM    4  C   UNL     1     -53.368  48.705  11.850  1.00  0.00     0.046 A 
HETATM    5  C   UNL     1     -53.730  49.789  11.049  1.00  0.00    -0.055 A 
HETATM    6  C   UNL     1     -53.847  51.062  11.608  1.00  0.00     0.010 A 
HETATM    7  C   UNL     1     -53.603  51.250  12.969  1.00  0.00     0.040 A 
HETATM    8  C   UNL     1     -53.241  50.167  13.769  1.00  0.00     0.098 A 
BRANCH   5   9
HETATM    9  C   UNL     1     -53.992  49.584   9.578  1.00  0.00     0.038 C 
BRANCH   9  10
HETATM   10  C   UNL     1     -54.295  48.130   9.197  1.00  0.00     0.005 C 
BRANCH  10  11
HETATM   11  C   UNL     1     -54.405  47.919   7.681  1.00  0.00     0.011 C 
BRANCH  11  12
HETATM   12  C   UNL     1     -53.038  47.863   6.999  1.00  0.00     0.113 C 
BRANCH  12  13
HETATM   13  C   UNL     1     -53.107  47.417   5.556  1.00  0.00     0.172 C 
HETATM   14  O   UNL     1     -52.318  48.186   4.761  1.00  0.00    -0.648 OA
HETATM   15  O   UNL     1     -53.764  46.475   5.133  1.00  0.00    -0.648 OA
ENDBRANCH  12  13
ENDBRANCH  11  12
ENDBRANCH  10  11
ENDBRANCH   9  10
ENDBRANCH   5   9
BRANCH   8  16
HETATM   16  O   UNL     1     -53.005  50.364  15.097  1.00  0.00    -0.358 OA
HETATM   17  H   UNL     1     -53.634  50.082  15.731  1.00  0.00     0.217 HD
ENDBRANCH   8  16
ENDBRANCH   1   3
TORSDOF 7
ENDMDL
MODEL 5
REMARK VINA RESULT:     -18.1      2.811      6.016
REMARK  7 active torsions:
REMARK  status: ('A' for Active; 'I' for Inactive)
REMARK    1  A    between atoms: O_1  and  C_12 
REMARK    2  A    between atoms: O_3  and  C_15 
REMARK    3  A    between atoms: C_5  and  C_6 
REMARK    4  A    between atoms: C_5  and  C_7 
REMARK    5  A    between atoms: C_6  and  C_8 
REMARK    6  A    between atoms: C_7  and  C_9 
REMARK    7  A    between atoms: C_9  and  C_14 
ROOT
HETATM    1  O   UNL     1     -52.621  47.893  14.284  1.00  0.00    -0.358 OA
HETATM    2  H   UNL     1     -51.727  47.851  14.561  1.00  0.00     0.217 HD
ENDROOT
BRANCH   1   3
HETATM    3  C   UNL     1     -53.027  48.882  13.438  1.00  0.00     0.099 A 
HETATM    4  C   UNL     1     -53.279  48.579  12.100  1.00  0.00     0.046 A 
HETATM    5  C   UNL     1     -53.693  49.583  11.224  1.00  0.00    -0.055 A 
HETATM    6  C   UNL     1     -53.854  50.890  11.687  1.00  0.00     0.010 A 
HETATM    7  C   UNL     1     -53.603  51.191  13.026  1.00  0.00     0.040 A 
HETATM    8  C   UNL     1     -53.189  50.187  13.901  1.00  0.00     0.098 A 
BRANCH   5   9
HETATM    9  C   UNL     1     -53.964  49.256   9.777  1.00  0.00     0.038 C 
BRANCH   9  10
HETATM   10  C   UNL     1     -55.263  48.476   9.549  1.00  0.00     0.005 C 
BRANCH  10  11
HETATM   11  C   UNL     1     -55.084  47.275   8.610  1.00  0.00     0.011 C 
BRANCH  11  12
HETATM   12  C   UNL     1     -54.513  46.053   9.330  1.00  0.00     0.113 C 
BRANCH  12  13
HETATM   13  C   UNL     1     -55.294  44.785   9.066  1.00  0.00     0.172 C 
HETATM   14  O   UNL     1     -54.905  43.781   9.895  1.00  0.00    -0.648 OA
HETATM   15  O   UNL     1     -56.181  44.656   8.234  1.00  0.00    -0.648 OA
ENDBRANCH  12  13
ENDBRANCH  11  12
ENDBRANCH  10  11
ENDBRANCH   9  10
ENDBRANCH   5   9
BRANCH   8  16
HETATM   16  O   UNL     1     -52.945  50.494  15.206  1.00  0.00    -0.358 OA
HETATM   17  H   UNL     1     -52.254  50.062  15.668  1.00  0.00     0.217 HD
ENDBRANCH   8  16
ENDBRANCH   1   3
TORSDOF 7
ENDMDL
MODEL 6
REMARK VINA RESULT:     -17.9      1.235      2.196
REMARK  7 active torsions:
REMARK  status: ('A' for Active; 'I' for Inactive)
REMARK    1  A    between atoms: O_1  and  C_12 
REMARK    2  A    between atoms: O_3  and  C_15 
REMARK    3  A    between atoms: C_5  and  C_6 
REMARK    4  A    between atoms: C_5  and  C_7 
REMARK    5  A    between atoms: C_6  and  C_8 
REMARK    6  A    between atoms: C_7  and  C_9 
REMARK    7  A    between atoms: C_9  and  C_14 
ROOT
HETATM    1  O   UNL     1     -54.176  49.113   8.440  1.00  0.00    -0.358 OA
HETATM    2  H   UNL     1     -54.383  48.219   8.628  1.00  0.00     0.217 HD
ENDROOT
BRANCH   1   3
HETATM    3  C   UNL     1     -54.028  50.007   9.459  1.00  0.00     0.099 A 
HETATM    4  C   UNL     1     -53.883  49.539  10.765  1.00  0.00     0.046 A 
HETATM    5  C   UNL     1     -53.733  50.443  11.817  1.00  0.00    -0.055 A 
HETATM    6  C   UNL     1     -53.728  51.815  11.562  1.00  0.00     0.010 A 
HETATM    7  C   UNL     1     -53.872  52.282  10.255  1.00  0.00     0.040 A 
HETATM    8  C   UNL     1     -54.022  51.377   9.204  1.00  0.00     0.098 A 
BRANCH   5   9
HETATM    9  C   UNL     1     -53.578  49.938  13.229  1.00  0.00     0.038 C 
BRANCH   9  10
HETATM   10  C   UNL     1     -52.939  48.548  13.325  1.00  0.00     0.005 C 
BRANCH  10  11
HETATM   11  C   UNL     1     -52.882  48.013  14.762  1.00  0.00     0.011 C 
BRANCH  11  12
HETATM   12  C   UNL     1     -51.875  48.771  15.627  1.00  0.00     0.113 C 
BRANCH  12  13
HETATM   13  C   UNL     1     -51.036  47.866  16.501  1.00  0.00     0.172 C 
HETATM   14  O   UNL     1     -49.709  48.119  16.349  1.00  0.00    -0.648 OA
HETATM   15  O   UNL     1     -51.469  47.021  17.272  1.00  0.00    -0.648 OA
ENDBRANCH  12  13
ENDBRANCH  11  12
ENDBRANCH  10  11
ENDBRANCH   9  10
ENDBRANCH   5   9
BRANCH   8  16
HETATM   16  O   UNL     1     -54.162  51.846   7.932  1.00  0.00    -0.358 OA
HETATM   17  H   UNL     1     -53.851  51.337   7.209  1.00  0.00     0.217 HD
ENDBRANCH   8  16
ENDBRANCH   1   3
TORSDOF 7
ENDMDL
MODEL 7
REMARK VINA RESULT:     -17.9      3.551      6.612
REMARK  7 active torsions:
REMARK  status: ('A' for Active; 'I' for Inactive)
REMARK    1  A    between atoms: O_1  and  C_12 
REMARK    2  A    between atoms: O_3  and  C_15 
REMARK    3  A    between atoms: C_5  and  C_6 
REMARK    4  A    between atoms: C_5  and  C_7 
REMARK    5  A    between atoms: C_6  and  C_8 
REMARK    6  A    between atoms: C_7  and  C_9 
REMARK    7  A    between atoms: C_9  and  C_14 
ROOT
HETATM    1  O   UNL     1     -54.072  52.609   9.315  1.00  0.00    -0.358 OA
HETATM    2  H   UNL     1     -54.626  53.337   9.518  1.00  0.00     0.217 HD
ENDROOT
BRANCH   1   3
HETATM    3  C   UNL     1     -53.936  51.587  10.207  1.00  0.00     0.099 A 
HETATM    4  C   UNL     1     -53.930  50.271   9.746  1.00  0.00     0.046 A 
HETATM    5  C   UNL     1     -53.793  49.216  10.649  1.00  0.00    -0.055 A 
HETATM    6  C   UNL     1     -53.662  49.478  12.013  1.00  0.00     0.010 A 
HETATM    7  C   UNL     1     -53.667  50.795  12.473  1.00  0.00     0.040 A 
HETATM    8  C   UNL     1     -53.805  51.849  11.570  1.00  0.00     0.098 A 
BRANCH   5   9
HETATM    9  C   UNL     1     -53.788  47.793  10.150  1.00  0.00     0.038 C 
BRANCH   9  10
HETATM   10  C   UNL     1     -54.829  47.512   9.061  1.00  0.00     0.005 C 
BRANCH  10  11
HETATM   11  C   UNL     1     -54.229  46.848   7.815  1.00  0.00     0.011 C 
BRANCH  11  12
HETATM   12  C   UNL     1     -53.516  47.850   6.907  1.00  0.00     0.113 C 
BRANCH  12  13
HETATM   13  C   UNL     1     -53.273  47.324   5.510  1.00  0.00     0.172 C 
HETATM   14  O   UNL     1     -52.368  48.087   4.842  1.00  0.00    -0.648 OA
HETATM   15  O   UNL     1     -53.794  46.330   5.024  1.00  0.00    -0.648 OA
ENDBRANCH  12  13
ENDBRANCH  11  12
ENDBRANCH  10  11
ENDBRANCH   9  10
ENDBRANCH   5   9
BRANCH   8  16
HETATM   16  O   UNL     1     -53.809  53.131  12.032  1.00  0.00    -0.358 OA
HETATM   17  H   UNL     1     -54.317  53.355  12.787  1.00  0.00     0.217 HD
ENDBRANCH   8  16
ENDBRANCH   1   3
TORSDOF 7
ENDMDL
MODEL 8
REMARK VINA RESULT:     -17.9      3.330      6.009
REMARK  7 active torsions:
REMARK  status: ('A' for Active; 'I' for Inactive)
REMARK    1  A    between atoms: O_1  and  C_12 
REMARK    2  A    between atoms: O_3  and  C_15 
REMARK    3  A    between atoms: C_5  and  C_6 
REMARK    4  A    between atoms: C_5  and  C_7 
REMARK    5  A    between atoms: C_6  and  C_8 
REMARK    6  A    between atoms: C_7  and  C_9 
REMARK    7  A    between atoms: C_9  and  C_14 
ROOT
HETATM    1  O   UNL     1     -53.942  52.001  12.969  1.00  0.00    -0.358 OA
HETATM    2  H   UNL     1     -53.678  52.397  13.777  1.00  0.00     0.217 HD
ENDROOT
BRANCH   1   3
HETATM    3  C   UNL     1     -53.633  50.698  12.717  1.00  0.00     0.099 A 
HETATM    4  C   UNL     1     -53.752  50.205  11.417  1.00  0.00     0.046 A 
HETATM    5  C   UNL     1     -53.440  48.873  11.146  1.00  0.00    -0.055 A 
HETATM    6  C   UNL     1     -53.011  48.033  12.174  1.00  0.00     0.010 A 
HETATM    7  C   UNL     1     -52.891  48.527  13.474  1.00  0.00     0.040 A 
HETATM    8  C   UNL     1     -53.203  49.859  13.744  1.00  0.00     0.098 A 
BRANCH   5   9
HETATM    9  C   UNL     1     -53.570  48.339   9.741  1.00  0.00     0.038 C 
BRANCH   9  10
HETATM   10  C   UNL     1     -54.956  47.773   9.417  1.00  0.00     0.005 C 
BRANCH  10  11
HETATM   11  C   UNL     1     -54.909  46.323   8.915  1.00  0.00     0.011 C 
BRANCH  11  12
HETATM   12  C   UNL     1     -56.291  45.671   8.886  1.00  0.00     0.113 C 
BRANCH  12  13
HETATM   13  C   UNL     1     -56.240  44.161   8.826  1.00  0.00     0.172 C 
HETATM   14  O   UNL     1     -55.347  43.658   9.719  1.00  0.00    -0.648 OA
HETATM   15  O   UNL     1     -56.918  43.455   8.092  1.00  0.00    -0.648 OA
ENDBRANCH  12  13
ENDBRANCH  11  12
ENDBRANCH  10  11
ENDBRANCH   9  10
ENDBRANCH   5   9
BRANCH   8  16
HETATM   16  O   UNL     1     -53.084  50.330  15.017  1.00  0.00    -0.358 OA
HETATM   17  H   UNL     1     -52.280  50.215  15.485  1.00  0.00     0.217 HD
ENDBRANCH   8  16
ENDBRANCH   1   3
TORSDOF 7
ENDMDL
MODEL 9
REMARK VINA RESULT:     -17.7      3.245      4.939
REMARK  7 active torsions:
REMARK  status: ('A' for Active; 'I' for Inactive)
REMARK    1  A    between atoms: O_1  and  C_12 
REMARK    2  A    between atoms: O_3  and  C_15 
REMARK    3  A    between atoms: C_5  and  C_6 
REMARK    4  A    between atoms: C_5  and  C_7 
REMARK    5  A    between atoms: C_6  and  C_8 
REMARK    6  A    between atoms: C_7  and  C_9 
REMARK    7  A    between atoms: C_9  and  C_14 
ROOT
HETATM    1  O   UNL     1     -53.939  46.098   4.878  1.00  0.00    -0.358 OA
HETATM    2  H   UNL     1     -54.859  45.941   4.793  1.00  0.00     0.217 HD
ENDROOT
BRANCH   1   3
HETATM    3  C   UNL     1     -53.473  46.894   5.881  1.00  0.00     0.099 A 
HETATM    4  C   UNL     1     -53.959  46.717   7.177  1.00  0.00     0.046 A 
HETATM    5  C   UNL     1     -53.491  47.527   8.213  1.00  0.00    -0.055 A 
HETATM    6  C   UNL     1     -52.538  48.512   7.952  1.00  0.00     0.010 A 
HETATM    7  C   UNL     1     -52.052  48.687   6.656  1.00  0.00     0.040 A 
HETATM    8  C   UNL     1     -52.521  47.878   5.621  1.00  0.00     0.098 A 
BRANCH   5   9
HETATM    9  C   UNL     1     -54.017  47.337   9.614  1.00  0.00     0.038 C 
BRANCH   9  10
HETATM   10  C   UNL     1     -54.677  48.588  10.203  1.00  0.00     0.005 C 
BRANCH  10  11
HETATM   11  C   UNL     1     -53.891  49.182  11.380  1.00  0.00     0.011 C 
BRANCH  11  12
HETATM   12  C   UNL     1     -53.703  50.694  11.252  1.00  0.00     0.113 C 
BRANCH  12  13
HETATM   13  C   UNL     1     -53.733  51.416  12.580  1.00  0.00     0.172 C 
HETATM   14  O   UNL     1     -53.675  52.763  12.415  1.00  0.00    -0.648 OA
HETATM   15  O   UNL     1     -53.818  50.882  13.678  1.00  0.00    -0.648 OA
ENDBRANCH  12  13
ENDBRANCH  11  12
ENDBRANCH  10  11
ENDBRANCH   9  10
ENDBRANCH   5   9
BRANCH   8  16
HETATM   16  O   UNL     1     -52.039  48.059   4.359  1.00  0.00    -0.358 OA
HETATM   17  H   UNL     1     -52.289  47.471   3.674  1.00  0.00     0.217 HD
ENDBRANCH   8  16
ENDBRANCH   1   3
TORSDOF 7
ENDMDL
