MODEL 1
REMARK VINA RESULT:      -7.5      0.000      0.000
REMARK  7 active torsions:
REMARK  status: ('A' for Active; 'I' for Inactive)
REMARK    1  A    between atoms: O_1  and  C_12 
REMARK    2  A    between atoms: O_3  and  C_15 
REMARK    3  A    between atoms: C_5  and  C_6 
REMARK    4  A    between atoms: C_5  and  C_7 
REMARK    5  A    between atoms: C_6  and  C_8 
REMARK    6  A    between atoms: C_7  and  C_9 
REMARK    7  A    between atoms: C_9  and  C_14 
ROOT
HETATM    1  O   UNL     1     -55.211  43.399   6.498  1.00  0.00    -0.358 OA
HETATM    2  H   UNL     1     -55.957  43.781   6.917  1.00  0.00     0.217 HD
ENDROOT
BRANCH   1   3
HETATM    3  C   UNL     1     -53.967  43.574   7.028  1.00  0.00     0.099 A 
HETATM    4  C   UNL     1     -53.685  44.739   7.740  1.00  0.00     0.046 A 
HETATM    5  C   UNL     1     -52.415  44.932   8.286  1.00  0.00    -0.055 A 
HETATM    6  C   UNL     1     -51.428  43.960   8.118  1.00  0.00     0.010 A 
HETATM    7  C   UNL     1     -51.712  42.794   7.406  1.00  0.00     0.040 A 
HETATM    8  C   UNL     1     -52.982  42.602   6.860  1.00  0.00     0.098 A 
BRANCH   5   9
HETATM    9  C   UNL     1     -52.109  46.192   9.056  1.00  0.00     0.038 C 
BRANCH   9  10
HETATM   10  C   UNL     1     -53.350  47.015   9.420  1.00  0.00     0.005 C 
BRANCH  10  11
HETATM   11  C   UNL     1     -53.192  48.509   9.104  1.00  0.00     0.011 C 
BRANCH  11  12
HETATM   12  C   UNL     1     -54.501  49.281   9.270  1.00  0.00     0.113 C 
BRANCH  12  13
HETATM   13  C   UNL     1     -54.312  50.781   9.294  1.00  0.00     0.172 C 
HETATM   14  O   UNL     1     -53.882  51.207  10.511  1.00  0.00    -0.648 OA
HETATM   15  O   UNL     1     -54.496  51.536   8.350  1.00  0.00    -0.648 OA
ENDBRANCH  12  13
ENDBRANCH  11  12
ENDBRANCH  10  11
ENDBRANCH   9  10
ENDBRANCH   5   9
BRANCH   8  16
HETATM   16  O   UNL     1     -53.247  41.460   6.166  1.00  0.00    -0.358 OA
HETATM   17  H   UNL     1     -52.802  40.665   6.385  1.00  0.00     0.217 HD
ENDBRANCH   8  16
ENDBRANCH   1   3
TORSDOF 7
ENDMDL
MODEL 2
REMARK VINA RESULT:      -7.5      1.789      2.130
REMARK  7 active torsions:
REMARK  status: ('A' for Active; 'I' for Inactive)
REMARK    1  A    between atoms: O_1  and  C_12 
REMARK    2  A    between atoms: O_3  and  C_15 
REMARK    3  A    between atoms: C_5  and  C_6 
REMARK    4  A    between atoms: C_5  and  C_7 
REMARK    5  A    between atoms: C_6  and  C_8 
REMARK    6  A    between atoms: C_7  and  C_9 
REMARK    7  A    between atoms: C_9  and  C_14 
ROOT
HETATM    1  O   UNL     1     -54.313  44.483   5.009  1.00  0.00    -0.358 OA
HETATM    2  H   UNL     1     -54.922  45.170   5.200  1.00  0.00     0.217 HD
ENDROOT
BRANCH   1   3
HETATM    3  C   UNL     1     -53.661  43.849   6.025  1.00  0.00     0.099 A 
HETATM    4  C   UNL     1     -53.895  44.245   7.341  1.00  0.00     0.046 A 
HETATM    5  C   UNL     1     -53.233  43.605   8.390  1.00  0.00    -0.055 A 
HETATM    6  C   UNL     1     -52.336  42.571   8.120  1.00  0.00     0.010 A 
HETATM    7  C   UNL     1     -52.103  42.175   6.802  1.00  0.00     0.040 A 
HETATM    8  C   UNL     1     -52.766  42.815   5.755  1.00  0.00     0.098 A 
BRANCH   5   9
HETATM    9  C   UNL     1     -53.485  44.033   9.814  1.00  0.00     0.038 C 
BRANCH   9  10
HETATM   10  C   UNL     1     -54.006  45.468   9.948  1.00  0.00     0.005 C 
BRANCH  10  11
HETATM   11  C   UNL     1     -52.914  46.467  10.355  1.00  0.00     0.011 C 
BRANCH  11  12
HETATM   12  C   UNL     1     -53.387  47.917  10.263  1.00  0.00     0.113 C 
BRANCH  12  13
HETATM   13  C   UNL     1     -53.632  48.378   8.844  1.00  0.00     0.172 C 
HETATM   14  O   UNL     1     -52.500  48.310   8.096  1.00  0.00    -0.648 OA
HETATM   15  O   UNL     1     -54.707  48.749   8.393  1.00  0.00    -0.648 OA
ENDBRANCH  12  13
ENDBRANCH  11  12
ENDBRANCH  10  11
ENDBRANCH   9  10
ENDBRANCH   5   9
BRANCH   8  16
HETATM   16  O   UNL     1     -52.529  42.421   4.472  1.00  0.00    -0.358 OA
HETATM   17  H   UNL     1     -53.035  41.728   4.095  1.00  0.00     0.217 HD
ENDBRANCH   8  16
ENDBRANCH   1   3
TORSDOF 7
ENDMDL
MODEL 3
REMARK VINA RESULT:      -7.3      2.002      5.898
REMARK  7 active torsions:
REMARK  status: ('A' for Active; 'I' for Inactive)
REMARK    1  A    between atoms: O_1  and  C_12 
REMARK    2  A    between atoms: O_3  and  C_15 
REMARK    3  A    between atoms: C_5  and  C_6 
REMARK    4  A    between atoms: C_5  and  C_7 
REMARK    5  A    between atoms: C_6  and  C_8 
REMARK    6  A    between atoms: C_7  and  C_9 
REMARK    7  A    between atoms: C_9  and  C_14 
ROOT
HETATM    1  O   UNL     1     -52.888  48.644   8.143  1.00  0.00    -0.358 OA
HETATM    2  H   UNL     1     -53.448  49.347   8.411  1.00  0.00     0.217 HD
ENDROOT
BRANCH   1   3
HETATM    3  C   UNL     1     -52.659  47.596   8.983  1.00  0.00     0.099 A 
HETATM    4  C   UNL     1     -52.120  46.415   8.474  1.00  0.00     0.046 A 
HETATM    5  C   UNL     1     -51.883  45.334   9.323  1.00  0.00    -0.055 A 
HETATM    6  C   UNL     1     -52.185  45.435  10.682  1.00  0.00     0.010 A 
HETATM    7  C   UNL     1     -52.723  46.617  11.191  1.00  0.00     0.040 A 
HETATM    8  C   UNL     1     -52.960  47.697  10.340  1.00  0.00     0.098 A 
BRANCH   5   9
HETATM    9  C   UNL     1     -51.301  44.056   8.773  1.00  0.00     0.038 C 
BRANCH   9  10
HETATM   10  C   UNL     1     -51.911  43.622   7.435  1.00  0.00     0.005 C 
BRANCH  10  11
HETATM   11  C   UNL     1     -53.173  42.764   7.602  1.00  0.00     0.011 C 
BRANCH  11  12
HETATM   12  C   UNL     1     -53.980  42.657   6.308  1.00  0.00     0.113 C 
BRANCH  12  13
HETATM   13  C   UNL     1     -54.839  43.872   6.037  1.00  0.00     0.172 C 
HETATM   14  O   UNL     1     -54.393  44.564   4.956  1.00  0.00    -0.648 OA
HETATM   15  O   UNL     1     -55.827  44.202   6.679  1.00  0.00    -0.648 OA
ENDBRANCH  12  13
ENDBRANCH  11  12
ENDBRANCH  10  11
ENDBRANCH   9  10
ENDBRANCH   5   9
BRANCH   8  16
HETATM   16  O   UNL     1     -53.487  48.847  10.849  1.00  0.00    -0.358 OA
HETATM   17  H   UNL     1     -53.092  49.672  10.647  1.00  0.00     0.217 HD
ENDBRANCH   8  16
ENDBRANCH   1   3
TORSDOF 7
ENDMDL
MODEL 4
REMARK VINA RESULT:      -7.2      1.889      5.699
REMARK  7 active torsions:
REMARK  status: ('A' for Active; 'I' for Inactive)
REMARK    1  A    between atoms: O_1  and  C_12 
REMARK    2  A    between atoms: O_3  and  C_15 
REMARK    3  A    between atoms: C_5  and  C_6 
REMARK    4  A    between atoms: C_5  and  C_7 
REMARK    5  A    between atoms: C_6  and  C_8 
REMARK    6  A    between atoms: C_7  and  C_9 
REMARK    7  A    between atoms: C_9  and  C_14 
ROOT
HETATM    1  O   UNL     1     -51.743  48.557   7.239  1.00  0.00    -0.358 OA
HETATM    2  H   UNL     1     -51.218  49.333   7.230  1.00  0.00     0.217 HD
ENDROOT
BRANCH   1   3
HETATM    3  C   UNL     1     -52.130  48.008   8.425  1.00  0.00     0.099 A 
HETATM    4  C   UNL     1     -51.482  46.866   8.895  1.00  0.00     0.046 A 
HETATM    5  C   UNL     1     -51.870  46.293  10.107  1.00  0.00    -0.055 A 
HETATM    6  C   UNL     1     -52.906  46.863  10.848  1.00  0.00     0.010 A 
HETATM    7  C   UNL     1     -53.552  48.007  10.377  1.00  0.00     0.040 A 
HETATM    8  C   UNL     1     -53.164  48.578   9.166  1.00  0.00     0.098 A 
BRANCH   5   9
HETATM    9  C   UNL     1     -51.171  45.057  10.614  1.00  0.00     0.038 C 
BRANCH   9  10
HETATM   10  C   UNL     1     -51.379  43.820   9.733  1.00  0.00     0.005 C 
BRANCH  10  11
HETATM   11  C   UNL     1     -52.859  43.468   9.535  1.00  0.00     0.011 C 
BRANCH  11  12
HETATM   12  C   UNL     1     -53.206  43.212   8.068  1.00  0.00     0.113 C 
BRANCH  12  13
HETATM   13  C   UNL     1     -53.766  44.427   7.364  1.00  0.00     0.172 C 
HETATM   14  O   UNL     1     -53.381  44.468   6.061  1.00  0.00    -0.648 OA
HETATM   15  O   UNL     1     -54.492  45.271   7.871  1.00  0.00    -0.648 OA
ENDBRANCH  12  13
ENDBRANCH  11  12
ENDBRANCH  10  11
ENDBRANCH   9  10
ENDBRANCH   5   9
BRANCH   8  16
HETATM   16  O   UNL     1     -53.803  49.695   8.716  1.00  0.00    -0.358 OA
HETATM   17  H   UNL     1     -53.733  49.944   7.815  1.00  0.00     0.217 HD
ENDBRANCH   8  16
ENDBRANCH   1   3
TORSDOF 7
ENDMDL
MODEL 5
REMARK VINA RESULT:      -7.2      1.924      2.686
REMARK  7 active torsions:
REMARK  status: ('A' for Active; 'I' for Inactive)
REMARK    1  A    between atoms: O_1  and  C_12 
REMARK    2  A    between atoms: O_3  and  C_15 
REMARK    3  A    between atoms: C_5  and  C_6 
REMARK    4  A    between atoms: C_5  and  C_7 
REMARK    5  A    between atoms: C_6  and  C_8 
REMARK    6  A    between atoms: C_7  and  C_9 
REMARK    7  A    between atoms: C_9  and  C_14 
ROOT
HETATM    1  O   UNL     1     -51.096  42.605   4.400  1.00  0.00    -0.358 OA
HETATM    2  H   UNL     1     -50.813  43.142   3.686  1.00  0.00     0.217 HD
ENDROOT
BRANCH   1   3
HETATM    3  C   UNL     1     -52.054  43.060   5.257  1.00  0.00     0.099 A 
HETATM    4  C   UNL     1     -51.672  43.759   6.402  1.00  0.00     0.046 A 
HETATM    5  C   UNL     1     -52.642  44.228   7.288  1.00  0.00    -0.055 A 
HETATM    6  C   UNL     1     -53.994  43.999   7.029  1.00  0.00     0.010 A 
HETATM    7  C   UNL     1     -54.375  43.301   5.882  1.00  0.00     0.040 A 
HETATM    8  C   UNL     1     -53.404  42.831   4.997  1.00  0.00     0.098 A 
BRANCH   5   9
HETATM    9  C   UNL     1     -52.229  44.983   8.527  1.00  0.00     0.038 C 
BRANCH   9  10
HETATM   10  C   UNL     1     -53.402  45.590   9.304  1.00  0.00     0.005 C 
BRANCH  10  11
HETATM   11  C   UNL     1     -52.952  46.541  10.422  1.00  0.00     0.011 C 
BRANCH  11  12
HETATM   12  C   UNL     1     -53.522  47.950  10.253  1.00  0.00     0.113 C 
BRANCH  12  13
HETATM   13  C   UNL     1     -53.499  48.437   8.822  1.00  0.00     0.172 C 
HETATM   14  O   UNL     1     -54.749  48.734   8.378  1.00  0.00    -0.648 OA
HETATM   15  O   UNL     1     -52.497  48.576   8.134  1.00  0.00    -0.648 OA
ENDBRANCH  12  13
ENDBRANCH  11  12
ENDBRANCH  10  11
ENDBRANCH   9  10
ENDBRANCH   5   9
BRANCH   8  16
HETATM   16  O   UNL     1     -53.789  42.150   3.881  1.00  0.00    -0.358 OA
HETATM   17  H   UNL     1     -53.428  42.376   3.047  1.00  0.00     0.217 HD
ENDBRANCH   8  16
ENDBRANCH   1   3
TORSDOF 7
ENDMDL
MODEL 6
REMARK VINA RESULT:      -7.1      1.670      6.167
REMARK  7 active torsions:
REMARK  status: ('A' for Active; 'I' for Inactive)
REMARK    1  A    between atoms: O_1  and  C_12 
REMARK    2  A    between atoms: O_3  and  C_15 
REMARK    3  A    between atoms: C_5  and  C_6 
REMARK    4  A    between atoms: C_5  and  C_7 
REMARK    5  A    between atoms: C_6  and  C_8 
REMARK    6  A    between atoms: C_7  and  C_9 
REMARK    7  A    between atoms: C_9  and  C_14 
ROOT
HETATM    1  O   UNL     1     -53.326  49.244  10.469  1.00  0.00    -0.358 OA
HETATM    2  H   UNL     1     -52.661  49.692   9.984  1.00  0.00     0.217 HD
ENDROOT
BRANCH   1   3
HETATM    3  C   UNL     1     -54.011  48.214   9.895  1.00  0.00     0.099 A 
HETATM    4  C   UNL     1     -53.420  46.953   9.826  1.00  0.00     0.046 A 
HETATM    5  C   UNL     1     -54.109  45.891   9.239  1.00  0.00    -0.055 A 
HETATM    6  C   UNL     1     -55.389  46.091   8.721  1.00  0.00     0.010 A 
HETATM    7  C   UNL     1     -55.980  47.353   8.792  1.00  0.00     0.040 A 
HETATM    8  C   UNL     1     -55.290  48.414   9.379  1.00  0.00     0.098 A 
BRANCH   5   9
HETATM    9  C   UNL     1     -53.470  44.527   9.163  1.00  0.00     0.038 C 
BRANCH   9  10
HETATM   10  C   UNL     1     -52.156  44.501   8.374  1.00  0.00     0.005 C 
BRANCH  10  11
HETATM   11  C   UNL     1     -52.369  44.375   6.859  1.00  0.00     0.011 C 
BRANCH  11  12
HETATM   12  C   UNL     1     -53.406  43.309   6.503  1.00  0.00     0.113 C 
BRANCH  12  13
HETATM   13  C   UNL     1     -54.626  43.870   5.808  1.00  0.00     0.172 C 
HETATM   14  O   UNL     1     -55.774  43.426   6.385  1.00  0.00    -0.648 OA
HETATM   15  O   UNL     1     -54.612  44.642   4.859  1.00  0.00    -0.648 OA
ENDBRANCH  12  13
ENDBRANCH  11  12
ENDBRANCH  10  11
ENDBRANCH   9  10
ENDBRANCH   5   9
BRANCH   8  16
HETATM   16  O   UNL     1     -55.878  49.642   9.441  1.00  0.00    -0.358 OA
HETATM   17  H   UNL     1     -55.382  50.410   9.232  1.00  0.00     0.217 HD
ENDBRANCH   8  16
ENDBRANCH   1   3
TORSDOF 7
ENDMDL
MODEL 7
REMARK VINA RESULT:      -6.9      2.134      2.761
REMARK  7 active torsions:
REMARK  status: ('A' for Active; 'I' for Inactive)
REMARK    1  A    between atoms: O_1  and  C_12 
REMARK    2  A    between atoms: O_3  and  C_15 
REMARK    3  A    between atoms: C_5  and  C_6 
REMARK    4  A    between atoms: C_5  and  C_7 
REMARK    5  A    between atoms: C_6  and  C_8 
REMARK    6  A    between atoms: C_7  and  C_9 
REMARK    7  A    between atoms: C_9  and  C_14 
ROOT
HETATM    1  O   UNL     1     -52.142  43.774   3.884  1.00  0.00    -0.358 OA
HETATM    2  H   UNL     1     -52.290  44.670   3.652  1.00  0.00     0.217 HD
ENDROOT
BRANCH   1   3
HETATM    3  C   UNL     1     -51.707  43.458   5.136  1.00  0.00     0.099 A 
HETATM    4  C   UNL     1     -52.394  43.952   6.245  1.00  0.00     0.046 A 
HETATM    5  C   UNL     1     -51.957  43.637   7.533  1.00  0.00    -0.055 A 
HETATM    6  C   UNL     1     -50.834  42.829   7.710  1.00  0.00     0.010 A 
HETATM    7  C   UNL     1     -50.148  42.335   6.600  1.00  0.00     0.040 A 
HETATM    8  C   UNL     1     -50.585  42.650   5.314  1.00  0.00     0.098 A 
BRANCH   5   9
HETATM    9  C   UNL     1     -52.699  44.172   8.732  1.00  0.00     0.038 C 
BRANCH   9  10
HETATM   10  C   UNL     1     -53.880  45.082   8.377  1.00  0.00     0.005 C 
BRANCH  10  11
HETATM   11  C   UNL     1     -54.387  45.900   9.573  1.00  0.00     0.011 C 
BRANCH  11  12
HETATM   12  C   UNL     1     -54.785  47.322   9.179  1.00  0.00     0.113 C 
BRANCH  12  13
HETATM   13  C   UNL     1     -53.690  48.338   9.416  1.00  0.00     0.172 C 
HETATM   14  O   UNL     1     -53.021  48.623   8.268  1.00  0.00    -0.648 OA
HETATM   15  O   UNL     1     -53.431  48.867  10.488  1.00  0.00    -0.648 OA
ENDBRANCH  12  13
ENDBRANCH  11  12
ENDBRANCH  10  11
ENDBRANCH   9  10
ENDBRANCH   5   9
BRANCH   8  16
HETATM   16  O   UNL     1     -49.906  42.162   4.238  1.00  0.00    -0.358 OA
HETATM   17  H   UNL     1     -50.198  41.377   3.817  1.00  0.00     0.217 HD
ENDBRANCH   8  16
ENDBRANCH   1   3
TORSDOF 7
ENDMDL
MODEL 8
REMARK VINA RESULT:      -6.9      1.702      2.119
REMARK  7 active torsions:
REMARK  status: ('A' for Active; 'I' for Inactive)
REMARK    1  A    between atoms: O_1  and  C_12 
REMARK    2  A    between atoms: O_3  and  C_15 
REMARK    3  A    between atoms: C_5  and  C_6 
REMARK    4  A    between atoms: C_5  and  C_7 
REMARK    5  A    between atoms: C_6  and  C_8 
REMARK    6  A    between atoms: C_7  and  C_9 
REMARK    7  A    between atoms: C_9  and  C_14 
ROOT
HETATM    1  O   UNL     1     -52.261  42.300  10.651  1.00  0.00    -0.358 OA
HETATM    2  H   UNL     1     -51.334  42.335  10.781  1.00  0.00     0.217 HD
ENDROOT
BRANCH   1   3
HETATM    3  C   UNL     1     -52.825  42.942   9.589  1.00  0.00     0.099 A 
HETATM    4  C   UNL     1     -53.431  44.184   9.782  1.00  0.00     0.046 A 
HETATM    5  C   UNL     1     -54.014  44.850   8.704  1.00  0.00    -0.055 A 
HETATM    6  C   UNL     1     -53.991  44.275   7.433  1.00  0.00     0.010 A 
HETATM    7  C   UNL     1     -53.383  43.034   7.241  1.00  0.00     0.040 A 
HETATM    8  C   UNL     1     -52.802  42.368   8.319  1.00  0.00     0.098 A 
BRANCH   5   9
HETATM    9  C   UNL     1     -54.670  46.192   8.913  1.00  0.00     0.038 C 
BRANCH   9  10
HETATM   10  C   UNL     1     -53.925  47.102   9.895  1.00  0.00     0.005 C 
BRANCH  10  11
HETATM   11  C   UNL     1     -53.572  48.470   9.295  1.00  0.00     0.011 C 
BRANCH  11  12
HETATM   12  C   UNL     1     -54.762  49.430   9.293  1.00  0.00     0.113 C 
BRANCH  12  13
HETATM   13  C   UNL     1     -54.355  50.887   9.291  1.00  0.00     0.172 C 
HETATM   14  O   UNL     1     -53.871  51.269  10.501  1.00  0.00    -0.648 OA
HETATM   15  O   UNL     1     -54.423  51.642   8.331  1.00  0.00    -0.648 OA
ENDBRANCH  12  13
ENDBRANCH  11  12
ENDBRANCH  10  11
ENDBRANCH   9  10
ENDBRANCH   5   9
BRANCH   8  16
HETATM   16  O   UNL     1     -52.212  41.155   8.119  1.00  0.00    -0.358 OA
HETATM   17  H   UNL     1     -51.355  40.989   8.459  1.00  0.00     0.217 HD
ENDBRANCH   8  16
ENDBRANCH   1   3
TORSDOF 7
ENDMDL
MODEL 9
REMARK VINA RESULT:      -6.9      2.359      3.300
REMARK  7 active torsions:
REMARK  status: ('A' for Active; 'I' for Inactive)
REMARK    1  A    between atoms: O_1  and  C_12 
REMARK    2  A    between atoms: O_3  and  C_15 
REMARK    3  A    between atoms: C_5  and  C_6 
REMARK    4  A    between atoms: C_5  and  C_7 
REMARK    5  A    between atoms: C_6  and  C_8 
REMARK    6  A    between atoms: C_7  and  C_9 
REMARK    7  A    between atoms: C_9  and  C_14 
ROOT
HETATM    1  O   UNL     1     -48.866  41.956   6.467  1.00  0.00    -0.358 OA
HETATM    2  H   UNL     1     -48.720  41.305   7.126  1.00  0.00     0.217 HD
ENDROOT
BRANCH   1   3
HETATM    3  C   UNL     1     -50.083  42.561   6.364  1.00  0.00     0.099 A 
HETATM    4  C   UNL     1     -50.754  42.949   7.523  1.00  0.00     0.046 A 
HETATM    5  C   UNL     1     -52.002  43.568   7.432  1.00  0.00    -0.055 A 
HETATM    6  C   UNL     1     -52.577  43.796   6.181  1.00  0.00     0.010 A 
HETATM    7  C   UNL     1     -51.904  43.407   5.023  1.00  0.00     0.040 A 
HETATM    8  C   UNL     1     -50.657  42.789   5.115  1.00  0.00     0.098 A 
BRANCH   5   9
HETATM    9  C   UNL     1     -52.729  43.987   8.685  1.00  0.00     0.038 C 
BRANCH   9  10
HETATM   10  C   UNL     1     -53.076  45.479   8.731  1.00  0.00     0.005 C 
BRANCH  10  11
HETATM   11  C   UNL     1     -51.853  46.371   8.985  1.00  0.00     0.011 C 
BRANCH  11  12
HETATM   12  C   UNL     1     -52.083  47.815   8.539  1.00  0.00     0.113 C 
BRANCH  12  13
HETATM   13  C   UNL     1     -53.243  48.482   9.243  1.00  0.00     0.172 C 
HETATM   14  O   UNL     1     -54.270  48.723   8.387  1.00  0.00    -0.648 OA
HETATM   15  O   UNL     1     -53.287  48.762  10.433  1.00  0.00    -0.648 OA
ENDBRANCH  12  13
ENDBRANCH  11  12
ENDBRANCH  10  11
ENDBRANCH   9  10
ENDBRANCH   5   9
BRANCH   8  16
HETATM   16  O   UNL     1     -50.010  42.413   3.976  1.00  0.00    -0.358 OA
HETATM   17  H   UNL     1     -49.938  43.012   3.259  1.00  0.00     0.217 HD
ENDBRANCH   8  16
ENDBRANCH   1   3
TORSDOF 7
ENDMDL
