MODEL 1
REMARK VINA RESULT:      -7.3      0.000      0.000
REMARK  7 active torsions:
REMARK  status: ('A' for Active; 'I' for Inactive)
REMARK    1  A    between atoms: O_1  and  C_12 
REMARK    2  A    between atoms: O_3  and  C_15 
REMARK    3  A    between atoms: C_5  and  C_6 
REMARK    4  A    between atoms: C_5  and  C_7 
REMARK    5  A    between atoms: C_6  and  C_8 
REMARK    6  A    between atoms: C_7  and  C_9 
REMARK    7  A    between atoms: C_9  and  C_14 
ROOT
HETATM    1  O   UNL     1     -54.848  48.538   8.291  1.00  0.00    -0.358 OA
HETATM    2  H   UNL     1     -54.532  48.666   7.418  1.00  0.00     0.217 HD
ENDROOT
BRANCH   1   3
HETATM    3  C   UNL     1     -54.176  47.716   9.146  1.00  0.00     0.099 A 
HETATM    4  C   UNL     1     -54.120  46.349   8.878  1.00  0.00     0.046 A 
HETATM    5  C   UNL     1     -53.437  45.496   9.747  1.00  0.00    -0.055 A 
HETATM    6  C   UNL     1     -52.812  46.011  10.882  1.00  0.00     0.010 A 
HETATM    7  C   UNL     1     -52.868  47.380  11.149  1.00  0.00     0.040 A 
HETATM    8  C   UNL     1     -53.551  48.232  10.280  1.00  0.00     0.098 A 
BRANCH   5   9
HETATM    9  C   UNL     1     -53.377  44.017   9.458  1.00  0.00     0.038 C 
BRANCH   9  10
HETATM   10  C   UNL     1     -52.771  43.674   8.093  1.00  0.00     0.005 C 
BRANCH  10  11
HETATM   11  C   UNL     1     -53.272  42.336   7.534  1.00  0.00     0.011 C 
BRANCH  11  12
HETATM   12  C   UNL     1     -53.916  42.485   6.155  1.00  0.00     0.113 C 
BRANCH  12  13
HETATM   13  C   UNL     1     -54.720  43.757   6.004  1.00  0.00     0.172 C 
HETATM   14  O   UNL     1     -54.187  44.571   5.055  1.00  0.00    -0.648 OA
HETATM   15  O   UNL     1     -55.735  44.035   6.627  1.00  0.00    -0.648 OA
ENDBRANCH  12  13
ENDBRANCH  11  12
ENDBRANCH  10  11
ENDBRANCH   9  10
ENDBRANCH   5   9
BRANCH   8  16
HETATM   16  O   UNL     1     -53.600  49.566  10.552  1.00  0.00    -0.358 OA
HETATM   17  H   UNL     1     -53.224  50.180   9.952  1.00  0.00     0.217 HD
ENDBRANCH   8  16
ENDBRANCH   1   3
TORSDOF 7
ENDMDL
MODEL 2
REMARK VINA RESULT:      -7.3      1.799      6.068
REMARK  7 active torsions:
REMARK  status: ('A' for Active; 'I' for Inactive)
REMARK    1  A    between atoms: O_1  and  C_12 
REMARK    2  A    between atoms: O_3  and  C_15 
REMARK    3  A    between atoms: C_5  and  C_6 
REMARK    4  A    between atoms: C_5  and  C_7 
REMARK    5  A    between atoms: C_6  and  C_8 
REMARK    6  A    between atoms: C_7  and  C_9 
REMARK    7  A    between atoms: C_9  and  C_14 
ROOT
HETATM    1  O   UNL     1     -55.233  43.358   6.401  1.00  0.00    -0.358 OA
HETATM    2  H   UNL     1     -55.952  43.002   6.885  1.00  0.00     0.217 HD
ENDROOT
BRANCH   1   3
HETATM    3  C   UNL     1     -54.028  43.548   7.010  1.00  0.00     0.099 A 
HETATM    4  C   UNL     1     -53.816  44.703   7.763  1.00  0.00     0.046 A 
HETATM    5  C   UNL     1     -52.587  44.910   8.389  1.00  0.00    -0.055 A 
HETATM    6  C   UNL     1     -51.570  43.962   8.263  1.00  0.00     0.010 A 
HETATM    7  C   UNL     1     -51.784  42.807   7.510  1.00  0.00     0.040 A 
HETATM    8  C   UNL     1     -53.013  42.601   6.884  1.00  0.00     0.098 A 
BRANCH   5   9
HETATM    9  C   UNL     1     -52.356  46.159   9.202  1.00  0.00     0.038 C 
BRANCH   9  10
HETATM   10  C   UNL     1     -53.628  46.971   9.468  1.00  0.00     0.005 C 
BRANCH  10  11
HETATM   11  C   UNL     1     -53.355  48.471   9.648  1.00  0.00     0.011 C 
BRANCH  11  12
HETATM   12  C   UNL     1     -54.574  49.330   9.312  1.00  0.00     0.113 C 
BRANCH  12  13
HETATM   13  C   UNL     1     -54.287  50.814   9.342  1.00  0.00     0.172 C 
HETATM   14  O   UNL     1     -53.876  51.216  10.573  1.00  0.00    -0.648 OA
HETATM   15  O   UNL     1     -54.384  51.577   8.390  1.00  0.00    -0.648 OA
ENDBRANCH  12  13
ENDBRANCH  11  12
ENDBRANCH  10  11
ENDBRANCH   9  10
ENDBRANCH   5   9
BRANCH   8  16
HETATM   16  O   UNL     1     -53.210  41.469   6.151  1.00  0.00    -0.358 OA
HETATM   17  H   UNL     1     -53.042  41.473   5.229  1.00  0.00     0.217 HD
ENDBRANCH   8  16
ENDBRANCH   1   3
TORSDOF 7
ENDMDL
MODEL 3
REMARK VINA RESULT:      -7.2      1.336      5.289
REMARK  7 active torsions:
REMARK  status: ('A' for Active; 'I' for Inactive)
REMARK    1  A    between atoms: O_1  and  C_12 
REMARK    2  A    between atoms: O_3  and  C_15 
REMARK    3  A    between atoms: C_5  and  C_6 
REMARK    4  A    between atoms: C_5  and  C_7 
REMARK    5  A    between atoms: C_6  and  C_8 
REMARK    6  A    between atoms: C_7  and  C_9 
REMARK    7  A    between atoms: C_9  and  C_14 
ROOT
HETATM    1  O   UNL     1     -55.977  44.136   6.560  1.00  0.00    -0.358 OA
HETATM    2  H   UNL     1     -56.536  44.216   7.308  1.00  0.00     0.217 HD
ENDROOT
BRANCH   1   3
HETATM    3  C   UNL     1     -54.623  44.171   6.713  1.00  0.00     0.099 A 
HETATM    4  C   UNL     1     -54.082  44.635   7.911  1.00  0.00     0.046 A 
HETATM    5  C   UNL     1     -52.697  44.678   8.080  1.00  0.00    -0.055 A 
HETATM    6  C   UNL     1     -51.855  44.258   7.050  1.00  0.00     0.010 A 
HETATM    7  C   UNL     1     -52.398  43.792   5.852  1.00  0.00     0.040 A 
HETATM    8  C   UNL     1     -53.782  43.750   5.684  1.00  0.00     0.098 A 
BRANCH   5   9
HETATM    9  C   UNL     1     -52.111  45.182   9.376  1.00  0.00     0.038 C 
BRANCH   9  10
HETATM   10  C   UNL     1     -53.142  45.807  10.322  1.00  0.00     0.005 C 
BRANCH  10  11
HETATM   11  C   UNL     1     -52.722  47.191  10.835  1.00  0.00     0.011 C 
BRANCH  11  12
HETATM   12  C   UNL     1     -53.658  48.300  10.353  1.00  0.00     0.113 C 
BRANCH  12  13
HETATM   13  C   UNL     1     -53.605  48.520   8.858  1.00  0.00     0.172 C 
HETATM   14  O   UNL     1     -54.845  48.725   8.342  1.00  0.00    -0.648 OA
HETATM   15  O   UNL     1     -52.588  48.537   8.177  1.00  0.00    -0.648 OA
ENDBRANCH  12  13
ENDBRANCH  11  12
ENDBRANCH  10  11
ENDBRANCH   9  10
ENDBRANCH   5   9
BRANCH   8  16
HETATM   16  O   UNL     1     -54.301  43.294   4.509  1.00  0.00    -0.358 OA
HETATM   17  H   UNL     1     -53.855  42.624   4.029  1.00  0.00     0.217 HD
ENDBRANCH   8  16
ENDBRANCH   1   3
TORSDOF 7
ENDMDL
MODEL 4
REMARK VINA RESULT:      -7.1      1.876      2.474
REMARK  7 active torsions:
REMARK  status: ('A' for Active; 'I' for Inactive)
REMARK    1  A    between atoms: O_1  and  C_12 
REMARK    2  A    between atoms: O_3  and  C_15 
REMARK    3  A    between atoms: C_5  and  C_6 
REMARK    4  A    between atoms: C_5  and  C_7 
REMARK    5  A    between atoms: C_6  and  C_8 
REMARK    6  A    between atoms: C_7  and  C_9 
REMARK    7  A    between atoms: C_9  and  C_14 
ROOT
HETATM    1  O   UNL     1     -51.791  48.436   7.237  1.00  0.00    -0.358 OA
HETATM    2  H   UNL     1     -51.160  47.992   6.705  1.00  0.00     0.217 HD
ENDROOT
BRANCH   1   3
HETATM    3  C   UNL     1     -52.097  47.954   8.475  1.00  0.00     0.099 A 
HETATM    4  C   UNL     1     -51.341  46.912   9.011  1.00  0.00     0.046 A 
HETATM    5  C   UNL     1     -51.645  46.409  10.276  1.00  0.00    -0.055 A 
HETATM    6  C   UNL     1     -52.707  46.947  11.004  1.00  0.00     0.010 A 
HETATM    7  C   UNL     1     -53.462  47.990  10.467  1.00  0.00     0.040 A 
HETATM    8  C   UNL     1     -53.157  48.493   9.202  1.00  0.00     0.098 A 
BRANCH   5   9
HETATM    9  C   UNL     1     -50.828  45.281  10.855  1.00  0.00     0.038 C 
BRANCH   9  10
HETATM   10  C   UNL     1     -50.835  44.008  10.002  1.00  0.00     0.005 C 
BRANCH  10  11
HETATM   11  C   UNL     1     -52.238  43.413   9.824  1.00  0.00     0.011 C 
BRANCH  11  12
HETATM   12  C   UNL     1     -52.644  43.307   8.354  1.00  0.00     0.113 C 
BRANCH  12  13
HETATM   13  C   UNL     1     -53.724  44.289   7.959  1.00  0.00     0.172 C 
HETATM   14  O   UNL     1     -54.518  44.606   9.015  1.00  0.00    -0.648 OA
HETATM   15  O   UNL     1     -53.876  44.768   6.844  1.00  0.00    -0.648 OA
ENDBRANCH  12  13
ENDBRANCH  11  12
ENDBRANCH  10  11
ENDBRANCH   9  10
ENDBRANCH   5   9
BRANCH   8  16
HETATM   16  O   UNL     1     -53.903  49.511   8.688  1.00  0.00    -0.358 OA
HETATM   17  H   UNL     1     -54.665  49.810   9.145  1.00  0.00     0.217 HD
ENDBRANCH   8  16
ENDBRANCH   1   3
TORSDOF 7
ENDMDL
MODEL 5
REMARK VINA RESULT:      -7.1      3.033      7.214
REMARK  7 active torsions:
REMARK  status: ('A' for Active; 'I' for Inactive)
REMARK    1  A    between atoms: O_1  and  C_12 
REMARK    2  A    between atoms: O_3  and  C_15 
REMARK    3  A    between atoms: C_5  and  C_6 
REMARK    4  A    between atoms: C_5  and  C_7 
REMARK    5  A    between atoms: C_6  and  C_8 
REMARK    6  A    between atoms: C_7  and  C_9 
REMARK    7  A    between atoms: C_9  and  C_14 
ROOT
HETATM    1  O   UNL     1     -56.952  45.182   8.092  1.00  0.00    -0.358 OA
HETATM    2  H   UNL     1     -57.216  44.443   8.604  1.00  0.00     0.217 HD
ENDROOT
BRANCH   1   3
HETATM    3  C   UNL     1     -55.922  45.969   8.512  1.00  0.00     0.099 A 
HETATM    4  C   UNL     1     -56.169  47.302   8.841  1.00  0.00     0.046 A 
HETATM    5  C   UNL     1     -55.123  48.119   9.271  1.00  0.00    -0.055 A 
HETATM    6  C   UNL     1     -53.830  47.604   9.371  1.00  0.00     0.010 A 
HETATM    7  C   UNL     1     -53.584  46.270   9.042  1.00  0.00     0.040 A 
HETATM    8  C   UNL     1     -54.630  45.454   8.612  1.00  0.00     0.098 A 
BRANCH   5   9
HETATM    9  C   UNL     1     -55.389  49.561   9.626  1.00  0.00     0.038 C 
BRANCH   9  10
HETATM   10  C   UNL     1     -54.276  50.522   9.195  1.00  0.00     0.005 C 
BRANCH  10  11
HETATM   11  C   UNL     1     -54.661  51.999   9.364  1.00  0.00     0.011 C 
BRANCH  11  12
HETATM   12  C   UNL     1     -53.556  52.817  10.031  1.00  0.00     0.113 C 
BRANCH  12  13
HETATM   13  C   UNL     1     -53.993  53.473  11.321  1.00  0.00     0.172 C 
HETATM   14  O   UNL     1     -53.757  52.671  12.392  1.00  0.00    -0.648 OA
HETATM   15  O   UNL     1     -54.481  54.591  11.420  1.00  0.00    -0.648 OA
ENDBRANCH  12  13
ENDBRANCH  11  12
ENDBRANCH  10  11
ENDBRANCH   9  10
ENDBRANCH   5   9
BRANCH   8  16
HETATM   16  O   UNL     1     -54.378  44.153   8.293  1.00  0.00    -0.358 OA
HETATM   17  H   UNL     1     -53.870  43.619   8.872  1.00  0.00     0.217 HD
ENDBRANCH   8  16
ENDBRANCH   1   3
TORSDOF 7
ENDMDL
MODEL 6
REMARK VINA RESULT:      -7.0      1.461      5.633
REMARK  7 active torsions:
REMARK  status: ('A' for Active; 'I' for Inactive)
REMARK    1  A    between atoms: O_1  and  C_12 
REMARK    2  A    between atoms: O_3  and  C_15 
REMARK    3  A    between atoms: C_5  and  C_6 
REMARK    4  A    between atoms: C_5  and  C_7 
REMARK    5  A    between atoms: C_6  and  C_8 
REMARK    6  A    between atoms: C_7  and  C_9 
REMARK    7  A    between atoms: C_9  and  C_14 
ROOT
HETATM    1  O   UNL     1     -52.466  45.051   4.572  1.00  0.00    -0.358 OA
HETATM    2  H   UNL     1     -51.704  45.596   4.573  1.00  0.00     0.217 HD
ENDROOT
BRANCH   1   3
HETATM    3  C   UNL     1     -52.669  44.164   5.587  1.00  0.00     0.099 A 
HETATM    4  C   UNL     1     -52.399  44.550   6.899  1.00  0.00     0.046 A 
HETATM    5  C   UNL     1     -52.601  43.651   7.947  1.00  0.00    -0.055 A 
HETATM    6  C   UNL     1     -53.072  42.365   7.681  1.00  0.00     0.010 A 
HETATM    7  C   UNL     1     -53.344  41.980   6.368  1.00  0.00     0.040 A 
HETATM    8  C   UNL     1     -53.141  42.879   5.321  1.00  0.00     0.098 A 
BRANCH   5   9
HETATM    9  C   UNL     1     -52.307  44.068   9.366  1.00  0.00     0.038 C 
BRANCH   9  10
HETATM   10  C   UNL     1     -53.476  44.774  10.061  1.00  0.00     0.005 C 
BRANCH  10  11
HETATM   11  C   UNL     1     -53.094  46.147  10.632  1.00  0.00     0.011 C 
BRANCH  11  12
HETATM   12  C   UNL     1     -52.589  47.106   9.554  1.00  0.00     0.113 C 
BRANCH  12  13
HETATM   13  C   UNL     1     -53.459  48.332   9.389  1.00  0.00     0.172 C 
HETATM   14  O   UNL     1     -53.523  49.054  10.539  1.00  0.00    -0.648 OA
HETATM   15  O   UNL     1     -54.028  48.667   8.359  1.00  0.00    -0.648 OA
ENDBRANCH  12  13
ENDBRANCH  11  12
ENDBRANCH  10  11
ENDBRANCH   9  10
ENDBRANCH   5   9
BRANCH   8  16
HETATM   16  O   UNL     1     -53.409  42.491   4.043  1.00  0.00    -0.358 OA
HETATM   17  H   UNL     1     -53.710  43.119   3.416  1.00  0.00     0.217 HD
ENDBRANCH   8  16
ENDBRANCH   1   3
TORSDOF 7
ENDMDL
MODEL 7
REMARK VINA RESULT:      -6.9      1.777      5.502
REMARK  7 active torsions:
REMARK  status: ('A' for Active; 'I' for Inactive)
REMARK    1  A    between atoms: O_1  and  C_12 
REMARK    2  A    between atoms: O_3  and  C_15 
REMARK    3  A    between atoms: C_5  and  C_6 
REMARK    4  A    between atoms: C_5  and  C_7 
REMARK    5  A    between atoms: C_6  and  C_8 
REMARK    6  A    between atoms: C_7  and  C_9 
REMARK    7  A    between atoms: C_9  and  C_14 
ROOT
HETATM    1  O   UNL     1     -55.467  42.205   6.089  1.00  0.00    -0.358 OA
HETATM    2  H   UNL     1     -56.213  42.750   6.250  1.00  0.00     0.217 HD
ENDROOT
BRANCH   1   3
HETATM    3  C   UNL     1     -54.220  42.754   6.044  1.00  0.00     0.099 A 
HETATM    4  C   UNL     1     -53.707  43.383   7.178  1.00  0.00     0.046 A 
HETATM    5  C   UNL     1     -52.433  43.950   7.144  1.00  0.00    -0.055 A 
HETATM    6  C   UNL     1     -51.673  43.889   5.975  1.00  0.00     0.010 A 
HETATM    7  C   UNL     1     -52.187  43.258   4.842  1.00  0.00     0.040 A 
HETATM    8  C   UNL     1     -53.461  42.691   4.876  1.00  0.00     0.098 A 
BRANCH   5   9
HETATM    9  C   UNL     1     -51.878  44.632   8.369  1.00  0.00     0.038 C 
BRANCH   9  10
HETATM   10  C   UNL     1     -52.108  46.147   8.395  1.00  0.00     0.005 C 
BRANCH  10  11
HETATM   11  C   UNL     1     -52.975  46.601   9.577  1.00  0.00     0.011 C 
BRANCH  11  12
HETATM   12  C   UNL     1     -54.274  45.803   9.688  1.00  0.00     0.113 C 
BRANCH  12  13
HETATM   13  C   UNL     1     -55.367  46.309   8.773  1.00  0.00     0.172 C 
HETATM   14  O   UNL     1     -56.330  45.369   8.583  1.00  0.00    -0.648 OA
HETATM   15  O   UNL     1     -55.415  47.423   8.271  1.00  0.00    -0.648 OA
ENDBRANCH  12  13
ENDBRANCH  11  12
ENDBRANCH  10  11
ENDBRANCH   9  10
ENDBRANCH   5   9
BRANCH   8  16
HETATM   16  O   UNL     1     -53.952  42.079   3.763  1.00  0.00    -0.358 OA
HETATM   17  H   UNL     1     -53.375  41.849   3.062  1.00  0.00     0.217 HD
ENDBRANCH   8  16
ENDBRANCH   1   3
TORSDOF 7
ENDMDL
MODEL 8
REMARK VINA RESULT:      -6.9      3.283      6.858
REMARK  7 active torsions:
REMARK  status: ('A' for Active; 'I' for Inactive)
REMARK    1  A    between atoms: O_1  and  C_12 
REMARK    2  A    between atoms: O_3  and  C_15 
REMARK    3  A    between atoms: C_5  and  C_6 
REMARK    4  A    between atoms: C_5  and  C_7 
REMARK    5  A    between atoms: C_6  and  C_8 
REMARK    6  A    between atoms: C_7  and  C_9 
REMARK    7  A    between atoms: C_9  and  C_14 
ROOT
HETATM    1  O   UNL     1     -54.215  48.522   8.386  1.00  0.00    -0.358 OA
HETATM    2  H   UNL     1     -53.628  49.249   8.312  1.00  0.00     0.217 HD
ENDROOT
BRANCH   1   3
HETATM    3  C   UNL     1     -53.916  47.487   9.220  1.00  0.00     0.099 A 
HETATM    4  C   UNL     1     -53.062  47.703  10.301  1.00  0.00     0.046 A 
HETATM    5  C   UNL     1     -52.747  46.651  11.161  1.00  0.00    -0.055 A 
HETATM    6  C   UNL     1     -53.284  45.383  10.939  1.00  0.00     0.010 A 
HETATM    7  C   UNL     1     -54.139  45.168   9.858  1.00  0.00     0.040 A 
HETATM    8  C   UNL     1     -54.454  46.220   8.998  1.00  0.00     0.098 A 
BRANCH   5   9
HETATM    9  C   UNL     1     -51.822  46.884  12.330  1.00  0.00     0.038 C 
BRANCH   9  10
HETATM   10  C   UNL     1     -52.478  46.655  13.696  1.00  0.00     0.005 C 
BRANCH  10  11
HETATM   11  C   UNL     1     -51.727  47.344  14.844  1.00  0.00     0.011 C 
BRANCH  11  12
HETATM   12  C   UNL     1     -52.460  47.217  16.179  1.00  0.00     0.113 C 
BRANCH  12  13
HETATM   13  C   UNL     1     -53.683  48.101  16.277  1.00  0.00     0.172 C 
HETATM   14  O   UNL     1     -54.521  47.682  17.261  1.00  0.00    -0.648 OA
HETATM   15  O   UNL     1     -53.906  49.085  15.586  1.00  0.00    -0.648 OA
ENDBRANCH  12  13
ENDBRANCH  11  12
ENDBRANCH  10  11
ENDBRANCH   9  10
ENDBRANCH   5   9
BRANCH   8  16
HETATM   16  O   UNL     1     -55.289  45.997   7.945  1.00  0.00    -0.358 OA
HETATM   17  H   UNL     1     -55.605  46.719   7.437  1.00  0.00     0.217 HD
ENDBRANCH   8  16
ENDBRANCH   1   3
TORSDOF 7
ENDMDL
MODEL 9
REMARK VINA RESULT:      -6.8      1.050      1.997
REMARK  7 active torsions:
REMARK  status: ('A' for Active; 'I' for Inactive)
REMARK    1  A    between atoms: O_1  and  C_12 
REMARK    2  A    between atoms: O_3  and  C_15 
REMARK    3  A    between atoms: C_5  and  C_6 
REMARK    4  A    between atoms: C_5  and  C_7 
REMARK    5  A    between atoms: C_6  and  C_8 
REMARK    6  A    between atoms: C_7  and  C_9 
REMARK    7  A    between atoms: C_9  and  C_14 
ROOT
HETATM    1  O   UNL     1     -53.284  49.069  10.577  1.00  0.00    -0.358 OA
HETATM    2  H   UNL     1     -53.463  49.333  11.458  1.00  0.00     0.217 HD
ENDROOT
BRANCH   1   3
HETATM    3  C   UNL     1     -53.976  48.035  10.021  1.00  0.00     0.099 A 
HETATM    4  C   UNL     1     -53.507  46.732  10.181  1.00  0.00     0.046 A 
HETATM    5  C   UNL     1     -54.206  45.665   9.615  1.00  0.00    -0.055 A 
HETATM    6  C   UNL     1     -55.372  45.902   8.887  1.00  0.00     0.010 A 
HETATM    7  C   UNL     1     -55.841  47.207   8.728  1.00  0.00     0.040 A 
HETATM    8  C   UNL     1     -55.142  48.273   9.294  1.00  0.00     0.098 A 
BRANCH   5   9
HETATM    9  C   UNL     1     -53.698  44.255   9.787  1.00  0.00     0.038 C 
BRANCH   9  10
HETATM   10  C   UNL     1     -52.603  43.863   8.789  1.00  0.00     0.005 C 
BRANCH  10  11
HETATM   11  C   UNL     1     -53.122  42.978   7.647  1.00  0.00     0.011 C 
BRANCH  11  12
HETATM   12  C   UNL     1     -53.134  43.708   6.304  1.00  0.00     0.113 C 
BRANCH  12  13
HETATM   13  C   UNL     1     -54.521  43.877   5.727  1.00  0.00     0.172 C 
HETATM   14  O   UNL     1     -55.406  43.020   6.299  1.00  0.00    -0.648 OA
HETATM   15  O   UNL     1     -54.839  44.689   4.868  1.00  0.00    -0.648 OA
ENDBRANCH  12  13
ENDBRANCH  11  12
ENDBRANCH  10  11
ENDBRANCH   9  10
ENDBRANCH   5   9
BRANCH   8  16
HETATM   16  O   UNL     1     -55.610  49.543   9.131  1.00  0.00    -0.358 OA
HETATM   17  H   UNL     1     -55.099  50.173   8.661  1.00  0.00     0.217 HD
ENDBRANCH   8  16
ENDBRANCH   1   3
TORSDOF 7
ENDMDL
