MODEL 1
REMARK VINA RESULT:      -7.4      0.000      0.000
REMARK  7 active torsions:
REMARK  status: ('A' for Active; 'I' for Inactive)
REMARK    1  A    between atoms: O_1  and  C_12 
REMARK    2  A    between atoms: O_3  and  C_15 
REMARK    3  A    between atoms: C_5  and  C_6 
REMARK    4  A    between atoms: C_5  and  C_7 
REMARK    5  A    between atoms: C_6  and  C_8 
REMARK    6  A    between atoms: C_7  and  C_9 
REMARK    7  A    between atoms: C_9  and  C_14 
ROOT
HETATM    1  O   UNL     1     -54.462  44.535   5.027  1.00  0.00    -0.358 OA
HETATM    2  H   UNL     1     -55.116  45.175   5.230  1.00  0.00     0.217 HD
ENDROOT
BRANCH   1   3
HETATM    3  C   UNL     1     -53.819  43.875   6.032  1.00  0.00     0.099 A 
HETATM    4  C   UNL     1     -53.953  44.329   7.344  1.00  0.00     0.046 A 
HETATM    5  C   UNL     1     -53.298  43.664   8.382  1.00  0.00    -0.055 A 
HETATM    6  C   UNL     1     -52.510  42.546   8.106  1.00  0.00     0.010 A 
HETATM    7  C   UNL     1     -52.377  42.093   6.793  1.00  0.00     0.040 A 
HETATM    8  C   UNL     1     -53.032  42.758   5.757  1.00  0.00     0.098 A 
BRANCH   5   9
HETATM    9  C   UNL     1     -53.442  44.155   9.801  1.00  0.00     0.038 C 
BRANCH   9  10
HETATM   10  C   UNL     1     -53.981  45.585   9.912  1.00  0.00     0.005 C 
BRANCH  10  11
HETATM   11  C   UNL     1     -53.000  46.543  10.601  1.00  0.00     0.011 C 
BRANCH  11  12
HETATM   12  C   UNL     1     -53.313  48.010  10.305  1.00  0.00     0.113 C 
BRANCH  12  13
HETATM   13  C   UNL     1     -53.362  48.326   8.827  1.00  0.00     0.172 C 
HETATM   14  O   UNL     1     -54.625  48.626   8.425  1.00  0.00    -0.648 OA
HETATM   15  O   UNL     1     -52.401  48.337   8.070  1.00  0.00    -0.648 OA
ENDBRANCH  12  13
ENDBRANCH  11  12
ENDBRANCH  10  11
ENDBRANCH   9  10
ENDBRANCH   5   9
BRANCH   8  16
HETATM   16  O   UNL     1     -52.894  42.307   4.479  1.00  0.00    -0.358 OA
HETATM   17  H   UNL     1     -52.302  42.736   3.892  1.00  0.00     0.217 HD
ENDBRANCH   8  16
ENDBRANCH   1   3
TORSDOF 7
ENDMDL
MODEL 2
REMARK VINA RESULT:      -7.3      1.927      2.238
REMARK  7 active torsions:
REMARK  status: ('A' for Active; 'I' for Inactive)
REMARK    1  A    between atoms: O_1  and  C_12 
REMARK    2  A    between atoms: O_3  and  C_15 
REMARK    3  A    between atoms: C_5  and  C_6 
REMARK    4  A    between atoms: C_5  and  C_7 
REMARK    5  A    between atoms: C_6  and  C_8 
REMARK    6  A    between atoms: C_7  and  C_9 
REMARK    7  A    between atoms: C_9  and  C_14 
ROOT
HETATM    1  O   UNL     1     -54.780  42.720   6.660  1.00  0.00    -0.358 OA
HETATM    2  H   UNL     1     -55.569  43.226   6.651  1.00  0.00     0.217 HD
ENDROOT
BRANCH   1   3
HETATM    3  C   UNL     1     -53.646  43.239   7.209  1.00  0.00     0.099 A 
HETATM    4  C   UNL     1     -53.651  44.552   7.681  1.00  0.00     0.046 A 
HETATM    5  C   UNL     1     -52.495  45.095   8.243  1.00  0.00    -0.055 A 
HETATM    6  C   UNL     1     -51.335  44.326   8.333  1.00  0.00     0.010 A 
HETATM    7  C   UNL     1     -51.331  43.012   7.862  1.00  0.00     0.040 A 
HETATM    8  C   UNL     1     -52.487  42.470   7.300  1.00  0.00     0.098 A 
BRANCH   5   9
HETATM    9  C   UNL     1     -52.500  46.515   8.752  1.00  0.00     0.038 C 
BRANCH   9  10
HETATM   10  C   UNL     1     -53.514  46.770   9.872  1.00  0.00     0.005 C 
BRANCH  10  11
HETATM   11  C   UNL     1     -53.565  48.240  10.311  1.00  0.00     0.011 C 
BRANCH  11  12
HETATM   12  C   UNL     1     -54.192  49.144   9.250  1.00  0.00     0.113 C 
BRANCH  12  13
HETATM   13  C   UNL     1     -54.077  50.616   9.573  1.00  0.00     0.172 C 
HETATM   14  O   UNL     1     -54.098  51.375   8.447  1.00  0.00    -0.648 OA
HETATM   15  O   UNL     1     -53.994  51.093  10.697  1.00  0.00    -0.648 OA
ENDBRANCH  12  13
ENDBRANCH  11  12
ENDBRANCH  10  11
ENDBRANCH   9  10
ENDBRANCH   5   9
BRANCH   8  16
HETATM   16  O   UNL     1     -52.470  41.186   6.842  1.00  0.00    -0.358 OA
HETATM   17  H   UNL     1     -51.822  40.919   6.220  1.00  0.00     0.217 HD
ENDBRANCH   8  16
ENDBRANCH   1   3
TORSDOF 7
ENDMDL
MODEL 3
REMARK VINA RESULT:      -7.2      1.601      5.053
REMARK  7 active torsions:
REMARK  status: ('A' for Active; 'I' for Inactive)
REMARK    1  A    between atoms: O_1  and  C_12 
REMARK    2  A    between atoms: O_3  and  C_15 
REMARK    3  A    between atoms: C_5  and  C_6 
REMARK    4  A    between atoms: C_5  and  C_7 
REMARK    5  A    between atoms: C_6  and  C_8 
REMARK    6  A    between atoms: C_7  and  C_9 
REMARK    7  A    between atoms: C_9  and  C_14 
ROOT
HETATM    1  O   UNL     1     -51.792  48.420   7.283  1.00  0.00    -0.358 OA
HETATM    2  H   UNL     1     -51.991  49.302   7.036  1.00  0.00     0.217 HD
ENDROOT
BRANCH   1   3
HETATM    3  C   UNL     1     -52.172  47.952   8.506  1.00  0.00     0.099 A 
HETATM    4  C   UNL     1     -51.530  46.836   9.042  1.00  0.00     0.046 A 
HETATM    5  C   UNL     1     -51.911  46.347  10.292  1.00  0.00    -0.055 A 
HETATM    6  C   UNL     1     -52.934  46.973  11.004  1.00  0.00     0.010 A 
HETATM    7  C   UNL     1     -53.575  48.090  10.467  1.00  0.00     0.040 A 
HETATM    8  C   UNL     1     -53.194  48.578   9.218  1.00  0.00     0.098 A 
BRANCH   5   9
HETATM    9  C   UNL     1     -51.217  45.139  10.872  1.00  0.00     0.038 C 
BRANCH   9  10
HETATM   10  C   UNL     1     -51.286  43.895   9.979  1.00  0.00     0.005 C 
BRANCH  10  11
HETATM   11  C   UNL     1     -52.710  43.343   9.829  1.00  0.00     0.011 C 
BRANCH  11  12
HETATM   12  C   UNL     1     -53.078  43.069   8.371  1.00  0.00     0.113 C 
BRANCH  12  13
HETATM   13  C   UNL     1     -53.665  44.271   7.666  1.00  0.00     0.172 C 
HETATM   14  O   UNL     1     -54.757  44.746   8.320  1.00  0.00    -0.648 OA
HETATM   15  O   UNL     1     -53.222  44.783   6.647  1.00  0.00    -0.648 OA
ENDBRANCH  12  13
ENDBRANCH  11  12
ENDBRANCH  10  11
ENDBRANCH   9  10
ENDBRANCH   5   9
BRANCH   8  16
HETATM   16  O   UNL     1     -53.828  49.669   8.703  1.00  0.00    -0.358 OA
HETATM   17  H   UNL     1     -54.666  49.924   9.037  1.00  0.00     0.217 HD
ENDBRANCH   8  16
ENDBRANCH   1   3
TORSDOF 7
ENDMDL
MODEL 4
REMARK VINA RESULT:      -7.2      1.543      5.313
REMARK  7 active torsions:
REMARK  status: ('A' for Active; 'I' for Inactive)
REMARK    1  A    between atoms: O_1  and  C_12 
REMARK    2  A    between atoms: O_3  and  C_15 
REMARK    3  A    between atoms: C_5  and  C_6 
REMARK    4  A    between atoms: C_5  and  C_7 
REMARK    5  A    between atoms: C_6  and  C_8 
REMARK    6  A    between atoms: C_7  and  C_9 
REMARK    7  A    between atoms: C_9  and  C_14 
ROOT
HETATM    1  O   UNL     1     -52.877  48.624   8.183  1.00  0.00    -0.358 OA
HETATM    2  H   UNL     1     -52.823  48.535   7.252  1.00  0.00     0.217 HD
ENDROOT
BRANCH   1   3
HETATM    3  C   UNL     1     -52.640  47.547   8.985  1.00  0.00     0.099 A 
HETATM    4  C   UNL     1     -52.068  46.399   8.439  1.00  0.00     0.046 A 
HETATM    5  C   UNL     1     -51.823  45.289   9.249  1.00  0.00    -0.055 A 
HETATM    6  C   UNL     1     -52.152  45.329  10.604  1.00  0.00     0.010 A 
HETATM    7  C   UNL     1     -52.723  46.478  11.150  1.00  0.00     0.040 A 
HETATM    8  C   UNL     1     -52.968  47.587  10.339  1.00  0.00     0.098 A 
BRANCH   5   9
HETATM    9  C   UNL     1     -51.205  44.047   8.658  1.00  0.00     0.038 C 
BRANCH   9  10
HETATM   10  C   UNL     1     -51.894  43.558   7.379  1.00  0.00     0.005 C 
BRANCH  10  11
HETATM   11  C   UNL     1     -53.204  42.808   7.654  1.00  0.00     0.011 C 
BRANCH  11  12
HETATM   12  C   UNL     1     -54.063  42.656   6.399  1.00  0.00     0.113 C 
BRANCH  12  13
HETATM   13  C   UNL     1     -54.878  43.889   6.078  1.00  0.00     0.172 C 
HETATM   14  O   UNL     1     -54.377  44.549   5.002  1.00  0.00    -0.648 OA
HETATM   15  O   UNL     1     -55.877  44.257   6.680  1.00  0.00    -0.648 OA
ENDBRANCH  12  13
ENDBRANCH  11  12
ENDBRANCH  10  11
ENDBRANCH   9  10
ENDBRANCH   5   9
BRANCH   8  16
HETATM   16  O   UNL     1     -53.528  48.704  10.884  1.00  0.00    -0.358 OA
HETATM   17  H   UNL     1     -54.195  49.168  10.417  1.00  0.00     0.217 HD
ENDBRANCH   8  16
ENDBRANCH   1   3
TORSDOF 7
ENDMDL
MODEL 5
REMARK VINA RESULT:      -7.1      1.465      1.795
REMARK  7 active torsions:
REMARK  status: ('A' for Active; 'I' for Inactive)
REMARK    1  A    between atoms: O_1  and  C_12 
REMARK    2  A    between atoms: O_3  and  C_15 
REMARK    3  A    between atoms: C_5  and  C_6 
REMARK    4  A    between atoms: C_5  and  C_7 
REMARK    5  A    between atoms: C_6  and  C_8 
REMARK    6  A    between atoms: C_7  and  C_9 
REMARK    7  A    between atoms: C_9  and  C_14 
ROOT
HETATM    1  O   UNL     1     -55.585  42.279   6.048  1.00  0.00    -0.358 OA
HETATM    2  H   UNL     1     -56.363  42.760   5.846  1.00  0.00     0.217 HD
ENDROOT
BRANCH   1   3
HETATM    3  C   UNL     1     -54.370  42.896   5.998  1.00  0.00     0.099 A 
HETATM    4  C   UNL     1     -53.944  43.658   7.086  1.00  0.00     0.046 A 
HETATM    5  C   UNL     1     -52.704  44.296   7.047  1.00  0.00    -0.055 A 
HETATM    6  C   UNL     1     -51.891  44.173   5.920  1.00  0.00     0.010 A 
HETATM    7  C   UNL     1     -52.318  43.409   4.833  1.00  0.00     0.040 A 
HETATM    8  C   UNL     1     -53.558  42.772   4.872  1.00  0.00     0.098 A 
BRANCH   5   9
HETATM    9  C   UNL     1     -52.244  45.121   8.223  1.00  0.00     0.038 C 
BRANCH   9  10
HETATM   10  C   UNL     1     -52.898  44.728   9.552  1.00  0.00     0.005 C 
BRANCH  10  11
HETATM   11  C   UNL     1     -53.476  45.929  10.313  1.00  0.00     0.011 C 
BRANCH  11  12
HETATM   12  C   UNL     1     -54.127  46.951   9.381  1.00  0.00     0.113 C 
BRANCH  12  13
HETATM   13  C   UNL     1     -53.503  48.325   9.470  1.00  0.00     0.172 C 
HETATM   14  O   UNL     1     -53.050  48.745   8.260  1.00  0.00    -0.648 OA
HETATM   15  O   UNL     1     -53.421  49.005  10.485  1.00  0.00    -0.648 OA
ENDBRANCH  12  13
ENDBRANCH  11  12
ENDBRANCH  10  11
ENDBRANCH   9  10
ENDBRANCH   5   9
BRANCH   8  16
HETATM   16  O   UNL     1     -53.964  42.030   3.804  1.00  0.00    -0.358 OA
HETATM   17  H   UNL     1     -54.490  41.266   3.937  1.00  0.00     0.217 HD
ENDBRANCH   8  16
ENDBRANCH   1   3
TORSDOF 7
ENDMDL
MODEL 6
REMARK VINA RESULT:      -7.0      1.680      2.336
REMARK  7 active torsions:
REMARK  status: ('A' for Active; 'I' for Inactive)
REMARK    1  A    between atoms: O_1  and  C_12 
REMARK    2  A    between atoms: O_3  and  C_15 
REMARK    3  A    between atoms: C_5  and  C_6 
REMARK    4  A    between atoms: C_5  and  C_7 
REMARK    5  A    between atoms: C_6  and  C_8 
REMARK    6  A    between atoms: C_7  and  C_9 
REMARK    7  A    between atoms: C_9  and  C_14 
ROOT
HETATM    1  O   UNL     1     -50.842  43.049   5.803  1.00  0.00    -0.358 OA
HETATM    2  H   UNL     1     -50.169  42.941   6.446  1.00  0.00     0.217 HD
ENDROOT
BRANCH   1   3
HETATM    3  C   UNL     1     -52.081  43.474   6.179  1.00  0.00     0.099 A 
HETATM    4  C   UNL     1     -52.232  44.169   7.379  1.00  0.00     0.046 A 
HETATM    5  C   UNL     1     -53.495  44.608   7.776  1.00  0.00    -0.055 A 
HETATM    6  C   UNL     1     -54.608  44.351   6.974  1.00  0.00     0.010 A 
HETATM    7  C   UNL     1     -54.456  43.656   5.774  1.00  0.00     0.040 A 
HETATM    8  C   UNL     1     -53.192  43.217   5.377  1.00  0.00     0.098 A 
BRANCH   5   9
HETATM    9  C   UNL     1     -53.659  45.359   9.074  1.00  0.00     0.038 C 
BRANCH   9  10
HETATM   10  C   UNL     1     -54.639  46.534   8.993  1.00  0.00     0.005 C 
BRANCH  10  11
HETATM   11  C   UNL     1     -53.987  47.882   9.330  1.00  0.00     0.011 C 
BRANCH  11  12
HETATM   12  C   UNL     1     -54.938  49.060   9.113  1.00  0.00     0.113 C 
BRANCH  12  13
HETATM   13  C   UNL     1     -54.331  50.395   9.482  1.00  0.00     0.172 C 
HETATM   14  O   UNL     1     -54.150  51.178   8.387  1.00  0.00    -0.648 OA
HETATM   15  O   UNL     1     -54.048  50.758  10.616  1.00  0.00    -0.648 OA
ENDBRANCH  12  13
ENDBRANCH  11  12
ENDBRANCH  10  11
ENDBRANCH   9  10
ENDBRANCH   5   9
BRANCH   8  16
HETATM   16  O   UNL     1     -53.057  42.538   4.203  1.00  0.00    -0.358 OA
HETATM   17  H   UNL     1     -53.548  41.754   4.057  1.00  0.00     0.217 HD
ENDBRANCH   8  16
ENDBRANCH   1   3
TORSDOF 7
ENDMDL
MODEL 7
REMARK VINA RESULT:      -6.9      1.572      5.695
REMARK  7 active torsions:
REMARK  status: ('A' for Active; 'I' for Inactive)
REMARK    1  A    between atoms: O_1  and  C_12 
REMARK    2  A    between atoms: O_3  and  C_15 
REMARK    3  A    between atoms: C_5  and  C_6 
REMARK    4  A    between atoms: C_5  and  C_7 
REMARK    5  A    between atoms: C_6  and  C_8 
REMARK    6  A    between atoms: C_7  and  C_9 
REMARK    7  A    between atoms: C_9  and  C_14 
ROOT
HETATM    1  O   UNL     1     -53.262  49.251  10.471  1.00  0.00    -0.358 OA
HETATM    2  H   UNL     1     -52.459  49.034  10.903  1.00  0.00     0.217 HD
ENDROOT
BRANCH   1   3
HETATM    3  C   UNL     1     -54.013  48.270   9.895  1.00  0.00     0.099 A 
HETATM    4  C   UNL     1     -53.528  46.963   9.869  1.00  0.00     0.046 A 
HETATM    5  C   UNL     1     -54.286  45.950   9.280  1.00  0.00    -0.055 A 
HETATM    6  C   UNL     1     -55.528  46.245   8.718  1.00  0.00     0.010 A 
HETATM    7  C   UNL     1     -56.013  47.553   8.746  1.00  0.00     0.040 A 
HETATM    8  C   UNL     1     -55.255  48.565   9.334  1.00  0.00     0.098 A 
BRANCH   5   9
HETATM    9  C   UNL     1     -53.761  44.536   9.250  1.00  0.00     0.038 C 
BRANCH   9  10
HETATM   10  C   UNL     1     -53.039  44.169   7.949  1.00  0.00     0.005 C 
BRANCH  10  11
HETATM   11  C   UNL     1     -53.295  42.721   7.510  1.00  0.00     0.011 C 
BRANCH  11  12
HETATM   12  C   UNL     1     -53.867  42.633   6.095  1.00  0.00     0.113 C 
BRANCH  12  13
HETATM   13  C   UNL     1     -54.798  43.775   5.754  1.00  0.00     0.172 C 
HETATM   14  O   UNL     1     -55.942  43.719   6.485  1.00  0.00    -0.648 OA
HETATM   15  O   UNL     1     -54.568  44.662   4.943  1.00  0.00    -0.648 OA
ENDBRANCH  12  13
ENDBRANCH  11  12
ENDBRANCH  10  11
ENDBRANCH   9  10
ENDBRANCH   5   9
BRANCH   8  16
HETATM   16  O   UNL     1     -55.738  49.839   9.354  1.00  0.00    -0.358 OA
HETATM   17  H   UNL     1     -55.311  50.494   9.871  1.00  0.00     0.217 HD
ENDBRANCH   8  16
ENDBRANCH   1   3
TORSDOF 7
ENDMDL
MODEL 8
REMARK VINA RESULT:      -6.9      3.945      5.740
REMARK  7 active torsions:
REMARK  status: ('A' for Active; 'I' for Inactive)
REMARK    1  A    between atoms: O_1  and  C_12 
REMARK    2  A    between atoms: O_3  and  C_15 
REMARK    3  A    between atoms: C_5  and  C_6 
REMARK    4  A    between atoms: C_5  and  C_7 
REMARK    5  A    between atoms: C_6  and  C_8 
REMARK    6  A    between atoms: C_7  and  C_9 
REMARK    7  A    between atoms: C_9  and  C_14 
ROOT
HETATM    1  O   UNL     1     -54.163  48.843   8.463  1.00  0.00    -0.358 OA
HETATM    2  H   UNL     1     -54.642  49.518   8.904  1.00  0.00     0.217 HD
ENDROOT
BRANCH   1   3
HETATM    3  C   UNL     1     -53.202  48.143   9.128  1.00  0.00     0.099 A 
HETATM    4  C   UNL     1     -53.403  47.806  10.466  1.00  0.00     0.046 A 
HETATM    5  C   UNL     1     -52.425  47.092  11.160  1.00  0.00    -0.055 A 
HETATM    6  C   UNL     1     -51.246  46.716  10.514  1.00  0.00     0.010 A 
HETATM    7  C   UNL     1     -51.047  47.053   9.175  1.00  0.00     0.040 A 
HETATM    8  C   UNL     1     -52.025  47.767   8.483  1.00  0.00     0.098 A 
BRANCH   5   9
HETATM    9  C   UNL     1     -52.641  46.728  12.607  1.00  0.00     0.038 C 
BRANCH   9  10
HETATM   10  C   UNL     1     -51.568  45.796  13.181  1.00  0.00     0.005 C 
BRANCH  10  11
HETATM   11  C   UNL     1     -50.972  46.308  14.499  1.00  0.00     0.011 C 
BRANCH  11  12
HETATM   12  C   UNL     1     -50.090  47.541  14.299  1.00  0.00     0.113 C 
BRANCH  12  13
HETATM   13  C   UNL     1     -50.308  48.609  15.347  1.00  0.00     0.172 C 
HETATM   14  O   UNL     1     -51.626  48.915  15.477  1.00  0.00    -0.648 OA
HETATM   15  O   UNL     1     -49.432  49.133  16.021  1.00  0.00    -0.648 OA
ENDBRANCH  12  13
ENDBRANCH  11  12
ENDBRANCH  10  11
ENDBRANCH   9  10
ENDBRANCH   5   9
BRANCH   8  16
HETATM   16  O   UNL     1     -51.818  48.091   7.176  1.00  0.00    -0.358 OA
HETATM   17  H   UNL     1     -52.542  48.338   6.634  1.00  0.00     0.217 HD
ENDBRANCH   8  16
ENDBRANCH   1   3
TORSDOF 7
ENDMDL
MODEL 9
REMARK VINA RESULT:      -6.9      3.025      4.219
REMARK  7 active torsions:
REMARK  status: ('A' for Active; 'I' for Inactive)
REMARK    1  A    between atoms: O_1  and  C_12 
REMARK    2  A    between atoms: O_3  and  C_15 
REMARK    3  A    between atoms: C_5  and  C_6 
REMARK    4  A    between atoms: C_5  and  C_7 
REMARK    5  A    between atoms: C_6  and  C_8 
REMARK    6  A    between atoms: C_7  and  C_9 
REMARK    7  A    between atoms: C_9  and  C_14 
ROOT
HETATM    1  O   UNL     1     -53.744  43.151   9.171  1.00  0.00    -0.358 OA
HETATM    2  H   UNL     1     -54.514  42.658   9.376  1.00  0.00     0.217 HD
ENDROOT
BRANCH   1   3
HETATM    3  C   UNL     1     -53.218  44.007  10.093  1.00  0.00     0.099 A 
HETATM    4  C   UNL     1     -53.452  45.376   9.967  1.00  0.00     0.046 A 
HETATM    5  C   UNL     1     -52.917  46.263  10.903  1.00  0.00    -0.055 A 
HETATM    6  C   UNL     1     -52.148  45.780  11.962  1.00  0.00     0.010 A 
HETATM    7  C   UNL     1     -51.916  44.410  12.087  1.00  0.00     0.040 A 
HETATM    8  C   UNL     1     -52.451  43.524  11.152  1.00  0.00     0.098 A 
BRANCH   5   9
HETATM    9  C   UNL     1     -53.168  47.744  10.767  1.00  0.00     0.038 C 
BRANCH   9  10
HETATM   10  C   UNL     1     -53.366  48.210   9.320  1.00  0.00     0.005 C 
BRANCH  10  11
HETATM   11  C   UNL     1     -54.842  48.417   8.954  1.00  0.00     0.011 C 
BRANCH  11  12
HETATM   12  C   UNL     1     -55.418  49.699   9.557  1.00  0.00     0.113 C 
BRANCH  12  13
HETATM   13  C   UNL     1     -54.538  50.910   9.342  1.00  0.00     0.172 C 
HETATM   14  O   UNL     1     -53.867  51.244  10.475  1.00  0.00    -0.648 OA
HETATM   15  O   UNL     1     -54.412  51.518   8.288  1.00  0.00    -0.648 OA
ENDBRANCH  12  13
ENDBRANCH  11  12
ENDBRANCH  10  11
ENDBRANCH   9  10
ENDBRANCH   5   9
BRANCH   8  16
HETATM   16  O   UNL     1     -52.216  42.188  11.284  1.00  0.00    -0.358 OA
HETATM   17  H   UNL     1     -52.281  41.783  12.126  1.00  0.00     0.217 HD
ENDBRANCH   8  16
ENDBRANCH   1   3
TORSDOF 7
ENDMDL
