MODEL 1
REMARK VINA RESULT:      -6.3      0.000      0.000
REMARK  5 active torsions:
REMARK  status: ('A' for Active; 'I' for Inactive)
REMARK    1  A    between atoms: O_1  and  C_10 
REMARK    2  A    between atoms: O_2  and  C_12 
REMARK    3  A    between atoms: C_5  and  C_6 
REMARK    4  A    between atoms: C_5  and  C_7 
REMARK    5  A    between atoms: C_7  and  C_13 
ROOT
HETATM    1  O   UNL     1       8.372  -3.126  59.780  1.00  0.00    -0.358 OA
HETATM    2  H   UNL     1       8.332  -3.839  60.386  1.00  0.00     0.217 HD
ENDROOT
BRANCH   1   3
HETATM    3  C   UNL     1       7.451  -3.028  58.781  1.00  0.00     0.099 A 
HETATM    4  C   UNL     1       6.569  -4.084  58.556  1.00  0.00     0.046 A 
HETATM    5  C   UNL     1       5.622  -3.997  57.536  1.00  0.00    -0.055 A 
HETATM    6  C   UNL     1       5.556  -2.851  56.742  1.00  0.00     0.010 A 
HETATM    7  C   UNL     1       6.438  -1.795  56.967  1.00  0.00     0.040 A 
HETATM    8  C   UNL     1       7.385  -1.883  57.987  1.00  0.00     0.098 A 
BRANCH   5   9
HETATM    9  C   UNL     1       4.679  -5.127  57.295  1.00  0.00     0.049 C 
BRANCH   9  10
HETATM   10  C   UNL     1       3.218  -4.792  57.622  1.00  0.00     0.117 C 
BRANCH  10  11
HETATM   11  C   UNL     1       2.875  -5.133  59.053  1.00  0.00     0.172 C 
HETATM   12  O   UNL     1       3.441  -6.292  59.468  1.00  0.00    -0.648 OA
HETATM   13  O   UNL     1       2.181  -4.427  59.773  1.00  0.00    -0.648 OA
ENDBRANCH  10  11
ENDBRANCH   9  10
ENDBRANCH   5   9
BRANCH   8  14
HETATM   14  O   UNL     1       8.243  -0.846  58.198  1.00  0.00    -0.358 OA
HETATM   15  H   UNL     1       8.864  -0.610  57.536  1.00  0.00     0.217 HD
ENDBRANCH   8  14
ENDBRANCH   1   3
TORSDOF 5
ENDMDL
MODEL 2
REMARK VINA RESULT:      -6.1      1.284      1.626
REMARK  5 active torsions:
REMARK  status: ('A' for Active; 'I' for Inactive)
REMARK    1  A    between atoms: O_1  and  C_10 
REMARK    2  A    between atoms: O_2  and  C_12 
REMARK    3  A    between atoms: C_5  and  C_6 
REMARK    4  A    between atoms: C_5  and  C_7 
REMARK    5  A    between atoms: C_7  and  C_13 
ROOT
HETATM    1  O   UNL     1       6.971  -4.304  60.879  1.00  0.00    -0.358 OA
HETATM    2  H   UNL     1       7.337  -5.108  61.191  1.00  0.00     0.217 HD
ENDROOT
BRANCH   1   3
HETATM    3  C   UNL     1       6.586  -4.192  59.577  1.00  0.00     0.099 A 
HETATM    4  C   UNL     1       5.505  -4.941  59.114  1.00  0.00     0.046 A 
HETATM    5  C   UNL     1       5.102  -4.835  57.783  1.00  0.00    -0.055 A 
HETATM    6  C   UNL     1       5.781  -3.979  56.915  1.00  0.00     0.010 A 
HETATM    7  C   UNL     1       6.861  -3.230  57.378  1.00  0.00     0.040 A 
HETATM    8  C   UNL     1       7.264  -3.335  58.709  1.00  0.00     0.098 A 
BRANCH   5   9
HETATM    9  C   UNL     1       3.946  -5.637  57.288  1.00  0.00     0.049 C 
BRANCH   9  10
HETATM   10  C   UNL     1       3.140  -6.311  58.404  1.00  0.00     0.117 C 
BRANCH  10  11
HETATM   11  C   UNL     1       1.977  -5.456  58.847  1.00  0.00     0.172 C 
HETATM   12  O   UNL     1       0.826  -5.754  58.197  1.00  0.00    -0.648 OA
HETATM   13  O   UNL     1       2.055  -4.601  59.719  1.00  0.00    -0.648 OA
ENDBRANCH  10  11
ENDBRANCH   9  10
ENDBRANCH   5   9
BRANCH   8  14
HETATM   14  O   UNL     1       8.322  -2.600  59.150  1.00  0.00    -0.358 OA
HETATM   15  H   UNL     1       8.213  -2.003  59.864  1.00  0.00     0.217 HD
ENDBRANCH   8  14
ENDBRANCH   1   3
TORSDOF 5
ENDMDL
MODEL 3
REMARK VINA RESULT:      -6.0      1.230      2.164
REMARK  5 active torsions:
REMARK  status: ('A' for Active; 'I' for Inactive)
REMARK    1  A    between atoms: O_1  and  C_10 
REMARK    2  A    between atoms: O_2  and  C_12 
REMARK    3  A    between atoms: C_5  and  C_6 
REMARK    4  A    between atoms: C_5  and  C_7 
REMARK    5  A    between atoms: C_7  and  C_13 
ROOT
HETATM    1  O   UNL     1       8.374  -2.125  57.533  1.00  0.00    -0.358 OA
HETATM    2  H   UNL     1       8.059  -1.318  57.178  1.00  0.00     0.217 HD
ENDROOT
BRANCH   1   3
HETATM    3  C   UNL     1       7.496  -3.031  58.048  1.00  0.00     0.099 A 
HETATM    4  C   UNL     1       6.410  -3.447  57.278  1.00  0.00     0.046 A 
HETATM    5  C   UNL     1       5.504  -4.374  57.794  1.00  0.00    -0.055 A 
HETATM    6  C   UNL     1       5.685  -4.884  59.080  1.00  0.00     0.010 A 
HETATM    7  C   UNL     1       6.770  -4.468  59.849  1.00  0.00     0.040 A 
HETATM    8  C   UNL     1       7.677  -3.542  59.333  1.00  0.00     0.098 A 
BRANCH   5   9
HETATM    9  C   UNL     1       4.343  -4.819  56.971  1.00  0.00     0.049 C 
BRANCH   9  10
HETATM   10  C   UNL     1       3.553  -5.977  57.593  1.00  0.00     0.117 C 
BRANCH  10  11
HETATM   11  C   UNL     1       2.216  -5.518  58.123  1.00  0.00     0.172 C 
HETATM   12  O   UNL     1       2.234  -5.271  59.455  1.00  0.00    -0.648 OA
HETATM   13  O   UNL     1       1.224  -5.360  57.423  1.00  0.00    -0.648 OA
ENDBRANCH  10  11
ENDBRANCH   9  10
ENDBRANCH   5   9
BRANCH   8  14
HETATM   14  O   UNL     1       8.732  -3.141  60.094  1.00  0.00    -0.358 OA
HETATM   15  H   UNL     1       8.866  -3.513  60.944  1.00  0.00     0.217 HD
ENDBRANCH   8  14
ENDBRANCH   1   3
TORSDOF 5
ENDMDL
MODEL 4
REMARK VINA RESULT:      -5.9      1.211      2.228
REMARK  5 active torsions:
REMARK  status: ('A' for Active; 'I' for Inactive)
REMARK    1  A    between atoms: O_1  and  C_10 
REMARK    2  A    between atoms: O_2  and  C_12 
REMARK    3  A    between atoms: C_5  and  C_6 
REMARK    4  A    between atoms: C_5  and  C_7 
REMARK    5  A    between atoms: C_7  and  C_13 
ROOT
HETATM    1  O   UNL     1       6.593  -0.268  56.277  1.00  0.00    -0.358 OA
HETATM    2  H   UNL     1       5.826   0.267  56.224  1.00  0.00     0.217 HD
ENDROOT
BRANCH   1   3
HETATM    3  C   UNL     1       6.540  -1.472  56.914  1.00  0.00     0.099 A 
HETATM    4  C   UNL     1       5.545  -2.386  56.571  1.00  0.00     0.046 A 
HETATM    5  C   UNL     1       5.479  -3.621  57.216  1.00  0.00    -0.055 A 
HETATM    6  C   UNL     1       6.410  -3.941  58.204  1.00  0.00     0.010 A 
HETATM    7  C   UNL     1       7.405  -3.027  58.548  1.00  0.00     0.040 A 
HETATM    8  C   UNL     1       7.471  -1.792  57.902  1.00  0.00     0.098 A 
BRANCH   5   9
HETATM    9  C   UNL     1       4.415  -4.599  56.848  1.00  0.00     0.049 C 
BRANCH   9  10
HETATM   10  C   UNL     1       3.450  -4.921  57.996  1.00  0.00     0.117 C 
BRANCH  10  11
HETATM   11  C   UNL     1       3.584  -6.354  58.451  1.00  0.00     0.172 C 
HETATM   12  O   UNL     1       4.149  -6.466  59.678  1.00  0.00    -0.648 OA
HETATM   13  O   UNL     1       3.201  -7.315  57.796  1.00  0.00    -0.648 OA
ENDBRANCH  10  11
ENDBRANCH   9  10
ENDBRANCH   5   9
BRANCH   8  14
HETATM   14  O   UNL     1       8.446  -0.906  58.247  1.00  0.00    -0.358 OA
HETATM   15  H   UNL     1       9.262  -1.216  58.589  1.00  0.00     0.217 HD
ENDBRANCH   8  14
ENDBRANCH   1   3
TORSDOF 5
ENDMDL
MODEL 5
REMARK VINA RESULT:      -5.7      2.163      4.623
REMARK  5 active torsions:
REMARK  status: ('A' for Active; 'I' for Inactive)
REMARK    1  A    between atoms: O_1  and  C_10 
REMARK    2  A    between atoms: O_2  and  C_12 
REMARK    3  A    between atoms: C_5  and  C_6 
REMARK    4  A    between atoms: C_5  and  C_7 
REMARK    5  A    between atoms: C_7  and  C_13 
ROOT
HETATM    1  O   UNL     1       6.969  -4.647  60.496  1.00  0.00    -0.358 OA
HETATM    2  H   UNL     1       6.600  -4.448  61.334  1.00  0.00     0.217 HD
ENDROOT
BRANCH   1   3
HETATM    3  C   UNL     1       6.305  -4.295  59.359  1.00  0.00     0.099 A 
HETATM    4  C   UNL     1       6.703  -3.159  58.657  1.00  0.00     0.046 A 
HETATM    5  C   UNL     1       6.031  -2.788  57.492  1.00  0.00    -0.055 A 
HETATM    6  C   UNL     1       4.961  -3.555  57.030  1.00  0.00     0.010 A 
HETATM    7  C   UNL     1       4.564  -4.691  57.733  1.00  0.00     0.040 A 
HETATM    8  C   UNL     1       5.235  -5.062  58.897  1.00  0.00     0.098 A 
BRANCH   5   9
HETATM    9  C   UNL     1       6.457  -1.572  56.741  1.00  0.00     0.049 C 
BRANCH   9  10
HETATM   10  C   UNL     1       6.277  -0.267  57.526  1.00  0.00     0.117 C 
BRANCH  10  11
HETATM   11  C   UNL     1       5.218   0.614  56.907  1.00  0.00     0.172 C 
HETATM   12  O   UNL     1       5.081   0.416  55.573  1.00  0.00    -0.648 OA
HETATM   13  O   UNL     1       4.535   1.406  57.543  1.00  0.00    -0.648 OA
ENDBRANCH  10  11
ENDBRANCH   9  10
ENDBRANCH   5   9
BRANCH   8  14
HETATM   14  O   UNL     1       4.837  -6.174  59.577  1.00  0.00    -0.358 OA
HETATM   15  H   UNL     1       4.494  -6.910  59.110  1.00  0.00     0.217 HD
ENDBRANCH   8  14
ENDBRANCH   1   3
TORSDOF 5
ENDMDL
MODEL 6
REMARK VINA RESULT:      -5.7      1.456      5.093
REMARK  5 active torsions:
REMARK  status: ('A' for Active; 'I' for Inactive)
REMARK    1  A    between atoms: O_1  and  C_10 
REMARK    2  A    between atoms: O_2  and  C_12 
REMARK    3  A    between atoms: C_5  and  C_6 
REMARK    4  A    between atoms: C_5  and  C_7 
REMARK    5  A    between atoms: C_7  and  C_13 
ROOT
HETATM    1  O   UNL     1       3.759  -6.645  59.772  1.00  0.00    -0.358 OA
HETATM    2  H   UNL     1       3.761  -6.226  60.610  1.00  0.00     0.217 HD
ENDROOT
BRANCH   1   3
HETATM    3  C   UNL     1       4.154  -5.955  58.666  1.00  0.00     0.099 A 
HETATM    4  C   UNL     1       5.183  -5.020  58.771  1.00  0.00     0.046 A 
HETATM    5  C   UNL     1       5.596  -4.307  57.646  1.00  0.00    -0.055 A 
HETATM    6  C   UNL     1       4.979  -4.529  56.415  1.00  0.00     0.010 A 
HETATM    7  C   UNL     1       3.950  -5.464  56.309  1.00  0.00     0.040 A 
HETATM    8  C   UNL     1       3.538  -6.178  57.434  1.00  0.00     0.098 A 
BRANCH   5   9
HETATM    9  C   UNL     1       6.697  -3.307  57.760  1.00  0.00     0.049 C 
BRANCH   9  10
HETATM   10  C   UNL     1       6.484  -2.054  56.901  1.00  0.00     0.117 C 
BRANCH  10  11
HETATM   11  C   UNL     1       6.706  -0.790  57.696  1.00  0.00     0.172 C 
HETATM   12  O   UNL     1       7.858  -0.811  58.409  1.00  0.00    -0.648 OA
HETATM   13  O   UNL     1       5.942   0.167  57.680  1.00  0.00    -0.648 OA
ENDBRANCH  10  11
ENDBRANCH   9  10
ENDBRANCH   5   9
BRANCH   8  14
HETATM   14  O   UNL     1       2.530  -7.087  57.320  1.00  0.00    -0.358 OA
HETATM   15  H   UNL     1       2.269  -7.393  56.473  1.00  0.00     0.217 HD
ENDBRANCH   8  14
ENDBRANCH   1   3
TORSDOF 5
ENDMDL
MODEL 7
REMARK VINA RESULT:      -5.7      1.371      5.049
REMARK  5 active torsions:
REMARK  status: ('A' for Active; 'I' for Inactive)
REMARK    1  A    between atoms: O_1  and  C_10 
REMARK    2  A    between atoms: O_2  and  C_12 
REMARK    3  A    between atoms: C_5  and  C_6 
REMARK    4  A    between atoms: C_5  and  C_7 
REMARK    5  A    between atoms: C_7  and  C_13 
ROOT
HETATM    1  O   UNL     1       4.333  -6.598  59.872  1.00  0.00    -0.358 OA
HETATM    2  H   UNL     1       4.342  -6.080  60.653  1.00  0.00     0.217 HD
ENDROOT
BRANCH   1   3
HETATM    3  C   UNL     1       4.295  -5.990  58.653  1.00  0.00     0.099 A 
HETATM    4  C   UNL     1       4.991  -4.798  58.459  1.00  0.00     0.046 A 
HETATM    5  C   UNL     1       4.959  -4.166  57.216  1.00  0.00    -0.055 A 
HETATM    6  C   UNL     1       4.230  -4.728  56.167  1.00  0.00     0.010 A 
HETATM    7  C   UNL     1       3.534  -5.920  56.361  1.00  0.00     0.040 A 
HETATM    8  C   UNL     1       3.567  -6.552  57.604  1.00  0.00     0.098 A 
BRANCH   5   9
HETATM    9  C   UNL     1       5.704  -2.891  57.008  1.00  0.00     0.049 C 
BRANCH   9  10
HETATM   10  C   UNL     1       7.222  -3.029  57.175  1.00  0.00     0.117 C 
BRANCH  10  11
HETATM   11  C   UNL     1       7.732  -2.212  58.338  1.00  0.00     0.172 C 
HETATM   12  O   UNL     1       8.050  -2.971  59.415  1.00  0.00    -0.648 OA
HETATM   13  O   UNL     1       7.869  -0.996  58.308  1.00  0.00    -0.648 OA
ENDBRANCH  10  11
ENDBRANCH   9  10
ENDBRANCH   5   9
BRANCH   8  14
HETATM   14  O   UNL     1       2.881  -7.715  57.783  1.00  0.00    -0.358 OA
HETATM   15  H   UNL     1       3.263  -8.412  58.281  1.00  0.00     0.217 HD
ENDBRANCH   8  14
ENDBRANCH   1   3
TORSDOF 5
ENDMDL
MODEL 8
REMARK VINA RESULT:      -5.5      2.599      4.921
REMARK  5 active torsions:
REMARK  status: ('A' for Active; 'I' for Inactive)
REMARK    1  A    between atoms: O_1  and  C_10 
REMARK    2  A    between atoms: O_2  and  C_12 
REMARK    3  A    between atoms: C_5  and  C_6 
REMARK    4  A    between atoms: C_5  and  C_7 
REMARK    5  A    between atoms: C_7  and  C_13 
ROOT
HETATM    1  O   UNL     1       8.618  -3.143  59.863  1.00  0.00    -0.358 OA
HETATM    2  H   UNL     1       8.967  -3.863  60.350  1.00  0.00     0.217 HD
ENDROOT
BRANCH   1   3
HETATM    3  C   UNL     1       7.679  -3.362  58.901  1.00  0.00     0.099 A 
HETATM    4  C   UNL     1       7.816  -2.748  57.657  1.00  0.00     0.046 A 
HETATM    5  C   UNL     1       6.860  -2.964  56.664  1.00  0.00    -0.055 A 
HETATM    6  C   UNL     1       5.768  -3.794  56.916  1.00  0.00     0.010 A 
HETATM    7  C   UNL     1       5.631  -4.408  58.160  1.00  0.00     0.040 A 
HETATM    8  C   UNL     1       6.587  -4.193  59.153  1.00  0.00     0.098 A 
BRANCH   5   9
HETATM    9  C   UNL     1       7.007  -2.307  55.333  1.00  0.00     0.049 C 
BRANCH   9  10
HETATM   10  C   UNL     1       5.966  -1.213  55.066  1.00  0.00     0.117 C 
BRANCH  10  11
HETATM   11  C   UNL     1       6.306  -0.408  53.835  1.00  0.00     0.172 C 
HETATM   12  O   UNL     1       7.174  -1.045  53.012  1.00  0.00    -0.648 OA
HETATM   13  O   UNL     1       5.831   0.693  53.589  1.00  0.00    -0.648 OA
ENDBRANCH  10  11
ENDBRANCH   9  10
ENDBRANCH   5   9
BRANCH   8  14
HETATM   14  O   UNL     1       6.442  -4.796  60.365  1.00  0.00    -0.358 OA
HETATM   15  H   UNL     1       6.467  -4.284  61.150  1.00  0.00     0.217 HD
ENDBRANCH   8  14
ENDBRANCH   1   3
TORSDOF 5
ENDMDL
MODEL 9
REMARK VINA RESULT:      -5.4      2.594      3.498
REMARK  5 active torsions:
REMARK  status: ('A' for Active; 'I' for Inactive)
REMARK    1  A    between atoms: O_1  and  C_10 
REMARK    2  A    between atoms: O_2  and  C_12 
REMARK    3  A    between atoms: C_5  and  C_6 
REMARK    4  A    between atoms: C_5  and  C_7 
REMARK    5  A    between atoms: C_7  and  C_13 
ROOT
HETATM    1  O   UNL     1       8.365  -1.737  57.959  1.00  0.00    -0.358 OA
HETATM    2  H   UNL     1       9.143  -1.647  58.472  1.00  0.00     0.217 HD
ENDROOT
BRANCH   1   3
HETATM    3  C   UNL     1       7.476  -2.732  58.239  1.00  0.00     0.099 A 
HETATM    4  C   UNL     1       6.448  -3.006  57.338  1.00  0.00     0.046 A 
HETATM    5  C   UNL     1       5.532  -4.020  57.614  1.00  0.00    -0.055 A 
HETATM    6  C   UNL     1       5.644  -4.761  58.791  1.00  0.00     0.010 A 
HETATM    7  C   UNL     1       6.673  -4.486  59.692  1.00  0.00     0.040 A 
HETATM    8  C   UNL     1       7.589  -3.472  59.416  1.00  0.00     0.098 A 
BRANCH   5   9
HETATM    9  C   UNL     1       4.432  -4.314  56.650  1.00  0.00     0.049 C 
BRANCH   9  10
HETATM   10  C   UNL     1       4.833  -4.130  55.182  1.00  0.00     0.117 C 
BRANCH  10  11
HETATM   11  C   UNL     1       3.982  -3.087  54.498  1.00  0.00     0.172 C 
HETATM   12  O   UNL     1       2.763  -3.557  54.135  1.00  0.00    -0.648 OA
HETATM   13  O   UNL     1       4.340  -1.931  54.312  1.00  0.00    -0.648 OA
ENDBRANCH  10  11
ENDBRANCH   9  10
ENDBRANCH   5   9
BRANCH   8  14
HETATM   14  O   UNL     1       8.589  -3.211  60.304  1.00  0.00    -0.358 OA
HETATM   15  H   UNL     1       8.788  -2.326  60.538  1.00  0.00     0.217 HD
ENDBRANCH   8  14
ENDBRANCH   1   3
TORSDOF 5
ENDMDL
