MODEL 1
REMARK VINA RESULT:      -6.3      0.000      0.000
REMARK  5 active torsions:
REMARK  status: ('A' for Active; 'I' for Inactive)
REMARK    1  A    between atoms: O_1  and  C_10 
REMARK    2  A    between atoms: O_2  and  C_12 
REMARK    3  A    between atoms: C_5  and  C_6 
REMARK    4  A    between atoms: C_5  and  C_7 
REMARK    5  A    between atoms: C_7  and  C_13 
ROOT
HETATM    1  O   UNL     1       5.402  -9.617  58.454  1.00  0.00    -0.358 OA
HETATM    2  H   UNL     1       6.048  -8.991  58.712  1.00  0.00     0.217 HD
ENDROOT
BRANCH   1   3
HETATM    3  C   UNL     1       4.734  -9.461  57.277  1.00  0.00     0.099 A 
HETATM    4  C   UNL     1       3.645 -10.283  56.992  1.00  0.00     0.046 A 
HETATM    5  C   UNL     1       2.954 -10.134  55.789  1.00  0.00    -0.055 A 
HETATM    6  C   UNL     1       3.352  -9.161  54.873  1.00  0.00     0.010 A 
HETATM    7  C   UNL     1       4.441  -8.339  55.157  1.00  0.00     0.040 A 
HETATM    8  C   UNL     1       5.132  -8.488  56.360  1.00  0.00     0.098 A 
BRANCH   5   9
HETATM    9  C   UNL     1       1.788 -11.014  55.485  1.00  0.00     0.049 C 
BRANCH   9  10
HETATM   10  C   UNL     1       0.692 -10.324  54.665  1.00  0.00     0.117 C 
BRANCH  10  11
HETATM   11  C   UNL     1      -0.683 -10.614  55.218  1.00  0.00     0.172 C 
HETATM   12  O   UNL     1      -0.772 -10.393  56.552  1.00  0.00    -0.648 OA
HETATM   13  O   UNL     1      -1.628 -10.984  54.533  1.00  0.00    -0.648 OA
ENDBRANCH  10  11
ENDBRANCH   9  10
ENDBRANCH   5   9
BRANCH   8  14
HETATM   14  O   UNL     1       6.196  -7.680  56.627  1.00  0.00    -0.358 OA
HETATM   15  H   UNL     1       6.736  -7.369  55.927  1.00  0.00     0.217 HD
ENDBRANCH   8  14
ENDBRANCH   1   3
TORSDOF 5
ENDMDL
MODEL 2
REMARK VINA RESULT:      -6.2      1.650      2.018
REMARK  5 active torsions:
REMARK  status: ('A' for Active; 'I' for Inactive)
REMARK    1  A    between atoms: O_1  and  C_10 
REMARK    2  A    between atoms: O_2  and  C_12 
REMARK    3  A    between atoms: C_5  and  C_6 
REMARK    4  A    between atoms: C_5  and  C_7 
REMARK    5  A    between atoms: C_7  and  C_13 
ROOT
HETATM    1  O   UNL     1       6.304  -7.508  56.720  1.00  0.00    -0.358 OA
HETATM    2  H   UNL     1       6.484  -7.039  57.510  1.00  0.00     0.217 HD
ENDROOT
BRANCH   1   3
HETATM    3  C   UNL     1       5.017  -7.678  56.307  1.00  0.00     0.099 A 
HETATM    4  C   UNL     1       4.465  -8.958  56.293  1.00  0.00     0.046 A 
HETATM    5  C   UNL     1       3.149  -9.146  55.871  1.00  0.00    -0.055 A 
HETATM    6  C   UNL     1       2.385  -8.052  55.463  1.00  0.00     0.010 A 
HETATM    7  C   UNL     1       2.937  -6.772  55.477  1.00  0.00     0.040 A 
HETATM    8  C   UNL     1       4.253  -6.584  55.899  1.00  0.00     0.098 A 
BRANCH   5   9
HETATM    9  C   UNL     1       2.558 -10.515  55.857  1.00  0.00     0.049 C 
BRANCH   9  10
HETATM   10  C   UNL     1       1.735 -10.820  54.600  1.00  0.00     0.117 C 
BRANCH  10  11
HETATM   11  C   UNL     1       0.715 -11.905  54.851  1.00  0.00     0.172 C 
HETATM   12  O   UNL     1       0.405 -12.044  56.163  1.00  0.00    -0.648 OA
HETATM   13  O   UNL     1       0.201 -12.573  53.964  1.00  0.00    -0.648 OA
ENDBRANCH  10  11
ENDBRANCH   9  10
ENDBRANCH   5   9
BRANCH   8  14
HETATM   14  O   UNL     1       4.783  -5.330  55.906  1.00  0.00    -0.358 OA
HETATM   15  H   UNL     1       4.707  -4.794  56.671  1.00  0.00     0.217 HD
ENDBRANCH   8  14
ENDBRANCH   1   3
TORSDOF 5
ENDMDL
MODEL 3
REMARK VINA RESULT:      -6.1      3.110      4.975
REMARK  5 active torsions:
REMARK  status: ('A' for Active; 'I' for Inactive)
REMARK    1  A    between atoms: O_1  and  C_10 
REMARK    2  A    between atoms: O_2  and  C_12 
REMARK    3  A    between atoms: C_5  and  C_6 
REMARK    4  A    between atoms: C_5  and  C_7 
REMARK    5  A    between atoms: C_7  and  C_13 
ROOT
HETATM    1  O   UNL     1       5.187  -6.342  52.273  1.00  0.00    -0.358 OA
HETATM    2  H   UNL     1       5.902  -6.946  52.245  1.00  0.00     0.217 HD
ENDROOT
BRANCH   1   3
HETATM    3  C   UNL     1       4.496  -6.157  53.432  1.00  0.00     0.099 A 
HETATM    4  C   UNL     1       3.988  -7.263  54.112  1.00  0.00     0.046 A 
HETATM    5  C   UNL     1       3.278  -7.087  55.299  1.00  0.00    -0.055 A 
HETATM    6  C   UNL     1       3.076  -5.803  55.807  1.00  0.00     0.010 A 
HETATM    7  C   UNL     1       3.584  -4.697  55.127  1.00  0.00     0.040 A 
HETATM    8  C   UNL     1       4.294  -4.873  53.940  1.00  0.00     0.098 A 
BRANCH   5   9
HETATM    9  C   UNL     1       2.735  -8.271  56.026  1.00  0.00     0.049 C 
BRANCH   9  10
HETATM   10  C   UNL     1       3.650  -9.500  55.974  1.00  0.00     0.117 C 
BRANCH  10  11
HETATM   11  C   UNL     1       4.606  -9.533  57.141  1.00  0.00     0.172 C 
HETATM   12  O   UNL     1       4.542 -10.691  57.843  1.00  0.00    -0.648 OA
HETATM   13  O   UNL     1       5.379  -8.623  57.414  1.00  0.00    -0.648 OA
ENDBRANCH  10  11
ENDBRANCH   9  10
ENDBRANCH   5   9
BRANCH   8  14
HETATM   14  O   UNL     1       4.784  -3.785  53.284  1.00  0.00    -0.358 OA
HETATM   15  H   UNL     1       5.665  -3.788  52.965  1.00  0.00     0.217 HD
ENDBRANCH   8  14
ENDBRANCH   1   3
TORSDOF 5
ENDMDL
MODEL 4
REMARK VINA RESULT:      -6.1      1.427      1.437
REMARK  5 active torsions:
REMARK  status: ('A' for Active; 'I' for Inactive)
REMARK    1  A    between atoms: O_1  and  C_10 
REMARK    2  A    between atoms: O_2  and  C_12 
REMARK    3  A    between atoms: C_5  and  C_6 
REMARK    4  A    between atoms: C_5  and  C_7 
REMARK    5  A    between atoms: C_7  and  C_13 
ROOT
HETATM    1  O   UNL     1       5.972  -9.497  57.982  1.00  0.00    -0.358 OA
HETATM    2  H   UNL     1       5.970 -10.390  58.262  1.00  0.00     0.217 HD
ENDROOT
BRANCH   1   3
HETATM    3  C   UNL     1       5.202  -9.112  56.926  1.00  0.00     0.099 A 
HETATM    4  C   UNL     1       3.876  -9.535  56.854  1.00  0.00     0.046 A 
HETATM    5  C   UNL     1       3.078  -9.148  55.777  1.00  0.00    -0.055 A 
HETATM    6  C   UNL     1       3.607  -8.338  54.773  1.00  0.00     0.010 A 
HETATM    7  C   UNL     1       4.934  -7.916  54.844  1.00  0.00     0.040 A 
HETATM    8  C   UNL     1       5.732  -8.302  55.921  1.00  0.00     0.098 A 
BRANCH   5   9
HETATM    9  C   UNL     1       1.659  -9.600  55.701  1.00  0.00     0.049 C 
BRANCH   9  10
HETATM   10  C   UNL     1       1.334 -10.405  54.437  1.00  0.00     0.117 C 
BRANCH  10  11
HETATM   11  C   UNL     1       0.944 -11.826  54.765  1.00  0.00     0.172 C 
HETATM   12  O   UNL     1       1.130 -12.136  56.071  1.00  0.00    -0.648 OA
HETATM   13  O   UNL     1       0.482 -12.611  53.947  1.00  0.00    -0.648 OA
ENDBRANCH  10  11
ENDBRANCH   9  10
ENDBRANCH   5   9
BRANCH   8  14
HETATM   14  O   UNL     1       7.027  -7.884  55.980  1.00  0.00    -0.358 OA
HETATM   15  H   UNL     1       7.510  -7.967  56.779  1.00  0.00     0.217 HD
ENDBRANCH   8  14
ENDBRANCH   1   3
TORSDOF 5
ENDMDL
MODEL 5
REMARK VINA RESULT:      -6.1      0.759      1.893
REMARK  5 active torsions:
REMARK  status: ('A' for Active; 'I' for Inactive)
REMARK    1  A    between atoms: O_1  and  C_10 
REMARK    2  A    between atoms: O_2  and  C_12 
REMARK    3  A    between atoms: C_5  and  C_6 
REMARK    4  A    between atoms: C_5  and  C_7 
REMARK    5  A    between atoms: C_7  and  C_13 
ROOT
HETATM    1  O   UNL     1       6.044  -7.646  56.483  1.00  0.00    -0.358 OA
HETATM    2  H   UNL     1       6.290  -7.213  55.689  1.00  0.00     0.217 HD
ENDROOT
BRANCH   1   3
HETATM    3  C   UNL     1       5.072  -8.601  56.464  1.00  0.00     0.099 A 
HETATM    4  C   UNL     1       4.125  -8.595  55.442  1.00  0.00     0.046 A 
HETATM    5  C   UNL     1       3.124  -9.567  55.413  1.00  0.00    -0.055 A 
HETATM    6  C   UNL     1       3.073 -10.545  56.406  1.00  0.00     0.010 A 
HETATM    7  C   UNL     1       4.021 -10.551  57.428  1.00  0.00     0.040 A 
HETATM    8  C   UNL     1       5.021  -9.579  57.458  1.00  0.00     0.098 A 
BRANCH   5   9
HETATM    9  C   UNL     1       2.111  -9.561  54.319  1.00  0.00     0.049 C 
BRANCH   9  10
HETATM   10  C   UNL     1       1.266 -10.839  54.253  1.00  0.00     0.117 C 
BRANCH  10  11
HETATM   11  C   UNL     1      -0.165 -10.583  54.662  1.00  0.00     0.172 C 
HETATM   12  O   UNL     1      -0.373 -10.761  55.990  1.00  0.00    -0.648 OA
HETATM   13  O   UNL     1      -1.042 -10.227  53.886  1.00  0.00    -0.648 OA
ENDBRANCH  10  11
ENDBRANCH   9  10
ENDBRANCH   5   9
BRANCH   8  14
HETATM   14  O   UNL     1       5.941  -9.593  58.462  1.00  0.00    -0.358 OA
HETATM   15  H   UNL     1       6.327 -10.403  58.733  1.00  0.00     0.217 HD
ENDBRANCH   8  14
ENDBRANCH   1   3
TORSDOF 5
ENDMDL
MODEL 6
REMARK VINA RESULT:      -6.0      0.993      2.262
REMARK  5 active torsions:
REMARK  status: ('A' for Active; 'I' for Inactive)
REMARK    1  A    between atoms: O_1  and  C_10 
REMARK    2  A    between atoms: O_2  and  C_12 
REMARK    3  A    between atoms: C_5  and  C_6 
REMARK    4  A    between atoms: C_5  and  C_7 
REMARK    5  A    between atoms: C_7  and  C_13 
ROOT
HETATM    1  O   UNL     1       5.462  -6.830  54.237  1.00  0.00    -0.358 OA
HETATM    2  H   UNL     1       4.979  -6.186  53.758  1.00  0.00     0.217 HD
ENDROOT
BRANCH   1   3
HETATM    3  C   UNL     1       4.802  -7.827  54.892  1.00  0.00     0.099 A 
HETATM    4  C   UNL     1       3.765  -8.501  54.249  1.00  0.00     0.046 A 
HETATM    5  C   UNL     1       3.082  -9.522  54.909  1.00  0.00    -0.055 A 
HETATM    6  C   UNL     1       3.437  -9.869  56.213  1.00  0.00     0.010 A 
HETATM    7  C   UNL     1       4.474  -9.195  56.856  1.00  0.00     0.040 A 
HETATM    8  C   UNL     1       5.158  -8.174  56.196  1.00  0.00     0.098 A 
BRANCH   5   9
HETATM    9  C   UNL     1       1.973 -10.244  54.220  1.00  0.00     0.049 C 
BRANCH   9  10
HETATM   10  C   UNL     1       1.222 -11.228  55.125  1.00  0.00     0.117 C 
BRANCH  10  11
HETATM   11  C   UNL     1      -0.156 -10.721  55.478  1.00  0.00     0.172 C 
HETATM   12  O   UNL     1      -1.051 -10.887  54.474  1.00  0.00    -0.648 OA
HETATM   13  O   UNL     1      -0.444 -10.234  56.563  1.00  0.00    -0.648 OA
ENDBRANCH  10  11
ENDBRANCH   9  10
ENDBRANCH   5   9
BRANCH   8  14
HETATM   14  O   UNL     1       6.168  -7.520  56.834  1.00  0.00    -0.358 OA
HETATM   15  H   UNL     1       6.127  -6.591  56.947  1.00  0.00     0.217 HD
ENDBRANCH   8  14
ENDBRANCH   1   3
TORSDOF 5
ENDMDL
MODEL 7
REMARK VINA RESULT:      -6.0      1.533      2.447
REMARK  5 active torsions:
REMARK  status: ('A' for Active; 'I' for Inactive)
REMARK    1  A    between atoms: O_1  and  C_10 
REMARK    2  A    between atoms: O_2  and  C_12 
REMARK    3  A    between atoms: C_5  and  C_6 
REMARK    4  A    between atoms: C_5  and  C_7 
REMARK    5  A    between atoms: C_7  and  C_13 
ROOT
HETATM    1  O   UNL     1       5.806  -6.781  54.032  1.00  0.00    -0.358 OA
HETATM    2  H   UNL     1       6.246  -6.128  54.538  1.00  0.00     0.217 HD
ENDROOT
BRANCH   1   3
HETATM    3  C   UNL     1       5.038  -7.721  54.652  1.00  0.00     0.099 A 
HETATM    4  C   UNL     1       3.983  -8.312  53.958  1.00  0.00     0.046 A 
HETATM    5  C   UNL     1       3.189  -9.274  54.582  1.00  0.00    -0.055 A 
HETATM    6  C   UNL     1       3.452  -9.646  55.901  1.00  0.00     0.010 A 
HETATM    7  C   UNL     1       4.507  -9.055  56.595  1.00  0.00     0.040 A 
HETATM    8  C   UNL     1       5.301  -8.093  55.971  1.00  0.00     0.098 A 
BRANCH   5   9
HETATM    9  C   UNL     1       2.061  -9.906  53.839  1.00  0.00     0.049 C 
BRANCH   9  10
HETATM   10  C   UNL     1       0.858 -10.254  54.723  1.00  0.00     0.117 C 
BRANCH  10  11
HETATM   11  C   UNL     1       0.706 -11.746  54.895  1.00  0.00     0.172 C 
HETATM   12  O   UNL     1       0.576 -12.116  56.193  1.00  0.00    -0.648 OA
HETATM   13  O   UNL     1       0.676 -12.539  53.963  1.00  0.00    -0.648 OA
ENDBRANCH  10  11
ENDBRANCH   9  10
ENDBRANCH   5   9
BRANCH   8  14
HETATM   14  O   UNL     1       6.327  -7.521  56.659  1.00  0.00    -0.358 OA
HETATM   15  H   UNL     1       6.174  -6.759  57.182  1.00  0.00     0.217 HD
ENDBRANCH   8  14
ENDBRANCH   1   3
TORSDOF 5
ENDMDL
MODEL 8
REMARK VINA RESULT:      -6.0      0.866      1.162
REMARK  5 active torsions:
REMARK  status: ('A' for Active; 'I' for Inactive)
REMARK    1  A    between atoms: O_1  and  C_10 
REMARK    2  A    between atoms: O_2  and  C_12 
REMARK    3  A    between atoms: C_5  and  C_6 
REMARK    4  A    between atoms: C_5  and  C_7 
REMARK    5  A    between atoms: C_7  and  C_13 
ROOT
HETATM    1  O   UNL     1       5.384  -9.583  58.481  1.00  0.00    -0.358 OA
HETATM    2  H   UNL     1       5.505  -8.846  59.045  1.00  0.00     0.217 HD
ENDROOT
BRANCH   1   3
HETATM    3  C   UNL     1       4.719  -9.435  57.300  1.00  0.00     0.099 A 
HETATM    4  C   UNL     1       3.628 -10.256  57.020  1.00  0.00     0.046 A 
HETATM    5  C   UNL     1       2.941 -10.115  55.815  1.00  0.00    -0.055 A 
HETATM    6  C   UNL     1       3.345  -9.152  54.890  1.00  0.00     0.010 A 
HETATM    7  C   UNL     1       4.436  -8.331  55.171  1.00  0.00     0.040 A 
HETATM    8  C   UNL     1       5.123  -8.472  56.376  1.00  0.00     0.098 A 
BRANCH   5   9
HETATM    9  C   UNL     1       1.773 -10.994  55.516  1.00  0.00     0.049 C 
BRANCH   9  10
HETATM   10  C   UNL     1       1.377 -11.011  54.034  1.00  0.00     0.117 C 
BRANCH  10  11
HETATM   11  C   UNL     1      -0.069 -10.622  53.839  1.00  0.00     0.172 C 
HETATM   12  O   UNL     1      -0.221  -9.548  53.027  1.00  0.00    -0.648 OA
HETATM   13  O   UNL     1      -1.009 -11.226  54.339  1.00  0.00    -0.648 OA
ENDBRANCH  10  11
ENDBRANCH   9  10
ENDBRANCH   5   9
BRANCH   8  14
HETATM   14  O   UNL     1       6.189  -7.665  56.638  1.00  0.00    -0.358 OA
HETATM   15  H   UNL     1       6.067  -6.868  57.116  1.00  0.00     0.217 HD
ENDBRANCH   8  14
ENDBRANCH   1   3
TORSDOF 5
ENDMDL
MODEL 9
REMARK VINA RESULT:      -5.9      1.544      2.514
REMARK  5 active torsions:
REMARK  status: ('A' for Active; 'I' for Inactive)
REMARK    1  A    between atoms: O_1  and  C_10 
REMARK    2  A    between atoms: O_2  and  C_12 
REMARK    3  A    between atoms: C_5  and  C_6 
REMARK    4  A    between atoms: C_5  and  C_7 
REMARK    5  A    between atoms: C_7  and  C_13 
ROOT
HETATM    1  O   UNL     1       6.191  -7.707  56.426  1.00  0.00    -0.358 OA
HETATM    2  H   UNL     1       7.059  -8.010  56.249  1.00  0.00     0.217 HD
ENDROOT
BRANCH   1   3
HETATM    3  C   UNL     1       5.140  -8.571  56.351  1.00  0.00     0.099 A 
HETATM    4  C   UNL     1       4.304  -8.539  55.235  1.00  0.00     0.046 A 
HETATM    5  C   UNL     1       3.224  -9.417  55.148  1.00  0.00    -0.055 A 
HETATM    6  C   UNL     1       2.981 -10.328  56.176  1.00  0.00     0.010 A 
HETATM    7  C   UNL     1       3.816 -10.360  57.292  1.00  0.00     0.040 A 
HETATM    8  C   UNL     1       4.896  -9.482  57.380  1.00  0.00     0.098 A 
BRANCH   5   9
HETATM    9  C   UNL     1       2.331  -9.383  53.954  1.00  0.00     0.049 C 
BRANCH   9  10
HETATM   10  C   UNL     1       1.053 -10.215  54.115  1.00  0.00     0.117 C 
BRANCH  10  11
HETATM   11  C   UNL     1       1.025 -11.384  53.160  1.00  0.00     0.172 C 
HETATM   12  O   UNL     1       0.702 -12.552  53.766  1.00  0.00    -0.648 OA
HETATM   13  O   UNL     1       1.244 -11.287  51.959  1.00  0.00    -0.648 OA
ENDBRANCH  10  11
ENDBRANCH   9  10
ENDBRANCH   5   9
BRANCH   8  14
HETATM   14  O   UNL     1       5.705  -9.520  58.475  1.00  0.00    -0.358 OA
HETATM   15  H   UNL     1       6.610  -9.292  58.397  1.00  0.00     0.217 HD
ENDBRANCH   8  14
ENDBRANCH   1   3
TORSDOF 5
ENDMDL
