MODEL 1
REMARK VINA RESULT:      -6.3      0.000      0.000
REMARK  5 active torsions:
REMARK  status: ('A' for Active; 'I' for Inactive)
REMARK    1  A    between atoms: O_1  and  C_10 
REMARK    2  A    between atoms: O_2  and  C_12 
REMARK    3  A    between atoms: C_5  and  C_6 
REMARK    4  A    between atoms: C_5  and  C_7 
REMARK    5  A    between atoms: C_7  and  C_13 
ROOT
HETATM    1  O   UNL     1       8.422  -3.131  59.798  1.00  0.00    -0.358 OA
HETATM    2  H   UNL     1       8.210  -2.829  60.659  1.00  0.00     0.217 HD
ENDROOT
BRANCH   1   3
HETATM    3  C   UNL     1       7.502  -3.036  58.797  1.00  0.00     0.099 A 
HETATM    4  C   UNL     1       6.611  -4.086  58.583  1.00  0.00     0.046 A 
HETATM    5  C   UNL     1       5.665  -4.001  57.561  1.00  0.00    -0.055 A 
HETATM    6  C   UNL     1       5.612  -2.865  56.753  1.00  0.00     0.010 A 
HETATM    7  C   UNL     1       6.504  -1.815  56.967  1.00  0.00     0.040 A 
HETATM    8  C   UNL     1       7.449  -1.900  57.989  1.00  0.00     0.098 A 
BRANCH   5   9
HETATM    9  C   UNL     1       4.711  -5.125  57.332  1.00  0.00     0.049 C 
BRANCH   9  10
HETATM   10  C   UNL     1       3.252  -4.768  57.642  1.00  0.00     0.117 C 
BRANCH  10  11
HETATM   11  C   UNL     1       2.858  -5.195  59.035  1.00  0.00     0.172 C 
HETATM   12  O   UNL     1       3.563  -6.264  59.479  1.00  0.00    -0.648 OA
HETATM   13  O   UNL     1       2.009  -4.623  59.707  1.00  0.00    -0.648 OA
ENDBRANCH  10  11
ENDBRANCH   9  10
ENDBRANCH   5   9
BRANCH   8  14
HETATM   14  O   UNL     1       8.316  -0.869  58.188  1.00  0.00    -0.358 OA
HETATM   15  H   UNL     1       9.221  -1.043  58.358  1.00  0.00     0.217 HD
ENDBRANCH   8  14
ENDBRANCH   1   3
TORSDOF 5
ENDMDL
MODEL 2
REMARK VINA RESULT:      -6.1      2.549      4.533
REMARK  5 active torsions:
REMARK  status: ('A' for Active; 'I' for Inactive)
REMARK    1  A    between atoms: O_1  and  C_10 
REMARK    2  A    between atoms: O_2  and  C_12 
REMARK    3  A    between atoms: C_5  and  C_6 
REMARK    4  A    between atoms: C_5  and  C_7 
REMARK    5  A    between atoms: C_7  and  C_13 
ROOT
HETATM    1  O   UNL     1       9.195  -3.542  59.758  1.00  0.00    -0.358 OA
HETATM    2  H   UNL     1       9.706  -2.758  59.752  1.00  0.00     0.217 HD
ENDROOT
BRANCH   1   3
HETATM    3  C   UNL     1       7.897  -3.513  59.345  1.00  0.00     0.099 A 
HETATM    4  C   UNL     1       7.492  -2.545  58.427  1.00  0.00     0.046 A 
HETATM    5  C   UNL     1       6.165  -2.503  57.997  1.00  0.00    -0.055 A 
HETATM    6  C   UNL     1       5.245  -3.431  58.486  1.00  0.00     0.010 A 
HETATM    7  C   UNL     1       5.650  -4.399  59.403  1.00  0.00     0.040 A 
HETATM    8  C   UNL     1       6.977  -4.440  59.833  1.00  0.00     0.098 A 
BRANCH   5   9
HETATM    9  C   UNL     1       5.732  -1.467  57.015  1.00  0.00     0.049 C 
BRANCH   9  10
HETATM   10  C   UNL     1       5.943  -0.028  57.502  1.00  0.00     0.117 C 
BRANCH  10  11
HETATM   11  C   UNL     1       4.900   0.908  56.942  1.00  0.00     0.172 C 
HETATM   12  O   UNL     1       4.720   0.758  55.607  1.00  0.00    -0.648 OA
HETATM   13  O   UNL     1       4.263   1.703  57.621  1.00  0.00    -0.648 OA
ENDBRANCH  10  11
ENDBRANCH   9  10
ENDBRANCH   5   9
BRANCH   8  14
HETATM   14  O   UNL     1       7.361  -5.389  60.731  1.00  0.00    -0.358 OA
HETATM   15  H   UNL     1       7.023  -5.372  61.605  1.00  0.00     0.217 HD
ENDBRANCH   8  14
ENDBRANCH   1   3
TORSDOF 5
ENDMDL
MODEL 3
REMARK VINA RESULT:      -6.1      1.244      1.643
REMARK  5 active torsions:
REMARK  status: ('A' for Active; 'I' for Inactive)
REMARK    1  A    between atoms: O_1  and  C_10 
REMARK    2  A    between atoms: O_2  and  C_12 
REMARK    3  A    between atoms: C_5  and  C_6 
REMARK    4  A    between atoms: C_5  and  C_7 
REMARK    5  A    between atoms: C_7  and  C_13 
ROOT
HETATM    1  O   UNL     1       6.981  -4.277  60.889  1.00  0.00    -0.358 OA
HETATM    2  H   UNL     1       7.703  -4.826  61.123  1.00  0.00     0.217 HD
ENDROOT
BRANCH   1   3
HETATM    3  C   UNL     1       6.600  -4.171  59.585  1.00  0.00     0.099 A 
HETATM    4  C   UNL     1       5.525  -4.928  59.122  1.00  0.00     0.046 A 
HETATM    5  C   UNL     1       5.126  -4.829  57.789  1.00  0.00    -0.055 A 
HETATM    6  C   UNL     1       5.803  -3.973  56.920  1.00  0.00     0.010 A 
HETATM    7  C   UNL     1       6.879  -3.217  57.384  1.00  0.00     0.040 A 
HETATM    8  C   UNL     1       7.277  -3.315  58.717  1.00  0.00     0.098 A 
BRANCH   5   9
HETATM    9  C   UNL     1       3.975  -5.639  57.293  1.00  0.00     0.049 C 
BRANCH   9  10
HETATM   10  C   UNL     1       3.166  -6.309  58.410  1.00  0.00     0.117 C 
BRANCH  10  11
HETATM   11  C   UNL     1       1.917  -5.528  58.740  1.00  0.00     0.172 C 
HETATM   12  O   UNL     1       2.115  -4.605  59.712  1.00  0.00    -0.648 OA
HETATM   13  O   UNL     1       0.844  -5.690  58.174  1.00  0.00    -0.648 OA
ENDBRANCH  10  11
ENDBRANCH   9  10
ENDBRANCH   5   9
BRANCH   8  14
HETATM   14  O   UNL     1       8.330  -2.573  59.158  1.00  0.00    -0.358 OA
HETATM   15  H   UNL     1       8.319  -1.640  59.062  1.00  0.00     0.217 HD
ENDBRANCH   8  14
ENDBRANCH   1   3
TORSDOF 5
ENDMDL
MODEL 4
REMARK VINA RESULT:      -6.0      0.771      1.889
REMARK  5 active torsions:
REMARK  status: ('A' for Active; 'I' for Inactive)
REMARK    1  A    between atoms: O_1  and  C_10 
REMARK    2  A    between atoms: O_2  and  C_12 
REMARK    3  A    between atoms: C_5  and  C_6 
REMARK    4  A    between atoms: C_5  and  C_7 
REMARK    5  A    between atoms: C_7  and  C_13 
ROOT
HETATM    1  O   UNL     1       6.642  -0.732  56.053  1.00  0.00    -0.358 OA
HETATM    2  H   UNL     1       7.460  -0.331  55.836  1.00  0.00     0.217 HD
ENDROOT
BRANCH   1   3
HETATM    3  C   UNL     1       6.612  -1.807  56.890  1.00  0.00     0.099 A 
HETATM    4  C   UNL     1       5.711  -2.842  56.643  1.00  0.00     0.046 A 
HETATM    5  C   UNL     1       5.669  -3.948  57.493  1.00  0.00    -0.055 A 
HETATM    6  C   UNL     1       6.530  -4.018  58.588  1.00  0.00     0.010 A 
HETATM    7  C   UNL     1       7.431  -2.983  58.834  1.00  0.00     0.040 A 
HETATM    8  C   UNL     1       7.473  -1.877  57.985  1.00  0.00     0.098 A 
BRANCH   5   9
HETATM    9  C   UNL     1       4.705  -5.055  57.229  1.00  0.00     0.049 C 
BRANCH   9  10
HETATM   10  C   UNL     1       3.256  -4.711  57.594  1.00  0.00     0.117 C 
BRANCH  10  11
HETATM   11  C   UNL     1       2.926  -5.120  59.010  1.00  0.00     0.172 C 
HETATM   12  O   UNL     1       3.533  -6.274  59.380  1.00  0.00    -0.648 OA
HETATM   13  O   UNL     1       2.208  -4.468  59.756  1.00  0.00    -0.648 OA
ENDBRANCH  10  11
ENDBRANCH   9  10
ENDBRANCH   5   9
BRANCH   8  14
HETATM   14  O   UNL     1       8.356  -0.872  58.236  1.00  0.00    -0.358 OA
HETATM   15  H   UNL     1       9.270  -0.999  58.073  1.00  0.00     0.217 HD
ENDBRANCH   8  14
ENDBRANCH   1   3
TORSDOF 5
ENDMDL
MODEL 5
REMARK VINA RESULT:      -5.8      1.395      2.367
REMARK  5 active torsions:
REMARK  status: ('A' for Active; 'I' for Inactive)
REMARK    1  A    between atoms: O_1  and  C_10 
REMARK    2  A    between atoms: O_2  and  C_12 
REMARK    3  A    between atoms: C_5  and  C_6 
REMARK    4  A    between atoms: C_5  and  C_7 
REMARK    5  A    between atoms: C_7  and  C_13 
ROOT
HETATM    1  O   UNL     1       8.387  -2.126  57.490  1.00  0.00    -0.358 OA
HETATM    2  H   UNL     1       8.180  -1.212  57.480  1.00  0.00     0.217 HD
ENDROOT
BRANCH   1   3
HETATM    3  C   UNL     1       7.494  -3.022  57.995  1.00  0.00     0.099 A 
HETATM    4  C   UNL     1       6.422  -3.439  57.207  1.00  0.00     0.046 A 
HETATM    5  C   UNL     1       5.500  -4.355  57.713  1.00  0.00    -0.055 A 
HETATM    6  C   UNL     1       5.651  -4.854  59.007  1.00  0.00     0.010 A 
HETATM    7  C   UNL     1       6.723  -4.436  59.795  1.00  0.00     0.040 A 
HETATM    8  C   UNL     1       7.645  -3.520  59.289  1.00  0.00     0.098 A 
BRANCH   5   9
HETATM    9  C   UNL     1       4.353  -4.802  56.870  1.00  0.00     0.049 C 
BRANCH   9  10
HETATM   10  C   UNL     1       3.035  -4.936  57.642  1.00  0.00     0.117 C 
BRANCH  10  11
HETATM   11  C   UNL     1       2.535  -6.361  57.648  1.00  0.00     0.172 C 
HETATM   12  O   UNL     1       1.189  -6.448  57.516  1.00  0.00    -0.648 OA
HETATM   13  O   UNL     1       3.267  -7.339  57.737  1.00  0.00    -0.648 OA
ENDBRANCH  10  11
ENDBRANCH   9  10
ENDBRANCH   5   9
BRANCH   8  14
HETATM   14  O   UNL     1       8.687  -3.118  60.067  1.00  0.00    -0.358 OA
HETATM   15  H   UNL     1       9.412  -2.665  59.683  1.00  0.00     0.217 HD
ENDBRANCH   8  14
ENDBRANCH   1   3
TORSDOF 5
ENDMDL
MODEL 6
REMARK VINA RESULT:      -5.8      1.363      1.740
REMARK  5 active torsions:
REMARK  status: ('A' for Active; 'I' for Inactive)
REMARK    1  A    between atoms: O_1  and  C_10 
REMARK    2  A    between atoms: O_2  and  C_12 
REMARK    3  A    between atoms: C_5  and  C_6 
REMARK    4  A    between atoms: C_5  and  C_7 
REMARK    5  A    between atoms: C_7  and  C_13 
ROOT
HETATM    1  O   UNL     1       8.379  -1.487  57.978  1.00  0.00    -0.358 OA
HETATM    2  H   UNL     1       9.063  -1.770  58.552  1.00  0.00     0.217 HD
ENDROOT
BRANCH   1   3
HETATM    3  C   UNL     1       7.441  -2.375  57.546  1.00  0.00     0.099 A 
HETATM    4  C   UNL     1       6.847  -3.244  58.460  1.00  0.00     0.046 A 
HETATM    5  C   UNL     1       5.886  -4.159  58.030  1.00  0.00    -0.055 A 
HETATM    6  C   UNL     1       5.519  -4.203  56.685  1.00  0.00     0.010 A 
HETATM    7  C   UNL     1       6.113  -3.335  55.770  1.00  0.00     0.040 A 
HETATM    8  C   UNL     1       7.074  -2.420  56.201  1.00  0.00     0.098 A 
BRANCH   5   9
HETATM    9  C   UNL     1       5.250  -5.088  59.008  1.00  0.00     0.049 C 
BRANCH   9  10
HETATM   10  C   UNL     1       4.062  -5.870  58.435  1.00  0.00     0.117 C 
BRANCH  10  11
HETATM   11  C   UNL     1       2.743  -5.248  58.827  1.00  0.00     0.172 C 
HETATM   12  O   UNL     1       1.694  -5.758  58.138  1.00  0.00    -0.648 OA
HETATM   13  O   UNL     1       2.626  -4.391  59.694  1.00  0.00    -0.648 OA
ENDBRANCH  10  11
ENDBRANCH   9  10
ENDBRANCH   5   9
BRANCH   8  14
HETATM   14  O   UNL     1       7.649  -1.577  55.299  1.00  0.00    -0.358 OA
HETATM   15  H   UNL     1       7.119  -1.141  54.661  1.00  0.00     0.217 HD
ENDBRANCH   8  14
ENDBRANCH   1   3
TORSDOF 5
ENDMDL
MODEL 7
REMARK VINA RESULT:      -5.8      1.608      5.216
REMARK  5 active torsions:
REMARK  status: ('A' for Active; 'I' for Inactive)
REMARK    1  A    between atoms: O_1  and  C_10 
REMARK    2  A    between atoms: O_2  and  C_12 
REMARK    3  A    between atoms: C_5  and  C_6 
REMARK    4  A    between atoms: C_5  and  C_7 
REMARK    5  A    between atoms: C_7  and  C_13 
ROOT
HETATM    1  O   UNL     1       3.912  -6.773  59.894  1.00  0.00    -0.358 OA
HETATM    2  H   UNL     1       3.310  -6.429  60.524  1.00  0.00     0.217 HD
ENDROOT
BRANCH   1   3
HETATM    3  C   UNL     1       4.175  -6.078  58.753  1.00  0.00     0.099 A 
HETATM    4  C   UNL     1       5.061  -5.002  58.794  1.00  0.00     0.046 A 
HETATM    5  C   UNL     1       5.338  -4.281  57.633  1.00  0.00    -0.055 A 
HETATM    6  C   UNL     1       4.729  -4.638  56.429  1.00  0.00     0.010 A 
HETATM    7  C   UNL     1       3.843  -5.714  56.388  1.00  0.00     0.040 A 
HETATM    8  C   UNL     1       3.566  -6.434  57.549  1.00  0.00     0.098 A 
BRANCH   5   9
HETATM    9  C   UNL     1       6.286  -3.131  57.677  1.00  0.00     0.049 C 
BRANCH   9  10
HETATM   10  C   UNL     1       5.595  -1.762  57.701  1.00  0.00     0.117 C 
BRANCH  10  11
HETATM   11  C   UNL     1       6.590  -0.633  57.585  1.00  0.00     0.172 C 
HETATM   12  O   UNL     1       7.728  -0.859  58.285  1.00  0.00    -0.648 OA
HETATM   13  O   UNL     1       6.404   0.371  56.910  1.00  0.00    -0.648 OA
ENDBRANCH  10  11
ENDBRANCH   9  10
ENDBRANCH   5   9
BRANCH   8  14
HETATM   14  O   UNL     1       2.698  -7.482  57.497  1.00  0.00    -0.358 OA
HETATM   15  H   UNL     1       3.018  -8.360  57.567  1.00  0.00     0.217 HD
ENDBRANCH   8  14
ENDBRANCH   1   3
TORSDOF 5
ENDMDL
MODEL 8
REMARK VINA RESULT:      -5.7      1.880      4.806
REMARK  5 active torsions:
REMARK  status: ('A' for Active; 'I' for Inactive)
REMARK    1  A    between atoms: O_1  and  C_10 
REMARK    2  A    between atoms: O_2  and  C_12 
REMARK    3  A    between atoms: C_5  and  C_6 
REMARK    4  A    between atoms: C_5  and  C_7 
REMARK    5  A    between atoms: C_7  and  C_13 
ROOT
HETATM    1  O   UNL     1       3.875  -6.610  59.590  1.00  0.00    -0.358 OA
HETATM    2  H   UNL     1       3.286  -6.295  60.247  1.00  0.00     0.217 HD
ENDROOT
BRANCH   1   3
HETATM    3  C   UNL     1       4.496  -5.730  58.755  1.00  0.00     0.099 A 
HETATM    4  C   UNL     1       5.524  -4.927  59.247  1.00  0.00     0.046 A 
HETATM    5  C   UNL     1       6.167  -4.022  58.403  1.00  0.00    -0.055 A 
HETATM    6  C   UNL     1       5.781  -3.921  57.066  1.00  0.00     0.010 A 
HETATM    7  C   UNL     1       4.753  -4.724  56.574  1.00  0.00     0.040 A 
HETATM    8  C   UNL     1       4.110  -5.629  57.418  1.00  0.00     0.098 A 
BRANCH   5   9
HETATM    9  C   UNL     1       7.267  -3.163  58.929  1.00  0.00     0.049 C 
BRANCH   9  10
HETATM   10  C   UNL     1       8.483  -3.954  59.425  1.00  0.00     0.117 C 
BRANCH  10  11
HETATM   11  C   UNL     1       8.366  -4.296  60.891  1.00  0.00     0.172 C 
HETATM   12  O   UNL     1       8.703  -5.581  61.160  1.00  0.00    -0.648 OA
HETATM   13  O   UNL     1       8.028  -3.495  61.752  1.00  0.00    -0.648 OA
ENDBRANCH  10  11
ENDBRANCH   9  10
ENDBRANCH   5   9
BRANCH   8  14
HETATM   14  O   UNL     1       3.106  -6.407  56.927  1.00  0.00    -0.358 OA
HETATM   15  H   UNL     1       3.269  -7.307  56.721  1.00  0.00     0.217 HD
ENDBRANCH   8  14
ENDBRANCH   1   3
TORSDOF 5
ENDMDL
MODEL 9
REMARK VINA RESULT:      -5.6      2.474      4.927
REMARK  5 active torsions:
REMARK  status: ('A' for Active; 'I' for Inactive)
REMARK    1  A    between atoms: O_1  and  C_10 
REMARK    2  A    between atoms: O_2  and  C_12 
REMARK    3  A    between atoms: C_5  and  C_6 
REMARK    4  A    between atoms: C_5  and  C_7 
REMARK    5  A    between atoms: C_7  and  C_13 
ROOT
HETATM    1  O   UNL     1       8.421  -2.770  59.395  1.00  0.00    -0.358 OA
HETATM    2  H   UNL     1       8.233  -2.196  60.110  1.00  0.00     0.217 HD
ENDROOT
BRANCH   1   3
HETATM    3  C   UNL     1       7.403  -3.310  58.668  1.00  0.00     0.099 A 
HETATM    4  C   UNL     1       7.306  -3.024  57.307  1.00  0.00     0.046 A 
HETATM    5  C   UNL     1       6.267  -3.569  56.552  1.00  0.00    -0.055 A 
HETATM    6  C   UNL     1       5.326  -4.401  57.160  1.00  0.00     0.010 A 
HETATM    7  C   UNL     1       5.423  -4.686  58.521  1.00  0.00     0.040 A 
HETATM    8  C   UNL     1       6.462  -4.141  59.276  1.00  0.00     0.098 A 
BRANCH   5   9
HETATM    9  C   UNL     1       6.164  -3.265  55.096  1.00  0.00     0.049 C 
BRANCH   9  10
HETATM   10  C   UNL     1       7.509  -2.932  54.438  1.00  0.00     0.117 C 
BRANCH  10  11
HETATM   11  C   UNL     1       7.506  -1.548  53.832  1.00  0.00     0.172 C 
HETATM   12  O   UNL     1       6.402  -0.833  54.158  1.00  0.00    -0.648 OA
HETATM   13  O   UNL     1       8.415  -1.106  53.142  1.00  0.00    -0.648 OA
ENDBRANCH  10  11
ENDBRANCH   9  10
ENDBRANCH   5   9
BRANCH   8  14
HETATM   14  O   UNL     1       6.545  -4.424  60.605  1.00  0.00    -0.358 OA
HETATM   15  H   UNL     1       5.764  -4.531  61.112  1.00  0.00     0.217 HD
ENDBRANCH   8  14
ENDBRANCH   1   3
TORSDOF 5
ENDMDL
