MODEL 1
REMARK VINA RESULT:      -6.3      0.000      0.000
REMARK  5 active torsions:
REMARK  status: ('A' for Active; 'I' for Inactive)
REMARK    1  A    between atoms: O_1  and  C_10 
REMARK    2  A    between atoms: O_2  and  C_12 
REMARK    3  A    between atoms: C_5  and  C_6 
REMARK    4  A    between atoms: C_5  and  C_7 
REMARK    5  A    between atoms: C_7  and  C_13 
ROOT
HETATM    1  O   UNL     1       8.398  -3.096  59.840  1.00  0.00    -0.358 OA
HETATM    2  H   UNL     1       8.509  -3.896  60.315  1.00  0.00     0.217 HD
ENDROOT
BRANCH   1   3
HETATM    3  C   UNL     1       7.486  -3.024  58.830  1.00  0.00     0.099 A 
HETATM    4  C   UNL     1       6.597  -4.079  58.633  1.00  0.00     0.046 A 
HETATM    5  C   UNL     1       5.660  -4.018  57.602  1.00  0.00    -0.055 A 
HETATM    6  C   UNL     1       5.613  -2.901  56.768  1.00  0.00     0.010 A 
HETATM    7  C   UNL     1       6.502  -1.846  56.965  1.00  0.00     0.040 A 
HETATM    8  C   UNL     1       7.439  -1.907  57.996  1.00  0.00     0.098 A 
BRANCH   5   9
HETATM    9  C   UNL     1       4.708  -5.147  57.392  1.00  0.00     0.049 C 
BRANCH   9  10
HETATM   10  C   UNL     1       3.245  -4.780  57.668  1.00  0.00     0.117 C 
BRANCH  10  11
HETATM   11  C   UNL     1       2.834  -5.148  59.073  1.00  0.00     0.172 C 
HETATM   12  O   UNL     1       3.393  -6.306  59.500  1.00  0.00    -0.648 OA
HETATM   13  O   UNL     1       2.094  -4.462  59.767  1.00  0.00    -0.648 OA
ENDBRANCH  10  11
ENDBRANCH   9  10
ENDBRANCH   5   9
BRANCH   8  14
HETATM   14  O   UNL     1       8.305  -0.871  58.179  1.00  0.00    -0.358 OA
HETATM   15  H   UNL     1       9.166  -0.910  57.811  1.00  0.00     0.217 HD
ENDBRANCH   8  14
ENDBRANCH   1   3
TORSDOF 5
ENDMDL
MODEL 2
REMARK VINA RESULT:      -6.2      1.057      1.197
REMARK  5 active torsions:
REMARK  status: ('A' for Active; 'I' for Inactive)
REMARK    1  A    between atoms: O_1  and  C_10 
REMARK    2  A    between atoms: O_2  and  C_12 
REMARK    3  A    between atoms: C_5  and  C_6 
REMARK    4  A    between atoms: C_5  and  C_7 
REMARK    5  A    between atoms: C_7  and  C_13 
ROOT
HETATM    1  O   UNL     1       8.496  -3.171  60.217  1.00  0.00    -0.358 OA
HETATM    2  H   UNL     1       8.592  -2.302  60.552  1.00  0.00     0.217 HD
ENDROOT
BRANCH   1   3
HETATM    3  C   UNL     1       7.555  -3.434  59.268  1.00  0.00     0.099 A 
HETATM    4  C   UNL     1       6.583  -4.402  59.516  1.00  0.00     0.046 A 
HETATM    5  C   UNL     1       5.614  -4.682  58.552  1.00  0.00    -0.055 A 
HETATM    6  C   UNL     1       5.619  -3.993  57.339  1.00  0.00     0.010 A 
HETATM    7  C   UNL     1       6.591  -3.025  57.091  1.00  0.00     0.040 A 
HETATM    8  C   UNL     1       7.559  -2.745  58.055  1.00  0.00     0.098 A 
BRANCH   5   9
HETATM    9  C   UNL     1       4.574  -5.718  58.818  1.00  0.00     0.049 C 
BRANCH   9  10
HETATM   10  C   UNL     1       3.269  -5.494  58.045  1.00  0.00     0.117 C 
BRANCH  10  11
HETATM   11  C   UNL     1       2.164  -5.002  58.949  1.00  0.00     0.172 C 
HETATM   12  O   UNL     1       0.943  -5.467  58.589  1.00  0.00    -0.648 OA
HETATM   13  O   UNL     1       2.350  -4.280  59.920  1.00  0.00    -0.648 OA
ENDBRANCH  10  11
ENDBRANCH   9  10
ENDBRANCH   5   9
BRANCH   8  14
HETATM   14  O   UNL     1       8.505  -1.798  57.801  1.00  0.00    -0.358 OA
HETATM   15  H   UNL     1       8.936  -1.778  56.969  1.00  0.00     0.217 HD
ENDBRANCH   8  14
ENDBRANCH   1   3
TORSDOF 5
ENDMDL
MODEL 3
REMARK VINA RESULT:      -6.0      1.193      2.168
REMARK  5 active torsions:
REMARK  status: ('A' for Active; 'I' for Inactive)
REMARK    1  A    between atoms: O_1  and  C_10 
REMARK    2  A    between atoms: O_2  and  C_12 
REMARK    3  A    between atoms: C_5  and  C_6 
REMARK    4  A    between atoms: C_5  and  C_7 
REMARK    5  A    between atoms: C_7  and  C_13 
ROOT
HETATM    1  O   UNL     1       8.355  -2.098  57.605  1.00  0.00    -0.358 OA
HETATM    2  H   UNL     1       8.073  -1.511  56.932  1.00  0.00     0.217 HD
ENDROOT
BRANCH   1   3
HETATM    3  C   UNL     1       7.487  -3.016  58.116  1.00  0.00     0.099 A 
HETATM    4  C   UNL     1       6.372  -3.395  57.369  1.00  0.00     0.046 A 
HETATM    5  C   UNL     1       5.475  -4.332  57.881  1.00  0.00    -0.055 A 
HETATM    6  C   UNL     1       5.694  -4.891  59.141  1.00  0.00     0.010 A 
HETATM    7  C   UNL     1       6.809  -4.512  59.887  1.00  0.00     0.040 A 
HETATM    8  C   UNL     1       7.706  -3.574  59.375  1.00  0.00     0.098 A 
BRANCH   5   9
HETATM    9  C   UNL     1       4.283  -4.738  57.082  1.00  0.00     0.049 C 
BRANCH   9  10
HETATM   10  C   UNL     1       3.523  -5.932  57.671  1.00  0.00     0.117 C 
BRANCH  10  11
HETATM   11  C   UNL     1       2.177  -5.522  58.219  1.00  0.00     0.172 C 
HETATM   12  O   UNL     1       2.234  -5.131  59.516  1.00  0.00    -0.648 OA
HETATM   13  O   UNL     1       1.146  -5.516  57.559  1.00  0.00    -0.648 OA
ENDBRANCH  10  11
ENDBRANCH   9  10
ENDBRANCH   5   9
BRANCH   8  14
HETATM   14  O   UNL     1       8.790  -3.210  60.114  1.00  0.00    -0.358 OA
HETATM   15  H   UNL     1       9.219  -2.394  59.946  1.00  0.00     0.217 HD
ENDBRANCH   8  14
ENDBRANCH   1   3
TORSDOF 5
ENDMDL
MODEL 4
REMARK VINA RESULT:      -6.0      1.038      2.080
REMARK  5 active torsions:
REMARK  status: ('A' for Active; 'I' for Inactive)
REMARK    1  A    between atoms: O_1  and  C_10 
REMARK    2  A    between atoms: O_2  and  C_12 
REMARK    3  A    between atoms: C_5  and  C_6 
REMARK    4  A    between atoms: C_5  and  C_7 
REMARK    5  A    between atoms: C_7  and  C_13 
ROOT
HETATM    1  O   UNL     1       6.941  -0.920  55.931  1.00  0.00    -0.358 OA
HETATM    2  H   UNL     1       7.685  -0.353  55.980  1.00  0.00     0.217 HD
ENDROOT
BRANCH   1   3
HETATM    3  C   UNL     1       6.781  -1.913  56.850  1.00  0.00     0.099 A 
HETATM    4  C   UNL     1       5.855  -2.928  56.609  1.00  0.00     0.046 A 
HETATM    5  C   UNL     1       5.682  -3.950  57.542  1.00  0.00    -0.055 A 
HETATM    6  C   UNL     1       6.435  -3.957  58.716  1.00  0.00     0.010 A 
HETATM    7  C   UNL     1       7.361  -2.943  58.957  1.00  0.00     0.040 A 
HETATM    8  C   UNL     1       7.535  -1.921  58.024  1.00  0.00     0.098 A 
BRANCH   5   9
HETATM    9  C   UNL     1       4.691  -5.035  57.284  1.00  0.00     0.049 C 
BRANCH   9  10
HETATM   10  C   UNL     1       4.190  -5.728  58.556  1.00  0.00     0.117 C 
BRANCH  10  11
HETATM   11  C   UNL     1       2.801  -5.268  58.931  1.00  0.00     0.172 C 
HETATM   12  O   UNL     1       2.808  -4.205  59.771  1.00  0.00    -0.648 OA
HETATM   13  O   UNL     1       1.776  -5.782  58.504  1.00  0.00    -0.648 OA
ENDBRANCH  10  11
ENDBRANCH   9  10
ENDBRANCH   5   9
BRANCH   8  14
HETATM   14  O   UNL     1       8.440  -0.934  58.271  1.00  0.00    -0.358 OA
HETATM   15  H   UNL     1       9.217  -1.123  58.760  1.00  0.00     0.217 HD
ENDBRANCH   8  14
ENDBRANCH   1   3
TORSDOF 5
ENDMDL
MODEL 5
REMARK VINA RESULT:      -5.9      1.365      1.822
REMARK  5 active torsions:
REMARK  status: ('A' for Active; 'I' for Inactive)
REMARK    1  A    between atoms: O_1  and  C_10 
REMARK    2  A    between atoms: O_2  and  C_12 
REMARK    3  A    between atoms: C_5  and  C_6 
REMARK    4  A    between atoms: C_5  and  C_7 
REMARK    5  A    between atoms: C_7  and  C_13 
ROOT
HETATM    1  O   UNL     1       8.325  -0.884  58.288  1.00  0.00    -0.358 OA
HETATM    2  H   UNL     1       8.568  -0.040  57.963  1.00  0.00     0.217 HD
ENDROOT
BRANCH   1   3
HETATM    3  C   UNL     1       7.228  -1.517  57.785  1.00  0.00     0.099 A 
HETATM    4  C   UNL     1       6.898  -2.790  58.250  1.00  0.00     0.046 A 
HETATM    5  C   UNL     1       5.778  -3.449  57.742  1.00  0.00    -0.055 A 
HETATM    6  C   UNL     1       4.989  -2.834  56.771  1.00  0.00     0.010 A 
HETATM    7  C   UNL     1       5.319  -1.561  56.306  1.00  0.00     0.040 A 
HETATM    8  C   UNL     1       6.438  -0.902  56.814  1.00  0.00     0.098 A 
BRANCH   5   9
HETATM    9  C   UNL     1       5.425  -4.810  58.240  1.00  0.00     0.049 C 
BRANCH   9  10
HETATM   10  C   UNL     1       4.237  -5.445  57.508  1.00  0.00     0.117 C 
BRANCH  10  11
HETATM   11  C   UNL     1       3.541  -6.476  58.364  1.00  0.00     0.172 C 
HETATM   12  O   UNL     1       3.959  -6.458  59.654  1.00  0.00    -0.648 OA
HETATM   13  O   UNL     1       2.673  -7.232  57.949  1.00  0.00    -0.648 OA
ENDBRANCH  10  11
ENDBRANCH   9  10
ENDBRANCH   5   9
BRANCH   8  14
HETATM   14  O   UNL     1       6.752   0.340  56.351  1.00  0.00    -0.358 OA
HETATM   15  H   UNL     1       7.641   0.638  56.375  1.00  0.00     0.217 HD
ENDBRANCH   8  14
ENDBRANCH   1   3
TORSDOF 5
ENDMDL
MODEL 6
REMARK VINA RESULT:      -5.9      1.353      1.625
REMARK  5 active torsions:
REMARK  status: ('A' for Active; 'I' for Inactive)
REMARK    1  A    between atoms: O_1  and  C_10 
REMARK    2  A    between atoms: O_2  and  C_12 
REMARK    3  A    between atoms: C_5  and  C_6 
REMARK    4  A    between atoms: C_5  and  C_7 
REMARK    5  A    between atoms: C_7  and  C_13 
ROOT
HETATM    1  O   UNL     1       8.742  -3.328  59.574  1.00  0.00    -0.358 OA
HETATM    2  H   UNL     1       8.787  -3.165  60.495  1.00  0.00     0.217 HD
ENDROOT
BRANCH   1   3
HETATM    3  C   UNL     1       7.597  -3.051  58.889  1.00  0.00     0.099 A 
HETATM    4  C   UNL     1       6.561  -3.984  58.879  1.00  0.00     0.046 A 
HETATM    5  C   UNL     1       5.385  -3.713  58.180  1.00  0.00    -0.055 A 
HETATM    6  C   UNL     1       5.245  -2.507  57.492  1.00  0.00     0.010 A 
HETATM    7  C   UNL     1       6.281  -1.574  57.502  1.00  0.00     0.040 A 
HETATM    8  C   UNL     1       7.457  -1.845  58.201  1.00  0.00     0.098 A 
BRANCH   5   9
HETATM    9  C   UNL     1       4.277  -4.711  58.170  1.00  0.00     0.049 C 
BRANCH   9  10
HETATM   10  C   UNL     1       4.119  -5.444  56.832  1.00  0.00     0.117 C 
BRANCH  10  11
HETATM   11  C   UNL     1       3.137  -6.586  56.935  1.00  0.00     0.172 C 
HETATM   12  O   UNL     1       3.194  -7.224  58.129  1.00  0.00    -0.648 OA
HETATM   13  O   UNL     1       2.352  -6.890  56.046  1.00  0.00    -0.648 OA
ENDBRANCH  10  11
ENDBRANCH   9  10
ENDBRANCH   5   9
BRANCH   8  14
HETATM   14  O   UNL     1       8.463  -0.927  58.202  1.00  0.00    -0.358 OA
HETATM   15  H   UNL     1       9.023  -0.847  58.949  1.00  0.00     0.217 HD
ENDBRANCH   8  14
ENDBRANCH   1   3
TORSDOF 5
ENDMDL
MODEL 7
REMARK VINA RESULT:      -5.8      1.632      5.215
REMARK  5 active torsions:
REMARK  status: ('A' for Active; 'I' for Inactive)
REMARK    1  A    between atoms: O_1  and  C_10 
REMARK    2  A    between atoms: O_2  and  C_12 
REMARK    3  A    between atoms: C_5  and  C_6 
REMARK    4  A    between atoms: C_5  and  C_7 
REMARK    5  A    between atoms: C_7  and  C_13 
ROOT
HETATM    1  O   UNL     1       3.929  -6.722  59.873  1.00  0.00    -0.358 OA
HETATM    2  H   UNL     1       4.099  -7.641  59.932  1.00  0.00     0.217 HD
ENDROOT
BRANCH   1   3
HETATM    3  C   UNL     1       4.185  -6.055  58.712  1.00  0.00     0.099 A 
HETATM    4  C   UNL     1       5.080  -4.987  58.718  1.00  0.00     0.046 A 
HETATM    5  C   UNL     1       5.350  -4.296  57.537  1.00  0.00    -0.055 A 
HETATM    6  C   UNL     1       4.723  -4.675  56.349  1.00  0.00     0.010 A 
HETATM    7  C   UNL     1       3.828  -5.744  56.343  1.00  0.00     0.040 A 
HETATM    8  C   UNL     1       3.559  -6.435  57.525  1.00  0.00     0.098 A 
BRANCH   5   9
HETATM    9  C   UNL     1       6.308  -3.153  57.543  1.00  0.00     0.049 C 
BRANCH   9  10
HETATM   10  C   UNL     1       5.642  -1.791  57.774  1.00  0.00     0.117 C 
BRANCH  10  11
HETATM   11  C   UNL     1       6.615  -0.654  57.572  1.00  0.00     0.172 C 
HETATM   12  O   UNL     1       7.755  -0.802  58.288  1.00  0.00    -0.648 OA
HETATM   13  O   UNL     1       6.410   0.291  56.821  1.00  0.00    -0.648 OA
ENDBRANCH  10  11
ENDBRANCH   9  10
ENDBRANCH   5   9
BRANCH   8  14
HETATM   14  O   UNL     1       2.681  -7.476  57.508  1.00  0.00    -0.358 OA
HETATM   15  H   UNL     1       2.350  -7.797  56.691  1.00  0.00     0.217 HD
ENDBRANCH   8  14
ENDBRANCH   1   3
TORSDOF 5
ENDMDL
MODEL 8
REMARK VINA RESULT:      -5.7      2.203      4.649
REMARK  5 active torsions:
REMARK  status: ('A' for Active; 'I' for Inactive)
REMARK    1  A    between atoms: O_1  and  C_10 
REMARK    2  A    between atoms: O_2  and  C_12 
REMARK    3  A    between atoms: C_5  and  C_6 
REMARK    4  A    between atoms: C_5  and  C_7 
REMARK    5  A    between atoms: C_7  and  C_13 
ROOT
HETATM    1  O   UNL     1       6.631  -4.517  60.546  1.00  0.00    -0.358 OA
HETATM    2  H   UNL     1       6.727  -3.841  61.187  1.00  0.00     0.217 HD
ENDROOT
BRANCH   1   3
HETATM    3  C   UNL     1       6.070  -4.236  59.337  1.00  0.00     0.099 A 
HETATM    4  C   UNL     1       6.482  -3.103  58.637  1.00  0.00     0.046 A 
HETATM    5  C   UNL     1       5.914  -2.803  57.399  1.00  0.00    -0.055 A 
HETATM    6  C   UNL     1       4.934  -3.638  56.861  1.00  0.00     0.010 A 
HETATM    7  C   UNL     1       4.522  -4.771  57.562  1.00  0.00     0.040 A 
HETATM    8  C   UNL     1       5.090  -5.071  58.800  1.00  0.00     0.098 A 
BRANCH   5   9
HETATM    9  C   UNL     1       6.355  -1.592  56.650  1.00  0.00     0.049 C 
BRANCH   9  10
HETATM   10  C   UNL     1       6.247  -0.293  57.458  1.00  0.00     0.117 C 
BRANCH  10  11
HETATM   11  C   UNL     1       5.157   0.606  56.927  1.00  0.00     0.172 C 
HETATM   12  O   UNL     1       4.945   0.448  55.598  1.00  0.00    -0.648 OA
HETATM   13  O   UNL     1       4.512   1.378  57.624  1.00  0.00    -0.648 OA
ENDBRANCH  10  11
ENDBRANCH   9  10
ENDBRANCH   5   9
BRANCH   8  14
HETATM   14  O   UNL     1       4.678  -6.179  59.476  1.00  0.00    -0.358 OA
HETATM   15  H   UNL     1       4.212  -6.856  59.026  1.00  0.00     0.217 HD
ENDBRANCH   8  14
ENDBRANCH   1   3
TORSDOF 5
ENDMDL
MODEL 9
REMARK VINA RESULT:      -5.6      2.213      4.643
REMARK  5 active torsions:
REMARK  status: ('A' for Active; 'I' for Inactive)
REMARK    1  A    between atoms: O_1  and  C_10 
REMARK    2  A    between atoms: O_2  and  C_12 
REMARK    3  A    between atoms: C_5  and  C_6 
REMARK    4  A    between atoms: C_5  and  C_7 
REMARK    5  A    between atoms: C_7  and  C_13 
ROOT
HETATM    1  O   UNL     1       8.633  -3.135  59.787  1.00  0.00    -0.358 OA
HETATM    2  H   UNL     1       9.513  -2.997  59.499  1.00  0.00     0.217 HD
ENDROOT
BRANCH   1   3
HETATM    3  C   UNL     1       7.649  -3.381  58.878  1.00  0.00     0.099 A 
HETATM    4  C   UNL     1       7.713  -2.782  57.620  1.00  0.00     0.046 A 
HETATM    5  C   UNL     1       6.711  -3.024  56.681  1.00  0.00    -0.055 A 
HETATM    6  C   UNL     1       5.646  -3.867  56.999  1.00  0.00     0.010 A 
HETATM    7  C   UNL     1       5.582  -4.466  58.256  1.00  0.00     0.040 A 
HETATM    8  C   UNL     1       6.584  -4.223  59.196  1.00  0.00     0.098 A 
BRANCH   5   9
HETATM    9  C   UNL     1       6.779  -2.384  55.335  1.00  0.00     0.049 C 
BRANCH   9  10
HETATM   10  C   UNL     1       5.544  -1.545  54.987  1.00  0.00     0.117 C 
BRANCH  10  11
HETATM   11  C   UNL     1       5.875  -0.075  54.894  1.00  0.00     0.172 C 
HETATM   12  O   UNL     1       6.217   0.465  56.089  1.00  0.00    -0.648 OA
HETATM   13  O   UNL     1       5.863   0.559  53.847  1.00  0.00    -0.648 OA
ENDBRANCH  10  11
ENDBRANCH   9  10
ENDBRANCH   5   9
BRANCH   8  14
HETATM   14  O   UNL     1       6.511  -4.812  60.422  1.00  0.00    -0.358 OA
HETATM   15  H   UNL     1       7.189  -5.395  60.703  1.00  0.00     0.217 HD
ENDBRANCH   8  14
ENDBRANCH   1   3
TORSDOF 5
ENDMDL
