MODEL 1
REMARK VINA RESULT:      -7.2      0.000      0.000
REMARK  4 active torsions:
REMARK  status: ('A' for Active; 'I' for Inactive)
REMARK    1  A    between atoms: O_1  and  C_5 
REMARK    2  A    between atoms: O_1  and  C_14 
REMARK    3  A    between atoms: O_2  and  C_18 
REMARK    4  A    between atoms: C_10  and  C_13 
ROOT
HETATM    1  O   UNL     1     -51.723  44.986  11.380  1.00  0.00    -0.343 OA
ENDROOT
BRANCH   1   2
HETATM    2  C   UNL     1     -52.266  44.582  10.129  1.00  0.00     0.129 C 
HETATM    3  C   UNL     1     -53.198  43.399  10.340  1.00  0.00     0.032 C 
HETATM    4  C   UNL     1     -52.267  42.195  10.462  1.00  0.00     0.002 C 
HETATM    5  C   UNL     1     -50.958  42.594   9.782  1.00  0.00     0.002 C 
HETATM    6  C   UNL     1     -51.176  44.005   9.239  1.00  0.00     0.032 C 
ENDBRANCH   1   2
BRANCH   1   7
HETATM    7  C   UNL     1     -52.154  46.185  11.882  1.00  0.00     0.103 A 
HETATM    8  C   UNL     1     -52.716  47.120  11.018  1.00  0.00     0.047 A 
HETATM    9  C   UNL     1     -53.157  48.344  11.516  1.00  0.00    -0.049 A 
HETATM   10  C   UNL     1     -53.033  48.630  12.875  1.00  0.00     0.010 A 
HETATM   11  C   UNL     1     -52.469  47.689  13.737  1.00  0.00     0.040 A 
HETATM   12  C   UNL     1     -52.027  46.464  13.238  1.00  0.00     0.101 A 
BRANCH   9  13
HETATM   13  C   UNL     1     -53.770  49.365  10.581  1.00  0.00     0.045 C 
HETATM   14  C   UNL     1     -53.221  49.377   9.154  1.00  0.00     0.132 C 
HETATM   15  N   UNL     1     -53.542  50.691   8.674  1.00  0.00    -0.360 N 
HETATM   16  C   UNL     1     -53.772  51.594   9.704  1.00  0.00     0.218 C 
HETATM   17  H   UNL     1     -53.593  50.927   7.720  1.00  0.00     0.162 HD
HETATM   18  O   UNL     1     -54.019  52.785   9.606  1.00  0.00    -0.274 OA
HETATM   19  C   UNL     1     -53.607  50.839  11.000  1.00  0.00     0.113 C 
ENDBRANCH   9  13
BRANCH  12  20
HETATM   20  O   UNL     1     -51.476  45.554  14.089  1.00  0.00    -0.353 OA
HETATM   21  C   UNL     1     -50.323  45.966  14.820  1.00  0.00     0.210 C 
ENDBRANCH  12  20
ENDBRANCH   1   7
TORSDOF 4
ENDMDL
MODEL 2
REMARK VINA RESULT:      -7.2      1.190      1.456
REMARK  4 active torsions:
REMARK  status: ('A' for Active; 'I' for Inactive)
REMARK    1  A    between atoms: O_1  and  C_5 
REMARK    2  A    between atoms: O_1  and  C_14 
REMARK    3  A    between atoms: O_2  and  C_18 
REMARK    4  A    between atoms: C_10  and  C_13 
ROOT
HETATM    1  O   UNL     1     -51.443  44.947  11.478  1.00  0.00    -0.343 OA
ENDROOT
BRANCH   1   2
HETATM    2  C   UNL     1     -50.582  45.085  10.355  1.00  0.00     0.129 C 
HETATM    3  C   UNL     1     -50.321  43.716   9.746  1.00  0.00     0.032 C 
HETATM    4  C   UNL     1     -49.251  43.096  10.643  1.00  0.00     0.002 C 
HETATM    5  C   UNL     1     -48.550  44.260  11.342  1.00  0.00     0.002 C 
HETATM    6  C   UNL     1     -49.198  45.532  10.800  1.00  0.00     0.032 C 
ENDBRANCH   1   2
BRANCH   1   7
HETATM    7  C   UNL     1     -51.966  46.100  12.002  1.00  0.00     0.103 A 
HETATM    8  C   UNL     1     -52.568  47.020  11.149  1.00  0.00     0.047 A 
HETATM    9  C   UNL     1     -53.102  48.197  11.668  1.00  0.00    -0.049 A 
HETATM   10  C   UNL     1     -53.033  48.451  13.038  1.00  0.00     0.010 A 
HETATM   11  C   UNL     1     -52.430  47.524  13.888  1.00  0.00     0.040 A 
HETATM   12  C   UNL     1     -51.894  46.346  13.368  1.00  0.00     0.101 A 
BRANCH   9  13
HETATM   13  C   UNL     1     -53.758  49.202  10.746  1.00  0.00     0.045 C 
HETATM   14  C   UNL     1     -53.349  49.123   9.274  1.00  0.00     0.132 C 
HETATM   15  N   UNL     1     -53.658  50.428   8.761  1.00  0.00    -0.360 N 
HETATM   16  C   UNL     1     -53.748  51.386   9.762  1.00  0.00     0.218 C 
HETATM   17  H   UNL     1     -53.792  50.622   7.806  1.00  0.00     0.162 HD
HETATM   18  O   UNL     1     -53.953  52.583   9.628  1.00  0.00    -0.274 OA
HETATM   19  C   UNL     1     -53.492  50.684  11.073  1.00  0.00     0.113 C 
ENDBRANCH   9  13
BRANCH  12  20
HETATM   20  O   UNL     1     -51.305  45.449  14.209  1.00  0.00    -0.353 OA
HETATM   21  C   UNL     1     -50.077  45.843  14.818  1.00  0.00     0.210 C 
ENDBRANCH  12  20
ENDBRANCH   1   7
TORSDOF 4
ENDMDL
MODEL 3
REMARK VINA RESULT:      -7.2      2.792      3.753
REMARK  4 active torsions:
REMARK  status: ('A' for Active; 'I' for Inactive)
REMARK    1  A    between atoms: O_1  and  C_5 
REMARK    2  A    between atoms: O_1  and  C_14 
REMARK    3  A    between atoms: O_2  and  C_18 
REMARK    4  A    between atoms: C_10  and  C_13 
ROOT
HETATM    1  O   UNL     1     -51.541  46.462   7.247  1.00  0.00    -0.343 OA
ENDROOT
BRANCH   1   2
HETATM    2  C   UNL     1     -52.383  46.667   6.120  1.00  0.00     0.129 C 
HETATM    3  C   UNL     1     -53.041  45.352   5.733  1.00  0.00     0.032 C 
HETATM    4  C   UNL     1     -51.966  44.605   4.945  1.00  0.00     0.002 C 
HETATM    5  C   UNL     1     -50.994  45.667   4.432  1.00  0.00     0.002 C 
HETATM    6  C   UNL     1     -51.553  47.011   4.893  1.00  0.00     0.032 C 
ENDBRANCH   1   2
BRANCH   1   7
HETATM    7  C   UNL     1     -52.034  46.847   8.466  1.00  0.00     0.103 A 
HETATM    8  C   UNL     1     -52.611  48.107   8.596  1.00  0.00     0.047 A 
HETATM    9  C   UNL     1     -53.115  48.511   9.831  1.00  0.00    -0.049 A 
HETATM   10  C   UNL     1     -53.040  47.655  10.930  1.00  0.00     0.010 A 
HETATM   11  C   UNL     1     -52.461  46.394  10.792  1.00  0.00     0.040 A 
HETATM   12  C   UNL     1     -51.955  45.989   9.557  1.00  0.00     0.101 A 
BRANCH   9  13
HETATM   13  C   UNL     1     -53.745  49.879   9.980  1.00  0.00     0.045 C 
HETATM   14  C   UNL     1     -53.391  50.898   8.896  1.00  0.00     0.132 C 
HETATM   15  N   UNL     1     -53.644  52.166   9.520  1.00  0.00    -0.360 N 
HETATM   16  C   UNL     1     -53.646  52.086  10.907  1.00  0.00     0.218 C 
HETATM   17  H   UNL     1     -53.798  53.000   9.021  1.00  0.00     0.162 HD
HETATM   18  O   UNL     1     -53.788  53.001  11.702  1.00  0.00    -0.274 OA
HETATM   19  C   UNL     1     -53.385  50.645  11.268  1.00  0.00     0.113 C 
ENDBRANCH   9  13
BRANCH  12  20
HETATM   20  O   UNL     1     -51.390  44.756   9.436  1.00  0.00    -0.353 OA
HETATM   21  C   UNL     1     -51.967  43.701  10.203  1.00  0.00     0.210 C 
ENDBRANCH  12  20
ENDBRANCH   1   7
TORSDOF 4
ENDMDL
MODEL 4
REMARK VINA RESULT:      -7.1      2.886      5.685
REMARK  4 active torsions:
REMARK  status: ('A' for Active; 'I' for Inactive)
REMARK    1  A    between atoms: O_1  and  C_5 
REMARK    2  A    between atoms: O_1  and  C_14 
REMARK    3  A    between atoms: O_2  and  C_18 
REMARK    4  A    between atoms: C_10  and  C_13 
ROOT
HETATM    1  O   UNL     1     -53.083  47.939   8.734  1.00  0.00    -0.343 OA
ENDROOT
BRANCH   1   2
HETATM    2  C   UNL     1     -52.384  46.737   8.439  1.00  0.00     0.129 C 
HETATM    3  C   UNL     1     -51.079  47.070   7.732  1.00  0.00     0.032 C 
HETATM    4  C   UNL     1     -51.486  47.332   6.283  1.00  0.00     0.002 C 
HETATM    5  C   UNL     1     -52.824  46.624   6.078  1.00  0.00     0.002 C 
HETATM    6  C   UNL     1     -53.141  45.926   7.399  1.00  0.00     0.032 C 
ENDBRANCH   1   2
BRANCH   1   7
HETATM    7  C   UNL     1     -53.097  48.340  10.045  1.00  0.00     0.103 A 
HETATM    8  C   UNL     1     -52.747  47.428  11.036  1.00  0.00     0.047 A 
HETATM    9  C   UNL     1     -52.759  47.823  12.373  1.00  0.00    -0.049 A 
HETATM   10  C   UNL     1     -53.122  49.126  12.713  1.00  0.00     0.010 A 
HETATM   11  C   UNL     1     -53.472  50.035  11.715  1.00  0.00     0.040 A 
HETATM   12  C   UNL     1     -53.460  49.640  10.377  1.00  0.00     0.101 A 
BRANCH   9  13
HETATM   13  C   UNL     1     -52.378  46.837  13.456  1.00  0.00     0.045 C 
HETATM   14  C   UNL     1     -51.223  47.259  14.366  1.00  0.00     0.132 C 
HETATM   15  N   UNL     1     -50.736  46.019  14.900  1.00  0.00    -0.360 N 
HETATM   16  C   UNL     1     -51.098  44.925  14.124  1.00  0.00     0.218 C 
HETATM   17  H   UNL     1     -50.204  45.950  15.725  1.00  0.00     0.162 HD
HETATM   18  O   UNL     1     -50.793  43.756  14.300  1.00  0.00    -0.274 OA
HETATM   19  C   UNL     1     -51.910  45.452  12.967  1.00  0.00     0.113 C 
ENDBRANCH   9  13
BRANCH  12  20
HETATM   20  O   UNL     1     -53.806  50.537   9.411  1.00  0.00    -0.353 OA
HETATM   21  C   UNL     1     -53.667  51.920   9.731  1.00  0.00     0.210 C 
ENDBRANCH  12  20
ENDBRANCH   1   7
TORSDOF 4
ENDMDL
MODEL 5
REMARK VINA RESULT:      -6.9      1.029      1.437
REMARK  4 active torsions:
REMARK  status: ('A' for Active; 'I' for Inactive)
REMARK    1  A    between atoms: O_1  and  C_5 
REMARK    2  A    between atoms: O_1  and  C_14 
REMARK    3  A    between atoms: O_2  and  C_18 
REMARK    4  A    between atoms: C_10  and  C_13 
ROOT
HETATM    1  O   UNL     1     -51.600  45.138  12.108  1.00  0.00    -0.343 OA
ENDROOT
BRANCH   1   2
HETATM    2  C   UNL     1     -50.245  45.004  11.699  1.00  0.00     0.129 C 
HETATM    3  C   UNL     1     -50.123  45.363  10.226  1.00  0.00     0.032 C 
HETATM    4  C   UNL     1     -50.597  44.113   9.487  1.00  0.00     0.002 C 
HETATM    5  C   UNL     1     -50.434  42.949  10.464  1.00  0.00     0.002 C 
HETATM    6  C   UNL     1     -49.824  43.543  11.732  1.00  0.00     0.032 C 
ENDBRANCH   1   2
BRANCH   1   7
HETATM    7  C   UNL     1     -52.006  46.387  12.500  1.00  0.00     0.103 A 
HETATM    8  C   UNL     1     -52.638  47.215  11.578  1.00  0.00     0.047 A 
HETATM    9  C   UNL     1     -53.055  48.488  11.964  1.00  0.00    -0.049 A 
HETATM   10  C   UNL     1     -52.838  48.928  13.270  1.00  0.00     0.010 A 
HETATM   11  C   UNL     1     -52.205  48.092  14.190  1.00  0.00     0.040 A 
HETATM   12  C   UNL     1     -51.787  46.818  13.803  1.00  0.00     0.101 A 
BRANCH   9  13
HETATM   13  C   UNL     1     -53.743  49.394  10.966  1.00  0.00     0.045 C 
HETATM   14  C   UNL     1     -53.350  49.193   9.501  1.00  0.00     0.132 C 
HETATM   15  N   UNL     1     -53.692  50.441   8.880  1.00  0.00    -0.360 N 
HETATM   16  C   UNL     1     -53.791  51.482   9.793  1.00  0.00     0.218 C 
HETATM   17  H   UNL     1     -53.841  50.547   7.912  1.00  0.00     0.162 HD
HETATM   18  O   UNL     1     -54.022  52.658   9.557  1.00  0.00    -0.274 OA
HETATM   19  C   UNL     1     -53.504  50.904  11.157  1.00  0.00     0.113 C 
ENDBRANCH   9  13
BRANCH  12  20
HETATM   20  O   UNL     1     -51.168  46.012  14.711  1.00  0.00    -0.353 OA
HETATM   21  C   UNL     1     -50.000  46.529  15.345  1.00  0.00     0.210 C 
ENDBRANCH  12  20
ENDBRANCH   1   7
TORSDOF 4
ENDMDL
MODEL 6
REMARK VINA RESULT:      -6.9      2.368      3.948
REMARK  4 active torsions:
REMARK  status: ('A' for Active; 'I' for Inactive)
REMARK    1  A    between atoms: O_1  and  C_5 
REMARK    2  A    between atoms: O_1  and  C_14 
REMARK    3  A    between atoms: O_2  and  C_18 
REMARK    4  A    between atoms: C_10  and  C_13 
ROOT
HETATM    1  O   UNL     1     -52.335  43.300   9.563  1.00  0.00    -0.343 OA
ENDROOT
BRANCH   1   2
HETATM    2  C   UNL     1     -51.170  43.324   8.747  1.00  0.00     0.129 C 
HETATM    3  C   UNL     1     -51.539  42.932   7.325  1.00  0.00     0.032 C 
HETATM    4  C   UNL     1     -51.629  41.407   7.361  1.00  0.00     0.002 C 
HETATM    5  C   UNL     1     -50.798  40.956   8.561  1.00  0.00     0.002 C 
HETATM    6  C   UNL     1     -50.206  42.227   9.168  1.00  0.00     0.032 C 
ENDBRANCH   1   2
BRANCH   1   7
HETATM    7  C   UNL     1     -53.202  44.353   9.434  1.00  0.00     0.103 A 
HETATM    8  C   UNL     1     -52.751  45.640   9.708  1.00  0.00     0.047 A 
HETATM    9  C   UNL     1     -53.624  46.719   9.582  1.00  0.00    -0.049 A 
HETATM   10  C   UNL     1     -54.943  46.507   9.182  1.00  0.00     0.010 A 
HETATM   11  C   UNL     1     -55.389  45.214   8.908  1.00  0.00     0.040 A 
HETATM   12  C   UNL     1     -54.516  44.134   9.035  1.00  0.00     0.101 A 
BRANCH   9  13
HETATM   13  C   UNL     1     -53.140  48.122   9.878  1.00  0.00     0.045 C 
HETATM   14  C   UNL     1     -53.339  48.607  11.316  1.00  0.00     0.132 C 
HETATM   15  N   UNL     1     -53.313  50.038  11.202  1.00  0.00    -0.360 N 
HETATM   16  C   UNL     1     -53.588  50.475   9.913  1.00  0.00     0.218 C 
HETATM   17  H   UNL     1     -53.122  50.642  11.955  1.00  0.00     0.162 HD
HETATM   18  O   UNL     1     -53.679  51.630   9.525  1.00  0.00    -0.274 OA
HETATM   19  C   UNL     1     -53.810  49.247   9.066  1.00  0.00     0.113 C 
ENDBRANCH   9  13
BRANCH  12  20
HETATM   20  O   UNL     1     -54.963  42.876   8.766  1.00  0.00    -0.353 OA
HETATM   21  C   UNL     1     -56.323  42.746   8.354  1.00  0.00     0.210 C 
ENDBRANCH  12  20
ENDBRANCH   1   7
TORSDOF 4
ENDMDL
MODEL 7
REMARK VINA RESULT:      -6.8      3.321      7.215
REMARK  4 active torsions:
REMARK  status: ('A' for Active; 'I' for Inactive)
REMARK    1  A    between atoms: O_1  and  C_5 
REMARK    2  A    between atoms: O_1  and  C_14 
REMARK    3  A    between atoms: O_2  and  C_18 
REMARK    4  A    between atoms: C_10  and  C_13 
ROOT
HETATM    1  O   UNL     1     -52.367  47.737  11.022  1.00  0.00    -0.343 OA
ENDROOT
BRANCH   1   2
HETATM    2  C   UNL     1     -53.627  48.147  11.539  1.00  0.00     0.129 C 
HETATM    3  C   UNL     1     -54.609  48.330  10.392  1.00  0.00     0.032 C 
HETATM    4  C   UNL     1     -54.266  49.700   9.810  1.00  0.00     0.002 C 
HETATM    5  C   UNL     1     -53.545  50.468  10.917  1.00  0.00     0.002 C 
HETATM    6  C   UNL     1     -53.528  49.543  12.132  1.00  0.00     0.032 C 
ENDBRANCH   1   2
BRANCH   1   7
HETATM    7  C   UNL     1     -52.220  46.406  10.735  1.00  0.00     0.103 A 
HETATM    8  C   UNL     1     -52.515  45.464  11.716  1.00  0.00     0.047 A 
HETATM    9  C   UNL     1     -52.368  44.106  11.436  1.00  0.00    -0.049 A 
HETATM   10  C   UNL     1     -51.927  43.696  10.178  1.00  0.00     0.010 A 
HETATM   11  C   UNL     1     -51.634  44.645   9.199  1.00  0.00     0.040 A 
HETATM   12  C   UNL     1     -51.780  46.004   9.479  1.00  0.00     0.101 A 
BRANCH   9  13
HETATM   13  C   UNL     1     -52.687  43.076  12.498  1.00  0.00     0.045 C 
HETATM   14  C   UNL     1     -51.483  42.392  13.148  1.00  0.00     0.132 C 
HETATM   15  N   UNL     1     -52.023  41.169  13.670  1.00  0.00    -0.360 N 
HETATM   16  C   UNL     1     -53.214  40.806  13.053  1.00  0.00     0.218 C 
HETATM   17  H   UNL     1     -51.597  40.645  14.385  1.00  0.00     0.162 HD
HETATM   18  O   UNL     1     -53.877  39.801  13.253  1.00  0.00    -0.274 OA
HETATM   19  C   UNL     1     -53.526  41.871  12.031  1.00  0.00     0.113 C 
ENDBRANCH   9  13
BRANCH  12  20
HETATM   20  O   UNL     1     -51.488  46.922   8.515  1.00  0.00    -0.353 OA
HETATM   21  C   UNL     1     -52.466  47.123   7.496  1.00  0.00     0.210 C 
ENDBRANCH  12  20
ENDBRANCH   1   7
TORSDOF 4
ENDMDL
MODEL 8
REMARK VINA RESULT:      -6.8      2.698      5.276
REMARK  4 active torsions:
REMARK  status: ('A' for Active; 'I' for Inactive)
REMARK    1  A    between atoms: O_1  and  C_5 
REMARK    2  A    between atoms: O_1  and  C_14 
REMARK    3  A    between atoms: O_2  and  C_18 
REMARK    4  A    between atoms: C_10  and  C_13 
ROOT
HETATM    1  O   UNL     1     -52.793  46.301   9.742  1.00  0.00    -0.343 OA
ENDROOT
BRANCH   1   2
HETATM    2  C   UNL     1     -51.488  45.889   9.356  1.00  0.00     0.129 C 
HETATM    3  C   UNL     1     -50.975  46.800   8.250  1.00  0.00     0.032 C 
HETATM    4  C   UNL     1     -51.648  46.277   6.982  1.00  0.00     0.002 C 
HETATM    5  C   UNL     1     -52.037  44.828   7.269  1.00  0.00     0.002 C 
HETATM    6  C   UNL     1     -51.540  44.527   8.682  1.00  0.00     0.032 C 
ENDBRANCH   1   2
BRANCH   1   7
HETATM    7  C   UNL     1     -52.876  47.228  10.748  1.00  0.00     0.103 A 
HETATM    8  C   UNL     1     -52.333  46.928  11.993  1.00  0.00     0.047 A 
HETATM    9  C   UNL     1     -52.412  47.861  13.025  1.00  0.00    -0.049 A 
HETATM   10  C   UNL     1     -53.034  49.091  12.808  1.00  0.00     0.010 A 
HETATM   11  C   UNL     1     -53.576  49.386  11.557  1.00  0.00     0.040 A 
HETATM   12  C   UNL     1     -53.498  48.451  10.524  1.00  0.00     0.101 A 
BRANCH   9  13
HETATM   13  C   UNL     1     -51.823  47.541  14.382  1.00  0.00     0.045 C 
HETATM   14  C   UNL     1     -51.460  48.746  15.253  1.00  0.00     0.132 C 
HETATM   15  N   UNL     1     -50.489  48.225  16.172  1.00  0.00    -0.360 N 
HETATM   16  C   UNL     1     -49.888  47.061  15.709  1.00  0.00     0.218 C 
HETATM   17  H   UNL     1     -50.272  48.646  17.035  1.00  0.00     0.162 HD
HETATM   18  O   UNL     1     -48.999  46.420  16.248  1.00  0.00    -0.274 OA
HETATM   19  C   UNL     1     -50.502  46.748  14.368  1.00  0.00     0.113 C 
ENDBRANCH   9  13
BRANCH  12  20
HETATM   20  O   UNL     1     -54.032  48.751   9.308  1.00  0.00    -0.353 OA
HETATM   21  C   UNL     1     -53.299  49.654   8.482  1.00  0.00     0.210 C 
ENDBRANCH  12  20
ENDBRANCH   1   7
TORSDOF 4
ENDMDL
MODEL 9
REMARK VINA RESULT:      -6.8      1.776      3.371
REMARK  4 active torsions:
REMARK  status: ('A' for Active; 'I' for Inactive)
REMARK    1  A    between atoms: O_1  and  C_5 
REMARK    2  A    between atoms: O_1  and  C_14 
REMARK    3  A    between atoms: O_2  and  C_18 
REMARK    4  A    between atoms: C_10  and  C_13 
ROOT
HETATM    1  O   UNL     1     -51.338  45.618  11.146  1.00  0.00    -0.343 OA
ENDROOT
BRANCH   1   2
HETATM    2  C   UNL     1     -51.331  45.743  12.562  1.00  0.00     0.129 C 
HETATM    3  C   UNL     1     -49.939  45.431  13.092  1.00  0.00     0.032 C 
HETATM    4  C   UNL     1     -49.869  43.905  13.105  1.00  0.00     0.002 C 
HETATM    5  C   UNL     1     -51.314  43.409  13.141  1.00  0.00     0.002 C 
HETATM    6  C   UNL     1     -52.190  44.660  13.195  1.00  0.00     0.032 C 
ENDBRANCH   1   2
BRANCH   1   7
HETATM    7  C   UNL     1     -52.434  46.110  10.488  1.00  0.00     0.103 A 
HETATM    8  C   UNL     1     -52.706  47.473  10.548  1.00  0.00     0.047 A 
HETATM    9  C   UNL     1     -53.819  47.986   9.884  1.00  0.00    -0.049 A 
HETATM   10  C   UNL     1     -54.655  47.134   9.162  1.00  0.00     0.010 A 
HETATM   11  C   UNL     1     -54.376  45.769   9.104  1.00  0.00     0.040 A 
HETATM   12  C   UNL     1     -53.263  45.255   9.770  1.00  0.00     0.101 A 
BRANCH   9  13
HETATM   13  C   UNL     1     -54.120  49.468   9.946  1.00  0.00     0.045 C 
HETATM   14  C   UNL     1     -53.501  50.321   8.837  1.00  0.00     0.132 C 
HETATM   15  N   UNL     1     -53.477  51.643   9.396  1.00  0.00    -0.360 N 
HETATM   16  C   UNL     1     -53.548  51.638  10.783  1.00  0.00     0.218 C 
HETATM   17  H   UNL     1     -53.416  52.464   8.855  1.00  0.00     0.162 HD
HETATM   18  O   UNL     1     -53.503  52.601  11.532  1.00  0.00    -0.274 OA
HETATM   19  C   UNL     1     -53.641  50.196  11.216  1.00  0.00     0.113 C 
ENDBRANCH   9  13
BRANCH  12  20
HETATM   20  O   UNL     1     -53.003  43.919   9.707  1.00  0.00    -0.353 OA
HETATM   21  C   UNL     1     -54.123  43.046   9.578  1.00  0.00     0.210 C 
ENDBRANCH  12  20
ENDBRANCH   1   7
TORSDOF 4
ENDMDL
