MODEL 1
REMARK VINA RESULT:      -7.2      0.000      0.000
REMARK  4 active torsions:
REMARK  status: ('A' for Active; 'I' for Inactive)
REMARK    1  A    between atoms: O_1  and  C_5 
REMARK    2  A    between atoms: O_1  and  C_14 
REMARK    3  A    between atoms: O_2  and  C_18 
REMARK    4  A    between atoms: C_10  and  C_13 
ROOT
HETATM    1  O   UNL     1     -51.645  46.292   7.313  1.00  0.00    -0.343 OA
ENDROOT
BRANCH   1   2
HETATM    2  C   UNL     1     -52.429  46.643   6.179  1.00  0.00     0.129 C 
HETATM    3  C   UNL     1     -53.120  45.401   5.638  1.00  0.00     0.032 C 
HETATM    4  C   UNL     1     -52.043  44.688   4.824  1.00  0.00     0.002 C 
HETATM    5  C   UNL     1     -51.008  45.751   4.456  1.00  0.00     0.002 C 
HETATM    6  C   UNL     1     -51.533  47.067   5.026  1.00  0.00     0.032 C 
ENDBRANCH   1   2
BRANCH   1   7
HETATM    7  C   UNL     1     -52.092  46.727   8.532  1.00  0.00     0.103 A 
HETATM    8  C   UNL     1     -52.662  47.992   8.634  1.00  0.00     0.047 A 
HETATM    9  C   UNL     1     -53.120  48.447   9.869  1.00  0.00    -0.049 A 
HETATM   10  C   UNL     1     -53.007  47.635  10.998  1.00  0.00     0.010 A 
HETATM   11  C   UNL     1     -52.435  46.367  10.889  1.00  0.00     0.040 A 
HETATM   12  C   UNL     1     -51.976  45.912   9.653  1.00  0.00     0.101 A 
BRANCH   9  13
HETATM   13  C   UNL     1     -53.742  49.822   9.987  1.00  0.00     0.045 C 
HETATM   14  C   UNL     1     -53.375  50.816   8.883  1.00  0.00     0.132 C 
HETATM   15  N   UNL     1     -53.622  52.098   9.480  1.00  0.00    -0.360 N 
HETATM   16  C   UNL     1     -53.632  52.047  10.868  1.00  0.00     0.218 C 
HETATM   17  H   UNL     1     -53.768  52.922   8.963  1.00  0.00     0.162 HD
HETATM   18  O   UNL     1     -53.772  52.979  11.644  1.00  0.00    -0.274 OA
HETATM   19  C   UNL     1     -53.383  50.612  11.261  1.00  0.00     0.113 C 
ENDBRANCH   9  13
BRANCH  12  20
HETATM   20  O   UNL     1     -51.418  44.673   9.560  1.00  0.00    -0.353 OA
HETATM   21  C   UNL     1     -52.068  43.616  10.264  1.00  0.00     0.210 C 
ENDBRANCH  12  20
ENDBRANCH   1   7
TORSDOF 4
ENDMDL
MODEL 2
REMARK VINA RESULT:      -7.2      3.005      4.027
REMARK  4 active torsions:
REMARK  status: ('A' for Active; 'I' for Inactive)
REMARK    1  A    between atoms: O_1  and  C_5 
REMARK    2  A    between atoms: O_1  and  C_14 
REMARK    3  A    between atoms: O_2  and  C_18 
REMARK    4  A    between atoms: C_10  and  C_13 
ROOT
HETATM    1  O   UNL     1     -51.492  44.897  11.430  1.00  0.00    -0.343 OA
ENDROOT
BRANCH   1   2
HETATM    2  C   UNL     1     -50.629  45.012  10.305  1.00  0.00     0.129 C 
HETATM    3  C   UNL     1     -50.353  43.629   9.735  1.00  0.00     0.032 C 
HETATM    4  C   UNL     1     -49.279  43.045  10.652  1.00  0.00     0.002 C 
HETATM    5  C   UNL     1     -48.593  44.235  11.321  1.00  0.00     0.002 C 
HETATM    6  C   UNL     1     -49.251  45.485  10.741  1.00  0.00     0.032 C 
ENDBRANCH   1   2
BRANCH   1   7
HETATM    7  C   UNL     1     -51.987  46.063  11.951  1.00  0.00     0.103 A 
HETATM    8  C   UNL     1     -52.586  46.986  11.100  1.00  0.00     0.047 A 
HETATM    9  C   UNL     1     -53.091  48.178  11.618  1.00  0.00    -0.049 A 
HETATM   10  C   UNL     1     -52.996  48.441  12.984  1.00  0.00     0.010 A 
HETATM   11  C   UNL     1     -52.395  47.511  13.832  1.00  0.00     0.040 A 
HETATM   12  C   UNL     1     -51.888  46.319  13.314  1.00  0.00     0.101 A 
BRANCH   9  13
HETATM   13  C   UNL     1     -53.745  49.186  10.698  1.00  0.00     0.045 C 
HETATM   14  C   UNL     1     -53.282  49.157   9.240  1.00  0.00     0.132 C 
HETATM   15  N   UNL     1     -53.612  50.464   8.749  1.00  0.00    -0.360 N 
HETATM   16  C   UNL     1     -53.766  51.394   9.769  1.00  0.00     0.218 C 
HETATM   17  H   UNL     1     -53.717  50.679   7.794  1.00  0.00     0.162 HD
HETATM   18  O   UNL     1     -54.002  52.587   9.657  1.00  0.00    -0.274 OA
HETATM   19  C   UNL     1     -53.535  50.666  11.070  1.00  0.00     0.113 C 
ENDBRANCH   9  13
BRANCH  12  20
HETATM   20  O   UNL     1     -51.302  45.420  14.153  1.00  0.00    -0.353 OA
HETATM   21  C   UNL     1     -50.150  45.859  14.871  1.00  0.00     0.210 C 
ENDBRANCH  12  20
ENDBRANCH   1   7
TORSDOF 4
ENDMDL
MODEL 3
REMARK VINA RESULT:      -7.2      2.828      3.801
REMARK  4 active torsions:
REMARK  status: ('A' for Active; 'I' for Inactive)
REMARK    1  A    between atoms: O_1  and  C_5 
REMARK    2  A    between atoms: O_1  and  C_14 
REMARK    3  A    between atoms: O_2  and  C_18 
REMARK    4  A    between atoms: C_10  and  C_13 
ROOT
HETATM    1  O   UNL     1     -51.515  44.971  11.412  1.00  0.00    -0.343 OA
ENDROOT
BRANCH   1   2
HETATM    2  C   UNL     1     -52.065  44.575  10.162  1.00  0.00     0.129 C 
HETATM    3  C   UNL     1     -53.084  43.468  10.384  1.00  0.00     0.032 C 
HETATM    4  C   UNL     1     -52.243  42.203  10.552  1.00  0.00     0.002 C 
HETATM    5  C   UNL     1     -50.898  42.491   9.887  1.00  0.00     0.002 C 
HETATM    6  C   UNL     1     -51.005  43.900   9.307  1.00  0.00     0.032 C 
ENDBRANCH   1   2
BRANCH   1   7
HETATM    7  C   UNL     1     -51.994  46.132  11.958  1.00  0.00     0.103 A 
HETATM    8  C   UNL     1     -52.607  47.068  11.131  1.00  0.00     0.047 A 
HETATM    9  C   UNL     1     -53.098  48.255  11.674  1.00  0.00    -0.049 A 
HETATM   10  C   UNL     1     -52.973  48.501  13.041  1.00  0.00     0.010 A 
HETATM   11  C   UNL     1     -52.358  47.558  13.865  1.00  0.00     0.040 A 
HETATM   12  C   UNL     1     -51.866  46.371  13.322  1.00  0.00     0.101 A 
BRANCH   9  13
HETATM   13  C   UNL     1     -53.766  49.277  10.780  1.00  0.00     0.045 C 
HETATM   14  C   UNL     1     -53.406  49.201   9.295  1.00  0.00     0.132 C 
HETATM   15  N   UNL     1     -53.709  50.514   8.801  1.00  0.00    -0.360 N 
HETATM   16  C   UNL     1     -53.751  51.467   9.810  1.00  0.00     0.218 C 
HETATM   17  H   UNL     1     -53.870  50.717   7.851  1.00  0.00     0.162 HD
HETATM   18  O   UNL     1     -53.939  52.667   9.690  1.00  0.00    -0.274 OA
HETATM   19  C   UNL     1     -53.464  50.752  11.107  1.00  0.00     0.113 C 
ENDBRANCH   9  13
BRANCH  12  20
HETATM   20  O   UNL     1     -51.266  45.460  14.137  1.00  0.00    -0.353 OA
HETATM   21  C   UNL     1     -50.210  45.933  14.972  1.00  0.00     0.210 C 
ENDBRANCH  12  20
ENDBRANCH   1   7
TORSDOF 4
ENDMDL
MODEL 4
REMARK VINA RESULT:      -7.1      2.941      5.301
REMARK  4 active torsions:
REMARK  status: ('A' for Active; 'I' for Inactive)
REMARK    1  A    between atoms: O_1  and  C_5 
REMARK    2  A    between atoms: O_1  and  C_14 
REMARK    3  A    between atoms: O_2  and  C_18 
REMARK    4  A    between atoms: C_10  and  C_13 
ROOT
HETATM    1  O   UNL     1     -53.111  47.898   8.750  1.00  0.00    -0.343 OA
ENDROOT
BRANCH   1   2
HETATM    2  C   UNL     1     -52.385  46.711   8.453  1.00  0.00     0.129 C 
HETATM    3  C   UNL     1     -51.080  47.075   7.761  1.00  0.00     0.032 C 
HETATM    4  C   UNL     1     -51.477  47.340   6.310  1.00  0.00     0.002 C 
HETATM    5  C   UNL     1     -52.799  46.607   6.086  1.00  0.00     0.002 C 
HETATM    6  C   UNL     1     -53.116  45.893   7.399  1.00  0.00     0.032 C 
ENDBRANCH   1   2
BRANCH   1   7
HETATM    7  C   UNL     1     -53.107  48.314  10.055  1.00  0.00     0.103 A 
HETATM    8  C   UNL     1     -52.757  47.411  11.054  1.00  0.00     0.047 A 
HETATM    9  C   UNL     1     -52.751  47.821  12.386  1.00  0.00    -0.049 A 
HETATM   10  C   UNL     1     -53.096  49.132  12.714  1.00  0.00     0.010 A 
HETATM   11  C   UNL     1     -53.445  50.033  11.708  1.00  0.00     0.040 A 
HETATM   12  C   UNL     1     -53.452  49.622  10.375  1.00  0.00     0.101 A 
BRANCH   9  13
HETATM   13  C   UNL     1     -52.370  46.844  13.477  1.00  0.00     0.045 C 
HETATM   14  C   UNL     1     -51.210  47.270  14.378  1.00  0.00     0.132 C 
HETATM   15  N   UNL     1     -50.726  46.032  14.922  1.00  0.00    -0.360 N 
HETATM   16  C   UNL     1     -51.096  44.933  14.158  1.00  0.00     0.218 C 
HETATM   17  H   UNL     1     -50.191  45.969  15.746  1.00  0.00     0.162 HD
HETATM   18  O   UNL     1     -50.796  43.765  14.344  1.00  0.00    -0.274 OA
HETATM   19  C   UNL     1     -51.911  45.453  12.999  1.00  0.00     0.113 C 
ENDBRANCH   9  13
BRANCH  12  20
HETATM   20  O   UNL     1     -53.797  50.511   9.402  1.00  0.00    -0.353 OA
HETATM   21  C   UNL     1     -53.670  51.897   9.715  1.00  0.00     0.210 C 
ENDBRANCH  12  20
ENDBRANCH   1   7
TORSDOF 4
ENDMDL
MODEL 5
REMARK VINA RESULT:      -7.0      2.049      2.705
REMARK  4 active torsions:
REMARK  status: ('A' for Active; 'I' for Inactive)
REMARK    1  A    between atoms: O_1  and  C_5 
REMARK    2  A    between atoms: O_1  and  C_14 
REMARK    3  A    between atoms: O_2  and  C_18 
REMARK    4  A    between atoms: C_10  and  C_13 
ROOT
HETATM    1  O   UNL     1     -52.015  44.360   9.840  1.00  0.00    -0.343 OA
ENDROOT
BRANCH   1   2
HETATM    2  C   UNL     1     -52.779  44.142   8.661  1.00  0.00     0.129 C 
HETATM    3  C   UNL     1     -53.443  42.775   8.734  1.00  0.00     0.032 C 
HETATM    4  C   UNL     1     -52.339  41.794   8.346  1.00  0.00     0.002 C 
HETATM    5  C   UNL     1     -51.311  42.596   7.549  1.00  0.00     0.002 C 
HETATM    6  C   UNL     1     -51.865  44.016   7.453  1.00  0.00     0.032 C 
ENDBRANCH   1   2
BRANCH   1   7
HETATM    7  C   UNL     1     -52.289  45.498  10.553  1.00  0.00     0.103 A 
HETATM    8  C   UNL     1     -52.826  46.599   9.893  1.00  0.00     0.047 A 
HETATM    9  C   UNL     1     -53.109  47.762  10.607  1.00  0.00    -0.049 A 
HETATM   10  C   UNL     1     -52.852  47.821  11.977  1.00  0.00     0.010 A 
HETATM   11  C   UNL     1     -52.315  46.713  12.632  1.00  0.00     0.040 A 
HETATM   12  C   UNL     1     -52.031  45.549  11.918  1.00  0.00     0.101 A 
BRANCH   9  13
HETATM   13  C   UNL     1     -53.694  48.963   9.895  1.00  0.00     0.045 C 
HETATM   14  C   UNL     1     -53.091  49.286   8.527  1.00  0.00     0.132 C 
HETATM   15  N   UNL     1     -53.403  50.674   8.334  1.00  0.00    -0.360 N 
HETATM   16  C   UNL     1     -53.677  51.330   9.527  1.00  0.00     0.218 C 
HETATM   17  H   UNL     1     -53.420  51.113   7.453  1.00  0.00     0.162 HD
HETATM   18  O   UNL     1     -53.930  52.515   9.682  1.00  0.00    -0.274 OA
HETATM   19  C   UNL     1     -53.556  50.310  10.632  1.00  0.00     0.113 C 
ENDBRANCH   9  13
BRANCH  12  20
HETATM   20  O   UNL     1     -51.504  44.475  12.570  1.00  0.00    -0.353 OA
HETATM   21  C   UNL     1     -52.422  43.593  13.212  1.00  0.00     0.210 C 
ENDBRANCH  12  20
ENDBRANCH   1   7
TORSDOF 4
ENDMDL
MODEL 6
REMARK VINA RESULT:      -6.9      2.548      3.624
REMARK  4 active torsions:
REMARK  status: ('A' for Active; 'I' for Inactive)
REMARK    1  A    between atoms: O_1  and  C_5 
REMARK    2  A    between atoms: O_1  and  C_14 
REMARK    3  A    between atoms: O_2  and  C_18 
REMARK    4  A    between atoms: C_10  and  C_13 
ROOT
HETATM    1  O   UNL     1     -52.269  43.417   9.656  1.00  0.00    -0.343 OA
ENDROOT
BRANCH   1   2
HETATM    2  C   UNL     1     -51.139  43.402   8.793  1.00  0.00     0.129 C 
HETATM    3  C   UNL     1     -51.580  43.026   7.386  1.00  0.00     0.032 C 
HETATM    4  C   UNL     1     -51.724  41.506   7.425  1.00  0.00     0.002 C 
HETATM    5  C   UNL     1     -50.860  41.023   8.589  1.00  0.00     0.002 C 
HETATM    6  C   UNL     1     -50.198  42.270   9.172  1.00  0.00     0.032 C 
ENDBRANCH   1   2
BRANCH   1   7
HETATM    7  C   UNL     1     -53.151  44.455   9.501  1.00  0.00     0.103 A 
HETATM    8  C   UNL     1     -52.737  45.748   9.806  1.00  0.00     0.047 A 
HETATM    9  C   UNL     1     -53.624  46.811   9.655  1.00  0.00    -0.049 A 
HETATM   10  C   UNL     1     -54.922  46.579   9.200  1.00  0.00     0.010 A 
HETATM   11  C   UNL     1     -55.331  45.280   8.895  1.00  0.00     0.040 A 
HETATM   12  C   UNL     1     -54.443  44.215   9.047  1.00  0.00     0.101 A 
BRANCH   9  13
HETATM   13  C   UNL     1     -53.180  48.220   9.984  1.00  0.00     0.045 C 
HETATM   14  C   UNL     1     -53.511  48.711  11.395  1.00  0.00     0.132 C 
HETATM   15  N   UNL     1     -53.486  50.141  11.275  1.00  0.00    -0.360 N 
HETATM   16  C   UNL     1     -53.648  50.569   9.964  1.00  0.00     0.218 C 
HETATM   17  H   UNL     1     -53.367  50.752  12.038  1.00  0.00     0.162 HD
HETATM   18  O   UNL     1     -53.714  51.721   9.562  1.00  0.00    -0.274 OA
HETATM   19  C   UNL     1     -53.785  49.335   9.108  1.00  0.00     0.113 C 
ENDBRANCH   9  13
BRANCH  12  20
HETATM   20  O   UNL     1     -54.855  42.952   8.748  1.00  0.00    -0.353 OA
HETATM   21  C   UNL     1     -56.260  42.741   8.625  1.00  0.00     0.210 C 
ENDBRANCH  12  20
ENDBRANCH   1   7
TORSDOF 4
ENDMDL
MODEL 7
REMARK VINA RESULT:      -6.8      3.438      5.015
REMARK  4 active torsions:
REMARK  status: ('A' for Active; 'I' for Inactive)
REMARK    1  A    between atoms: O_1  and  C_5 
REMARK    2  A    between atoms: O_1  and  C_14 
REMARK    3  A    between atoms: O_2  and  C_18 
REMARK    4  A    between atoms: C_10  and  C_13 
ROOT
HETATM    1  O   UNL     1     -52.835  46.598   9.552  1.00  0.00    -0.343 OA
ENDROOT
BRANCH   1   2
HETATM    2  C   UNL     1     -51.529  46.212   9.146  1.00  0.00     0.129 C 
HETATM    3  C   UNL     1     -51.104  47.045   7.946  1.00  0.00     0.032 C 
HETATM    4  C   UNL     1     -51.800  46.385   6.757  1.00  0.00     0.002 C 
HETATM    5  C   UNL     1     -52.109  44.950   7.183  1.00  0.00     0.002 C 
HETATM    6  C   UNL     1     -51.543  44.795   8.593  1.00  0.00     0.032 C 
ENDBRANCH   1   2
BRANCH   1   7
HETATM    7  C   UNL     1     -52.921  47.505  10.575  1.00  0.00     0.103 A 
HETATM    8  C   UNL     1     -52.441  47.156  11.834  1.00  0.00     0.047 A 
HETATM    9  C   UNL     1     -52.524  48.069  12.883  1.00  0.00    -0.049 A 
HETATM   10  C   UNL     1     -53.087  49.327  12.671  1.00  0.00     0.010 A 
HETATM   11  C   UNL     1     -53.566  49.672  11.407  1.00  0.00     0.040 A 
HETATM   12  C   UNL     1     -53.484  48.758  10.357  1.00  0.00     0.101 A 
BRANCH   9  13
HETATM   13  C   UNL     1     -52.004  47.695  14.254  1.00  0.00     0.045 C 
HETATM   14  C   UNL     1     -51.606  48.864  15.158  1.00  0.00     0.132 C 
HETATM   15  N   UNL     1     -50.699  48.274  16.102  1.00  0.00    -0.360 N 
HETATM   16  C   UNL     1     -50.148  47.086  15.641  1.00  0.00     0.218 C 
HETATM   17  H   UNL     1     -50.491  48.669  16.979  1.00  0.00     0.162 HD
HETATM   18  O   UNL     1     -49.316  46.388  16.200  1.00  0.00    -0.274 OA
HETATM   19  C   UNL     1     -50.729  46.829  14.273  1.00  0.00     0.113 C 
ENDBRANCH   9  13
BRANCH  12  20
HETATM   20  O   UNL     1     -53.957  49.106   9.127  1.00  0.00    -0.353 OA
HETATM   21  C   UNL     1     -53.198  50.062   8.388  1.00  0.00     0.210 C 
ENDBRANCH  12  20
ENDBRANCH   1   7
TORSDOF 4
ENDMDL
MODEL 8
REMARK VINA RESULT:      -6.8      3.541      7.192
REMARK  4 active torsions:
REMARK  status: ('A' for Active; 'I' for Inactive)
REMARK    1  A    between atoms: O_1  and  C_5 
REMARK    2  A    between atoms: O_1  and  C_14 
REMARK    3  A    between atoms: O_2  and  C_18 
REMARK    4  A    between atoms: C_10  and  C_13 
ROOT
HETATM    1  O   UNL     1     -52.378  47.720  11.021  1.00  0.00    -0.343 OA
ENDROOT
BRANCH   1   2
HETATM    2  C   UNL     1     -53.646  48.131  11.517  1.00  0.00     0.129 C 
HETATM    3  C   UNL     1     -54.595  48.365  10.351  1.00  0.00     0.032 C 
HETATM    4  C   UNL     1     -54.218  49.748   9.823  1.00  0.00     0.002 C 
HETATM    5  C   UNL     1     -53.517  50.470  10.973  1.00  0.00     0.002 C 
HETATM    6  C   UNL     1     -53.544  49.506  12.158  1.00  0.00     0.032 C 
ENDBRANCH   1   2
BRANCH   1   7
HETATM    7  C   UNL     1     -52.230  46.389  10.731  1.00  0.00     0.103 A 
HETATM    8  C   UNL     1     -52.531  45.445  11.708  1.00  0.00     0.047 A 
HETATM    9  C   UNL     1     -52.383  44.088  11.426  1.00  0.00    -0.049 A 
HETATM   10  C   UNL     1     -51.933  43.681  10.170  1.00  0.00     0.010 A 
HETATM   11  C   UNL     1     -51.634  44.632   9.195  1.00  0.00     0.040 A 
HETATM   12  C   UNL     1     -51.781  45.990   9.477  1.00  0.00     0.101 A 
BRANCH   9  13
HETATM   13  C   UNL     1     -52.709  43.056  12.483  1.00  0.00     0.045 C 
HETATM   14  C   UNL     1     -51.509  42.411  13.180  1.00  0.00     0.132 C 
HETATM   15  N   UNL     1     -52.032  41.176  13.691  1.00  0.00    -0.360 N 
HETATM   16  C   UNL     1     -53.188  40.774  13.035  1.00  0.00     0.218 C 
HETATM   17  H   UNL     1     -51.616  40.669  14.425  1.00  0.00     0.162 HD
HETATM   18  O   UNL     1     -53.828  39.751  13.219  1.00  0.00    -0.274 OA
HETATM   19  C   UNL     1     -53.495  41.823  11.995  1.00  0.00     0.113 C 
ENDBRANCH   9  13
BRANCH  12  20
HETATM   20  O   UNL     1     -51.484  46.910   8.517  1.00  0.00    -0.353 OA
HETATM   21  C   UNL     1     -52.454  47.113   7.491  1.00  0.00     0.210 C 
ENDBRANCH  12  20
ENDBRANCH   1   7
TORSDOF 4
ENDMDL
MODEL 9
REMARK VINA RESULT:      -6.8      2.568      4.810
REMARK  4 active torsions:
REMARK  status: ('A' for Active; 'I' for Inactive)
REMARK    1  A    between atoms: O_1  and  C_5 
REMARK    2  A    between atoms: O_1  and  C_14 
REMARK    3  A    between atoms: O_2  and  C_18 
REMARK    4  A    between atoms: C_10  and  C_13 
ROOT
HETATM    1  O   UNL     1     -51.503  45.676  11.918  1.00  0.00    -0.343 OA
ENDROOT
BRANCH   1   2
HETATM    2  C   UNL     1     -51.975  45.496  13.247  1.00  0.00     0.129 C 
HETATM    3  C   UNL     1     -51.260  46.468  14.174  1.00  0.00     0.032 C 
HETATM    4  C   UNL     1     -49.904  45.816  14.438  1.00  0.00     0.002 C 
HETATM    5  C   UNL     1     -50.083  44.324  14.157  1.00  0.00     0.002 C 
HETATM    6  C   UNL     1     -51.551  44.137  13.781  1.00  0.00     0.032 C 
ENDBRANCH   1   2
BRANCH   1   7
HETATM    7  C   UNL     1     -52.405  46.146  11.000  1.00  0.00     0.103 A 
HETATM    8  C   UNL     1     -52.751  47.494  11.019  1.00  0.00     0.047 A 
HETATM    9  C   UNL     1     -53.669  47.985  10.092  1.00  0.00    -0.049 A 
HETATM   10  C   UNL     1     -54.236  47.127   9.149  1.00  0.00     0.010 A 
HETATM   11  C   UNL     1     -53.883  45.778   9.134  1.00  0.00     0.040 A 
HETATM   12  C   UNL     1     -52.966  45.286  10.063  1.00  0.00     0.101 A 
BRANCH   9  13
HETATM   13  C   UNL     1     -54.050  49.449  10.107  1.00  0.00     0.045 C 
HETATM   14  C   UNL     1     -53.529  50.287   8.937  1.00  0.00     0.132 C 
HETATM   15  N   UNL     1     -53.555  51.631   9.440  1.00  0.00    -0.360 N 
HETATM   16  C   UNL     1     -53.565  51.681  10.828  1.00  0.00     0.218 C 
HETATM   17  H   UNL     1     -53.564  52.429   8.864  1.00  0.00     0.162 HD
HETATM   18  O   UNL     1     -53.541  52.677  11.534  1.00  0.00    -0.274 OA
HETATM   19  C   UNL     1     -53.557  50.257  11.323  1.00  0.00     0.113 C 
ENDBRANCH   9  13
BRANCH  12  20
HETATM   20  O   UNL     1     -52.631  43.965  10.039  1.00  0.00    -0.353 OA
HETATM   21  C   UNL     1     -53.668  43.029  10.325  1.00  0.00     0.210 C 
ENDBRANCH  12  20
ENDBRANCH   1   7
TORSDOF 4
ENDMDL
