MODEL 1
REMARK VINA RESULT:      -6.7      0.000      0.000
REMARK  11 active torsions:
REMARK  status: ('A' for Active; 'I' for Inactive)
REMARK    1  A    between atoms: C1_1  and  C2_2 
REMARK    2  A    between atoms: C1_1  and  C10_13 
REMARK    3  A    between atoms: C2_2  and  C3_3 
REMARK    4  A    between atoms: C3_3  and  C4_4 
REMARK    5  A    between atoms: C6_6  and  O1_7 
REMARK    6  A    between atoms: C7_8  and  O2_9 
REMARK    7  A    between atoms: C10_13  and  O4_14 
REMARK    8  A    between atoms: C10_13  and  C11_15 
REMARK    9  A    between atoms: C11_15  and  O5_16 
REMARK   10  A    between atoms: C11_15  and  C12_17 
REMARK   11  A    between atoms: C12_17  and  O6_18 
ROOT
HETATM    1  C1  UNL     1      13.279   6.206  15.786  1.00  0.00     0.158 C 
HETATM    2  O3  UNL     1      13.924   6.592  16.766  1.00  0.00    -0.295 OA
ENDROOT
BRANCH   1   3
HETATM    3  C2  UNL     1      13.748   5.012  14.974  1.00  0.00     0.086 C 
BRANCH   3   4
HETATM    4  C3  UNL     1      14.932   5.320  14.061  1.00  0.00     0.046 C 
BRANCH   4   5
HETATM    5  C4  UNL     1      14.639   5.111  12.594  1.00  0.00    -0.055 A 
HETATM    6  C5  UNL     1      13.387   4.634  12.173  1.00  0.00     0.046 A 
HETATM    7  C6  UNL     1      13.145   4.439  10.817  1.00  0.00     0.099 A 
HETATM    8  C7  UNL     1      14.132   4.721   9.877  1.00  0.00     0.098 A 
HETATM    9  C8  UNL     1      15.371   5.196  10.273  1.00  0.00     0.040 A 
HETATM   10  C9  UNL     1      15.624   5.394  11.631  1.00  0.00     0.010 A 
BRANCH   7  11
HETATM   11  O1  UNL     1      11.945   3.971  10.357  1.00  0.00    -0.358 OA
HETATM   12  H   UNL     1      11.187   4.522  10.378  1.00  0.00     0.217 HD
ENDBRANCH   7  11
BRANCH   8  13
HETATM   13  O2  UNL     1      13.884   4.526   8.548  1.00  0.00    -0.358 OA
HETATM   14  H   UNL     1      13.150   4.944   8.143  1.00  0.00     0.217 HD
ENDBRANCH   8  13
ENDBRANCH   4   5
ENDBRANCH   3   4
ENDBRANCH   1   3
BRANCH   1  15
HETATM   15  C10 UNL     1      11.962   6.873  15.381  1.00  0.00     0.218 C 
BRANCH  15  16
HETATM   16  O4  UNL     1      11.253   7.213  16.573  1.00  0.00    -0.385 OA
HETATM   17  H   UNL     1      10.951   8.133  16.518  1.00  0.00     0.210 HD
ENDBRANCH  15  16
BRANCH  15  18
HETATM   18  C11 UNL     1      12.211   8.116  14.501  1.00  0.00     0.177 C 
BRANCH  18  19
HETATM   19  O5  UNL     1      13.571   8.566  14.606  1.00  0.00    -0.390 OA
HETATM   20  H   UNL     1      13.909   8.369  15.494  1.00  0.00     0.210 HD
ENDBRANCH  18  19
BRANCH  18  21
HETATM   21  C12 UNL     1      11.965   7.809  13.018  1.00  0.00     0.198 C 
BRANCH  21  22
HETATM   22  O6  UNL     1      11.061   6.708  12.896  1.00  0.00    -0.398 OA
HETATM   23  H   UNL     1      11.561   5.876  12.910  1.00  0.00     0.209 HD
ENDBRANCH  21  22
ENDBRANCH  18  21
ENDBRANCH  15  18
ENDBRANCH   1  15
TORSDOF 11
ENDMDL
MODEL 2
REMARK VINA RESULT:      -6.5      1.401      5.998
REMARK  11 active torsions:
REMARK  status: ('A' for Active; 'I' for Inactive)
REMARK    1  A    between atoms: C1_1  and  C2_2 
REMARK    2  A    between atoms: C1_1  and  C10_13 
REMARK    3  A    between atoms: C2_2  and  C3_3 
REMARK    4  A    between atoms: C3_3  and  C4_4 
REMARK    5  A    between atoms: C6_6  and  O1_7 
REMARK    6  A    between atoms: C7_8  and  O2_9 
REMARK    7  A    between atoms: C10_13  and  O4_14 
REMARK    8  A    between atoms: C10_13  and  C11_15 
REMARK    9  A    between atoms: C11_15  and  O5_16 
REMARK   10  A    between atoms: C11_15  and  C12_17 
REMARK   11  A    between atoms: C12_17  and  O6_18 
ROOT
HETATM    1  C1  UNL     1      14.256   5.130  10.386  1.00  0.00     0.158 C 
HETATM    2  O3  UNL     1      14.550   5.807   9.396  1.00  0.00    -0.295 OA
ENDROOT
BRANCH   1   3
HETATM    3  C2  UNL     1      15.010   5.304  11.693  1.00  0.00     0.086 C 
BRANCH   3   4
HETATM    4  C3  UNL     1      14.898   6.709  12.281  1.00  0.00     0.046 C 
BRANCH   4   5
HETATM    5  C4  UNL     1      13.863   6.830  13.375  1.00  0.00    -0.055 A 
HETATM    6  C5  UNL     1      14.059   6.209  14.620  1.00  0.00     0.046 A 
HETATM    7  C6  UNL     1      13.086   6.327  15.607  1.00  0.00     0.099 A 
HETATM    8  C7  UNL     1      11.927   7.059  15.372  1.00  0.00     0.098 A 
HETATM    9  C8  UNL     1      11.718   7.681  14.152  1.00  0.00     0.040 A 
HETATM   10  C9  UNL     1      12.688   7.569  13.154  1.00  0.00     0.010 A 
BRANCH   7  11
HETATM   11  O1  UNL     1      13.227   5.736  16.833  1.00  0.00    -0.358 OA
HETATM   12  H   UNL     1      12.873   4.882  16.985  1.00  0.00     0.217 HD
ENDBRANCH   7  11
BRANCH   8  13
HETATM   13  O2  UNL     1      10.978   7.167  16.348  1.00  0.00    -0.358 OA
HETATM   14  H   UNL     1      10.361   6.475  16.480  1.00  0.00     0.217 HD
ENDBRANCH   8  13
ENDBRANCH   4   5
ENDBRANCH   3   4
ENDBRANCH   1   3
BRANCH   1  15
HETATM   15  C10 UNL     1      13.096   4.133  10.359  1.00  0.00     0.218 C 
BRANCH  15  16
HETATM   16  O4  UNL     1      11.933   4.792  10.861  1.00  0.00    -0.385 OA
HETATM   17  H   UNL     1      11.142   4.289  10.611  1.00  0.00     0.210 HD
ENDBRANCH  15  16
BRANCH  15  18
HETATM   18  C11 UNL     1      12.861   3.586   8.935  1.00  0.00     0.177 C 
BRANCH  18  19
HETATM   19  O5  UNL     1      12.934   4.634   7.955  1.00  0.00    -0.390 OA
HETATM   20  H   UNL     1      13.082   5.483   8.400  1.00  0.00     0.210 HD
ENDBRANCH  18  19
BRANCH  18  21
HETATM   21  C12 UNL     1      13.927   2.551   8.551  1.00  0.00     0.198 C 
BRANCH  21  22
HETATM   22  O6  UNL     1      14.953   3.177   7.779  1.00  0.00    -0.398 OA
HETATM   23  H   UNL     1      15.094   4.082   8.101  1.00  0.00     0.209 HD
ENDBRANCH  21  22
ENDBRANCH  18  21
ENDBRANCH  15  18
ENDBRANCH   1  15
TORSDOF 11
ENDMDL
MODEL 3
REMARK VINA RESULT:      -6.4      2.842      5.117
REMARK  11 active torsions:
REMARK  status: ('A' for Active; 'I' for Inactive)
REMARK    1  A    between atoms: C1_1  and  C2_2 
REMARK    2  A    between atoms: C1_1  and  C10_13 
REMARK    3  A    between atoms: C2_2  and  C3_3 
REMARK    4  A    between atoms: C3_3  and  C4_4 
REMARK    5  A    between atoms: C6_6  and  O1_7 
REMARK    6  A    between atoms: C7_8  and  O2_9 
REMARK    7  A    between atoms: C10_13  and  O4_14 
REMARK    8  A    between atoms: C10_13  and  C11_15 
REMARK    9  A    between atoms: C11_15  and  O5_16 
REMARK   10  A    between atoms: C11_15  and  C12_17 
REMARK   11  A    between atoms: C12_17  and  O6_18 
ROOT
HETATM    1  C1  UNL     1      13.529   5.451  12.042  1.00  0.00     0.158 C 
HETATM    2  O3  UNL     1      13.343   6.653  11.828  1.00  0.00    -0.295 OA
ENDROOT
BRANCH   1   3
HETATM    3  C2  UNL     1      14.409   4.998  13.193  1.00  0.00     0.086 C 
BRANCH   3   4
HETATM    4  C3  UNL     1      15.400   6.061  13.662  1.00  0.00     0.046 C 
BRANCH   4   5
HETATM    5  C4  UNL     1      16.754   5.964  13.000  1.00  0.00    -0.055 A 
HETATM    6  C5  UNL     1      16.893   6.162  11.616  1.00  0.00     0.046 A 
HETATM    7  C6  UNL     1      18.149   6.057  11.029  1.00  0.00     0.099 A 
HETATM    8  C7  UNL     1      19.268   5.764  11.803  1.00  0.00     0.098 A 
HETATM    9  C8  UNL     1      19.151   5.570  13.170  1.00  0.00     0.040 A 
HETATM   10  C9  UNL     1      17.895   5.672  13.769  1.00  0.00     0.010 A 
BRANCH   7  11
HETATM   11  O1  UNL     1      18.336   6.234   9.686  1.00  0.00    -0.358 OA
HETATM   12  H   UNL     1      17.864   5.705   9.073  1.00  0.00     0.217 HD
ENDBRANCH   7  11
BRANCH   8  13
HETATM   13  O2  UNL     1      20.496   5.663  11.216  1.00  0.00    -0.358 OA
HETATM   14  H   UNL     1      20.565   5.560  10.287  1.00  0.00     0.217 HD
ENDBRANCH   8  13
ENDBRANCH   4   5
ENDBRANCH   3   4
ENDBRANCH   1   3
BRANCH   1  15
HETATM   15  C10 UNL     1      12.844   4.372  11.199  1.00  0.00     0.218 C 
BRANCH  15  16
HETATM   16  O4  UNL     1      11.451   4.385  11.512  1.00  0.00    -0.385 OA
HETATM   17  H   UNL     1      11.288   5.005  12.239  1.00  0.00     0.210 HD
ENDBRANCH  15  16
BRANCH  15  18
HETATM   18  C11 UNL     1      13.084   4.602   9.693  1.00  0.00     0.177 C 
BRANCH  18  19
HETATM   19  O5  UNL     1      14.369   5.200   9.454  1.00  0.00    -0.390 OA
HETATM   20  H   UNL     1      14.731   5.534  10.290  1.00  0.00     0.210 HD
ENDBRANCH  18  19
BRANCH  18  21
HETATM   21  C12 UNL     1      13.065   3.280   8.916  1.00  0.00     0.198 C 
BRANCH  21  22
HETATM   22  O6  UNL     1      14.050   3.312   7.881  1.00  0.00    -0.398 OA
HETATM   23  H   UNL     1      13.768   3.927   7.185  1.00  0.00     0.209 HD
ENDBRANCH  21  22
ENDBRANCH  18  21
ENDBRANCH  15  18
ENDBRANCH   1  15
TORSDOF 11
ENDMDL
MODEL 4
REMARK VINA RESULT:      -6.4      1.369      5.851
REMARK  11 active torsions:
REMARK  status: ('A' for Active; 'I' for Inactive)
REMARK    1  A    between atoms: C1_1  and  C2_2 
REMARK    2  A    between atoms: C1_1  and  C10_13 
REMARK    3  A    between atoms: C2_2  and  C3_3 
REMARK    4  A    between atoms: C3_3  and  C4_4 
REMARK    5  A    between atoms: C6_6  and  O1_7 
REMARK    6  A    between atoms: C7_8  and  O2_9 
REMARK    7  A    between atoms: C10_13  and  O4_14 
REMARK    8  A    between atoms: C10_13  and  C11_15 
REMARK    9  A    between atoms: C11_15  and  O5_16 
REMARK   10  A    between atoms: C11_15  and  C12_17 
REMARK   11  A    between atoms: C12_17  and  O6_18 
ROOT
HETATM    1  C1  UNL     1      14.384   5.193  10.426  1.00  0.00     0.158 C 
HETATM    2  O3  UNL     1      14.618   5.957   9.485  1.00  0.00    -0.295 OA
ENDROOT
BRANCH   1   3
HETATM    3  C2  UNL     1      15.331   5.114  11.611  1.00  0.00     0.086 C 
BRANCH   3   4
HETATM    4  C3  UNL     1      15.451   6.424  12.386  1.00  0.00     0.046 C 
BRANCH   4   5
HETATM    5  C4  UNL     1      14.330   6.652  13.372  1.00  0.00    -0.055 A 
HETATM    6  C5  UNL     1      13.749   7.923  13.515  1.00  0.00     0.046 A 
HETATM    7  C6  UNL     1      12.724   8.110  14.438  1.00  0.00     0.099 A 
HETATM    8  C7  UNL     1      12.269   7.047  15.211  1.00  0.00     0.098 A 
HETATM    9  C8  UNL     1      12.826   5.786  15.080  1.00  0.00     0.040 A 
HETATM   10  C9  UNL     1      13.855   5.588  14.158  1.00  0.00     0.010 A 
BRANCH   7  11
HETATM   11  O1  UNL     1      12.130   9.329  14.620  1.00  0.00    -0.358 OA
HETATM   12  H   UNL     1      11.269   9.380  14.986  1.00  0.00     0.217 HD
ENDBRANCH   7  11
BRANCH   8  13
HETATM   13  O2  UNL     1      11.262   7.243  16.114  1.00  0.00    -0.358 OA
HETATM   14  H   UNL     1      10.392   7.418  15.815  1.00  0.00     0.217 HD
ENDBRANCH   8  13
ENDBRANCH   4   5
ENDBRANCH   3   4
ENDBRANCH   1   3
BRANCH   1  15
HETATM   15  C10 UNL     1      13.115   4.338  10.468  1.00  0.00     0.218 C 
BRANCH  15  16
HETATM   16  O4  UNL     1      12.051   5.150  10.966  1.00  0.00    -0.385 OA
HETATM   17  H   UNL     1      11.902   4.949  11.903  1.00  0.00     0.210 HD
ENDBRANCH  15  16
BRANCH  15  18
HETATM   18  C11 UNL     1      12.781   3.764   9.076  1.00  0.00     0.177 C 
BRANCH  18  19
HETATM   19  O5  UNL     1      12.834   4.782   8.064  1.00  0.00    -0.390 OA
HETATM   20  H   UNL     1      12.093   4.665   7.449  1.00  0.00     0.210 HD
ENDBRANCH  18  19
BRANCH  18  21
HETATM   21  C12 UNL     1      13.787   2.682   8.662  1.00  0.00     0.198 C 
BRANCH  21  22
HETATM   22  O6  UNL     1      14.722   3.223   7.726  1.00  0.00    -0.398 OA
HETATM   23  H   UNL     1      14.244   3.716   7.040  1.00  0.00     0.209 HD
ENDBRANCH  21  22
ENDBRANCH  18  21
ENDBRANCH  15  18
ENDBRANCH   1  15
TORSDOF 11
ENDMDL
MODEL 5
REMARK VINA RESULT:      -6.3      1.893      3.021
REMARK  11 active torsions:
REMARK  status: ('A' for Active; 'I' for Inactive)
REMARK    1  A    between atoms: C1_1  and  C2_2 
REMARK    2  A    between atoms: C1_1  and  C10_13 
REMARK    3  A    between atoms: C2_2  and  C3_3 
REMARK    4  A    between atoms: C3_3  and  C4_4 
REMARK    5  A    between atoms: C6_6  and  O1_7 
REMARK    6  A    between atoms: C7_8  and  O2_9 
REMARK    7  A    between atoms: C10_13  and  O4_14 
REMARK    8  A    between atoms: C10_13  and  C11_15 
REMARK    9  A    between atoms: C11_15  and  O5_16 
REMARK   10  A    between atoms: C11_15  and  C12_17 
REMARK   11  A    between atoms: C12_17  and  O6_18 
ROOT
HETATM    1  C1  UNL     1      14.846   6.376  15.775  1.00  0.00     0.158 C 
HETATM    2  O3  UNL     1      15.281   7.515  15.582  1.00  0.00    -0.295 OA
ENDROOT
BRANCH   1   3
HETATM    3  C2  UNL     1      15.294   5.220  14.897  1.00  0.00     0.086 C 
BRANCH   3   4
HETATM    4  C3  UNL     1      15.849   5.657  13.544  1.00  0.00     0.046 C 
BRANCH   4   5
HETATM    5  C4  UNL     1      14.946   5.326  12.380  1.00  0.00    -0.055 A 
HETATM    6  C5  UNL     1      13.586   5.037  12.586  1.00  0.00     0.046 A 
HETATM    7  C6  UNL     1      12.777   4.724  11.499  1.00  0.00     0.099 A 
HETATM    8  C7  UNL     1      13.304   4.702  10.211  1.00  0.00     0.098 A 
HETATM    9  C8  UNL     1      14.640   4.988   9.988  1.00  0.00     0.040 A 
HETATM   10  C9  UNL     1      15.461   5.302  11.072  1.00  0.00     0.010 A 
BRANCH   7  11
HETATM   11  O1  UNL     1      11.450   4.429  11.647  1.00  0.00    -0.358 OA
HETATM   12  H   UNL     1      11.028   3.850  11.044  1.00  0.00     0.217 HD
ENDBRANCH   7  11
BRANCH   8  13
HETATM   13  O2  UNL     1      12.501   4.393   9.151  1.00  0.00    -0.358 OA
HETATM   14  H   UNL     1      11.580   4.562   9.196  1.00  0.00     0.217 HD
ENDBRANCH   8  13
ENDBRANCH   4   5
ENDBRANCH   3   4
ENDBRANCH   1   3
BRANCH   1  15
HETATM   15  C10 UNL     1      13.889   6.068  16.928  1.00  0.00     0.218 C 
BRANCH  15  16
HETATM   16  O4  UNL     1      13.414   4.731  16.765  1.00  0.00    -0.385 OA
HETATM   17  H   UNL     1      14.169   4.130  16.665  1.00  0.00     0.210 HD
ENDBRANCH  15  16
BRANCH  15  18
HETATM   18  C11 UNL     1      14.580   6.256  18.294  1.00  0.00     0.177 C 
BRANCH  18  19
HETATM   19  O5  UNL     1      14.968   7.624  18.500  1.00  0.00    -0.390 OA
HETATM   20  H   UNL     1      15.920   7.666  18.683  1.00  0.00     0.210 HD
ENDBRANCH  18  19
BRANCH  18  21
HETATM   21  C12 UNL     1      13.641   5.890  19.451  1.00  0.00     0.198 C 
BRANCH  21  22
HETATM   22  O6  UNL     1      12.281   6.030  19.033  1.00  0.00    -0.398 OA
HETATM   23  H   UNL     1      12.079   5.361  18.360  1.00  0.00     0.209 HD
ENDBRANCH  21  22
ENDBRANCH  18  21
ENDBRANCH  15  18
ENDBRANCH   1  15
TORSDOF 11
ENDMDL
MODEL 6
REMARK VINA RESULT:      -6.3      2.026      3.379
REMARK  11 active torsions:
REMARK  status: ('A' for Active; 'I' for Inactive)
REMARK    1  A    between atoms: C1_1  and  C2_2 
REMARK    2  A    between atoms: C1_1  and  C10_13 
REMARK    3  A    between atoms: C2_2  and  C3_3 
REMARK    4  A    between atoms: C3_3  and  C4_4 
REMARK    5  A    between atoms: C6_6  and  O1_7 
REMARK    6  A    between atoms: C7_8  and  O2_9 
REMARK    7  A    between atoms: C10_13  and  O4_14 
REMARK    8  A    between atoms: C10_13  and  C11_15 
REMARK    9  A    between atoms: C11_15  and  O5_16 
REMARK   10  A    between atoms: C11_15  and  C12_17 
REMARK   11  A    between atoms: C12_17  and  O6_18 
ROOT
HETATM    1  C1  UNL     1      14.131   5.710  16.367  1.00  0.00     0.158 C 
HETATM    2  O3  UNL     1      13.905   4.496  16.377  1.00  0.00    -0.295 OA
ENDROOT
BRANCH   1   3
HETATM    3  C2  UNL     1      14.579   6.402  15.092  1.00  0.00     0.086 C 
BRANCH   3   4
HETATM    4  C3  UNL     1      15.322   5.483  14.125  1.00  0.00     0.046 C 
BRANCH   4   5
HETATM    5  C4  UNL     1      14.577   5.226  12.837  1.00  0.00    -0.055 A 
HETATM    6  C5  UNL     1      13.197   4.962  12.847  1.00  0.00     0.046 A 
HETATM    7  C6  UNL     1      12.535   4.718  11.648  1.00  0.00     0.099 A 
HETATM    8  C7  UNL     1      13.229   4.739  10.442  1.00  0.00     0.098 A 
HETATM    9  C8  UNL     1      14.588   5.002  10.412  1.00  0.00     0.040 A 
HETATM   10  C9  UNL     1      15.262   5.248  11.609  1.00  0.00     0.010 A 
BRANCH   7  11
HETATM   11  O1  UNL     1      11.194   4.450  11.605  1.00  0.00    -0.358 OA
HETATM   12  H   UNL     1      10.778   4.272  10.784  1.00  0.00     0.217 HD
ENDBRANCH   7  11
BRANCH   8  13
HETATM   13  O2  UNL     1      12.569   4.498   9.271  1.00  0.00    -0.358 OA
HETATM   14  H   UNL     1      11.632   4.473   9.257  1.00  0.00     0.217 HD
ENDBRANCH   8  13
ENDBRANCH   4   5
ENDBRANCH   3   4
ENDBRANCH   1   3
BRANCH   1  15
HETATM   15  C10 UNL     1      13.921   6.575  17.613  1.00  0.00     0.218 C 
BRANCH  15  16
HETATM   16  O4  UNL     1      12.518   6.646  17.870  1.00  0.00    -0.385 OA
HETATM   17  H   UNL     1      12.046   6.821  17.041  1.00  0.00     0.210 HD
ENDBRANCH  15  16
BRANCH  15  18
HETATM   18  C11 UNL     1      14.687   6.005  18.825  1.00  0.00     0.177 C 
BRANCH  18  19
HETATM   19  O5  UNL     1      15.885   5.327  18.415  1.00  0.00    -0.390 OA
HETATM   20  H   UNL     1      16.627   5.951  18.418  1.00  0.00     0.210 HD
ENDBRANCH  18  19
BRANCH  18  21
HETATM   21  C12 UNL     1      15.122   7.121  19.785  1.00  0.00     0.198 C 
BRANCH  21  22
HETATM   22  O6  UNL     1      14.082   8.095  19.897  1.00  0.00    -0.398 OA
HETATM   23  H   UNL     1      13.872   8.447  19.018  1.00  0.00     0.209 HD
ENDBRANCH  21  22
ENDBRANCH  18  21
ENDBRANCH  15  18
ENDBRANCH   1  15
TORSDOF 11
ENDMDL
MODEL 7
REMARK VINA RESULT:      -6.3      2.366      3.772
REMARK  11 active torsions:
REMARK  status: ('A' for Active; 'I' for Inactive)
REMARK    1  A    between atoms: C1_1  and  C2_2 
REMARK    2  A    between atoms: C1_1  and  C10_13 
REMARK    3  A    between atoms: C2_2  and  C3_3 
REMARK    4  A    between atoms: C3_3  and  C4_4 
REMARK    5  A    between atoms: C6_6  and  O1_7 
REMARK    6  A    between atoms: C7_8  and  O2_9 
REMARK    7  A    between atoms: C10_13  and  O4_14 
REMARK    8  A    between atoms: C10_13  and  C11_15 
REMARK    9  A    between atoms: C11_15  and  O5_16 
REMARK   10  A    between atoms: C11_15  and  C12_17 
REMARK   11  A    between atoms: C12_17  and  O6_18 
ROOT
HETATM    1  C1  UNL     1      12.328   6.214  13.133  1.00  0.00     0.158 C 
HETATM    2  O3  UNL     1      11.854   6.893  12.217  1.00  0.00    -0.295 OA
ENDROOT
BRANCH   1   3
HETATM    3  C2  UNL     1      13.132   4.962  12.831  1.00  0.00     0.086 C 
BRANCH   3   4
HETATM    4  C3  UNL     1      13.874   5.018  11.498  1.00  0.00     0.046 C 
BRANCH   4   5
HETATM    5  C4  UNL     1      15.333   5.385  11.629  1.00  0.00    -0.055 A 
HETATM    6  C5  UNL     1      16.127   5.590  10.488  1.00  0.00     0.046 A 
HETATM    7  C6  UNL     1      17.471   5.917  10.635  1.00  0.00     0.099 A 
HETATM    8  C7  UNL     1      18.030   6.049  11.902  1.00  0.00     0.098 A 
HETATM    9  C8  UNL     1      17.262   5.855  13.039  1.00  0.00     0.040 A 
HETATM   10  C9  UNL     1      15.913   5.526  12.903  1.00  0.00     0.010 A 
BRANCH   7  11
HETATM   11  O1  UNL     1      18.287   6.120   9.557  1.00  0.00    -0.358 OA
HETATM   12  H   UNL     1      18.481   6.993   9.273  1.00  0.00     0.217 HD
ENDBRANCH   7  11
BRANCH   8  13
HETATM   13  O2  UNL     1      19.351   6.370  12.035  1.00  0.00    -0.358 OA
HETATM   14  H   UNL     1      19.989   5.693  12.143  1.00  0.00     0.217 HD
ENDBRANCH   8  13
ENDBRANCH   4   5
ENDBRANCH   3   4
ENDBRANCH   1   3
BRANCH   1  15
HETATM   15  C10 UNL     1      12.175   6.628  14.599  1.00  0.00     0.218 C 
BRANCH  15  16
HETATM   16  O4  UNL     1      11.233   5.747  15.212  1.00  0.00    -0.385 OA
HETATM   17  H   UNL     1      10.773   6.213  15.928  1.00  0.00     0.210 HD
ENDBRANCH  15  16
BRANCH  15  18
HETATM   18  C11 UNL     1      13.532   6.599  15.332  1.00  0.00     0.177 C 
BRANCH  18  19
HETATM   19  O5  UNL     1      14.166   7.888  15.309  1.00  0.00    -0.390 OA
HETATM   20  H   UNL     1      13.806   8.438  16.022  1.00  0.00     0.210 HD
ENDBRANCH  18  19
BRANCH  18  21
HETATM   21  C12 UNL     1      13.360   6.222  16.810  1.00  0.00     0.198 C 
BRANCH  21  22
HETATM   22  O6  UNL     1      12.281   6.969  17.377  1.00  0.00    -0.398 OA
HETATM   23  H   UNL     1      11.970   6.525  18.182  1.00  0.00     0.209 HD
ENDBRANCH  21  22
ENDBRANCH  18  21
ENDBRANCH  15  18
ENDBRANCH   1  15
TORSDOF 11
ENDMDL
MODEL 8
REMARK VINA RESULT:      -6.2      2.846      4.033
REMARK  11 active torsions:
REMARK  status: ('A' for Active; 'I' for Inactive)
REMARK    1  A    between atoms: C1_1  and  C2_2 
REMARK    2  A    between atoms: C1_1  and  C10_13 
REMARK    3  A    between atoms: C2_2  and  C3_3 
REMARK    4  A    between atoms: C3_3  and  C4_4 
REMARK    5  A    between atoms: C6_6  and  O1_7 
REMARK    6  A    between atoms: C7_8  and  O2_9 
REMARK    7  A    between atoms: C10_13  and  O4_14 
REMARK    8  A    between atoms: C10_13  and  C11_15 
REMARK    9  A    between atoms: C11_15  and  O5_16 
REMARK   10  A    between atoms: C11_15  and  C12_17 
REMARK   11  A    between atoms: C12_17  and  O6_18 
ROOT
HETATM    1  C1  UNL     1      12.943   5.393  13.292  1.00  0.00     0.158 C 
HETATM    2  O3  UNL     1      12.421   4.746  14.205  1.00  0.00    -0.295 OA
ENDROOT
BRANCH   1   3
HETATM    3  C2  UNL     1      14.344   5.060  12.812  1.00  0.00     0.086 C 
BRANCH   3   4
HETATM    4  C3  UNL     1      15.447   5.669  13.673  1.00  0.00     0.046 C 
BRANCH   4   5
HETATM    5  C4  UNL     1      16.791   5.731  12.986  1.00  0.00    -0.055 A 
HETATM    6  C5  UNL     1      16.879   5.941  11.600  1.00  0.00     0.046 A 
HETATM    7  C6  UNL     1      18.128   5.984  10.988  1.00  0.00     0.099 A 
HETATM    8  C7  UNL     1      19.287   5.828  11.741  1.00  0.00     0.098 A 
HETATM    9  C8  UNL     1      19.221   5.626  13.109  1.00  0.00     0.040 A 
HETATM   10  C9  UNL     1      17.973   5.580  13.733  1.00  0.00     0.010 A 
BRANCH   7  11
HETATM   11  O1  UNL     1      18.266   6.179   9.641  1.00  0.00    -0.358 OA
HETATM   12  H   UNL     1      18.311   5.442   9.063  1.00  0.00     0.217 HD
ENDBRANCH   7  11
BRANCH   8  13
HETATM   13  O2  UNL     1      20.508   5.872  11.130  1.00  0.00    -0.358 OA
HETATM   14  H   UNL     1      20.701   5.284  10.427  1.00  0.00     0.217 HD
ENDBRANCH   8  13
ENDBRANCH   4   5
ENDBRANCH   3   4
ENDBRANCH   1   3
BRANCH   1  15
HETATM   15  C10 UNL     1      12.188   6.513  12.572  1.00  0.00     0.218 C 
BRANCH  15  16
HETATM   16  O4  UNL     1      11.111   5.924  11.843  1.00  0.00    -0.385 OA
HETATM   17  H   UNL     1      11.419   5.114  11.409  1.00  0.00     0.210 HD
ENDBRANCH  15  16
BRANCH  15  18
HETATM   18  C11 UNL     1      11.679   7.575  13.569  1.00  0.00     0.177 C 
BRANCH  18  19
HETATM   19  O5  UNL     1      10.860   6.983  14.590  1.00  0.00    -0.390 OA
HETATM   20  H   UNL     1      10.787   7.594  15.340  1.00  0.00     0.210 HD
ENDBRANCH  18  19
BRANCH  18  21
HETATM   21  C12 UNL     1      12.843   8.270  14.288  1.00  0.00     0.198 C 
BRANCH  21  22
HETATM   22  O6  UNL     1      12.602   9.677  14.348  1.00  0.00    -0.398 OA
HETATM   23  H   UNL     1      11.849   9.852  14.934  1.00  0.00     0.209 HD
ENDBRANCH  21  22
ENDBRANCH  18  21
ENDBRANCH  15  18
ENDBRANCH   1  15
TORSDOF 11
ENDMDL
MODEL 9
REMARK VINA RESULT:      -6.2      1.368      2.284
REMARK  11 active torsions:
REMARK  status: ('A' for Active; 'I' for Inactive)
REMARK    1  A    between atoms: C1_1  and  C2_2 
REMARK    2  A    between atoms: C1_1  and  C10_13 
REMARK    3  A    between atoms: C2_2  and  C3_3 
REMARK    4  A    between atoms: C3_3  and  C4_4 
REMARK    5  A    between atoms: C6_6  and  O1_7 
REMARK    6  A    between atoms: C7_8  and  O2_9 
REMARK    7  A    between atoms: C10_13  and  O4_14 
REMARK    8  A    between atoms: C10_13  and  C11_15 
REMARK    9  A    between atoms: C11_15  and  O5_16 
REMARK   10  A    between atoms: C11_15  and  C12_17 
REMARK   11  A    between atoms: C12_17  and  O6_18 
ROOT
HETATM    1  C1  UNL     1      15.793   6.469  15.602  1.00  0.00     0.158 C 
HETATM    2  O3  UNL     1      16.906   6.737  16.065  1.00  0.00    -0.295 OA
ENDROOT
BRANCH   1   3
HETATM    3  C2  UNL     1      15.618   5.315  14.631  1.00  0.00     0.086 C 
BRANCH   3   4
HETATM    4  C3  UNL     1      16.045   5.646  13.203  1.00  0.00     0.046 C 
BRANCH   4   5
HETATM    5  C4  UNL     1      15.025   5.259  12.158  1.00  0.00    -0.055 A 
HETATM    6  C5  UNL     1      13.706   4.946  12.524  1.00  0.00     0.046 A 
HETATM    7  C6  UNL     1      12.788   4.582  11.545  1.00  0.00     0.099 A 
HETATM    8  C7  UNL     1      13.167   4.533  10.207  1.00  0.00     0.098 A 
HETATM    9  C8  UNL     1      14.462   4.843   9.826  1.00  0.00     0.040 A 
HETATM   10  C9  UNL     1      15.391   5.208  10.801  1.00  0.00     0.010 A 
BRANCH   7  11
HETATM   11  O1  UNL     1      11.493   4.262  11.850  1.00  0.00    -0.358 OA
HETATM   12  H   UNL     1      10.854   4.940  11.947  1.00  0.00     0.217 HD
ENDBRANCH   7  11
BRANCH   8  13
HETATM   13  O2  UNL     1      12.257   4.174   9.253  1.00  0.00    -0.358 OA
HETATM   14  H   UNL     1      11.535   3.621   9.479  1.00  0.00     0.217 HD
ENDBRANCH   8  13
ENDBRANCH   4   5
ENDBRANCH   3   4
ENDBRANCH   1   3
BRANCH   1  15
HETATM   15  C10 UNL     1      14.543   7.244  16.023  1.00  0.00     0.218 C 
BRANCH  15  16
HETATM   16  O4  UNL     1      14.159   8.089  14.938  1.00  0.00    -0.385 OA
HETATM   17  H   UNL     1      14.023   7.551  14.142  1.00  0.00     0.210 HD
ENDBRANCH  15  16
BRANCH  15  18
HETATM   18  C11 UNL     1      13.400   6.288  16.423  1.00  0.00     0.177 C 
BRANCH  18  19
HETATM   19  O5  UNL     1      12.994   6.498  17.785  1.00  0.00    -0.390 OA
HETATM   20  H   UNL     1      12.031   6.608  17.821  1.00  0.00     0.210 HD
ENDBRANCH  18  19
BRANCH  18  21
HETATM   21  C12 UNL     1      12.155   6.512  15.554  1.00  0.00     0.198 C 
BRANCH  21  22
HETATM   22  O6  UNL     1      11.221   7.338  16.253  1.00  0.00    -0.398 OA
HETATM   23  H   UNL     1      10.789   6.819  16.950  1.00  0.00     0.209 HD
ENDBRANCH  21  22
ENDBRANCH  18  21
ENDBRANCH  15  18
ENDBRANCH   1  15
TORSDOF 11
ENDMDL
