MODEL 1
REMARK VINA RESULT:      -6.6      0.000      0.000
REMARK  11 active torsions:
REMARK  status: ('A' for Active; 'I' for Inactive)
REMARK    1  A    between atoms: C1_1  and  C2_2 
REMARK    2  A    between atoms: C1_1  and  C10_13 
REMARK    3  A    between atoms: C2_2  and  C3_3 
REMARK    4  A    between atoms: C3_3  and  C4_4 
REMARK    5  A    between atoms: C6_6  and  O1_7 
REMARK    6  A    between atoms: C7_8  and  O2_9 
REMARK    7  A    between atoms: C10_13  and  O4_14 
REMARK    8  A    between atoms: C10_13  and  C11_15 
REMARK    9  A    between atoms: C11_15  and  O5_16 
REMARK   10  A    between atoms: C11_15  and  C12_17 
REMARK   11  A    between atoms: C12_17  and  O6_18 
ROOT
HETATM    1  C1  UNL     1      12.206   7.227  13.459  1.00  0.00     0.158 C 
HETATM    2  O3  UNL     1      13.025   7.327  14.378  1.00  0.00    -0.295 OA
ENDROOT
BRANCH   1   3
HETATM    3  C2  UNL     1      12.319   6.106  12.441  1.00  0.00     0.086 C 
BRANCH   3   4
HETATM    4  C3  UNL     1      13.400   6.342  11.389  1.00  0.00     0.046 C 
BRANCH   4   5
HETATM    5  C4  UNL     1      12.857   6.540   9.993  1.00  0.00    -0.055 A 
HETATM    6  C5  UNL     1      11.505   6.285   9.707  1.00  0.00     0.046 A 
HETATM    7  C6  UNL     1      11.031   6.464   8.411  1.00  0.00     0.099 A 
HETATM    8  C7  UNL     1      11.884   6.900   7.402  1.00  0.00     0.098 A 
HETATM    9  C8  UNL     1      13.219   7.161   7.667  1.00  0.00     0.040 A 
HETATM   10  C9  UNL     1      13.705   6.983   8.963  1.00  0.00     0.010 A 
BRANCH   7  11
HETATM   11  O1  UNL     1       9.726   6.224   8.080  1.00  0.00    -0.358 OA
HETATM   12  H   UNL     1       9.122   6.937   8.007  1.00  0.00     0.217 HD
ENDBRANCH   7  11
BRANCH   8  13
HETATM   13  O2  UNL     1      11.409   7.072   6.134  1.00  0.00    -0.358 OA
HETATM   14  H   UNL     1      10.730   6.514   5.808  1.00  0.00     0.217 HD
ENDBRANCH   8  13
ENDBRANCH   4   5
ENDBRANCH   3   4
ENDBRANCH   1   3
BRANCH   1  15
HETATM   15  C10 UNL     1      11.018   8.185  13.337  1.00  0.00     0.218 C 
BRANCH  15  16
HETATM   16  O4  UNL     1      10.508   8.428  14.648  1.00  0.00    -0.385 OA
HETATM   17  H   UNL     1       9.597   8.755  14.585  1.00  0.00     0.210 HD
ENDBRANCH  15  16
BRANCH  15  18
HETATM   18  C11 UNL     1      11.429   9.499  12.641  1.00  0.00     0.177 C 
BRANCH  18  19
HETATM   19  O5  UNL     1      12.858   9.636  12.585  1.00  0.00    -0.390 OA
HETATM   20  H   UNL     1      13.085  10.510  12.229  1.00  0.00     0.210 HD
ENDBRANCH  18  19
BRANCH  18  21
HETATM   21  C12 UNL     1      10.927   9.545  11.192  1.00  0.00     0.198 C 
BRANCH  21  22
HETATM   22  O6  UNL     1       9.776   8.710  11.052  1.00  0.00    -0.398 OA
HETATM   23  H   UNL     1       8.973   9.246  11.147  1.00  0.00     0.209 HD
ENDBRANCH  21  22
ENDBRANCH  18  21
ENDBRANCH  15  18
ENDBRANCH   1  15
TORSDOF 11
ENDMDL
MODEL 2
REMARK VINA RESULT:      -6.5      0.657      1.595
REMARK  11 active torsions:
REMARK  status: ('A' for Active; 'I' for Inactive)
REMARK    1  A    between atoms: C1_1  and  C2_2 
REMARK    2  A    between atoms: C1_1  and  C10_13 
REMARK    3  A    between atoms: C2_2  and  C3_3 
REMARK    4  A    between atoms: C3_3  and  C4_4 
REMARK    5  A    between atoms: C6_6  and  O1_7 
REMARK    6  A    between atoms: C7_8  and  O2_9 
REMARK    7  A    between atoms: C10_13  and  O4_14 
REMARK    8  A    between atoms: C10_13  and  C11_15 
REMARK    9  A    between atoms: C11_15  and  O5_16 
REMARK   10  A    between atoms: C11_15  and  C12_17 
REMARK   11  A    between atoms: C12_17  and  O6_18 
ROOT
HETATM    1  C1  UNL     1      12.186   7.207  13.493  1.00  0.00     0.158 C 
HETATM    2  O3  UNL     1      13.036   7.259  14.387  1.00  0.00    -0.295 OA
ENDROOT
BRANCH   1   3
HETATM    3  C2  UNL     1      12.253   6.129  12.426  1.00  0.00     0.086 C 
BRANCH   3   4
HETATM    4  C3  UNL     1      13.366   6.347  11.404  1.00  0.00     0.046 C 
BRANCH   4   5
HETATM    5  C4  UNL     1      12.868   6.512   9.988  1.00  0.00    -0.055 A 
HETATM    6  C5  UNL     1      13.764   6.768   8.937  1.00  0.00     0.046 A 
HETATM    7  C6  UNL     1      13.279   6.927   7.642  1.00  0.00     0.099 A 
HETATM    8  C7  UNL     1      11.916   6.827   7.383  1.00  0.00     0.098 A 
HETATM    9  C8  UNL     1      11.018   6.571   8.405  1.00  0.00     0.040 A 
HETATM   10  C9  UNL     1      11.493   6.411   9.707  1.00  0.00     0.010 A 
BRANCH   7  11
HETATM   11  O1  UNL     1      14.110   7.183   6.586  1.00  0.00    -0.358 OA
HETATM   12  H   UNL     1      13.914   7.884   5.995  1.00  0.00     0.217 HD
ENDBRANCH   7  11
BRANCH   8  13
HETATM   13  O2  UNL     1      11.451   6.985   6.109  1.00  0.00    -0.358 OA
HETATM   14  H   UNL     1      10.788   6.412   5.777  1.00  0.00     0.217 HD
ENDBRANCH   8  13
ENDBRANCH   4   5
ENDBRANCH   3   4
ENDBRANCH   1   3
BRANCH   1  15
HETATM   15  C10 UNL     1      11.007   8.182  13.450  1.00  0.00     0.218 C 
BRANCH  15  16
HETATM   16  O4  UNL     1      10.595   8.438  14.793  1.00  0.00    -0.385 OA
HETATM   17  H   UNL     1      10.066   7.692  15.117  1.00  0.00     0.210 HD
ENDBRANCH  15  16
BRANCH  15  18
HETATM   18  C11 UNL     1      11.387   9.488  12.721  1.00  0.00     0.177 C 
BRANCH  18  19
HETATM   19  O5  UNL     1      12.813   9.642  12.634  1.00  0.00    -0.390 OA
HETATM   20  H   UNL     1      13.042  10.582  12.715  1.00  0.00     0.210 HD
ENDBRANCH  18  19
BRANCH  18  21
HETATM   21  C12 UNL     1      10.857   9.498  11.281  1.00  0.00     0.198 C 
BRANCH  21  22
HETATM   22  O6  UNL     1       9.710   8.651  11.182  1.00  0.00    -0.398 OA
HETATM   23  H   UNL     1       9.952   7.748  11.443  1.00  0.00     0.209 HD
ENDBRANCH  21  22
ENDBRANCH  18  21
ENDBRANCH  15  18
ENDBRANCH   1  15
TORSDOF 11
ENDMDL
MODEL 3
REMARK VINA RESULT:      -6.4      1.480      5.936
REMARK  11 active torsions:
REMARK  status: ('A' for Active; 'I' for Inactive)
REMARK    1  A    between atoms: C1_1  and  C2_2 
REMARK    2  A    between atoms: C1_1  and  C10_13 
REMARK    3  A    between atoms: C2_2  and  C3_3 
REMARK    4  A    between atoms: C3_3  and  C4_4 
REMARK    5  A    between atoms: C6_6  and  O1_7 
REMARK    6  A    between atoms: C7_8  and  O2_9 
REMARK    7  A    between atoms: C10_13  and  O4_14 
REMARK    8  A    between atoms: C10_13  and  C11_15 
REMARK    9  A    between atoms: C11_15  and  O5_16 
REMARK   10  A    between atoms: C11_15  and  C12_17 
REMARK   11  A    between atoms: C12_17  and  O6_18 
ROOT
HETATM    1  C1  UNL     1      12.430   7.286   7.737  1.00  0.00     0.158 C 
HETATM    2  O3  UNL     1      13.311   6.893   6.966  1.00  0.00    -0.295 OA
ENDROOT
BRANCH   1   3
HETATM    3  C2  UNL     1      12.625   8.551   8.554  1.00  0.00     0.086 C 
BRANCH   3   4
HETATM    4  C3  UNL     1      13.478   8.347   9.804  1.00  0.00     0.046 C 
BRANCH   4   5
HETATM    5  C4  UNL     1      12.686   8.366  11.090  1.00  0.00    -0.055 A 
HETATM    6  C5  UNL     1      12.827   7.336  12.035  1.00  0.00     0.046 A 
HETATM    7  C6  UNL     1      12.079   7.370  13.207  1.00  0.00     0.099 A 
HETATM    8  C7  UNL     1      11.198   8.420  13.451  1.00  0.00     0.098 A 
HETATM    9  C8  UNL     1      11.049   9.446  12.533  1.00  0.00     0.040 A 
HETATM   10  C9  UNL     1      11.794   9.421  11.354  1.00  0.00     0.010 A 
BRANCH   7  11
HETATM   11  O1  UNL     1      12.175   6.389  14.155  1.00  0.00    -0.358 OA
HETATM   12  H   UNL     1      11.823   5.537  13.985  1.00  0.00     0.217 HD
ENDBRANCH   7  11
BRANCH   8  13
HETATM   13  O2  UNL     1      10.468   8.444  14.605  1.00  0.00    -0.358 OA
HETATM   14  H   UNL     1      10.255   7.642  15.041  1.00  0.00     0.217 HD
ENDBRANCH   8  13
ENDBRANCH   4   5
ENDBRANCH   3   4
ENDBRANCH   1   3
BRANCH   1  15
HETATM   15  C10 UNL     1      11.091   6.554   7.862  1.00  0.00     0.218 C 
BRANCH  15  16
HETATM   16  O4  UNL     1      10.295   7.249   8.823  1.00  0.00    -0.385 OA
HETATM   17  H   UNL     1       9.367   6.983   8.727  1.00  0.00     0.210 HD
ENDBRANCH  15  16
BRANCH  15  18
HETATM   18  C11 UNL     1      10.374   6.462   6.499  1.00  0.00     0.177 C 
BRANCH  18  19
HETATM   19  O5  UNL     1      10.700   7.581   5.660  1.00  0.00    -0.390 OA
HETATM   20  H   UNL     1      10.501   7.361   4.737  1.00  0.00     0.210 HD
ENDBRANCH  18  19
BRANCH  18  21
HETATM   21  C12 UNL     1      10.795   5.201   5.732  1.00  0.00     0.198 C 
BRANCH  21  22
HETATM   22  O6  UNL     1      11.825   5.526   4.795  1.00  0.00    -0.398 OA
HETATM   23  H   UNL     1      11.959   4.780   4.191  1.00  0.00     0.209 HD
ENDBRANCH  21  22
ENDBRANCH  18  21
ENDBRANCH  15  18
ENDBRANCH   1  15
TORSDOF 11
ENDMDL
MODEL 4
REMARK VINA RESULT:      -6.4      2.684      5.148
REMARK  11 active torsions:
REMARK  status: ('A' for Active; 'I' for Inactive)
REMARK    1  A    between atoms: C1_1  and  C2_2 
REMARK    2  A    between atoms: C1_1  and  C10_13 
REMARK    3  A    between atoms: C2_2  and  C3_3 
REMARK    4  A    between atoms: C3_3  and  C4_4 
REMARK    5  A    between atoms: C6_6  and  O1_7 
REMARK    6  A    between atoms: C7_8  and  O2_9 
REMARK    7  A    between atoms: C10_13  and  O4_14 
REMARK    8  A    between atoms: C10_13  and  C11_15 
REMARK    9  A    between atoms: C11_15  and  O5_16 
REMARK   10  A    between atoms: C11_15  and  C12_17 
REMARK   11  A    between atoms: C12_17  and  O6_18 
ROOT
HETATM    1  C1  UNL     1      10.960   7.585   9.501  1.00  0.00     0.158 C 
HETATM    2  O3  UNL     1       9.943   8.195   9.844  1.00  0.00    -0.295 OA
ENDROOT
BRANCH   1   3
HETATM    3  C2  UNL     1      12.326   8.013  10.008  1.00  0.00     0.086 C 
BRANCH   3   4
HETATM    4  C3  UNL     1      13.235   6.844  10.381  1.00  0.00     0.046 C 
BRANCH   4   5
HETATM    5  C4  UNL     1      14.556   6.843   9.648  1.00  0.00    -0.055 A 
HETATM    6  C5  UNL     1      14.620   7.168   8.283  1.00  0.00     0.046 A 
HETATM    7  C6  UNL     1      15.847   7.150   7.629  1.00  0.00     0.099 A 
HETATM    8  C7  UNL     1      17.009   6.818   8.318  1.00  0.00     0.098 A 
HETATM    9  C8  UNL     1      16.967   6.500   9.665  1.00  0.00     0.040 A 
HETATM   10  C9  UNL     1      15.740   6.514  10.331  1.00  0.00     0.010 A 
BRANCH   7  11
HETATM   11  O1  UNL     1      15.961   7.452   6.299  1.00  0.00    -0.358 OA
HETATM   12  H   UNL     1      16.632   7.050   5.783  1.00  0.00     0.217 HD
ENDBRANCH   7  11
BRANCH   8  13
HETATM   13  O2  UNL     1      18.208   6.803   7.665  1.00  0.00    -0.358 OA
HETATM   14  H   UNL     1      18.802   7.523   7.758  1.00  0.00     0.217 HD
ENDBRANCH   8  13
ENDBRANCH   4   5
ENDBRANCH   3   4
ENDBRANCH   1   3
BRANCH   1  15
HETATM   15  C10 UNL     1      10.888   6.348   8.603  1.00  0.00     0.218 C 
BRANCH  15  16
HETATM   16  O4  UNL     1       9.871   5.486   9.117  1.00  0.00    -0.385 OA
HETATM   17  H   UNL     1      10.170   4.565   9.062  1.00  0.00     0.210 HD
ENDBRANCH  15  16
BRANCH  15  18
HETATM   18  C11 UNL     1      10.606   6.736   7.137  1.00  0.00     0.177 C 
BRANCH  18  19
HETATM   19  O5  UNL     1      11.653   7.564   6.605  1.00  0.00    -0.390 OA
HETATM   20  H   UNL     1      11.267   8.246   6.033  1.00  0.00     0.210 HD
ENDBRANCH  18  19
BRANCH  18  21
HETATM   21  C12 UNL     1      10.527   5.497   6.236  1.00  0.00     0.198 C 
BRANCH  21  22
HETATM   22  O6  UNL     1      11.208   5.749   5.005  1.00  0.00    -0.398 OA
HETATM   23  H   UNL     1      12.165   5.673   5.144  1.00  0.00     0.209 HD
ENDBRANCH  21  22
ENDBRANCH  18  21
ENDBRANCH  15  18
ENDBRANCH   1  15
TORSDOF 11
ENDMDL
MODEL 5
REMARK VINA RESULT:      -6.4      2.355      3.649
REMARK  11 active torsions:
REMARK  status: ('A' for Active; 'I' for Inactive)
REMARK    1  A    between atoms: C1_1  and  C2_2 
REMARK    2  A    between atoms: C1_1  and  C10_13 
REMARK    3  A    between atoms: C2_2  and  C3_3 
REMARK    4  A    between atoms: C3_3  and  C4_4 
REMARK    5  A    between atoms: C6_6  and  O1_7 
REMARK    6  A    between atoms: C7_8  and  O2_9 
REMARK    7  A    between atoms: C10_13  and  O4_14 
REMARK    8  A    between atoms: C10_13  and  C11_15 
REMARK    9  A    between atoms: C11_15  and  O5_16 
REMARK   10  A    between atoms: C11_15  and  C12_17 
REMARK   11  A    between atoms: C12_17  and  O6_18 
ROOT
HETATM    1  C1  UNL     1      13.766   6.072  14.565  1.00  0.00     0.158 C 
HETATM    2  O3  UNL     1      14.838   5.463  14.637  1.00  0.00    -0.295 OA
ENDROOT
BRANCH   1   3
HETATM    3  C2  UNL     1      12.845   5.877  13.374  1.00  0.00     0.086 C 
BRANCH   3   4
HETATM    4  C3  UNL     1      13.388   6.471  12.077  1.00  0.00     0.046 C 
BRANCH   4   5
HETATM    5  C4  UNL     1      12.424   6.380  10.917  1.00  0.00    -0.055 A 
HETATM    6  C5  UNL     1      11.177   5.752  11.068  1.00  0.00     0.046 A 
HETATM    7  C6  UNL     1      10.311   5.672   9.982  1.00  0.00     0.099 A 
HETATM    8  C7  UNL     1      10.671   6.214   8.752  1.00  0.00     0.098 A 
HETATM    9  C8  UNL     1      11.894   6.842   8.585  1.00  0.00     0.040 A 
HETATM   10  C9  UNL     1      12.770   6.927   9.668  1.00  0.00     0.010 A 
BRANCH   7  11
HETATM   11  O1  UNL     1       9.089   5.065  10.075  1.00  0.00    -0.358 OA
HETATM   12  H   UNL     1       8.877   4.553  10.831  1.00  0.00     0.217 HD
ENDBRANCH   7  11
BRANCH   8  13
HETATM   13  O2  UNL     1       9.813   6.130   7.692  1.00  0.00    -0.358 OA
HETATM   14  H   UNL     1       9.007   5.660   7.778  1.00  0.00     0.217 HD
ENDBRANCH   8  13
ENDBRANCH   4   5
ENDBRANCH   3   4
ENDBRANCH   1   3
BRANCH   1  15
HETATM   15  C10 UNL     1      13.296   7.000  15.688  1.00  0.00     0.218 C 
BRANCH  15  16
HETATM   16  O4  UNL     1      11.912   7.284  15.477  1.00  0.00    -0.385 OA
HETATM   17  H   UNL     1      11.546   6.650  14.841  1.00  0.00     0.210 HD
ENDBRANCH  15  16
BRANCH  15  18
HETATM   18  C11 UNL     1      13.535   6.367  17.074  1.00  0.00     0.177 C 
BRANCH  18  19
HETATM   19  O5  UNL     1      13.663   7.373  18.093  1.00  0.00    -0.390 OA
HETATM   20  H   UNL     1      14.483   7.226  18.589  1.00  0.00     0.210 HD
ENDBRANCH  18  19
BRANCH  18  21
HETATM   21  C12 UNL     1      12.362   5.470  17.489  1.00  0.00     0.198 C 
BRANCH  21  22
HETATM   22  O6  UNL     1      11.266   6.278  17.924  1.00  0.00    -0.398 OA
HETATM   23  H   UNL     1      10.468   5.731  17.992  1.00  0.00     0.209 HD
ENDBRANCH  21  22
ENDBRANCH  18  21
ENDBRANCH  15  18
ENDBRANCH   1  15
TORSDOF 11
ENDMDL
MODEL 6
REMARK VINA RESULT:      -6.4      1.380      5.547
REMARK  11 active torsions:
REMARK  status: ('A' for Active; 'I' for Inactive)
REMARK    1  A    between atoms: C1_1  and  C2_2 
REMARK    2  A    between atoms: C1_1  and  C10_13 
REMARK    3  A    between atoms: C2_2  and  C3_3 
REMARK    4  A    between atoms: C3_3  and  C4_4 
REMARK    5  A    between atoms: C6_6  and  O1_7 
REMARK    6  A    between atoms: C7_8  and  O2_9 
REMARK    7  A    between atoms: C10_13  and  O4_14 
REMARK    8  A    between atoms: C10_13  and  C11_15 
REMARK    9  A    between atoms: C11_15  and  O5_16 
REMARK   10  A    between atoms: C11_15  and  C12_17 
REMARK   11  A    between atoms: C12_17  and  O6_18 
ROOT
HETATM    1  C1  UNL     1      12.402   6.873   7.771  1.00  0.00     0.158 C 
HETATM    2  O3  UNL     1      13.013   6.977   6.703  1.00  0.00    -0.295 OA
ENDROOT
BRANCH   1   3
HETATM    3  C2  UNL     1      13.145   6.913   9.094  1.00  0.00     0.086 C 
BRANCH   3   4
HETATM    4  C3  UNL     1      13.168   8.296   9.741  1.00  0.00     0.046 C 
BRANCH   4   5
HETATM    5  C4  UNL     1      12.478   8.351  11.084  1.00  0.00    -0.055 A 
HETATM    6  C5  UNL     1      12.716   7.363  12.054  1.00  0.00     0.046 A 
HETATM    7  C6  UNL     1      12.060   7.429  13.279  1.00  0.00     0.099 A 
HETATM    8  C7  UNL     1      11.178   8.470  13.550  1.00  0.00     0.098 A 
HETATM    9  C8  UNL     1      10.934   9.456  12.608  1.00  0.00     0.040 A 
HETATM   10  C9  UNL     1      11.586   9.398  11.376  1.00  0.00     0.010 A 
BRANCH   7  11
HETATM   11  O1  UNL     1      12.253   6.489  14.253  1.00  0.00    -0.358 OA
HETATM   12  H   UNL     1      11.621   5.809  14.379  1.00  0.00     0.217 HD
ENDBRANCH   7  11
BRANCH   8  13
HETATM   13  O2  UNL     1      10.539   8.525  14.756  1.00  0.00    -0.358 OA
HETATM   14  H   UNL     1       9.624   8.724  14.793  1.00  0.00     0.217 HD
ENDBRANCH   8  13
ENDBRANCH   4   5
ENDBRANCH   3   4
ENDBRANCH   1   3
BRANCH   1  15
HETATM   15  C10 UNL     1      10.876   6.755   7.812  1.00  0.00     0.218 C 
BRANCH  15  16
HETATM   16  O4  UNL     1      10.484   5.752   6.874  1.00  0.00    -0.385 OA
HETATM   17  H   UNL     1      10.275   6.170   6.024  1.00  0.00     0.210 HD
ENDBRANCH  15  16
BRANCH  15  18
HETATM   18  C11 UNL     1      10.380   6.419   9.234  1.00  0.00     0.177 C 
BRANCH  18  19
HETATM   19  O5  UNL     1       9.277   7.258   9.614  1.00  0.00    -0.390 OA
HETATM   20  H   UNL     1       9.587   7.940  10.230  1.00  0.00     0.210 HD
ENDBRANCH  18  19
BRANCH  18  21
HETATM   21  C12 UNL     1       9.880   4.972   9.324  1.00  0.00     0.198 C 
BRANCH  21  22
HETATM   22  O6  UNL     1       9.032   4.822  10.464  1.00  0.00    -0.398 OA
HETATM   23  H   UNL     1       8.309   4.211  10.252  1.00  0.00     0.209 HD
ENDBRANCH  21  22
ENDBRANCH  18  21
ENDBRANCH  15  18
ENDBRANCH   1  15
TORSDOF 11
ENDMDL
MODEL 7
REMARK VINA RESULT:      -6.3      1.324      1.815
REMARK  11 active torsions:
REMARK  status: ('A' for Active; 'I' for Inactive)
REMARK    1  A    between atoms: C1_1  and  C2_2 
REMARK    2  A    between atoms: C1_1  and  C10_13 
REMARK    3  A    between atoms: C2_2  and  C3_3 
REMARK    4  A    between atoms: C3_3  and  C4_4 
REMARK    5  A    between atoms: C6_6  and  O1_7 
REMARK    6  A    between atoms: C7_8  and  O2_9 
REMARK    7  A    between atoms: C10_13  and  O4_14 
REMARK    8  A    between atoms: C10_13  and  C11_15 
REMARK    9  A    between atoms: C11_15  and  O5_16 
REMARK   10  A    between atoms: C11_15  and  C12_17 
REMARK   11  A    between atoms: C12_17  and  O6_18 
ROOT
HETATM    1  C1  UNL     1      12.297   7.710  13.170  1.00  0.00     0.158 C 
HETATM    2  O3  UNL     1      13.315   8.375  13.382  1.00  0.00    -0.295 OA
ENDROOT
BRANCH   1   3
HETATM    3  C2  UNL     1      12.399   6.252  12.755  1.00  0.00     0.086 C 
BRANCH   3   4
HETATM    4  C3  UNL     1      11.845   5.973  11.360  1.00  0.00     0.046 C 
BRANCH   4   5
HETATM    5  C4  UNL     1      12.757   6.423  10.242  1.00  0.00    -0.055 A 
HETATM    6  C5  UNL     1      12.239   6.728   8.973  1.00  0.00     0.046 A 
HETATM    7  C6  UNL     1      13.100   7.129   7.957  1.00  0.00     0.099 A 
HETATM    8  C7  UNL     1      14.467   7.236   8.193  1.00  0.00     0.098 A 
HETATM    9  C8  UNL     1      14.996   6.945   9.439  1.00  0.00     0.040 A 
HETATM   10  C9  UNL     1      14.140   6.540  10.465  1.00  0.00     0.010 A 
BRANCH   7  11
HETATM   11  O1  UNL     1      12.647   7.431   6.702  1.00  0.00    -0.358 OA
HETATM   12  H   UNL     1      11.822   7.096   6.409  1.00  0.00     0.217 HD
ENDBRANCH   7  11
BRANCH   8  13
HETATM   13  O2  UNL     1      15.304   7.631   7.188  1.00  0.00    -0.358 OA
HETATM   14  H   UNL     1      15.026   8.284   6.576  1.00  0.00     0.217 HD
ENDBRANCH   8  13
ENDBRANCH   4   5
ENDBRANCH   3   4
ENDBRANCH   1   3
BRANCH   1  15
HETATM   15  C10 UNL     1      10.899   8.300  13.367  1.00  0.00     0.218 C 
BRANCH  15  16
HETATM   16  O4  UNL     1      10.679   8.459  14.769  1.00  0.00    -0.385 OA
HETATM   17  H   UNL     1      11.527   8.411  15.237  1.00  0.00     0.210 HD
ENDBRANCH  15  16
BRANCH  15  18
HETATM   18  C11 UNL     1      10.747   9.640  12.618  1.00  0.00     0.177 C 
BRANCH  18  19
HETATM   19  O5  UNL     1      11.788  10.562  12.980  1.00  0.00    -0.390 OA
HETATM   20  H   UNL     1      12.241  10.867  12.178  1.00  0.00     0.210 HD
ENDBRANCH  18  19
BRANCH  18  21
HETATM   21  C12 UNL     1      10.841   9.445  11.100  1.00  0.00     0.198 C 
BRANCH  21  22
HETATM   22  O6  UNL     1       9.762   8.624  10.649  1.00  0.00    -0.398 OA
HETATM   23  H   UNL     1       8.994   9.181  10.447  1.00  0.00     0.209 HD
ENDBRANCH  21  22
ENDBRANCH  18  21
ENDBRANCH  15  18
ENDBRANCH   1  15
TORSDOF 11
ENDMDL
MODEL 8
REMARK VINA RESULT:      -6.3      2.556      4.050
REMARK  11 active torsions:
REMARK  status: ('A' for Active; 'I' for Inactive)
REMARK    1  A    between atoms: C1_1  and  C2_2 
REMARK    2  A    between atoms: C1_1  and  C10_13 
REMARK    3  A    between atoms: C2_2  and  C3_3 
REMARK    4  A    between atoms: C3_3  and  C4_4 
REMARK    5  A    between atoms: C6_6  and  O1_7 
REMARK    6  A    between atoms: C7_8  and  O2_9 
REMARK    7  A    between atoms: C10_13  and  O4_14 
REMARK    8  A    between atoms: C10_13  and  C11_15 
REMARK    9  A    between atoms: C11_15  and  O5_16 
REMARK   10  A    between atoms: C11_15  and  C12_17 
REMARK   11  A    between atoms: C12_17  and  O6_18 
ROOT
HETATM    1  C1  UNL     1      11.468   8.763  10.952  1.00  0.00     0.158 C 
HETATM    2  O3  UNL     1      10.388   9.343  10.797  1.00  0.00    -0.295 OA
ENDROOT
BRANCH   1   3
HETATM    3  C2  UNL     1      12.141   8.059   9.786  1.00  0.00     0.086 C 
BRANCH   3   4
HETATM    4  C3  UNL     1      13.032   6.894  10.207  1.00  0.00     0.046 C 
BRANCH   4   5
HETATM    5  C4  UNL     1      14.382   6.884   9.529  1.00  0.00    -0.055 A 
HETATM    6  C5  UNL     1      14.501   7.190   8.164  1.00  0.00     0.046 A 
HETATM    7  C6  UNL     1      15.754   7.164   7.560  1.00  0.00     0.099 A 
HETATM    8  C7  UNL     1      16.887   6.845   8.300  1.00  0.00     0.098 A 
HETATM    9  C8  UNL     1      16.790   6.545   9.649  1.00  0.00     0.040 A 
HETATM   10  C9  UNL     1      15.538   6.567  10.265  1.00  0.00     0.010 A 
BRANCH   7  11
HETATM   11  O1  UNL     1      15.922   7.448   6.232  1.00  0.00    -0.358 OA
HETATM   12  H   UNL     1      16.779   7.431   5.854  1.00  0.00     0.217 HD
ENDBRANCH   7  11
BRANCH   8  13
HETATM   13  O2  UNL     1      18.112   6.822   7.697  1.00  0.00    -0.358 OA
HETATM   14  H   UNL     1      18.807   6.314   8.067  1.00  0.00     0.217 HD
ENDBRANCH   8  13
ENDBRANCH   4   5
ENDBRANCH   3   4
ENDBRANCH   1   3
BRANCH   1  15
HETATM   15  C10 UNL     1      12.197   8.773  12.297  1.00  0.00     0.218 C 
BRANCH  15  16
HETATM   16  O4  UNL     1      12.506  10.129  12.623  1.00  0.00    -0.385 OA
HETATM   17  H   UNL     1      12.195  10.324  13.521  1.00  0.00     0.210 HD
ENDBRANCH  15  16
BRANCH  15  18
HETATM   18  C11 UNL     1      11.345   8.110  13.400  1.00  0.00     0.177 C 
BRANCH  18  19
HETATM   19  O5  UNL     1      10.355   7.232  12.839  1.00  0.00    -0.390 OA
HETATM   20  H   UNL     1       9.580   7.750  12.571  1.00  0.00     0.210 HD
ENDBRANCH  18  19
BRANCH  18  21
HETATM   21  C12 UNL     1      12.210   7.255  14.335  1.00  0.00     0.198 C 
BRANCH  21  22
HETATM   22  O6  UNL     1      11.779   7.429  15.686  1.00  0.00    -0.398 OA
HETATM   23  H   UNL     1      10.811   7.365  15.728  1.00  0.00     0.209 HD
ENDBRANCH  21  22
ENDBRANCH  18  21
ENDBRANCH  15  18
ENDBRANCH   1  15
TORSDOF 11
ENDMDL
MODEL 9
REMARK VINA RESULT:      -6.2      2.183      3.695
REMARK  11 active torsions:
REMARK  status: ('A' for Active; 'I' for Inactive)
REMARK    1  A    between atoms: C1_1  and  C2_2 
REMARK    2  A    between atoms: C1_1  and  C10_13 
REMARK    3  A    between atoms: C2_2  and  C3_3 
REMARK    4  A    between atoms: C3_3  and  C4_4 
REMARK    5  A    between atoms: C6_6  and  O1_7 
REMARK    6  A    between atoms: C7_8  and  O2_9 
REMARK    7  A    between atoms: C10_13  and  O4_14 
REMARK    8  A    between atoms: C10_13  and  C11_15 
REMARK    9  A    between atoms: C11_15  and  O5_16 
REMARK   10  A    between atoms: C11_15  and  C12_17 
REMARK   11  A    between atoms: C12_17  and  O6_18 
ROOT
HETATM    1  C1  UNL     1      13.501   6.259  14.305  1.00  0.00     0.158 C 
HETATM    2  O3  UNL     1      14.484   5.512  14.304  1.00  0.00    -0.295 OA
ENDROOT
BRANCH   1   3
HETATM    3  C2  UNL     1      12.602   6.355  13.085  1.00  0.00     0.086 C 
BRANCH   3   4
HETATM    4  C3  UNL     1      13.355   6.260  11.761  1.00  0.00     0.046 C 
BRANCH   4   5
HETATM    5  C4  UNL     1      12.463   6.352  10.545  1.00  0.00    -0.055 A 
HETATM    6  C5  UNL     1      12.972   6.796   9.314  1.00  0.00     0.046 A 
HETATM    7  C6  UNL     1      12.127   6.882   8.212  1.00  0.00     0.099 A 
HETATM    8  C7  UNL     1      10.787   6.525   8.321  1.00  0.00     0.098 A 
HETATM    9  C8  UNL     1      10.269   6.080   9.525  1.00  0.00     0.040 A 
HETATM   10  C9  UNL     1      11.107   5.991  10.638  1.00  0.00     0.010 A 
BRANCH   7  11
HETATM   11  O1  UNL     1      12.572   7.314   6.993  1.00  0.00    -0.358 OA
HETATM   12  H   UNL     1      13.487   7.285   6.790  1.00  0.00     0.217 HD
ENDBRANCH   7  11
BRANCH   8  13
HETATM   13  O2  UNL     1       9.967   6.613   7.232  1.00  0.00    -0.358 OA
HETATM   14  H   UNL     1       9.209   7.164   7.260  1.00  0.00     0.217 HD
ENDBRANCH   8  13
ENDBRANCH   4   5
ENDBRANCH   3   4
ENDBRANCH   1   3
BRANCH   1  15
HETATM   15  C10 UNL     1      13.114   7.073  15.542  1.00  0.00     0.218 C 
BRANCH  15  16
HETATM   16  O4  UNL     1      11.726   7.391  15.447  1.00  0.00    -0.385 OA
HETATM   17  H   UNL     1      11.203   6.576  15.503  1.00  0.00     0.210 HD
ENDBRANCH  15  16
BRANCH  15  18
HETATM   18  C11 UNL     1      13.426   6.300  16.841  1.00  0.00     0.177 C 
BRANCH  18  19
HETATM   19  O5  UNL     1      13.696   7.196  17.931  1.00  0.00    -0.390 OA
HETATM   20  H   UNL     1      13.089   7.006  18.663  1.00  0.00     0.210 HD
ENDBRANCH  18  19
BRANCH  18  21
HETATM   21  C12 UNL     1      12.238   5.430  17.272  1.00  0.00     0.198 C 
BRANCH  21  22
HETATM   22  O6  UNL     1      11.253   6.242  17.915  1.00  0.00    -0.398 OA
HETATM   23  H   UNL     1      11.524   6.414  18.831  1.00  0.00     0.209 HD
ENDBRANCH  21  22
ENDBRANCH  18  21
ENDBRANCH  15  18
ENDBRANCH   1  15
TORSDOF 11
ENDMDL
