MODEL 1
REMARK VINA RESULT:      -6.7      0.000      0.000
REMARK  11 active torsions:
REMARK  status: ('A' for Active; 'I' for Inactive)
REMARK    1  A    between atoms: C1_1  and  C2_2 
REMARK    2  A    between atoms: C1_1  and  C10_13 
REMARK    3  A    between atoms: C2_2  and  C3_3 
REMARK    4  A    between atoms: C3_3  and  C4_4 
REMARK    5  A    between atoms: C6_6  and  O1_7 
REMARK    6  A    between atoms: C7_8  and  O2_9 
REMARK    7  A    between atoms: C10_13  and  O4_14 
REMARK    8  A    between atoms: C10_13  and  C11_15 
REMARK    9  A    between atoms: C11_15  and  O5_16 
REMARK   10  A    between atoms: C11_15  and  C12_17 
REMARK   11  A    between atoms: C12_17  and  O6_18 
ROOT
HETATM    1  C1  UNL     1      13.231   6.176  15.803  1.00  0.00     0.158 C 
HETATM    2  O3  UNL     1      13.831   6.547  16.817  1.00  0.00    -0.295 OA
ENDROOT
BRANCH   1   3
HETATM    3  C2  UNL     1      13.722   4.977  15.011  1.00  0.00     0.086 C 
BRANCH   3   4
HETATM    4  C3  UNL     1      14.914   5.285  14.108  1.00  0.00     0.046 C 
BRANCH   4   5
HETATM    5  C4  UNL     1      14.628   5.097  12.637  1.00  0.00    -0.055 A 
HETATM    6  C5  UNL     1      13.383   4.611  12.205  1.00  0.00     0.046 A 
HETATM    7  C6  UNL     1      13.147   4.436  10.845  1.00  0.00     0.099 A 
HETATM    8  C7  UNL     1      14.133   4.746   9.913  1.00  0.00     0.098 A 
HETATM    9  C8  UNL     1      15.365   5.231  10.320  1.00  0.00     0.040 A 
HETATM   10  C9  UNL     1      15.612   5.409  11.682  1.00  0.00     0.010 A 
BRANCH   7  11
HETATM   11  O1  UNL     1      11.955   3.959  10.374  1.00  0.00    -0.358 OA
HETATM   12  H   UNL     1      11.850   3.043  10.204  1.00  0.00     0.217 HD
ENDBRANCH   7  11
BRANCH   8  13
HETATM   13  O2  UNL     1      13.891   4.570   8.581  1.00  0.00    -0.358 OA
HETATM   14  H   UNL     1      13.361   3.854   8.291  1.00  0.00     0.217 HD
ENDBRANCH   8  13
ENDBRANCH   4   5
ENDBRANCH   3   4
ENDBRANCH   1   3
BRANCH   1  15
HETATM   15  C10 UNL     1      11.948   6.865  15.334  1.00  0.00     0.218 C 
BRANCH  15  16
HETATM   16  O4  UNL     1      11.187   7.218  16.489  1.00  0.00    -0.385 OA
HETATM   17  H   UNL     1      10.276   7.423  16.226  1.00  0.00     0.210 HD
ENDBRANCH  15  16
BRANCH  15  18
HETATM   18  C11 UNL     1      12.263   8.103  14.468  1.00  0.00     0.177 C 
BRANCH  18  19
HETATM   19  O5  UNL     1      13.640   8.492  14.593  1.00  0.00    -0.390 OA
HETATM   20  H   UNL     1      14.101   7.868  15.175  1.00  0.00     0.210 HD
ENDBRANCH  18  19
BRANCH  18  21
HETATM   21  C12 UNL     1      12.021   7.820  12.980  1.00  0.00     0.198 C 
BRANCH  21  22
HETATM   22  O6  UNL     1      11.112   6.727  12.837  1.00  0.00    -0.398 OA
HETATM   23  H   UNL     1      11.589   5.952  12.500  1.00  0.00     0.209 HD
ENDBRANCH  21  22
ENDBRANCH  18  21
ENDBRANCH  15  18
ENDBRANCH   1  15
TORSDOF 11
ENDMDL
MODEL 2
REMARK VINA RESULT:      -6.5      1.400      6.074
REMARK  11 active torsions:
REMARK  status: ('A' for Active; 'I' for Inactive)
REMARK    1  A    between atoms: C1_1  and  C2_2 
REMARK    2  A    between atoms: C1_1  and  C10_13 
REMARK    3  A    between atoms: C2_2  and  C3_3 
REMARK    4  A    between atoms: C3_3  and  C4_4 
REMARK    5  A    between atoms: C6_6  and  O1_7 
REMARK    6  A    between atoms: C7_8  and  O2_9 
REMARK    7  A    between atoms: C10_13  and  O4_14 
REMARK    8  A    between atoms: C10_13  and  C11_15 
REMARK    9  A    between atoms: C11_15  and  O5_16 
REMARK   10  A    between atoms: C11_15  and  C12_17 
REMARK   11  A    between atoms: C12_17  and  O6_18 
ROOT
HETATM    1  C1  UNL     1      14.205   5.071  10.292  1.00  0.00     0.158 C 
HETATM    2  O3  UNL     1      14.574   5.692   9.291  1.00  0.00    -0.295 OA
ENDROOT
BRANCH   1   3
HETATM    3  C2  UNL     1      14.839   5.341  11.646  1.00  0.00     0.086 C 
BRANCH   3   4
HETATM    4  C3  UNL     1      14.669   6.780  12.125  1.00  0.00     0.046 C 
BRANCH   4   5
HETATM    5  C4  UNL     1      13.752   6.920  13.317  1.00  0.00    -0.055 A 
HETATM    6  C5  UNL     1      13.963   6.158  14.478  1.00  0.00     0.046 A 
HETATM    7  C6  UNL     1      13.099   6.297  15.559  1.00  0.00     0.099 A 
HETATM    8  C7  UNL     1      12.033   7.189  15.499  1.00  0.00     0.098 A 
HETATM    9  C8  UNL     1      11.811   7.952  14.365  1.00  0.00     0.040 A 
HETATM   10  C9  UNL     1      12.672   7.820  13.274  1.00  0.00     0.010 A 
BRANCH   7  11
HETATM   11  O1  UNL     1      13.258   5.573  16.709  1.00  0.00    -0.358 OA
HETATM   12  H   UNL     1      14.092   5.550  17.136  1.00  0.00     0.217 HD
ENDBRANCH   7  11
BRANCH   8  13
HETATM   13  O2  UNL     1      11.190   7.317  16.566  1.00  0.00    -0.358 OA
HETATM   14  H   UNL     1      10.268   7.413  16.426  1.00  0.00     0.217 HD
ENDBRANCH   8  13
ENDBRANCH   4   5
ENDBRANCH   3   4
ENDBRANCH   1   3
BRANCH   1  15
HETATM   15  C10 UNL     1      13.067   4.050  10.227  1.00  0.00     0.218 C 
BRANCH  15  16
HETATM   16  O4  UNL     1      11.878   4.681  10.704  1.00  0.00    -0.385 OA
HETATM   17  H   UNL     1      11.902   4.725  11.673  1.00  0.00     0.210 HD
ENDBRANCH  15  16
BRANCH  15  18
HETATM   18  C11 UNL     1      12.880   3.510   8.794  1.00  0.00     0.177 C 
BRANCH  18  19
HETATM   19  O5  UNL     1      12.970   4.565   7.822  1.00  0.00    -0.390 OA
HETATM   20  H   UNL     1      12.086   4.759   7.473  1.00  0.00     0.210 HD
ENDBRANCH  18  19
BRANCH  18  21
HETATM   21  C12 UNL     1      13.968   2.490   8.436  1.00  0.00     0.198 C 
BRANCH  21  22
HETATM   22  O6  UNL     1      15.007   3.131   7.692  1.00  0.00    -0.398 OA
HETATM   23  H   UNL     1      15.870   2.877   8.056  1.00  0.00     0.209 HD
ENDBRANCH  21  22
ENDBRANCH  18  21
ENDBRANCH  15  18
ENDBRANCH   1  15
TORSDOF 11
ENDMDL
MODEL 3
REMARK VINA RESULT:      -6.4      2.830      5.118
REMARK  11 active torsions:
REMARK  status: ('A' for Active; 'I' for Inactive)
REMARK    1  A    between atoms: C1_1  and  C2_2 
REMARK    2  A    between atoms: C1_1  and  C10_13 
REMARK    3  A    between atoms: C2_2  and  C3_3 
REMARK    4  A    between atoms: C3_3  and  C4_4 
REMARK    5  A    between atoms: C6_6  and  O1_7 
REMARK    6  A    between atoms: C7_8  and  O2_9 
REMARK    7  A    between atoms: C10_13  and  O4_14 
REMARK    8  A    between atoms: C10_13  and  C11_15 
REMARK    9  A    between atoms: C11_15  and  O5_16 
REMARK   10  A    between atoms: C11_15  and  C12_17 
REMARK   11  A    between atoms: C12_17  and  O6_18 
ROOT
HETATM    1  C1  UNL     1      13.547   5.435  12.005  1.00  0.00     0.158 C 
HETATM    2  O3  UNL     1      13.345   6.632  11.776  1.00  0.00    -0.295 OA
ENDROOT
BRANCH   1   3
HETATM    3  C2  UNL     1      14.411   5.007  13.178  1.00  0.00     0.086 C 
BRANCH   3   4
HETATM    4  C3  UNL     1      15.399   6.078  13.634  1.00  0.00     0.046 C 
BRANCH   4   5
HETATM    5  C4  UNL     1      16.753   5.978  12.971  1.00  0.00    -0.055 A 
HETATM    6  C5  UNL     1      16.887   6.145  11.583  1.00  0.00     0.046 A 
HETATM    7  C6  UNL     1      18.143   6.037  10.995  1.00  0.00     0.099 A 
HETATM    8  C7  UNL     1      19.265   5.773  11.774  1.00  0.00     0.098 A 
HETATM    9  C8  UNL     1      19.154   5.611  13.145  1.00  0.00     0.040 A 
HETATM   10  C9  UNL     1      17.898   5.716  13.744  1.00  0.00     0.010 A 
BRANCH   7  11
HETATM   11  O1  UNL     1      18.325   6.184   9.648  1.00  0.00    -0.358 OA
HETATM   12  H   UNL     1      18.998   6.751   9.325  1.00  0.00     0.217 HD
ENDBRANCH   7  11
BRANCH   8  13
HETATM   13  O2  UNL     1      20.494   5.670  11.187  1.00  0.00    -0.358 OA
HETATM   14  H   UNL     1      21.247   6.037  11.607  1.00  0.00     0.217 HD
ENDBRANCH   8  13
ENDBRANCH   4   5
ENDBRANCH   3   4
ENDBRANCH   1   3
BRANCH   1  15
HETATM   15  C10 UNL     1      12.898   4.338  11.158  1.00  0.00     0.218 C 
BRANCH  15  16
HETATM   16  O4  UNL     1      11.509   4.291  11.483  1.00  0.00    -0.385 OA
HETATM   17  H   UNL     1      11.014   4.856  10.870  1.00  0.00     0.210 HD
ENDBRANCH  15  16
BRANCH  15  18
HETATM   18  C11 UNL     1      13.114   4.592   9.652  1.00  0.00     0.177 C 
BRANCH  18  19
HETATM   19  O5  UNL     1      14.394   5.196   9.402  1.00  0.00    -0.390 OA
HETATM   20  H   UNL     1      15.001   4.977  10.125  1.00  0.00     0.210 HD
ENDBRANCH  18  19
BRANCH  18  21
HETATM   21  C12 UNL     1      13.086   3.281   8.854  1.00  0.00     0.198 C 
BRANCH  21  22
HETATM   22  O6  UNL     1      14.119   3.293   7.867  1.00  0.00    -0.398 OA
HETATM   23  H   UNL     1      13.756   3.003   7.016  1.00  0.00     0.209 HD
ENDBRANCH  21  22
ENDBRANCH  18  21
ENDBRANCH  15  18
ENDBRANCH   1  15
TORSDOF 11
ENDMDL
MODEL 4
REMARK VINA RESULT:      -6.4      2.352      3.639
REMARK  11 active torsions:
REMARK  status: ('A' for Active; 'I' for Inactive)
REMARK    1  A    between atoms: C1_1  and  C2_2 
REMARK    2  A    between atoms: C1_1  and  C10_13 
REMARK    3  A    between atoms: C2_2  and  C3_3 
REMARK    4  A    between atoms: C3_3  and  C4_4 
REMARK    5  A    between atoms: C6_6  and  O1_7 
REMARK    6  A    between atoms: C7_8  and  O2_9 
REMARK    7  A    between atoms: C10_13  and  O4_14 
REMARK    8  A    between atoms: C10_13  and  C11_15 
REMARK    9  A    between atoms: C11_15  and  O5_16 
REMARK   10  A    between atoms: C11_15  and  C12_17 
REMARK   11  A    between atoms: C12_17  and  O6_18 
ROOT
HETATM    1  C1  UNL     1      14.894   5.559  17.357  1.00  0.00     0.158 C 
HETATM    2  O3  UNL     1      15.998   5.164  17.742  1.00  0.00    -0.295 OA
ENDROOT
BRANCH   1   3
HETATM    3  C2  UNL     1      14.258   4.975  16.107  1.00  0.00     0.086 C 
BRANCH   3   4
HETATM    4  C3  UNL     1      14.910   5.448  14.811  1.00  0.00     0.046 C 
BRANCH   4   5
HETATM    5  C4  UNL     1      14.179   5.005  13.565  1.00  0.00    -0.055 A 
HETATM    6  C5  UNL     1      13.011   4.230  13.657  1.00  0.00     0.046 A 
HETATM    7  C6  UNL     1      12.362   3.825  12.495  1.00  0.00     0.099 A 
HETATM    8  C7  UNL     1      12.858   4.188  11.247  1.00  0.00     0.098 A 
HETATM    9  C8  UNL     1      14.005   4.955  11.137  1.00  0.00     0.040 A 
HETATM   10  C9  UNL     1      14.665   5.366  12.296  1.00  0.00     0.010 A 
BRANCH   7  11
HETATM   11  O1  UNL     1      11.225   3.065  12.530  1.00  0.00    -0.358 OA
HETATM   12  H   UNL     1      10.403   3.461  12.743  1.00  0.00     0.217 HD
ENDBRANCH   7  11
BRANCH   8  13
HETATM   13  O2  UNL     1      12.213   3.784  10.113  1.00  0.00    -0.358 OA
HETATM   14  H   UNL     1      11.276   3.777  10.084  1.00  0.00     0.217 HD
ENDBRANCH   8  13
ENDBRANCH   4   5
ENDBRANCH   3   4
ENDBRANCH   1   3
BRANCH   1  15
HETATM   15  C10 UNL     1      14.098   6.604  18.142  1.00  0.00     0.218 C 
BRANCH  15  16
HETATM   16  O4  UNL     1      12.765   6.622  17.630  1.00  0.00    -0.385 OA
HETATM   17  H   UNL     1      12.790   6.718  16.665  1.00  0.00     0.210 HD
ENDBRANCH  15  16
BRANCH  15  18
HETATM   18  C11 UNL     1      14.116   6.301  19.654  1.00  0.00     0.177 C 
BRANCH  18  19
HETATM   19  O5  UNL     1      13.830   7.478  20.427  1.00  0.00    -0.390 OA
HETATM   20  H   UNL     1      14.138   8.262  19.946  1.00  0.00     0.210 HD
ENDBRANCH  18  19
BRANCH  18  21
HETATM   21  C12 UNL     1      13.050   5.262  20.028  1.00  0.00     0.198 C 
BRANCH  21  22
HETATM   22  O6  UNL     1      11.770   5.893  20.117  1.00  0.00    -0.398 OA
HETATM   23  H   UNL     1      11.769   6.700  19.579  1.00  0.00     0.209 HD
ENDBRANCH  21  22
ENDBRANCH  18  21
ENDBRANCH  15  18
ENDBRANCH   1  15
TORSDOF 11
ENDMDL
MODEL 5
REMARK VINA RESULT:      -6.3      1.375      1.873
REMARK  11 active torsions:
REMARK  status: ('A' for Active; 'I' for Inactive)
REMARK    1  A    between atoms: C1_1  and  C2_2 
REMARK    2  A    between atoms: C1_1  and  C10_13 
REMARK    3  A    between atoms: C2_2  and  C3_3 
REMARK    4  A    between atoms: C3_3  and  C4_4 
REMARK    5  A    between atoms: C6_6  and  O1_7 
REMARK    6  A    between atoms: C7_8  and  O2_9 
REMARK    7  A    between atoms: C10_13  and  O4_14 
REMARK    8  A    between atoms: C10_13  and  C11_15 
REMARK    9  A    between atoms: C11_15  and  O5_16 
REMARK   10  A    between atoms: C11_15  and  C12_17 
REMARK   11  A    between atoms: C12_17  and  O6_18 
ROOT
HETATM    1  C1  UNL     1      13.428   6.683  15.376  1.00  0.00     0.158 C 
HETATM    2  O3  UNL     1      14.239   7.607  15.486  1.00  0.00    -0.295 OA
ENDROOT
BRANCH   1   3
HETATM    3  C2  UNL     1      13.899   5.240  15.351  1.00  0.00     0.086 C 
BRANCH   3   4
HETATM    4  C3  UNL     1      13.713   4.559  13.998  1.00  0.00     0.046 C 
BRANCH   4   5
HETATM    5  C4  UNL     1      14.676   5.039  12.938  1.00  0.00    -0.055 A 
HETATM    6  C5  UNL     1      14.285   5.106  11.590  1.00  0.00     0.046 A 
HETATM    7  C6  UNL     1      15.193   5.542  10.631  1.00  0.00     0.099 A 
HETATM    8  C7  UNL     1      16.482   5.916  10.999  1.00  0.00     0.098 A 
HETATM    9  C8  UNL     1      16.884   5.861  12.323  1.00  0.00     0.040 A 
HETATM   10  C9  UNL     1      15.981   5.425  13.293  1.00  0.00     0.010 A 
BRANCH   7  11
HETATM   11  O1  UNL     1      14.863   5.619   9.306  1.00  0.00    -0.358 OA
HETATM   12  H   UNL     1      14.540   4.862   8.859  1.00  0.00     0.217 HD
ENDBRANCH   7  11
BRANCH   8  13
HETATM   13  O2  UNL     1      17.366   6.342  10.049  1.00  0.00    -0.358 OA
HETATM   14  H   UNL     1      18.270   6.453  10.267  1.00  0.00     0.217 HD
ENDBRANCH   8  13
ENDBRANCH   4   5
ENDBRANCH   3   4
ENDBRANCH   1   3
BRANCH   1  15
HETATM   15  C10 UNL     1      11.921   6.943  15.316  1.00  0.00     0.218 C 
BRANCH  15  16
HETATM   16  O4  UNL     1      11.478   7.287  16.629  1.00  0.00    -0.385 OA
HETATM   17  H   UNL     1      10.518   7.431  16.619  1.00  0.00     0.210 HD
ENDBRANCH  15  16
BRANCH  15  18
HETATM   18  C11 UNL     1      11.586   8.056  14.301  1.00  0.00     0.177 C 
BRANCH  18  19
HETATM   19  O5  UNL     1      12.310   9.263  14.589  1.00  0.00    -0.390 OA
HETATM   20  H   UNL     1      11.876  10.012  14.153  1.00  0.00     0.210 HD
ENDBRANCH  18  19
BRANCH  18  21
HETATM   21  C12 UNL     1      11.970   7.645  12.874  1.00  0.00     0.198 C 
BRANCH  21  22
HETATM   22  O6  UNL     1      11.189   6.519  12.468  1.00  0.00    -0.398 OA
HETATM   23  H   UNL     1      10.664   6.754  11.686  1.00  0.00     0.209 HD
ENDBRANCH  21  22
ENDBRANCH  18  21
ENDBRANCH  15  18
ENDBRANCH   1  15
TORSDOF 11
ENDMDL
MODEL 6
REMARK VINA RESULT:      -6.3      2.854      4.030
REMARK  11 active torsions:
REMARK  status: ('A' for Active; 'I' for Inactive)
REMARK    1  A    between atoms: C1_1  and  C2_2 
REMARK    2  A    between atoms: C1_1  and  C10_13 
REMARK    3  A    between atoms: C2_2  and  C3_3 
REMARK    4  A    between atoms: C3_3  and  C4_4 
REMARK    5  A    between atoms: C6_6  and  O1_7 
REMARK    6  A    between atoms: C7_8  and  O2_9 
REMARK    7  A    between atoms: C10_13  and  O4_14 
REMARK    8  A    between atoms: C10_13  and  C11_15 
REMARK    9  A    between atoms: C11_15  and  O5_16 
REMARK   10  A    between atoms: C11_15  and  C12_17 
REMARK   11  A    between atoms: C12_17  and  O6_18 
ROOT
HETATM    1  C1  UNL     1      12.963   5.388  13.245  1.00  0.00     0.158 C 
HETATM    2  O3  UNL     1      12.450   4.780  14.190  1.00  0.00    -0.295 OA
ENDROOT
BRANCH   1   3
HETATM    3  C2  UNL     1      14.362   5.039  12.770  1.00  0.00     0.086 C 
BRANCH   3   4
HETATM    4  C3  UNL     1      15.468   5.584  13.670  1.00  0.00     0.046 C 
BRANCH   4   5
HETATM    5  C4  UNL     1      16.809   5.702  12.983  1.00  0.00    -0.055 A 
HETATM    6  C5  UNL     1      16.889   5.873  11.591  1.00  0.00     0.046 A 
HETATM    7  C6  UNL     1      18.136   5.967  10.981  1.00  0.00     0.099 A 
HETATM    8  C7  UNL     1      19.300   5.901  11.741  1.00  0.00     0.098 A 
HETATM    9  C8  UNL     1      19.240   5.738  13.115  1.00  0.00     0.040 A 
HETATM   10  C9  UNL     1      17.994   5.640  13.737  1.00  0.00     0.010 A 
BRANCH   7  11
HETATM   11  O1  UNL     1      18.268   6.128   9.629  1.00  0.00    -0.358 OA
HETATM   12  H   UNL     1      17.825   5.546   9.043  1.00  0.00     0.217 HD
ENDBRANCH   7  11
BRANCH   8  13
HETATM   13  O2  UNL     1      20.518   5.995  11.131  1.00  0.00    -0.358 OA
HETATM   14  H   UNL     1      21.020   6.782  11.206  1.00  0.00     0.217 HD
ENDBRANCH   8  13
ENDBRANCH   4   5
ENDBRANCH   3   4
ENDBRANCH   1   3
BRANCH   1  15
HETATM   15  C10 UNL     1      12.199   6.473  12.482  1.00  0.00     0.218 C 
BRANCH  15  16
HETATM   16  O4  UNL     1      11.096   5.854  11.818  1.00  0.00    -0.385 OA
HETATM   17  H   UNL     1      10.575   5.347  12.461  1.00  0.00     0.210 HD
ENDBRANCH  15  16
BRANCH  15  18
HETATM   18  C11 UNL     1      11.727   7.596  13.428  1.00  0.00     0.177 C 
BRANCH  18  19
HETATM   19  O5  UNL     1      10.937   7.072  14.508  1.00  0.00    -0.390 OA
HETATM   20  H   UNL     1      10.275   7.729  14.772  1.00  0.00     0.210 HD
ENDBRANCH  18  19
BRANCH  18  21
HETATM   21  C12 UNL     1      12.917   8.323  14.068  1.00  0.00     0.198 C 
BRANCH  21  22
HETATM   22  O6  UNL     1      12.508   9.618  14.516  1.00  0.00    -0.398 OA
HETATM   23  H   UNL     1      12.229  10.150  13.754  1.00  0.00     0.209 HD
ENDBRANCH  21  22
ENDBRANCH  18  21
ENDBRANCH  15  18
ENDBRANCH   1  15
TORSDOF 11
ENDMDL
MODEL 7
REMARK VINA RESULT:      -6.3      1.864      3.014
REMARK  11 active torsions:
REMARK  status: ('A' for Active; 'I' for Inactive)
REMARK    1  A    between atoms: C1_1  and  C2_2 
REMARK    2  A    between atoms: C1_1  and  C10_13 
REMARK    3  A    between atoms: C2_2  and  C3_3 
REMARK    4  A    between atoms: C3_3  and  C4_4 
REMARK    5  A    between atoms: C6_6  and  O1_7 
REMARK    6  A    between atoms: C7_8  and  O2_9 
REMARK    7  A    between atoms: C10_13  and  O4_14 
REMARK    8  A    between atoms: C10_13  and  C11_15 
REMARK    9  A    between atoms: C11_15  and  O5_16 
REMARK   10  A    between atoms: C11_15  and  C12_17 
REMARK   11  A    between atoms: C12_17  and  O6_18 
ROOT
HETATM    1  C1  UNL     1      14.688   6.386  15.614  1.00  0.00     0.158 C 
HETATM    2  O3  UNL     1      14.908   7.563  15.314  1.00  0.00    -0.295 OA
ENDROOT
BRANCH   1   3
HETATM    3  C2  UNL     1      15.341   5.256  14.837  1.00  0.00     0.086 C 
BRANCH   3   4
HETATM    4  C3  UNL     1      15.812   5.664  13.443  1.00  0.00     0.046 C 
BRANCH   4   5
HETATM    5  C4  UNL     1      14.870   5.248  12.338  1.00  0.00    -0.055 A 
HETATM    6  C5  UNL     1      13.547   4.872  12.626  1.00  0.00     0.046 A 
HETATM    7  C6  UNL     1      12.702   4.482  11.591  1.00  0.00     0.099 A 
HETATM    8  C7  UNL     1      13.156   4.470  10.276  1.00  0.00     0.098 A 
HETATM    9  C8  UNL     1      14.455   4.842   9.973  1.00  0.00     0.040 A 
HETATM   10  C9  UNL     1      15.312   5.234  11.003  1.00  0.00     0.010 A 
BRANCH   7  11
HETATM   11  O1  UNL     1      11.409   4.101  11.820  1.00  0.00    -0.358 OA
HETATM   12  H   UNL     1      10.833   4.662  12.303  1.00  0.00     0.217 HD
ENDBRANCH   7  11
BRANCH   8  13
HETATM   13  O2  UNL     1      12.318   4.086   9.269  1.00  0.00    -0.358 OA
HETATM   14  H   UNL     1      12.645   3.568   8.560  1.00  0.00     0.217 HD
ENDBRANCH   8  13
ENDBRANCH   4   5
ENDBRANCH   3   4
ENDBRANCH   1   3
BRANCH   1  15
HETATM   15  C10 UNL     1      13.801   6.014  16.804  1.00  0.00     0.218 C 
BRANCH  15  16
HETATM   16  O4  UNL     1      13.380   4.660  16.637  1.00  0.00    -0.385 OA
HETATM   17  H   UNL     1      14.032   4.183  16.099  1.00  0.00     0.210 HD
ENDBRANCH  15  16
BRANCH  15  18
HETATM   18  C11 UNL     1      14.546   6.211  18.140  1.00  0.00     0.177 C 
BRANCH  18  19
HETATM   19  O5  UNL     1      14.940   7.580  18.323  1.00  0.00    -0.390 OA
HETATM   20  H   UNL     1      15.177   7.727  19.252  1.00  0.00     0.210 HD
ENDBRANCH  18  19
BRANCH  18  21
HETATM   21  C12 UNL     1      13.655   5.848  19.335  1.00  0.00     0.198 C 
BRANCH  21  22
HETATM   22  O6  UNL     1      12.283   6.059  18.997  1.00  0.00    -0.398 OA
HETATM   23  H   UNL     1      11.963   5.315  18.461  1.00  0.00     0.209 HD
ENDBRANCH  21  22
ENDBRANCH  18  21
ENDBRANCH  15  18
ENDBRANCH   1  15
TORSDOF 11
ENDMDL
MODEL 8
REMARK VINA RESULT:      -6.3      2.360      3.774
REMARK  11 active torsions:
REMARK  status: ('A' for Active; 'I' for Inactive)
REMARK    1  A    between atoms: C1_1  and  C2_2 
REMARK    2  A    between atoms: C1_1  and  C10_13 
REMARK    3  A    between atoms: C2_2  and  C3_3 
REMARK    4  A    between atoms: C3_3  and  C4_4 
REMARK    5  A    between atoms: C6_6  and  O1_7 
REMARK    6  A    between atoms: C7_8  and  O2_9 
REMARK    7  A    between atoms: C10_13  and  O4_14 
REMARK    8  A    between atoms: C10_13  and  C11_15 
REMARK    9  A    between atoms: C11_15  and  O5_16 
REMARK   10  A    between atoms: C11_15  and  C12_17 
REMARK   11  A    between atoms: C12_17  and  O6_18 
ROOT
HETATM    1  C1  UNL     1      12.479   6.247  13.114  1.00  0.00     0.158 C 
HETATM    2  O3  UNL     1      12.214   7.098  12.260  1.00  0.00    -0.295 OA
ENDROOT
BRANCH   1   3
HETATM    3  C2  UNL     1      13.097   4.918  12.715  1.00  0.00     0.086 C 
BRANCH   3   4
HETATM    4  C3  UNL     1      13.874   4.975  11.402  1.00  0.00     0.046 C 
BRANCH   4   5
HETATM    5  C4  UNL     1      15.327   5.352  11.571  1.00  0.00    -0.055 A 
HETATM    6  C5  UNL     1      16.142   5.587  10.451  1.00  0.00     0.046 A 
HETATM    7  C6  UNL     1      17.480   5.922  10.633  1.00  0.00     0.099 A 
HETATM    8  C7  UNL     1      18.012   6.033  11.914  1.00  0.00     0.098 A 
HETATM    9  C8  UNL     1      17.223   5.809  13.030  1.00  0.00     0.040 A 
HETATM   10  C9  UNL     1      15.879   5.471  12.859  1.00  0.00     0.010 A 
BRANCH   7  11
HETATM   11  O1  UNL     1      18.316   6.155   9.576  1.00  0.00    -0.358 OA
HETATM   12  H   UNL     1      18.014   6.649   8.839  1.00  0.00     0.217 HD
ENDBRANCH   7  11
BRANCH   8  13
HETATM   13  O2  UNL     1      19.327   6.362  12.080  1.00  0.00    -0.358 OA
HETATM   14  H   UNL     1      19.622   6.711  12.898  1.00  0.00     0.217 HD
ENDBRANCH   8  13
ENDBRANCH   4   5
ENDBRANCH   3   4
ENDBRANCH   1   3
BRANCH   1  15
HETATM   15  C10 UNL     1      12.249   6.508  14.604  1.00  0.00     0.218 C 
BRANCH  15  16
HETATM   16  O4  UNL     1      11.407   5.473  15.112  1.00  0.00    -0.385 OA
HETATM   17  H   UNL     1      10.621   5.866  15.520  1.00  0.00     0.210 HD
ENDBRANCH  15  16
BRANCH  15  18
HETATM   18  C11 UNL     1      13.585   6.573  15.373  1.00  0.00     0.177 C 
BRANCH  18  19
HETATM   19  O5  UNL     1      14.191   7.871  15.260  1.00  0.00    -0.390 OA
HETATM   20  H   UNL     1      13.565   8.484  14.844  1.00  0.00     0.210 HD
ENDBRANCH  18  19
BRANCH  18  21
HETATM   21  C12 UNL     1      13.381   6.314  16.872  1.00  0.00     0.198 C 
BRANCH  21  22
HETATM   22  O6  UNL     1      12.167   6.930  17.308  1.00  0.00    -0.398 OA
HETATM   23  H   UNL     1      11.845   6.481  18.106  1.00  0.00     0.209 HD
ENDBRANCH  21  22
ENDBRANCH  18  21
ENDBRANCH  15  18
ENDBRANCH   1  15
TORSDOF 11
ENDMDL
MODEL 9
REMARK VINA RESULT:      -6.3      1.181      1.542
REMARK  11 active torsions:
REMARK  status: ('A' for Active; 'I' for Inactive)
REMARK    1  A    between atoms: C1_1  and  C2_2 
REMARK    2  A    between atoms: C1_1  and  C10_13 
REMARK    3  A    between atoms: C2_2  and  C3_3 
REMARK    4  A    between atoms: C3_3  and  C4_4 
REMARK    5  A    between atoms: C6_6  and  O1_7 
REMARK    6  A    between atoms: C7_8  and  O2_9 
REMARK    7  A    between atoms: C10_13  and  O4_14 
REMARK    8  A    between atoms: C10_13  and  C11_15 
REMARK    9  A    between atoms: C11_15  and  O5_16 
REMARK   10  A    between atoms: C11_15  and  C12_17 
REMARK   11  A    between atoms: C12_17  and  O6_18 
ROOT
HETATM    1  C1  UNL     1      15.067   6.558  15.352  1.00  0.00     0.158 C 
HETATM    2  O3  UNL     1      15.838   7.445  15.729  1.00  0.00    -0.295 OA
ENDROOT
BRANCH   1   3
HETATM    3  C2  UNL     1      15.593   5.340  14.612  1.00  0.00     0.086 C 
BRANCH   3   4
HETATM    4  C3  UNL     1      16.034   5.637  13.181  1.00  0.00     0.046 C 
BRANCH   4   5
HETATM    5  C4  UNL     1      15.020   5.234  12.137  1.00  0.00    -0.055 A 
HETATM    6  C5  UNL     1      13.713   4.875  12.506  1.00  0.00     0.046 A 
HETATM    7  C6  UNL     1      12.801   4.497  11.526  1.00  0.00     0.099 A 
HETATM    8  C7  UNL     1      13.172   4.479  10.186  1.00  0.00     0.098 A 
HETATM    9  C8  UNL     1      14.455   4.834   9.802  1.00  0.00     0.040 A 
HETATM   10  C9  UNL     1      15.379   5.214  10.777  1.00  0.00     0.010 A 
BRANCH   7  11
HETATM   11  O1  UNL     1      11.519   4.133  11.835  1.00  0.00    -0.358 OA
HETATM   12  H   UNL     1      10.806   4.433  11.305  1.00  0.00     0.217 HD
ENDBRANCH   7  11
BRANCH   8  13
HETATM   13  O2  UNL     1      12.269   4.106   9.232  1.00  0.00    -0.358 OA
HETATM   14  H   UNL     1      11.677   4.739   8.875  1.00  0.00     0.217 HD
ENDBRANCH   8  13
ENDBRANCH   4   5
ENDBRANCH   3   4
ENDBRANCH   1   3
BRANCH   1  15
HETATM   15  C10 UNL     1      13.568   6.616  15.656  1.00  0.00     0.218 C 
BRANCH  15  16
HETATM   16  O4  UNL     1      13.408   6.778  17.066  1.00  0.00    -0.385 OA
HETATM   17  H   UNL     1      14.206   6.465  17.520  1.00  0.00     0.210 HD
ENDBRANCH  15  16
BRANCH  15  18
HETATM   18  C11 UNL     1      12.883   7.758  14.878  1.00  0.00     0.177 C 
BRANCH  18  19
HETATM   19  O5  UNL     1      13.664   8.158  13.741  1.00  0.00    -0.390 OA
HETATM   20  H   UNL     1      13.525   9.103  13.569  1.00  0.00     0.210 HD
ENDBRANCH  18  19
BRANCH  18  21
HETATM   21  C12 UNL     1      11.514   7.323  14.338  1.00  0.00     0.198 C 
BRANCH  21  22
HETATM   22  O6  UNL     1      11.140   6.072  14.919  1.00  0.00    -0.398 OA
HETATM   23  H   UNL     1      10.340   6.191  15.456  1.00  0.00     0.209 HD
ENDBRANCH  21  22
ENDBRANCH  18  21
ENDBRANCH  15  18
ENDBRANCH   1  15
TORSDOF 11
ENDMDL
