MODEL 1
REMARK VINA RESULT:      -6.7      0.000      0.000
REMARK  11 active torsions:
REMARK  status: ('A' for Active; 'I' for Inactive)
REMARK    1  A    between atoms: C1_1  and  C2_2 
REMARK    2  A    between atoms: C1_1  and  C10_13 
REMARK    3  A    between atoms: C2_2  and  C3_3 
REMARK    4  A    between atoms: C3_3  and  C4_4 
REMARK    5  A    between atoms: C6_6  and  O1_7 
REMARK    6  A    between atoms: C7_8  and  O2_9 
REMARK    7  A    between atoms: C10_13  and  O4_14 
REMARK    8  A    between atoms: C10_13  and  C11_15 
REMARK    9  A    between atoms: C11_15  and  O5_16 
REMARK   10  A    between atoms: C11_15  and  C12_17 
REMARK   11  A    between atoms: C12_17  and  O6_18 
ROOT
HETATM    1  C1  UNL     1      12.197   7.247  13.428  1.00  0.00     0.158 C 
HETATM    2  O3  UNL     1      13.045   7.309  14.323  1.00  0.00    -0.295 OA
ENDROOT
BRANCH   1   3
HETATM    3  C2  UNL     1      12.297   6.192  12.340  1.00  0.00     0.086 C 
BRANCH   3   4
HETATM    4  C3  UNL     1      13.372   6.490  11.297  1.00  0.00     0.046 C 
BRANCH   4   5
HETATM    5  C4  UNL     1      12.838   6.601   9.889  1.00  0.00    -0.055 A 
HETATM    6  C5  UNL     1      11.475   6.392   9.619  1.00  0.00     0.046 A 
HETATM    7  C6  UNL     1      11.009   6.490   8.312  1.00  0.00     0.099 A 
HETATM    8  C7  UNL     1      11.882   6.800   7.274  1.00  0.00     0.098 A 
HETATM    9  C8  UNL     1      13.228   7.015   7.521  1.00  0.00     0.040 A 
HETATM   10  C9  UNL     1      13.706   6.918   8.828  1.00  0.00     0.010 A 
BRANCH   7  11
HETATM   11  O1  UNL     1       9.693   6.288   7.997  1.00  0.00    -0.358 OA
HETATM   12  H   UNL     1       9.395   6.427   7.119  1.00  0.00     0.217 HD
ENDBRANCH   7  11
BRANCH   8  13
HETATM   13  O2  UNL     1      11.414   6.893   5.994  1.00  0.00    -0.358 OA
HETATM   14  H   UNL     1      11.923   7.329   5.340  1.00  0.00     0.217 HD
ENDBRANCH   8  13
ENDBRANCH   4   5
ENDBRANCH   3   4
ENDBRANCH   1   3
BRANCH   1  15
HETATM   15  C10 UNL     1      10.987   8.184  13.405  1.00  0.00     0.218 C 
BRANCH  15  16
HETATM   16  O4  UNL     1      10.568   8.399  14.753  1.00  0.00    -0.385 OA
HETATM   17  H   UNL     1       9.709   7.971  14.897  1.00  0.00     0.210 HD
ENDBRANCH  15  16
BRANCH  15  18
HETATM   18  C11 UNL     1      11.324   9.515  12.702  1.00  0.00     0.177 C 
BRANCH  18  19
HETATM   19  O5  UNL     1      12.742   9.741  12.663  1.00  0.00    -0.390 OA
HETATM   20  H   UNL     1      13.170   9.232  13.370  1.00  0.00     0.210 HD
ENDBRANCH  18  19
BRANCH  18  21
HETATM   21  C12 UNL     1      10.841   9.515  11.246  1.00  0.00     0.198 C 
BRANCH  21  22
HETATM   22  O6  UNL     1       9.730   8.627  11.104  1.00  0.00    -0.398 OA
HETATM   23  H   UNL     1       8.967   8.985  11.584  1.00  0.00     0.209 HD
ENDBRANCH  21  22
ENDBRANCH  18  21
ENDBRANCH  15  18
ENDBRANCH   1  15
TORSDOF 11
ENDMDL
MODEL 2
REMARK VINA RESULT:      -6.5      2.736      5.212
REMARK  11 active torsions:
REMARK  status: ('A' for Active; 'I' for Inactive)
REMARK    1  A    between atoms: C1_1  and  C2_2 
REMARK    2  A    between atoms: C1_1  and  C10_13 
REMARK    3  A    between atoms: C2_2  and  C3_3 
REMARK    4  A    between atoms: C3_3  and  C4_4 
REMARK    5  A    between atoms: C6_6  and  O1_7 
REMARK    6  A    between atoms: C7_8  and  O2_9 
REMARK    7  A    between atoms: C10_13  and  O4_14 
REMARK    8  A    between atoms: C10_13  and  C11_15 
REMARK    9  A    between atoms: C11_15  and  O5_16 
REMARK   10  A    between atoms: C11_15  and  C12_17 
REMARK   11  A    between atoms: C12_17  and  O6_18 
ROOT
HETATM    1  C1  UNL     1      10.947   7.557   9.428  1.00  0.00     0.158 C 
HETATM    2  O3  UNL     1       9.917   8.120   9.811  1.00  0.00    -0.295 OA
ENDROOT
BRANCH   1   3
HETATM    3  C2  UNL     1      12.308   8.022   9.914  1.00  0.00     0.086 C 
BRANCH   3   4
HETATM    4  C3  UNL     1      13.227   6.881  10.343  1.00  0.00     0.046 C 
BRANCH   4   5
HETATM    5  C4  UNL     1      14.555   6.866   9.622  1.00  0.00    -0.055 A 
HETATM    6  C5  UNL     1      14.637   7.209   8.262  1.00  0.00     0.046 A 
HETATM    7  C6  UNL     1      15.869   7.177   7.618  1.00  0.00     0.099 A 
HETATM    8  C7  UNL     1      17.019   6.814   8.312  1.00  0.00     0.098 A 
HETATM    9  C8  UNL     1      16.958   6.477   9.654  1.00  0.00     0.040 A 
HETATM   10  C9  UNL     1      15.727   6.505  10.310  1.00  0.00     0.010 A 
BRANCH   7  11
HETATM   11  O1  UNL     1      16.000   7.496   6.294  1.00  0.00    -0.358 OA
HETATM   12  H   UNL     1      16.770   7.240   5.825  1.00  0.00     0.217 HD
ENDBRANCH   7  11
BRANCH   8  13
HETATM   13  O2  UNL     1      18.223   6.785   7.669  1.00  0.00    -0.358 OA
HETATM   14  H   UNL     1      19.005   6.587   8.147  1.00  0.00     0.217 HD
ENDBRANCH   8  13
ENDBRANCH   4   5
ENDBRANCH   3   4
ENDBRANCH   1   3
BRANCH   1  15
HETATM   15  C10 UNL     1      10.897   6.341   8.499  1.00  0.00     0.218 C 
BRANCH  15  16
HETATM   16  O4  UNL     1       9.886   5.456   8.982  1.00  0.00    -0.385 OA
HETATM   17  H   UNL     1      10.295   4.768   9.532  1.00  0.00     0.210 HD
ENDBRANCH  15  16
BRANCH  15  18
HETATM   18  C11 UNL     1      10.624   6.763   7.040  1.00  0.00     0.177 C 
BRANCH  18  19
HETATM   19  O5  UNL     1      11.681   7.591   6.529  1.00  0.00    -0.390 OA
HETATM   20  H   UNL     1      11.682   7.552   5.560  1.00  0.00     0.210 HD
ENDBRANCH  18  19
BRANCH  18  21
HETATM   21  C12 UNL     1      10.536   5.543   6.114  1.00  0.00     0.198 C 
BRANCH  21  22
HETATM   22  O6  UNL     1      11.463   5.687   5.036  1.00  0.00    -0.398 OA
HETATM   23  H   UNL     1      11.127   6.343   4.405  1.00  0.00     0.209 HD
ENDBRANCH  21  22
ENDBRANCH  18  21
ENDBRANCH  15  18
ENDBRANCH   1  15
TORSDOF 11
ENDMDL
MODEL 3
REMARK VINA RESULT:      -6.4      1.463      5.866
REMARK  11 active torsions:
REMARK  status: ('A' for Active; 'I' for Inactive)
REMARK    1  A    between atoms: C1_1  and  C2_2 
REMARK    2  A    between atoms: C1_1  and  C10_13 
REMARK    3  A    between atoms: C2_2  and  C3_3 
REMARK    4  A    between atoms: C3_3  and  C4_4 
REMARK    5  A    between atoms: C6_6  and  O1_7 
REMARK    6  A    between atoms: C7_8  and  O2_9 
REMARK    7  A    between atoms: C10_13  and  O4_14 
REMARK    8  A    between atoms: C10_13  and  C11_15 
REMARK    9  A    between atoms: C11_15  and  O5_16 
REMARK   10  A    between atoms: C11_15  and  C12_17 
REMARK   11  A    between atoms: C12_17  and  O6_18 
ROOT
HETATM    1  C1  UNL     1      13.398   7.028   7.845  1.00  0.00     0.158 C 
HETATM    2  O3  UNL     1      14.104   6.798   6.858  1.00  0.00    -0.295 OA
ENDROOT
BRANCH   1   3
HETATM    3  C2  UNL     1      13.963   6.890   9.248  1.00  0.00     0.086 C 
BRANCH   3   4
HETATM    4  C3  UNL     1      14.025   8.208  10.015  1.00  0.00     0.046 C 
BRANCH   4   5
HETATM    5  C4  UNL     1      13.084   8.269  11.196  1.00  0.00    -0.055 A 
HETATM    6  C5  UNL     1      13.140   7.297  12.209  1.00  0.00     0.046 A 
HETATM    7  C6  UNL     1      12.256   7.370  13.280  1.00  0.00     0.099 A 
HETATM    8  C7  UNL     1      11.323   8.399  13.357  1.00  0.00     0.098 A 
HETATM    9  C8  UNL     1      11.257   9.369  12.370  1.00  0.00     0.040 A 
HETATM   10  C9  UNL     1      12.138   9.305  11.291  1.00  0.00     0.010 A 
BRANCH   7  11
HETATM   11  O1  UNL     1      12.265   6.445  14.288  1.00  0.00    -0.358 OA
HETATM   12  H   UNL     1      11.516   5.901  14.432  1.00  0.00     0.217 HD
ENDBRANCH   7  11
BRANCH   8  13
HETATM   13  O2  UNL     1      10.460   8.460  14.413  1.00  0.00    -0.358 OA
HETATM   14  H   UNL     1       9.874   9.187  14.498  1.00  0.00     0.217 HD
ENDBRANCH   8  13
ENDBRANCH   4   5
ENDBRANCH   3   4
ENDBRANCH   1   3
BRANCH   1  15
HETATM   15  C10 UNL     1      11.953   7.510   7.701  1.00  0.00     0.218 C 
BRANCH  15  16
HETATM   16  O4  UNL     1      11.900   8.433   6.613  1.00  0.00    -0.385 OA
HETATM   17  H   UNL     1      12.601   9.096   6.717  1.00  0.00     0.210 HD
ENDBRANCH  15  16
BRANCH  15  18
HETATM   18  C11 UNL     1      10.987   6.327   7.482  1.00  0.00     0.177 C 
BRANCH  18  19
HETATM   19  O5  UNL     1       9.807   6.458   8.291  1.00  0.00    -0.390 OA
HETATM   20  H   UNL     1       9.543   5.585   8.620  1.00  0.00     0.210 HD
ENDBRANCH  18  19
BRANCH  18  21
HETATM   21  C12 UNL     1      10.513   6.256   6.024  1.00  0.00     0.198 C 
BRANCH  21  22
HETATM   22  O6  UNL     1      11.588   5.825   5.186  1.00  0.00    -0.398 OA
HETATM   23  H   UNL     1      11.292   5.809   4.263  1.00  0.00     0.209 HD
ENDBRANCH  21  22
ENDBRANCH  18  21
ENDBRANCH  15  18
ENDBRANCH   1  15
TORSDOF 11
ENDMDL
MODEL 4
REMARK VINA RESULT:      -6.4      1.632      2.187
REMARK  11 active torsions:
REMARK  status: ('A' for Active; 'I' for Inactive)
REMARK    1  A    between atoms: C1_1  and  C2_2 
REMARK    2  A    between atoms: C1_1  and  C10_13 
REMARK    3  A    between atoms: C2_2  and  C3_3 
REMARK    4  A    between atoms: C3_3  and  C4_4 
REMARK    5  A    between atoms: C6_6  and  O1_7 
REMARK    6  A    between atoms: C7_8  and  O2_9 
REMARK    7  A    between atoms: C10_13  and  O4_14 
REMARK    8  A    between atoms: C10_13  and  C11_15 
REMARK    9  A    between atoms: C11_15  and  O5_16 
REMARK   10  A    between atoms: C11_15  and  C12_17 
REMARK   11  A    between atoms: C12_17  and  O6_18 
ROOT
HETATM    1  C1  UNL     1      12.140   7.353  13.143  1.00  0.00     0.158 C 
HETATM    2  O3  UNL     1      12.869   7.326  14.139  1.00  0.00    -0.295 OA
ENDROOT
BRANCH   1   3
HETATM    3  C2  UNL     1      12.477   6.525  11.915  1.00  0.00     0.086 C 
BRANCH   3   4
HETATM    4  C3  UNL     1      13.973   6.282  11.733  1.00  0.00     0.046 C 
BRANCH   4   5
HETATM    5  C4  UNL     1      14.480   6.617  10.351  1.00  0.00    -0.055 A 
HETATM    6  C5  UNL     1      13.585   6.816   9.287  1.00  0.00     0.046 A 
HETATM    7  C6  UNL     1      14.077   7.113   8.020  1.00  0.00     0.099 A 
HETATM    8  C7  UNL     1      15.447   7.221   7.803  1.00  0.00     0.098 A 
HETATM    9  C8  UNL     1      16.345   7.033   8.841  1.00  0.00     0.040 A 
HETATM   10  C9  UNL     1      15.861   6.733  10.115  1.00  0.00     0.010 A 
BRANCH   7  11
HETATM   11  O1  UNL     1      13.247   7.309   6.950  1.00  0.00    -0.358 OA
HETATM   12  H   UNL     1      12.810   8.131   6.840  1.00  0.00     0.217 HD
ENDBRANCH   7  11
BRANCH   8  13
HETATM   13  O2  UNL     1      15.919   7.513   6.555  1.00  0.00    -0.358 OA
HETATM   14  H   UNL     1      16.003   6.834   5.915  1.00  0.00     0.217 HD
ENDBRANCH   8  13
ENDBRANCH   4   5
ENDBRANCH   3   4
ENDBRANCH   1   3
BRANCH   1  15
HETATM   15  C10 UNL     1      10.846   8.171  13.119  1.00  0.00     0.218 C 
BRANCH  15  16
HETATM   16  O4  UNL     1      10.365   8.278  14.459  1.00  0.00    -0.385 OA
HETATM   17  H   UNL     1       9.818   7.505  14.669  1.00  0.00     0.210 HD
ENDBRANCH  15  16
BRANCH  15  18
HETATM   18  C11 UNL     1      11.076   9.562  12.492  1.00  0.00     0.177 C 
BRANCH  18  19
HETATM   19  O5  UNL     1      12.440   9.985  12.641  1.00  0.00    -0.390 OA
HETATM   20  H   UNL     1      12.562  10.380  13.519  1.00  0.00     0.210 HD
ENDBRANCH  18  19
BRANCH  18  21
HETATM   21  C12 UNL     1      10.783   9.551  10.985  1.00  0.00     0.198 C 
BRANCH  21  22
HETATM   22  O6  UNL     1       9.792   8.563  10.693  1.00  0.00    -0.398 OA
HETATM   23  H   UNL     1       9.183   8.484  11.443  1.00  0.00     0.209 HD
ENDBRANCH  21  22
ENDBRANCH  18  21
ENDBRANCH  15  18
ENDBRANCH   1  15
TORSDOF 11
ENDMDL
MODEL 5
REMARK VINA RESULT:      -6.4      1.449      6.047
REMARK  11 active torsions:
REMARK  status: ('A' for Active; 'I' for Inactive)
REMARK    1  A    between atoms: C1_1  and  C2_2 
REMARK    2  A    between atoms: C1_1  and  C10_13 
REMARK    3  A    between atoms: C2_2  and  C3_3 
REMARK    4  A    between atoms: C3_3  and  C4_4 
REMARK    5  A    between atoms: C6_6  and  O1_7 
REMARK    6  A    between atoms: C7_8  and  O2_9 
REMARK    7  A    between atoms: C10_13  and  O4_14 
REMARK    8  A    between atoms: C10_13  and  C11_15 
REMARK    9  A    between atoms: C11_15  and  O5_16 
REMARK   10  A    between atoms: C11_15  and  C12_17 
REMARK   11  A    between atoms: C12_17  and  O6_18 
ROOT
HETATM    1  C1  UNL     1      12.277   6.949   7.743  1.00  0.00     0.158 C 
HETATM    2  O3  UNL     1      13.063   6.878   6.793  1.00  0.00    -0.295 OA
ENDROOT
BRANCH   1   3
HETATM    3  C2  UNL     1      12.618   7.781   8.967  1.00  0.00     0.086 C 
BRANCH   3   4
HETATM    4  C3  UNL     1      13.306   6.987  10.075  1.00  0.00     0.046 C 
BRANCH   4   5
HETATM    5  C4  UNL     1      12.733   7.240  11.449  1.00  0.00    -0.055 A 
HETATM    6  C5  UNL     1      11.497   7.891  11.603  1.00  0.00     0.046 A 
HETATM    7  C6  UNL     1      10.996   8.122  12.880  1.00  0.00     0.099 A 
HETATM    8  C7  UNL     1      11.705   7.706  14.002  1.00  0.00     0.098 A 
HETATM    9  C8  UNL     1      12.922   7.058  13.870  1.00  0.00     0.040 A 
HETATM   10  C9  UNL     1      13.435   6.823  12.594  1.00  0.00     0.010 A 
BRANCH   7  11
HETATM   11  O1  UNL     1       9.802   8.757  13.083  1.00  0.00    -0.358 OA
HETATM   12  H   UNL     1       9.003   8.268  13.073  1.00  0.00     0.217 HD
ENDBRANCH   7  11
BRANCH   8  13
HETATM   13  O2  UNL     1      11.204   7.938  15.251  1.00  0.00    -0.358 OA
HETATM   14  H   UNL     1      11.738   7.789  16.006  1.00  0.00     0.217 HD
ENDBRANCH   8  13
ENDBRANCH   4   5
ENDBRANCH   3   4
ENDBRANCH   1   3
BRANCH   1  15
HETATM   15  C10 UNL     1      10.915   6.254   7.710  1.00  0.00     0.218 C 
BRANCH  15  16
HETATM   16  O4  UNL     1      10.031   6.969   8.574  1.00  0.00    -0.385 OA
HETATM   17  H   UNL     1       9.447   6.342   9.030  1.00  0.00     0.210 HD
ENDBRANCH  15  16
BRANCH  15  18
HETATM   18  C11 UNL     1      10.358   6.182   6.272  1.00  0.00     0.177 C 
BRANCH  18  19
HETATM   19  O5  UNL     1      10.672   7.371   5.530  1.00  0.00    -0.390 OA
HETATM   20  H   UNL     1      11.541   7.704   5.805  1.00  0.00     0.210 HD
ENDBRANCH  18  19
BRANCH  18  21
HETATM   21  C12 UNL     1      10.968   5.007   5.496  1.00  0.00     0.198 C 
BRANCH  21  22
HETATM   22  O6  UNL     1      12.031   5.476   4.664  1.00  0.00    -0.398 OA
HETATM   23  H   UNL     1      11.828   6.374   4.356  1.00  0.00     0.209 HD
ENDBRANCH  21  22
ENDBRANCH  18  21
ENDBRANCH  15  18
ENDBRANCH   1  15
TORSDOF 11
ENDMDL
MODEL 6
REMARK VINA RESULT:      -6.3      2.587      4.066
REMARK  11 active torsions:
REMARK  status: ('A' for Active; 'I' for Inactive)
REMARK    1  A    between atoms: C1_1  and  C2_2 
REMARK    2  A    between atoms: C1_1  and  C10_13 
REMARK    3  A    between atoms: C2_2  and  C3_3 
REMARK    4  A    between atoms: C3_3  and  C4_4 
REMARK    5  A    between atoms: C6_6  and  O1_7 
REMARK    6  A    between atoms: C7_8  and  O2_9 
REMARK    7  A    between atoms: C10_13  and  O4_14 
REMARK    8  A    between atoms: C10_13  and  C11_15 
REMARK    9  A    between atoms: C11_15  and  O5_16 
REMARK   10  A    between atoms: C11_15  and  C12_17 
REMARK   11  A    between atoms: C12_17  and  O6_18 
ROOT
HETATM    1  C1  UNL     1      11.430   8.718  10.928  1.00  0.00     0.158 C 
HETATM    2  O3  UNL     1      10.290   9.165  10.768  1.00  0.00    -0.295 OA
ENDROOT
BRANCH   1   3
HETATM    3  C2  UNL     1      12.194   8.117   9.761  1.00  0.00     0.086 C 
BRANCH   3   4
HETATM    4  C3  UNL     1      13.048   6.911  10.145  1.00  0.00     0.046 C 
BRANCH   4   5
HETATM    5  C4  UNL     1      14.407   6.893   9.485  1.00  0.00    -0.055 A 
HETATM    6  C5  UNL     1      14.548   7.217   8.126  1.00  0.00     0.046 A 
HETATM    7  C6  UNL     1      15.809   7.182   7.538  1.00  0.00     0.099 A 
HETATM    8  C7  UNL     1      16.928   6.837   8.290  1.00  0.00     0.098 A 
HETATM    9  C8  UNL     1      16.808   6.519   9.632  1.00  0.00     0.040 A 
HETATM   10  C9  UNL     1      15.548   6.550  10.231  1.00  0.00     0.010 A 
BRANCH   7  11
HETATM   11  O1  UNL     1      15.999   7.483   6.217  1.00  0.00    -0.358 OA
HETATM   12  H   UNL     1      16.155   8.369   5.956  1.00  0.00     0.217 HD
ENDBRANCH   7  11
BRANCH   8  13
HETATM   13  O2  UNL     1      18.161   6.806   7.703  1.00  0.00    -0.358 OA
HETATM   14  H   UNL     1      18.839   7.376   8.008  1.00  0.00     0.217 HD
ENDBRANCH   8  13
ENDBRANCH   4   5
ENDBRANCH   3   4
ENDBRANCH   1   3
BRANCH   1  15
HETATM   15  C10 UNL     1      12.140   8.798  12.281  1.00  0.00     0.218 C 
BRANCH  15  16
HETATM   16  O4  UNL     1      12.378  10.175  12.575  1.00  0.00    -0.385 OA
HETATM   17  H   UNL     1      12.171  10.347  13.507  1.00  0.00     0.210 HD
ENDBRANCH  15  16
BRANCH  15  18
HETATM   18  C11 UNL     1      11.308   8.122  13.390  1.00  0.00     0.177 C 
BRANCH  18  19
HETATM   19  O5  UNL     1      10.313   7.246  12.837  1.00  0.00    -0.390 OA
HETATM   20  H   UNL     1      10.298   7.343  11.872  1.00  0.00     0.210 HD
ENDBRANCH  18  19
BRANCH  18  21
HETATM   21  C12 UNL     1      12.190   7.261  14.304  1.00  0.00     0.198 C 
BRANCH  21  22
HETATM   22  O6  UNL     1      11.782   7.424  15.664  1.00  0.00    -0.398 OA
HETATM   23  H   UNL     1      12.256   6.788  16.222  1.00  0.00     0.209 HD
ENDBRANCH  21  22
ENDBRANCH  18  21
ENDBRANCH  15  18
ENDBRANCH   1  15
TORSDOF 11
ENDMDL
MODEL 7
REMARK VINA RESULT:      -6.3      1.899      3.267
REMARK  11 active torsions:
REMARK  status: ('A' for Active; 'I' for Inactive)
REMARK    1  A    between atoms: C1_1  and  C2_2 
REMARK    2  A    between atoms: C1_1  and  C10_13 
REMARK    3  A    between atoms: C2_2  and  C3_3 
REMARK    4  A    between atoms: C3_3  and  C4_4 
REMARK    5  A    between atoms: C6_6  and  O1_7 
REMARK    6  A    between atoms: C7_8  and  O2_9 
REMARK    7  A    between atoms: C10_13  and  O4_14 
REMARK    8  A    between atoms: C10_13  and  C11_15 
REMARK    9  A    between atoms: C11_15  and  O5_16 
REMARK   10  A    between atoms: C11_15  and  C12_17 
REMARK   11  A    between atoms: C12_17  and  O6_18 
ROOT
HETATM    1  C1  UNL     1      13.728   6.695  13.487  1.00  0.00     0.158 C 
HETATM    2  O3  UNL     1      13.915   7.915  13.430  1.00  0.00    -0.295 OA
ENDROOT
BRANCH   1   3
HETATM    3  C2  UNL     1      13.544   5.882  12.218  1.00  0.00     0.086 C 
BRANCH   3   4
HETATM    4  C3  UNL     1      14.041   6.589  10.959  1.00  0.00     0.046 C 
BRANCH   4   5
HETATM    5  C4  UNL     1      12.997   6.704   9.873  1.00  0.00    -0.055 A 
HETATM    6  C5  UNL     1      11.630   6.602  10.179  1.00  0.00     0.046 A 
HETATM    7  C6  UNL     1      10.688   6.701   9.160  1.00  0.00     0.099 A 
HETATM    8  C7  UNL     1      11.091   6.906   7.844  1.00  0.00     0.098 A 
HETATM    9  C8  UNL     1      12.435   7.013   7.525  1.00  0.00     0.040 A 
HETATM   10  C9  UNL     1      13.388   6.915   8.539  1.00  0.00     0.010 A 
BRANCH   7  11
HETATM   11  O1  UNL     1       9.346   6.602   9.405  1.00  0.00    -0.358 OA
HETATM   12  H   UNL     1       8.746   7.177   8.970  1.00  0.00     0.217 HD
ENDBRANCH   7  11
BRANCH   8  13
HETATM   13  O2  UNL     1      10.158   7.000   6.852  1.00  0.00    -0.358 OA
HETATM   14  H   UNL     1       9.792   6.224   6.477  1.00  0.00     0.217 HD
ENDBRANCH   8  13
ENDBRANCH   4   5
ENDBRANCH   3   4
ENDBRANCH   1   3
BRANCH   1  15
HETATM   15  C10 UNL     1      13.730   5.946  14.821  1.00  0.00     0.218 C 
BRANCH  15  16
HETATM   16  O4  UNL     1      15.085   5.653  15.163  1.00  0.00    -0.385 OA
HETATM   17  H   UNL     1      15.440   4.996  14.544  1.00  0.00     0.210 HD
ENDBRANCH  15  16
BRANCH  15  18
HETATM   18  C11 UNL     1      13.037   6.770  15.926  1.00  0.00     0.177 C 
BRANCH  18  19
HETATM   19  O5  UNL     1      11.837   7.393  15.439  1.00  0.00    -0.390 OA
HETATM   20  H   UNL     1      11.066   6.891  15.746  1.00  0.00     0.210 HD
ENDBRANCH  18  19
BRANCH  18  21
HETATM   21  C12 UNL     1      12.622   5.883  17.107  1.00  0.00     0.198 C 
BRANCH  21  22
HETATM   22  O6  UNL     1      11.296   6.218  17.521  1.00  0.00    -0.398 OA
HETATM   23  H   UNL     1      10.728   6.313  16.741  1.00  0.00     0.209 HD
ENDBRANCH  21  22
ENDBRANCH  18  21
ENDBRANCH  15  18
ENDBRANCH   1  15
TORSDOF 11
ENDMDL
MODEL 8
REMARK VINA RESULT:      -6.3      1.263      1.920
REMARK  11 active torsions:
REMARK  status: ('A' for Active; 'I' for Inactive)
REMARK    1  A    between atoms: C1_1  and  C2_2 
REMARK    2  A    between atoms: C1_1  and  C10_13 
REMARK    3  A    between atoms: C2_2  and  C3_3 
REMARK    4  A    between atoms: C3_3  and  C4_4 
REMARK    5  A    between atoms: C6_6  and  O1_7 
REMARK    6  A    between atoms: C7_8  and  O2_9 
REMARK    7  A    between atoms: C10_13  and  O4_14 
REMARK    8  A    between atoms: C10_13  and  C11_15 
REMARK    9  A    between atoms: C11_15  and  O5_16 
REMARK   10  A    between atoms: C11_15  and  C12_17 
REMARK   11  A    between atoms: C12_17  and  O6_18 
ROOT
HETATM    1  C1  UNL     1      14.151   7.909  12.394  1.00  0.00     0.158 C 
HETATM    2  O3  UNL     1      14.573   7.143  13.266  1.00  0.00    -0.295 OA
ENDROOT
BRANCH   1   3
HETATM    3  C2  UNL     1      14.764   7.911  11.005  1.00  0.00     0.086 C 
BRANCH   3   4
HETATM    4  C3  UNL     1      14.491   6.634  10.213  1.00  0.00     0.046 C 
BRANCH   4   5
HETATM    5  C4  UNL     1      13.296   6.731   9.295  1.00  0.00    -0.055 A 
HETATM    6  C5  UNL     1      11.994   6.555   9.791  1.00  0.00     0.046 A 
HETATM    7  C6  UNL     1      10.910   6.639   8.923  1.00  0.00     0.099 A 
HETATM    8  C7  UNL     1      11.107   6.903   7.571  1.00  0.00     0.098 A 
HETATM    9  C8  UNL     1      12.384   7.084   7.065  1.00  0.00     0.040 A 
HETATM   10  C9  UNL     1      13.478   7.001   7.927  1.00  0.00     0.010 A 
BRANCH   7  11
HETATM   11  O1  UNL     1       9.623   6.469   9.356  1.00  0.00    -0.358 OA
HETATM   12  H   UNL     1       8.957   6.202   8.752  1.00  0.00     0.217 HD
ENDBRANCH   7  11
BRANCH   8  13
HETATM   13  O2  UNL     1      10.036   6.982   6.728  1.00  0.00    -0.358 OA
HETATM   14  H   UNL     1       9.167   6.878   7.063  1.00  0.00     0.217 HD
ENDBRANCH   8  13
ENDBRANCH   4   5
ENDBRANCH   3   4
ENDBRANCH   1   3
BRANCH   1  15
HETATM   15  C10 UNL     1      12.967   8.843  12.654  1.00  0.00     0.218 C 
BRANCH  15  16
HETATM   16  O4  UNL     1      12.707   9.572  11.454  1.00  0.00    -0.385 OA
HETATM   17  H   UNL     1      13.314   9.276  10.758  1.00  0.00     0.210 HD
ENDBRANCH  15  16
BRANCH  15  18
HETATM   18  C11 UNL     1      11.723   8.054  13.113  1.00  0.00     0.177 C 
BRANCH  18  19
HETATM   19  O5  UNL     1      11.790   7.740  14.513  1.00  0.00    -0.390 OA
HETATM   20  H   UNL     1      11.021   8.119  14.966  1.00  0.00     0.210 HD
ENDBRANCH  18  19
BRANCH  18  21
HETATM   21  C12 UNL     1      10.438   8.868  12.907  1.00  0.00     0.198 C 
BRANCH  21  22
HETATM   22  O6  UNL     1       9.900   8.604  11.610  1.00  0.00    -0.398 OA
HETATM   23  H   UNL     1       9.641   7.671  11.551  1.00  0.00     0.209 HD
ENDBRANCH  21  22
ENDBRANCH  18  21
ENDBRANCH  15  18
ENDBRANCH   1  15
TORSDOF 11
ENDMDL
MODEL 9
REMARK VINA RESULT:      -6.3      1.436      2.551
REMARK  11 active torsions:
REMARK  status: ('A' for Active; 'I' for Inactive)
REMARK    1  A    between atoms: C1_1  and  C2_2 
REMARK    2  A    between atoms: C1_1  and  C10_13 
REMARK    3  A    between atoms: C2_2  and  C3_3 
REMARK    4  A    between atoms: C3_3  and  C4_4 
REMARK    5  A    between atoms: C6_6  and  O1_7 
REMARK    6  A    between atoms: C7_8  and  O2_9 
REMARK    7  A    between atoms: C10_13  and  O4_14 
REMARK    8  A    between atoms: C10_13  and  C11_15 
REMARK    9  A    between atoms: C11_15  and  O5_16 
REMARK   10  A    between atoms: C11_15  and  C12_17 
REMARK   11  A    between atoms: C12_17  and  O6_18 
ROOT
HETATM    1  C1  UNL     1      11.253   9.241  12.366  1.00  0.00     0.158 C 
HETATM    2  O3  UNL     1      11.492  10.424  12.628  1.00  0.00    -0.295 OA
ENDROOT
BRANCH   1   3
HETATM    3  C2  UNL     1      11.033   8.796  10.931  1.00  0.00     0.086 C 
BRANCH   3   4
HETATM    4  C3  UNL     1      12.327   8.577  10.152  1.00  0.00     0.046 C 
BRANCH   4   5
HETATM    5  C4  UNL     1      12.145   7.783   8.880  1.00  0.00    -0.055 A 
HETATM    6  C5  UNL     1      10.897   7.226   8.555  1.00  0.00     0.046 A 
HETATM    7  C6  UNL     1      10.757   6.490   7.383  1.00  0.00     0.099 A 
HETATM    8  C7  UNL     1      11.842   6.308   6.530  1.00  0.00     0.098 A 
HETATM    9  C8  UNL     1      13.079   6.854   6.832  1.00  0.00     0.040 A 
HETATM   10  C9  UNL     1      13.230   7.593   8.006  1.00  0.00     0.010 A 
BRANCH   7  11
HETATM   11  O1  UNL     1       9.566   5.922   7.024  1.00  0.00    -0.358 OA
HETATM   12  H   UNL     1       9.249   5.168   7.482  1.00  0.00     0.217 HD
ENDBRANCH   7  11
BRANCH   8  13
HETATM   13  O2  UNL     1      11.693   5.583   5.383  1.00  0.00    -0.358 OA
HETATM   14  H   UNL     1      10.839   5.322   5.101  1.00  0.00     0.217 HD
ENDBRANCH   8  13
ENDBRANCH   4   5
ENDBRANCH   3   4
ENDBRANCH   1   3
BRANCH   1  15
HETATM   15  C10 UNL     1      11.223   8.169  13.458  1.00  0.00     0.218 C 
BRANCH  15  16
HETATM   16  O4  UNL     1      10.172   7.252  13.150  1.00  0.00    -0.385 OA
HETATM   17  H   UNL     1       9.509   7.272  13.858  1.00  0.00     0.210 HD
ENDBRANCH  15  16
BRANCH  15  18
HETATM   18  C11 UNL     1      12.582   7.448  13.572  1.00  0.00     0.177 C 
BRANCH  18  19
HETATM   19  O5  UNL     1      13.675   8.358  13.366  1.00  0.00    -0.390 OA
HETATM   20  H   UNL     1      14.443   8.061  13.880  1.00  0.00     0.210 HD
ENDBRANCH  18  19
BRANCH  18  21
HETATM   21  C12 UNL     1      12.776   6.839  14.967  1.00  0.00     0.198 C 
BRANCH  21  22
HETATM   22  O6  UNL     1      11.768   7.329  15.853  1.00  0.00    -0.398 OA
HETATM   23  H   UNL     1      10.896   7.228  15.439  1.00  0.00     0.209 HD
ENDBRANCH  21  22
ENDBRANCH  18  21
ENDBRANCH  15  18
ENDBRANCH   1  15
TORSDOF 11
ENDMDL
