MODEL 1
REMARK VINA RESULT:      -6.7      0.000      0.000
REMARK  11 active torsions:
REMARK  status: ('A' for Active; 'I' for Inactive)
REMARK    1  A    between atoms: C1_1  and  C2_2 
REMARK    2  A    between atoms: C1_1  and  C10_13 
REMARK    3  A    between atoms: C2_2  and  C3_3 
REMARK    4  A    between atoms: C3_3  and  C4_4 
REMARK    5  A    between atoms: C6_6  and  O1_7 
REMARK    6  A    between atoms: C7_8  and  O2_9 
REMARK    7  A    between atoms: C10_13  and  O4_14 
REMARK    8  A    between atoms: C10_13  and  C11_15 
REMARK    9  A    between atoms: C11_15  and  O5_16 
REMARK   10  A    between atoms: C11_15  and  C12_17 
REMARK   11  A    between atoms: C12_17  and  O6_18 
ROOT
HETATM    1  C1  UNL     1      13.226   6.189  15.773  1.00  0.00     0.158 C 
HETATM    2  O3  UNL     1      13.837   6.550  16.784  1.00  0.00    -0.295 OA
ENDROOT
BRANCH   1   3
HETATM    3  C2  UNL     1      13.709   5.000  14.961  1.00  0.00     0.086 C 
BRANCH   3   4
HETATM    4  C3  UNL     1      14.902   5.317  14.063  1.00  0.00     0.046 C 
BRANCH   4   5
HETATM    5  C4  UNL     1      14.630   5.103  12.593  1.00  0.00    -0.055 A 
HETATM    6  C5  UNL     1      13.390   4.608  12.157  1.00  0.00     0.046 A 
HETATM    7  C6  UNL     1      13.167   4.409  10.799  1.00  0.00     0.099 A 
HETATM    8  C7  UNL     1      14.161   4.704   9.871  1.00  0.00     0.098 A 
HETATM    9  C8  UNL     1      15.388   5.198  10.281  1.00  0.00     0.040 A 
HETATM   10  C9  UNL     1      15.622   5.399  11.642  1.00  0.00     0.010 A 
BRANCH   7  11
HETATM   11  O1  UNL     1      11.979   3.923  10.325  1.00  0.00    -0.358 OA
HETATM   12  H   UNL     1      11.688   4.155   9.465  1.00  0.00     0.217 HD
ENDBRANCH   7  11
BRANCH   8  13
HETATM   13  O2  UNL     1      13.931   4.505   8.539  1.00  0.00    -0.358 OA
HETATM   14  H   UNL     1      13.858   5.239   7.962  1.00  0.00     0.217 HD
ENDBRANCH   8  13
ENDBRANCH   4   5
ENDBRANCH   3   4
ENDBRANCH   1   3
BRANCH   1  15
HETATM   15  C10 UNL     1      11.935   6.880  15.328  1.00  0.00     0.218 C 
BRANCH  15  16
HETATM   16  O4  UNL     1      11.190   7.222  16.497  1.00  0.00    -0.385 OA
HETATM   17  H   UNL     1      11.800   7.488  17.203  1.00  0.00     0.210 HD
ENDBRANCH  15  16
BRANCH  15  18
HETATM   18  C11 UNL     1      12.236   8.126  14.469  1.00  0.00     0.177 C 
BRANCH  18  19
HETATM   19  O5  UNL     1      13.616   8.512  14.573  1.00  0.00    -0.390 OA
HETATM   20  H   UNL     1      13.833   8.691  15.501  1.00  0.00     0.210 HD
ENDBRANCH  18  19
BRANCH  18  21
HETATM   21  C12 UNL     1      11.966   7.858  12.983  1.00  0.00     0.198 C 
BRANCH  21  22
HETATM   22  O6  UNL     1      11.114   6.719  12.844  1.00  0.00    -0.398 OA
HETATM   23  H   UNL     1      10.262   6.996  12.472  1.00  0.00     0.209 HD
ENDBRANCH  21  22
ENDBRANCH  18  21
ENDBRANCH  15  18
ENDBRANCH   1  15
TORSDOF 11
ENDMDL
MODEL 2
REMARK VINA RESULT:      -6.5      1.405      6.094
REMARK  11 active torsions:
REMARK  status: ('A' for Active; 'I' for Inactive)
REMARK    1  A    between atoms: C1_1  and  C2_2 
REMARK    2  A    between atoms: C1_1  and  C10_13 
REMARK    3  A    between atoms: C2_2  and  C3_3 
REMARK    4  A    between atoms: C3_3  and  C4_4 
REMARK    5  A    between atoms: C6_6  and  O1_7 
REMARK    6  A    between atoms: C7_8  and  O2_9 
REMARK    7  A    between atoms: C10_13  and  O4_14 
REMARK    8  A    between atoms: C10_13  and  C11_15 
REMARK    9  A    between atoms: C11_15  and  O5_16 
REMARK   10  A    between atoms: C11_15  and  C12_17 
REMARK   11  A    between atoms: C12_17  and  O6_18 
ROOT
HETATM    1  C1  UNL     1      14.216   5.110  10.340  1.00  0.00     0.158 C 
HETATM    2  O3  UNL     1      14.515   5.787   9.352  1.00  0.00    -0.295 OA
ENDROOT
BRANCH   1   3
HETATM    3  C2  UNL     1      14.926   5.321  11.665  1.00  0.00     0.086 C 
BRANCH   3   4
HETATM    4  C3  UNL     1      14.817   6.747  12.198  1.00  0.00     0.046 C 
BRANCH   4   5
HETATM    5  C4  UNL     1      13.832   6.898  13.334  1.00  0.00    -0.055 A 
HETATM    6  C5  UNL     1      14.223   6.648  14.660  1.00  0.00     0.046 A 
HETATM    7  C6  UNL     1      13.295   6.784  15.687  1.00  0.00     0.099 A 
HETATM    8  C7  UNL     1      11.988   7.171  15.411  1.00  0.00     0.098 A 
HETATM    9  C8  UNL     1      11.586   7.427  14.110  1.00  0.00     0.040 A 
HETATM   10  C9  UNL     1      12.508   7.293  13.072  1.00  0.00     0.010 A 
BRANCH   7  11
HETATM   11  O1  UNL     1      13.624   6.546  16.994  1.00  0.00    -0.358 OA
HETATM   12  H   UNL     1      12.963   6.581  17.657  1.00  0.00     0.217 HD
ENDBRANCH   7  11
BRANCH   8  13
HETATM   13  O2  UNL     1      11.085   7.301  16.427  1.00  0.00    -0.358 OA
HETATM   14  H   UNL     1      10.654   8.121  16.569  1.00  0.00     0.217 HD
ENDBRANCH   8  13
ENDBRANCH   4   5
ENDBRANCH   3   4
ENDBRANCH   1   3
BRANCH   1  15
HETATM   15  C10 UNL     1      13.090   4.074  10.290  1.00  0.00     0.218 C 
BRANCH  15  16
HETATM   16  O4  UNL     1      11.900   4.690  10.783  1.00  0.00    -0.385 OA
HETATM   17  H   UNL     1      12.114   5.564  11.144  1.00  0.00     0.210 HD
ENDBRANCH  15  16
BRANCH  15  18
HETATM   18  C11 UNL     1      12.891   3.533   8.859  1.00  0.00     0.177 C 
BRANCH  18  19
HETATM   19  O5  UNL     1      12.970   4.586   7.885  1.00  0.00    -0.390 OA
HETATM   20  H   UNL     1      12.322   4.426   7.182  1.00  0.00     0.210 HD
ENDBRANCH  18  19
BRANCH  18  21
HETATM   21  C12 UNL     1      13.978   2.514   8.491  1.00  0.00     0.198 C 
BRANCH  21  22
HETATM   22  O6  UNL     1      15.020   3.161   7.758  1.00  0.00    -0.398 OA
HETATM   23  H   UNL     1      14.659   3.522   6.933  1.00  0.00     0.209 HD
ENDBRANCH  21  22
ENDBRANCH  18  21
ENDBRANCH  15  18
ENDBRANCH   1  15
TORSDOF 11
ENDMDL
MODEL 3
REMARK VINA RESULT:      -6.4      2.374      3.657
REMARK  11 active torsions:
REMARK  status: ('A' for Active; 'I' for Inactive)
REMARK    1  A    between atoms: C1_1  and  C2_2 
REMARK    2  A    between atoms: C1_1  and  C10_13 
REMARK    3  A    between atoms: C2_2  and  C3_3 
REMARK    4  A    between atoms: C3_3  and  C4_4 
REMARK    5  A    between atoms: C6_6  and  O1_7 
REMARK    6  A    between atoms: C7_8  and  O2_9 
REMARK    7  A    between atoms: C10_13  and  O4_14 
REMARK    8  A    between atoms: C10_13  and  C11_15 
REMARK    9  A    between atoms: C11_15  and  O5_16 
REMARK   10  A    between atoms: C11_15  and  C12_17 
REMARK   11  A    between atoms: C12_17  and  O6_18 
ROOT
HETATM    1  C1  UNL     1      14.693   5.626  17.325  1.00  0.00     0.158 C 
HETATM    2  O3  UNL     1      15.807   5.204  17.650  1.00  0.00    -0.295 OA
ENDROOT
BRANCH   1   3
HETATM    3  C2  UNL     1      14.013   5.119  16.065  1.00  0.00     0.086 C 
BRANCH   3   4
HETATM    4  C3  UNL     1      14.826   5.351  14.794  1.00  0.00     0.046 C 
BRANCH   4   5
HETATM    5  C4  UNL     1      14.109   4.938  13.530  1.00  0.00    -0.055 A 
HETATM    6  C5  UNL     1      12.971   4.118  13.586  1.00  0.00     0.046 A 
HETATM    7  C6  UNL     1      12.335   3.742  12.407  1.00  0.00     0.099 A 
HETATM    8  C7  UNL     1      12.815   4.180  11.177  1.00  0.00     0.098 A 
HETATM    9  C8  UNL     1      13.934   4.993  11.102  1.00  0.00     0.040 A 
HETATM   10  C9  UNL     1      14.580   5.375  12.279  1.00  0.00     0.010 A 
BRANCH   7  11
HETATM   11  O1  UNL     1      11.227   2.940  12.408  1.00  0.00    -0.358 OA
HETATM   12  H   UNL     1      11.324   2.008  12.390  1.00  0.00     0.217 HD
ENDBRANCH   7  11
BRANCH   8  13
HETATM   13  O2  UNL     1      12.183   3.805  10.026  1.00  0.00    -0.358 OA
HETATM   14  H   UNL     1      11.546   4.370   9.636  1.00  0.00     0.217 HD
ENDBRANCH   8  13
ENDBRANCH   4   5
ENDBRANCH   3   4
ENDBRANCH   1   3
BRANCH   1  15
HETATM   15  C10 UNL     1      13.931   6.627  18.196  1.00  0.00     0.218 C 
BRANCH  15  16
HETATM   16  O4  UNL     1      12.571   6.646  17.761  1.00  0.00    -0.385 OA
HETATM   17  H   UNL     1      12.206   7.536  17.880  1.00  0.00     0.210 HD
ENDBRANCH  15  16
BRANCH  15  18
HETATM   18  C11 UNL     1      14.038   6.262  19.691  1.00  0.00     0.177 C 
BRANCH  18  19
HETATM   19  O5  UNL     1      13.822   7.412  20.526  1.00  0.00    -0.390 OA
HETATM   20  H   UNL     1      13.121   7.218  21.168  1.00  0.00     0.210 HD
ENDBRANCH  18  19
BRANCH  18  21
HETATM   21  C12 UNL     1      12.979   5.226  20.091  1.00  0.00     0.198 C 
BRANCH  21  22
HETATM   22  O6  UNL     1      11.701   5.856  20.197  1.00  0.00    -0.398 OA
HETATM   23  H   UNL     1      11.019   5.181  20.340  1.00  0.00     0.209 HD
ENDBRANCH  21  22
ENDBRANCH  18  21
ENDBRANCH  15  18
ENDBRANCH   1  15
TORSDOF 11
ENDMDL
MODEL 4
REMARK VINA RESULT:      -6.4      2.848      5.090
REMARK  11 active torsions:
REMARK  status: ('A' for Active; 'I' for Inactive)
REMARK    1  A    between atoms: C1_1  and  C2_2 
REMARK    2  A    between atoms: C1_1  and  C10_13 
REMARK    3  A    between atoms: C2_2  and  C3_3 
REMARK    4  A    between atoms: C3_3  and  C4_4 
REMARK    5  A    between atoms: C6_6  and  O1_7 
REMARK    6  A    between atoms: C7_8  and  O2_9 
REMARK    7  A    between atoms: C10_13  and  O4_14 
REMARK    8  A    between atoms: C10_13  and  C11_15 
REMARK    9  A    between atoms: C11_15  and  O5_16 
REMARK   10  A    between atoms: C11_15  and  C12_17 
REMARK   11  A    between atoms: C12_17  and  O6_18 
ROOT
HETATM    1  C1  UNL     1      13.525   5.493  12.020  1.00  0.00     0.158 C 
HETATM    2  O3  UNL     1      13.394   6.705  11.825  1.00  0.00    -0.295 OA
ENDROOT
BRANCH   1   3
HETATM    3  C2  UNL     1      14.430   4.982  13.128  1.00  0.00     0.086 C 
BRANCH   3   4
HETATM    4  C3  UNL     1      15.426   6.022  13.634  1.00  0.00     0.046 C 
BRANCH   4   5
HETATM    5  C4  UNL     1      16.781   5.938  12.972  1.00  0.00    -0.055 A 
HETATM    6  C5  UNL     1      16.914   6.116  11.584  1.00  0.00     0.046 A 
HETATM    7  C6  UNL     1      18.172   6.023  10.997  1.00  0.00     0.099 A 
HETATM    8  C7  UNL     1      19.296   5.763  11.774  1.00  0.00     0.098 A 
HETATM    9  C8  UNL     1      19.185   5.590  13.144  1.00  0.00     0.040 A 
HETATM   10  C9  UNL     1      17.928   5.680  13.743  1.00  0.00     0.010 A 
BRANCH   7  11
HETATM   11  O1  UNL     1      18.353   6.181   9.650  1.00  0.00    -0.358 OA
HETATM   12  H   UNL     1      18.948   6.831   9.331  1.00  0.00     0.217 HD
ENDBRANCH   7  11
BRANCH   8  13
HETATM   13  O2  UNL     1      20.525   5.674  11.186  1.00  0.00    -0.358 OA
HETATM   14  H   UNL     1      21.299   5.691  11.714  1.00  0.00     0.217 HD
ENDBRANCH   8  13
ENDBRANCH   4   5
ENDBRANCH   3   4
ENDBRANCH   1   3
BRANCH   1  15
HETATM   15  C10 UNL     1      12.749   4.460  11.200  1.00  0.00     0.218 C 
BRANCH  15  16
HETATM   16  O4  UNL     1      11.357   4.644  11.460  1.00  0.00    -0.385 OA
HETATM   17  H   UNL     1      11.136   4.264  12.325  1.00  0.00     0.210 HD
ENDBRANCH  15  16
BRANCH  15  18
HETATM   18  C11 UNL     1      13.061   4.592   9.695  1.00  0.00     0.177 C 
BRANCH  18  19
HETATM   19  O5  UNL     1      14.332   5.226   9.478  1.00  0.00    -0.390 OA
HETATM   20  H   UNL     1      14.376   5.560   8.569  1.00  0.00     0.210 HD
ENDBRANCH  18  19
BRANCH  18  21
HETATM   21  C12 UNL     1      13.136   3.217   9.017  1.00  0.00     0.198 C 
BRANCH  21  22
HETATM   22  O6  UNL     1      13.979   3.291   7.866  1.00  0.00    -0.398 OA
HETATM   23  H   UNL     1      14.128   4.221   7.633  1.00  0.00     0.209 HD
ENDBRANCH  21  22
ENDBRANCH  18  21
ENDBRANCH  15  18
ENDBRANCH   1  15
TORSDOF 11
ENDMDL
MODEL 5
REMARK VINA RESULT:      -6.4      0.743      1.547
REMARK  11 active torsions:
REMARK  status: ('A' for Active; 'I' for Inactive)
REMARK    1  A    between atoms: C1_1  and  C2_2 
REMARK    2  A    between atoms: C1_1  and  C10_13 
REMARK    3  A    between atoms: C2_2  and  C3_3 
REMARK    4  A    between atoms: C3_3  and  C4_4 
REMARK    5  A    between atoms: C6_6  and  O1_7 
REMARK    6  A    between atoms: C7_8  and  O2_9 
REMARK    7  A    between atoms: C10_13  and  O4_14 
REMARK    8  A    between atoms: C10_13  and  C11_15 
REMARK    9  A    between atoms: C11_15  and  O5_16 
REMARK   10  A    between atoms: C11_15  and  C12_17 
REMARK   11  A    between atoms: C12_17  and  O6_18 
ROOT
HETATM    1  C1  UNL     1      13.237   6.220  15.971  1.00  0.00     0.158 C 
HETATM    2  O3  UNL     1      13.859   6.676  16.935  1.00  0.00    -0.295 OA
ENDROOT
BRANCH   1   3
HETATM    3  C2  UNL     1      13.672   4.920  15.316  1.00  0.00     0.086 C 
BRANCH   3   4
HETATM    4  C3  UNL     1      14.708   5.108  14.211  1.00  0.00     0.046 C 
BRANCH   4   5
HETATM    5  C4  UNL     1      14.146   4.953  12.817  1.00  0.00    -0.055 A 
HETATM    6  C5  UNL     1      14.770   5.569  11.720  1.00  0.00     0.046 A 
HETATM    7  C6  UNL     1      14.227   5.420  10.448  1.00  0.00     0.099 A 
HETATM    8  C7  UNL     1      13.077   4.661  10.256  1.00  0.00     0.098 A 
HETATM    9  C8  UNL     1      12.451   4.043  11.325  1.00  0.00     0.040 A 
HETATM   10  C9  UNL     1      12.987   4.186  12.606  1.00  0.00     0.010 A 
BRANCH   7  11
HETATM   11  O1  UNL     1      14.793   6.005   9.348  1.00  0.00    -0.358 OA
HETATM   12  H   UNL     1      15.521   5.596   8.922  1.00  0.00     0.217 HD
ENDBRANCH   7  11
BRANCH   8  13
HETATM   13  O2  UNL     1      12.553   4.522   9.003  1.00  0.00    -0.358 OA
HETATM   14  H   UNL     1      11.785   5.001   8.760  1.00  0.00     0.217 HD
ENDBRANCH   8  13
ENDBRANCH   4   5
ENDBRANCH   3   4
ENDBRANCH   1   3
BRANCH   1  15
HETATM   15  C10 UNL     1      11.981   6.907  15.430  1.00  0.00     0.218 C 
BRANCH  15  16
HETATM   16  O4  UNL     1      11.178   7.301  16.543  1.00  0.00    -0.385 OA
HETATM   17  H   UNL     1      10.361   7.714  16.222  1.00  0.00     0.210 HD
ENDBRANCH  15  16
BRANCH  15  18
HETATM   18  C11 UNL     1      12.342   8.115  14.541  1.00  0.00     0.177 C 
BRANCH  18  19
HETATM   19  O5  UNL     1      13.749   8.403  14.597  1.00  0.00    -0.390 OA
HETATM   20  H   UNL     1      14.113   8.409  13.697  1.00  0.00     0.210 HD
ENDBRANCH  18  19
BRANCH  18  21
HETATM   21  C12 UNL     1      12.008   7.844  13.069  1.00  0.00     0.198 C 
BRANCH  21  22
HETATM   22  O6  UNL     1      11.054   6.784  12.976  1.00  0.00    -0.398 OA
HETATM   23  H   UNL     1      10.706   6.584  13.859  1.00  0.00     0.209 HD
ENDBRANCH  21  22
ENDBRANCH  18  21
ENDBRANCH  15  18
ENDBRANCH   1  15
TORSDOF 11
ENDMDL
MODEL 6
REMARK VINA RESULT:      -6.4      1.611      2.160
REMARK  11 active torsions:
REMARK  status: ('A' for Active; 'I' for Inactive)
REMARK    1  A    between atoms: C1_1  and  C2_2 
REMARK    2  A    between atoms: C1_1  and  C10_13 
REMARK    3  A    between atoms: C2_2  and  C3_3 
REMARK    4  A    between atoms: C3_3  and  C4_4 
REMARK    5  A    between atoms: C6_6  and  O1_7 
REMARK    6  A    between atoms: C7_8  and  O2_9 
REMARK    7  A    between atoms: C10_13  and  O4_14 
REMARK    8  A    between atoms: C10_13  and  C11_15 
REMARK    9  A    between atoms: C11_15  and  O5_16 
REMARK   10  A    between atoms: C11_15  and  C12_17 
REMARK   11  A    between atoms: C12_17  and  O6_18 
ROOT
HETATM    1  C1  UNL     1      13.244   6.279  15.534  1.00  0.00     0.158 C 
HETATM    2  O3  UNL     1      13.774   6.501  16.626  1.00  0.00    -0.295 OA
ENDROOT
BRANCH   1   3
HETATM    3  C2  UNL     1      13.915   5.368  14.521  1.00  0.00     0.086 C 
BRANCH   3   4
HETATM    4  C3  UNL     1      15.439   5.372  14.609  1.00  0.00     0.046 C 
BRANCH   4   5
HETATM    5  C4  UNL     1      16.125   5.538  13.273  1.00  0.00    -0.055 A 
HETATM    6  C5  UNL     1      15.397   5.441  12.076  1.00  0.00     0.046 A 
HETATM    7  C6  UNL     1      16.053   5.587  10.858  1.00  0.00     0.099 A 
HETATM    8  C7  UNL     1      17.422   5.835  10.820  1.00  0.00     0.098 A 
HETATM    9  C8  UNL     1      18.155   5.939  11.990  1.00  0.00     0.040 A 
HETATM   10  C9  UNL     1      17.507   5.793  13.217  1.00  0.00     0.010 A 
BRANCH   7  11
HETATM   11  O1  UNL     1      15.391   5.494   9.665  1.00  0.00    -0.358 OA
HETATM   12  H   UNL     1      14.810   6.179   9.397  1.00  0.00     0.217 HD
ENDBRANCH   7  11
BRANCH   8  13
HETATM   13  O2  UNL     1      18.056   5.976   9.619  1.00  0.00    -0.358 OA
HETATM   14  H   UNL     1      18.722   5.367   9.366  1.00  0.00     0.217 HD
ENDBRANCH   8  13
ENDBRANCH   4   5
ENDBRANCH   3   4
ENDBRANCH   1   3
BRANCH   1  15
HETATM   15  C10 UNL     1      11.875   6.861  15.174  1.00  0.00     0.218 C 
BRANCH  15  16
HETATM   16  O4  UNL     1      11.194   7.173  16.390  1.00  0.00    -0.385 OA
HETATM   17  H   UNL     1      10.243   7.255  16.215  1.00  0.00     0.210 HD
ENDBRANCH  15  16
BRANCH  15  18
HETATM   18  C11 UNL     1      12.015   8.106  14.273  1.00  0.00     0.177 C 
BRANCH  18  19
HETATM   19  O5  UNL     1      13.226   8.824  14.559  1.00  0.00    -0.390 OA
HETATM   20  H   UNL     1      13.418   9.437  13.831  1.00  0.00     0.210 HD
ENDBRANCH  18  19
BRANCH  18  21
HETATM   21  C12 UNL     1      12.075   7.718  12.790  1.00  0.00     0.198 C 
BRANCH  21  22
HETATM   22  O6  UNL     1      11.203   6.613  12.544  1.00  0.00    -0.398 OA
HETATM   23  H   UNL     1      10.287   6.928  12.497  1.00  0.00     0.209 HD
ENDBRANCH  21  22
ENDBRANCH  18  21
ENDBRANCH  15  18
ENDBRANCH   1  15
TORSDOF 11
ENDMDL
MODEL 7
REMARK VINA RESULT:      -6.3      1.332      2.096
REMARK  11 active torsions:
REMARK  status: ('A' for Active; 'I' for Inactive)
REMARK    1  A    between atoms: C1_1  and  C2_2 
REMARK    2  A    between atoms: C1_1  and  C10_13 
REMARK    3  A    between atoms: C2_2  and  C3_3 
REMARK    4  A    between atoms: C3_3  and  C4_4 
REMARK    5  A    between atoms: C6_6  and  O1_7 
REMARK    6  A    between atoms: C7_8  and  O2_9 
REMARK    7  A    between atoms: C10_13  and  O4_14 
REMARK    8  A    between atoms: C10_13  and  C11_15 
REMARK    9  A    between atoms: C11_15  and  O5_16 
REMARK   10  A    between atoms: C11_15  and  C12_17 
REMARK   11  A    between atoms: C12_17  and  O6_18 
ROOT
HETATM    1  C1  UNL     1      15.128   6.351  15.224  1.00  0.00     0.158 C 
HETATM    2  O3  UNL     1      15.727   7.407  15.450  1.00  0.00    -0.295 OA
ENDROOT
BRANCH   1   3
HETATM    3  C2  UNL     1      15.716   5.315  14.282  1.00  0.00     0.086 C 
BRANCH   3   4
HETATM    4  C3  UNL     1      15.935   5.833  12.863  1.00  0.00     0.046 C 
BRANCH   4   5
HETATM    5  C4  UNL     1      14.948   5.289  11.857  1.00  0.00    -0.055 A 
HETATM    6  C5  UNL     1      13.660   4.897  12.257  1.00  0.00     0.046 A 
HETATM    7  C6  UNL     1      12.772   4.388  11.314  1.00  0.00     0.099 A 
HETATM    8  C7  UNL     1      13.151   4.272   9.980  1.00  0.00     0.098 A 
HETATM    9  C8  UNL     1      14.415   4.658   9.566  1.00  0.00     0.040 A 
HETATM   10  C9  UNL     1      15.313   5.169  10.505  1.00  0.00     0.010 A 
BRANCH   7  11
HETATM   11  O1  UNL     1      11.510   3.986  11.653  1.00  0.00    -0.358 OA
HETATM   12  H   UNL     1      11.306   3.073  11.704  1.00  0.00     0.217 HD
ENDBRANCH   7  11
BRANCH   8  13
HETATM   13  O2  UNL     1      12.272   3.771   9.063  1.00  0.00    -0.358 OA
HETATM   14  H   UNL     1      11.791   4.353   8.508  1.00  0.00     0.217 HD
ENDBRANCH   8  13
ENDBRANCH   4   5
ENDBRANCH   3   4
ENDBRANCH   1   3
BRANCH   1  15
HETATM   15  C10 UNL     1      13.806   6.015  15.918  1.00  0.00     0.218 C 
BRANCH  15  16
HETATM   16  O4  UNL     1      13.719   6.799  17.108  1.00  0.00    -0.385 OA
HETATM   17  H   UNL     1      13.584   7.730  16.873  1.00  0.00     0.210 HD
ENDBRANCH  15  16
BRANCH  15  18
HETATM   18  C11 UNL     1      12.604   6.274  14.986  1.00  0.00     0.177 C 
BRANCH  18  19
HETATM   19  O5  UNL     1      11.631   5.222  15.084  1.00  0.00    -0.390 OA
HETATM   20  H   UNL     1      11.580   4.913  16.002  1.00  0.00     0.210 HD
ENDBRANCH  18  19
BRANCH  18  21
HETATM   21  C12 UNL     1      11.880   7.576  15.356  1.00  0.00     0.198 C 
BRANCH  21  22
HETATM   22  O6  UNL     1      11.140   7.391  16.564  1.00  0.00    -0.398 OA
HETATM   23  H   UNL     1      11.324   6.509  16.925  1.00  0.00     0.209 HD
ENDBRANCH  21  22
ENDBRANCH  18  21
ENDBRANCH  15  18
ENDBRANCH   1  15
TORSDOF 11
ENDMDL
MODEL 8
REMARK VINA RESULT:      -6.3      2.064      3.422
REMARK  11 active torsions:
REMARK  status: ('A' for Active; 'I' for Inactive)
REMARK    1  A    between atoms: C1_1  and  C2_2 
REMARK    2  A    between atoms: C1_1  and  C10_13 
REMARK    3  A    between atoms: C2_2  and  C3_3 
REMARK    4  A    between atoms: C3_3  and  C4_4 
REMARK    5  A    between atoms: C6_6  and  O1_7 
REMARK    6  A    between atoms: C7_8  and  O2_9 
REMARK    7  A    between atoms: C10_13  and  O4_14 
REMARK    8  A    between atoms: C10_13  and  C11_15 
REMARK    9  A    between atoms: C11_15  and  O5_16 
REMARK   10  A    between atoms: C11_15  and  C12_17 
REMARK   11  A    between atoms: C12_17  and  O6_18 
ROOT
HETATM    1  C1  UNL     1      14.129   5.721  16.387  1.00  0.00     0.158 C 
HETATM    2  O3  UNL     1      13.938   4.501  16.425  1.00  0.00    -0.295 OA
ENDROOT
BRANCH   1   3
HETATM    3  C2  UNL     1      14.546   6.397  15.093  1.00  0.00     0.086 C 
BRANCH   3   4
HETATM    4  C3  UNL     1      15.298   5.475  14.135  1.00  0.00     0.046 C 
BRANCH   4   5
HETATM    5  C4  UNL     1      14.567   5.218  12.839  1.00  0.00    -0.055 A 
HETATM    6  C5  UNL     1      13.188   4.949  12.834  1.00  0.00     0.046 A 
HETATM    7  C6  UNL     1      12.539   4.705  11.628  1.00  0.00     0.099 A 
HETATM    8  C7  UNL     1      13.245   4.733  10.429  1.00  0.00     0.098 A 
HETATM    9  C8  UNL     1      14.603   5.002  10.414  1.00  0.00     0.040 A 
HETATM   10  C9  UNL     1      15.264   5.247  11.618  1.00  0.00     0.010 A 
BRANCH   7  11
HETATM   11  O1  UNL     1      11.200   4.432  11.570  1.00  0.00    -0.358 OA
HETATM   12  H   UNL     1      10.680   4.472  12.349  1.00  0.00     0.217 HD
ENDBRANCH   7  11
BRANCH   8  13
HETATM   13  O2  UNL     1      12.598   4.492   9.251  1.00  0.00    -0.358 OA
HETATM   14  H   UNL     1      11.748   4.858   9.099  1.00  0.00     0.217 HD
ENDBRANCH   8  13
ENDBRANCH   4   5
ENDBRANCH   3   4
ENDBRANCH   1   3
BRANCH   1  15
HETATM   15  C10 UNL     1      13.902   6.606  17.614  1.00  0.00     0.218 C 
BRANCH  15  16
HETATM   16  O4  UNL     1      12.499   6.650  17.875  1.00  0.00    -0.385 OA
HETATM   17  H   UNL     1      12.072   7.254  17.248  1.00  0.00     0.210 HD
ENDBRANCH  15  16
BRANCH  15  18
HETATM   18  C11 UNL     1      14.685   6.081  18.835  1.00  0.00     0.177 C 
BRANCH  18  19
HETATM   19  O5  UNL     1      15.893   5.414  18.435  1.00  0.00    -0.390 OA
HETATM   20  H   UNL     1      16.180   5.755  17.573  1.00  0.00     0.210 HD
ENDBRANCH  18  19
BRANCH  18  21
HETATM   21  C12 UNL     1      15.104   7.227  19.765  1.00  0.00     0.198 C 
BRANCH  21  22
HETATM   22  O6  UNL     1      13.944   7.840  20.331  1.00  0.00    -0.398 OA
HETATM   23  H   UNL     1      13.712   7.390  21.159  1.00  0.00     0.209 HD
ENDBRANCH  21  22
ENDBRANCH  18  21
ENDBRANCH  15  18
ENDBRANCH   1  15
TORSDOF 11
ENDMDL
MODEL 9
REMARK VINA RESULT:      -6.3      2.511      4.016
REMARK  11 active torsions:
REMARK  status: ('A' for Active; 'I' for Inactive)
REMARK    1  A    between atoms: C1_1  and  C2_2 
REMARK    2  A    between atoms: C1_1  and  C10_13 
REMARK    3  A    between atoms: C2_2  and  C3_3 
REMARK    4  A    between atoms: C3_3  and  C4_4 
REMARK    5  A    between atoms: C6_6  and  O1_7 
REMARK    6  A    between atoms: C7_8  and  O2_9 
REMARK    7  A    between atoms: C10_13  and  O4_14 
REMARK    8  A    between atoms: C10_13  and  C11_15 
REMARK    9  A    between atoms: C11_15  and  O5_16 
REMARK   10  A    between atoms: C11_15  and  C12_17 
REMARK   11  A    between atoms: C12_17  and  O6_18 
ROOT
HETATM    1  C1  UNL     1      12.671   7.076  12.920  1.00  0.00     0.158 C 
HETATM    2  O3  UNL     1      11.523   7.340  12.547  1.00  0.00    -0.295 OA
ENDROOT
BRANCH   1   3
HETATM    3  C2  UNL     1      13.653   6.401  11.978  1.00  0.00     0.086 C 
BRANCH   3   4
HETATM    4  C3  UNL     1      14.603   5.432  12.676  1.00  0.00     0.046 C 
BRANCH   4   5
HETATM    5  C4  UNL     1      16.047   5.593  12.264  1.00  0.00    -0.055 A 
HETATM    6  C5  UNL     1      16.403   5.655  10.906  1.00  0.00     0.046 A 
HETATM    7  C6  UNL     1      17.741   5.792  10.551  1.00  0.00     0.099 A 
HETATM    8  C7  UNL     1      18.725   5.876  11.531  1.00  0.00     0.098 A 
HETATM    9  C8  UNL     1      18.393   5.822  12.875  1.00  0.00     0.040 A 
HETATM   10  C9  UNL     1      17.054   5.683  13.241  1.00  0.00     0.010 A 
BRANCH   7  11
HETATM   11  O1  UNL     1      18.139   5.851   9.244  1.00  0.00    -0.358 OA
HETATM   12  H   UNL     1      18.183   5.067   8.732  1.00  0.00     0.217 HD
ENDBRANCH   7  11
BRANCH   8  13
HETATM   13  O2  UNL     1      20.036   6.011  11.172  1.00  0.00    -0.358 OA
HETATM   14  H   UNL     1      20.630   6.470  11.731  1.00  0.00     0.217 HD
ENDBRANCH   8  13
ENDBRANCH   4   5
ENDBRANCH   3   4
ENDBRANCH   1   3
BRANCH   1  15
HETATM   15  C10 UNL     1      13.169   7.461  14.314  1.00  0.00     0.218 C 
BRANCH  15  16
HETATM   16  O4  UNL     1      13.192   8.887  14.398  1.00  0.00    -0.385 OA
HETATM   17  H   UNL     1      13.941   9.166  14.948  1.00  0.00     0.210 HD
ENDBRANCH  15  16
BRANCH  15  18
HETATM   18  C11 UNL     1      12.278   6.848  15.415  1.00  0.00     0.177 C 
BRANCH  18  19
HETATM   19  O5  UNL     1      11.562   5.701  14.930  1.00  0.00    -0.390 OA
HETATM   20  H   UNL     1      10.911   5.423  15.593  1.00  0.00     0.210 HD
ENDBRANCH  18  19
BRANCH  18  21
HETATM   21  C12 UNL     1      13.116   6.370  16.609  1.00  0.00     0.198 C 
BRANCH  21  22
HETATM   22  O6  UNL     1      12.441   6.681  17.829  1.00  0.00    -0.398 OA
HETATM   23  H   UNL     1      12.800   7.504  18.197  1.00  0.00     0.209 HD
ENDBRANCH  21  22
ENDBRANCH  18  21
ENDBRANCH  15  18
ENDBRANCH   1  15
TORSDOF 11
ENDMDL
