MODEL 1
REMARK VINA RESULT:      -6.7      0.000      0.000
REMARK  11 active torsions:
REMARK  status: ('A' for Active; 'I' for Inactive)
REMARK    1  A    between atoms: C1_1  and  C2_2 
REMARK    2  A    between atoms: C1_1  and  C10_13 
REMARK    3  A    between atoms: C2_2  and  C3_3 
REMARK    4  A    between atoms: C3_3  and  C4_4 
REMARK    5  A    between atoms: C6_6  and  O1_7 
REMARK    6  A    between atoms: C7_8  and  O2_9 
REMARK    7  A    between atoms: C10_13  and  O4_14 
REMARK    8  A    between atoms: C10_13  and  C11_15 
REMARK    9  A    between atoms: C11_15  and  O5_16 
REMARK   10  A    between atoms: C11_15  and  C12_17 
REMARK   11  A    between atoms: C12_17  and  O6_18 
ROOT
HETATM    1  C1  UNL     1      12.470   7.325  13.219  1.00  0.00     0.158 C 
HETATM    2  O3  UNL     1      13.392   7.570  14.002  1.00  0.00    -0.295 OA
ENDROOT
BRANCH   1   3
HETATM    3  C2  UNL     1      12.597   6.207  12.199  1.00  0.00     0.086 C 
BRANCH   3   4
HETATM    4  C3  UNL     1      13.596   6.507  11.084  1.00  0.00     0.046 C 
BRANCH   4   5
HETATM    5  C4  UNL     1      12.964   6.626   9.717  1.00  0.00    -0.055 A 
HETATM    6  C5  UNL     1      11.590   6.390   9.539  1.00  0.00     0.046 A 
HETATM    7  C6  UNL     1      11.033   6.496   8.269  1.00  0.00     0.099 A 
HETATM    8  C7  UNL     1      11.826   6.839   7.178  1.00  0.00     0.098 A 
HETATM    9  C8  UNL     1      13.181   7.080   7.335  1.00  0.00     0.040 A 
HETATM   10  C9  UNL     1      13.750   6.975   8.605  1.00  0.00     0.010 A 
BRANCH   7  11
HETATM   11  O1  UNL     1       9.703   6.271   8.042  1.00  0.00    -0.358 OA
HETATM   12  H   UNL     1       9.120   6.994   7.918  1.00  0.00     0.217 HD
ENDBRANCH   7  11
BRANCH   8  13
HETATM   13  O2  UNL     1      11.269   6.940   5.935  1.00  0.00    -0.358 OA
HETATM   14  H   UNL     1      11.444   7.691   5.403  1.00  0.00     0.217 HD
ENDBRANCH   8  13
ENDBRANCH   4   5
ENDBRANCH   3   4
ENDBRANCH   1   3
BRANCH   1  15
HETATM   15  C10 UNL     1      11.147   8.093  13.275  1.00  0.00     0.218 C 
BRANCH  15  16
HETATM   16  O4  UNL     1      10.747   8.187  14.642  1.00  0.00    -0.385 OA
HETATM   17  H   UNL     1      10.180   8.965  14.760  1.00  0.00     0.210 HD
ENDBRANCH  15  16
BRANCH  15  18
HETATM   18  C11 UNL     1      11.283   9.489  12.631  1.00  0.00     0.177 C 
BRANCH  18  19
HETATM   19  O5  UNL     1      12.640   9.957  12.680  1.00  0.00    -0.390 OA
HETATM   20  H   UNL     1      13.178   9.335  13.194  1.00  0.00     0.210 HD
ENDBRANCH  18  19
BRANCH  18  21
HETATM   21  C12 UNL     1      10.881   9.463  11.151  1.00  0.00     0.198 C 
BRANCH  21  22
HETATM   22  O6  UNL     1       9.721   8.646  10.979  1.00  0.00    -0.398 OA
HETATM   23  H   UNL     1       9.716   8.276  10.082  1.00  0.00     0.209 HD
ENDBRANCH  21  22
ENDBRANCH  18  21
ENDBRANCH  15  18
ENDBRANCH   1  15
TORSDOF 11
ENDMDL
MODEL 2
REMARK VINA RESULT:      -6.5      0.764      1.624
REMARK  11 active torsions:
REMARK  status: ('A' for Active; 'I' for Inactive)
REMARK    1  A    between atoms: C1_1  and  C2_2 
REMARK    2  A    between atoms: C1_1  and  C10_13 
REMARK    3  A    between atoms: C2_2  and  C3_3 
REMARK    4  A    between atoms: C3_3  and  C4_4 
REMARK    5  A    between atoms: C6_6  and  O1_7 
REMARK    6  A    between atoms: C7_8  and  O2_9 
REMARK    7  A    between atoms: C10_13  and  O4_14 
REMARK    8  A    between atoms: C10_13  and  C11_15 
REMARK    9  A    between atoms: C11_15  and  O5_16 
REMARK   10  A    between atoms: C11_15  and  C12_17 
REMARK   11  A    between atoms: C12_17  and  O6_18 
ROOT
HETATM    1  C1  UNL     1      12.251   7.236  13.507  1.00  0.00     0.158 C 
HETATM    2  O3  UNL     1      13.098   7.336  14.400  1.00  0.00    -0.295 OA
ENDROOT
BRANCH   1   3
HETATM    3  C2  UNL     1      12.344   6.125  12.475  1.00  0.00     0.086 C 
BRANCH   3   4
HETATM    4  C3  UNL     1      13.443   6.344  11.438  1.00  0.00     0.046 C 
BRANCH   4   5
HETATM    5  C4  UNL     1      12.925   6.512  10.029  1.00  0.00    -0.055 A 
HETATM    6  C5  UNL     1      13.807   6.765   8.966  1.00  0.00     0.046 A 
HETATM    7  C6  UNL     1      13.304   6.927   7.679  1.00  0.00     0.099 A 
HETATM    8  C7  UNL     1      11.937   6.833   7.439  1.00  0.00     0.098 A 
HETATM    9  C8  UNL     1      11.052   6.579   8.474  1.00  0.00     0.040 A 
HETATM   10  C9  UNL     1      11.546   6.416   9.769  1.00  0.00     0.010 A 
BRANCH   7  11
HETATM   11  O1  UNL     1      14.120   7.181   6.611  1.00  0.00    -0.358 OA
HETATM   12  H   UNL     1      14.911   6.691   6.499  1.00  0.00     0.217 HD
ENDBRANCH   7  11
BRANCH   8  13
HETATM   13  O2  UNL     1      11.454   6.993   6.172  1.00  0.00    -0.358 OA
HETATM   14  H   UNL     1      12.012   6.840   5.435  1.00  0.00     0.217 HD
ENDBRANCH   8  13
ENDBRANCH   4   5
ENDBRANCH   3   4
ENDBRANCH   1   3
BRANCH   1  15
HETATM   15  C10 UNL     1      11.051   8.182  13.431  1.00  0.00     0.218 C 
BRANCH  15  16
HETATM   16  O4  UNL     1      10.593   8.425  14.762  1.00  0.00    -0.385 OA
HETATM   17  H   UNL     1      11.250   8.095  15.395  1.00  0.00     0.210 HD
ENDBRANCH  15  16
BRANCH  15  18
HETATM   18  C11 UNL     1      11.420   9.498  12.714  1.00  0.00     0.177 C 
BRANCH  18  19
HETATM   19  O5  UNL     1      12.844   9.654  12.610  1.00  0.00    -0.390 OA
HETATM   20  H   UNL     1      13.283   8.891  13.017  1.00  0.00     0.210 HD
ENDBRANCH  18  19
BRANCH  18  21
HETATM   21  C12 UNL     1      10.869   9.527  11.282  1.00  0.00     0.198 C 
BRANCH  21  22
HETATM   22  O6  UNL     1       9.715   8.690  11.191  1.00  0.00    -0.398 OA
HETATM   23  H   UNL     1       9.656   8.316  10.297  1.00  0.00     0.209 HD
ENDBRANCH  21  22
ENDBRANCH  18  21
ENDBRANCH  15  18
ENDBRANCH   1  15
TORSDOF 11
ENDMDL
MODEL 3
REMARK VINA RESULT:      -6.5      1.379      5.942
REMARK  11 active torsions:
REMARK  status: ('A' for Active; 'I' for Inactive)
REMARK    1  A    between atoms: C1_1  and  C2_2 
REMARK    2  A    between atoms: C1_1  and  C10_13 
REMARK    3  A    between atoms: C2_2  and  C3_3 
REMARK    4  A    between atoms: C3_3  and  C4_4 
REMARK    5  A    between atoms: C6_6  and  O1_7 
REMARK    6  A    between atoms: C7_8  and  O2_9 
REMARK    7  A    between atoms: C10_13  and  O4_14 
REMARK    8  A    between atoms: C10_13  and  C11_15 
REMARK    9  A    between atoms: C11_15  and  O5_16 
REMARK   10  A    between atoms: C11_15  and  C12_17 
REMARK   11  A    between atoms: C12_17  and  O6_18 
ROOT
HETATM    1  C1  UNL     1      12.137   7.111   7.849  1.00  0.00     0.158 C 
HETATM    2  O3  UNL     1      12.420   7.976   7.014  1.00  0.00    -0.295 OA
ENDROOT
BRANCH   1   3
HETATM    3  C2  UNL     1      13.099   6.783   8.978  1.00  0.00     0.086 C 
BRANCH   3   4
HETATM    4  C3  UNL     1      13.482   7.993   9.826  1.00  0.00     0.046 C 
BRANCH   4   5
HETATM    5  C4  UNL     1      12.677   8.125  11.098  1.00  0.00    -0.055 A 
HETATM    6  C5  UNL     1      12.848   7.213  12.152  1.00  0.00     0.046 A 
HETATM    7  C6  UNL     1      12.086   7.349  13.309  1.00  0.00     0.099 A 
HETATM    8  C7  UNL     1      11.164   8.384  13.429  1.00  0.00     0.098 A 
HETATM    9  C8  UNL     1      10.986   9.295  12.401  1.00  0.00     0.040 A 
HETATM   10  C9  UNL     1      11.743   9.167  11.236  1.00  0.00     0.010 A 
BRANCH   7  11
HETATM   11  O1  UNL     1      12.210   6.484  14.361  1.00  0.00    -0.358 OA
HETATM   12  H   UNL     1      11.898   5.603  14.283  1.00  0.00     0.217 HD
ENDBRANCH   7  11
BRANCH   8  13
HETATM   13  O2  UNL     1      10.422   8.508  14.568  1.00  0.00    -0.358 OA
HETATM   14  H   UNL     1       9.654   7.984  14.687  1.00  0.00     0.217 HD
ENDBRANCH   8  13
ENDBRANCH   4   5
ENDBRANCH   3   4
ENDBRANCH   1   3
BRANCH   1  15
HETATM   15  C10 UNL     1      10.795   6.376   7.818  1.00  0.00     0.218 C 
BRANCH  15  16
HETATM   16  O4  UNL     1       9.867   7.114   8.614  1.00  0.00    -0.385 OA
HETATM   17  H   UNL     1      10.349   7.616   9.290  1.00  0.00     0.210 HD
ENDBRANCH  15  16
BRANCH  15  18
HETATM   18  C11 UNL     1      10.285   6.204   6.373  1.00  0.00     0.177 C 
BRANCH  18  19
HETATM   19  O5  UNL     1      10.483   7.401   5.603  1.00  0.00    -0.390 OA
HETATM   20  H   UNL     1      10.482   8.170   6.194  1.00  0.00     0.210 HD
ENDBRANCH  18  19
BRANCH  18  21
HETATM   21  C12 UNL     1      11.038   5.084   5.644  1.00  0.00     0.198 C 
BRANCH  21  22
HETATM   22  O6  UNL     1      12.158   5.630   4.944  1.00  0.00    -0.398 OA
HETATM   23  H   UNL     1      12.353   5.081   4.168  1.00  0.00     0.209 HD
ENDBRANCH  21  22
ENDBRANCH  18  21
ENDBRANCH  15  18
ENDBRANCH   1  15
TORSDOF 11
ENDMDL
MODEL 4
REMARK VINA RESULT:      -6.5      2.668      5.187
REMARK  11 active torsions:
REMARK  status: ('A' for Active; 'I' for Inactive)
REMARK    1  A    between atoms: C1_1  and  C2_2 
REMARK    2  A    between atoms: C1_1  and  C10_13 
REMARK    3  A    between atoms: C2_2  and  C3_3 
REMARK    4  A    between atoms: C3_3  and  C4_4 
REMARK    5  A    between atoms: C6_6  and  O1_7 
REMARK    6  A    between atoms: C7_8  and  O2_9 
REMARK    7  A    between atoms: C10_13  and  O4_14 
REMARK    8  A    between atoms: C10_13  and  C11_15 
REMARK    9  A    between atoms: C11_15  and  O5_16 
REMARK   10  A    between atoms: C11_15  and  C12_17 
REMARK   11  A    between atoms: C12_17  and  O6_18 
ROOT
HETATM    1  C1  UNL     1      10.957   7.567   9.425  1.00  0.00     0.158 C 
HETATM    2  O3  UNL     1       9.928   8.125   9.817  1.00  0.00    -0.295 OA
ENDROOT
BRANCH   1   3
HETATM    3  C2  UNL     1      12.320   8.038   9.901  1.00  0.00     0.086 C 
BRANCH   3   4
HETATM    4  C3  UNL     1      13.238   6.903  10.347  1.00  0.00     0.046 C 
BRANCH   4   5
HETATM    5  C4  UNL     1      14.566   6.877   9.627  1.00  0.00    -0.055 A 
HETATM    6  C5  UNL     1      14.654   7.230   8.271  1.00  0.00     0.046 A 
HETATM    7  C6  UNL     1      15.886   7.188   7.627  1.00  0.00     0.099 A 
HETATM    8  C7  UNL     1      17.031   6.805   8.320  1.00  0.00     0.098 A 
HETATM    9  C8  UNL     1      16.965   6.458   9.659  1.00  0.00     0.040 A 
HETATM   10  C9  UNL     1      15.733   6.496  10.314  1.00  0.00     0.010 A 
BRANCH   7  11
HETATM   11  O1  UNL     1      16.023   7.516   6.306  1.00  0.00    -0.358 OA
HETATM   12  H   UNL     1      16.679   8.132   6.042  1.00  0.00     0.217 HD
ENDBRANCH   7  11
BRANCH   8  13
HETATM   13  O2  UNL     1      18.235   6.766   7.678  1.00  0.00    -0.358 OA
HETATM   14  H   UNL     1      18.687   5.952   7.578  1.00  0.00     0.217 HD
ENDBRANCH   8  13
ENDBRANCH   4   5
ENDBRANCH   3   4
ENDBRANCH   1   3
BRANCH   1  15
HETATM   15  C10 UNL     1      10.906   6.354   8.494  1.00  0.00     0.218 C 
BRANCH  15  16
HETATM   16  O4  UNL     1       9.897   5.467   8.978  1.00  0.00    -0.385 OA
HETATM   17  H   UNL     1       9.040   5.921   8.976  1.00  0.00     0.210 HD
ENDBRANCH  15  16
BRANCH  15  18
HETATM   18  C11 UNL     1      10.630   6.778   7.037  1.00  0.00     0.177 C 
BRANCH  18  19
HETATM   19  O5  UNL     1      11.702   7.579   6.513  1.00  0.00    -0.390 OA
HETATM   20  H   UNL     1      12.186   7.073   5.842  1.00  0.00     0.210 HD
ENDBRANCH  18  19
BRANCH  18  21
HETATM   21  C12 UNL     1      10.505   5.558   6.114  1.00  0.00     0.198 C 
BRANCH  21  22
HETATM   22  O6  UNL     1      11.399   5.694   5.008  1.00  0.00    -0.398 OA
HETATM   23  H   UNL     1      11.350   4.900   4.453  1.00  0.00     0.209 HD
ENDBRANCH  21  22
ENDBRANCH  18  21
ENDBRANCH  15  18
ENDBRANCH   1  15
TORSDOF 11
ENDMDL
MODEL 5
REMARK VINA RESULT:      -6.4      1.633      2.220
REMARK  11 active torsions:
REMARK  status: ('A' for Active; 'I' for Inactive)
REMARK    1  A    between atoms: C1_1  and  C2_2 
REMARK    2  A    between atoms: C1_1  and  C10_13 
REMARK    3  A    between atoms: C2_2  and  C3_3 
REMARK    4  A    between atoms: C3_3  and  C4_4 
REMARK    5  A    between atoms: C6_6  and  O1_7 
REMARK    6  A    between atoms: C7_8  and  O2_9 
REMARK    7  A    between atoms: C10_13  and  O4_14 
REMARK    8  A    between atoms: C10_13  and  C11_15 
REMARK    9  A    between atoms: C11_15  and  O5_16 
REMARK   10  A    between atoms: C11_15  and  C12_17 
REMARK   11  A    between atoms: C12_17  and  O6_18 
ROOT
HETATM    1  C1  UNL     1      12.177   7.381  13.179  1.00  0.00     0.158 C 
HETATM    2  O3  UNL     1      12.923   7.323  14.162  1.00  0.00    -0.295 OA
ENDROOT
BRANCH   1   3
HETATM    3  C2  UNL     1      12.469   6.554  11.939  1.00  0.00     0.086 C 
BRANCH   3   4
HETATM    4  C3  UNL     1      13.951   6.247  11.742  1.00  0.00     0.046 C 
BRANCH   4   5
HETATM    5  C4  UNL     1      14.468   6.601  10.367  1.00  0.00    -0.055 A 
HETATM    6  C5  UNL     1      13.580   6.814   9.299  1.00  0.00     0.046 A 
HETATM    7  C6  UNL     1      14.082   7.128   8.040  1.00  0.00     0.099 A 
HETATM    8  C7  UNL     1      15.453   7.240   7.835  1.00  0.00     0.098 A 
HETATM    9  C8  UNL     1      16.343   7.039   8.877  1.00  0.00     0.040 A 
HETATM   10  C9  UNL     1      15.851   6.722  10.144  1.00  0.00     0.010 A 
BRANCH   7  11
HETATM   11  O1  UNL     1      13.260   7.338   6.967  1.00  0.00    -0.358 OA
HETATM   12  H   UNL     1      12.845   8.170   6.850  1.00  0.00     0.217 HD
ENDBRANCH   7  11
BRANCH   8  13
HETATM   13  O2  UNL     1      15.934   7.549   6.595  1.00  0.00    -0.358 OA
HETATM   14  H   UNL     1      15.357   7.890   5.940  1.00  0.00     0.217 HD
ENDBRANCH   8  13
ENDBRANCH   4   5
ENDBRANCH   3   4
ENDBRANCH   1   3
BRANCH   1  15
HETATM   15  C10 UNL     1      10.909   8.237  13.184  1.00  0.00     0.218 C 
BRANCH  15  16
HETATM   16  O4  UNL     1      10.470   8.370  14.536  1.00  0.00    -0.385 OA
HETATM   17  H   UNL     1      11.171   8.784  15.064  1.00  0.00     0.210 HD
ENDBRANCH  15  16
BRANCH  15  18
HETATM   18  C11 UNL     1      11.162   9.615  12.537  1.00  0.00     0.177 C 
BRANCH  18  19
HETATM   19  O5  UNL     1      12.552   9.974  12.597  1.00  0.00    -0.390 OA
HETATM   20  H   UNL     1      13.087   9.252  12.232  1.00  0.00     0.210 HD
ENDBRANCH  18  19
BRANCH  18  21
HETATM   21  C12 UNL     1      10.772   9.615  11.053  1.00  0.00     0.198 C 
BRANCH  21  22
HETATM   22  O6  UNL     1       9.832   8.570  10.800  1.00  0.00    -0.398 OA
HETATM   23  H   UNL     1       9.733   8.448   9.842  1.00  0.00     0.209 HD
ENDBRANCH  21  22
ENDBRANCH  18  21
ENDBRANCH  15  18
ENDBRANCH   1  15
TORSDOF 11
ENDMDL
MODEL 6
REMARK VINA RESULT:      -6.4      1.419      5.554
REMARK  11 active torsions:
REMARK  status: ('A' for Active; 'I' for Inactive)
REMARK    1  A    between atoms: C1_1  and  C2_2 
REMARK    2  A    between atoms: C1_1  and  C10_13 
REMARK    3  A    between atoms: C2_2  and  C3_3 
REMARK    4  A    between atoms: C3_3  and  C4_4 
REMARK    5  A    between atoms: C6_6  and  O1_7 
REMARK    6  A    between atoms: C7_8  and  O2_9 
REMARK    7  A    between atoms: C10_13  and  O4_14 
REMARK    8  A    between atoms: C10_13  and  C11_15 
REMARK    9  A    between atoms: C11_15  and  O5_16 
REMARK   10  A    between atoms: C11_15  and  C12_17 
REMARK   11  A    between atoms: C12_17  and  O6_18 
ROOT
HETATM    1  C1  UNL     1      12.401   6.882   7.686  1.00  0.00     0.158 C 
HETATM    2  O3  UNL     1      12.996   6.879   6.604  1.00  0.00    -0.295 OA
ENDROOT
BRANCH   1   3
HETATM    3  C2  UNL     1      13.168   7.012   8.990  1.00  0.00     0.086 C 
BRANCH   3   4
HETATM    4  C3  UNL     1      13.072   8.399   9.621  1.00  0.00     0.046 C 
BRANCH   4   5
HETATM    5  C4  UNL     1      12.381   8.409  10.964  1.00  0.00    -0.055 A 
HETATM    6  C5  UNL     1      12.670   7.428  11.927  1.00  0.00     0.046 A 
HETATM    7  C6  UNL     1      12.013   7.453  13.153  1.00  0.00     0.099 A 
HETATM    8  C7  UNL     1      11.078   8.445  13.431  1.00  0.00     0.098 A 
HETATM    9  C8  UNL     1      10.784   9.423  12.496  1.00  0.00     0.040 A 
HETATM   10  C9  UNL     1      11.437   9.407  11.263  1.00  0.00     0.010 A 
BRANCH   7  11
HETATM   11  O1  UNL     1      12.254   6.517  14.121  1.00  0.00    -0.358 OA
HETATM   12  H   UNL     1      12.970   5.919  14.027  1.00  0.00     0.217 HD
ENDBRANCH   7  11
BRANCH   8  13
HETATM   13  O2  UNL     1      10.438   8.460  14.638  1.00  0.00    -0.358 OA
HETATM   14  H   UNL     1       9.794   9.116  14.819  1.00  0.00     0.217 HD
ENDBRANCH   8  13
ENDBRANCH   4   5
ENDBRANCH   3   4
ENDBRANCH   1   3
BRANCH   1  15
HETATM   15  C10 UNL     1      10.874   6.810   7.760  1.00  0.00     0.218 C 
BRANCH  15  16
HETATM   16  O4  UNL     1      10.424   5.894   6.761  1.00  0.00    -0.385 OA
HETATM   17  H   UNL     1       9.879   5.207   7.174  1.00  0.00     0.210 HD
ENDBRANCH  15  16
BRANCH  15  18
HETATM   18  C11 UNL     1      10.402   6.384   9.166  1.00  0.00     0.177 C 
BRANCH  18  19
HETATM   19  O5  UNL     1       9.284   7.173   9.604  1.00  0.00    -0.390 OA
HETATM   20  H   UNL     1       9.226   7.142  10.572  1.00  0.00     0.210 HD
ENDBRANCH  18  19
BRANCH  18  21
HETATM   21  C12 UNL     1       9.938   4.921   9.180  1.00  0.00     0.198 C 
BRANCH  21  22
HETATM   22  O6  UNL     1       9.164   4.671  10.355  1.00  0.00    -0.398 OA
HETATM   23  H   UNL     1       8.737   5.493  10.643  1.00  0.00     0.209 HD
ENDBRANCH  21  22
ENDBRANCH  18  21
ENDBRANCH  15  18
ENDBRANCH   1  15
TORSDOF 11
ENDMDL
MODEL 7
REMARK VINA RESULT:      -6.3      2.612      4.089
REMARK  11 active torsions:
REMARK  status: ('A' for Active; 'I' for Inactive)
REMARK    1  A    between atoms: C1_1  and  C2_2 
REMARK    2  A    between atoms: C1_1  and  C10_13 
REMARK    3  A    between atoms: C2_2  and  C3_3 
REMARK    4  A    between atoms: C3_3  and  C4_4 
REMARK    5  A    between atoms: C6_6  and  O1_7 
REMARK    6  A    between atoms: C7_8  and  O2_9 
REMARK    7  A    between atoms: C10_13  and  O4_14 
REMARK    8  A    between atoms: C10_13  and  C11_15 
REMARK    9  A    between atoms: C11_15  and  O5_16 
REMARK   10  A    between atoms: C11_15  and  C12_17 
REMARK   11  A    between atoms: C12_17  and  O6_18 
ROOT
HETATM    1  C1  UNL     1      11.436   8.716  10.946  1.00  0.00     0.158 C 
HETATM    2  O3  UNL     1      10.290   9.121  10.728  1.00  0.00    -0.295 OA
ENDROOT
BRANCH   1   3
HETATM    3  C2  UNL     1      12.264   8.101   9.831  1.00  0.00     0.086 C 
BRANCH   3   4
HETATM    4  C3  UNL     1      13.167   6.962  10.297  1.00  0.00     0.046 C 
BRANCH   4   5
HETATM    5  C4  UNL     1      14.501   6.917   9.590  1.00  0.00    -0.055 A 
HETATM    6  C5  UNL     1      14.604   7.248   8.229  1.00  0.00     0.046 A 
HETATM    7  C6  UNL     1      15.842   7.188   7.598  1.00  0.00     0.099 A 
HETATM    8  C7  UNL     1      16.978   6.810   8.307  1.00  0.00     0.098 A 
HETATM    9  C8  UNL     1      16.897   6.484   9.651  1.00  0.00     0.040 A 
HETATM   10  C9  UNL     1      15.659   6.540  10.293  1.00  0.00     0.010 A 
BRANCH   7  11
HETATM   11  O1  UNL     1      15.994   7.494   6.273  1.00  0.00    -0.358 OA
HETATM   12  H   UNL     1      16.137   6.811   5.648  1.00  0.00     0.217 HD
ENDBRANCH   7  11
BRANCH   8  13
HETATM   13  O2  UNL     1      18.188   6.754   7.678  1.00  0.00    -0.358 OA
HETATM   14  H   UNL     1      18.308   7.185   6.854  1.00  0.00     0.217 HD
ENDBRANCH   8  13
ENDBRANCH   4   5
ENDBRANCH   3   4
ENDBRANCH   1   3
BRANCH   1  15
HETATM   15  C10 UNL     1      12.089   8.863  12.322  1.00  0.00     0.218 C 
BRANCH  15  16
HETATM   16  O4  UNL     1      12.202  10.257  12.612  1.00  0.00    -0.385 OA
HETATM   17  H   UNL     1      13.131  10.476  12.789  1.00  0.00     0.210 HD
ENDBRANCH  15  16
BRANCH  15  18
HETATM   18  C11 UNL     1      11.277   8.128  13.409  1.00  0.00     0.177 C 
BRANCH  18  19
HETATM   19  O5  UNL     1      10.279   7.273  12.827  1.00  0.00    -0.390 OA
HETATM   20  H   UNL     1       9.426   7.734  12.814  1.00  0.00     0.210 HD
ENDBRANCH  18  19
BRANCH  18  21
HETATM   21  C12 UNL     1      12.177   7.230  14.267  1.00  0.00     0.198 C 
BRANCH  21  22
HETATM   22  O6  UNL     1      11.869   7.417  15.650  1.00  0.00    -0.398 OA
HETATM   23  H   UNL     1      10.979   7.794  15.735  1.00  0.00     0.209 HD
ENDBRANCH  21  22
ENDBRANCH  18  21
ENDBRANCH  15  18
ENDBRANCH   1  15
TORSDOF 11
ENDMDL
MODEL 8
REMARK VINA RESULT:      -6.3      1.182      1.811
REMARK  11 active torsions:
REMARK  status: ('A' for Active; 'I' for Inactive)
REMARK    1  A    between atoms: C1_1  and  C2_2 
REMARK    2  A    between atoms: C1_1  and  C10_13 
REMARK    3  A    between atoms: C2_2  and  C3_3 
REMARK    4  A    between atoms: C3_3  and  C4_4 
REMARK    5  A    between atoms: C6_6  and  O1_7 
REMARK    6  A    between atoms: C7_8  and  O2_9 
REMARK    7  A    between atoms: C10_13  and  O4_14 
REMARK    8  A    between atoms: C10_13  and  C11_15 
REMARK    9  A    between atoms: C11_15  and  O5_16 
REMARK   10  A    between atoms: C11_15  and  C12_17 
REMARK   11  A    between atoms: C12_17  and  O6_18 
ROOT
HETATM    1  C1  UNL     1      14.161   7.945  12.417  1.00  0.00     0.158 C 
HETATM    2  O3  UNL     1      14.600   7.220  13.316  1.00  0.00    -0.295 OA
ENDROOT
BRANCH   1   3
HETATM    3  C2  UNL     1      14.772   7.907  11.027  1.00  0.00     0.086 C 
BRANCH   3   4
HETATM    4  C3  UNL     1      14.477   6.617  10.265  1.00  0.00     0.046 C 
BRANCH   4   5
HETATM    5  C4  UNL     1      13.286   6.716   9.340  1.00  0.00    -0.055 A 
HETATM    6  C5  UNL     1      11.982   6.534   9.829  1.00  0.00     0.046 A 
HETATM    7  C6  UNL     1      10.902   6.620   8.955  1.00  0.00     0.099 A 
HETATM    8  C7  UNL     1      11.107   6.890   7.606  1.00  0.00     0.098 A 
HETATM    9  C8  UNL     1      12.385   7.078   7.107  1.00  0.00     0.040 A 
HETATM   10  C9  UNL     1      13.475   6.993   7.974  1.00  0.00     0.010 A 
BRANCH   7  11
HETATM   11  O1  UNL     1       9.614   6.444   9.380  1.00  0.00    -0.358 OA
HETATM   12  H   UNL     1       9.280   6.959  10.088  1.00  0.00     0.217 HD
ENDBRANCH   7  11
BRANCH   8  13
HETATM   13  O2  UNL     1      10.040   6.972   6.758  1.00  0.00    -0.358 OA
HETATM   14  H   UNL     1       9.582   6.194   6.504  1.00  0.00     0.217 HD
ENDBRANCH   8  13
ENDBRANCH   4   5
ENDBRANCH   3   4
ENDBRANCH   1   3
BRANCH   1  15
HETATM   15  C10 UNL     1      12.960   8.865  12.645  1.00  0.00     0.218 C 
BRANCH  15  16
HETATM   16  O4  UNL     1      12.710   9.575  11.431  1.00  0.00    -0.385 OA
HETATM   17  H   UNL     1      13.521   9.604  10.900  1.00  0.00     0.210 HD
ENDBRANCH  15  16
BRANCH  15  18
HETATM   18  C11 UNL     1      11.720   8.065  13.094  1.00  0.00     0.177 C 
BRANCH  18  19
HETATM   19  O5  UNL     1      11.787   7.738  14.491  1.00  0.00    -0.390 OA
HETATM   20  H   UNL     1      11.770   8.554  15.016  1.00  0.00     0.210 HD
ENDBRANCH  18  19
BRANCH  18  21
HETATM   21  C12 UNL     1      10.431   8.874  12.895  1.00  0.00     0.198 C 
BRANCH  21  22
HETATM   22  O6  UNL     1       9.886   8.605  11.602  1.00  0.00    -0.398 OA
HETATM   23  H   UNL     1       9.838   9.429  11.093  1.00  0.00     0.209 HD
ENDBRANCH  21  22
ENDBRANCH  18  21
ENDBRANCH  15  18
ENDBRANCH   1  15
TORSDOF 11
ENDMDL
MODEL 9
REMARK VINA RESULT:      -6.3      2.793      6.219
REMARK  11 active torsions:
REMARK  status: ('A' for Active; 'I' for Inactive)
REMARK    1  A    between atoms: C1_1  and  C2_2 
REMARK    2  A    between atoms: C1_1  and  C10_13 
REMARK    3  A    between atoms: C2_2  and  C3_3 
REMARK    4  A    between atoms: C3_3  and  C4_4 
REMARK    5  A    between atoms: C6_6  and  O1_7 
REMARK    6  A    between atoms: C7_8  and  O2_9 
REMARK    7  A    between atoms: C10_13  and  O4_14 
REMARK    8  A    between atoms: C10_13  and  C11_15 
REMARK    9  A    between atoms: C11_15  and  O5_16 
REMARK   10  A    between atoms: C11_15  and  C12_17 
REMARK   11  A    between atoms: C12_17  and  O6_18 
ROOT
HETATM    1  C1  UNL     1      13.525   6.935   7.889  1.00  0.00     0.158 C 
HETATM    2  O3  UNL     1      13.425   6.755   6.671  1.00  0.00    -0.295 OA
ENDROOT
BRANCH   1   3
HETATM    3  C2  UNL     1      12.342   6.680   8.807  1.00  0.00     0.086 C 
BRANCH   3   4
HETATM    4  C3  UNL     1      11.589   7.948   9.201  1.00  0.00     0.046 C 
BRANCH   4   5
HETATM    5  C4  UNL     1      11.357   8.080  10.688  1.00  0.00    -0.055 A 
HETATM    6  C5  UNL     1      11.803   7.086  11.575  1.00  0.00     0.046 A 
HETATM    7  C6  UNL     1      11.568   7.225  12.939  1.00  0.00     0.099 A 
HETATM    8  C7  UNL     1      10.903   8.344  13.429  1.00  0.00     0.098 A 
HETATM    9  C8  UNL     1      10.461   9.338  12.571  1.00  0.00     0.040 A 
HETATM   10  C9  UNL     1      10.690   9.207  11.200  1.00  0.00     0.010 A 
BRANCH   7  11
HETATM   11  O1  UNL     1      11.976   6.282  13.842  1.00  0.00    -0.358 OA
HETATM   12  H   UNL     1      11.345   5.847  14.382  1.00  0.00     0.217 HD
ENDBRANCH   7  11
BRANCH   8  13
HETATM   13  O2  UNL     1      10.677   8.471  14.770  1.00  0.00    -0.358 OA
HETATM   14  H   UNL     1       9.829   8.719  15.081  1.00  0.00     0.217 HD
ENDBRANCH   8  13
ENDBRANCH   4   5
ENDBRANCH   3   4
ENDBRANCH   1   3
BRANCH   1  15
HETATM   15  C10 UNL     1      14.846   7.367   8.529  1.00  0.00     0.218 C 
BRANCH  15  16
HETATM   16  O4  UNL     1      14.933   6.758   9.818  1.00  0.00    -0.385 OA
HETATM   17  H   UNL     1      14.312   6.014   9.867  1.00  0.00     0.210 HD
ENDBRANCH  15  16
BRANCH  15  18
HETATM   18  C11 UNL     1      16.049   6.981   7.644  1.00  0.00     0.177 C 
BRANCH  18  19
HETATM   19  O5  UNL     1      16.203   7.894   6.545  1.00  0.00    -0.390 OA
HETATM   20  H   UNL     1      17.031   8.389   6.650  1.00  0.00     0.210 HD
ENDBRANCH  18  19
BRANCH  18  21
HETATM   21  C12 UNL     1      17.362   7.024   8.436  1.00  0.00     0.198 C 
BRANCH  21  22
HETATM   22  O6  UNL     1      18.439   6.569   7.613  1.00  0.00    -0.398 OA
HETATM   23  H   UNL     1      18.087   6.017   6.896  1.00  0.00     0.209 HD
ENDBRANCH  21  22
ENDBRANCH  18  21
ENDBRANCH  15  18
ENDBRANCH   1  15
TORSDOF 11
ENDMDL
