MODEL 1
REMARK VINA RESULT:      -5.9      0.000      0.000
REMARK  4 active torsions:
REMARK  status: ('A' for Active; 'I' for Inactive)
REMARK    1  A    between atoms: O_1  and  C_11 
REMARK    2  A    between atoms: C_4  and  C_5 
REMARK    3  A    between atoms: C_4  and  C_6 
REMARK    4  A    between atoms: C_6  and  C_12 
ROOT
ATOM      1  O   UNL A   1       8.294  -0.936  58.236  1.00  0.00    -0.361 OA
ATOM      2  H   UNL A   1       9.182  -1.119  58.470  1.00  0.00     0.217 HD
ENDROOT
BRANCH   1   3
ATOM      3  C   UNL A   1       7.423  -1.959  58.022  1.00  0.00     0.065 A 
ATOM      4  C   UNL A   1       6.556  -1.921  56.930  1.00  0.00     0.037 A 
ATOM      5  C   UNL A   1       5.663  -2.969  56.710  1.00  0.00     0.010 A 
ATOM      6  C   UNL A   1       5.635  -4.057  57.584  1.00  0.00    -0.058 A 
ATOM      7  C   UNL A   1       6.501  -4.095  58.676  1.00  0.00     0.010 A 
ATOM      8  C   UNL A   1       7.395  -3.047  58.896  1.00  0.00     0.037 A 
BRANCH   6   9
ATOM      9  C   UNL A   1       4.680  -5.177  57.349  1.00  0.00     0.049 C 
BRANCH   9  10
ATOM     10  C   UNL A   1       3.219  -4.815  57.641  1.00  0.00     0.117 C 
BRANCH  10  11
ATOM     11  C   UNL A   1       2.807  -5.236  59.031  1.00  0.00     0.172 C 
ATOM     12  O   UNL A   1       3.476  -6.331  59.471  1.00  0.00    -0.648 OA
ATOM     13  O   UNL A   1       1.978  -4.639  59.705  1.00  0.00    -0.648 OA
ENDBRANCH  10  11
ENDBRANCH   9  10
ENDBRANCH   6   9
ENDBRANCH   1   3
TORSDOF 4
ENDMDL
MODEL 2
REMARK VINA RESULT:      -5.8      1.057      1.273
REMARK  4 active torsions:
REMARK  status: ('A' for Active; 'I' for Inactive)
REMARK    1  A    between atoms: O_1  and  C_11 
REMARK    2  A    between atoms: C_4  and  C_5 
REMARK    3  A    between atoms: C_4  and  C_6 
REMARK    4  A    between atoms: C_6  and  C_12 
ROOT
ATOM      1  O   UNL A   1       8.441  -1.586  57.957  1.00  0.00    -0.361 OA
ATOM      2  H   UNL A   1       9.308  -1.623  58.311  1.00  0.00     0.217 HD
ENDROOT
BRANCH   1   3
ATOM      3  C   UNL A   1       7.559  -2.590  58.214  1.00  0.00     0.065 A 
ATOM      4  C   UNL A   1       6.558  -2.892  57.291  1.00  0.00     0.037 A 
ATOM      5  C   UNL A   1       5.653  -3.920  57.553  1.00  0.00     0.010 A 
ATOM      6  C   UNL A   1       5.748  -4.646  58.741  1.00  0.00    -0.058 A 
ATOM      7  C   UNL A   1       6.749  -4.344  59.664  1.00  0.00     0.010 A 
ATOM      8  C   UNL A   1       7.654  -3.316  59.401  1.00  0.00     0.037 A 
BRANCH   6   9
ATOM      9  C   UNL A   1       4.781  -5.746  59.021  1.00  0.00     0.049 C 
BRANCH   9  10
ATOM     10  C   UNL A   1       3.581  -5.771  58.068  1.00  0.00     0.117 C 
BRANCH  10  11
ATOM     11  C   UNL A   1       2.334  -5.231  58.727  1.00  0.00     0.172 C 
ATOM     12  O   UNL A   1       1.201  -5.556  58.057  1.00  0.00    -0.648 OA
ATOM     13  O   UNL A   1       2.338  -4.591  59.770  1.00  0.00    -0.648 OA
ENDBRANCH  10  11
ENDBRANCH   9  10
ENDBRANCH   6   9
ENDBRANCH   1   3
TORSDOF 4
ENDMDL
MODEL 3
REMARK VINA RESULT:      -5.8      1.031      1.844
REMARK  4 active torsions:
REMARK  status: ('A' for Active; 'I' for Inactive)
REMARK    1  A    between atoms: O_1  and  C_11 
REMARK    2  A    between atoms: C_4  and  C_5 
REMARK    3  A    between atoms: C_4  and  C_6 
REMARK    4  A    between atoms: C_6  and  C_12 
ROOT
ATOM      1  O   UNL A   1       8.476  -1.682  57.907  1.00  0.00    -0.361 OA
ATOM      2  H   UNL A   1       9.180  -1.555  58.513  1.00  0.00     0.217 HD
ENDROOT
BRANCH   1   3
ATOM      3  C   UNL A   1       7.551  -2.653  58.135  1.00  0.00     0.065 A 
ATOM      4  C   UNL A   1       7.565  -3.364  59.335  1.00  0.00     0.037 A 
ATOM      5  C   UNL A   1       6.618  -4.360  59.568  1.00  0.00     0.010 A 
ATOM      6  C   UNL A   1       5.654  -4.647  58.600  1.00  0.00    -0.058 A 
ATOM      7  C   UNL A   1       5.640  -3.936  57.401  1.00  0.00     0.010 A 
ATOM      8  C   UNL A   1       6.587  -2.940  57.167  1.00  0.00     0.037 A 
BRANCH   6   9
ATOM      9  C   UNL A   1       4.641  -5.711  58.850  1.00  0.00     0.049 C 
BRANCH   9  10
ATOM     10  C   UNL A   1       3.455  -5.675  57.879  1.00  0.00     0.117 C 
BRANCH  10  11
ATOM     11  C   UNL A   1       2.179  -5.261  58.572  1.00  0.00     0.172 C 
ATOM     12  O   UNL A   1       2.401  -4.599  59.735  1.00  0.00    -0.648 OA
ATOM     13  O   UNL A   1       1.060  -5.475  58.124  1.00  0.00    -0.648 OA
ENDBRANCH  10  11
ENDBRANCH   9  10
ENDBRANCH   6   9
ENDBRANCH   1   3
TORSDOF 4
ENDMDL
MODEL 4
REMARK VINA RESULT:      -5.8      1.121      1.816
REMARK  4 active torsions:
REMARK  status: ('A' for Active; 'I' for Inactive)
REMARK    1  A    between atoms: O_1  and  C_11 
REMARK    2  A    between atoms: C_4  and  C_5 
REMARK    3  A    between atoms: C_4  and  C_6 
REMARK    4  A    between atoms: C_6  and  C_12 
ROOT
ATOM      1  O   UNL A   1       8.437  -0.898  58.257  1.00  0.00    -0.361 OA
ATOM      2  H   UNL A   1       8.386  -0.317  58.991  1.00  0.00     0.217 HD
ENDROOT
BRANCH   1   3
ATOM      3  C   UNL A   1       7.399  -1.731  57.976  1.00  0.00     0.065 A 
ATOM      4  C   UNL A   1       7.441  -3.062  58.390  1.00  0.00     0.037 A 
ATOM      5  C   UNL A   1       6.378  -3.917  58.101  1.00  0.00     0.010 A 
ATOM      6  C   UNL A   1       5.271  -3.441  57.397  1.00  0.00    -0.058 A 
ATOM      7  C   UNL A   1       5.229  -2.109  56.984  1.00  0.00     0.010 A 
ATOM      8  C   UNL A   1       6.292  -1.254  57.272  1.00  0.00     0.037 A 
BRANCH   6   9
ATOM      9  C   UNL A   1       4.133  -4.354  57.089  1.00  0.00     0.049 C 
BRANCH   9  10
ATOM     10  C   UNL A   1       3.377  -4.840  58.331  1.00  0.00     0.117 C 
BRANCH  10  11
ATOM     11  C   UNL A   1       3.632  -6.303  58.602  1.00  0.00     0.172 C 
ATOM     12  O   UNL A   1       4.317  -6.514  59.753  1.00  0.00    -0.648 OA
ATOM     13  O   UNL A   1       3.242  -7.208  57.876  1.00  0.00    -0.648 OA
ENDBRANCH  10  11
ENDBRANCH   9  10
ENDBRANCH   6   9
ENDBRANCH   1   3
TORSDOF 4
ENDMDL
MODEL 5
REMARK VINA RESULT:      -5.8      1.354      2.074
REMARK  4 active torsions:
REMARK  status: ('A' for Active; 'I' for Inactive)
REMARK    1  A    between atoms: O_1  and  C_11 
REMARK    2  A    between atoms: C_4  and  C_5 
REMARK    3  A    between atoms: C_4  and  C_6 
REMARK    4  A    between atoms: C_6  and  C_12 
ROOT
ATOM      1  O   UNL A   1       8.703  -3.046  59.871  1.00  0.00    -0.361 OA
ATOM      2  H   UNL A   1       9.543  -3.076  59.457  1.00  0.00     0.217 HD
ENDROOT
BRANCH   1   3
ATOM      3  C   UNL A   1       7.609  -3.533  59.225  1.00  0.00     0.065 A 
ATOM      4  C   UNL A   1       6.753  -4.422  59.875  1.00  0.00     0.037 A 
ATOM      5  C   UNL A   1       5.632  -4.923  59.214  1.00  0.00     0.010 A 
ATOM      6  C   UNL A   1       5.366  -4.535  57.900  1.00  0.00    -0.058 A 
ATOM      7  C   UNL A   1       6.222  -3.646  57.250  1.00  0.00     0.010 A 
ATOM      8  C   UNL A   1       7.343  -3.145  57.911  1.00  0.00     0.037 A 
BRANCH   6   9
ATOM      9  C   UNL A   1       4.168  -5.069  57.193  1.00  0.00     0.049 C 
BRANCH   9  10
ATOM     10  C   UNL A   1       3.409  -6.139  57.986  1.00  0.00     0.117 C 
BRANCH  10  11
ATOM     11  C   UNL A   1       2.137  -5.589  58.588  1.00  0.00     0.172 C 
ATOM     12  O   UNL A   1       1.024  -5.985  57.921  1.00  0.00    -0.648 OA
ATOM     13  O   UNL A   1       2.107  -4.883  59.587  1.00  0.00    -0.648 OA
ENDBRANCH  10  11
ENDBRANCH   9  10
ENDBRANCH   6   9
ENDBRANCH   1   3
TORSDOF 4
ENDMDL
MODEL 6
REMARK VINA RESULT:      -5.6      2.725      4.929
REMARK  4 active torsions:
REMARK  status: ('A' for Active; 'I' for Inactive)
REMARK    1  A    between atoms: O_1  and  C_11 
REMARK    2  A    between atoms: C_4  and  C_5 
REMARK    3  A    between atoms: C_4  and  C_6 
REMARK    4  A    between atoms: C_6  and  C_12 
ROOT
ATOM      1  O   UNL A   1       6.810  -5.368  60.508  1.00  0.00    -0.361 OA
ATOM      2  H   UNL A   1       6.675  -6.248  60.215  1.00  0.00     0.217 HD
ENDROOT
BRANCH   1   3
ATOM      3  C   UNL A   1       6.675  -4.333  59.636  1.00  0.00     0.065 A 
ATOM      4  C   UNL A   1       7.788  -3.573  59.277  1.00  0.00     0.037 A 
ATOM      5  C   UNL A   1       7.650  -2.511  58.384  1.00  0.00     0.010 A 
ATOM      6  C   UNL A   1       6.397  -2.208  57.848  1.00  0.00    -0.058 A 
ATOM      7  C   UNL A   1       5.284  -2.968  58.208  1.00  0.00     0.010 A 
ATOM      8  C   UNL A   1       5.422  -4.030  59.101  1.00  0.00     0.037 A 
BRANCH   6   9
ATOM      9  C   UNL A   1       6.249  -1.073  56.893  1.00  0.00     0.049 C 
BRANCH   9  10
ATOM     10  C   UNL A   1       5.818   0.240  57.556  1.00  0.00     0.117 C 
BRANCH  10  11
ATOM     11  C   UNL A   1       4.816   0.988  56.710  1.00  0.00     0.172 C 
ATOM     12  O   UNL A   1       4.143   1.939  57.405  1.00  0.00    -0.648 OA
ATOM     13  O   UNL A   1       4.643   0.782  55.516  1.00  0.00    -0.648 OA
ENDBRANCH  10  11
ENDBRANCH   9  10
ENDBRANCH   6   9
ENDBRANCH   1   3
TORSDOF 4
ENDMDL
MODEL 7
REMARK VINA RESULT:      -5.5      1.687      5.329
REMARK  4 active torsions:
REMARK  status: ('A' for Active; 'I' for Inactive)
REMARK    1  A    between atoms: O_1  and  C_11 
REMARK    2  A    between atoms: C_4  and  C_5 
REMARK    3  A    between atoms: C_4  and  C_6 
REMARK    4  A    between atoms: C_6  and  C_12 
ROOT
ATOM      1  O   UNL A   1       2.735  -7.560  57.909  1.00  0.00    -0.361 OA
ATOM      2  H   UNL A   1       2.742  -8.231  57.255  1.00  0.00     0.217 HD
ENDROOT
BRANCH   1   3
ATOM      3  C   UNL A   1       3.594  -6.509  57.812  1.00  0.00     0.065 A 
ATOM      4  C   UNL A   1       4.298  -6.078  58.937  1.00  0.00     0.037 A 
ATOM      5  C   UNL A   1       5.178  -5.000  58.839  1.00  0.00     0.010 A 
ATOM      6  C   UNL A   1       5.354  -4.352  57.616  1.00  0.00    -0.058 A 
ATOM      7  C   UNL A   1       4.651  -4.784  56.492  1.00  0.00     0.010 A 
ATOM      8  C   UNL A   1       3.771  -5.861  56.589  1.00  0.00     0.037 A 
BRANCH   6   9
ATOM      9  C   UNL A   1       6.295  -3.201  57.511  1.00  0.00     0.049 C 
BRANCH   9  10
ATOM     10  C   UNL A   1       5.643  -1.843  57.797  1.00  0.00     0.117 C 
BRANCH  10  11
ATOM     11  C   UNL A   1       6.609  -0.704  57.577  1.00  0.00     0.172 C 
ATOM     12  O   UNL A   1       7.739  -0.819  58.319  1.00  0.00    -0.648 OA
ATOM     13  O   UNL A   1       6.412   0.216  56.794  1.00  0.00    -0.648 OA
ENDBRANCH  10  11
ENDBRANCH   9  10
ENDBRANCH   6   9
ENDBRANCH   1   3
TORSDOF 4
ENDMDL
MODEL 8
REMARK VINA RESULT:      -5.5      1.387      4.706
REMARK  4 active torsions:
REMARK  status: ('A' for Active; 'I' for Inactive)
REMARK    1  A    between atoms: O_1  and  C_11 
REMARK    2  A    between atoms: C_4  and  C_5 
REMARK    3  A    between atoms: C_4  and  C_6 
REMARK    4  A    between atoms: C_6  and  C_12 
ROOT
ATOM      1  O   UNL A   1       3.895  -6.676  59.493  1.00  0.00    -0.361 OA
ATOM      2  H   UNL A   1       3.236  -6.424  60.110  1.00  0.00     0.217 HD
ENDROOT
BRANCH   1   3
ATOM      3  C   UNL A   1       4.555  -5.724  58.778  1.00  0.00     0.065 A 
ATOM      4  C   UNL A   1       4.175  -5.448  57.465  1.00  0.00     0.037 A 
ATOM      5  C   UNL A   1       4.851  -4.474  56.732  1.00  0.00     0.010 A 
ATOM      6  C   UNL A   1       5.911  -3.775  57.312  1.00  0.00    -0.058 A 
ATOM      7  C   UNL A   1       6.292  -4.051  58.625  1.00  0.00     0.010 A 
ATOM      8  C   UNL A   1       5.615  -5.025  59.358  1.00  0.00     0.037 A 
BRANCH   6   9
ATOM      9  C   UNL A   1       6.635  -2.733  56.529  1.00  0.00     0.049 C 
BRANCH   9  10
ATOM     10  C   UNL A   1       5.820  -1.455  56.301  1.00  0.00     0.117 C 
BRANCH  10  11
ATOM     11  C   UNL A   1       6.123  -0.407  57.345  1.00  0.00     0.172 C 
ATOM     12  O   UNL A   1       7.282  -0.644  58.008  1.00  0.00    -0.648 OA
ATOM     13  O   UNL A   1       5.416   0.569  57.556  1.00  0.00    -0.648 OA
ENDBRANCH  10  11
ENDBRANCH   9  10
ENDBRANCH   6   9
ENDBRANCH   1   3
TORSDOF 4
ENDMDL
MODEL 9
REMARK VINA RESULT:      -5.5      2.050      5.497
REMARK  4 active torsions:
REMARK  status: ('A' for Active; 'I' for Inactive)
REMARK    1  A    between atoms: O_1  and  C_11 
REMARK    2  A    between atoms: C_4  and  C_5 
REMARK    3  A    between atoms: C_4  and  C_6 
REMARK    4  A    between atoms: C_6  and  C_12 
ROOT
ATOM      1  O   UNL A   1       1.791  -7.703  57.043  1.00  0.00    -0.361 OA
ATOM      2  H   UNL A   1       1.122  -7.493  56.422  1.00  0.00     0.217 HD
ENDROOT
BRANCH   1   3
ATOM      3  C   UNL A   1       2.798  -6.820  57.283  1.00  0.00     0.065 A 
ATOM      4  C   UNL A   1       3.321  -6.690  58.570  1.00  0.00     0.037 A 
ATOM      5  C   UNL A   1       4.351  -5.785  58.817  1.00  0.00     0.010 A 
ATOM      6  C   UNL A   1       4.861  -5.007  57.776  1.00  0.00    -0.058 A 
ATOM      7  C   UNL A   1       4.338  -5.136  56.490  1.00  0.00     0.010 A 
ATOM      8  C   UNL A   1       3.307  -6.042  56.243  1.00  0.00     0.037 A 
BRANCH   6   9
ATOM      9  C   UNL A   1       5.964  -4.039  58.040  1.00  0.00     0.049 C 
BRANCH   9  10
ATOM     10  C   UNL A   1       6.622  -4.212  59.414  1.00  0.00     0.117 C 
BRANCH  10  11
ATOM     11  C   UNL A   1       7.919  -3.445  59.510  1.00  0.00     0.172 C 
ATOM     12  O   UNL A   1       7.940  -2.342  58.721  1.00  0.00    -0.648 OA
ATOM     13  O   UNL A   1       8.847  -3.765  60.242  1.00  0.00    -0.648 OA
ENDBRANCH  10  11
ENDBRANCH   9  10
ENDBRANCH   6   9
ENDBRANCH   1   3
TORSDOF 4
ENDMDL
