MODEL 1
REMARK VINA RESULT:      -5.9      0.000      0.000
REMARK  4 active torsions:
REMARK  status: ('A' for Active; 'I' for Inactive)
REMARK    1  A    between atoms: O_1  and  C_11 
REMARK    2  A    between atoms: C_4  and  C_5 
REMARK    3  A    between atoms: C_4  and  C_6 
REMARK    4  A    between atoms: C_6  and  C_12 
ROOT
ATOM      1  O   UNL A   1       8.496  -2.760  59.473  1.00  0.00    -0.361 OA
ATOM      2  H   UNL A   1       9.359  -2.976  59.180  1.00  0.00     0.217 HD
ENDROOT
BRANCH   1   3
ATOM      3  C   UNL A   1       7.421  -3.427  58.970  1.00  0.00     0.065 A 
ATOM      4  C   UNL A   1       7.012  -3.201  57.656  1.00  0.00     0.037 A 
ATOM      5  C   UNL A   1       5.911  -3.883  57.140  1.00  0.00     0.010 A 
ATOM      6  C   UNL A   1       5.216  -4.792  57.940  1.00  0.00    -0.058 A 
ATOM      7  C   UNL A   1       5.625  -5.017  59.254  1.00  0.00     0.010 A 
ATOM      8  C   UNL A   1       6.726  -4.335  59.770  1.00  0.00     0.037 A 
BRANCH   6   9
ATOM      9  C   UNL A   1       4.039  -5.522  57.389  1.00  0.00     0.049 C 
BRANCH   9  10
ATOM     10  C   UNL A   1       3.193  -6.225  58.457  1.00  0.00     0.117 C 
BRANCH  10  11
ATOM     11  C   UNL A   1       2.052  -5.355  58.927  1.00  0.00     0.172 C 
ATOM     12  O   UNL A   1       0.882  -5.638  58.302  1.00  0.00    -0.648 OA
ATOM     13  O   UNL A   1       2.160  -4.503  59.798  1.00  0.00    -0.648 OA
ENDBRANCH  10  11
ENDBRANCH   9  10
ENDBRANCH   6   9
ENDBRANCH   1   3
TORSDOF 4
ENDMDL
MODEL 2
REMARK VINA RESULT:      -5.8      1.655      2.113
REMARK  4 active torsions:
REMARK  status: ('A' for Active; 'I' for Inactive)
REMARK    1  A    between atoms: O_1  and  C_11 
REMARK    2  A    between atoms: C_4  and  C_5 
REMARK    3  A    between atoms: C_4  and  C_6 
REMARK    4  A    between atoms: C_6  and  C_12 
ROOT
ATOM      1  O   UNL A   1       8.432  -0.903  58.253  1.00  0.00    -0.361 OA
ATOM      2  H   UNL A   1       9.172  -1.262  58.701  1.00  0.00     0.217 HD
ENDROOT
BRANCH   1   3
ATOM      3  C   UNL A   1       7.354  -1.688  57.982  1.00  0.00     0.065 A 
ATOM      4  C   UNL A   1       6.172  -1.113  57.516  1.00  0.00     0.037 A 
ATOM      5  C   UNL A   1       5.066  -1.916  57.240  1.00  0.00     0.010 A 
ATOM      6  C   UNL A   1       5.142  -3.297  57.431  1.00  0.00    -0.058 A 
ATOM      7  C   UNL A   1       6.324  -3.871  57.898  1.00  0.00     0.010 A 
ATOM      8  C   UNL A   1       7.430  -3.068  58.174  1.00  0.00     0.037 A 
BRANCH   6   9
ATOM      9  C   UNL A   1       3.960  -4.156  57.136  1.00  0.00     0.049 C 
BRANCH   9  10
ATOM     10  C   UNL A   1       4.144  -5.621  57.547  1.00  0.00     0.117 C 
BRANCH  10  11
ATOM     11  C   UNL A   1       3.616  -5.880  58.938  1.00  0.00     0.172 C 
ATOM     12  O   UNL A   1       4.512  -6.519  59.732  1.00  0.00    -0.648 OA
ATOM     13  O   UNL A   1       2.509  -5.528  59.323  1.00  0.00    -0.648 OA
ENDBRANCH  10  11
ENDBRANCH   9  10
ENDBRANCH   6   9
ENDBRANCH   1   3
TORSDOF 4
ENDMDL
MODEL 3
REMARK VINA RESULT:      -5.8      0.839      1.409
REMARK  4 active torsions:
REMARK  status: ('A' for Active; 'I' for Inactive)
REMARK    1  A    between atoms: O_1  and  C_11 
REMARK    2  A    between atoms: C_4  and  C_5 
REMARK    3  A    between atoms: C_4  and  C_6 
REMARK    4  A    between atoms: C_6  and  C_12 
ROOT
ATOM      1  O   UNL A   1       8.460  -1.628  57.928  1.00  0.00    -0.361 OA
ATOM      2  H   UNL A   1       8.235  -0.890  57.397  1.00  0.00     0.217 HD
ENDROOT
BRANCH   1   3
ATOM      3  C   UNL A   1       7.543  -2.608  58.154  1.00  0.00     0.065 A 
ATOM      4  C   UNL A   1       6.558  -2.874  57.204  1.00  0.00     0.037 A 
ATOM      5  C   UNL A   1       5.617  -3.878  57.435  1.00  0.00     0.010 A 
ATOM      6  C   UNL A   1       5.662  -4.617  58.618  1.00  0.00    -0.058 A 
ATOM      7  C   UNL A   1       6.647  -4.351  59.568  1.00  0.00     0.010 A 
ATOM      8  C   UNL A   1       7.588  -3.347  59.337  1.00  0.00     0.037 A 
BRANCH   6   9
ATOM      9  C   UNL A   1       4.657  -5.690  58.865  1.00  0.00     0.049 C 
BRANCH   9  10
ATOM     10  C   UNL A   1       3.497  -5.692  57.863  1.00  0.00     0.117 C 
BRANCH  10  11
ATOM     11  C   UNL A   1       2.184  -5.359  58.530  1.00  0.00     0.172 C 
ATOM     12  O   UNL A   1       2.339  -4.653  59.678  1.00  0.00    -0.648 OA
ATOM     13  O   UNL A   1       1.090  -5.668  58.075  1.00  0.00    -0.648 OA
ENDBRANCH  10  11
ENDBRANCH   9  10
ENDBRANCH   6   9
ENDBRANCH   1   3
TORSDOF 4
ENDMDL
MODEL 4
REMARK VINA RESULT:      -5.7      3.350      4.661
REMARK  4 active torsions:
REMARK  status: ('A' for Active; 'I' for Inactive)
REMARK    1  A    between atoms: O_1  and  C_11 
REMARK    2  A    between atoms: C_4  and  C_5 
REMARK    3  A    between atoms: C_4  and  C_6 
REMARK    4  A    between atoms: C_6  and  C_12 
ROOT
ATOM      1  O   UNL A   1       7.714  -5.441  60.900  1.00  0.00    -0.361 OA
ATOM      2  H   UNL A   1       7.364  -6.310  60.924  1.00  0.00     0.217 HD
ENDROOT
BRANCH   1   3
ATOM      3  C   UNL A   1       7.240  -4.543  59.994  1.00  0.00     0.065 A 
ATOM      4  C   UNL A   1       8.062  -3.514  59.535  1.00  0.00     0.037 A 
ATOM      5  C   UNL A   1       7.577  -2.592  58.608  1.00  0.00     0.010 A 
ATOM      6  C   UNL A   1       6.267  -2.699  58.139  1.00  0.00    -0.058 A 
ATOM      7  C   UNL A   1       5.444  -3.727  58.598  1.00  0.00     0.010 A 
ATOM      8  C   UNL A   1       5.930  -4.649  59.525  1.00  0.00     0.037 A 
BRANCH   6   9
ATOM      9  C   UNL A   1       5.748  -1.714  57.148  1.00  0.00     0.049 C 
BRANCH   9  10
ATOM     10  C   UNL A   1       5.977  -0.253  57.550  1.00  0.00     0.117 C 
BRANCH  10  11
ATOM     11  C   UNL A   1       5.057   0.682  56.803  1.00  0.00     0.172 C 
ATOM     12  O   UNL A   1       4.438   1.574  57.617  1.00  0.00    -0.648 OA
ATOM     13  O   UNL A   1       4.901   0.660  55.589  1.00  0.00    -0.648 OA
ENDBRANCH  10  11
ENDBRANCH   9  10
ENDBRANCH   6   9
ENDBRANCH   1   3
TORSDOF 4
ENDMDL
MODEL 5
REMARK VINA RESULT:      -5.7      2.112      4.920
REMARK  4 active torsions:
REMARK  status: ('A' for Active; 'I' for Inactive)
REMARK    1  A    between atoms: O_1  and  C_11 
REMARK    2  A    between atoms: C_4  and  C_5 
REMARK    3  A    between atoms: C_4  and  C_6 
REMARK    4  A    between atoms: C_6  and  C_12 
ROOT
ATOM      1  O   UNL A   1       3.923  -6.570  59.506  1.00  0.00    -0.361 OA
ATOM      2  H   UNL A   1       3.765  -6.462  60.424  1.00  0.00     0.217 HD
ENDROOT
BRANCH   1   3
ATOM      3  C   UNL A   1       4.668  -5.651  58.833  1.00  0.00     0.065 A 
ATOM      4  C   UNL A   1       5.715  -4.993  59.478  1.00  0.00     0.037 A 
ATOM      5  C   UNL A   1       6.478  -4.051  58.790  1.00  0.00     0.010 A 
ATOM      6  C   UNL A   1       6.193  -3.765  57.453  1.00  0.00    -0.058 A 
ATOM      7  C   UNL A   1       5.146  -4.423  56.808  1.00  0.00     0.010 A 
ATOM      8  C   UNL A   1       4.383  -5.365  57.497  1.00  0.00     0.037 A 
BRANCH   6   9
ATOM      9  C   UNL A   1       7.009  -2.758  56.716  1.00  0.00     0.049 C 
BRANCH   9  10
ATOM     10  C   UNL A   1       6.265  -1.447  56.436  1.00  0.00     0.117 C 
BRANCH  10  11
ATOM     11  C   UNL A   1       6.473  -0.440  57.542  1.00  0.00     0.172 C 
ATOM     12  O   UNL A   1       7.618  -0.651  58.238  1.00  0.00    -0.648 OA
ATOM     13  O   UNL A   1       5.708   0.486  57.774  1.00  0.00    -0.648 OA
ENDBRANCH  10  11
ENDBRANCH   9  10
ENDBRANCH   6   9
ENDBRANCH   1   3
TORSDOF 4
ENDMDL
MODEL 6
REMARK VINA RESULT:      -5.5      2.593      4.806
REMARK  4 active torsions:
REMARK  status: ('A' for Active; 'I' for Inactive)
REMARK    1  A    between atoms: O_1  and  C_11 
REMARK    2  A    between atoms: C_4  and  C_5 
REMARK    3  A    between atoms: C_4  and  C_6 
REMARK    4  A    between atoms: C_6  and  C_12 
ROOT
ATOM      1  O   UNL A   1       4.098  -6.603  59.453  1.00  0.00    -0.361 OA
ATOM      2  H   UNL A   1       3.251  -6.845  59.134  1.00  0.00     0.217 HD
ENDROOT
BRANCH   1   3
ATOM      3  C   UNL A   1       4.791  -5.599  58.849  1.00  0.00     0.065 A 
ATOM      4  C   UNL A   1       4.459  -5.203  57.554  1.00  0.00     0.037 A 
ATOM      5  C   UNL A   1       5.169  -4.175  56.934  1.00  0.00     0.010 A 
ATOM      6  C   UNL A   1       6.212  -3.542  57.610  1.00  0.00    -0.058 A 
ATOM      7  C   UNL A   1       6.544  -3.938  58.906  1.00  0.00     0.010 A 
ATOM      8  C   UNL A   1       5.834  -4.965  59.525  1.00  0.00     0.037 A 
BRANCH   6   9
ATOM      9  C   UNL A   1       6.971  -2.443  56.948  1.00  0.00     0.049 C 
BRANCH   9  10
ATOM     10  C   UNL A   1       6.926  -1.114  57.712  1.00  0.00     0.117 C 
BRANCH  10  11
ATOM     11  C   UNL A   1       6.077  -0.090  56.999  1.00  0.00     0.172 C 
ATOM     12  O   UNL A   1       6.209  -0.142  55.650  1.00  0.00    -0.648 OA
ATOM     13  O   UNL A   1       5.326   0.691  57.570  1.00  0.00    -0.648 OA
ENDBRANCH  10  11
ENDBRANCH   9  10
ENDBRANCH   6   9
ENDBRANCH   1   3
TORSDOF 4
ENDMDL
MODEL 7
REMARK VINA RESULT:      -5.5      1.767      5.405
REMARK  4 active torsions:
REMARK  status: ('A' for Active; 'I' for Inactive)
REMARK    1  A    between atoms: O_1  and  C_11 
REMARK    2  A    between atoms: C_4  and  C_5 
REMARK    3  A    between atoms: C_4  and  C_6 
REMARK    4  A    between atoms: C_6  and  C_12 
ROOT
ATOM      1  O   UNL A   1       1.938  -7.679  56.887  1.00  0.00    -0.361 OA
ATOM      2  H   UNL A   1       1.116  -7.375  56.556  1.00  0.00     0.217 HD
ENDROOT
BRANCH   1   3
ATOM      3  C   UNL A   1       2.913  -6.786  57.208  1.00  0.00     0.065 A 
ATOM      4  C   UNL A   1       3.390  -6.712  58.516  1.00  0.00     0.037 A 
ATOM      5  C   UNL A   1       4.389  -5.797  58.846  1.00  0.00     0.010 A 
ATOM      6  C   UNL A   1       4.912  -4.953  57.865  1.00  0.00    -0.058 A 
ATOM      7  C   UNL A   1       4.436  -5.027  56.557  1.00  0.00     0.010 A 
ATOM      8  C   UNL A   1       3.437  -5.942  56.227  1.00  0.00     0.037 A 
BRANCH   6   9
ATOM      9  C   UNL A   1       5.981  -3.975  58.217  1.00  0.00     0.049 C 
BRANCH   9  10
ATOM     10  C   UNL A   1       6.621  -4.225  59.587  1.00  0.00     0.117 C 
BRANCH  10  11
ATOM     11  C   UNL A   1       8.013  -3.646  59.666  1.00  0.00     0.172 C 
ATOM     12  O   UNL A   1       8.146  -2.494  58.964  1.00  0.00    -0.648 OA
ATOM     13  O   UNL A   1       8.923  -4.146  60.315  1.00  0.00    -0.648 OA
ENDBRANCH  10  11
ENDBRANCH   9  10
ENDBRANCH   6   9
ENDBRANCH   1   3
TORSDOF 4
ENDMDL
MODEL 8
REMARK VINA RESULT:      -5.4      1.875      5.214
REMARK  4 active torsions:
REMARK  status: ('A' for Active; 'I' for Inactive)
REMARK    1  A    between atoms: O_1  and  C_11 
REMARK    2  A    between atoms: C_4  and  C_5 
REMARK    3  A    between atoms: C_4  and  C_6 
REMARK    4  A    between atoms: C_6  and  C_12 
ROOT
ATOM      1  O   UNL A   1       2.075  -7.733  56.645  1.00  0.00    -0.361 OA
ATOM      2  H   UNL A   1       1.688  -8.348  57.236  1.00  0.00     0.217 HD
ENDROOT
BRANCH   1   3
ATOM      3  C   UNL A   1       2.979  -6.825  57.104  1.00  0.00     0.065 A 
ATOM      4  C   UNL A   1       3.573  -5.924  56.221  1.00  0.00     0.037 A 
ATOM      5  C   UNL A   1       4.500  -4.994  56.691  1.00  0.00     0.010 A 
ATOM      6  C   UNL A   1       4.835  -4.966  58.045  1.00  0.00    -0.058 A 
ATOM      7  C   UNL A   1       4.242  -5.868  58.928  1.00  0.00     0.010 A 
ATOM      8  C   UNL A   1       3.314  -6.797  58.459  1.00  0.00     0.037 A 
BRANCH   6   9
ATOM      9  C   UNL A   1       5.826  -3.972  58.548  1.00  0.00     0.049 C 
BRANCH   9  10
ATOM     10  C   UNL A   1       6.616  -4.452  59.771  1.00  0.00     0.117 C 
BRANCH  10  11
ATOM     11  C   UNL A   1       8.007  -3.867  59.801  1.00  0.00     0.172 C 
ATOM     12  O   UNL A   1       8.060  -2.607  59.301  1.00  0.00    -0.648 OA
ATOM     13  O   UNL A   1       8.983  -4.452  60.252  1.00  0.00    -0.648 OA
ENDBRANCH  10  11
ENDBRANCH   9  10
ENDBRANCH   6   9
ENDBRANCH   1   3
TORSDOF 4
ENDMDL
MODEL 9
REMARK VINA RESULT:      -5.4      3.537      5.268
REMARK  4 active torsions:
REMARK  status: ('A' for Active; 'I' for Inactive)
REMARK    1  A    between atoms: O_1  and  C_11 
REMARK    2  A    between atoms: C_4  and  C_5 
REMARK    3  A    between atoms: C_4  and  C_6 
REMARK    4  A    between atoms: C_6  and  C_12 
ROOT
ATOM      1  O   UNL A   1       5.812   0.969  53.427  1.00  0.00    -0.361 OA
ATOM      2  H   UNL A   1       5.632   1.881  53.538  1.00  0.00     0.217 HD
ENDROOT
BRANCH   1   3
ATOM      3  C   UNL A   1       5.717   0.124  54.489  1.00  0.00     0.065 A 
ATOM      4  C   UNL A   1       5.455  -1.231  54.283  1.00  0.00     0.037 A 
ATOM      5  C   UNL A   1       5.356  -2.097  55.371  1.00  0.00     0.010 A 
ATOM      6  C   UNL A   1       5.518  -1.609  56.668  1.00  0.00    -0.058 A 
ATOM      7  C   UNL A   1       5.780  -0.255  56.875  1.00  0.00     0.010 A 
ATOM      8  C   UNL A   1       5.879   0.612  55.787  1.00  0.00     0.037 A 
BRANCH   6   9
ATOM      9  C   UNL A   1       5.413  -2.535  57.832  1.00  0.00     0.049 C 
BRANCH   9  10
ATOM     10  C   UNL A   1       6.553  -3.556  57.913  1.00  0.00     0.117 C 
BRANCH  10  11
ATOM     11  C   UNL A   1       6.968  -3.816  59.341  1.00  0.00     0.172 C 
ATOM     12  O   UNL A   1       8.128  -3.198  59.675  1.00  0.00    -0.648 OA
ATOM     13  O   UNL A   1       6.316  -4.491  60.128  1.00  0.00    -0.648 OA
ENDBRANCH  10  11
ENDBRANCH   9  10
ENDBRANCH   6   9
ENDBRANCH   1   3
TORSDOF 4
ENDMDL
