MODEL 1
REMARK VINA RESULT:      -5.9      0.000      0.000
REMARK  4 active torsions:
REMARK  status: ('A' for Active; 'I' for Inactive)
REMARK    1  A    between atoms: O_1  and  C_11 
REMARK    2  A    between atoms: C_4  and  C_5 
REMARK    3  A    between atoms: C_4  and  C_6 
REMARK    4  A    between atoms: C_6  and  C_12 
ROOT
ATOM      1  O   UNL A   1       8.599  -0.886  58.175  1.00  0.00    -0.361 OA
ATOM      2  H   UNL A   1       9.303  -0.984  57.565  1.00  0.00     0.217 HD
ENDROOT
BRANCH   1   3
ATOM      3  C   UNL A   1       7.486  -1.661  58.060  1.00  0.00     0.065 A 
ATOM      4  C   UNL A   1       6.315  -1.124  57.525  1.00  0.00     0.037 A 
ATOM      5  C   UNL A   1       5.174  -1.917  57.408  1.00  0.00     0.010 A 
ATOM      6  C   UNL A   1       5.204  -3.249  57.825  1.00  0.00    -0.058 A 
ATOM      7  C   UNL A   1       6.375  -3.785  58.359  1.00  0.00     0.010 A 
ATOM      8  C   UNL A   1       7.516  -2.992  58.477  1.00  0.00     0.037 A 
BRANCH   6   9
ATOM      9  C   UNL A   1       3.984  -4.097  57.699  1.00  0.00     0.049 C 
BRANCH   9  10
ATOM     10  C   UNL A   1       4.285  -5.570  57.398  1.00  0.00     0.117 C 
BRANCH  10  11
ATOM     11  C   UNL A   1       3.569  -6.492  58.355  1.00  0.00     0.172 C 
ATOM     12  O   UNL A   1       4.060  -6.426  59.618  1.00  0.00    -0.648 OA
ATOM     13  O   UNL A   1       2.627  -7.206  58.037  1.00  0.00    -0.648 OA
ENDBRANCH  10  11
ENDBRANCH   9  10
ENDBRANCH   6   9
ENDBRANCH   1   3
TORSDOF 4
ENDMDL
MODEL 2
REMARK VINA RESULT:      -5.9      1.709      1.998
REMARK  4 active torsions:
REMARK  status: ('A' for Active; 'I' for Inactive)
REMARK    1  A    between atoms: O_1  and  C_11 
REMARK    2  A    between atoms: C_4  and  C_5 
REMARK    3  A    between atoms: C_4  and  C_6 
REMARK    4  A    between atoms: C_6  and  C_12 
ROOT
ATOM      1  O   UNL A   1       8.515  -2.730  59.441  1.00  0.00    -0.361 OA
ATOM      2  H   UNL A   1       9.381  -3.056  59.294  1.00  0.00     0.217 HD
ENDROOT
BRANCH   1   3
ATOM      3  C   UNL A   1       7.442  -3.397  58.936  1.00  0.00     0.065 A 
ATOM      4  C   UNL A   1       7.045  -3.182  57.616  1.00  0.00     0.037 A 
ATOM      5  C   UNL A   1       5.945  -3.864  57.098  1.00  0.00     0.010 A 
ATOM      6  C   UNL A   1       5.240  -4.762  57.900  1.00  0.00    -0.058 A 
ATOM      7  C   UNL A   1       5.637  -4.977  59.220  1.00  0.00     0.010 A 
ATOM      8  C   UNL A   1       6.737  -4.295  59.738  1.00  0.00     0.037 A 
BRANCH   6   9
ATOM      9  C   UNL A   1       4.064  -5.492  57.347  1.00  0.00     0.049 C 
BRANCH   9  10
ATOM     10  C   UNL A   1       3.234  -6.223  58.409  1.00  0.00     0.117 C 
BRANCH  10  11
ATOM     11  C   UNL A   1       1.992  -5.448  58.775  1.00  0.00     0.172 C 
ATOM     12  O   UNL A   1       2.208  -4.536  59.756  1.00  0.00    -0.648 OA
ATOM     13  O   UNL A   1       0.907  -5.603  58.230  1.00  0.00    -0.648 OA
ENDBRANCH  10  11
ENDBRANCH   9  10
ENDBRANCH   6   9
ENDBRANCH   1   3
TORSDOF 4
ENDMDL
MODEL 3
REMARK VINA RESULT:      -5.8      1.152      1.260
REMARK  4 active torsions:
REMARK  status: ('A' for Active; 'I' for Inactive)
REMARK    1  A    between atoms: O_1  and  C_11 
REMARK    2  A    between atoms: C_4  and  C_5 
REMARK    3  A    between atoms: C_4  and  C_6 
REMARK    4  A    between atoms: C_6  and  C_12 
ROOT
ATOM      1  O   UNL A   1       8.340  -0.923  58.193  1.00  0.00    -0.361 OA
ATOM      2  H   UNL A   1       9.106  -0.921  57.653  1.00  0.00     0.217 HD
ENDROOT
BRANCH   1   3
ATOM      3  C   UNL A   1       7.465  -1.963  58.128  1.00  0.00     0.065 A 
ATOM      4  C   UNL A   1       6.445  -1.959  57.176  1.00  0.00     0.037 A 
ATOM      5  C   UNL A   1       5.548  -3.024  57.110  1.00  0.00     0.010 A 
ATOM      6  C   UNL A   1       5.669  -4.095  57.996  1.00  0.00    -0.058 A 
ATOM      7  C   UNL A   1       6.689  -4.099  58.947  1.00  0.00     0.010 A 
ATOM      8  C   UNL A   1       7.587  -3.034  59.014  1.00  0.00     0.037 A 
BRANCH   6   9
ATOM      9  C   UNL A   1       4.711  -5.235  57.925  1.00  0.00     0.049 C 
BRANCH   9  10
ATOM     10  C   UNL A   1       3.243  -4.802  57.826  1.00  0.00     0.117 C 
BRANCH  10  11
ATOM     11  C   UNL A   1       2.409  -5.403  58.931  1.00  0.00     0.172 C 
ATOM     12  O   UNL A   1       3.124  -6.214  59.750  1.00  0.00    -0.648 OA
ATOM     13  O   UNL A   1       1.219  -5.167  59.092  1.00  0.00    -0.648 OA
ENDBRANCH  10  11
ENDBRANCH   9  10
ENDBRANCH   6   9
ENDBRANCH   1   3
TORSDOF 4
ENDMDL
MODEL 4
REMARK VINA RESULT:      -5.8      0.712      1.564
REMARK  4 active torsions:
REMARK  status: ('A' for Active; 'I' for Inactive)
REMARK    1  A    between atoms: O_1  and  C_11 
REMARK    2  A    between atoms: C_4  and  C_5 
REMARK    3  A    between atoms: C_4  and  C_6 
REMARK    4  A    between atoms: C_6  and  C_12 
ROOT
ATOM      1  O   UNL A   1       8.467  -0.914  58.251  1.00  0.00    -0.361 OA
ATOM      2  H   UNL A   1       8.951  -1.033  59.044  1.00  0.00     0.217 HD
ENDROOT
BRANCH   1   3
ATOM      3  C   UNL A   1       7.384  -1.696  57.991  1.00  0.00     0.065 A 
ATOM      4  C   UNL A   1       7.438  -3.067  58.239  1.00  0.00     0.037 A 
ATOM      5  C   UNL A   1       6.329  -3.870  57.973  1.00  0.00     0.010 A 
ATOM      6  C   UNL A   1       5.164  -3.301  57.457  1.00  0.00    -0.058 A 
ATOM      7  C   UNL A   1       5.110  -1.930  57.210  1.00  0.00     0.010 A 
ATOM      8  C   UNL A   1       6.218  -1.127  57.476  1.00  0.00     0.037 A 
BRANCH   6   9
ATOM      9  C   UNL A   1       3.978  -4.158  57.173  1.00  0.00     0.049 C 
BRANCH   9  10
ATOM     10  C   UNL A   1       4.167  -5.626  57.573  1.00  0.00     0.117 C 
BRANCH  10  11
ATOM     11  C   UNL A   1       3.628  -5.901  58.956  1.00  0.00     0.172 C 
ATOM     12  O   UNL A   1       4.527  -6.522  59.759  1.00  0.00    -0.648 OA
ATOM     13  O   UNL A   1       2.507  -5.577  59.327  1.00  0.00    -0.648 OA
ENDBRANCH  10  11
ENDBRANCH   9  10
ENDBRANCH   6   9
ENDBRANCH   1   3
TORSDOF 4
ENDMDL
MODEL 5
REMARK VINA RESULT:      -5.8      1.147      1.840
REMARK  4 active torsions:
REMARK  status: ('A' for Active; 'I' for Inactive)
REMARK    1  A    between atoms: O_1  and  C_11 
REMARK    2  A    between atoms: C_4  and  C_5 
REMARK    3  A    between atoms: C_4  and  C_6 
REMARK    4  A    between atoms: C_6  and  C_12 
ROOT
ATOM      1  O   UNL A   1       8.348  -0.859  58.130  1.00  0.00    -0.361 OA
ATOM      2  H   UNL A   1       9.221  -0.989  57.817  1.00  0.00     0.217 HD
ENDROOT
BRANCH   1   3
ATOM      3  C   UNL A   1       7.466  -1.896  58.133  1.00  0.00     0.065 A 
ATOM      4  C   UNL A   1       7.757  -3.057  58.848  1.00  0.00     0.037 A 
ATOM      5  C   UNL A   1       6.855  -4.120  58.851  1.00  0.00     0.010 A 
ATOM      6  C   UNL A   1       5.659  -4.023  58.137  1.00  0.00    -0.058 A 
ATOM      7  C   UNL A   1       5.369  -2.861  57.422  1.00  0.00     0.010 A 
ATOM      8  C   UNL A   1       6.271  -1.798  57.419  1.00  0.00     0.037 A 
BRANCH   6   9
ATOM      9  C   UNL A   1       4.694  -5.159  58.141  1.00  0.00     0.049 C 
BRANCH   9  10
ATOM     10  C   UNL A   1       3.240  -4.734  57.909  1.00  0.00     0.117 C 
BRANCH  10  11
ATOM     11  C   UNL A   1       2.306  -5.375  58.907  1.00  0.00     0.172 C 
ATOM     12  O   UNL A   1       2.957  -6.119  59.836  1.00  0.00    -0.648 OA
ATOM     13  O   UNL A   1       1.092  -5.221  58.901  1.00  0.00    -0.648 OA
ENDBRANCH  10  11
ENDBRANCH   9  10
ENDBRANCH   6   9
ENDBRANCH   1   3
TORSDOF 4
ENDMDL
MODEL 6
REMARK VINA RESULT:      -5.6      1.251      5.566
REMARK  4 active torsions:
REMARK  status: ('A' for Active; 'I' for Inactive)
REMARK    1  A    between atoms: O_1  and  C_11 
REMARK    2  A    between atoms: C_4  and  C_5 
REMARK    3  A    between atoms: C_4  and  C_6 
REMARK    4  A    between atoms: C_6  and  C_12 
ROOT
ATOM      1  O   UNL A   1       2.718  -7.543  57.883  1.00  0.00    -0.361 OA
ATOM      2  H   UNL A   1       1.884  -7.466  57.463  1.00  0.00     0.217 HD
ENDROOT
BRANCH   1   3
ATOM      3  C   UNL A   1       3.598  -6.505  57.840  1.00  0.00     0.065 A 
ATOM      4  C   UNL A   1       3.796  -5.808  56.648  1.00  0.00     0.037 A 
ATOM      5  C   UNL A   1       4.699  -4.746  56.603  1.00  0.00     0.010 A 
ATOM      6  C   UNL A   1       5.404  -4.380  57.750  1.00  0.00    -0.058 A 
ATOM      7  C   UNL A   1       5.205  -5.077  58.941  1.00  0.00     0.010 A 
ATOM      8  C   UNL A   1       4.303  -6.139  58.987  1.00  0.00     0.037 A 
BRANCH   6   9
ATOM      9  C   UNL A   1       6.368  -3.244  57.702  1.00  0.00     0.049 C 
BRANCH   9  10
ATOM     10  C   UNL A   1       5.697  -1.867  57.639  1.00  0.00     0.117 C 
BRANCH  10  11
ATOM     11  C   UNL A   1       6.713  -0.750  57.660  1.00  0.00     0.172 C 
ATOM     12  O   UNL A   1       6.334   0.322  56.921  1.00  0.00    -0.648 OA
ATOM     13  O   UNL A   1       7.758  -0.792  58.296  1.00  0.00    -0.648 OA
ENDBRANCH  10  11
ENDBRANCH   9  10
ENDBRANCH   6   9
ENDBRANCH   1   3
TORSDOF 4
ENDMDL
MODEL 7
REMARK VINA RESULT:      -5.5      1.908      5.521
REMARK  4 active torsions:
REMARK  status: ('A' for Active; 'I' for Inactive)
REMARK    1  A    between atoms: O_1  and  C_11 
REMARK    2  A    between atoms: C_4  and  C_5 
REMARK    3  A    between atoms: C_4  and  C_6 
REMARK    4  A    between atoms: C_6  and  C_12 
ROOT
ATOM      1  O   UNL A   1       1.802  -7.715  56.981  1.00  0.00    -0.361 OA
ATOM      2  H   UNL A   1       1.101  -7.811  57.595  1.00  0.00     0.217 HD
ENDROOT
BRANCH   1   3
ATOM      3  C   UNL A   1       2.805  -6.829  57.226  1.00  0.00     0.065 A 
ATOM      4  C   UNL A   1       3.314  -6.046  56.190  1.00  0.00     0.037 A 
ATOM      5  C   UNL A   1       4.342  -5.139  56.441  1.00  0.00     0.010 A 
ATOM      6  C   UNL A   1       4.863  -5.012  57.730  1.00  0.00    -0.058 A 
ATOM      7  C   UNL A   1       4.354  -5.795  58.766  1.00  0.00     0.010 A 
ATOM      8  C   UNL A   1       3.325  -6.703  58.515  1.00  0.00     0.037 A 
BRANCH   6   9
ATOM      9  C   UNL A   1       5.962  -4.042  57.998  1.00  0.00     0.049 C 
BRANCH   9  10
ATOM     10  C   UNL A   1       6.594  -4.193  59.387  1.00  0.00     0.117 C 
BRANCH  10  11
ATOM     11  C   UNL A   1       7.880  -3.410  59.502  1.00  0.00     0.172 C 
ATOM     12  O   UNL A   1       7.916  -2.332  58.679  1.00  0.00    -0.648 OA
ATOM     13  O   UNL A   1       8.785  -3.697  60.273  1.00  0.00    -0.648 OA
ENDBRANCH  10  11
ENDBRANCH   9  10
ENDBRANCH   6   9
ENDBRANCH   1   3
TORSDOF 4
ENDMDL
MODEL 8
REMARK VINA RESULT:      -5.5      2.064      5.250
REMARK  4 active torsions:
REMARK  status: ('A' for Active; 'I' for Inactive)
REMARK    1  A    between atoms: O_1  and  C_11 
REMARK    2  A    between atoms: C_4  and  C_5 
REMARK    3  A    between atoms: C_4  and  C_6 
REMARK    4  A    between atoms: C_6  and  C_12 
ROOT
ATOM      1  O   UNL A   1       4.553  -6.266  59.468  1.00  0.00    -0.361 OA
ATOM      2  H   UNL A   1       4.330  -7.030  58.974  1.00  0.00     0.217 HD
ENDROOT
BRANCH   1   3
ATOM      3  C   UNL A   1       5.106  -5.190  58.844  1.00  0.00     0.065 A 
ATOM      4  C   UNL A   1       6.119  -4.464  59.469  1.00  0.00     0.037 A 
ATOM      5  C   UNL A   1       6.684  -3.361  58.831  1.00  0.00     0.010 A 
ATOM      6  C   UNL A   1       6.236  -2.982  57.565  1.00  0.00    -0.058 A 
ATOM      7  C   UNL A   1       5.223  -3.708  56.939  1.00  0.00     0.010 A 
ATOM      8  C   UNL A   1       4.657  -4.811  57.577  1.00  0.00     0.037 A 
BRANCH   6   9
ATOM      9  C   UNL A   1       6.841  -1.804  56.881  1.00  0.00     0.049 C 
BRANCH   9  10
ATOM     10  C   UNL A   1       6.558  -0.471  57.584  1.00  0.00     0.117 C 
BRANCH  10  11
ATOM     11  C   UNL A   1       5.410   0.267  56.938  1.00  0.00     0.172 C 
ATOM     12  O   UNL A   1       5.149  -0.162  55.678  1.00  0.00    -0.648 OA
ATOM     13  O   UNL A   1       4.762   1.142  57.496  1.00  0.00    -0.648 OA
ENDBRANCH  10  11
ENDBRANCH   9  10
ENDBRANCH   6   9
ENDBRANCH   1   3
TORSDOF 4
ENDMDL
MODEL 9
REMARK VINA RESULT:      -5.5      2.317      5.110
REMARK  4 active torsions:
REMARK  status: ('A' for Active; 'I' for Inactive)
REMARK    1  A    between atoms: O_1  and  C_11 
REMARK    2  A    between atoms: C_4  and  C_5 
REMARK    3  A    between atoms: C_4  and  C_6 
REMARK    4  A    between atoms: C_6  and  C_12 
ROOT
ATOM      1  O   UNL A   1       5.818  -5.933  60.100  1.00  0.00    -0.361 OA
ATOM      2  H   UNL A   1       6.296  -6.011  60.902  1.00  0.00     0.217 HD
ENDROOT
BRANCH   1   3
ATOM      3  C   UNL A   1       6.002  -4.847  59.302  1.00  0.00     0.065 A 
ATOM      4  C   UNL A   1       5.102  -4.579  58.271  1.00  0.00     0.037 A 
ATOM      5  C   UNL A   1       5.290  -3.466  57.451  1.00  0.00     0.010 A 
ATOM      6  C   UNL A   1       6.380  -2.621  57.662  1.00  0.00    -0.058 A 
ATOM      7  C   UNL A   1       7.280  -2.889  58.693  1.00  0.00     0.010 A 
ATOM      8  C   UNL A   1       7.092  -4.002  59.512  1.00  0.00     0.037 A 
BRANCH   6   9
ATOM      9  C   UNL A   1       6.582  -1.431  56.786  1.00  0.00     0.049 C 
BRANCH   9  10
ATOM     10  C   UNL A   1       6.228  -0.101  57.461  1.00  0.00     0.117 C 
BRANCH  10  11
ATOM     11  C   UNL A   1       5.108   0.610  56.739  1.00  0.00     0.172 C 
ATOM     12  O   UNL A   1       4.459   1.505  57.524  1.00  0.00    -0.648 OA
ATOM     13  O   UNL A   1       4.828   0.421  55.562  1.00  0.00    -0.648 OA
ENDBRANCH  10  11
ENDBRANCH   9  10
ENDBRANCH   6   9
ENDBRANCH   1   3
TORSDOF 4
ENDMDL
