MODEL 1
REMARK VINA RESULT:      -6.1      0.000      0.000
REMARK  4 active torsions:
REMARK  status: ('A' for Active; 'I' for Inactive)
REMARK    1  A    between atoms: O_1  and  C_11 
REMARK    2  A    between atoms: C_4  and  C_5 
REMARK    3  A    between atoms: C_4  and  C_6 
REMARK    4  A    between atoms: C_6  and  C_12 
ROOT
ATOM      1  O   UNL A   1       6.168  -7.664  56.646  1.00  0.00    -0.361 OA
ATOM      2  H   UNL A   1       6.498  -7.585  57.519  1.00  0.00     0.217 HD
ENDROOT
BRANCH   1   3
ATOM      3  C   UNL A   1       5.115  -8.487  56.389  1.00  0.00     0.065 A 
ATOM      4  C   UNL A   1       4.746  -9.459  57.319  1.00  0.00     0.037 A 
ATOM      5  C   UNL A   1       3.668 -10.304  57.056  1.00  0.00     0.010 A 
ATOM      6  C   UNL A   1       2.958 -10.177  55.862  1.00  0.00    -0.058 A 
ATOM      7  C   UNL A   1       3.327  -9.206  54.932  1.00  0.00     0.010 A 
ATOM      8  C   UNL A   1       4.405  -8.361  55.194  1.00  0.00     0.037 A 
BRANCH   6   9
ATOM      9  C   UNL A   1       1.805 -11.079  55.581  1.00  0.00     0.049 C 
BRANCH   9  10
ATOM     10  C   UNL A   1       0.755 -10.467  54.646  1.00  0.00     0.117 C 
BRANCH  10  11
ATOM     11  C   UNL A   1      -0.647 -10.689  55.161  1.00  0.00     0.172 C 
ATOM     12  O   UNL A   1      -0.760 -10.468  56.495  1.00  0.00    -0.648 OA
ATOM     13  O   UNL A   1      -1.591 -11.008  54.451  1.00  0.00    -0.648 OA
ENDBRANCH  10  11
ENDBRANCH   9  10
ENDBRANCH   6   9
ENDBRANCH   1   3
TORSDOF 4
ENDMDL
MODEL 2
REMARK VINA RESULT:      -6.0      0.098      1.676
REMARK  4 active torsions:
REMARK  status: ('A' for Active; 'I' for Inactive)
REMARK    1  A    between atoms: O_1  and  C_11 
REMARK    2  A    between atoms: C_4  and  C_5 
REMARK    3  A    between atoms: C_4  and  C_6 
REMARK    4  A    between atoms: C_6  and  C_12 
ROOT
ATOM      1  O   UNL A   1       6.209  -7.673  56.643  1.00  0.00    -0.361 OA
ATOM      2  H   UNL A   1       6.724  -7.332  55.938  1.00  0.00     0.217 HD
ENDROOT
BRANCH   1   3
ATOM      3  C   UNL A   1       5.148  -8.483  56.380  1.00  0.00     0.065 A 
ATOM      4  C   UNL A   1       4.458  -8.360  55.174  1.00  0.00     0.037 A 
ATOM      5  C   UNL A   1       3.370  -9.189  54.903  1.00  0.00     0.010 A 
ATOM      6  C   UNL A   1       2.970 -10.143  55.840  1.00  0.00    -0.058 A 
ATOM      7  C   UNL A   1       3.660 -10.266  57.046  1.00  0.00     0.010 A 
ATOM      8  C   UNL A   1       4.748  -9.438  57.316  1.00  0.00     0.037 A 
BRANCH   6   9
ATOM      9  C   UNL A   1       1.807 -11.030  55.551  1.00  0.00     0.049 C 
BRANCH   9  10
ATOM     10  C   UNL A   1       0.697 -10.349  54.743  1.00  0.00     0.117 C 
BRANCH  10  11
ATOM     11  C   UNL A   1      -0.667 -10.618  55.332  1.00  0.00     0.172 C 
ATOM     12  O   UNL A   1      -1.561 -11.059  54.412  1.00  0.00    -0.648 OA
ATOM     13  O   UNL A   1      -0.936 -10.481  56.518  1.00  0.00    -0.648 OA
ENDBRANCH  10  11
ENDBRANCH   9  10
ENDBRANCH   6   9
ENDBRANCH   1   3
TORSDOF 4
ENDMDL
MODEL 3
REMARK VINA RESULT:      -5.9      3.135      4.819
REMARK  4 active torsions:
REMARK  status: ('A' for Active; 'I' for Inactive)
REMARK    1  A    between atoms: O_1  and  C_11 
REMARK    2  A    between atoms: C_4  and  C_5 
REMARK    3  A    between atoms: C_4  and  C_6 
REMARK    4  A    between atoms: C_6  and  C_12 
ROOT
ATOM      1  O   UNL A   1       4.533  -3.592  53.039  1.00  0.00    -0.361 OA
ATOM      2  H   UNL A   1       4.219  -3.414  52.174  1.00  0.00     0.217 HD
ENDROOT
BRANCH   1   3
ATOM      3  C   UNL A   1       4.085  -4.685  53.713  1.00  0.00     0.065 A 
ATOM      4  C   UNL A   1       3.938  -4.639  55.099  1.00  0.00     0.037 A 
ATOM      5  C   UNL A   1       3.480  -5.759  55.791  1.00  0.00     0.010 A 
ATOM      6  C   UNL A   1       3.169  -6.929  55.097  1.00  0.00    -0.058 A 
ATOM      7  C   UNL A   1       3.316  -6.976  53.711  1.00  0.00     0.010 A 
ATOM      8  C   UNL A   1       3.774  -5.855  53.019  1.00  0.00     0.037 A 
BRANCH   6   9
ATOM      9  C   UNL A   1       2.678  -8.127  55.836  1.00  0.00     0.049 C 
BRANCH   9  10
ATOM     10  C   UNL A   1       3.644  -9.317  55.794  1.00  0.00     0.117 C 
BRANCH  10  11
ATOM     11  C   UNL A   1       4.561  -9.334  56.993  1.00  0.00     0.172 C 
ATOM     12  O   UNL A   1       4.297 -10.357  57.844  1.00  0.00    -0.648 OA
ATOM     13  O   UNL A   1       5.465  -8.528  57.171  1.00  0.00    -0.648 OA
ENDBRANCH  10  11
ENDBRANCH   9  10
ENDBRANCH   6   9
ENDBRANCH   1   3
TORSDOF 4
ENDMDL
MODEL 4
REMARK VINA RESULT:      -5.9      3.116      4.930
REMARK  4 active torsions:
REMARK  status: ('A' for Active; 'I' for Inactive)
REMARK    1  A    between atoms: O_1  and  C_11 
REMARK    2  A    between atoms: C_4  and  C_5 
REMARK    3  A    between atoms: C_4  and  C_6 
REMARK    4  A    between atoms: C_6  and  C_12 
ROOT
ATOM      1  O   UNL A   1       4.536  -3.583  53.018  1.00  0.00    -0.361 OA
ATOM      2  H   UNL A   1       4.277  -2.726  53.296  1.00  0.00     0.217 HD
ENDROOT
BRANCH   1   3
ATOM      3  C   UNL A   1       4.085  -4.679  53.687  1.00  0.00     0.065 A 
ATOM      4  C   UNL A   1       3.767  -5.842  52.986  1.00  0.00     0.037 A 
ATOM      5  C   UNL A   1       3.305  -6.965  53.671  1.00  0.00     0.010 A 
ATOM      6  C   UNL A   1       3.160  -6.926  55.058  1.00  0.00    -0.058 A 
ATOM      7  C   UNL A   1       3.478  -5.763  55.759  1.00  0.00     0.010 A 
ATOM      8  C   UNL A   1       3.940  -4.640  55.075  1.00  0.00     0.037 A 
BRANCH   6   9
ATOM      9  C   UNL A   1       2.666  -8.127  55.791  1.00  0.00     0.049 C 
BRANCH   9  10
ATOM     10  C   UNL A   1       3.643  -9.309  55.768  1.00  0.00     0.117 C 
BRANCH  10  11
ATOM     11  C   UNL A   1       4.549  -9.306  56.975  1.00  0.00     0.172 C 
ATOM     12  O   UNL A   1       4.231 -10.270  57.875  1.00  0.00    -0.648 OA
ATOM     13  O   UNL A   1       5.489  -8.536  57.120  1.00  0.00    -0.648 OA
ENDBRANCH  10  11
ENDBRANCH   9  10
ENDBRANCH   6   9
ENDBRANCH   1   3
TORSDOF 4
ENDMDL
MODEL 5
REMARK VINA RESULT:      -5.9      3.111      4.127
REMARK  4 active torsions:
REMARK  status: ('A' for Active; 'I' for Inactive)
REMARK    1  A    between atoms: O_1  and  C_11 
REMARK    2  A    between atoms: C_4  and  C_5 
REMARK    3  A    between atoms: C_4  and  C_6 
REMARK    4  A    between atoms: C_6  and  C_12 
ROOT
ATOM      1  O   UNL A   1       4.603  -3.701  53.115  1.00  0.00    -0.361 OA
ATOM      2  H   UNL A   1       4.448  -2.831  53.427  1.00  0.00     0.217 HD
ENDROOT
BRANCH   1   3
ATOM      3  C   UNL A   1       4.084  -4.766  53.783  1.00  0.00     0.065 A 
ATOM      4  C   UNL A   1       3.867  -5.971  53.115  1.00  0.00     0.037 A 
ATOM      5  C   UNL A   1       3.333  -7.063  53.799  1.00  0.00     0.010 A 
ATOM      6  C   UNL A   1       3.015  -6.950  55.153  1.00  0.00    -0.058 A 
ATOM      7  C   UNL A   1       3.232  -5.746  55.821  1.00  0.00     0.010 A 
ATOM      8  C   UNL A   1       3.766  -4.654  55.137  1.00  0.00     0.037 A 
BRANCH   6   9
ATOM      9  C   UNL A   1       2.446  -8.117  55.885  1.00  0.00     0.049 C 
BRANCH   9  10
ATOM     10  C   UNL A   1       2.865  -9.474  55.306  1.00  0.00     0.117 C 
BRANCH  10  11
ATOM     11  C   UNL A   1       2.720 -10.582  56.321  1.00  0.00     0.172 C 
ATOM     12  O   UNL A   1       3.365 -10.319  57.485  1.00  0.00    -0.648 OA
ATOM     13  O   UNL A   1       2.068 -11.600  56.130  1.00  0.00    -0.648 OA
ENDBRANCH  10  11
ENDBRANCH   9  10
ENDBRANCH   6   9
ENDBRANCH   1   3
TORSDOF 4
ENDMDL
MODEL 6
REMARK VINA RESULT:      -5.8      0.834      1.204
REMARK  4 active torsions:
REMARK  status: ('A' for Active; 'I' for Inactive)
REMARK    1  A    between atoms: O_1  and  C_11 
REMARK    2  A    between atoms: C_4  and  C_5 
REMARK    3  A    between atoms: C_4  and  C_6 
REMARK    4  A    between atoms: C_6  and  C_12 
ROOT
ATOM      1  O   UNL A   1       6.182  -7.674  56.643  1.00  0.00    -0.361 OA
ATOM      2  H   UNL A   1       6.731  -7.844  57.384  1.00  0.00     0.217 HD
ENDROOT
BRANCH   1   3
ATOM      3  C   UNL A   1       5.121  -8.486  56.384  1.00  0.00     0.065 A 
ATOM      4  C   UNL A   1       4.733  -9.446  57.318  1.00  0.00     0.037 A 
ATOM      5  C   UNL A   1       3.646 -10.279  57.052  1.00  0.00     0.010 A 
ATOM      6  C   UNL A   1       2.947 -10.152  55.851  1.00  0.00    -0.058 A 
ATOM      7  C   UNL A   1       3.336  -9.192  54.918  1.00  0.00     0.010 A 
ATOM      8  C   UNL A   1       4.422  -8.359  55.183  1.00  0.00     0.037 A 
BRANCH   6   9
ATOM      9  C   UNL A   1       1.785 -11.042  55.567  1.00  0.00     0.049 C 
BRANCH   9  10
ATOM     10  C   UNL A   1       1.343 -11.030  54.100  1.00  0.00     0.117 C 
BRANCH  10  11
ATOM     11  C   UNL A   1      -0.139 -11.288  53.962  1.00  0.00     0.172 C 
ATOM     12  O   UNL A   1      -0.415 -12.494  53.406  1.00  0.00    -0.648 OA
ATOM     13  O   UNL A   1      -1.004 -10.507  54.335  1.00  0.00    -0.648 OA
ENDBRANCH  10  11
ENDBRANCH   9  10
ENDBRANCH   6   9
ENDBRANCH   1   3
TORSDOF 4
ENDMDL
MODEL 7
REMARK VINA RESULT:      -5.7      2.677      3.589
REMARK  4 active torsions:
REMARK  status: ('A' for Active; 'I' for Inactive)
REMARK    1  A    between atoms: O_1  and  C_11 
REMARK    2  A    between atoms: C_4  and  C_5 
REMARK    3  A    between atoms: C_4  and  C_6 
REMARK    4  A    between atoms: C_6  and  C_12 
ROOT
ATOM      1  O   UNL A   1       4.777  -3.831  53.366  1.00  0.00    -0.361 OA
ATOM      2  H   UNL A   1       5.430  -3.870  52.696  1.00  0.00     0.217 HD
ENDROOT
BRANCH   1   3
ATOM      3  C   UNL A   1       4.432  -4.959  54.045  1.00  0.00     0.065 A 
ATOM      4  C   UNL A   1       3.664  -4.868  55.206  1.00  0.00     0.037 A 
ATOM      5  C   UNL A   1       3.312  -6.023  55.902  1.00  0.00     0.010 A 
ATOM      6  C   UNL A   1       3.728  -7.272  55.439  1.00  0.00    -0.058 A 
ATOM      7  C   UNL A   1       4.496  -7.363  54.278  1.00  0.00     0.010 A 
ATOM      8  C   UNL A   1       4.849  -6.208  53.581  1.00  0.00     0.037 A 
BRANCH   6   9
ATOM      9  C   UNL A   1       3.351  -8.508  56.183  1.00  0.00     0.049 C 
BRANCH   9  10
ATOM     10  C   UNL A   1       2.909  -9.663  55.278  1.00  0.00     0.117 C 
BRANCH  10  11
ATOM     11  C   UNL A   1       1.846 -10.510  55.935  1.00  0.00     0.172 C 
ATOM     12  O   UNL A   1       0.745  -9.799  56.284  1.00  0.00    -0.648 OA
ATOM     13  O   UNL A   1       1.950 -11.717  56.113  1.00  0.00    -0.648 OA
ENDBRANCH  10  11
ENDBRANCH   9  10
ENDBRANCH   6   9
ENDBRANCH   1   3
TORSDOF 4
ENDMDL
MODEL 8
REMARK VINA RESULT:      -5.7      3.541      4.693
REMARK  4 active torsions:
REMARK  status: ('A' for Active; 'I' for Inactive)
REMARK    1  A    between atoms: O_1  and  C_11 
REMARK    2  A    between atoms: C_4  and  C_5 
REMARK    3  A    between atoms: C_4  and  C_6 
REMARK    4  A    between atoms: C_6  and  C_12 
ROOT
ATOM      1  O   UNL A   1       4.935 -11.646  58.703  1.00  0.00    -0.361 OA
ATOM      2  H   UNL A   1       5.724 -11.651  59.208  1.00  0.00     0.217 HD
ENDROOT
BRANCH   1   3
ATOM      3  C   UNL A   1       4.703 -10.639  57.817  1.00  0.00     0.065 A 
ATOM      4  C   UNL A   1       3.503 -10.598  57.107  1.00  0.00     0.037 A 
ATOM      5  C   UNL A   1       3.265  -9.568  56.198  1.00  0.00     0.010 A 
ATOM      6  C   UNL A   1       4.227  -8.577  55.998  1.00  0.00    -0.058 A 
ATOM      7  C   UNL A   1       5.426  -8.618  56.709  1.00  0.00     0.010 A 
ATOM      8  C   UNL A   1       5.665  -9.648  57.617  1.00  0.00     0.037 A 
BRANCH   6   9
ATOM      9  C   UNL A   1       3.972  -7.475  55.027  1.00  0.00     0.049 C 
BRANCH   9  10
ATOM     10  C   UNL A   1       2.846  -6.526  55.453  1.00  0.00     0.117 C 
BRANCH  10  11
ATOM     11  C   UNL A   1       3.299  -5.085  55.446  1.00  0.00     0.172 C 
ATOM     12  O   UNL A   1       2.373  -4.239  55.961  1.00  0.00    -0.648 OA
ATOM     13  O   UNL A   1       4.395  -4.717  55.043  1.00  0.00    -0.648 OA
ENDBRANCH  10  11
ENDBRANCH   9  10
ENDBRANCH   6   9
ENDBRANCH   1   3
TORSDOF 4
ENDMDL
MODEL 9
REMARK VINA RESULT:      -5.7      3.599      4.842
REMARK  4 active torsions:
REMARK  status: ('A' for Active; 'I' for Inactive)
REMARK    1  A    between atoms: O_1  and  C_11 
REMARK    2  A    between atoms: C_4  and  C_5 
REMARK    3  A    between atoms: C_4  and  C_6 
REMARK    4  A    between atoms: C_6  and  C_12 
ROOT
ATOM      1  O   UNL A   1       4.999 -11.833  58.523  1.00  0.00    -0.361 OA
ATOM      2  H   UNL A   1       4.648 -11.923  59.387  1.00  0.00     0.217 HD
ENDROOT
BRANCH   1   3
ATOM      3  C   UNL A   1       4.676 -10.749  57.767  1.00  0.00     0.065 A 
ATOM      4  C   UNL A   1       5.561  -9.675  57.673  1.00  0.00     0.037 A 
ATOM      5  C   UNL A   1       5.231  -8.563  56.899  1.00  0.00     0.010 A 
ATOM      6  C   UNL A   1       4.013  -8.524  56.218  1.00  0.00    -0.058 A 
ATOM      7  C   UNL A   1       3.128  -9.598  56.312  1.00  0.00     0.010 A 
ATOM      8  C   UNL A   1       3.459 -10.710  57.086  1.00  0.00     0.037 A 
BRANCH   6   9
ATOM      9  C   UNL A   1       3.660  -7.336  55.390  1.00  0.00     0.049 C 
BRANCH   9  10
ATOM     10  C   UNL A   1       4.027  -5.998  56.042  1.00  0.00     0.117 C 
BRANCH  10  11
ATOM     11  C   UNL A   1       3.450  -4.829  55.280  1.00  0.00     0.172 C 
ATOM     12  O   UNL A   1       4.235  -4.433  54.247  1.00  0.00    -0.648 OA
ATOM     13  O   UNL A   1       2.375  -4.307  55.545  1.00  0.00    -0.648 OA
ENDBRANCH  10  11
ENDBRANCH   9  10
ENDBRANCH   6   9
ENDBRANCH   1   3
TORSDOF 4
ENDMDL
