MODEL 1
REMARK VINA RESULT:     -18.2      0.000      0.000
REMARK  6 active torsions:
REMARK  status: ('A' for Active; 'I' for Inactive)
REMARK    1  A    between atoms: O_1  and  C_11 
REMARK    2  A    between atoms: O_3  and  C_14 
REMARK    3  A    between atoms: N_5  and  CA_7 
REMARK    4  A    between atoms: C_6  and  CA_7 
REMARK    5  A    between atoms: C_6  and  C_8 
REMARK    6  A    between atoms: CA_7  and  C_12 
ROOT
HETATM    1  O   UNL     1     -53.676  52.904  12.334  1.00  0.00    -0.358 OA
HETATM    2  H   UNL     1     -52.922  53.432  12.160  1.00  0.00     0.217 HD
ENDROOT
BRANCH   1   3
HETATM    3  C   UNL     1     -53.702  51.602  11.934  1.00  0.00     0.099 A 
HETATM    4  C   UNL     1     -53.922  51.301  10.591  1.00  0.00     0.046 A 
HETATM    5  C   UNL     1     -53.948  49.976  10.190  1.00  0.00    -0.053 A 
HETATM    6  C   UNL     1     -53.762  48.943  11.093  1.00  0.00     0.010 A 
HETATM    7  C   UNL     1     -53.542  49.244  12.437  1.00  0.00     0.040 A 
HETATM    8  C   UNL     1     -53.512  50.574  12.858  1.00  0.00     0.098 A 
BRANCH   5   9
HETATM    9  C   UNL     1     -54.185  49.649   8.732  1.00  0.00     0.082 C 
BRANCH   9  10
HETATM   10  CA  UNL     1     -53.378  48.431   8.255  1.00  0.00     0.287 C 
BRANCH  10  11
HETATM   11  N   UNL     1     -52.410  48.846   7.242  1.00  0.00    -0.065 N 
HETATM   12  H   UNL     1     -52.782  48.647   6.313  1.00  0.00     0.275 HD
HETATM   13  H   UNL     1     -51.537  48.335   7.375  1.00  0.00     0.275 HD
HETATM   14  H   UNL     1     -52.234  49.847   7.330  1.00  0.00     0.275 HD
ENDBRANCH  10  11
BRANCH  10  15
HETATM   15  C   UNL     1     -54.261  47.378   7.607  1.00  0.00     0.204 C 
HETATM   16  O   UNL     1     -55.362  47.098   8.350  1.00  0.00    -0.646 OA
HETATM   17  OXT UNL     1     -54.013  46.812   6.550  1.00  0.00    -0.646 OA
ENDBRANCH  10  15
ENDBRANCH   9  10
ENDBRANCH   5   9
BRANCH   8  18
HETATM   18  O   UNL     1     -53.298  50.855  14.174  1.00  0.00    -0.358 OA
HETATM   19  H   UNL     1     -54.023  50.909  14.765  1.00  0.00     0.217 HD
ENDBRANCH   8  18
ENDBRANCH   1   3
TORSDOF 6
ENDMDL
MODEL 2
REMARK VINA RESULT:     -18.1      1.101      2.141
REMARK  6 active torsions:
REMARK  status: ('A' for Active; 'I' for Inactive)
REMARK    1  A    between atoms: O_1  and  C_11 
REMARK    2  A    between atoms: O_3  and  C_14 
REMARK    3  A    between atoms: N_5  and  CA_7 
REMARK    4  A    between atoms: C_6  and  CA_7 
REMARK    5  A    between atoms: C_6  and  C_8 
REMARK    6  A    between atoms: CA_7  and  C_12 
ROOT
HETATM    1  O   UNL     1     -52.973  47.961  13.546  1.00  0.00    -0.358 OA
HETATM    2  H   UNL     1     -52.629  48.046  14.413  1.00  0.00     0.217 HD
ENDROOT
BRANCH   1   3
HETATM    3  C   UNL     1     -53.291  49.074  12.828  1.00  0.00     0.099 A 
HETATM    4  C   UNL     1     -53.535  48.962  11.459  1.00  0.00     0.046 A 
HETATM    5  C   UNL     1     -53.858  50.096  10.734  1.00  0.00    -0.053 A 
HETATM    6  C   UNL     1     -53.942  51.339  11.336  1.00  0.00     0.010 A 
HETATM    7  C   UNL     1     -53.699  51.452  12.704  1.00  0.00     0.040 A 
HETATM    8  C   UNL     1     -53.373  50.320  13.451  1.00  0.00     0.098 A 
BRANCH   5   9
HETATM    9  C   UNL     1     -54.123  49.973   9.250  1.00  0.00     0.082 C 
BRANCH   9  10
HETATM   10  CA  UNL     1     -53.441  48.747   8.622  1.00  0.00     0.287 C 
BRANCH  10  11
HETATM   11  N   UNL     1     -52.579  49.173   7.520  1.00  0.00    -0.065 N 
HETATM   12  H   UNL     1     -53.110  49.768   6.884  1.00  0.00     0.275 HD
HETATM   13  H   UNL     1     -52.241  48.353   7.016  1.00  0.00     0.275 HD
HETATM   14  H   UNL     1     -51.786  49.695   7.892  1.00  0.00     0.275 HD
ENDBRANCH  10  11
BRANCH  10  15
HETATM   15  C   UNL     1     -54.447  47.772   8.035  1.00  0.00     0.204 C 
HETATM   16  O   UNL     1     -54.153  47.438   6.752  1.00  0.00    -0.646 OA
HETATM   17  OXT UNL     1     -55.433  47.344   8.622  1.00  0.00    -0.646 OA
ENDBRANCH  10  15
ENDBRANCH   9  10
ENDBRANCH   5   9
BRANCH   8  18
HETATM   18  O   UNL     1     -53.135  50.443  14.787  1.00  0.00    -0.358 OA
HETATM   19  H   UNL     1     -52.905  49.689  15.294  1.00  0.00     0.217 HD
ENDBRANCH   8  18
ENDBRANCH   1   3
TORSDOF 6
ENDMDL
MODEL 3
REMARK VINA RESULT:     -17.5      1.782      2.001
REMARK  6 active torsions:
REMARK  status: ('A' for Active; 'I' for Inactive)
REMARK    1  A    between atoms: O_1  and  C_11 
REMARK    2  A    between atoms: O_3  and  C_14 
REMARK    3  A    between atoms: N_5  and  CA_7 
REMARK    4  A    between atoms: C_6  and  CA_7 
REMARK    5  A    between atoms: C_6  and  C_8 
REMARK    6  A    between atoms: CA_7  and  C_12 
ROOT
HETATM    1  O   UNL     1     -53.976  51.959  12.980  1.00  0.00    -0.358 OA
HETATM    2  H   UNL     1     -53.900  52.366  13.820  1.00  0.00     0.217 HD
ENDROOT
BRANCH   1   3
HETATM    3  C   UNL     1     -53.630  50.651  12.823  1.00  0.00     0.099 A 
HETATM    4  C   UNL     1     -53.778  50.046  11.575  1.00  0.00     0.046 A 
HETATM    5  C   UNL     1     -53.425  48.716  11.421  1.00  0.00    -0.053 A 
HETATM    6  C   UNL     1     -52.931  47.972  12.478  1.00  0.00     0.010 A 
HETATM    7  C   UNL     1     -52.783  48.576  13.727  1.00  0.00     0.040 A 
HETATM    8  C   UNL     1     -53.133  49.916  13.899  1.00  0.00     0.098 A 
BRANCH   5   9
HETATM    9  C   UNL     1     -53.584  48.061  10.067  1.00  0.00     0.082 C 
BRANCH   9  10
HETATM   10  CA  UNL     1     -53.225  49.001   8.905  1.00  0.00     0.287 C 
BRANCH  10  11
HETATM   11  N   UNL     1     -54.431  49.325   8.142  1.00  0.00    -0.065 N 
HETATM   12  H   UNL     1     -54.835  50.192   8.496  1.00  0.00     0.275 HD
HETATM   13  H   UNL     1     -55.109  48.568   8.241  1.00  0.00     0.275 HD
HETATM   14  H   UNL     1     -54.190  49.438   7.158  1.00  0.00     0.275 HD
ENDBRANCH  10  11
BRANCH  10  15
HETATM   15  C   UNL     1     -52.253  48.361   7.929  1.00  0.00     0.204 C 
HETATM   16  O   UNL     1     -51.431  47.465   8.533  1.00  0.00    -0.646 OA
HETATM   17  OXT UNL     1     -52.181  48.628   6.736  1.00  0.00    -0.646 OA
ENDBRANCH  10  15
ENDBRANCH   9  10
ENDBRANCH   5   9
BRANCH   8  18
HETATM   18  O   UNL     1     -52.987  50.494  15.124  1.00  0.00    -0.358 OA
HETATM   19  H   UNL     1     -52.563  50.025  15.816  1.00  0.00     0.217 HD
ENDBRANCH   8  18
ENDBRANCH   1   3
TORSDOF 6
ENDMDL
MODEL 4
REMARK VINA RESULT:     -17.1      1.691      2.504
REMARK  6 active torsions:
REMARK  status: ('A' for Active; 'I' for Inactive)
REMARK    1  A    between atoms: O_1  and  C_11 
REMARK    2  A    between atoms: O_3  and  C_14 
REMARK    3  A    between atoms: N_5  and  CA_7 
REMARK    4  A    between atoms: C_6  and  CA_7 
REMARK    5  A    between atoms: C_6  and  C_8 
REMARK    6  A    between atoms: CA_7  and  C_12 
ROOT
HETATM    1  O   UNL     1     -52.832  47.846  14.039  1.00  0.00    -0.358 OA
HETATM    2  H   UNL     1     -53.444  47.150  14.178  1.00  0.00     0.217 HD
ENDROOT
BRANCH   1   3
HETATM    3  C   UNL     1     -53.198  48.939  13.313  1.00  0.00     0.099 A 
HETATM    4  C   UNL     1     -53.575  48.784  11.979  1.00  0.00     0.046 A 
HETATM    5  C   UNL     1     -53.945  49.898  11.246  1.00  0.00    -0.053 A 
HETATM    6  C   UNL     1     -53.949  51.163  11.806  1.00  0.00     0.010 A 
HETATM    7  C   UNL     1     -53.574  51.320  13.140  1.00  0.00     0.040 A 
HETATM    8  C   UNL     1     -53.198  50.208  13.893  1.00  0.00     0.098 A 
BRANCH   5   9
HETATM    9  C   UNL     1     -54.354  49.728   9.800  1.00  0.00     0.082 C 
BRANCH   9  10
HETATM   10  CA  UNL     1     -53.207  50.014   8.818  1.00  0.00     0.287 C 
BRANCH  10  11
HETATM   11  N   UNL     1     -53.529  51.191   8.013  1.00  0.00    -0.065 N 
HETATM   12  H   UNL     1     -54.519  51.175   7.768  1.00  0.00     0.275 HD
HETATM   13  H   UNL     1     -52.968  51.184   7.160  1.00  0.00     0.275 HD
HETATM   14  H   UNL     1     -53.324  52.035   8.547  1.00  0.00     0.275 HD
ENDBRANCH  10  11
BRANCH  10  15
HETATM   15  C   UNL     1     -52.987  48.869   7.845  1.00  0.00     0.204 C 
HETATM   16  O   UNL     1     -54.137  48.204   7.562  1.00  0.00    -0.646 OA
HETATM   17  OXT UNL     1     -51.902  48.544   7.379  1.00  0.00    -0.646 OA
ENDBRANCH  10  15
ENDBRANCH   9  10
ENDBRANCH   5   9
BRANCH   8  18
HETATM   18  O   UNL     1     -52.830  50.374  15.195  1.00  0.00    -0.358 OA
HETATM   19  H   UNL     1     -52.461  51.188  15.478  1.00  0.00     0.217 HD
ENDBRANCH   8  18
ENDBRANCH   1   3
TORSDOF 6
ENDMDL
MODEL 5
REMARK VINA RESULT:     -17.0      1.626      1.947
REMARK  6 active torsions:
REMARK  status: ('A' for Active; 'I' for Inactive)
REMARK    1  A    between atoms: O_1  and  C_11 
REMARK    2  A    between atoms: O_3  and  C_14 
REMARK    3  A    between atoms: N_5  and  CA_7 
REMARK    4  A    between atoms: C_6  and  CA_7 
REMARK    5  A    between atoms: C_6  and  C_8 
REMARK    6  A    between atoms: CA_7  and  C_12 
ROOT
HETATM    1  O   UNL     1     -53.952  51.949  12.971  1.00  0.00    -0.358 OA
HETATM    2  H   UNL     1     -53.784  52.346  13.802  1.00  0.00     0.217 HD
ENDROOT
BRANCH   1   3
HETATM    3  C   UNL     1     -53.615  50.647  12.757  1.00  0.00     0.099 A 
HETATM    4  C   UNL     1     -53.672  50.125  11.465  1.00  0.00     0.046 A 
HETATM    5  C   UNL     1     -53.328  48.801  11.253  1.00  0.00    -0.053 A 
HETATM    6  C   UNL     1     -52.930  47.982  12.296  1.00  0.00     0.010 A 
HETATM    7  C   UNL     1     -52.873  48.502  13.588  1.00  0.00     0.040 A 
HETATM    8  C   UNL     1     -53.215  49.835  13.819  1.00  0.00     0.098 A 
BRANCH   5   9
HETATM    9  C   UNL     1     -53.389  48.237   9.852  1.00  0.00     0.082 C 
BRANCH   9  10
HETATM   10  CA  UNL     1     -54.057  46.853   9.795  1.00  0.00     0.287 C 
BRANCH  10  11
HETATM   11  N   UNL     1     -53.058  45.837   9.466  1.00  0.00    -0.065 N 
HETATM   12  H   UNL     1     -52.260  45.927  10.096  1.00  0.00     0.275 HD
HETATM   13  H   UNL     1     -52.746  45.965   8.503  1.00  0.00     0.275 HD
HETATM   14  H   UNL     1     -53.470  44.910   9.569  1.00  0.00     0.275 HD
ENDBRANCH  10  11
BRANCH  10  15
HETATM   15  C   UNL     1     -55.124  46.777   8.717  1.00  0.00     0.204 C 
HETATM   16  O   UNL     1     -54.860  47.600   7.670  1.00  0.00    -0.646 OA
HETATM   17  OXT UNL     1     -56.132  46.083   8.778  1.00  0.00    -0.646 OA
ENDBRANCH  10  15
ENDBRANCH   9  10
ENDBRANCH   5   9
BRANCH   8  18
HETATM   18  O   UNL     1     -53.157  50.332  15.087  1.00  0.00    -0.358 OA
HETATM   19  H   UNL     1     -53.280  51.249  15.237  1.00  0.00     0.217 HD
ENDBRANCH   8  18
ENDBRANCH   1   3
TORSDOF 6
ENDMDL
MODEL 6
REMARK VINA RESULT:     -16.9      1.423      2.312
REMARK  6 active torsions:
REMARK  status: ('A' for Active; 'I' for Inactive)
REMARK    1  A    between atoms: O_1  and  C_11 
REMARK    2  A    between atoms: O_3  and  C_14 
REMARK    3  A    between atoms: N_5  and  CA_7 
REMARK    4  A    between atoms: C_6  and  CA_7 
REMARK    5  A    between atoms: C_6  and  C_8 
REMARK    6  A    between atoms: CA_7  and  C_12 
ROOT
HETATM    1  O   UNL     1     -53.384  50.869  13.910  1.00  0.00    -0.358 OA
HETATM    2  H   UNL     1     -53.582  51.684  14.328  1.00  0.00     0.217 HD
ENDROOT
BRANCH   1   3
HETATM    3  C   UNL     1     -53.605  50.717  12.575  1.00  0.00     0.099 A 
HETATM    4  C   UNL     1     -53.681  49.434  12.033  1.00  0.00     0.046 A 
HETATM    5  C   UNL     1     -53.906  49.284  10.675  1.00  0.00    -0.053 A 
HETATM    6  C   UNL     1     -54.056  50.380   9.843  1.00  0.00     0.010 A 
HETATM    7  C   UNL     1     -53.981  51.663  10.384  1.00  0.00     0.040 A 
HETATM    8  C   UNL     1     -53.755  51.831  11.750  1.00  0.00     0.098 A 
BRANCH   5   9
HETATM    9  C   UNL     1     -53.989  47.893  10.089  1.00  0.00     0.082 C 
BRANCH   9  10
HETATM   10  CA  UNL     1     -54.786  47.847   8.775  1.00  0.00     0.287 C 
BRANCH  10  11
HETATM   11  N   UNL     1     -55.873  46.876   8.892  1.00  0.00    -0.065 N 
HETATM   12  H   UNL     1     -56.683  47.322   9.322  1.00  0.00     0.275 HD
HETATM   13  H   UNL     1     -55.569  46.092   9.471  1.00  0.00     0.275 HD
HETATM   14  H   UNL     1     -56.126  46.535   7.965  1.00  0.00     0.275 HD
ENDBRANCH  10  11
BRANCH  10  15
HETATM   15  C   UNL     1     -53.930  47.401   7.602  1.00  0.00     0.204 C 
HETATM   16  O   UNL     1     -52.882  48.235   7.382  1.00  0.00    -0.646 OA
HETATM   17  OXT UNL     1     -54.157  46.421   6.903  1.00  0.00    -0.646 OA
ENDBRANCH  10  15
ENDBRANCH   9  10
ENDBRANCH   5   9
BRANCH   8  18
HETATM   18  O   UNL     1     -53.681  53.090  12.267  1.00  0.00    -0.358 OA
HETATM   19  H   UNL     1     -53.512  53.819  11.703  1.00  0.00     0.217 HD
ENDBRANCH   8  18
ENDBRANCH   1   3
TORSDOF 6
ENDMDL
MODEL 7
REMARK VINA RESULT:     -16.8      1.644      2.121
REMARK  6 active torsions:
REMARK  status: ('A' for Active; 'I' for Inactive)
REMARK    1  A    between atoms: O_1  and  C_11 
REMARK    2  A    between atoms: O_3  and  C_14 
REMARK    3  A    between atoms: N_5  and  CA_7 
REMARK    4  A    between atoms: C_6  and  CA_7 
REMARK    5  A    between atoms: C_6  and  C_8 
REMARK    6  A    between atoms: CA_7  and  C_12 
ROOT
HETATM    1  O   UNL     1     -54.082  52.658   9.374  1.00  0.00    -0.358 OA
HETATM    2  H   UNL     1     -53.751  52.614   8.499  1.00  0.00     0.217 HD
ENDROOT
BRANCH   1   3
HETATM    3  C   UNL     1     -53.941  51.593  10.211  1.00  0.00     0.099 A 
HETATM    4  C   UNL     1     -53.954  50.301   9.686  1.00  0.00     0.046 A 
HETATM    5  C   UNL     1     -53.811  49.221  10.540  1.00  0.00    -0.053 A 
HETATM    6  C   UNL     1     -53.657  49.394  11.905  1.00  0.00     0.010 A 
HETATM    7  C   UNL     1     -53.643  50.686  12.431  1.00  0.00     0.040 A 
HETATM    8  C   UNL     1     -53.786  51.785  11.584  1.00  0.00     0.098 A 
BRANCH   5   9
HETATM    9  C   UNL     1     -53.824  47.820   9.970  1.00  0.00     0.082 C 
BRANCH   9  10
HETATM   10  CA  UNL     1     -54.734  47.687   8.738  1.00  0.00     0.287 C 
BRANCH  10  11
HETATM   11  N   UNL     1     -55.671  46.582   8.935  1.00  0.00    -0.065 N 
HETATM   12  H   UNL     1     -56.131  46.364   8.051  1.00  0.00     0.275 HD
HETATM   13  H   UNL     1     -56.373  46.850   9.626  1.00  0.00     0.275 HD
HETATM   14  H   UNL     1     -55.165  45.761   9.267  1.00  0.00     0.275 HD
ENDBRANCH  10  11
BRANCH  10  15
HETATM   15  C   UNL     1     -53.948  47.370   7.478  1.00  0.00     0.204 C 
HETATM   16  O   UNL     1     -54.298  46.175   6.938  1.00  0.00    -0.646 OA
HETATM   17  OXT UNL     1     -53.073  48.083   7.001  1.00  0.00    -0.646 OA
ENDBRANCH  10  15
ENDBRANCH   9  10
ENDBRANCH   5   9
BRANCH   8  18
HETATM   18  O   UNL     1     -53.773  53.042  12.110  1.00  0.00    -0.358 OA
HETATM   19  H   UNL     1     -53.417  53.754  11.614  1.00  0.00     0.217 HD
ENDBRANCH   8  18
ENDBRANCH   1   3
TORSDOF 6
ENDMDL
MODEL 8
REMARK VINA RESULT:     -16.4      2.831      5.620
REMARK  6 active torsions:
REMARK  status: ('A' for Active; 'I' for Inactive)
REMARK    1  A    between atoms: O_1  and  C_11 
REMARK    2  A    between atoms: O_3  and  C_14 
REMARK    3  A    between atoms: N_5  and  CA_7 
REMARK    4  A    between atoms: C_6  and  CA_7 
REMARK    5  A    between atoms: C_6  and  C_8 
REMARK    6  A    between atoms: CA_7  and  C_12 
ROOT
HETATM    1  O   UNL     1     -54.046  49.206   7.958  1.00  0.00    -0.358 OA
HETATM    2  H   UNL     1     -54.890  49.066   7.577  1.00  0.00     0.217 HD
ENDROOT
BRANCH   1   3
HETATM    3  C   UNL     1     -53.939  49.819   9.170  1.00  0.00     0.099 A 
HETATM    4  C   UNL     1     -53.707  49.049  10.310  1.00  0.00     0.046 A 
HETATM    5  C   UNL     1     -53.600  49.677  11.540  1.00  0.00    -0.053 A 
HETATM    6  C   UNL     1     -53.720  51.050  11.664  1.00  0.00     0.010 A 
HETATM    7  C   UNL     1     -53.951  51.820  10.524  1.00  0.00     0.040 A 
HETATM    8  C   UNL     1     -54.061  51.204   9.277  1.00  0.00     0.098 A 
BRANCH   5   9
HETATM    9  C   UNL     1     -53.347  48.842  12.775  1.00  0.00     0.082 C 
BRANCH   9  10
HETATM   10  CA  UNL     1     -53.735  49.567  14.074  1.00  0.00     0.287 C 
BRANCH  10  11
HETATM   11  N   UNL     1     -53.009  50.833  14.168  1.00  0.00    -0.065 N 
HETATM   12  H   UNL     1     -53.365  51.482  13.466  1.00  0.00     0.275 HD
HETATM   13  H   UNL     1     -52.015  50.668  14.006  1.00  0.00     0.275 HD
HETATM   14  H   UNL     1     -53.140  51.232  15.097  1.00  0.00     0.275 HD
ENDBRANCH  10  11
BRANCH  10  15
HETATM   15  C   UNL     1     -53.369  48.764  15.310  1.00  0.00     0.204 C 
HETATM   16  O   UNL     1     -52.082  48.330  15.281  1.00  0.00    -0.646 OA
HETATM   17  OXT UNL     1     -54.137  48.499  16.226  1.00  0.00    -0.646 OA
ENDBRANCH  10  15
ENDBRANCH   9  10
ENDBRANCH   5   9
BRANCH   8  18
HETATM   18  O   UNL     1     -54.290  51.966   8.171  1.00  0.00    -0.358 OA
HETATM   19  H   UNL     1     -54.276  51.574   7.320  1.00  0.00     0.217 HD
ENDBRANCH   8  18
ENDBRANCH   1   3
TORSDOF 6
ENDMDL
MODEL 9
REMARK VINA RESULT:     -16.3      1.839      2.741
REMARK  6 active torsions:
REMARK  status: ('A' for Active; 'I' for Inactive)
REMARK    1  A    between atoms: O_1  and  C_11 
REMARK    2  A    between atoms: O_3  and  C_14 
REMARK    3  A    between atoms: N_5  and  CA_7 
REMARK    4  A    between atoms: C_6  and  CA_7 
REMARK    5  A    between atoms: C_6  and  C_8 
REMARK    6  A    between atoms: CA_7  and  C_12 
ROOT
HETATM    1  O   UNL     1     -52.198  46.798  13.458  1.00  0.00    -0.358 OA
HETATM    2  H   UNL     1     -51.466  46.459  12.983  1.00  0.00     0.217 HD
ENDROOT
BRANCH   1   3
HETATM    3  C   UNL     1     -52.712  48.018  13.137  1.00  0.00     0.099 A 
HETATM    4  C   UNL     1     -53.078  48.284  11.817  1.00  0.00     0.046 A 
HETATM    5  C   UNL     1     -53.600  49.526  11.497  1.00  0.00    -0.053 A 
HETATM    6  C   UNL     1     -53.765  50.510  12.455  1.00  0.00     0.010 A 
HETATM    7  C   UNL     1     -53.399  50.245  13.775  1.00  0.00     0.040 A 
HETATM    8  C   UNL     1     -52.873  48.999  14.116  1.00  0.00     0.098 A 
BRANCH   5   9
HETATM    9  C   UNL     1     -53.998  49.813  10.066  1.00  0.00     0.082 C 
BRANCH   9  10
HETATM   10  CA  UNL     1     -53.491  48.747   9.081  1.00  0.00     0.287 C 
BRANCH  10  11
HETATM   11  N   UNL     1     -53.032  49.391   7.851  1.00  0.00    -0.065 N 
HETATM   12  H   UNL     1     -52.033  49.223   7.732  1.00  0.00     0.275 HD
HETATM   13  H   UNL     1     -53.203  50.396   7.909  1.00  0.00     0.275 HD
HETATM   14  H   UNL     1     -53.539  49.005   7.056  1.00  0.00     0.275 HD
ENDBRANCH  10  11
BRANCH  10  15
HETATM   15  C   UNL     1     -54.585  47.773   8.679  1.00  0.00     0.204 C 
HETATM   16  O   UNL     1     -54.284  47.101   7.539  1.00  0.00    -0.646 OA
HETATM   17  OXT UNL     1     -55.639  47.616   9.283  1.00  0.00    -0.646 OA
ENDBRANCH  10  15
ENDBRANCH   9  10
ENDBRANCH   5   9
BRANCH   8  18
HETATM   18  O   UNL     1     -52.517  48.753  15.408  1.00  0.00    -0.358 OA
HETATM   19  H   UNL     1     -51.657  48.436  15.605  1.00  0.00     0.217 HD
ENDBRANCH   8  18
ENDBRANCH   1   3
TORSDOF 6
ENDMDL
