MODEL 1
REMARK VINA RESULT:     -18.2      0.000      0.000
REMARK  6 active torsions:
REMARK  status: ('A' for Active; 'I' for Inactive)
REMARK    1  A    between atoms: O_1  and  C_11 
REMARK    2  A    between atoms: O_3  and  C_14 
REMARK    3  A    between atoms: N_5  and  CA_7 
REMARK    4  A    between atoms: C_6  and  CA_7 
REMARK    5  A    between atoms: C_6  and  C_8 
REMARK    6  A    between atoms: CA_7  and  C_12 
ROOT
HETATM    1  O   UNL     1     -53.673  52.915  12.321  1.00  0.00    -0.358 OA
HETATM    2  H   UNL     1     -53.474  53.585  11.698  1.00  0.00     0.217 HD
ENDROOT
BRANCH   1   3
HETATM    3  C   UNL     1     -53.706  51.610  11.931  1.00  0.00     0.099 A 
HETATM    4  C   UNL     1     -53.927  51.300  10.589  1.00  0.00     0.046 A 
HETATM    5  C   UNL     1     -53.959  49.972  10.198  1.00  0.00    -0.053 A 
HETATM    6  C   UNL     1     -53.778  48.946  11.109  1.00  0.00     0.010 A 
HETATM    7  C   UNL     1     -53.557  49.255  12.450  1.00  0.00     0.040 A 
HETATM    8  C   UNL     1     -53.521  50.588  12.862  1.00  0.00     0.098 A 
BRANCH   5   9
HETATM    9  C   UNL     1     -54.197  49.636   8.743  1.00  0.00     0.082 C 
BRANCH   9  10
HETATM   10  CA  UNL     1     -53.384  48.420   8.271  1.00  0.00     0.287 C 
BRANCH  10  11
HETATM   11  N   UNL     1     -52.421  48.837   7.252  1.00  0.00    -0.065 N 
HETATM   12  H   UNL     1     -52.647  48.386   6.365  1.00  0.00     0.275 HD
HETATM   13  H   UNL     1     -51.481  48.566   7.542  1.00  0.00     0.275 HD
HETATM   14  H   UNL     1     -52.463  49.850   7.139  1.00  0.00     0.275 HD
ENDBRANCH  10  11
BRANCH  10  15
HETATM   15  C   UNL     1     -54.261  47.359   7.630  1.00  0.00     0.204 C 
HETATM   16  O   UNL     1     -55.356  47.072   8.381  1.00  0.00    -0.646 OA
HETATM   17  OXT UNL     1     -54.014  46.791   6.574  1.00  0.00    -0.646 OA
ENDBRANCH  10  15
ENDBRANCH   9  10
ENDBRANCH   5   9
BRANCH   8  18
HETATM   18  O   UNL     1     -53.306  50.878  14.175  1.00  0.00    -0.358 OA
HETATM   19  H   UNL     1     -53.341  50.197  14.818  1.00  0.00     0.217 HD
ENDBRANCH   8  18
ENDBRANCH   1   3
TORSDOF 6
ENDMDL
MODEL 2
REMARK VINA RESULT:     -18.1      1.115      2.148
REMARK  6 active torsions:
REMARK  status: ('A' for Active; 'I' for Inactive)
REMARK    1  A    between atoms: O_1  and  C_11 
REMARK    2  A    between atoms: O_3  and  C_14 
REMARK    3  A    between atoms: N_5  and  CA_7 
REMARK    4  A    between atoms: C_6  and  CA_7 
REMARK    5  A    between atoms: C_6  and  C_8 
REMARK    6  A    between atoms: CA_7  and  C_12 
ROOT
HETATM    1  O   UNL     1     -52.967  47.957  13.542  1.00  0.00    -0.358 OA
HETATM    2  H   UNL     1     -53.345  47.816  14.387  1.00  0.00     0.217 HD
ENDROOT
BRANCH   1   3
HETATM    3  C   UNL     1     -53.287  49.073  12.830  1.00  0.00     0.099 A 
HETATM    4  C   UNL     1     -53.532  48.969  11.461  1.00  0.00     0.046 A 
HETATM    5  C   UNL     1     -53.858  50.106  10.743  1.00  0.00    -0.053 A 
HETATM    6  C   UNL     1     -53.943  51.346  11.352  1.00  0.00     0.010 A 
HETATM    7  C   UNL     1     -53.699  51.452  12.721  1.00  0.00     0.040 A 
HETATM    8  C   UNL     1     -53.370  50.315  13.460  1.00  0.00     0.098 A 
BRANCH   5   9
HETATM    9  C   UNL     1     -54.125  49.992   9.259  1.00  0.00     0.082 C 
BRANCH   9  10
HETATM   10  CA  UNL     1     -53.444  48.769   8.623  1.00  0.00     0.287 C 
BRANCH  10  11
HETATM   11  N   UNL     1     -52.588  49.199   7.519  1.00  0.00    -0.065 N 
HETATM   12  H   UNL     1     -52.225  48.380   7.030  1.00  0.00     0.275 HD
HETATM   13  H   UNL     1     -51.810  49.748   7.886  1.00  0.00     0.275 HD
HETATM   14  H   UNL     1     -53.130  49.770   6.871  1.00  0.00     0.275 HD
ENDBRANCH  10  11
BRANCH  10  15
HETATM   15  C   UNL     1     -54.451  47.794   8.038  1.00  0.00     0.204 C 
HETATM   16  O   UNL     1     -54.161  47.461   6.754  1.00  0.00    -0.646 OA
HETATM   17  OXT UNL     1     -55.436  47.367   8.627  1.00  0.00    -0.646 OA
ENDBRANCH  10  15
ENDBRANCH   9  10
ENDBRANCH   5   9
BRANCH   8  18
HETATM   18  O   UNL     1     -53.131  50.431  14.797  1.00  0.00    -0.358 OA
HETATM   19  H   UNL     1     -52.250  50.425  15.118  1.00  0.00     0.217 HD
ENDBRANCH   8  18
ENDBRANCH   1   3
TORSDOF 6
ENDMDL
MODEL 3
REMARK VINA RESULT:     -17.5      1.789      1.997
REMARK  6 active torsions:
REMARK  status: ('A' for Active; 'I' for Inactive)
REMARK    1  A    between atoms: O_1  and  C_11 
REMARK    2  A    between atoms: O_3  and  C_14 
REMARK    3  A    between atoms: N_5  and  CA_7 
REMARK    4  A    between atoms: C_6  and  CA_7 
REMARK    5  A    between atoms: C_6  and  C_8 
REMARK    6  A    between atoms: CA_7  and  C_12 
ROOT
HETATM    1  O   UNL     1     -53.935  51.923  12.963  1.00  0.00    -0.358 OA
HETATM    2  H   UNL     1     -53.837  52.331  13.800  1.00  0.00     0.217 HD
ENDROOT
BRANCH   1   3
HETATM    3  C   UNL     1     -53.603  50.612  12.801  1.00  0.00     0.099 A 
HETATM    4  C   UNL     1     -53.773  50.009  11.555  1.00  0.00     0.046 A 
HETATM    5  C   UNL     1     -53.434  48.676  11.396  1.00  0.00    -0.053 A 
HETATM    6  C   UNL     1     -52.932  47.927  12.446  1.00  0.00     0.010 A 
HETATM    7  C   UNL     1     -52.761  48.530  13.692  1.00  0.00     0.040 A 
HETATM    8  C   UNL     1     -53.097  49.872  13.870  1.00  0.00     0.098 A 
BRANCH   5   9
HETATM    9  C   UNL     1     -53.618  48.023  10.044  1.00  0.00     0.082 C 
BRANCH   9  10
HETATM   10  CA  UNL     1     -53.244  48.952   8.878  1.00  0.00     0.287 C 
BRANCH  10  11
HETATM   11  N   UNL     1     -54.431  49.233   8.071  1.00  0.00    -0.065 N 
HETATM   12  H   UNL     1     -54.146  49.603   7.164  1.00  0.00     0.275 HD
HETATM   13  H   UNL     1     -55.013  49.921   8.551  1.00  0.00     0.275 HD
HETATM   14  H   UNL     1     -54.962  48.373   7.937  1.00  0.00     0.275 HD
ENDBRANCH  10  11
BRANCH  10  15
HETATM   15  C   UNL     1     -52.226  48.318   7.945  1.00  0.00     0.204 C 
HETATM   16  O   UNL     1     -51.599  47.254   8.511  1.00  0.00    -0.646 OA
HETATM   17  OXT UNL     1     -51.962  48.721   6.819  1.00  0.00    -0.646 OA
ENDBRANCH  10  15
ENDBRANCH   9  10
ENDBRANCH   5   9
BRANCH   8  18
HETATM   18  O   UNL     1     -52.928  50.449  15.092  1.00  0.00    -0.358 OA
HETATM   19  H   UNL     1     -52.917  49.917  15.864  1.00  0.00     0.217 HD
ENDBRANCH   8  18
ENDBRANCH   1   3
TORSDOF 6
ENDMDL
MODEL 4
REMARK VINA RESULT:     -17.0      3.627      5.985
REMARK  6 active torsions:
REMARK  status: ('A' for Active; 'I' for Inactive)
REMARK    1  A    between atoms: O_1  and  C_11 
REMARK    2  A    between atoms: O_3  and  C_14 
REMARK    3  A    between atoms: N_5  and  CA_7 
REMARK    4  A    between atoms: C_6  and  CA_7 
REMARK    5  A    between atoms: C_6  and  C_8 
REMARK    6  A    between atoms: CA_7  and  C_12 
ROOT
HETATM    1  O   UNL     1     -53.950  52.167  12.758  1.00  0.00    -0.358 OA
HETATM    2  H   UNL     1     -54.822  52.423  12.986  1.00  0.00     0.217 HD
ENDROOT
BRANCH   1   3
HETATM    3  C   UNL     1     -53.678  50.866  12.461  1.00  0.00     0.099 A 
HETATM    4  C   UNL     1     -53.297  49.994  13.481  1.00  0.00     0.046 A 
HETATM    5  C   UNL     1     -53.021  48.672  13.174  1.00  0.00    -0.053 A 
HETATM    6  C   UNL     1     -53.113  48.197  11.877  1.00  0.00     0.010 A 
HETATM    7  C   UNL     1     -53.495  49.068  10.857  1.00  0.00     0.040 A 
HETATM    8  C   UNL     1     -53.777  50.403  11.149  1.00  0.00     0.098 A 
BRANCH   5   9
HETATM    9  C   UNL     1     -52.609  47.727  14.280  1.00  0.00     0.082 C 
BRANCH   9  10
HETATM   10  CA  UNL     1     -52.681  48.373  15.673  1.00  0.00     0.287 C 
BRANCH  10  11
HETATM   11  N   UNL     1     -51.336  48.741  16.116  1.00  0.00    -0.065 N 
HETATM   12  H   UNL     1     -50.646  48.221  15.574  1.00  0.00     0.275 HD
HETATM   13  H   UNL     1     -51.231  48.516  17.105  1.00  0.00     0.275 HD
HETATM   14  H   UNL     1     -51.195  49.741  15.977  1.00  0.00     0.275 HD
ENDBRANCH  10  11
BRANCH  10  15
HETATM   15  C   UNL     1     -53.236  47.420  16.718  1.00  0.00     0.204 C 
HETATM   16  O   UNL     1     -52.341  46.463  17.072  1.00  0.00    -0.646 OA
HETATM   17  OXT UNL     1     -54.369  47.472  17.180  1.00  0.00    -0.646 OA
ENDBRANCH  10  15
ENDBRANCH   9  10
ENDBRANCH   5   9
BRANCH   8  18
HETATM   18  O   UNL     1     -54.146  51.245  10.143  1.00  0.00    -0.358 OA
HETATM   19  H   UNL     1     -53.540  51.453   9.460  1.00  0.00     0.217 HD
ENDBRANCH   8  18
ENDBRANCH   1   3
TORSDOF 6
ENDMDL
MODEL 5
REMARK VINA RESULT:     -16.9      1.630      2.449
REMARK  6 active torsions:
REMARK  status: ('A' for Active; 'I' for Inactive)
REMARK    1  A    between atoms: O_1  and  C_11 
REMARK    2  A    between atoms: O_3  and  C_14 
REMARK    3  A    between atoms: N_5  and  CA_7 
REMARK    4  A    between atoms: C_6  and  CA_7 
REMARK    5  A    between atoms: C_6  and  C_8 
REMARK    6  A    between atoms: CA_7  and  C_12 
ROOT
HETATM    1  O   UNL     1     -52.943  50.501  15.214  1.00  0.00    -0.358 OA
HETATM    2  H   UNL     1     -52.459  50.182  15.950  1.00  0.00     0.217 HD
ENDROOT
BRANCH   1   3
HETATM    3  C   UNL     1     -53.025  49.754  14.078  1.00  0.00     0.099 A 
HETATM    4  C   UNL     1     -53.594  50.308  12.932  1.00  0.00     0.046 A 
HETATM    5  C   UNL     1     -53.675  49.545  11.779  1.00  0.00    -0.053 A 
HETATM    6  C   UNL     1     -53.204  48.244  11.739  1.00  0.00     0.010 A 
HETATM    7  C   UNL     1     -52.634  47.690  12.885  1.00  0.00     0.040 A 
HETATM    8  C   UNL     1     -52.545  48.445  14.055  1.00  0.00     0.098 A 
BRANCH   5   9
HETATM    9  C   UNL     1     -54.291  50.147  10.536  1.00  0.00     0.082 C 
BRANCH   9  10
HETATM   10  CA  UNL     1     -53.789  49.486   9.242  1.00  0.00     0.287 C 
BRANCH  10  11
HETATM   11  N   UNL     1     -53.678  50.491   8.186  1.00  0.00    -0.065 N 
HETATM   12  H   UNL     1     -52.756  50.927   8.227  1.00  0.00     0.275 HD
HETATM   13  H   UNL     1     -54.396  51.204   8.318  1.00  0.00     0.275 HD
HETATM   14  H   UNL     1     -53.804  50.045   7.278  1.00  0.00     0.275 HD
ENDBRANCH  10  11
BRANCH  10  15
HETATM   15  C   UNL     1     -54.748  48.425   8.732  1.00  0.00     0.204 C 
HETATM   16  O   UNL     1     -54.562  48.149   7.416  1.00  0.00    -0.646 OA
HETATM   17  OXT UNL     1     -55.619  47.887   9.405  1.00  0.00    -0.646 OA
ENDBRANCH  10  15
ENDBRANCH   9  10
ENDBRANCH   5   9
BRANCH   8  18
HETATM   18  O   UNL     1     -51.988  47.891  15.169  1.00  0.00    -0.358 OA
HETATM   19  H   UNL     1     -51.761  48.434  15.898  1.00  0.00     0.217 HD
ENDBRANCH   8  18
ENDBRANCH   1   3
TORSDOF 6
ENDMDL
MODEL 6
REMARK VINA RESULT:     -16.9      1.414      2.270
REMARK  6 active torsions:
REMARK  status: ('A' for Active; 'I' for Inactive)
REMARK    1  A    between atoms: O_1  and  C_11 
REMARK    2  A    between atoms: O_3  and  C_14 
REMARK    3  A    between atoms: N_5  and  CA_7 
REMARK    4  A    between atoms: C_6  and  CA_7 
REMARK    5  A    between atoms: C_6  and  C_8 
REMARK    6  A    between atoms: CA_7  and  C_12 
ROOT
HETATM    1  O   UNL     1     -53.429  50.803  13.923  1.00  0.00    -0.358 OA
HETATM    2  H   UNL     1     -53.222  50.056  14.449  1.00  0.00     0.217 HD
ENDROOT
BRANCH   1   3
HETATM    3  C   UNL     1     -53.600  50.661  12.579  1.00  0.00     0.099 A 
HETATM    4  C   UNL     1     -53.625  49.383  12.020  1.00  0.00     0.046 A 
HETATM    5  C   UNL     1     -53.799  49.244  10.654  1.00  0.00    -0.053 A 
HETATM    6  C   UNL     1     -53.948  50.346   9.829  1.00  0.00     0.010 A 
HETATM    7  C   UNL     1     -53.924  51.624  10.386  1.00  0.00     0.040 A 
HETATM    8  C   UNL     1     -53.750  51.781  11.762  1.00  0.00     0.098 A 
BRANCH   5   9
HETATM    9  C   UNL     1     -53.827  47.859  10.049  1.00  0.00     0.082 C 
BRANCH   9  10
HETATM   10  CA  UNL     1     -54.737  47.765   8.814  1.00  0.00     0.287 C 
BRANCH  10  11
HETATM   11  N   UNL     1     -55.754  46.737   9.027  1.00  0.00    -0.065 N 
HETATM   12  H   UNL     1     -56.681  47.161   8.986  1.00  0.00     0.275 HD
HETATM   13  H   UNL     1     -55.617  46.308   9.943  1.00  0.00     0.275 HD
HETATM   14  H   UNL     1     -55.674  46.023   8.303  1.00  0.00     0.275 HD
ENDBRANCH  10  11
BRANCH  10  15
HETATM   15  C   UNL     1     -53.969  47.364   7.566  1.00  0.00     0.204 C 
HETATM   16  O   UNL     1     -54.327  46.136   7.112  1.00  0.00    -0.646 OA
HETATM   17  OXT UNL     1     -53.100  48.042   7.032  1.00  0.00    -0.646 OA
ENDBRANCH  10  15
ENDBRANCH   9  10
ENDBRANCH   5   9
BRANCH   8  18
HETATM   18  O   UNL     1     -53.726  53.035  12.295  1.00  0.00    -0.358 OA
HETATM   19  H   UNL     1     -53.801  53.152  13.221  1.00  0.00     0.217 HD
ENDBRANCH   8  18
ENDBRANCH   1   3
TORSDOF 6
ENDMDL
MODEL 7
REMARK VINA RESULT:     -16.8      1.641      2.122
REMARK  6 active torsions:
REMARK  status: ('A' for Active; 'I' for Inactive)
REMARK    1  A    between atoms: O_1  and  C_11 
REMARK    2  A    between atoms: O_3  and  C_14 
REMARK    3  A    between atoms: N_5  and  CA_7 
REMARK    4  A    between atoms: C_6  and  CA_7 
REMARK    5  A    between atoms: C_6  and  C_8 
REMARK    6  A    between atoms: CA_7  and  C_12 
ROOT
HETATM    1  O   UNL     1     -54.089  52.642   9.356  1.00  0.00    -0.358 OA
HETATM    2  H   UNL     1     -53.814  52.572   8.463  1.00  0.00     0.217 HD
ENDROOT
BRANCH   1   3
HETATM    3  C   UNL     1     -53.945  51.581  10.198  1.00  0.00     0.099 A 
HETATM    4  C   UNL     1     -53.953  50.287   9.680  1.00  0.00     0.046 A 
HETATM    5  C   UNL     1     -53.807  49.212  10.540  1.00  0.00    -0.053 A 
HETATM    6  C   UNL     1     -53.654  49.393  11.904  1.00  0.00     0.010 A 
HETATM    7  C   UNL     1     -53.644  50.687  12.423  1.00  0.00     0.040 A 
HETATM    8  C   UNL     1     -53.791  51.782  11.570  1.00  0.00     0.098 A 
BRANCH   5   9
HETATM    9  C   UNL     1     -53.815  47.808   9.977  1.00  0.00     0.082 C 
BRANCH   9  10
HETATM   10  CA  UNL     1     -54.722  47.666   8.745  1.00  0.00     0.287 C 
BRANCH  10  11
HETATM   11  N   UNL     1     -55.653  46.555   8.943  1.00  0.00    -0.065 N 
HETATM   12  H   UNL     1     -55.915  46.165   8.037  1.00  0.00     0.275 HD
HETATM   13  H   UNL     1     -56.488  46.893   9.423  1.00  0.00     0.275 HD
HETATM   14  H   UNL     1     -55.205  45.834   9.507  1.00  0.00     0.275 HD
ENDBRANCH  10  11
BRANCH  10  15
HETATM   15  C   UNL     1     -53.932  47.351   7.486  1.00  0.00     0.204 C 
HETATM   16  O   UNL     1     -54.330  46.191   6.904  1.00  0.00    -0.646 OA
HETATM   17  OXT UNL     1     -53.017  48.035   7.045  1.00  0.00    -0.646 OA
ENDBRANCH  10  15
ENDBRANCH   9  10
ENDBRANCH   5   9
BRANCH   8  18
HETATM   18  O   UNL     1     -53.782  53.042  12.089  1.00  0.00    -0.358 OA
HETATM   19  H   UNL     1     -53.509  53.182  12.975  1.00  0.00     0.217 HD
ENDBRANCH   8  18
ENDBRANCH   1   3
TORSDOF 6
ENDMDL
MODEL 8
REMARK VINA RESULT:     -16.7      1.645      2.428
REMARK  6 active torsions:
REMARK  status: ('A' for Active; 'I' for Inactive)
REMARK    1  A    between atoms: O_1  and  C_11 
REMARK    2  A    between atoms: O_3  and  C_14 
REMARK    3  A    between atoms: N_5  and  CA_7 
REMARK    4  A    between atoms: C_6  and  CA_7 
REMARK    5  A    between atoms: C_6  and  C_8 
REMARK    6  A    between atoms: CA_7  and  C_12 
ROOT
HETATM    1  O   UNL     1     -52.573  47.909  14.531  1.00  0.00    -0.358 OA
HETATM    2  H   UNL     1     -51.800  48.071  15.035  1.00  0.00     0.217 HD
ENDROOT
BRANCH   1   3
HETATM    3  C   UNL     1     -52.978  48.812  13.595  1.00  0.00     0.099 A 
HETATM    4  C   UNL     1     -53.190  48.393  12.282  1.00  0.00     0.046 A 
HETATM    5  C   UNL     1     -53.602  49.315  11.335  1.00  0.00    -0.053 A 
HETATM    6  C   UNL     1     -53.806  50.645  11.662  1.00  0.00     0.010 A 
HETATM    7  C   UNL     1     -53.594  51.065  12.975  1.00  0.00     0.040 A 
HETATM    8  C   UNL     1     -53.180  50.148  13.942  1.00  0.00     0.098 A 
BRANCH   5   9
HETATM    9  C   UNL     1     -53.834  48.860   9.912  1.00  0.00     0.082 C 
BRANCH   9  10
HETATM   10  CA  UNL     1     -53.535  47.365   9.708  1.00  0.00     0.287 C 
BRANCH  10  11
HETATM   11  N   UNL     1     -52.232  47.206   9.065  1.00  0.00    -0.065 N 
HETATM   12  H   UNL     1     -51.608  47.953   9.372  1.00  0.00     0.275 HD
HETATM   13  H   UNL     1     -52.345  47.251   8.052  1.00  0.00     0.275 HD
HETATM   14  H   UNL     1     -51.834  46.303   9.323  1.00  0.00     0.275 HD
ENDBRANCH  10  11
BRANCH  10  15
HETATM   15  C   UNL     1     -54.553  46.698   8.799  1.00  0.00     0.204 C 
HETATM   16  O   UNL     1     -55.797  47.222   8.944  1.00  0.00    -0.646 OA
HETATM   17  OXT UNL     1     -54.308  45.771   8.037  1.00  0.00    -0.646 OA
ENDBRANCH  10  15
ENDBRANCH   9  10
ENDBRANCH   5   9
BRANCH   8  18
HETATM   18  O   UNL     1     -52.974  50.571  15.221  1.00  0.00    -0.358 OA
HETATM   19  H   UNL     1     -52.161  50.387  15.650  1.00  0.00     0.217 HD
ENDBRANCH   8  18
ENDBRANCH   1   3
TORSDOF 6
ENDMDL
MODEL 9
REMARK VINA RESULT:     -16.7      2.744      5.587
REMARK  6 active torsions:
REMARK  status: ('A' for Active; 'I' for Inactive)
REMARK    1  A    between atoms: O_1  and  C_11 
REMARK    2  A    between atoms: O_3  and  C_14 
REMARK    3  A    between atoms: N_5  and  CA_7 
REMARK    4  A    between atoms: C_6  and  CA_7 
REMARK    5  A    between atoms: C_6  and  C_8 
REMARK    6  A    between atoms: CA_7  and  C_12 
ROOT
HETATM    1  O   UNL     1     -54.170  49.127   7.818  1.00  0.00    -0.358 OA
HETATM    2  H   UNL     1     -53.425  48.963   7.273  1.00  0.00     0.217 HD
ENDROOT
BRANCH   1   3
HETATM    3  C   UNL     1     -54.018  49.795   8.995  1.00  0.00     0.099 A 
HETATM    4  C   UNL     1     -53.812  49.076  10.172  1.00  0.00     0.046 A 
HETATM    5  C   UNL     1     -53.659  49.761  11.366  1.00  0.00    -0.053 A 
HETATM    6  C   UNL     1     -53.708  51.143  11.418  1.00  0.00     0.010 A 
HETATM    7  C   UNL     1     -53.914  51.863  10.241  1.00  0.00     0.040 A 
HETATM    8  C   UNL     1     -54.069  51.189   9.029  1.00  0.00     0.098 A 
BRANCH   5   9
HETATM    9  C   UNL     1     -53.435  48.980  12.641  1.00  0.00     0.082 C 
BRANCH   9  10
HETATM   10  CA  UNL     1     -53.814  49.775  13.901  1.00  0.00     0.287 C 
BRANCH  10  11
HETATM   11  N   UNL     1     -53.289  51.136  13.803  1.00  0.00    -0.065 N 
HETATM   12  H   UNL     1     -53.963  51.727  13.315  1.00  0.00     0.275 HD
HETATM   13  H   UNL     1     -52.410  51.124  13.284  1.00  0.00     0.275 HD
HETATM   14  H   UNL     1     -53.126  51.506  14.739  1.00  0.00     0.275 HD
ENDBRANCH  10  11
BRANCH  10  15
HETATM   15  C   UNL     1     -53.219  49.169  15.160  1.00  0.00     0.204 C 
HETATM   16  O   UNL     1     -54.171  48.782  16.047  1.00  0.00    -0.646 OA
HETATM   17  OXT UNL     1     -52.020  49.060  15.385  1.00  0.00    -0.646 OA
ENDBRANCH  10  15
ENDBRANCH   9  10
ENDBRANCH   5   9
BRANCH   8  18
HETATM   18  O   UNL     1     -54.272  51.903   7.887  1.00  0.00    -0.358 OA
HETATM   19  H   UNL     1     -54.588  52.784   7.935  1.00  0.00     0.217 HD
ENDBRANCH   8  18
ENDBRANCH   1   3
TORSDOF 6
ENDMDL
