MODEL 1
REMARK VINA RESULT:     -18.2      0.000      0.000
REMARK  6 active torsions:
REMARK  status: ('A' for Active; 'I' for Inactive)
REMARK    1  A    between atoms: O_1  and  C_11 
REMARK    2  A    between atoms: O_3  and  C_14 
REMARK    3  A    between atoms: N_5  and  CA_7 
REMARK    4  A    between atoms: C_6  and  CA_7 
REMARK    5  A    between atoms: C_6  and  C_8 
REMARK    6  A    between atoms: CA_7  and  C_12 
ROOT
HETATM    1  O   UNL     1     -53.676  52.909  12.329  1.00  0.00    -0.358 OA
HETATM    2  H   UNL     1     -53.344  53.133  13.176  1.00  0.00     0.217 HD
ENDROOT
BRANCH   1   3
HETATM    3  C   UNL     1     -53.704  51.606  11.932  1.00  0.00     0.099 A 
HETATM    4  C   UNL     1     -53.926  51.301  10.590  1.00  0.00     0.046 A 
HETATM    5  C   UNL     1     -53.953  49.976  10.192  1.00  0.00    -0.053 A 
HETATM    6  C   UNL     1     -53.767  48.945  11.097  1.00  0.00     0.010 A 
HETATM    7  C   UNL     1     -53.544  49.249  12.440  1.00  0.00     0.040 A 
HETATM    8  C   UNL     1     -53.513  50.579  12.858  1.00  0.00     0.098 A 
BRANCH   5   9
HETATM    9  C   UNL     1     -54.193  49.646   8.735  1.00  0.00     0.082 C 
BRANCH   9  10
HETATM   10  CA  UNL     1     -53.390  48.424   8.261  1.00  0.00     0.287 C 
BRANCH  10  11
HETATM   11  N   UNL     1     -52.439  48.831   7.228  1.00  0.00    -0.065 N 
HETATM   12  H   UNL     1     -51.601  49.212   7.668  1.00  0.00     0.275 HD
HETATM   13  H   UNL     1     -52.865  49.543   6.634  1.00  0.00     0.275 HD
HETATM   14  H   UNL     1     -52.186  48.022   6.660  1.00  0.00     0.275 HD
ENDBRANCH  10  11
BRANCH  10  15
HETATM   15  C   UNL     1     -54.280  47.362   7.638  1.00  0.00     0.204 C 
HETATM   16  O   UNL     1     -55.393  47.123   8.377  1.00  0.00    -0.646 OA
HETATM   17  OXT UNL     1     -54.027  46.756   6.604  1.00  0.00    -0.646 OA
ENDBRANCH  10  15
ENDBRANCH   9  10
ENDBRANCH   5   9
BRANCH   8  18
HETATM   18  O   UNL     1     -53.297  50.864  14.173  1.00  0.00    -0.358 OA
HETATM   19  H   UNL     1     -53.340  51.750  14.474  1.00  0.00     0.217 HD
ENDBRANCH   8  18
ENDBRANCH   1   3
TORSDOF 6
ENDMDL
MODEL 2
REMARK VINA RESULT:     -18.1      1.106      2.142
REMARK  6 active torsions:
REMARK  status: ('A' for Active; 'I' for Inactive)
REMARK    1  A    between atoms: O_1  and  C_11 
REMARK    2  A    between atoms: O_3  and  C_14 
REMARK    3  A    between atoms: N_5  and  CA_7 
REMARK    4  A    between atoms: C_6  and  CA_7 
REMARK    5  A    between atoms: C_6  and  C_8 
REMARK    6  A    between atoms: CA_7  and  C_12 
ROOT
HETATM    1  O   UNL     1     -52.968  47.959  13.544  1.00  0.00    -0.358 OA
HETATM    2  H   UNL     1     -52.547  48.043  14.376  1.00  0.00     0.217 HD
ENDROOT
BRANCH   1   3
HETATM    3  C   UNL     1     -53.289  49.073  12.828  1.00  0.00     0.099 A 
HETATM    4  C   UNL     1     -53.531  48.963  11.459  1.00  0.00     0.046 A 
HETATM    5  C   UNL     1     -53.856  50.098  10.736  1.00  0.00    -0.053 A 
HETATM    6  C   UNL     1     -53.946  51.340  11.341  1.00  0.00     0.010 A 
HETATM    7  C   UNL     1     -53.705  51.450  12.710  1.00  0.00     0.040 A 
HETATM    8  C   UNL     1     -53.376  50.316  13.454  1.00  0.00     0.098 A 
BRANCH   5   9
HETATM    9  C   UNL     1     -54.119  49.978   9.252  1.00  0.00     0.082 C 
BRANCH   9  10
HETATM   10  CA  UNL     1     -53.434  48.755   8.622  1.00  0.00     0.287 C 
BRANCH  10  11
HETATM   11  N   UNL     1     -52.578  49.185   7.517  1.00  0.00    -0.065 N 
HETATM   12  H   UNL     1     -51.623  48.864   7.681  1.00  0.00     0.275 HD
HETATM   13  H   UNL     1     -52.588  50.203   7.454  1.00  0.00     0.275 HD
HETATM   14  H   UNL     1     -52.924  48.787   6.644  1.00  0.00     0.275 HD
ENDBRANCH  10  11
BRANCH  10  15
HETATM   15  C   UNL     1     -54.436  47.775   8.038  1.00  0.00     0.204 C 
HETATM   16  O   UNL     1     -54.145  47.439   6.755  1.00  0.00    -0.646 OA
HETATM   17  OXT UNL     1     -55.420  47.345   8.629  1.00  0.00    -0.646 OA
ENDBRANCH  10  15
ENDBRANCH   9  10
ENDBRANCH   5   9
BRANCH   8  18
HETATM   18  O   UNL     1     -53.140  50.437  14.791  1.00  0.00    -0.358 OA
HETATM   19  H   UNL     1     -52.702  49.750  15.253  1.00  0.00     0.217 HD
ENDBRANCH   8  18
ENDBRANCH   1   3
TORSDOF 6
ENDMDL
MODEL 3
REMARK VINA RESULT:     -17.6      1.764      1.964
REMARK  6 active torsions:
REMARK  status: ('A' for Active; 'I' for Inactive)
REMARK    1  A    between atoms: O_1  and  C_11 
REMARK    2  A    between atoms: O_3  and  C_14 
REMARK    3  A    between atoms: N_5  and  CA_7 
REMARK    4  A    between atoms: C_6  and  CA_7 
REMARK    5  A    between atoms: C_6  and  C_8 
REMARK    6  A    between atoms: CA_7  and  C_12 
ROOT
HETATM    1  O   UNL     1     -53.955  52.023  12.897  1.00  0.00    -0.358 OA
HETATM    2  H   UNL     1     -53.329  52.623  13.252  1.00  0.00     0.217 HD
ENDROOT
BRANCH   1   3
HETATM    3  C   UNL     1     -53.630  50.708  12.753  1.00  0.00     0.099 A 
HETATM    4  C   UNL     1     -53.793  50.093  11.511  1.00  0.00     0.046 A 
HETATM    5  C   UNL     1     -53.462  48.756  11.370  1.00  0.00    -0.053 A 
HETATM    6  C   UNL     1     -52.975  48.016  12.433  1.00  0.00     0.010 A 
HETATM    7  C   UNL     1     -52.813  48.630  13.674  1.00  0.00     0.040 A 
HETATM    8  C   UNL     1     -53.141  49.976  13.834  1.00  0.00     0.098 A 
BRANCH   5   9
HETATM    9  C   UNL     1     -53.637  48.090  10.023  1.00  0.00     0.082 C 
BRANCH   9  10
HETATM   10  CA  UNL     1     -53.202  48.988   8.854  1.00  0.00     0.287 C 
BRANCH  10  11
HETATM   11  N   UNL     1     -54.363  49.323   8.031  1.00  0.00    -0.065 N 
HETATM   12  H   UNL     1     -54.104  49.285   7.045  1.00  0.00     0.275 HD
HETATM   13  H   UNL     1     -54.684  50.263   8.262  1.00  0.00     0.275 HD
HETATM   14  H   UNL     1     -55.112  48.654   8.211  1.00  0.00     0.275 HD
ENDBRANCH  10  11
BRANCH  10  15
HETATM   15  C   UNL     1     -52.207  48.294   7.939  1.00  0.00     0.204 C 
HETATM   16  O   UNL     1     -51.406  47.427   8.610  1.00  0.00    -0.646 OA
HETATM   17  OXT UNL     1     -52.101  48.499   6.736  1.00  0.00    -0.646 OA
ENDBRANCH  10  15
ENDBRANCH   9  10
ENDBRANCH   5   9
BRANCH   8  18
HETATM   18  O   UNL     1     -52.980  50.565  15.053  1.00  0.00    -0.358 OA
HETATM   19  H   UNL     1     -52.956  50.039  15.828  1.00  0.00     0.217 HD
ENDBRANCH   8  18
ENDBRANCH   1   3
TORSDOF 6
ENDMDL
MODEL 4
REMARK VINA RESULT:     -17.2      1.703      2.522
REMARK  6 active torsions:
REMARK  status: ('A' for Active; 'I' for Inactive)
REMARK    1  A    between atoms: O_1  and  C_11 
REMARK    2  A    between atoms: O_3  and  C_14 
REMARK    3  A    between atoms: N_5  and  CA_7 
REMARK    4  A    between atoms: C_6  and  CA_7 
REMARK    5  A    between atoms: C_6  and  C_8 
REMARK    6  A    between atoms: CA_7  and  C_12 
ROOT
HETATM    1  O   UNL     1     -52.832  47.871  14.091  1.00  0.00    -0.358 OA
HETATM    2  H   UNL     1     -52.234  47.240  13.742  1.00  0.00     0.217 HD
ENDROOT
BRANCH   1   3
HETATM    3  C   UNL     1     -53.199  48.948  13.342  1.00  0.00     0.099 A 
HETATM    4  C   UNL     1     -53.577  48.764  12.012  1.00  0.00     0.046 A 
HETATM    5  C   UNL     1     -53.948  49.862  11.256  1.00  0.00    -0.053 A 
HETATM    6  C   UNL     1     -53.951  51.140  11.789  1.00  0.00     0.010 A 
HETATM    7  C   UNL     1     -53.574  51.325  13.119  1.00  0.00     0.040 A 
HETATM    8  C   UNL     1     -53.197  50.229  13.895  1.00  0.00     0.098 A 
BRANCH   5   9
HETATM    9  C   UNL     1     -54.360  49.662   9.814  1.00  0.00     0.082 C 
BRANCH   9  10
HETATM   10  CA  UNL     1     -53.244  50.023   8.821  1.00  0.00     0.287 C 
BRANCH  10  11
HETATM   11  N   UNL     1     -53.628  51.211   8.059  1.00  0.00    -0.065 N 
HETATM   12  H   UNL     1     -53.598  50.999   7.061  1.00  0.00     0.275 HD
HETATM   13  H   UNL     1     -52.980  51.972   8.265  1.00  0.00     0.275 HD
HETATM   14  H   UNL     1     -54.574  51.490   8.318  1.00  0.00     0.275 HD
ENDBRANCH  10  11
BRANCH  10  15
HETATM   15  C   UNL     1     -52.999  48.918   7.808  1.00  0.00     0.204 C 
HETATM   16  O   UNL     1     -54.120  48.195   7.552  1.00  0.00    -0.646 OA
HETATM   17  OXT UNL     1     -51.917  48.669   7.291  1.00  0.00    -0.646 OA
ENDBRANCH  10  15
ENDBRANCH   9  10
ENDBRANCH   5   9
BRANCH   8  18
HETATM   18  O   UNL     1     -52.827  50.422  15.193  1.00  0.00    -0.358 OA
HETATM   19  H   UNL     1     -51.970  50.744  15.393  1.00  0.00     0.217 HD
ENDBRANCH   8  18
ENDBRANCH   1   3
TORSDOF 6
ENDMDL
MODEL 5
REMARK VINA RESULT:     -17.1      3.574      5.939
REMARK  6 active torsions:
REMARK  status: ('A' for Active; 'I' for Inactive)
REMARK    1  A    between atoms: O_1  and  C_11 
REMARK    2  A    between atoms: O_3  and  C_14 
REMARK    3  A    between atoms: N_5  and  CA_7 
REMARK    4  A    between atoms: C_6  and  CA_7 
REMARK    5  A    between atoms: C_6  and  C_8 
REMARK    6  A    between atoms: CA_7  and  C_12 
ROOT
HETATM    1  O   UNL     1     -53.890  52.295  12.745  1.00  0.00    -0.358 OA
HETATM    2  H   UNL     1     -54.695  52.547  13.150  1.00  0.00     0.217 HD
ENDROOT
BRANCH   1   3
HETATM    3  C   UNL     1     -53.664  50.988  12.434  1.00  0.00     0.099 A 
HETATM    4  C   UNL     1     -53.312  50.093  13.444  1.00  0.00     0.046 A 
HETATM    5  C   UNL     1     -53.083  48.766  13.123  1.00  0.00    -0.053 A 
HETATM    6  C   UNL     1     -53.194  48.307  11.821  1.00  0.00     0.010 A 
HETATM    7  C   UNL     1     -53.546  49.202  10.811  1.00  0.00     0.040 A 
HETATM    8  C   UNL     1     -53.781  50.543  11.117  1.00  0.00     0.098 A 
BRANCH   5   9
HETATM    9  C   UNL     1     -52.703  47.795  14.218  1.00  0.00     0.082 C 
BRANCH   9  10
HETATM   10  CA  UNL     1     -52.760  48.425  15.619  1.00  0.00     0.287 C 
BRANCH  10  11
HETATM   11  N   UNL     1     -51.418  48.835  16.030  1.00  0.00    -0.065 N 
HETATM   12  H   UNL     1     -50.724  48.271  15.539  1.00  0.00     0.275 HD
HETATM   13  H   UNL     1     -51.315  48.701  17.037  1.00  0.00     0.275 HD
HETATM   14  H   UNL     1     -51.279  49.820  15.803  1.00  0.00     0.275 HD
ENDBRANCH  10  11
BRANCH  10  15
HETATM   15  C   UNL     1     -53.255  47.445  16.668  1.00  0.00     0.204 C 
HETATM   16  O   UNL     1     -52.335  46.490  16.957  1.00  0.00    -0.646 OA
HETATM   17  OXT UNL     1     -54.365  47.475  17.185  1.00  0.00    -0.646 OA
ENDBRANCH  10  15
ENDBRANCH   9  10
ENDBRANCH   5   9
BRANCH   8  18
HETATM   18  O   UNL     1     -54.122  51.408  10.121  1.00  0.00    -0.358 OA
HETATM   19  H   UNL     1     -53.973  52.327  10.227  1.00  0.00     0.217 HD
ENDBRANCH   8  18
ENDBRANCH   1   3
TORSDOF 6
ENDMDL
MODEL 6
REMARK VINA RESULT:     -16.9      1.623      2.443
REMARK  6 active torsions:
REMARK  status: ('A' for Active; 'I' for Inactive)
REMARK    1  A    between atoms: O_1  and  C_11 
REMARK    2  A    between atoms: O_3  and  C_14 
REMARK    3  A    between atoms: N_5  and  CA_7 
REMARK    4  A    between atoms: C_6  and  CA_7 
REMARK    5  A    between atoms: C_6  and  C_8 
REMARK    6  A    between atoms: CA_7  and  C_12 
ROOT
HETATM    1  O   UNL     1     -52.938  50.502  15.211  1.00  0.00    -0.358 OA
HETATM    2  H   UNL     1     -52.266  50.326  15.840  1.00  0.00     0.217 HD
ENDROOT
BRANCH   1   3
HETATM    3  C   UNL     1     -53.018  49.757  14.074  1.00  0.00     0.099 A 
HETATM    4  C   UNL     1     -53.594  50.310  12.930  1.00  0.00     0.046 A 
HETATM    5  C   UNL     1     -53.674  49.548  11.776  1.00  0.00    -0.053 A 
HETATM    6  C   UNL     1     -53.196  48.249  11.733  1.00  0.00     0.010 A 
HETATM    7  C   UNL     1     -52.620  47.696  12.876  1.00  0.00     0.040 A 
HETATM    8  C   UNL     1     -52.532  48.450  14.047  1.00  0.00     0.098 A 
BRANCH   5   9
HETATM    9  C   UNL     1     -54.297  50.148  10.536  1.00  0.00     0.082 C 
BRANCH   9  10
HETATM   10  CA  UNL     1     -53.806  49.482   9.241  1.00  0.00     0.287 C 
BRANCH  10  11
HETATM   11  N   UNL     1     -53.715  50.481   8.177  1.00  0.00    -0.065 N 
HETATM   12  H   UNL     1     -53.091  51.234   8.469  1.00  0.00     0.275 HD
HETATM   13  H   UNL     1     -54.642  50.863   7.988  1.00  0.00     0.275 HD
HETATM   14  H   UNL     1     -53.348  50.045   7.331  1.00  0.00     0.275 HD
ENDBRANCH  10  11
BRANCH  10  15
HETATM   15  C   UNL     1     -54.765  48.411   8.749  1.00  0.00     0.204 C 
HETATM   16  O   UNL     1     -54.564  48.099   7.443  1.00  0.00    -0.646 OA
HETATM   17  OXT UNL     1     -55.645  47.896   9.427  1.00  0.00    -0.646 OA
ENDBRANCH  10  15
ENDBRANCH   9  10
ENDBRANCH   5   9
BRANCH   8  18
HETATM   18  O   UNL     1     -51.969  47.898  15.159  1.00  0.00    -0.358 OA
HETATM   19  H   UNL     1     -51.436  47.131  15.082  1.00  0.00     0.217 HD
ENDBRANCH   8  18
ENDBRANCH   1   3
TORSDOF 6
ENDMDL
MODEL 7
REMARK VINA RESULT:     -16.9      1.659      1.963
REMARK  6 active torsions:
REMARK  status: ('A' for Active; 'I' for Inactive)
REMARK    1  A    between atoms: O_1  and  C_11 
REMARK    2  A    between atoms: O_3  and  C_14 
REMARK    3  A    between atoms: N_5  and  CA_7 
REMARK    4  A    between atoms: C_6  and  CA_7 
REMARK    5  A    between atoms: C_6  and  C_8 
REMARK    6  A    between atoms: CA_7  and  C_12 
ROOT
HETATM    1  O   UNL     1     -53.995  51.886  12.991  1.00  0.00    -0.358 OA
HETATM    2  H   UNL     1     -54.876  52.159  12.827  1.00  0.00     0.217 HD
ENDROOT
BRANCH   1   3
HETATM    3  C   UNL     1     -53.632  50.591  12.776  1.00  0.00     0.099 A 
HETATM    4  C   UNL     1     -53.689  50.067  11.485  1.00  0.00     0.046 A 
HETATM    5  C   UNL     1     -53.320  48.749  11.272  1.00  0.00    -0.053 A 
HETATM    6  C   UNL     1     -52.896  47.940  12.312  1.00  0.00     0.010 A 
HETATM    7  C   UNL     1     -52.838  48.464  13.603  1.00  0.00     0.040 A 
HETATM    8  C   UNL     1     -53.207  49.789  13.836  1.00  0.00     0.098 A 
BRANCH   5   9
HETATM    9  C   UNL     1     -53.381  48.182   9.872  1.00  0.00     0.082 C 
BRANCH   9  10
HETATM   10  CA  UNL     1     -54.028  46.789   9.821  1.00  0.00     0.287 C 
BRANCH  10  11
HETATM   11  N   UNL     1     -53.019  45.789   9.472  1.00  0.00    -0.065 N 
HETATM   12  H   UNL     1     -52.121  46.249   9.324  1.00  0.00     0.275 HD
HETATM   13  H   UNL     1     -53.299  45.307   8.618  1.00  0.00     0.275 HD
HETATM   14  H   UNL     1     -52.935  45.113  10.231  1.00  0.00     0.275 HD
ENDBRANCH  10  11
BRANCH  10  15
HETATM   15  C   UNL     1     -55.112  46.700   8.760  1.00  0.00     0.204 C 
HETATM   16  O   UNL     1     -55.028  47.703   7.850  1.00  0.00    -0.646 OA
HETATM   17  OXT UNL     1     -55.990  45.846   8.727  1.00  0.00    -0.646 OA
ENDBRANCH  10  15
ENDBRANCH   9  10
ENDBRANCH   5   9
BRANCH   8  18
HETATM   18  O   UNL     1     -53.148  50.289  15.102  1.00  0.00    -0.358 OA
HETATM   19  H   UNL     1     -52.373  50.172  15.617  1.00  0.00     0.217 HD
ENDBRANCH   8  18
ENDBRANCH   1   3
TORSDOF 6
ENDMDL
MODEL 8
REMARK VINA RESULT:     -16.8      1.646      2.126
REMARK  6 active torsions:
REMARK  status: ('A' for Active; 'I' for Inactive)
REMARK    1  A    between atoms: O_1  and  C_11 
REMARK    2  A    between atoms: O_3  and  C_14 
REMARK    3  A    between atoms: N_5  and  CA_7 
REMARK    4  A    between atoms: C_6  and  CA_7 
REMARK    5  A    between atoms: C_6  and  C_8 
REMARK    6  A    between atoms: CA_7  and  C_12 
ROOT
HETATM    1  O   UNL     1     -54.087  52.660   9.343  1.00  0.00    -0.358 OA
HETATM    2  H   UNL     1     -53.366  52.939   8.815  1.00  0.00     0.217 HD
ENDROOT
BRANCH   1   3
HETATM    3  C   UNL     1     -53.945  51.596  10.181  1.00  0.00     0.099 A 
HETATM    4  C   UNL     1     -53.959  50.303   9.658  1.00  0.00     0.046 A 
HETATM    5  C   UNL     1     -53.815  49.224  10.514  1.00  0.00    -0.053 A 
HETATM    6  C   UNL     1     -53.659  49.400  11.878  1.00  0.00     0.010 A 
HETATM    7  C   UNL     1     -53.644  50.693  12.402  1.00  0.00     0.040 A 
HETATM    8  C   UNL     1     -53.788  51.791  11.553  1.00  0.00     0.098 A 
BRANCH   5   9
HETATM    9  C   UNL     1     -53.830  47.823   9.947  1.00  0.00     0.082 C 
BRANCH   9  10
HETATM   10  CA  UNL     1     -54.720  47.694   8.700  1.00  0.00     0.287 C 
BRANCH  10  11
HETATM   11  N   UNL     1     -55.684  46.611   8.893  1.00  0.00    -0.065 N 
HETATM   12  H   UNL     1     -56.383  46.896   9.580  1.00  0.00     0.275 HD
HETATM   13  H   UNL     1     -55.198  45.778   9.228  1.00  0.00     0.275 HD
HETATM   14  H   UNL     1     -56.143  46.403   8.007  1.00  0.00     0.275 HD
ENDBRANCH  10  11
BRANCH  10  15
HETATM   15  C   UNL     1     -53.918  47.346   7.458  1.00  0.00     0.204 C 
HETATM   16  O   UNL     1     -54.305  46.166   6.907  1.00  0.00    -0.646 OA
HETATM   17  OXT UNL     1     -53.004  48.021   7.004  1.00  0.00    -0.646 OA
ENDBRANCH  10  15
ENDBRANCH   9  10
ENDBRANCH   5   9
BRANCH   8  18
HETATM   18  O   UNL     1     -53.774  53.048  12.077  1.00  0.00    -0.358 OA
HETATM   19  H   UNL     1     -53.250  53.237  12.831  1.00  0.00     0.217 HD
ENDBRANCH   8  18
ENDBRANCH   1   3
TORSDOF 6
ENDMDL
MODEL 9
REMARK VINA RESULT:     -16.5      1.541      2.267
REMARK  6 active torsions:
REMARK  status: ('A' for Active; 'I' for Inactive)
REMARK    1  A    between atoms: O_1  and  C_11 
REMARK    2  A    between atoms: O_3  and  C_14 
REMARK    3  A    between atoms: N_5  and  CA_7 
REMARK    4  A    between atoms: C_6  and  CA_7 
REMARK    5  A    between atoms: C_6  and  C_8 
REMARK    6  A    between atoms: CA_7  and  C_12 
ROOT
HETATM    1  O   UNL     1     -54.015  52.532   9.396  1.00  0.00    -0.358 OA
HETATM    2  H   UNL     1     -53.501  53.123   9.910  1.00  0.00     0.217 HD
ENDROOT
BRANCH   1   3
HETATM    3  C   UNL     1     -53.980  51.196   9.657  1.00  0.00     0.099 A 
HETATM    4  C   UNL     1     -54.114  50.287   8.607  1.00  0.00     0.046 A 
HETATM    5  C   UNL     1     -54.078  48.930   8.878  1.00  0.00    -0.053 A 
HETATM    6  C   UNL     1     -53.913  48.454  10.167  1.00  0.00     0.010 A 
HETATM    7  C   UNL     1     -53.778  49.362  11.217  1.00  0.00     0.040 A 
HETATM    8  C   UNL     1     -53.812  50.733  10.962  1.00  0.00     0.098 A 
BRANCH   5   9
HETATM    9  C   UNL     1     -54.222  47.945   7.740  1.00  0.00     0.082 C 
BRANCH   9  10
HETATM   10  CA  UNL     1     -52.905  47.711   6.983  1.00  0.00     0.287 C 
BRANCH  10  11
HETATM   11  N   UNL     1     -52.123  48.947   6.961  1.00  0.00    -0.065 N 
HETATM   12  H   UNL     1     -51.313  48.848   7.574  1.00  0.00     0.275 HD
HETATM   13  H   UNL     1     -52.702  49.722   7.285  1.00  0.00     0.275 HD
HETATM   14  H   UNL     1     -51.808  49.133   6.009  1.00  0.00     0.275 HD
ENDBRANCH  10  11
BRANCH  10  15
HETATM   15  C   UNL     1     -53.139  47.320   5.534  1.00  0.00     0.204 C 
HETATM   16  O   UNL     1     -52.379  48.044   4.674  1.00  0.00    -0.646 OA
HETATM   17  OXT UNL     1     -53.939  46.471   5.159  1.00  0.00    -0.646 OA
ENDBRANCH  10  15
ENDBRANCH   9  10
ENDBRANCH   5   9
BRANCH   8  18
HETATM   18  O   UNL     1     -53.682  51.610  11.997  1.00  0.00    -0.358 OA
HETATM   19  H   UNL     1     -53.459  52.505  11.827  1.00  0.00     0.217 HD
ENDBRANCH   8  18
ENDBRANCH   1   3
TORSDOF 6
ENDMDL
