MODEL 1
REMARK VINA RESULT:      -8.2      0.000      0.000
REMARK  0 active torsions:
REMARK  status: ('A' for Active; 'I' for Inactive)
ROOT
ATOM      1  O   UNL A   1     -53.652  52.087  12.623  1.00  0.00    -0.648 OA
ATOM      2  O   UNL A   1     -53.660  50.409  14.178  1.00  0.00    -0.648 OA
ATOM      3  C   UNL A   1     -53.674  49.849  11.899  1.00  0.00     0.129 C 
ATOM      4  C   UNL A   1     -53.660  50.885  13.009  1.00  0.00     0.168 C 
ENDROOT
TORSDOF 0
ENDMDL
MODEL 2
REMARK VINA RESULT:      -8.2      0.030      1.618
REMARK  0 active torsions:
REMARK  status: ('A' for Active; 'I' for Inactive)
ROOT
ATOM      1  O   UNL A   1     -53.676  50.426  14.158  1.00  0.00    -0.648 OA
ATOM      2  O   UNL A   1     -53.655  52.102  12.600  1.00  0.00    -0.648 OA
ATOM      3  C   UNL A   1     -53.679  49.871  11.871  1.00  0.00     0.129 C 
ATOM      4  C   UNL A   1     -53.669  50.900  12.988  1.00  0.00     0.168 C 
ENDROOT
TORSDOF 0
ENDMDL
MODEL 3
REMARK VINA RESULT:      -7.6      1.222      1.823
REMARK  0 active torsions:
REMARK  status: ('A' for Active; 'I' for Inactive)
ROOT
ATOM      1  O   UNL A   1     -53.681  51.701  13.038  1.00  0.00    -0.648 OA
ATOM      2  O   UNL A   1     -53.782  51.062  10.844  1.00  0.00    -0.648 OA
ATOM      3  C   UNL A   1     -53.513  49.418  12.497  1.00  0.00     0.129 C 
ATOM      4  C   UNL A   1     -53.674  50.871  12.087  1.00  0.00     0.168 C 
ENDROOT
TORSDOF 0
ENDMDL
MODEL 4
REMARK VINA RESULT:      -7.6      1.284      1.491
REMARK  0 active torsions:
REMARK  status: ('A' for Active; 'I' for Inactive)
ROOT
ATOM      1  O   UNL A   1     -53.709  50.783  10.980  1.00  0.00    -0.648 OA
ATOM      2  O   UNL A   1     -53.700  51.651  13.096  1.00  0.00    -0.648 OA
ATOM      3  C   UNL A   1     -53.447  49.335  12.816  1.00  0.00     0.129 C 
ATOM      4  C   UNL A   1     -53.638  50.727  12.239  1.00  0.00     0.168 C 
ENDROOT
TORSDOF 0
ENDMDL
MODEL 5
REMARK VINA RESULT:      -7.5      1.123      1.728
REMARK  0 active torsions:
REMARK  status: ('A' for Active; 'I' for Inactive)
ROOT
ATOM      1  O   UNL A   1     -53.290  49.262  13.005  1.00  0.00    -0.648 OA
ATOM      2  O   UNL A   1     -53.667  51.509  13.211  1.00  0.00    -0.648 OA
ATOM      3  C   UNL A   1     -53.818  50.520  11.088  1.00  0.00     0.129 C 
ATOM      4  C   UNL A   1     -53.567  50.419  12.582  1.00  0.00     0.168 C 
ENDROOT
TORSDOF 0
ENDMDL
MODEL 6
REMARK VINA RESULT:      -7.2      1.629      1.985
REMARK  0 active torsions:
REMARK  status: ('A' for Active; 'I' for Inactive)
ROOT
ATOM      1  O   UNL A   1     -54.035  50.039  14.496  1.00  0.00    -0.648 OA
ATOM      2  O   UNL A   1     -53.170  49.015  12.642  1.00  0.00    -0.648 OA
ATOM      3  C   UNL A   1     -53.737  51.290  12.526  1.00  0.00     0.129 C 
ATOM      4  C   UNL A   1     -53.638  49.987  13.299  1.00  0.00     0.168 C 
ENDROOT
TORSDOF 0
ENDMDL
MODEL 7
REMARK VINA RESULT:      -6.7     14.665     15.133
REMARK  0 active torsions:
REMARK  status: ('A' for Active; 'I' for Inactive)
ROOT
ATOM      1  O   UNL A   1     -49.312  39.635   6.179  1.00  0.00    -0.648 OA
ATOM      2  O   UNL A   1     -49.124  37.890   4.712  1.00  0.00    -0.648 OA
ATOM      3  C   UNL A   1     -47.536  38.111   6.426  1.00  0.00     0.129 C 
ATOM      4  C   UNL A   1     -48.781  38.594   5.702  1.00  0.00     0.168 C 
ENDROOT
TORSDOF 0
ENDMDL
MODEL 8
REMARK VINA RESULT:      -6.6      3.291      3.634
REMARK  0 active torsions:
REMARK  status: ('A' for Active; 'I' for Inactive)
ROOT
ATOM      1  O   UNL A   1     -54.090  51.815   9.231  1.00  0.00    -0.648 OA
ATOM      2  O   UNL A   1     -54.360  49.557   8.974  1.00  0.00    -0.648 OA
ATOM      3  C   UNL A   1     -53.785  50.401  11.087  1.00  0.00     0.129 C 
ATOM      4  C   UNL A   1     -54.110  50.614   9.619  1.00  0.00     0.168 C 
ENDROOT
TORSDOF 0
ENDMDL
MODEL 9
REMARK VINA RESULT:      -6.5      2.608      3.394
REMARK  0 active torsions:
REMARK  status: ('A' for Active; 'I' for Inactive)
ROOT
ATOM      1  O   UNL A   1     -53.677  51.084  11.146  1.00  0.00    -0.648 OA
ATOM      2  O   UNL A   1     -54.134  51.324   8.917  1.00  0.00    -0.648 OA
ATOM      3  C   UNL A   1     -54.704  49.314   9.986  1.00  0.00     0.129 C 
ATOM      4  C   UNL A   1     -54.113  50.712  10.021  1.00  0.00     0.168 C 
ENDROOT
TORSDOF 0
ENDMDL
