MODEL 1
REMARK VINA RESULT:      -6.3      0.000      0.000
REMARK  7 active torsions:
REMARK  status: ('A' for Active; 'I' for Inactive)
REMARK    1  A    between atoms: O_1  and  C_2 
REMARK    2  A    between atoms: C_2  and  C_3 
REMARK    3  A    between atoms: C_2  and  C_8 
REMARK    4  A    between atoms: C_3  and  C_4 
REMARK    5  A    between atoms: C_4  and  C_5 
REMARK    6  A    between atoms: C_8  and  C_9 
REMARK    7  A    between atoms: C_11  and  O_15 
ROOT
HETATM    1  O   UNL     1     -53.927  47.405   6.954  1.00  0.00    -0.395 OA
HETATM    2  H   UNL     1     -54.550  46.828   7.422  1.00  0.00     0.210 HD
ENDROOT
BRANCH   1   3
HETATM    3  C   UNL     1     -52.726  47.530   7.720  1.00  0.00     0.122 C 
BRANCH   3   4
HETATM    4  C   UNL     1     -51.721  46.488   7.216  1.00  0.00     0.042 C 
BRANCH   4   5
HETATM    5  C   UNL     1     -51.597  46.503   5.695  1.00  0.00     0.116 C 
BRANCH   5   6
HETATM    6  C   UNL     1     -52.167  45.245   5.113  1.00  0.00     0.172 C 
HETATM    7  O   UNL     1     -51.533  44.285   4.711  1.00  0.00    -0.648 OA
HETATM    8  O   UNL     1     -53.513  45.240   5.095  1.00  0.00    -0.648 OA
ENDBRANCH   5   6
ENDBRANCH   4   5
ENDBRANCH   3   4
BRANCH   3   9
HETATM    9  C   UNL     1     -53.006  47.337   9.221  1.00  0.00     0.070 C 
BRANCH   9  10
HETATM   10  C   UNL     1     -53.212  48.641   9.955  1.00  0.00    -0.053 A 
HETATM   11  C   UNL     1     -53.429  49.831   9.248  1.00  0.00     0.043 A 
HETATM   12  C   UNL     1     -53.611  51.028   9.934  1.00  0.00     0.066 A 
HETATM   13  C   UNL     1     -53.579  51.067  11.324  1.00  0.00     0.036 A 
HETATM   14  C   UNL     1     -53.361  49.888  12.035  1.00  0.00     0.003 A 
HETATM   15  C   UNL     1     -53.178  48.681  11.356  1.00  0.00     0.007 A 
BRANCH  12  16
HETATM   16  O   UNL     1     -53.820  52.155   9.195  1.00  0.00    -0.361 OA
HETATM   17  H   UNL     1     -54.109  52.942   9.614  1.00  0.00     0.217 HD
ENDBRANCH  12  16
ENDBRANCH   9  10
ENDBRANCH   3   9
ENDBRANCH   1   3
TORSDOF 7
ENDMDL
MODEL 2
REMARK VINA RESULT:      -6.2      2.195      3.169
REMARK  7 active torsions:
REMARK  status: ('A' for Active; 'I' for Inactive)
REMARK    1  A    between atoms: O_1  and  C_2 
REMARK    2  A    between atoms: C_2  and  C_3 
REMARK    3  A    between atoms: C_2  and  C_8 
REMARK    4  A    between atoms: C_3  and  C_4 
REMARK    5  A    between atoms: C_4  and  C_5 
REMARK    6  A    between atoms: C_8  and  C_9 
REMARK    7  A    between atoms: C_11  and  O_15 
ROOT
HETATM    1  O   UNL     1     -53.333  50.492   7.977  1.00  0.00    -0.395 OA
HETATM    2  H   UNL     1     -52.488  50.698   7.547  1.00  0.00     0.210 HD
ENDROOT
BRANCH   1   3
HETATM    3  C   UNL     1     -53.171  49.349   8.820  1.00  0.00     0.122 C 
BRANCH   3   4
HETATM    4  C   UNL     1     -53.528  48.097   8.011  1.00  0.00     0.042 C 
BRANCH   4   5
HETATM    5  C   UNL     1     -52.285  47.342   7.550  1.00  0.00     0.116 C 
BRANCH   5   6
HETATM    6  C   UNL     1     -52.551  46.645   6.250  1.00  0.00     0.172 C 
HETATM    7  O   UNL     1     -53.462  45.868   6.021  1.00  0.00    -0.648 OA
HETATM    8  O   UNL     1     -51.676  46.986   5.284  1.00  0.00    -0.648 OA
ENDBRANCH   5   6
ENDBRANCH   4   5
ENDBRANCH   3   4
BRANCH   3   9
HETATM    9  C   UNL     1     -54.057  49.459  10.074  1.00  0.00     0.070 C 
BRANCH   9  10
HETATM   10  C   UNL     1     -53.435  48.819  11.293  1.00  0.00    -0.053 A 
HETATM   11  C   UNL     1     -53.358  49.517  12.505  1.00  0.00     0.043 A 
HETATM   12  C   UNL     1     -52.777  48.920  13.619  1.00  0.00     0.066 A 
HETATM   13  C   UNL     1     -52.264  47.629  13.553  1.00  0.00     0.036 A 
HETATM   14  C   UNL     1     -52.335  46.928  12.350  1.00  0.00     0.003 A 
HETATM   15  C   UNL     1     -52.916  47.517  11.225  1.00  0.00     0.007 A 
BRANCH  12  16
HETATM   16  O   UNL     1     -52.731  49.645  14.774  1.00  0.00    -0.361 OA
HETATM   17  H   UNL     1     -53.265  49.399  15.503  1.00  0.00     0.217 HD
ENDBRANCH  12  16
ENDBRANCH   9  10
ENDBRANCH   3   9
ENDBRANCH   1   3
TORSDOF 7
ENDMDL
MODEL 3
REMARK VINA RESULT:      -6.1      1.361      1.538
REMARK  7 active torsions:
REMARK  status: ('A' for Active; 'I' for Inactive)
REMARK    1  A    between atoms: O_1  and  C_2 
REMARK    2  A    between atoms: C_2  and  C_3 
REMARK    3  A    between atoms: C_2  and  C_8 
REMARK    4  A    between atoms: C_3  and  C_4 
REMARK    5  A    between atoms: C_4  and  C_5 
REMARK    6  A    between atoms: C_8  and  C_9 
REMARK    7  A    between atoms: C_11  and  O_15 
ROOT
HETATM    1  O   UNL     1     -54.150  45.585   7.556  1.00  0.00    -0.395 OA
HETATM    2  H   UNL     1     -54.057  45.651   6.593  1.00  0.00     0.210 HD
ENDROOT
BRANCH   1   3
HETATM    3  C   UNL     1     -53.725  46.809   8.160  1.00  0.00     0.122 C 
BRANCH   3   4
HETATM    4  C   UNL     1     -52.208  46.744   8.366  1.00  0.00     0.042 C 
BRANCH   4   5
HETATM    5  C   UNL     1     -51.459  47.626   7.371  1.00  0.00     0.116 C 
BRANCH   5   6
HETATM    6  C   UNL     1     -51.386  46.955   6.032  1.00  0.00     0.172 C 
HETATM    7  O   UNL     1     -51.526  45.765   5.813  1.00  0.00    -0.648 OA
HETATM    8  O   UNL     1     -51.173  47.822   5.024  1.00  0.00    -0.648 OA
ENDBRANCH   5   6
ENDBRANCH   4   5
ENDBRANCH   3   4
BRANCH   3   9
HETATM    9  C   UNL     1     -54.448  47.043   9.498  1.00  0.00     0.070 C 
BRANCH   9  10
HETATM   10  C   UNL     1     -54.073  48.354  10.149  1.00  0.00    -0.053 A 
HETATM   11  C   UNL     1     -54.081  49.545   9.411  1.00  0.00     0.043 A 
HETATM   12  C   UNL     1     -53.727  50.746  10.018  1.00  0.00     0.066 A 
HETATM   13  C   UNL     1     -53.360  50.787  11.359  1.00  0.00     0.036 A 
HETATM   14  C   UNL     1     -53.346  49.607  12.101  1.00  0.00     0.003 A 
HETATM   15  C   UNL     1     -53.700  48.396  11.501  1.00  0.00     0.007 A 
BRANCH  12  16
HETATM   16  O   UNL     1     -53.755  51.875   9.254  1.00  0.00    -0.361 OA
HETATM   17  H   UNL     1     -52.954  52.287   8.998  1.00  0.00     0.217 HD
ENDBRANCH  12  16
ENDBRANCH   9  10
ENDBRANCH   3   9
ENDBRANCH   1   3
TORSDOF 7
ENDMDL
MODEL 4
REMARK VINA RESULT:      -6.1      3.171      3.571
REMARK  7 active torsions:
REMARK  status: ('A' for Active; 'I' for Inactive)
REMARK    1  A    between atoms: O_1  and  C_2 
REMARK    2  A    between atoms: C_2  and  C_3 
REMARK    3  A    between atoms: C_2  and  C_8 
REMARK    4  A    between atoms: C_3  and  C_4 
REMARK    5  A    between atoms: C_4  and  C_5 
REMARK    6  A    between atoms: C_8  and  C_9 
REMARK    7  A    between atoms: C_11  and  O_15 
ROOT
HETATM    1  O   UNL     1     -55.690  45.851   8.869  1.00  0.00    -0.395 OA
HETATM    2  H   UNL     1     -55.892  45.581   9.779  1.00  0.00     0.210 HD
ENDROOT
BRANCH   1   3
HETATM    3  C   UNL     1     -54.305  45.622   8.602  1.00  0.00     0.122 C 
BRANCH   3   4
HETATM    4  C   UNL     1     -54.101  44.123   8.354  1.00  0.00     0.042 C 
BRANCH   4   5
HETATM    5  C   UNL     1     -54.826  43.269   9.390  1.00  0.00     0.116 C 
BRANCH   5   6
HETATM    6  C   UNL     1     -56.125  42.767   8.836  1.00  0.00     0.172 C 
HETATM    7  O   UNL     1     -56.559  42.973   7.716  1.00  0.00    -0.648 OA
HETATM    8  O   UNL     1     -56.804  41.998   9.708  1.00  0.00    -0.648 OA
ENDBRANCH   5   6
ENDBRANCH   4   5
ENDBRANCH   3   4
BRANCH   3   9
HETATM    9  C   UNL     1     -53.430  46.105   9.772  1.00  0.00     0.070 C 
BRANCH   9  10
HETATM   10  C   UNL     1     -53.485  47.602   9.971  1.00  0.00    -0.053 A 
HETATM   11  C   UNL     1     -53.371  48.472   8.879  1.00  0.00     0.043 A 
HETATM   12  C   UNL     1     -53.417  49.848   9.075  1.00  0.00     0.066 A 
HETATM   13  C   UNL     1     -53.575  50.384  10.349  1.00  0.00     0.036 A 
HETATM   14  C   UNL     1     -53.687  49.526  11.441  1.00  0.00     0.003 A 
HETATM   15  C   UNL     1     -53.643  48.142  11.256  1.00  0.00     0.007 A 
BRANCH  12  16
HETATM   16  O   UNL     1     -53.303  50.648   7.976  1.00  0.00    -0.361 OA
HETATM   17  H   UNL     1     -52.485  50.708   7.523  1.00  0.00     0.217 HD
ENDBRANCH  12  16
ENDBRANCH   9  10
ENDBRANCH   3   9
ENDBRANCH   1   3
TORSDOF 7
ENDMDL
MODEL 5
REMARK VINA RESULT:      -6.0      3.263      5.229
REMARK  7 active torsions:
REMARK  status: ('A' for Active; 'I' for Inactive)
REMARK    1  A    between atoms: O_1  and  C_2 
REMARK    2  A    between atoms: C_2  and  C_3 
REMARK    3  A    between atoms: C_2  and  C_8 
REMARK    4  A    between atoms: C_3  and  C_4 
REMARK    5  A    between atoms: C_4  and  C_5 
REMARK    6  A    between atoms: C_8  and  C_9 
REMARK    7  A    between atoms: C_11  and  O_15 
ROOT
HETATM    1  O   UNL     1     -53.365  51.278  11.698  1.00  0.00    -0.395 OA
HETATM    2  H   UNL     1     -53.061  51.397  12.612  1.00  0.00     0.210 HD
ENDROOT
BRANCH   1   3
HETATM    3  C   UNL     1     -53.337  49.888  11.365  1.00  0.00     0.122 C 
BRANCH   3   4
HETATM    4  C   UNL     1     -54.191  49.675  10.111  1.00  0.00     0.042 C 
BRANCH   4   5
HETATM    5  C   UNL     1     -54.636  48.223   9.962  1.00  0.00     0.116 C 
BRANCH   5   6
HETATM    6  C   UNL     1     -53.901  47.565   8.834  1.00  0.00     0.172 C 
HETATM    7  O   UNL     1     -54.371  47.246   7.755  1.00  0.00    -0.648 OA
HETATM    8  O   UNL     1     -52.596  47.371   9.102  1.00  0.00    -0.648 OA
ENDBRANCH   5   6
ENDBRANCH   4   5
ENDBRANCH   3   4
BRANCH   3   9
HETATM    9  C   UNL     1     -53.858  49.030  12.532  1.00  0.00     0.070 C 
BRANCH   9  10
HETATM   10  C   UNL     1     -52.768  48.233  13.209  1.00  0.00    -0.053 A 
HETATM   11  C   UNL     1     -52.161  48.705  14.381  1.00  0.00     0.043 A 
HETATM   12  C   UNL     1     -51.154  47.966  14.993  1.00  0.00     0.066 A 
HETATM   13  C   UNL     1     -50.731  46.754  14.457  1.00  0.00     0.036 A 
HETATM   14  C   UNL     1     -51.326  46.278  13.290  1.00  0.00     0.003 A 
HETATM   15  C   UNL     1     -52.339  47.012  12.668  1.00  0.00     0.007 A 
BRANCH  12  16
HETATM   16  O   UNL     1     -50.601  48.471  16.133  1.00  0.00    -0.361 OA
HETATM   17  H   UNL     1     -50.807  48.089  16.963  1.00  0.00     0.217 HD
ENDBRANCH  12  16
ENDBRANCH   9  10
ENDBRANCH   3   9
ENDBRANCH   1   3
TORSDOF 7
ENDMDL
MODEL 6
REMARK VINA RESULT:      -6.0      2.264      6.328
REMARK  7 active torsions:
REMARK  status: ('A' for Active; 'I' for Inactive)
REMARK    1  A    between atoms: O_1  and  C_2 
REMARK    2  A    between atoms: C_2  and  C_3 
REMARK    3  A    between atoms: C_2  and  C_8 
REMARK    4  A    between atoms: C_3  and  C_4 
REMARK    5  A    between atoms: C_4  and  C_5 
REMARK    6  A    between atoms: C_8  and  C_9 
REMARK    7  A    between atoms: C_11  and  O_15 
ROOT
HETATM    1  O   UNL     1     -53.440  50.306   8.400  1.00  0.00    -0.395 OA
HETATM    2  H   UNL     1     -52.880  50.745   9.059  1.00  0.00     0.210 HD
ENDROOT
BRANCH   1   3
HETATM    3  C   UNL     1     -53.859  49.035   8.900  1.00  0.00     0.122 C 
BRANCH   3   4
HETATM    4  C   UNL     1     -54.392  49.228  10.324  1.00  0.00     0.042 C 
BRANCH   4   5
HETATM    5  C   UNL     1     -53.313  49.740  11.274  1.00  0.00     0.116 C 
BRANCH   5   6
HETATM    6  C   UNL     1     -53.316  48.943  12.544  1.00  0.00     0.172 C 
HETATM    7  O   UNL     1     -53.746  49.309  13.624  1.00  0.00    -0.648 OA
HETATM    8  O   UNL     1     -52.807  47.706  12.387  1.00  0.00    -0.648 OA
ENDBRANCH   5   6
ENDBRANCH   4   5
ENDBRANCH   3   4
BRANCH   3   9
HETATM    9  C   UNL     1     -52.696  48.027   8.885  1.00  0.00     0.070 C 
BRANCH   9  10
HETATM   10  C   UNL     1     -52.339  47.559   7.494  1.00  0.00    -0.053 A 
HETATM   11  C   UNL     1     -53.111  46.583   6.849  1.00  0.00     0.043 A 
HETATM   12  C   UNL     1     -52.769  46.155   5.570  1.00  0.00     0.066 A 
HETATM   13  C   UNL     1     -51.663  46.682   4.912  1.00  0.00     0.036 A 
HETATM   14  C   UNL     1     -50.888  47.651   5.546  1.00  0.00     0.003 A 
HETATM   15  C   UNL     1     -51.223  48.089   6.830  1.00  0.00     0.007 A 
BRANCH  12  16
HETATM   16  O   UNL     1     -53.556  45.204   4.990  1.00  0.00    -0.361 OA
HETATM   17  H   UNL     1     -54.062  45.415   4.230  1.00  0.00     0.217 HD
ENDBRANCH  12  16
ENDBRANCH   9  10
ENDBRANCH   3   9
ENDBRANCH   1   3
TORSDOF 7
ENDMDL
MODEL 7
REMARK VINA RESULT:      -6.0      1.372      1.759
REMARK  7 active torsions:
REMARK  status: ('A' for Active; 'I' for Inactive)
REMARK    1  A    between atoms: O_1  and  C_2 
REMARK    2  A    between atoms: C_2  and  C_3 
REMARK    3  A    between atoms: C_2  and  C_8 
REMARK    4  A    between atoms: C_3  and  C_4 
REMARK    5  A    between atoms: C_4  and  C_5 
REMARK    6  A    between atoms: C_8  and  C_9 
REMARK    7  A    between atoms: C_11  and  O_15 
ROOT
HETATM    1  O   UNL     1     -53.491  47.247   6.723  1.00  0.00    -0.395 OA
HETATM    2  H   UNL     1     -54.251  46.791   7.116  1.00  0.00     0.210 HD
ENDROOT
BRANCH   1   3
HETATM    3  C   UNL     1     -52.546  47.566   7.747  1.00  0.00     0.122 C 
BRANCH   3   4
HETATM    4  C   UNL     1     -51.317  46.668   7.568  1.00  0.00     0.042 C 
BRANCH   4   5
HETATM    5  C   UNL     1     -51.308  45.507   8.558  1.00  0.00     0.116 C 
BRANCH   5   6
HETATM    6  C   UNL     1     -51.896  44.281   7.929  1.00  0.00     0.172 C 
HETATM    7  O   UNL     1     -52.920  44.228   7.269  1.00  0.00    -0.648 OA
HETATM    8  O   UNL     1     -51.148  43.179   8.130  1.00  0.00    -0.648 OA
ENDBRANCH   5   6
ENDBRANCH   4   5
ENDBRANCH   3   4
BRANCH   3   9
HETATM    9  C   UNL     1     -53.162  47.376   9.145  1.00  0.00     0.070 C 
BRANCH   9  10
HETATM   10  C   UNL     1     -53.290  48.670   9.914  1.00  0.00    -0.053 A 
HETATM   11  C   UNL     1     -53.539  49.876   9.245  1.00  0.00     0.043 A 
HETATM   12  C   UNL     1     -53.649  51.062   9.962  1.00  0.00     0.066 A 
HETATM   13  C   UNL     1     -53.512  51.076  11.347  1.00  0.00     0.036 A 
HETATM   14  C   UNL     1     -53.261  49.882  12.020  1.00  0.00     0.003 A 
HETATM   15  C   UNL     1     -53.150  48.684  11.309  1.00  0.00     0.007 A 
BRANCH  12  16
HETATM   16  O   UNL     1     -53.895  52.206   9.261  1.00  0.00    -0.361 OA
HETATM   17  H   UNL     1     -54.581  52.227   8.624  1.00  0.00     0.217 HD
ENDBRANCH  12  16
ENDBRANCH   9  10
ENDBRANCH   3   9
ENDBRANCH   1   3
TORSDOF 7
ENDMDL
MODEL 8
REMARK VINA RESULT:      -5.9      3.136      6.676
REMARK  7 active torsions:
REMARK  status: ('A' for Active; 'I' for Inactive)
REMARK    1  A    between atoms: O_1  and  C_2 
REMARK    2  A    between atoms: C_2  and  C_3 
REMARK    3  A    between atoms: C_2  and  C_8 
REMARK    4  A    between atoms: C_3  and  C_4 
REMARK    5  A    between atoms: C_4  and  C_5 
REMARK    6  A    between atoms: C_8  and  C_9 
REMARK    7  A    between atoms: C_11  and  O_15 
ROOT
HETATM    1  O   UNL     1     -53.354  51.493  11.853  1.00  0.00    -0.395 OA
HETATM    2  H   UNL     1     -54.009  51.903  12.439  1.00  0.00     0.210 HD
ENDROOT
BRANCH   1   3
HETATM    3  C   UNL     1     -53.779  50.171  11.515  1.00  0.00     0.122 C 
BRANCH   3   4
HETATM    4  C   UNL     1     -52.884  49.171  12.256  1.00  0.00     0.042 C 
BRANCH   4   5
HETATM    5  C   UNL     1     -53.439  48.820  13.633  1.00  0.00     0.116 C 
BRANCH   5   6
HETATM    6  C   UNL     1     -52.375  48.974  14.678  1.00  0.00     0.172 C 
HETATM    7  O   UNL     1     -51.406  48.251  14.833  1.00  0.00    -0.648 OA
HETATM    8  O   UNL     1     -52.562  50.053  15.461  1.00  0.00    -0.648 OA
ENDBRANCH   5   6
ENDBRANCH   4   5
ENDBRANCH   3   4
BRANCH   3   9
HETATM    9  C   UNL     1     -53.711  49.941   9.995  1.00  0.00     0.070 C 
BRANCH   9  10
HETATM   10  C   UNL     1     -54.152  48.555   9.588  1.00  0.00    -0.053 A 
HETATM   11  C   UNL     1     -53.321  47.742   8.806  1.00  0.00     0.043 A 
HETATM   12  C   UNL     1     -53.740  46.470   8.431  1.00  0.00     0.066 A 
HETATM   13  C   UNL     1     -54.983  45.983   8.821  1.00  0.00     0.036 A 
HETATM   14  C   UNL     1     -55.818  46.785   9.597  1.00  0.00     0.003 A 
HETATM   15  C   UNL     1     -55.407  48.064   9.979  1.00  0.00     0.007 A 
BRANCH  12  16
HETATM   16  O   UNL     1     -52.889  45.721   7.672  1.00  0.00    -0.361 OA
HETATM   17  H   UNL     1     -52.195  45.242   8.080  1.00  0.00     0.217 HD
ENDBRANCH  12  16
ENDBRANCH   9  10
ENDBRANCH   3   9
ENDBRANCH   1   3
TORSDOF 7
ENDMDL
MODEL 9
REMARK VINA RESULT:      -5.9      2.139      2.643
REMARK  7 active torsions:
REMARK  status: ('A' for Active; 'I' for Inactive)
REMARK    1  A    between atoms: O_1  and  C_2 
REMARK    2  A    between atoms: C_2  and  C_3 
REMARK    3  A    between atoms: C_2  and  C_8 
REMARK    4  A    between atoms: C_3  and  C_4 
REMARK    5  A    between atoms: C_4  and  C_5 
REMARK    6  A    between atoms: C_8  and  C_9 
REMARK    7  A    between atoms: C_11  and  O_15 
ROOT
HETATM    1  O   UNL     1     -54.090  47.818   7.374  1.00  0.00    -0.395 OA
HETATM    2  H   UNL     1     -53.933  47.363   6.532  1.00  0.00     0.210 HD
ENDROOT
BRANCH   1   3
HETATM    3  C   UNL     1     -52.857  47.938   8.087  1.00  0.00     0.122 C 
BRANCH   3   4
HETATM    4  C   UNL     1     -51.708  47.630   7.121  1.00  0.00     0.042 C 
BRANCH   4   5
HETATM    5  C   UNL     1     -51.497  46.129   6.944  1.00  0.00     0.116 C 
BRANCH   5   6
HETATM    6  C   UNL     1     -51.952  45.696   5.583  1.00  0.00     0.172 C 
HETATM    7  O   UNL     1     -51.235  45.367   4.653  1.00  0.00    -0.648 OA
HETATM    8  O   UNL     1     -53.293  45.662   5.466  1.00  0.00    -0.648 OA
ENDBRANCH   5   6
ENDBRANCH   4   5
ENDBRANCH   3   4
BRANCH   3   9
HETATM    9  C   UNL     1     -52.824  46.985   9.295  1.00  0.00     0.070 C 
BRANCH   9  10
HETATM   10  C   UNL     1     -52.898  47.710  10.619  1.00  0.00    -0.053 A 
HETATM   11  C   UNL     1     -52.525  47.066  11.807  1.00  0.00     0.043 A 
HETATM   12  C   UNL     1     -52.603  47.740  13.021  1.00  0.00     0.066 A 
HETATM   13  C   UNL     1     -53.051  49.056  13.080  1.00  0.00     0.036 A 
HETATM   14  C   UNL     1     -53.427  49.703  11.904  1.00  0.00     0.003 A 
HETATM   15  C   UNL     1     -53.352  49.035  10.680  1.00  0.00     0.007 A 
BRANCH  12  16
HETATM   16  O   UNL     1     -52.225  47.067  14.145  1.00  0.00    -0.361 OA
HETATM   17  H   UNL     1     -52.837  46.936  14.841  1.00  0.00     0.217 HD
ENDBRANCH  12  16
ENDBRANCH   9  10
ENDBRANCH   3   9
ENDBRANCH   1   3
TORSDOF 7
ENDMDL
