MODEL 1
REMARK VINA RESULT:      -6.3      0.000      0.000
REMARK  7 active torsions:
REMARK  status: ('A' for Active; 'I' for Inactive)
REMARK    1  A    between atoms: O_1  and  C_2 
REMARK    2  A    between atoms: C_2  and  C_3 
REMARK    3  A    between atoms: C_2  and  C_8 
REMARK    4  A    between atoms: C_3  and  C_4 
REMARK    5  A    between atoms: C_4  and  C_5 
REMARK    6  A    between atoms: C_8  and  C_9 
REMARK    7  A    between atoms: C_11  and  O_15 
ROOT
HETATM    1  O   UNL     1     -53.860  47.388   6.913  1.00  0.00    -0.395 OA
HETATM    2  H   UNL     1     -53.650  46.907   6.097  1.00  0.00     0.210 HD
ENDROOT
BRANCH   1   3
HETATM    3  C   UNL     1     -52.671  47.552   7.689  1.00  0.00     0.122 C 
BRANCH   3   4
HETATM    4  C   UNL     1     -51.618  46.564   7.174  1.00  0.00     0.042 C 
BRANCH   4   5
HETATM    5  C   UNL     1     -51.571  46.521   5.650  1.00  0.00     0.116 C 
BRANCH   5   6
HETATM    6  C   UNL     1     -52.130  45.225   5.147  1.00  0.00     0.172 C 
HETATM    7  O   UNL     1     -51.491  44.231   4.847  1.00  0.00    -0.648 OA
HETATM    8  O   UNL     1     -53.475  45.227   5.076  1.00  0.00    -0.648 OA
ENDBRANCH   5   6
ENDBRANCH   4   5
ENDBRANCH   3   4
BRANCH   3   9
HETATM    9  C   UNL     1     -52.952  47.321   9.184  1.00  0.00     0.070 C 
BRANCH   9  10
HETATM   10  C   UNL     1     -53.174  48.605   9.948  1.00  0.00    -0.053 A 
HETATM   11  C   UNL     1     -53.427  49.805   9.268  1.00  0.00     0.043 A 
HETATM   12  C   UNL     1     -53.623  50.983   9.981  1.00  0.00     0.066 A 
HETATM   13  C   UNL     1     -53.570  50.995  11.371  1.00  0.00     0.036 A 
HETATM   14  C   UNL     1     -53.316  49.807  12.055  1.00  0.00     0.003 A 
HETATM   15  C   UNL     1     -53.118  48.618  11.349  1.00  0.00     0.007 A 
BRANCH  12  16
HETATM   16  O   UNL     1     -53.868  52.120   9.269  1.00  0.00    -0.361 OA
HETATM   17  H   UNL     1     -53.616  52.953   9.616  1.00  0.00     0.217 HD
ENDBRANCH  12  16
ENDBRANCH   9  10
ENDBRANCH   3   9
ENDBRANCH   1   3
TORSDOF 7
ENDMDL
MODEL 2
REMARK VINA RESULT:      -6.2      1.806      6.410
REMARK  7 active torsions:
REMARK  status: ('A' for Active; 'I' for Inactive)
REMARK    1  A    between atoms: O_1  and  C_2 
REMARK    2  A    between atoms: C_2  and  C_3 
REMARK    3  A    between atoms: C_2  and  C_8 
REMARK    4  A    between atoms: C_3  and  C_4 
REMARK    5  A    between atoms: C_4  and  C_5 
REMARK    6  A    between atoms: C_8  and  C_9 
REMARK    7  A    between atoms: C_11  and  O_15 
ROOT
HETATM    1  O   UNL     1     -53.501  50.332   8.683  1.00  0.00    -0.395 OA
HETATM    2  H   UNL     1     -53.376  50.797   9.525  1.00  0.00     0.210 HD
ENDROOT
BRANCH   1   3
HETATM    3  C   UNL     1     -53.900  48.984   8.939  1.00  0.00     0.122 C 
BRANCH   3   4
HETATM    4  C   UNL     1     -54.597  48.937  10.304  1.00  0.00     0.042 C 
BRANCH   4   5
HETATM    5  C   UNL     1     -53.623  48.608  11.431  1.00  0.00     0.116 C 
BRANCH   5   6
HETATM    6  C   UNL     1     -53.267  49.849  12.192  1.00  0.00     0.172 C 
HETATM    7  O   UNL     1     -53.391  50.996  11.799  1.00  0.00    -0.648 OA
HETATM    8  O   UNL     1     -52.804  49.590  13.429  1.00  0.00    -0.648 OA
ENDBRANCH   5   6
ENDBRANCH   4   5
ENDBRANCH   3   4
BRANCH   3   9
HETATM    9  C   UNL     1     -52.689  48.035   8.912  1.00  0.00     0.070 C 
BRANCH   9  10
HETATM   10  C   UNL     1     -52.338  47.566   7.519  1.00  0.00    -0.053 A 
HETATM   11  C   UNL     1     -53.116  46.595   6.876  1.00  0.00     0.043 A 
HETATM   12  C   UNL     1     -52.780  46.166   5.596  1.00  0.00     0.066 A 
HETATM   13  C   UNL     1     -51.673  46.688   4.935  1.00  0.00     0.036 A 
HETATM   14  C   UNL     1     -50.892  47.653   5.569  1.00  0.00     0.003 A 
HETATM   15  C   UNL     1     -51.220  48.091   6.854  1.00  0.00     0.007 A 
BRANCH  12  16
HETATM   16  O   UNL     1     -53.573  45.220   5.016  1.00  0.00    -0.361 OA
HETATM   17  H   UNL     1     -53.407  44.311   5.169  1.00  0.00     0.217 HD
ENDBRANCH  12  16
ENDBRANCH   9  10
ENDBRANCH   3   9
ENDBRANCH   1   3
TORSDOF 7
ENDMDL
MODEL 3
REMARK VINA RESULT:      -6.2      2.188      3.157
REMARK  7 active torsions:
REMARK  status: ('A' for Active; 'I' for Inactive)
REMARK    1  A    between atoms: O_1  and  C_2 
REMARK    2  A    between atoms: C_2  and  C_3 
REMARK    3  A    between atoms: C_2  and  C_8 
REMARK    4  A    between atoms: C_3  and  C_4 
REMARK    5  A    between atoms: C_4  and  C_5 
REMARK    6  A    between atoms: C_8  and  C_9 
REMARK    7  A    between atoms: C_11  and  O_15 
ROOT
HETATM    1  O   UNL     1     -53.329  50.482   7.984  1.00  0.00    -0.395 OA
HETATM    2  H   UNL     1     -53.197  51.298   8.491  1.00  0.00     0.210 HD
ENDROOT
BRANCH   1   3
HETATM    3  C   UNL     1     -53.123  49.353   8.836  1.00  0.00     0.122 C 
BRANCH   3   4
HETATM    4  C   UNL     1     -53.405  48.081   8.030  1.00  0.00     0.042 C 
BRANCH   4   5
HETATM    5  C   UNL     1     -52.128  47.475   7.453  1.00  0.00     0.116 C 
BRANCH   5   6
HETATM    6  C   UNL     1     -52.429  46.738   6.183  1.00  0.00     0.172 C 
HETATM    7  O   UNL     1     -53.399  46.031   5.971  1.00  0.00    -0.648 OA
HETATM    8  O   UNL     1     -51.509  46.952   5.223  1.00  0.00    -0.648 OA
ENDBRANCH   5   6
ENDBRANCH   4   5
ENDBRANCH   3   4
BRANCH   3   9
HETATM    9  C   UNL     1     -54.030  49.425  10.077  1.00  0.00     0.070 C 
BRANCH   9  10
HETATM   10  C   UNL     1     -53.415  48.780  11.296  1.00  0.00    -0.053 A 
HETATM   11  C   UNL     1     -53.335  49.476  12.509  1.00  0.00     0.043 A 
HETATM   12  C   UNL     1     -52.760  48.875  13.624  1.00  0.00     0.066 A 
HETATM   13  C   UNL     1     -52.255  47.581  13.557  1.00  0.00     0.036 A 
HETATM   14  C   UNL     1     -52.327  46.881  12.353  1.00  0.00     0.003 A 
HETATM   15  C   UNL     1     -52.903  47.475  11.228  1.00  0.00     0.007 A 
BRANCH  12  16
HETATM   16  O   UNL     1     -52.712  49.598  14.779  1.00  0.00    -0.361 OA
HETATM   17  H   UNL     1     -53.149  49.285  15.546  1.00  0.00     0.217 HD
ENDBRANCH  12  16
ENDBRANCH   9  10
ENDBRANCH   3   9
ENDBRANCH   1   3
TORSDOF 7
ENDMDL
MODEL 4
REMARK VINA RESULT:      -6.1      3.169      3.587
REMARK  7 active torsions:
REMARK  status: ('A' for Active; 'I' for Inactive)
REMARK    1  A    between atoms: O_1  and  C_2 
REMARK    2  A    between atoms: C_2  and  C_3 
REMARK    3  A    between atoms: C_2  and  C_8 
REMARK    4  A    between atoms: C_3  and  C_4 
REMARK    5  A    between atoms: C_4  and  C_5 
REMARK    6  A    between atoms: C_8  and  C_9 
REMARK    7  A    between atoms: C_11  and  O_15 
ROOT
HETATM    1  O   UNL     1     -55.741  45.900   8.901  1.00  0.00    -0.395 OA
HETATM    2  H   UNL     1     -56.099  46.558   8.286  1.00  0.00     0.210 HD
ENDROOT
BRANCH   1   3
HETATM    3  C   UNL     1     -54.367  45.657   8.592  1.00  0.00     0.122 C 
BRANCH   3   4
HETATM    4  C   UNL     1     -54.190  44.158   8.325  1.00  0.00     0.042 C 
BRANCH   4   5
HETATM    5  C   UNL     1     -54.794  43.305   9.436  1.00  0.00     0.116 C 
BRANCH   5   6
HETATM    6  C   UNL     1     -56.092  42.705   8.986  1.00  0.00     0.172 C 
HETATM    7  O   UNL     1     -56.834  42.005   9.654  1.00  0.00    -0.648 OA
HETATM    8  O   UNL     1     -56.415  43.044   7.723  1.00  0.00    -0.648 OA
ENDBRANCH   5   6
ENDBRANCH   4   5
ENDBRANCH   3   4
BRANCH   3   9
HETATM    9  C   UNL     1     -53.453  46.118   9.741  1.00  0.00     0.070 C 
BRANCH   9  10
HETATM   10  C   UNL     1     -53.493  47.612   9.962  1.00  0.00    -0.053 A 
HETATM   11  C   UNL     1     -53.383  48.497   8.881  1.00  0.00     0.043 A 
HETATM   12  C   UNL     1     -53.414  49.871   9.097  1.00  0.00     0.066 A 
HETATM   13  C   UNL     1     -53.552  50.390  10.380  1.00  0.00     0.036 A 
HETATM   14  C   UNL     1     -53.659  49.517  11.462  1.00  0.00     0.003 A 
HETATM   15  C   UNL     1     -53.629  48.136  11.256  1.00  0.00     0.007 A 
BRANCH  12  16
HETATM   16  O   UNL     1     -53.306  50.685   8.008  1.00  0.00    -0.361 OA
HETATM   17  H   UNL     1     -52.771  51.453   8.049  1.00  0.00     0.217 HD
ENDBRANCH  12  16
ENDBRANCH   9  10
ENDBRANCH   3   9
ENDBRANCH   1   3
TORSDOF 7
ENDMDL
MODEL 5
REMARK VINA RESULT:      -6.0      0.995      1.261
REMARK  7 active torsions:
REMARK  status: ('A' for Active; 'I' for Inactive)
REMARK    1  A    between atoms: O_1  and  C_2 
REMARK    2  A    between atoms: C_2  and  C_3 
REMARK    3  A    between atoms: C_2  and  C_8 
REMARK    4  A    between atoms: C_3  and  C_4 
REMARK    5  A    between atoms: C_4  and  C_5 
REMARK    6  A    between atoms: C_8  and  C_9 
REMARK    7  A    between atoms: C_11  and  O_15 
ROOT
HETATM    1  O   UNL     1     -54.537  45.577   8.137  1.00  0.00    -0.395 OA
HETATM    2  H   UNL     1     -55.365  46.072   8.034  1.00  0.00     0.210 HD
ENDROOT
BRANCH   1   3
HETATM    3  C   UNL     1     -53.477  46.482   8.453  1.00  0.00     0.122 C 
BRANCH   3   4
HETATM    4  C   UNL     1     -52.179  45.933   7.851  1.00  0.00     0.042 C 
BRANCH   4   5
HETATM    5  C   UNL     1     -51.828  46.614   6.531  1.00  0.00     0.116 C 
BRANCH   5   6
HETATM    6  C   UNL     1     -52.326  45.799   5.376  1.00  0.00     0.172 C 
HETATM    7  O   UNL     1     -53.464  45.392   5.217  1.00  0.00    -0.648 OA
HETATM    8  O   UNL     1     -51.374  45.562   4.454  1.00  0.00    -0.648 OA
ENDBRANCH   5   6
ENDBRANCH   4   5
ENDBRANCH   3   4
BRANCH   3   9
HETATM    9  C   UNL     1     -53.340  46.661   9.975  1.00  0.00     0.070 C 
BRANCH   9  10
HETATM   10  C   UNL     1     -53.394  48.108  10.406  1.00  0.00    -0.053 A 
HETATM   11  C   UNL     1     -53.516  49.131   9.456  1.00  0.00     0.043 A 
HETATM   12  C   UNL     1     -53.558  50.460   9.863  1.00  0.00     0.066 A 
HETATM   13  C   UNL     1     -53.479  50.798  11.210  1.00  0.00     0.036 A 
HETATM   14  C   UNL     1     -53.355  49.787  12.162  1.00  0.00     0.003 A 
HETATM   15  C   UNL     1     -53.312  48.449  11.764  1.00  0.00     0.007 A 
BRANCH  12  16
HETATM   16  O   UNL     1     -53.680  51.415   8.897  1.00  0.00    -0.361 OA
HETATM   17  H   UNL     1     -54.275  51.288   8.185  1.00  0.00     0.217 HD
ENDBRANCH  12  16
ENDBRANCH   9  10
ENDBRANCH   3   9
ENDBRANCH   1   3
TORSDOF 7
ENDMDL
MODEL 6
REMARK VINA RESULT:      -6.0      2.203      2.614
REMARK  7 active torsions:
REMARK  status: ('A' for Active; 'I' for Inactive)
REMARK    1  A    between atoms: O_1  and  C_2 
REMARK    2  A    between atoms: C_2  and  C_3 
REMARK    3  A    between atoms: C_2  and  C_8 
REMARK    4  A    between atoms: C_3  and  C_4 
REMARK    5  A    between atoms: C_4  and  C_5 
REMARK    6  A    between atoms: C_8  and  C_9 
REMARK    7  A    between atoms: C_11  and  O_15 
ROOT
HETATM    1  O   UNL     1     -53.884  47.420   6.968  1.00  0.00    -0.395 OA
HETATM    2  H   UNL     1     -54.791  47.748   7.069  1.00  0.00     0.210 HD
ENDROOT
BRANCH   1   3
HETATM    3  C   UNL     1     -53.405  46.950   8.230  1.00  0.00     0.122 C 
BRANCH   3   4
HETATM    4  C   UNL     1     -53.200  45.434   8.136  1.00  0.00     0.042 C 
BRANCH   4   5
HETATM    5  C   UNL     1     -53.835  44.698   9.312  1.00  0.00     0.116 C 
BRANCH   5   6
HETATM    6  C   UNL     1     -54.872  43.732   8.824  1.00  0.00     0.172 C 
HETATM    7  O   UNL     1     -54.731  42.529   8.687  1.00  0.00    -0.648 OA
HETATM    8  O   UNL     1     -56.055  44.322   8.562  1.00  0.00    -0.648 OA
ENDBRANCH   5   6
ENDBRANCH   4   5
ENDBRANCH   3   4
BRANCH   3   9
HETATM    9  C   UNL     1     -54.391  47.298   9.359  1.00  0.00     0.070 C 
BRANCH   9  10
HETATM   10  C   UNL     1     -54.035  48.578  10.079  1.00  0.00    -0.053 A 
HETATM   11  C   UNL     1     -54.028  49.802   9.398  1.00  0.00     0.043 A 
HETATM   12  C   UNL     1     -53.692  50.973  10.069  1.00  0.00     0.066 A 
HETATM   13  C   UNL     1     -53.357  50.952  11.419  1.00  0.00     0.036 A 
HETATM   14  C   UNL     1     -53.358  49.738  12.104  1.00  0.00     0.003 A 
HETATM   15  C   UNL     1     -53.695  48.556  11.440  1.00  0.00     0.007 A 
BRANCH  12  16
HETATM   16  O   UNL     1     -53.705  52.137   9.358  1.00  0.00    -0.361 OA
HETATM   17  H   UNL     1     -54.093  52.161   8.506  1.00  0.00     0.217 HD
ENDBRANCH  12  16
ENDBRANCH   9  10
ENDBRANCH   3   9
ENDBRANCH   1   3
TORSDOF 7
ENDMDL
MODEL 7
REMARK VINA RESULT:      -6.0      2.512      6.278
REMARK  7 active torsions:
REMARK  status: ('A' for Active; 'I' for Inactive)
REMARK    1  A    between atoms: O_1  and  C_2 
REMARK    2  A    between atoms: C_2  and  C_3 
REMARK    3  A    between atoms: C_2  and  C_8 
REMARK    4  A    between atoms: C_3  and  C_4 
REMARK    5  A    between atoms: C_4  and  C_5 
REMARK    6  A    between atoms: C_8  and  C_9 
REMARK    7  A    between atoms: C_11  and  O_15 
ROOT
HETATM    1  O   UNL     1     -53.574  49.500   8.042  1.00  0.00    -0.395 OA
HETATM    2  H   UNL     1     -53.727  49.055   7.194  1.00  0.00     0.210 HD
ENDROOT
BRANCH   1   3
HETATM    3  C   UNL     1     -53.997  48.650   9.110  1.00  0.00     0.122 C 
BRANCH   3   4
HETATM    4  C   UNL     1     -54.557  49.528  10.234  1.00  0.00     0.042 C 
BRANCH   4   5
HETATM    5  C   UNL     1     -53.452  50.250  10.999  1.00  0.00     0.116 C 
BRANCH   5   6
HETATM    6  C   UNL     1     -53.584  51.734  10.829  1.00  0.00     0.172 C 
HETATM    7  O   UNL     1     -53.457  52.574  11.703  1.00  0.00    -0.648 OA
HETATM    8  O   UNL     1     -53.835  52.095   9.557  1.00  0.00    -0.648 OA
ENDBRANCH   5   6
ENDBRANCH   4   5
ENDBRANCH   3   4
BRANCH   3   9
HETATM    9  C   UNL     1     -52.831  47.786   9.622  1.00  0.00     0.070 C 
BRANCH   9  10
HETATM   10  C   UNL     1     -53.153  46.310   9.635  1.00  0.00    -0.053 A 
HETATM   11  C   UNL     1     -54.044  45.765   8.700  1.00  0.00     0.043 A 
HETATM   12  C   UNL     1     -54.338  44.406   8.725  1.00  0.00     0.066 A 
HETATM   13  C   UNL     1     -53.760  43.567   9.673  1.00  0.00     0.036 A 
HETATM   14  C   UNL     1     -52.875  44.100  10.608  1.00  0.00     0.003 A 
HETATM   15  C   UNL     1     -52.572  45.464  10.591  1.00  0.00     0.007 A 
BRANCH  12  16
HETATM   16  O   UNL     1     -55.209  43.929   7.791  1.00  0.00    -0.361 OA
HETATM   17  H   UNL     1     -55.633  43.104   7.923  1.00  0.00     0.217 HD
ENDBRANCH  12  16
ENDBRANCH   9  10
ENDBRANCH   3   9
ENDBRANCH   1   3
TORSDOF 7
ENDMDL
MODEL 8
REMARK VINA RESULT:      -6.0      1.449      1.689
REMARK  7 active torsions:
REMARK  status: ('A' for Active; 'I' for Inactive)
REMARK    1  A    between atoms: O_1  and  C_2 
REMARK    2  A    between atoms: C_2  and  C_3 
REMARK    3  A    between atoms: C_2  and  C_8 
REMARK    4  A    between atoms: C_3  and  C_4 
REMARK    5  A    between atoms: C_4  and  C_5 
REMARK    6  A    between atoms: C_8  and  C_9 
REMARK    7  A    between atoms: C_11  and  O_15 
ROOT
HETATM    1  O   UNL     1     -53.408  46.996   6.440  1.00  0.00    -0.395 OA
HETATM    2  H   UNL     1     -53.233  47.590   5.693  1.00  0.00     0.210 HD
ENDROOT
BRANCH   1   3
HETATM    3  C   UNL     1     -52.677  47.441   7.584  1.00  0.00     0.122 C 
BRANCH   3   4
HETATM    4  C   UNL     1     -51.385  46.622   7.681  1.00  0.00     0.042 C 
BRANCH   4   5
HETATM    5  C   UNL     1     -51.484  45.520   8.731  1.00  0.00     0.116 C 
BRANCH   5   6
HETATM    6  C   UNL     1     -51.559  44.176   8.071  1.00  0.00     0.172 C 
HETATM    7  O   UNL     1     -51.038  43.148   8.467  1.00  0.00    -0.648 OA
HETATM    8  O   UNL     1     -52.317  44.181   6.958  1.00  0.00    -0.648 OA
ENDBRANCH   5   6
ENDBRANCH   4   5
ENDBRANCH   3   4
BRANCH   3   9
HETATM    9  C   UNL     1     -53.514  47.291   8.867  1.00  0.00     0.070 C 
BRANCH   9  10
HETATM   10  C   UNL     1     -53.514  48.538   9.720  1.00  0.00    -0.053 A 
HETATM   11  C   UNL     1     -53.656  49.803   9.135  1.00  0.00     0.043 A 
HETATM   12  C   UNL     1     -53.647  50.945   9.930  1.00  0.00     0.066 A 
HETATM   13  C   UNL     1     -53.497  50.855  11.310  1.00  0.00     0.036 A 
HETATM   14  C   UNL     1     -53.352  49.600  11.900  1.00  0.00     0.003 A 
HETATM   15  C   UNL     1     -53.360  48.447  11.111  1.00  0.00     0.007 A 
BRANCH  12  16
HETATM   16  O   UNL     1     -53.792  52.150   9.308  1.00  0.00    -0.361 OA
HETATM   17  H   UNL     1     -53.746  52.943   9.805  1.00  0.00     0.217 HD
ENDBRANCH  12  16
ENDBRANCH   9  10
ENDBRANCH   3   9
ENDBRANCH   1   3
TORSDOF 7
ENDMDL
MODEL 9
REMARK VINA RESULT:      -6.0      2.316      3.348
REMARK  7 active torsions:
REMARK  status: ('A' for Active; 'I' for Inactive)
REMARK    1  A    between atoms: O_1  and  C_2 
REMARK    2  A    between atoms: C_2  and  C_3 
REMARK    3  A    between atoms: C_2  and  C_8 
REMARK    4  A    between atoms: C_3  and  C_4 
REMARK    5  A    between atoms: C_4  and  C_5 
REMARK    6  A    between atoms: C_8  and  C_9 
REMARK    7  A    between atoms: C_11  and  O_15 
ROOT
HETATM    1  O   UNL     1     -53.337  50.490   8.182  1.00  0.00    -0.395 OA
HETATM    2  H   UNL     1     -53.188  51.237   8.782  1.00  0.00     0.210 HD
ENDROOT
BRANCH   1   3
HETATM    3  C   UNL     1     -53.273  49.267   8.921  1.00  0.00     0.122 C 
BRANCH   3   4
HETATM    4  C   UNL     1     -53.773  48.132   8.020  1.00  0.00     0.042 C 
BRANCH   4   5
HETATM    5  C   UNL     1     -52.647  47.183   7.619  1.00  0.00     0.116 C 
BRANCH   5   6
HETATM    6  C   UNL     1     -53.154  45.774   7.549  1.00  0.00     0.172 C 
HETATM    7  O   UNL     1     -53.762  45.272   6.619  1.00  0.00    -0.648 OA
HETATM    8  O   UNL     1     -52.841  45.050   8.640  1.00  0.00    -0.648 OA
ENDBRANCH   5   6
ENDBRANCH   4   5
ENDBRANCH   3   4
BRANCH   3   9
HETATM    9  C   UNL     1     -54.116  49.355  10.206  1.00  0.00     0.070 C 
BRANCH   9  10
HETATM   10  C   UNL     1     -53.436  48.727  11.400  1.00  0.00    -0.053 A 
HETATM   11  C   UNL     1     -53.335  49.423  12.612  1.00  0.00     0.043 A 
HETATM   12  C   UNL     1     -52.702  48.838  13.703  1.00  0.00     0.066 A 
HETATM   13  C   UNL     1     -52.158  47.561  13.613  1.00  0.00     0.036 A 
HETATM   14  C   UNL     1     -52.251  46.862  12.411  1.00  0.00     0.003 A 
HETATM   15  C   UNL     1     -52.885  47.440  11.309  1.00  0.00     0.007 A 
BRANCH  12  16
HETATM   16  O   UNL     1     -52.635  49.560  14.858  1.00  0.00    -0.361 OA
HETATM   17  H   UNL     1     -51.892  49.474  15.422  1.00  0.00     0.217 HD
ENDBRANCH  12  16
ENDBRANCH   9  10
ENDBRANCH   3   9
ENDBRANCH   1   3
TORSDOF 7
ENDMDL
