MODEL 1
REMARK VINA RESULT:      -6.8      0.000      0.000
REMARK  8 active torsions:
REMARK  status: ('A' for Active; 'I' for Inactive)
REMARK    1  A    between atoms: O_1  and  C_2 
REMARK    2  A    between atoms: C_2  and  C_3 
REMARK    3  A    between atoms: C_2  and  C_8 
REMARK    4  A    between atoms: C_3  and  C_4 
REMARK    5  A    between atoms: C_4  and  C_5 
REMARK    6  A    between atoms: C_8  and  C_9 
REMARK    7  A    between atoms: C_11  and  O_16 
REMARK    8  A    between atoms: C_12  and  O_15 
ROOT
HETATM    1  O   UNL     1       8.368  -1.162  58.182  1.00  0.00    -0.395 OA
HETATM    2  H   UNL     1       8.832  -1.636  58.890  1.00  0.00     0.210 HD
ENDROOT
BRANCH   1   3
HETATM    3  C   UNL     1       7.296  -1.968  57.694  1.00  0.00     0.122 C 
BRANCH   3   4
HETATM    4  C   UNL     1       5.976  -1.185  57.783  1.00  0.00     0.042 C 
BRANCH   4   5
HETATM    5  C   UNL     1       6.127   0.301  57.452  1.00  0.00     0.116 C 
BRANCH   5   6
HETATM    6  C   UNL     1       4.899   0.980  56.903  1.00  0.00     0.172 C 
HETATM    7  O   UNL     1       4.172   1.734  57.529  1.00  0.00    -0.648 OA
HETATM    8  O   UNL     1       4.684   0.777  55.589  1.00  0.00    -0.648 OA
ENDBRANCH   5   6
ENDBRANCH   4   5
ENDBRANCH   3   4
BRANCH   3   9
HETATM    9  C   UNL     1       7.211  -3.272  58.507  1.00  0.00     0.070 C 
BRANCH   9  10
HETATM   10  C   UNL     1       6.035  -4.136  58.106  1.00  0.00    -0.053 A 
HETATM   11  C   UNL     1       5.396  -4.950  59.053  1.00  0.00     0.046 A 
HETATM   12  C   UNL     1       4.331  -5.750  58.664  1.00  0.00     0.099 A 
HETATM   13  C   UNL     1       3.870  -5.731  57.352  1.00  0.00     0.098 A 
HETATM   14  C   UNL     1       4.501  -4.948  56.397  1.00  0.00     0.040 A 
HETATM   15  C   UNL     1       5.586  -4.151  56.773  1.00  0.00     0.010 A 
BRANCH  12  16
HETATM   16  O   UNL     1       3.758  -6.585  59.581  1.00  0.00    -0.358 OA
HETATM   17  H   UNL     1       4.190  -6.752  60.396  1.00  0.00     0.217 HD
ENDBRANCH  12  16
BRANCH  13  18
HETATM   18  O   UNL     1       2.774  -6.460  56.991  1.00  0.00    -0.358 OA
HETATM   19  H   UNL     1       2.523  -7.209  57.494  1.00  0.00     0.217 HD
ENDBRANCH  13  18
ENDBRANCH   9  10
ENDBRANCH   3   9
ENDBRANCH   1   3
TORSDOF 8
ENDMDL
MODEL 2
REMARK VINA RESULT:      -6.7      2.875      6.246
REMARK  8 active torsions:
REMARK  status: ('A' for Active; 'I' for Inactive)
REMARK    1  A    between atoms: O_1  and  C_2 
REMARK    2  A    between atoms: C_2  and  C_3 
REMARK    3  A    between atoms: C_2  and  C_8 
REMARK    4  A    between atoms: C_3  and  C_4 
REMARK    5  A    between atoms: C_4  and  C_5 
REMARK    6  A    between atoms: C_8  and  C_9 
REMARK    7  A    between atoms: C_11  and  O_16 
REMARK    8  A    between atoms: C_12  and  O_15 
ROOT
HETATM    1  O   UNL     1       3.151  -7.763  57.913  1.00  0.00    -0.395 OA
HETATM    2  H   UNL     1       2.994  -8.291  58.711  1.00  0.00     0.210 HD
ENDROOT
BRANCH   1   3
HETATM    3  C   UNL     1       3.240  -6.383  58.266  1.00  0.00     0.122 C 
BRANCH   3   4
HETATM    4  C   UNL     1       1.830  -5.806  58.467  1.00  0.00     0.042 C 
BRANCH   4   5
HETATM    5  C   UNL     1       0.971  -5.848  57.200  1.00  0.00     0.116 C 
BRANCH   5   6
HETATM    6  C   UNL     1       0.188  -7.117  56.979  1.00  0.00     0.172 C 
HETATM    7  O   UNL     1      -0.911  -7.358  57.451  1.00  0.00    -0.648 OA
HETATM    8  O   UNL     1       0.752  -7.980  56.112  1.00  0.00    -0.648 OA
ENDBRANCH   5   6
ENDBRANCH   4   5
ENDBRANCH   3   4
BRANCH   3   9
HETATM    9  C   UNL     1       3.992  -5.611  57.167  1.00  0.00     0.070 C 
BRANCH   9  10
HETATM   10  C   UNL     1       5.149  -4.800  57.708  1.00  0.00    -0.053 A 
HETATM   11  C   UNL     1       5.526  -4.911  59.055  1.00  0.00     0.046 A 
HETATM   12  C   UNL     1       6.578  -4.146  59.539  1.00  0.00     0.099 A 
HETATM   13  C   UNL     1       7.283  -3.293  58.696  1.00  0.00     0.098 A 
HETATM   14  C   UNL     1       6.913  -3.155  57.367  1.00  0.00     0.040 A 
HETATM   15  C   UNL     1       5.843  -3.907  56.873  1.00  0.00     0.010 A 
BRANCH  12  16
HETATM   16  O   UNL     1       6.894  -4.216  60.866  1.00  0.00    -0.358 OA
HETATM   17  H   UNL     1       6.996  -5.051  61.279  1.00  0.00     0.217 HD
ENDBRANCH  12  16
BRANCH  13  18
HETATM   18  O   UNL     1       8.366  -2.602  59.157  1.00  0.00    -0.358 OA
HETATM   19  H   UNL     1       8.994  -3.027  59.707  1.00  0.00     0.217 HD
ENDBRANCH  13  18
ENDBRANCH   9  10
ENDBRANCH   3   9
ENDBRANCH   1   3
TORSDOF 8
ENDMDL
MODEL 3
REMARK VINA RESULT:      -6.6      2.119      6.002
REMARK  8 active torsions:
REMARK  status: ('A' for Active; 'I' for Inactive)
REMARK    1  A    between atoms: O_1  and  C_2 
REMARK    2  A    between atoms: C_2  and  C_3 
REMARK    3  A    between atoms: C_2  and  C_8 
REMARK    4  A    between atoms: C_3  and  C_4 
REMARK    5  A    between atoms: C_4  and  C_5 
REMARK    6  A    between atoms: C_8  and  C_9 
REMARK    7  A    between atoms: C_11  and  O_16 
REMARK    8  A    between atoms: C_12  and  O_15 
ROOT
HETATM    1  O   UNL     1       3.855  -6.662  59.524  1.00  0.00    -0.395 OA
HETATM    2  H   UNL     1       2.990  -6.974  59.833  1.00  0.00     0.210 HD
ENDROOT
BRANCH   1   3
HETATM    3  C   UNL     1       3.726  -5.337  59.010  1.00  0.00     0.122 C 
BRANCH   3   4
HETATM    4  C   UNL     1       2.251  -5.047  58.685  1.00  0.00     0.042 C 
BRANCH   4   5
HETATM    5  C   UNL     1       1.867  -5.398  57.246  1.00  0.00     0.116 C 
BRANCH   5   6
HETATM    6  C   UNL     1       1.251  -6.759  57.043  1.00  0.00     0.172 C 
HETATM    7  O   UNL     1       0.168  -7.114  57.478  1.00  0.00    -0.648 OA
HETATM    8  O   UNL     1       1.952  -7.578  56.235  1.00  0.00    -0.648 OA
ENDBRANCH   5   6
ENDBRANCH   4   5
ENDBRANCH   3   4
BRANCH   3   9
HETATM    9  C   UNL     1       4.600  -5.176  57.754  1.00  0.00     0.070 C 
BRANCH   9  10
HETATM   10  C   UNL     1       5.581  -4.030  57.866  1.00  0.00    -0.053 A 
HETATM   11  C   UNL     1       6.670  -4.110  58.747  1.00  0.00     0.046 A 
HETATM   12  C   UNL     1       7.550  -3.043  58.850  1.00  0.00     0.099 A 
HETATM   13  C   UNL     1       7.382  -1.905  58.069  1.00  0.00     0.098 A 
HETATM   14  C   UNL     1       6.301  -1.798  57.207  1.00  0.00     0.040 A 
HETATM   15  C   UNL     1       5.398  -2.861  57.107  1.00  0.00     0.010 A 
BRANCH  12  16
HETATM   16  O   UNL     1       8.570  -3.108  59.757  1.00  0.00    -0.358 OA
HETATM   17  H   UNL     1       8.384  -3.285  60.658  1.00  0.00     0.217 HD
ENDBRANCH  12  16
BRANCH  13  18
HETATM   18  O   UNL     1       8.292  -0.889  58.116  1.00  0.00    -0.358 OA
HETATM   19  H   UNL     1       8.003   0.001  58.091  1.00  0.00     0.217 HD
ENDBRANCH  13  18
ENDBRANCH   9  10
ENDBRANCH   3   9
ENDBRANCH   1   3
TORSDOF 8
ENDMDL
MODEL 4
REMARK VINA RESULT:      -6.6      2.092      3.432
REMARK  8 active torsions:
REMARK  status: ('A' for Active; 'I' for Inactive)
REMARK    1  A    between atoms: O_1  and  C_2 
REMARK    2  A    between atoms: C_2  and  C_3 
REMARK    3  A    between atoms: C_2  and  C_8 
REMARK    4  A    between atoms: C_3  and  C_4 
REMARK    5  A    between atoms: C_4  and  C_5 
REMARK    6  A    between atoms: C_8  and  C_9 
REMARK    7  A    between atoms: C_11  and  O_16 
REMARK    8  A    between atoms: C_12  and  O_15 
ROOT
HETATM    1  O   UNL     1       4.866  -0.531  54.137  1.00  0.00    -0.395 OA
HETATM    2  H   UNL     1       5.358   0.252  53.842  1.00  0.00     0.210 HD
ENDROOT
BRANCH   1   3
HETATM    3  C   UNL     1       5.264  -0.868  55.465  1.00  0.00     0.122 C 
BRANCH   3   4
HETATM    4  C   UNL     1       5.853   0.369  56.162  1.00  0.00     0.042 C 
BRANCH   4   5
HETATM    5  C   UNL     1       5.032   0.836  57.366  1.00  0.00     0.116 C 
BRANCH   5   6
HETATM    6  C   UNL     1       3.999   1.897  57.085  1.00  0.00     0.172 C 
HETATM    7  O   UNL     1       3.586   2.203  55.978  1.00  0.00    -0.648 OA
HETATM    8  O   UNL     1       3.455   2.456  58.183  1.00  0.00    -0.648 OA
ENDBRANCH   5   6
ENDBRANCH   4   5
ENDBRANCH   3   4
BRANCH   3   9
HETATM    9  C   UNL     1       6.293  -2.012  55.428  1.00  0.00     0.070 C 
BRANCH   9  10
HETATM   10  C   UNL     1       6.382  -2.763  56.738  1.00  0.00    -0.053 A 
HETATM   11  C   UNL     1       7.468  -2.558  57.602  1.00  0.00     0.046 A 
HETATM   12  C   UNL     1       7.543  -3.268  58.792  1.00  0.00     0.099 A 
HETATM   13  C   UNL     1       6.538  -4.160  59.151  1.00  0.00     0.098 A 
HETATM   14  C   UNL     1       5.467  -4.391  58.301  1.00  0.00     0.040 A 
HETATM   15  C   UNL     1       5.390  -3.694  57.092  1.00  0.00     0.010 A 
BRANCH  12  16
HETATM   16  O   UNL     1       8.636  -3.106  59.594  1.00  0.00    -0.358 OA
HETATM   17  H   UNL     1       8.988  -3.839  60.060  1.00  0.00     0.217 HD
ENDBRANCH  12  16
BRANCH  13  18
HETATM   18  O   UNL     1       6.576  -4.799  60.357  1.00  0.00    -0.358 OA
HETATM   19  H   UNL     1       7.173  -5.509  60.493  1.00  0.00     0.217 HD
ENDBRANCH  13  18
ENDBRANCH   9  10
ENDBRANCH   3   9
ENDBRANCH   1   3
TORSDOF 8
ENDMDL
MODEL 5
REMARK VINA RESULT:      -6.5      2.606      5.686
REMARK  8 active torsions:
REMARK  status: ('A' for Active; 'I' for Inactive)
REMARK    1  A    between atoms: O_1  and  C_2 
REMARK    2  A    between atoms: C_2  and  C_3 
REMARK    3  A    between atoms: C_2  and  C_8 
REMARK    4  A    between atoms: C_3  and  C_4 
REMARK    5  A    between atoms: C_4  and  C_5 
REMARK    6  A    between atoms: C_8  and  C_9 
REMARK    7  A    between atoms: C_11  and  O_16 
REMARK    8  A    between atoms: C_12  and  O_15 
ROOT
HETATM    1  O   UNL     1       3.819  -6.167  55.140  1.00  0.00    -0.395 OA
HETATM    2  H   UNL     1       4.040  -7.083  55.369  1.00  0.00     0.210 HD
ENDROOT
BRANCH   1   3
HETATM    3  C   UNL     1       3.802  -5.372  56.325  1.00  0.00     0.122 C 
BRANCH   3   4
HETATM    4  C   UNL     1       2.351  -5.039  56.707  1.00  0.00     0.042 C 
BRANCH   4   5
HETATM    5  C   UNL     1       1.845  -5.830  57.916  1.00  0.00     0.116 C 
BRANCH   5   6
HETATM    6  C   UNL     1       1.593  -5.028  59.167  1.00  0.00     0.172 C 
HETATM    7  O   UNL     1       2.442  -4.418  59.796  1.00  0.00    -0.648 OA
HETATM    8  O   UNL     1       0.297  -4.936  59.524  1.00  0.00    -0.648 OA
ENDBRANCH   5   6
ENDBRANCH   4   5
ENDBRANCH   3   4
BRANCH   3   9
HETATM    9  C   UNL     1       4.613  -4.083  56.101  1.00  0.00     0.070 C 
BRANCH   9  10
HETATM   10  C   UNL     1       5.641  -3.843  57.184  1.00  0.00    -0.053 A 
HETATM   11  C   UNL     1       6.623  -2.853  57.026  1.00  0.00     0.046 A 
HETATM   12  C   UNL     1       7.569  -2.658  58.022  1.00  0.00     0.099 A 
HETATM   13  C   UNL     1       7.538  -3.414  59.189  1.00  0.00     0.098 A 
HETATM   14  C   UNL     1       6.588  -4.410  59.356  1.00  0.00     0.040 A 
HETATM   15  C   UNL     1       5.640  -4.627  58.352  1.00  0.00     0.010 A 
BRANCH  12  16
HETATM   16  O   UNL     1       8.557  -1.735  57.827  1.00  0.00    -0.358 OA
HETATM   17  H   UNL     1       8.356  -0.911  57.429  1.00  0.00     0.217 HD
ENDBRANCH  12  16
BRANCH  13  18
HETATM   18  O   UNL     1       8.422  -3.167  60.199  1.00  0.00    -0.358 OA
HETATM   19  H   UNL     1       9.091  -2.519  60.089  1.00  0.00     0.217 HD
ENDBRANCH  13  18
ENDBRANCH   9  10
ENDBRANCH   3   9
ENDBRANCH   1   3
TORSDOF 8
ENDMDL
MODEL 6
REMARK VINA RESULT:      -6.4      2.533      6.423
REMARK  8 active torsions:
REMARK  status: ('A' for Active; 'I' for Inactive)
REMARK    1  A    between atoms: O_1  and  C_2 
REMARK    2  A    between atoms: C_2  and  C_3 
REMARK    3  A    between atoms: C_2  and  C_8 
REMARK    4  A    between atoms: C_3  and  C_4 
REMARK    5  A    between atoms: C_4  and  C_5 
REMARK    6  A    between atoms: C_8  and  C_9 
REMARK    7  A    between atoms: C_11  and  O_16 
REMARK    8  A    between atoms: C_12  and  O_15 
ROOT
HETATM    1  O   UNL     1       3.277  -7.682  57.950  1.00  0.00    -0.395 OA
HETATM    2  H   UNL     1       4.042  -7.919  57.403  1.00  0.00     0.210 HD
ENDROOT
BRANCH   1   3
HETATM    3  C   UNL     1       3.358  -6.304  58.310  1.00  0.00     0.122 C 
BRANCH   3   4
HETATM    4  C   UNL     1       1.947  -5.750  58.569  1.00  0.00     0.042 C 
BRANCH   4   5
HETATM    5  C   UNL     1       1.062  -5.736  57.321  1.00  0.00     0.116 C 
BRANCH   5   6
HETATM    6  C   UNL     1       0.335  -7.021  57.017  1.00  0.00     0.172 C 
HETATM    7  O   UNL     1      -0.762  -7.330  57.453  1.00  0.00    -0.648 OA
HETATM    8  O   UNL     1       0.947  -7.813  56.116  1.00  0.00    -0.648 OA
ENDBRANCH   5   6
ENDBRANCH   4   5
ENDBRANCH   3   4
BRANCH   3   9
HETATM    9  C   UNL     1       4.054  -5.512  57.189  1.00  0.00     0.070 C 
BRANCH   9  10
HETATM   10  C   UNL     1       5.225  -4.695  57.690  1.00  0.00    -0.053 A 
HETATM   11  C   UNL     1       5.912  -3.831  56.824  1.00  0.00     0.046 A 
HETATM   12  C   UNL     1       6.994  -3.102  57.295  1.00  0.00     0.099 A 
HETATM   13  C   UNL     1       7.388  -3.197  58.626  1.00  0.00     0.098 A 
HETATM   14  C   UNL     1       6.735  -4.059  59.493  1.00  0.00     0.040 A 
HETATM   15  C   UNL     1       5.654  -4.811  59.025  1.00  0.00     0.010 A 
BRANCH  12  16
HETATM   16  O   UNL     1       7.693  -2.314  56.427  1.00  0.00    -0.358 OA
HETATM   17  H   UNL     1       7.245  -1.869  55.734  1.00  0.00     0.217 HD
ENDBRANCH  12  16
BRANCH  13  18
HETATM   18  O   UNL     1       8.404  -2.421  59.105  1.00  0.00    -0.358 OA
HETATM   19  H   UNL     1       8.475  -2.258  60.025  1.00  0.00     0.217 HD
ENDBRANCH  13  18
ENDBRANCH   9  10
ENDBRANCH   3   9
ENDBRANCH   1   3
TORSDOF 8
ENDMDL
MODEL 7
REMARK VINA RESULT:      -6.4      2.846      5.597
REMARK  8 active torsions:
REMARK  status: ('A' for Active; 'I' for Inactive)
REMARK    1  A    between atoms: O_1  and  C_2 
REMARK    2  A    between atoms: C_2  and  C_3 
REMARK    3  A    between atoms: C_2  and  C_8 
REMARK    4  A    between atoms: C_3  and  C_4 
REMARK    5  A    between atoms: C_4  and  C_5 
REMARK    6  A    between atoms: C_8  and  C_9 
REMARK    7  A    between atoms: C_11  and  O_16 
REMARK    8  A    between atoms: C_12  and  O_15 
ROOT
HETATM    1  O   UNL     1       3.535  -7.991  56.928  1.00  0.00    -0.395 OA
HETATM    2  H   UNL     1       3.082  -8.663  57.461  1.00  0.00     0.210 HD
ENDROOT
BRANCH   1   3
HETATM    3  C   UNL     1       3.228  -6.694  57.437  1.00  0.00     0.122 C 
BRANCH   3   4
HETATM    4  C   UNL     1       1.704  -6.528  57.550  1.00  0.00     0.042 C 
BRANCH   4   5
HETATM    5  C   UNL     1       1.271  -5.091  57.853  1.00  0.00     0.116 C 
BRANCH   5   6
HETATM    6  C   UNL     1       0.927  -4.798  59.291  1.00  0.00     0.172 C 
HETATM    7  O   UNL     1      -0.138  -5.057  59.828  1.00  0.00    -0.648 OA
HETATM    8  O   UNL     1       1.941  -4.294  60.020  1.00  0.00    -0.648 OA
ENDBRANCH   5   6
ENDBRANCH   4   5
ENDBRANCH   3   4
BRANCH   3   9
HETATM    9  C   UNL     1       3.824  -5.616  56.514  1.00  0.00     0.070 C 
BRANCH   9  10
HETATM   10  C   UNL     1       4.930  -4.825  57.177  1.00  0.00    -0.053 A 
HETATM   11  C   UNL     1       5.212  -5.001  58.541  1.00  0.00     0.046 A 
HETATM   12  C   UNL     1       6.217  -4.254  59.137  1.00  0.00     0.099 A 
HETATM   13  C   UNL     1       6.970  -3.353  58.391  1.00  0.00     0.098 A 
HETATM   14  C   UNL     1       6.694  -3.150  57.047  1.00  0.00     0.040 A 
HETATM   15  C   UNL     1       5.671  -3.884  56.440  1.00  0.00     0.010 A 
BRANCH  12  16
HETATM   16  O   UNL     1       6.439  -4.389  60.478  1.00  0.00    -0.358 OA
HETATM   17  H   UNL     1       6.037  -5.092  60.950  1.00  0.00     0.217 HD
ENDBRANCH  12  16
BRANCH  13  18
HETATM   18  O   UNL     1       8.009  -2.676  58.963  1.00  0.00    -0.358 OA
HETATM   19  H   UNL     1       7.960  -1.747  59.070  1.00  0.00     0.217 HD
ENDBRANCH  13  18
ENDBRANCH   9  10
ENDBRANCH   3   9
ENDBRANCH   1   3
TORSDOF 8
ENDMDL
MODEL 8
REMARK VINA RESULT:      -6.4      2.593      5.530
REMARK  8 active torsions:
REMARK  status: ('A' for Active; 'I' for Inactive)
REMARK    1  A    between atoms: O_1  and  C_2 
REMARK    2  A    between atoms: C_2  and  C_3 
REMARK    3  A    between atoms: C_2  and  C_8 
REMARK    4  A    between atoms: C_3  and  C_4 
REMARK    5  A    between atoms: C_4  and  C_5 
REMARK    6  A    between atoms: C_8  and  C_9 
REMARK    7  A    between atoms: C_11  and  O_16 
REMARK    8  A    between atoms: C_12  and  O_15 
ROOT
HETATM    1  O   UNL     1       2.394  -5.207  59.853  1.00  0.00    -0.395 OA
HETATM    2  H   UNL     1       2.128  -6.131  59.981  1.00  0.00     0.210 HD
ENDROOT
BRANCH   1   3
HETATM    3  C   UNL     1       3.082  -5.078  58.609  1.00  0.00     0.122 C 
BRANCH   3   4
HETATM    4  C   UNL     1       2.305  -5.816  57.507  1.00  0.00     0.042 C 
BRANCH   4   5
HETATM    5  C   UNL     1       3.210  -6.547  56.513  1.00  0.00     0.116 C 
BRANCH   5   6
HETATM    6  C   UNL     1       3.371  -5.891  55.165  1.00  0.00     0.172 C 
HETATM    7  O   UNL     1       3.016  -4.758  54.886  1.00  0.00    -0.648 OA
HETATM    8  O   UNL     1       4.047  -6.625  54.260  1.00  0.00    -0.648 OA
ENDBRANCH   5   6
ENDBRANCH   4   5
ENDBRANCH   3   4
BRANCH   3   9
HETATM    9  C   UNL     1       4.507  -5.643  58.740  1.00  0.00     0.070 C 
BRANCH   9  10
HETATM   10  C   UNL     1       5.575  -4.597  58.507  1.00  0.00    -0.053 A 
HETATM   11  C   UNL     1       6.601  -4.407  59.445  1.00  0.00     0.046 A 
HETATM   12  C   UNL     1       7.562  -3.431  59.224  1.00  0.00     0.099 A 
HETATM   13  C   UNL     1       7.537  -2.659  58.068  1.00  0.00     0.098 A 
HETATM   14  C   UNL     1       6.521  -2.818  57.138  1.00  0.00     0.040 A 
HETATM   15  C   UNL     1       5.537  -3.786  57.359  1.00  0.00     0.010 A 
BRANCH  12  16
HETATM   16  O   UNL     1       8.518  -3.214  60.175  1.00  0.00    -0.358 OA
HETATM   17  H   UNL     1       8.413  -2.519  60.794  1.00  0.00     0.217 HD
ENDBRANCH  12  16
BRANCH  13  18
HETATM   18  O   UNL     1       8.528  -1.753  57.817  1.00  0.00    -0.358 OA
HETATM   19  H   UNL     1       8.934  -1.726  56.973  1.00  0.00     0.217 HD
ENDBRANCH  13  18
ENDBRANCH   9  10
ENDBRANCH   3   9
ENDBRANCH   1   3
TORSDOF 8
ENDMDL
MODEL 9
REMARK VINA RESULT:      -6.3      2.768      5.665
REMARK  8 active torsions:
REMARK  status: ('A' for Active; 'I' for Inactive)
REMARK    1  A    between atoms: O_1  and  C_2 
REMARK    2  A    between atoms: C_2  and  C_3 
REMARK    3  A    between atoms: C_2  and  C_8 
REMARK    4  A    between atoms: C_3  and  C_4 
REMARK    5  A    between atoms: C_4  and  C_5 
REMARK    6  A    between atoms: C_8  and  C_9 
REMARK    7  A    between atoms: C_11  and  O_16 
REMARK    8  A    between atoms: C_12  and  O_15 
ROOT
HETATM    1  O   UNL     1       8.166  -1.310  57.997  1.00  0.00    -0.395 OA
HETATM    2  H   UNL     1       7.874  -0.392  57.889  1.00  0.00     0.210 HD
ENDROOT
BRANCH   1   3
HETATM    3  C   UNL     1       7.249  -2.182  57.337  1.00  0.00     0.122 C 
BRANCH   3   4
HETATM    4  C   UNL     1       6.977  -3.413  58.218  1.00  0.00     0.042 C 
BRANCH   4   5
HETATM    5  C   UNL     1       5.725  -4.190  57.804  1.00  0.00     0.116 C 
BRANCH   5   6
HETATM    6  C   UNL     1       4.801  -4.592  58.924  1.00  0.00     0.172 C 
HETATM    7  O   UNL     1       3.838  -3.949  59.309  1.00  0.00    -0.648 OA
HETATM    8  O   UNL     1       5.049  -5.808  59.448  1.00  0.00    -0.648 OA
ENDBRANCH   5   6
ENDBRANCH   4   5
ENDBRANCH   3   4
BRANCH   3   9
HETATM    9  C   UNL     1       7.822  -2.606  55.973  1.00  0.00     0.070 C 
BRANCH   9  10
HETATM   10  C   UNL     1       6.970  -2.143  54.812  1.00  0.00    -0.053 A 
HETATM   11  C   UNL     1       6.814  -0.775  54.545  1.00  0.00     0.046 A 
HETATM   12  C   UNL     1       6.014  -0.368  53.487  1.00  0.00     0.099 A 
HETATM   13  C   UNL     1       5.389  -1.303  52.668  1.00  0.00     0.098 A 
HETATM   14  C   UNL     1       5.515  -2.659  52.927  1.00  0.00     0.040 A 
HETATM   15  C   UNL     1       6.303  -3.080  54.002  1.00  0.00     0.010 A 
BRANCH  12  16
HETATM   16  O   UNL     1       5.820   0.968  53.276  1.00  0.00    -0.358 OA
HETATM   17  H   UNL     1       5.870   1.317  52.408  1.00  0.00     0.217 HD
ENDBRANCH  12  16
BRANCH  13  18
HETATM   18  O   UNL     1       4.667  -0.901  51.582  1.00  0.00    -0.358 OA
HETATM   19  H   UNL     1       4.158  -1.524  51.101  1.00  0.00     0.217 HD
ENDBRANCH  13  18
ENDBRANCH   9  10
ENDBRANCH   3   9
ENDBRANCH   1   3
TORSDOF 8
ENDMDL
