MODEL 1
REMARK VINA RESULT:      -6.3      0.000      0.000
REMARK  8 active torsions:
REMARK  status: ('A' for Active; 'I' for Inactive)
REMARK    1  A    between atoms: O_1  and  C_2 
REMARK    2  A    between atoms: C_2  and  C_3 
REMARK    3  A    between atoms: C_2  and  C_8 
REMARK    4  A    between atoms: C_3  and  C_4 
REMARK    5  A    between atoms: C_4  and  C_5 
REMARK    6  A    between atoms: C_8  and  C_9 
REMARK    7  A    between atoms: C_11  and  O_16 
REMARK    8  A    between atoms: C_12  and  O_15 
ROOT
HETATM    1  O   UNL     1       3.832  -6.667  59.382  1.00  0.00    -0.395 OA
HETATM    2  H   UNL     1       4.678  -6.980  59.024  1.00  0.00     0.210 HD
ENDROOT
BRANCH   1   3
HETATM    3  C   UNL     1       3.640  -5.300  59.021  1.00  0.00     0.122 C 
BRANCH   3   4
HETATM    4  C   UNL     1       2.138  -5.006  58.882  1.00  0.00     0.042 C 
BRANCH   4   5
HETATM    5  C   UNL     1       1.587  -5.304  57.485  1.00  0.00     0.116 C 
BRANCH   5   6
HETATM    6  C   UNL     1       1.129  -6.721  57.248  1.00  0.00     0.172 C 
HETATM    7  O   UNL     1      -0.016  -7.122  57.377  1.00  0.00    -0.648 OA
HETATM    8  O   UNL     1       2.081  -7.546  56.771  1.00  0.00    -0.648 OA
ENDBRANCH   5   6
ENDBRANCH   4   5
ENDBRANCH   3   4
BRANCH   3   9
HETATM    9  C   UNL     1       4.376  -5.000  57.703  1.00  0.00     0.070 C 
BRANCH   9  10
HETATM   10  C   UNL     1       5.402  -3.897  57.844  1.00  0.00    -0.053 A 
HETATM   11  C   UNL     1       6.552  -4.092  58.625  1.00  0.00     0.046 A 
HETATM   12  C   UNL     1       7.474  -3.063  58.758  1.00  0.00     0.099 A 
HETATM   13  C   UNL     1       7.286  -1.851  58.102  1.00  0.00     0.098 A 
HETATM   14  C   UNL     1       6.147  -1.633  57.342  1.00  0.00     0.040 A 
HETATM   15  C   UNL     1       5.203  -2.656  57.215  1.00  0.00     0.010 A 
BRANCH  12  16
HETATM   16  O   UNL     1       8.556  -3.243  59.572  1.00  0.00    -0.358 OA
HETATM   17  H   UNL     1       8.436  -3.545  60.451  1.00  0.00     0.217 HD
ENDBRANCH  12  16
BRANCH  13  18
HETATM   18  O   UNL     1       8.233  -0.870  58.173  1.00  0.00    -0.358 OA
HETATM   19  H   UNL     1       8.554  -0.472  57.388  1.00  0.00     0.217 HD
ENDBRANCH  13  18
ENDBRANCH   9  10
ENDBRANCH   3   9
ENDBRANCH   1   3
TORSDOF 8
ENDMDL
MODEL 2
REMARK VINA RESULT:      -6.3      1.910      5.814
REMARK  8 active torsions:
REMARK  status: ('A' for Active; 'I' for Inactive)
REMARK    1  A    between atoms: O_1  and  C_2 
REMARK    2  A    between atoms: C_2  and  C_3 
REMARK    3  A    between atoms: C_2  and  C_8 
REMARK    4  A    between atoms: C_3  and  C_4 
REMARK    5  A    between atoms: C_4  and  C_5 
REMARK    6  A    between atoms: C_8  and  C_9 
REMARK    7  A    between atoms: C_11  and  O_16 
REMARK    8  A    between atoms: C_12  and  O_15 
ROOT
HETATM    1  O   UNL     1       8.809  -2.131  57.135  1.00  0.00    -0.395 OA
HETATM    2  H   UNL     1       9.237  -1.655  57.864  1.00  0.00     0.210 HD
ENDROOT
BRANCH   1   3
HETATM    3  C   UNL     1       7.403  -2.196  57.369  1.00  0.00     0.122 C 
BRANCH   3   4
HETATM    4  C   UNL     1       6.882  -0.813  57.791  1.00  0.00     0.042 C 
BRANCH   4   5
HETATM    5  C   UNL     1       5.544  -0.445  57.144  1.00  0.00     0.116 C 
BRANCH   5   6
HETATM    6  C   UNL     1       5.500  -0.517  55.639  1.00  0.00     0.172 C 
HETATM    7  O   UNL     1       4.787  -1.265  54.991  1.00  0.00    -0.648 OA
HETATM    8  O   UNL     1       6.260   0.400  55.011  1.00  0.00    -0.648 OA
ENDBRANCH   5   6
ENDBRANCH   4   5
ENDBRANCH   3   4
BRANCH   3   9
HETATM    9  C   UNL     1       7.103  -3.244  58.456  1.00  0.00     0.070 C 
BRANCH   9  10
HETATM   10  C   UNL     1       5.946  -4.149  58.092  1.00  0.00    -0.053 A 
HETATM   11  C   UNL     1       5.361  -4.979  59.060  1.00  0.00     0.046 A 
HETATM   12  C   UNL     1       4.314  -5.816  58.705  1.00  0.00     0.099 A 
HETATM   13  C   UNL     1       3.817  -5.821  57.406  1.00  0.00     0.098 A 
HETATM   14  C   UNL     1       4.394  -5.022  56.430  1.00  0.00     0.040 A 
HETATM   15  C   UNL     1       5.462  -4.188  56.772  1.00  0.00     0.010 A 
BRANCH  12  16
HETATM   16  O   UNL     1       3.795  -6.665  59.642  1.00  0.00    -0.358 OA
HETATM   17  H   UNL     1       3.640  -7.563  59.425  1.00  0.00     0.217 HD
ENDBRANCH  12  16
BRANCH  13  18
HETATM   18  O   UNL     1       2.736  -6.588  57.079  1.00  0.00    -0.358 OA
HETATM   19  H   UNL     1       2.584  -7.397  57.527  1.00  0.00     0.217 HD
ENDBRANCH  13  18
ENDBRANCH   9  10
ENDBRANCH   3   9
ENDBRANCH   1   3
TORSDOF 8
ENDMDL
MODEL 3
REMARK VINA RESULT:      -6.2      1.284      1.670
REMARK  8 active torsions:
REMARK  status: ('A' for Active; 'I' for Inactive)
REMARK    1  A    between atoms: O_1  and  C_2 
REMARK    2  A    between atoms: C_2  and  C_3 
REMARK    3  A    between atoms: C_2  and  C_8 
REMARK    4  A    between atoms: C_3  and  C_4 
REMARK    5  A    between atoms: C_4  and  C_5 
REMARK    6  A    between atoms: C_8  and  C_9 
REMARK    7  A    between atoms: C_11  and  O_16 
REMARK    8  A    between atoms: C_12  and  O_15 
ROOT
HETATM    1  O   UNL     1       3.194  -7.746  57.899  1.00  0.00    -0.395 OA
HETATM    2  H   UNL     1       3.569  -7.875  57.013  1.00  0.00     0.210 HD
ENDROOT
BRANCH   1   3
HETATM    3  C   UNL     1       3.218  -6.357  58.227  1.00  0.00     0.122 C 
BRANCH   3   4
HETATM    4  C   UNL     1       1.780  -5.833  58.372  1.00  0.00     0.042 C 
BRANCH   4   5
HETATM    5  C   UNL     1       0.981  -5.886  57.068  1.00  0.00     0.116 C 
BRANCH   5   6
HETATM    6  C   UNL     1       0.284  -7.191  56.777  1.00  0.00     0.172 C 
HETATM    7  O   UNL     1       0.726  -8.084  56.074  1.00  0.00    -0.648 OA
HETATM    8  O   UNL     1      -0.872  -7.371  57.444  1.00  0.00    -0.648 OA
ENDBRANCH   5   6
ENDBRANCH   4   5
ENDBRANCH   3   4
BRANCH   3   9
HETATM    9  C   UNL     1       3.974  -5.576  57.138  1.00  0.00     0.070 C 
BRANCH   9  10
HETATM   10  C   UNL     1       5.137  -4.781  57.689  1.00  0.00    -0.053 A 
HETATM   11  C   UNL     1       5.493  -4.886  59.042  1.00  0.00     0.046 A 
HETATM   12  C   UNL     1       6.552  -4.137  59.535  1.00  0.00     0.099 A 
HETATM   13  C   UNL     1       7.284  -3.304  58.695  1.00  0.00     0.098 A 
HETATM   14  C   UNL     1       6.936  -3.172  57.359  1.00  0.00     0.040 A 
HETATM   15  C   UNL     1       5.860  -3.909  56.856  1.00  0.00     0.010 A 
BRANCH  12  16
HETATM   16  O   UNL     1       6.848  -4.200  60.866  1.00  0.00    -0.358 OA
HETATM   17  H   UNL     1       6.158  -4.284  61.496  1.00  0.00     0.217 HD
ENDBRANCH  12  16
BRANCH  13  18
HETATM   18  O   UNL     1       8.373  -2.629  59.165  1.00  0.00    -0.358 OA
HETATM   19  H   UNL     1       9.121  -3.101  59.471  1.00  0.00     0.217 HD
ENDBRANCH  13  18
ENDBRANCH   9  10
ENDBRANCH   3   9
ENDBRANCH   1   3
TORSDOF 8
ENDMDL
MODEL 4
REMARK VINA RESULT:      -6.1      3.374      5.624
REMARK  8 active torsions:
REMARK  status: ('A' for Active; 'I' for Inactive)
REMARK    1  A    between atoms: O_1  and  C_2 
REMARK    2  A    between atoms: C_2  and  C_3 
REMARK    3  A    between atoms: C_2  and  C_8 
REMARK    4  A    between atoms: C_3  and  C_4 
REMARK    5  A    between atoms: C_4  and  C_5 
REMARK    6  A    between atoms: C_8  and  C_9 
REMARK    7  A    between atoms: C_11  and  O_16 
REMARK    8  A    between atoms: C_12  and  O_15 
ROOT
HETATM    1  O   UNL     1       7.309  -0.523  54.457  1.00  0.00    -0.395 OA
HETATM    2  H   UNL     1       7.045   0.161  55.091  1.00  0.00     0.210 HD
ENDROOT
BRANCH   1   3
HETATM    3  C   UNL     1       6.315  -1.546  54.418  1.00  0.00     0.122 C 
BRANCH   3   4
HETATM    4  C   UNL     1       5.167  -1.191  55.377  1.00  0.00     0.042 C 
BRANCH   4   5
HETATM    5  C   UNL     1       5.023   0.314  55.620  1.00  0.00     0.116 C 
BRANCH   5   6
HETATM    6  C   UNL     1       5.102   0.757  57.059  1.00  0.00     0.172 C 
HETATM    7  O   UNL     1       4.364   1.573  57.586  1.00  0.00    -0.648 OA
HETATM    8  O   UNL     1       6.019   0.104  57.798  1.00  0.00    -0.648 OA
ENDBRANCH   5   6
ENDBRANCH   4   5
ENDBRANCH   3   4
BRANCH   3   9
HETATM    9  C   UNL     1       6.942  -2.898  54.800  1.00  0.00     0.070 C 
BRANCH   9  10
HETATM   10  C   UNL     1       6.744  -3.245  56.259  1.00  0.00    -0.053 A 
HETATM   11  C   UNL     1       7.684  -2.841  57.219  1.00  0.00     0.046 A 
HETATM   12  C   UNL     1       7.496  -3.183  58.551  1.00  0.00     0.099 A 
HETATM   13  C   UNL     1       6.371  -3.897  58.949  1.00  0.00     0.098 A 
HETATM   14  C   UNL     1       5.441  -4.322  58.012  1.00  0.00     0.040 A 
HETATM   15  C   UNL     1       5.629  -3.998  56.666  1.00  0.00     0.010 A 
BRANCH  12  16
HETATM   16  O   UNL     1       8.450  -2.838  59.466  1.00  0.00    -0.358 OA
HETATM   17  H   UNL     1       8.205  -2.659  60.352  1.00  0.00     0.217 HD
ENDBRANCH  12  16
BRANCH  13  18
HETATM   18  O   UNL     1       6.150  -4.164  60.269  1.00  0.00    -0.358 OA
HETATM   19  H   UNL     1       6.122  -3.463  60.890  1.00  0.00     0.217 HD
ENDBRANCH  13  18
ENDBRANCH   9  10
ENDBRANCH   3   9
ENDBRANCH   1   3
TORSDOF 8
ENDMDL
MODEL 5
REMARK VINA RESULT:      -6.1      1.510      2.639
REMARK  8 active torsions:
REMARK  status: ('A' for Active; 'I' for Inactive)
REMARK    1  A    between atoms: O_1  and  C_2 
REMARK    2  A    between atoms: C_2  and  C_3 
REMARK    3  A    between atoms: C_2  and  C_8 
REMARK    4  A    between atoms: C_3  and  C_4 
REMARK    5  A    between atoms: C_4  and  C_5 
REMARK    6  A    between atoms: C_8  and  C_9 
REMARK    7  A    between atoms: C_11  and  O_16 
REMARK    8  A    between atoms: C_12  and  O_15 
ROOT
HETATM    1  O   UNL     1       3.932  -5.890  55.108  1.00  0.00    -0.395 OA
HETATM    2  H   UNL     1       4.001  -6.836  55.311  1.00  0.00     0.210 HD
ENDROOT
BRANCH   1   3
HETATM    3  C   UNL     1       3.758  -5.155  56.319  1.00  0.00     0.122 C 
BRANCH   3   4
HETATM    4  C   UNL     1       2.259  -4.950  56.591  1.00  0.00     0.042 C 
BRANCH   4   5
HETATM    5  C   UNL     1       1.743  -5.754  57.787  1.00  0.00     0.116 C 
BRANCH   5   6
HETATM    6  C   UNL     1       2.341  -5.399  59.124  1.00  0.00     0.172 C 
HETATM    7  O   UNL     1       2.121  -4.372  59.745  1.00  0.00    -0.648 OA
HETATM    8  O   UNL     1       3.100  -6.366  59.674  1.00  0.00    -0.648 OA
ENDBRANCH   5   6
ENDBRANCH   4   5
ENDBRANCH   3   4
BRANCH   3   9
HETATM    9  C   UNL     1       4.482  -3.801  56.217  1.00  0.00     0.070 C 
BRANCH   9  10
HETATM   10  C   UNL     1       5.573  -3.642  57.252  1.00  0.00    -0.053 A 
HETATM   11  C   UNL     1       6.547  -2.641  57.111  1.00  0.00     0.046 A 
HETATM   12  C   UNL     1       7.551  -2.520  58.060  1.00  0.00     0.099 A 
HETATM   13  C   UNL     1       7.588  -3.362  59.167  1.00  0.00     0.098 A 
HETATM   14  C   UNL     1       6.646  -4.369  59.315  1.00  0.00     0.040 A 
HETATM   15  C   UNL     1       5.640  -4.512  58.355  1.00  0.00     0.010 A 
BRANCH  12  16
HETATM   16  O   UNL     1       8.528  -1.584  57.877  1.00  0.00    -0.358 OA
HETATM   17  H   UNL     1       8.301  -0.717  57.602  1.00  0.00     0.217 HD
ENDBRANCH  12  16
BRANCH  13  18
HETATM   18  O   UNL     1       8.531  -3.190  60.138  1.00  0.00    -0.358 OA
HETATM   19  H   UNL     1       9.303  -2.690  59.959  1.00  0.00     0.217 HD
ENDBRANCH  13  18
ENDBRANCH   9  10
ENDBRANCH   3   9
ENDBRANCH   1   3
TORSDOF 8
ENDMDL
MODEL 6
REMARK VINA RESULT:      -6.0      4.436      5.909
REMARK  8 active torsions:
REMARK  status: ('A' for Active; 'I' for Inactive)
REMARK    1  A    between atoms: O_1  and  C_2 
REMARK    2  A    between atoms: C_2  and  C_3 
REMARK    3  A    between atoms: C_2  and  C_8 
REMARK    4  A    between atoms: C_3  and  C_4 
REMARK    5  A    between atoms: C_4  and  C_5 
REMARK    6  A    between atoms: C_8  and  C_9 
REMARK    7  A    between atoms: C_11  and  O_16 
REMARK    8  A    between atoms: C_12  and  O_15 
ROOT
HETATM    1  O   UNL     1       8.095  -2.166  58.689  1.00  0.00    -0.395 OA
HETATM    2  H   UNL     1       8.753  -2.296  57.988  1.00  0.00     0.210 HD
ENDROOT
BRANCH   1   3
HETATM    3  C   UNL     1       6.866  -2.784  58.310  1.00  0.00     0.122 C 
BRANCH   3   4
HETATM    4  C   UNL     1       6.608  -4.013  59.196  1.00  0.00     0.042 C 
BRANCH   4   5
HETATM    5  C   UNL     1       7.364  -3.972  60.526  1.00  0.00     0.116 C 
BRANCH   5   6
HETATM    6  C   UNL     1       8.648  -4.760  60.576  1.00  0.00     0.172 C 
HETATM    7  O   UNL     1       9.652  -4.515  59.927  1.00  0.00    -0.648 OA
HETATM    8  O   UNL     1       8.665  -5.748  61.492  1.00  0.00    -0.648 OA
ENDBRANCH   5   6
ENDBRANCH   4   5
ENDBRANCH   3   4
BRANCH   3   9
HETATM    9  C   UNL     1       6.922  -3.188  56.826  1.00  0.00     0.070 C 
BRANCH   9  10
HETATM   10  C   UNL     1       6.571  -2.047  55.896  1.00  0.00    -0.053 A 
HETATM   11  C   UNL     1       7.259  -1.881  54.684  1.00  0.00     0.046 A 
HETATM   12  C   UNL     1       6.937  -0.819  53.851  1.00  0.00     0.099 A 
HETATM   13  C   UNL     1       5.920   0.067  54.190  1.00  0.00     0.098 A 
HETATM   14  C   UNL     1       5.242  -0.069  55.393  1.00  0.00     0.040 A 
HETATM   15  C   UNL     1       5.570  -1.125  56.248  1.00  0.00     0.010 A 
BRANCH  12  16
HETATM   16  O   UNL     1       7.656  -0.632  52.705  1.00  0.00    -0.358 OA
HETATM   17  H   UNL     1       8.590  -0.575  52.742  1.00  0.00     0.217 HD
ENDBRANCH  12  16
BRANCH  13  18
HETATM   18  O   UNL     1       5.553   1.064  53.333  1.00  0.00    -0.358 OA
HETATM   19  H   UNL     1       5.849   1.050  52.444  1.00  0.00     0.217 HD
ENDBRANCH  13  18
ENDBRANCH   9  10
ENDBRANCH   3   9
ENDBRANCH   1   3
TORSDOF 8
ENDMDL
MODEL 7
REMARK VINA RESULT:      -6.0      3.554      5.796
REMARK  8 active torsions:
REMARK  status: ('A' for Active; 'I' for Inactive)
REMARK    1  A    between atoms: O_1  and  C_2 
REMARK    2  A    between atoms: C_2  and  C_3 
REMARK    3  A    between atoms: C_2  and  C_8 
REMARK    4  A    between atoms: C_3  and  C_4 
REMARK    5  A    between atoms: C_4  and  C_5 
REMARK    6  A    between atoms: C_8  and  C_9 
REMARK    7  A    between atoms: C_11  and  O_16 
REMARK    8  A    between atoms: C_12  and  O_15 
ROOT
HETATM    1  O   UNL     1       8.354  -1.736  57.959  1.00  0.00    -0.395 OA
HETATM    2  H   UNL     1       8.906  -0.978  57.709  1.00  0.00     0.210 HD
ENDROOT
BRANCH   1   3
HETATM    3  C   UNL     1       7.162  -1.735  57.175  1.00  0.00     0.122 C 
BRANCH   3   4
HETATM    4  C   UNL     1       5.968  -2.159  58.045  1.00  0.00     0.042 C 
BRANCH   4   5
HETATM    5  C   UNL     1       5.686  -3.662  57.999  1.00  0.00     0.116 C 
BRANCH   5   6
HETATM    6  C   UNL     1       6.110  -4.448  59.213  1.00  0.00     0.172 C 
HETATM    7  O   UNL     1       5.564  -5.459  59.624  1.00  0.00    -0.648 OA
HETATM    8  O   UNL     1       7.240  -4.008  59.800  1.00  0.00    -0.648 OA
ENDBRANCH   5   6
ENDBRANCH   4   5
ENDBRANCH   3   4
BRANCH   3   9
HETATM    9  C   UNL     1       7.325  -2.686  55.976  1.00  0.00     0.070 C 
BRANCH   9  10
HETATM   10  C   UNL     1       6.678  -2.155  54.716  1.00  0.00    -0.053 A 
HETATM   11  C   UNL     1       6.588  -0.773  54.491  1.00  0.00     0.046 A 
HETATM   12  C   UNL     1       5.975  -0.304  53.338  1.00  0.00     0.099 A 
HETATM   13  C   UNL     1       5.475  -1.189  52.388  1.00  0.00     0.098 A 
HETATM   14  C   UNL     1       5.537  -2.557  52.601  1.00  0.00     0.040 A 
HETATM   15  C   UNL     1       6.137  -3.042  53.768  1.00  0.00     0.010 A 
BRANCH  12  16
HETATM   16  O   UNL     1       5.837   1.043  53.161  1.00  0.00    -0.358 OA
HETATM   17  H   UNL     1       5.031   1.393  52.836  1.00  0.00     0.217 HD
ENDBRANCH  12  16
BRANCH  13  18
HETATM   18  O   UNL     1       4.943  -0.724  51.220  1.00  0.00    -0.358 OA
HETATM   19  H   UNL     1       4.031  -0.514  51.171  1.00  0.00     0.217 HD
ENDBRANCH  13  18
ENDBRANCH   9  10
ENDBRANCH   3   9
ENDBRANCH   1   3
TORSDOF 8
ENDMDL
MODEL 8
REMARK VINA RESULT:      -5.9      2.301      3.618
REMARK  8 active torsions:
REMARK  status: ('A' for Active; 'I' for Inactive)
REMARK    1  A    between atoms: O_1  and  C_2 
REMARK    2  A    between atoms: C_2  and  C_3 
REMARK    3  A    between atoms: C_2  and  C_8 
REMARK    4  A    between atoms: C_3  and  C_4 
REMARK    5  A    between atoms: C_4  and  C_5 
REMARK    6  A    between atoms: C_8  and  C_9 
REMARK    7  A    between atoms: C_11  and  O_16 
REMARK    8  A    between atoms: C_12  and  O_15 
ROOT
HETATM    1  O   UNL     1       6.311  -4.349  60.222  1.00  0.00    -0.395 OA
HETATM    2  H   UNL     1       6.303  -5.310  60.090  1.00  0.00     0.210 HD
ENDROOT
BRANCH   1   3
HETATM    3  C   UNL     1       5.880  -3.701  59.026  1.00  0.00     0.122 C 
BRANCH   3   4
HETATM    4  C   UNL     1       5.306  -4.740  58.050  1.00  0.00     0.042 C 
BRANCH   4   5
HETATM    5  C   UNL     1       3.778  -4.711  57.963  1.00  0.00     0.116 C 
BRANCH   5   6
HETATM    6  C   UNL     1       3.042  -5.379  59.096  1.00  0.00     0.172 C 
HETATM    7  O   UNL     1       3.385  -6.413  59.646  1.00  0.00    -0.648 OA
HETATM    8  O   UNL     1       1.981  -4.691  59.560  1.00  0.00    -0.648 OA
ENDBRANCH   5   6
ENDBRANCH   4   5
ENDBRANCH   3   4
BRANCH   3   9
HETATM    9  C   UNL     1       7.061  -2.950  58.386  1.00  0.00     0.070 C 
BRANCH   9  10
HETATM   10  C   UNL     1       6.628  -2.009  57.283  1.00  0.00    -0.053 A 
HETATM   11  C   UNL     1       7.026  -2.238  55.957  1.00  0.00     0.046 A 
HETATM   12  C   UNL     1       6.634  -1.355  54.960  1.00  0.00     0.099 A 
HETATM   13  C   UNL     1       5.826  -0.262  55.256  1.00  0.00     0.098 A 
HETATM   14  C   UNL     1       5.439  -0.008  56.564  1.00  0.00     0.040 A 
HETATM   15  C   UNL     1       5.842  -0.881  57.578  1.00  0.00     0.010 A 
BRANCH  12  16
HETATM   16  O   UNL     1       7.080  -1.554  53.685  1.00  0.00    -0.358 OA
HETATM   17  H   UNL     1       6.704  -2.231  53.157  1.00  0.00     0.217 HD
ENDBRANCH  12  16
BRANCH  13  18
HETATM   18  O   UNL     1       5.379   0.560  54.262  1.00  0.00    -0.358 OA
HETATM   19  H   UNL     1       5.874   0.650  53.472  1.00  0.00     0.217 HD
ENDBRANCH  13  18
ENDBRANCH   9  10
ENDBRANCH   3   9
ENDBRANCH   1   3
TORSDOF 8
ENDMDL
MODEL 9
REMARK VINA RESULT:      -5.9      3.062      5.808
REMARK  8 active torsions:
REMARK  status: ('A' for Active; 'I' for Inactive)
REMARK    1  A    between atoms: O_1  and  C_2 
REMARK    2  A    between atoms: C_2  and  C_3 
REMARK    3  A    between atoms: C_2  and  C_8 
REMARK    4  A    between atoms: C_3  and  C_4 
REMARK    5  A    between atoms: C_4  and  C_5 
REMARK    6  A    between atoms: C_8  and  C_9 
REMARK    7  A    between atoms: C_11  and  O_16 
REMARK    8  A    between atoms: C_12  and  O_15 
ROOT
HETATM    1  O   UNL     1       6.910  -0.242  55.258  1.00  0.00    -0.395 OA
HETATM    2  H   UNL     1       7.549  -0.615  54.631  1.00  0.00     0.210 HD
ENDROOT
BRANCH   1   3
HETATM    3  C   UNL     1       5.938  -1.231  55.592  1.00  0.00     0.122 C 
BRANCH   3   4
HETATM    4  C   UNL     1       5.299  -0.894  56.949  1.00  0.00     0.042 C 
BRANCH   4   5
HETATM    5  C   UNL     1       5.552   0.547  57.398  1.00  0.00     0.116 C 
BRANCH   5   6
HETATM    6  C   UNL     1       4.403   1.504  57.213  1.00  0.00     0.172 C 
HETATM    7  O   UNL     1       3.884   2.163  58.100  1.00  0.00    -0.648 OA
HETATM    8  O   UNL     1       4.016   1.677  55.934  1.00  0.00    -0.648 OA
ENDBRANCH   5   6
ENDBRANCH   4   5
ENDBRANCH   3   4
BRANCH   3   9
HETATM    9  C   UNL     1       6.598  -2.620  55.632  1.00  0.00     0.070 C 
BRANCH   9  10
HETATM   10  C   UNL     1       6.748  -3.156  57.039  1.00  0.00    -0.053 A 
HETATM   11  C   UNL     1       5.802  -4.049  57.565  1.00  0.00     0.046 A 
HETATM   12  C   UNL     1       5.945  -4.516  58.863  1.00  0.00     0.099 A 
HETATM   13  C   UNL     1       7.033  -4.133  59.640  1.00  0.00     0.098 A 
HETATM   14  C   UNL     1       7.968  -3.236  59.146  1.00  0.00     0.040 A 
HETATM   15  C   UNL     1       7.825  -2.745  57.845  1.00  0.00     0.010 A 
BRANCH  12  16
HETATM   16  O   UNL     1       4.984  -5.335  59.384  1.00  0.00    -0.358 OA
HETATM   17  H   UNL     1       4.518  -5.925  58.824  1.00  0.00     0.217 HD
ENDBRANCH  12  16
BRANCH  13  18
HETATM   18  O   UNL     1       7.212  -4.655  60.888  1.00  0.00    -0.358 OA
HETATM   19  H   UNL     1       7.347  -4.086  61.620  1.00  0.00     0.217 HD
ENDBRANCH  13  18
ENDBRANCH   9  10
ENDBRANCH   3   9
ENDBRANCH   1   3
TORSDOF 8
ENDMDL
