MODEL 1
REMARK VINA RESULT:      -6.9      0.000      0.000
REMARK  8 active torsions:
REMARK  status: ('A' for Active; 'I' for Inactive)
REMARK    1  A    between atoms: O_1  and  C_2 
REMARK    2  A    between atoms: C_2  and  C_3 
REMARK    3  A    between atoms: C_2  and  C_8 
REMARK    4  A    between atoms: C_3  and  C_4 
REMARK    5  A    between atoms: C_4  and  C_5 
REMARK    6  A    between atoms: C_8  and  C_9 
REMARK    7  A    between atoms: C_11  and  O_16 
REMARK    8  A    between atoms: C_12  and  O_15 
ROOT
HETATM    1  O   UNL     1       8.340  -1.181  58.244  1.00  0.00    -0.395 OA
HETATM    2  H   UNL     1       9.020  -1.037  57.567  1.00  0.00     0.210 HD
ENDROOT
BRANCH   1   3
HETATM    3  C   UNL     1       7.308  -2.010  57.714  1.00  0.00     0.122 C 
BRANCH   3   4
HETATM    4  C   UNL     1       5.969  -1.255  57.741  1.00  0.00     0.042 C 
BRANCH   4   5
HETATM    5  C   UNL     1       6.119   0.254  57.535  1.00  0.00     0.116 C 
BRANCH   5   6
HETATM    6  C   UNL     1       4.916   0.963  56.968  1.00  0.00     0.172 C 
HETATM    7  O   UNL     1       4.221   1.764  57.571  1.00  0.00    -0.648 OA
HETATM    8  O   UNL     1       4.689   0.727  55.661  1.00  0.00    -0.648 OA
ENDBRANCH   5   6
ENDBRANCH   4   5
ENDBRANCH   3   4
BRANCH   3   9
HETATM    9  C   UNL     1       7.213  -3.312  58.529  1.00  0.00     0.070 C 
BRANCH   9  10
HETATM   10  C   UNL     1       6.030  -4.167  58.132  1.00  0.00    -0.053 A 
HETATM   11  C   UNL     1       5.403  -4.996  59.074  1.00  0.00     0.046 A 
HETATM   12  C   UNL     1       4.330  -5.786  58.689  1.00  0.00     0.099 A 
HETATM   13  C   UNL     1       3.850  -5.745  57.384  1.00  0.00     0.098 A 
HETATM   14  C   UNL     1       4.468  -4.947  56.433  1.00  0.00     0.040 A 
HETATM   15  C   UNL     1       5.561  -4.159  56.806  1.00  0.00     0.010 A 
BRANCH  12  16
HETATM   16  O   UNL     1       3.770  -6.635  59.600  1.00  0.00    -0.358 OA
HETATM   17  H   UNL     1       4.144  -7.482  59.743  1.00  0.00     0.217 HD
ENDBRANCH  12  16
BRANCH  13  18
HETATM   18  O   UNL     1       2.746  -6.465  57.028  1.00  0.00    -0.358 OA
HETATM   19  H   UNL     1       2.415  -6.412  56.153  1.00  0.00     0.217 HD
ENDBRANCH  13  18
ENDBRANCH   9  10
ENDBRANCH   3   9
ENDBRANCH   1   3
TORSDOF 8
ENDMDL
MODEL 2
REMARK VINA RESULT:      -6.8      2.049      6.012
REMARK  8 active torsions:
REMARK  status: ('A' for Active; 'I' for Inactive)
REMARK    1  A    between atoms: O_1  and  C_2 
REMARK    2  A    between atoms: C_2  and  C_3 
REMARK    3  A    between atoms: C_2  and  C_8 
REMARK    4  A    between atoms: C_3  and  C_4 
REMARK    5  A    between atoms: C_4  and  C_5 
REMARK    6  A    between atoms: C_8  and  C_9 
REMARK    7  A    between atoms: C_11  and  O_16 
REMARK    8  A    between atoms: C_12  and  O_15 
ROOT
HETATM    1  O   UNL     1       3.846  -6.655  59.370  1.00  0.00    -0.395 OA
HETATM    2  H   UNL     1       3.501  -6.816  60.262  1.00  0.00     0.210 HD
ENDROOT
BRANCH   1   3
HETATM    3  C   UNL     1       3.648  -5.285  59.023  1.00  0.00     0.122 C 
BRANCH   3   4
HETATM    4  C   UNL     1       2.144  -4.992  58.904  1.00  0.00     0.042 C 
BRANCH   4   5
HETATM    5  C   UNL     1       1.578  -5.278  57.511  1.00  0.00     0.116 C 
BRANCH   5   6
HETATM    6  C   UNL     1       1.109  -6.690  57.269  1.00  0.00     0.172 C 
HETATM    7  O   UNL     1      -0.037  -7.086  57.411  1.00  0.00    -0.648 OA
HETATM    8  O   UNL     1       2.049  -7.517  56.773  1.00  0.00    -0.648 OA
ENDBRANCH   5   6
ENDBRANCH   4   5
ENDBRANCH   3   4
BRANCH   3   9
HETATM    9  C   UNL     1       4.368  -4.973  57.699  1.00  0.00     0.070 C 
BRANCH   9  10
HETATM   10  C   UNL     1       5.404  -3.879  57.841  1.00  0.00    -0.053 A 
HETATM   11  C   UNL     1       6.549  -4.081  58.626  1.00  0.00     0.046 A 
HETATM   12  C   UNL     1       7.479  -3.061  58.759  1.00  0.00     0.099 A 
HETATM   13  C   UNL     1       7.304  -1.849  58.099  1.00  0.00     0.098 A 
HETATM   14  C   UNL     1       6.170  -1.622  57.335  1.00  0.00     0.040 A 
HETATM   15  C   UNL     1       5.217  -2.637  57.207  1.00  0.00     0.010 A 
BRANCH  12  16
HETATM   16  O   UNL     1       8.557  -3.248  59.577  1.00  0.00    -0.358 OA
HETATM   17  H   UNL     1       9.373  -2.830  59.380  1.00  0.00     0.217 HD
ENDBRANCH  12  16
BRANCH  13  18
HETATM   18  O   UNL     1       8.259  -0.876  58.170  1.00  0.00    -0.358 OA
HETATM   19  H   UNL     1       8.147  -0.074  57.699  1.00  0.00     0.217 HD
ENDBRANCH  13  18
ENDBRANCH   9  10
ENDBRANCH   3   9
ENDBRANCH   1   3
TORSDOF 8
ENDMDL
MODEL 3
REMARK VINA RESULT:      -6.6      2.088      3.367
REMARK  8 active torsions:
REMARK  status: ('A' for Active; 'I' for Inactive)
REMARK    1  A    between atoms: O_1  and  C_2 
REMARK    2  A    between atoms: C_2  and  C_3 
REMARK    3  A    between atoms: C_2  and  C_8 
REMARK    4  A    between atoms: C_3  and  C_4 
REMARK    5  A    between atoms: C_4  and  C_5 
REMARK    6  A    between atoms: C_8  and  C_9 
REMARK    7  A    between atoms: C_11  and  O_16 
REMARK    8  A    between atoms: C_12  and  O_15 
ROOT
HETATM    1  O   UNL     1       5.702  -0.201  54.092  1.00  0.00    -0.395 OA
HETATM    2  H   UNL     1       6.598  -0.098  53.734  1.00  0.00     0.210 HD
ENDROOT
BRANCH   1   3
HETATM    3  C   UNL     1       5.777  -0.710  55.423  1.00  0.00     0.122 C 
BRANCH   3   4
HETATM    4  C   UNL     1       6.145   0.424  56.394  1.00  0.00     0.042 C 
BRANCH   4   5
HETATM    5  C   UNL     1       5.065   0.698  57.443  1.00  0.00     0.116 C 
BRANCH   5   6
HETATM    6  C   UNL     1       4.108   1.817  57.124  1.00  0.00     0.172 C 
HETATM    7  O   UNL     1       3.721   2.117  56.007  1.00  0.00    -0.648 OA
HETATM    8  O   UNL     1       3.600   2.446  58.202  1.00  0.00    -0.648 OA
ENDBRANCH   5   6
ENDBRANCH   4   5
ENDBRANCH   3   4
BRANCH   3   9
HETATM    9  C   UNL     1       6.819  -1.842  55.490  1.00  0.00     0.070 C 
BRANCH   9  10
HETATM   10  C   UNL     1       6.724  -2.648  56.766  1.00  0.00    -0.053 A 
HETATM   11  C   UNL     1       7.718  -2.540  57.751  1.00  0.00     0.046 A 
HETATM   12  C   UNL     1       7.625  -3.301  58.908  1.00  0.00     0.099 A 
HETATM   13  C   UNL     1       6.542  -4.149  59.115  1.00  0.00     0.098 A 
HETATM   14  C   UNL     1       5.560  -4.285  58.145  1.00  0.00     0.040 A 
HETATM   15  C   UNL     1       5.652  -3.536  56.968  1.00  0.00     0.010 A 
BRANCH  12  16
HETATM   16  O   UNL     1       8.630  -3.233  59.830  1.00  0.00    -0.358 OA
HETATM   17  H   UNL     1       9.509  -3.063  59.553  1.00  0.00     0.217 HD
ENDBRANCH  12  16
BRANCH  13  18
HETATM   18  O   UNL     1       6.414  -4.837  60.287  1.00  0.00    -0.358 OA
HETATM   19  H   UNL     1       6.239  -4.376  61.084  1.00  0.00     0.217 HD
ENDBRANCH  13  18
ENDBRANCH   9  10
ENDBRANCH   3   9
ENDBRANCH   1   3
TORSDOF 8
ENDMDL
MODEL 4
REMARK VINA RESULT:      -6.6      2.478      5.729
REMARK  8 active torsions:
REMARK  status: ('A' for Active; 'I' for Inactive)
REMARK    1  A    between atoms: O_1  and  C_2 
REMARK    2  A    between atoms: C_2  and  C_3 
REMARK    3  A    between atoms: C_2  and  C_8 
REMARK    4  A    between atoms: C_3  and  C_4 
REMARK    5  A    between atoms: C_4  and  C_5 
REMARK    6  A    between atoms: C_8  and  C_9 
REMARK    7  A    between atoms: C_11  and  O_16 
REMARK    8  A    between atoms: C_12  and  O_15 
ROOT
HETATM    1  O   UNL     1       3.821  -6.188  55.434  1.00  0.00    -0.395 OA
HETATM    2  H   UNL     1       4.577  -5.917  54.891  1.00  0.00     0.210 HD
ENDROOT
BRANCH   1   3
HETATM    3  C   UNL     1       3.666  -5.279  56.522  1.00  0.00     0.122 C 
BRANCH   3   4
HETATM    4  C   UNL     1       2.178  -4.939  56.708  1.00  0.00     0.042 C 
BRANCH   4   5
HETATM    5  C   UNL     1       1.547  -5.620  57.924  1.00  0.00     0.116 C 
BRANCH   5   6
HETATM    6  C   UNL     1       2.298  -5.474  59.222  1.00  0.00     0.172 C 
HETATM    7  O   UNL     1       3.029  -6.319  59.713  1.00  0.00    -0.648 OA
HETATM    8  O   UNL     1       2.191  -4.262  59.800  1.00  0.00    -0.648 OA
ENDBRANCH   5   6
ENDBRANCH   4   5
ENDBRANCH   3   4
BRANCH   3   9
HETATM    9  C   UNL     1       4.485  -4.003  56.257  1.00  0.00     0.070 C 
BRANCH   9  10
HETATM   10  C   UNL     1       5.573  -3.782  57.285  1.00  0.00    -0.053 A 
HETATM   11  C   UNL     1       6.555  -2.801  57.082  1.00  0.00     0.046 A 
HETATM   12  C   UNL     1       7.555  -2.623  58.027  1.00  0.00     0.099 A 
HETATM   13  C   UNL     1       7.579  -3.389  59.188  1.00  0.00     0.098 A 
HETATM   14  C   UNL     1       6.630  -4.377  59.398  1.00  0.00     0.040 A 
HETATM   15  C   UNL     1       5.627  -4.577  58.445  1.00  0.00     0.010 A 
BRANCH  12  16
HETATM   16  O   UNL     1       8.540  -1.708  57.787  1.00  0.00    -0.358 OA
HETATM   17  H   UNL     1       8.855  -1.577  56.914  1.00  0.00     0.217 HD
ENDBRANCH  12  16
BRANCH  13  18
HETATM   18  O   UNL     1       8.519  -3.159  60.151  1.00  0.00    -0.358 OA
HETATM   19  H   UNL     1       9.394  -2.929  59.906  1.00  0.00     0.217 HD
ENDBRANCH  13  18
ENDBRANCH   9  10
ENDBRANCH   3   9
ENDBRANCH   1   3
TORSDOF 8
ENDMDL
MODEL 5
REMARK VINA RESULT:      -6.5      3.096      6.211
REMARK  8 active torsions:
REMARK  status: ('A' for Active; 'I' for Inactive)
REMARK    1  A    between atoms: O_1  and  C_2 
REMARK    2  A    between atoms: C_2  and  C_3 
REMARK    3  A    between atoms: C_2  and  C_8 
REMARK    4  A    between atoms: C_3  and  C_4 
REMARK    5  A    between atoms: C_4  and  C_5 
REMARK    6  A    between atoms: C_8  and  C_9 
REMARK    7  A    between atoms: C_11  and  O_16 
REMARK    8  A    between atoms: C_12  and  O_15 
ROOT
HETATM    1  O   UNL     1       8.094  -2.435  58.284  1.00  0.00    -0.395 OA
HETATM    2  H   UNL     1       8.072  -1.477  58.439  1.00  0.00     0.210 HD
ENDROOT
BRANCH   1   3
HETATM    3  C   UNL     1       6.760  -2.937  58.214  1.00  0.00     0.122 C 
BRANCH   3   4
HETATM    4  C   UNL     1       6.598  -4.117  59.186  1.00  0.00     0.042 C 
BRANCH   4   5
HETATM    5  C   UNL     1       7.335  -3.916  60.512  1.00  0.00     0.116 C 
BRANCH   5   6
HETATM    6  C   UNL     1       8.567  -4.761  60.714  1.00  0.00     0.172 C 
HETATM    7  O   UNL     1       8.644  -5.728  61.454  1.00  0.00    -0.648 OA
HETATM    8  O   UNL     1       9.607  -4.434  59.924  1.00  0.00    -0.648 OA
ENDBRANCH   5   6
ENDBRANCH   4   5
ENDBRANCH   3   4
BRANCH   3   9
HETATM    9  C   UNL     1       6.441  -3.372  56.773  1.00  0.00     0.070 C 
BRANCH   9  10
HETATM   10  C   UNL     1       6.292  -2.201  55.827  1.00  0.00    -0.053 A 
HETATM   11  C   UNL     1       7.193  -2.025  54.766  1.00  0.00     0.046 A 
HETATM   12  C   UNL     1       7.052  -0.935  53.919  1.00  0.00     0.099 A 
HETATM   13  C   UNL     1       6.010  -0.031  54.092  1.00  0.00     0.098 A 
HETATM   14  C   UNL     1       5.121  -0.176  55.146  1.00  0.00     0.040 A 
HETATM   15  C   UNL     1       5.263  -1.261  56.017  1.00  0.00     0.010 A 
BRANCH  12  16
HETATM   16  O   UNL     1       7.973  -0.741  52.929  1.00  0.00    -0.358 OA
HETATM   17  H   UNL     1       8.790  -1.199  52.953  1.00  0.00     0.217 HD
ENDBRANCH  12  16
BRANCH  13  18
HETATM   18  O   UNL     1       5.829   0.996  53.211  1.00  0.00    -0.358 OA
HETATM   19  H   UNL     1       5.200   1.666  53.395  1.00  0.00     0.217 HD
ENDBRANCH  13  18
ENDBRANCH   9  10
ENDBRANCH   3   9
ENDBRANCH   1   3
TORSDOF 8
ENDMDL
MODEL 6
REMARK VINA RESULT:      -6.5      2.695      5.892
REMARK  8 active torsions:
REMARK  status: ('A' for Active; 'I' for Inactive)
REMARK    1  A    between atoms: O_1  and  C_2 
REMARK    2  A    between atoms: C_2  and  C_3 
REMARK    3  A    between atoms: C_2  and  C_8 
REMARK    4  A    between atoms: C_3  and  C_4 
REMARK    5  A    between atoms: C_4  and  C_5 
REMARK    6  A    between atoms: C_8  and  C_9 
REMARK    7  A    between atoms: C_11  and  O_16 
REMARK    8  A    between atoms: C_12  and  O_15 
ROOT
HETATM    1  O   UNL     1       2.326  -4.797  59.803  1.00  0.00    -0.395 OA
HETATM    2  H   UNL     1       2.522  -5.453  60.489  1.00  0.00     0.210 HD
ENDROOT
BRANCH   1   3
HETATM    3  C   UNL     1       3.020  -5.141  58.604  1.00  0.00     0.122 C 
BRANCH   3   4
HETATM    4  C   UNL     1       2.226  -6.207  57.832  1.00  0.00     0.042 C 
BRANCH   4   5
HETATM    5  C   UNL     1       3.116  -7.222  57.111  1.00  0.00     0.116 C 
BRANCH   5   6
HETATM    6  C   UNL     1       3.181  -7.091  55.611  1.00  0.00     0.172 C 
HETATM    7  O   UNL     1       3.580  -6.109  55.007  1.00  0.00    -0.648 OA
HETATM    8  O   UNL     1       2.847  -8.206  54.934  1.00  0.00    -0.648 OA
ENDBRANCH   5   6
ENDBRANCH   4   5
ENDBRANCH   3   4
BRANCH   3   9
HETATM    9  C   UNL     1       4.430  -5.655  58.946  1.00  0.00     0.070 C 
BRANCH   9  10
HETATM   10  C   UNL     1       5.521  -4.693  58.532  1.00  0.00    -0.053 A 
HETATM   11  C   UNL     1       6.528  -4.327  59.437  1.00  0.00     0.046 A 
HETATM   12  C   UNL     1       7.511  -3.430  59.046  1.00  0.00     0.099 A 
HETATM   13  C   UNL     1       7.526  -2.910  57.756  1.00  0.00     0.098 A 
HETATM   14  C   UNL     1       6.528  -3.244  56.852  1.00  0.00     0.040 A 
HETATM   15  C   UNL     1       5.523  -4.134  57.241  1.00  0.00     0.010 A 
BRANCH  12  16
HETATM   16  O   UNL     1       8.449  -3.034  59.956  1.00  0.00    -0.358 OA
HETATM   17  H   UNL     1       8.182  -2.625  60.756  1.00  0.00     0.217 HD
ENDBRANCH  12  16
BRANCH  13  18
HETATM   18  O   UNL     1       8.537  -2.088  57.350  1.00  0.00    -0.358 OA
HETATM   19  H   UNL     1       8.340  -1.252  56.976  1.00  0.00     0.217 HD
ENDBRANCH  13  18
ENDBRANCH   9  10
ENDBRANCH   3   9
ENDBRANCH   1   3
TORSDOF 8
ENDMDL
MODEL 7
REMARK VINA RESULT:      -6.4      2.459      5.647
REMARK  8 active torsions:
REMARK  status: ('A' for Active; 'I' for Inactive)
REMARK    1  A    between atoms: O_1  and  C_2 
REMARK    2  A    between atoms: C_2  and  C_3 
REMARK    3  A    between atoms: C_2  and  C_8 
REMARK    4  A    between atoms: C_3  and  C_4 
REMARK    5  A    between atoms: C_4  and  C_5 
REMARK    6  A    between atoms: C_8  and  C_9 
REMARK    7  A    between atoms: C_11  and  O_16 
REMARK    8  A    between atoms: C_12  and  O_15 
ROOT
HETATM    1  O   UNL     1       8.396  -1.241  58.280  1.00  0.00    -0.395 OA
HETATM    2  H   UNL     1       9.286  -1.622  58.344  1.00  0.00     0.210 HD
ENDROOT
BRANCH   1   3
HETATM    3  C   UNL     1       7.459  -2.269  57.963  1.00  0.00     0.122 C 
BRANCH   3   4
HETATM    4  C   UNL     1       7.522  -3.375  59.029  1.00  0.00     0.042 C 
BRANCH   4   5
HETATM    5  C   UNL     1       6.147  -3.776  59.570  1.00  0.00     0.116 C 
BRANCH   5   6
HETATM    6  C   UNL     1       5.451  -4.891  58.833  1.00  0.00     0.172 C 
HETATM    7  O   UNL     1       5.297  -4.949  57.624  1.00  0.00    -0.648 OA
HETATM    8  O   UNL     1       5.068  -5.924  59.609  1.00  0.00    -0.648 OA
ENDBRANCH   5   6
ENDBRANCH   4   5
ENDBRANCH   3   4
BRANCH   3   9
HETATM    9  C   UNL     1       7.763  -2.841  56.568  1.00  0.00     0.070 C 
BRANCH   9  10
HETATM   10  C   UNL     1       7.188  -1.999  55.451  1.00  0.00    -0.053 A 
HETATM   11  C   UNL     1       6.105  -1.140  55.694  1.00  0.00     0.046 A 
HETATM   12  C   UNL     1       5.578  -0.388  54.654  1.00  0.00     0.099 A 
HETATM   13  C   UNL     1       6.130  -0.453  53.379  1.00  0.00     0.098 A 
HETATM   14  C   UNL     1       7.188  -1.310  53.115  1.00  0.00     0.040 A 
HETATM   15  C   UNL     1       7.716  -2.086  54.151  1.00  0.00     0.010 A 
BRANCH  12  16
HETATM   16  O   UNL     1       4.484   0.396  54.890  1.00  0.00    -0.358 OA
HETATM   17  H   UNL     1       3.627   0.018  54.883  1.00  0.00     0.217 HD
ENDBRANCH  12  16
BRANCH  13  18
HETATM   18  O   UNL     1       5.659   0.346  52.378  1.00  0.00    -0.358 OA
HETATM   19  H   UNL     1       6.014   0.272  51.514  1.00  0.00     0.217 HD
ENDBRANCH  13  18
ENDBRANCH   9  10
ENDBRANCH   3   9
ENDBRANCH   1   3
TORSDOF 8
ENDMDL
MODEL 8
REMARK VINA RESULT:      -6.4      1.622      2.237
REMARK  8 active torsions:
REMARK  status: ('A' for Active; 'I' for Inactive)
REMARK    1  A    between atoms: O_1  and  C_2 
REMARK    2  A    between atoms: C_2  and  C_3 
REMARK    3  A    between atoms: C_2  and  C_8 
REMARK    4  A    between atoms: C_3  and  C_4 
REMARK    5  A    between atoms: C_4  and  C_5 
REMARK    6  A    between atoms: C_8  and  C_9 
REMARK    7  A    between atoms: C_11  and  O_16 
REMARK    8  A    between atoms: C_12  and  O_15 
ROOT
HETATM    1  O   UNL     1       4.819  -1.299  54.455  1.00  0.00    -0.395 OA
HETATM    2  H   UNL     1       4.888  -0.336  54.356  1.00  0.00     0.210 HD
ENDROOT
BRANCH   1   3
HETATM    3  C   UNL     1       5.265  -1.678  55.756  1.00  0.00     0.122 C 
BRANCH   3   4
HETATM    4  C   UNL     1       6.229  -0.613  56.305  1.00  0.00     0.042 C 
BRANCH   4   5
HETATM    5  C   UNL     1       5.651   0.183  57.477  1.00  0.00     0.116 C 
BRANCH   5   6
HETATM    6  C   UNL     1       4.623   1.226  57.120  1.00  0.00     0.172 C 
HETATM    7  O   UNL     1       4.087   1.986  57.910  1.00  0.00    -0.648 OA
HETATM    8  O   UNL     1       4.382   1.348  55.800  1.00  0.00    -0.648 OA
ENDBRANCH   5   6
ENDBRANCH   4   5
ENDBRANCH   3   4
BRANCH   3   9
HETATM    9  C   UNL     1       5.953  -3.053  55.693  1.00  0.00     0.070 C 
BRANCH   9  10
HETATM   10  C   UNL     1       5.464  -4.002  56.764  1.00  0.00    -0.053 A 
HETATM   11  C   UNL     1       6.057  -4.004  58.036  1.00  0.00     0.046 A 
HETATM   12  C   UNL     1       5.608  -4.894  59.002  1.00  0.00     0.099 A 
HETATM   13  C   UNL     1       4.557  -5.764  58.732  1.00  0.00     0.098 A 
HETATM   14  C   UNL     1       3.972  -5.790  57.476  1.00  0.00     0.040 A 
HETATM   15  C   UNL     1       4.427  -4.911  56.490  1.00  0.00     0.010 A 
BRANCH  12  16
HETATM   16  O   UNL     1       6.235  -4.929  60.214  1.00  0.00    -0.358 OA
HETATM   17  H   UNL     1       7.165  -5.040  60.258  1.00  0.00     0.217 HD
ENDBRANCH  12  16
BRANCH  13  18
HETATM   18  O   UNL     1       4.067  -6.583  59.708  1.00  0.00    -0.358 OA
HETATM   19  H   UNL     1       4.595  -6.791  60.453  1.00  0.00     0.217 HD
ENDBRANCH  13  18
ENDBRANCH   9  10
ENDBRANCH   3   9
ENDBRANCH   1   3
TORSDOF 8
ENDMDL
MODEL 9
REMARK VINA RESULT:      -6.4      2.512      6.448
REMARK  8 active torsions:
REMARK  status: ('A' for Active; 'I' for Inactive)
REMARK    1  A    between atoms: O_1  and  C_2 
REMARK    2  A    between atoms: C_2  and  C_3 
REMARK    3  A    between atoms: C_2  and  C_8 
REMARK    4  A    between atoms: C_3  and  C_4 
REMARK    5  A    between atoms: C_4  and  C_5 
REMARK    6  A    between atoms: C_8  and  C_9 
REMARK    7  A    between atoms: C_11  and  O_16 
REMARK    8  A    between atoms: C_12  and  O_15 
ROOT
HETATM    1  O   UNL     1       3.300  -7.676  57.937  1.00  0.00    -0.395 OA
HETATM    2  H   UNL     1       2.560  -8.111  58.389  1.00  0.00     0.210 HD
ENDROOT
BRANCH   1   3
HETATM    3  C   UNL     1       3.348  -6.302  58.316  1.00  0.00     0.122 C 
BRANCH   3   4
HETATM    4  C   UNL     1       1.924  -5.786  58.580  1.00  0.00     0.042 C 
BRANCH   4   5
HETATM    5  C   UNL     1       1.062  -5.711  57.317  1.00  0.00     0.116 C 
BRANCH   5   6
HETATM    6  C   UNL     1       0.392  -6.995  56.902  1.00  0.00     0.172 C 
HETATM    7  O   UNL     1       0.867  -7.825  56.144  1.00  0.00    -0.648 OA
HETATM    8  O   UNL     1      -0.782  -7.239  57.515  1.00  0.00    -0.648 OA
ENDBRANCH   5   6
ENDBRANCH   4   5
ENDBRANCH   3   4
BRANCH   3   9
HETATM    9  C   UNL     1       4.028  -5.478  57.209  1.00  0.00     0.070 C 
BRANCH   9  10
HETATM   10  C   UNL     1       5.212  -4.683  57.714  1.00  0.00    -0.053 A 
HETATM   11  C   UNL     1       5.899  -3.809  56.858  1.00  0.00     0.046 A 
HETATM   12  C   UNL     1       6.994  -3.101  57.333  1.00  0.00     0.099 A 
HETATM   13  C   UNL     1       7.401  -3.227  58.657  1.00  0.00     0.098 A 
HETATM   14  C   UNL     1       6.747  -4.100  59.513  1.00  0.00     0.040 A 
HETATM   15  C   UNL     1       5.653  -4.831  59.041  1.00  0.00     0.010 A 
BRANCH  12  16
HETATM   16  O   UNL     1       7.692  -2.302  56.473  1.00  0.00    -0.358 OA
HETATM   17  H   UNL     1       7.260  -1.920  55.735  1.00  0.00     0.217 HD
ENDBRANCH  12  16
BRANCH  13  18
HETATM   18  O   UNL     1       8.429  -2.471  59.141  1.00  0.00    -0.358 OA
HETATM   19  H   UNL     1       8.558  -2.393  60.066  1.00  0.00     0.217 HD
ENDBRANCH  13  18
ENDBRANCH   9  10
ENDBRANCH   3   9
ENDBRANCH   1   3
TORSDOF 8
ENDMDL
