MODEL 1
REMARK VINA RESULT:      -7.7      0.000      0.000
REMARK  7 active torsions:
REMARK  status: ('A' for Active; 'I' for Inactive)
REMARK    1  A    between atoms: O_5  and  C_13 
REMARK    2  A    between atoms: O_5  and  C_14 
REMARK    3  A    between atoms: O_6  and  C_15 
REMARK    4  A    between atoms: O_6  and  C_22 
REMARK       I    between atoms: N_8  and  C_20 
REMARK    5  A    between atoms: N_8  and  C_21 
REMARK    6  A    between atoms: C_10  and  C_13 
REMARK    7  A    between atoms: C_17  and  C_20 
ROOT
ATOM      1 CL   UNL A   1      -2.454 -11.034  54.436  1.00  0.00    -0.080 Cl
ATOM      2 CL   UNL A   1       1.437 -12.980  51.121  1.00  0.00    -0.080 Cl
ATOM      3  N   UNL A   1      -2.534 -13.122  51.055  1.00  0.00    -0.270 NA
ATOM      4  C   UNL A   1      -0.582 -12.047  52.716  1.00  0.00     0.081 A 
ATOM      5  C   UNL A   1      -1.916 -11.883  53.038  1.00  0.00     0.080 A 
ATOM      6  C   UNL A   1      -0.205 -12.739  51.580  1.00  0.00     0.080 A 
ATOM      7  C   UNL A   1      -2.851 -12.438  52.178  1.00  0.00     0.142 A 
ATOM      8  C   UNL A   1      -1.216 -13.255  50.785  1.00  0.00     0.142 A 
ENDROOT
BRANCH   4   9
ATOM      9  N   UNL A   1       0.413 -11.499  53.562  1.00  0.00    -0.320 N 
ATOM     10  C   UNL A   1       1.094 -10.280  53.433  1.00  0.00     0.256 C 
ATOM     11  O   UNL A   1       0.919  -9.459  52.517  1.00  0.00    -0.267 OA
ATOM     12  H   UNL A   1       0.659 -12.046  54.343  1.00  0.00     0.169 HD
BRANCH  10  13
ATOM     13  C   UNL A   1       2.091  -9.999  54.454  1.00  0.00     0.035 A 
ATOM     14  C   UNL A   1       3.005  -8.961  54.269  1.00  0.00     0.056 A 
ATOM     15  C   UNL A   1       3.961  -8.693  55.249  1.00  0.00     0.103 A 
ATOM     16  C   UNL A   1       4.005  -9.462  56.411  1.00  0.00     0.108 A 
ATOM     17  C   UNL A   1       3.091 -10.500  56.596  1.00  0.00     0.041 A 
ATOM     18  C   UNL A   1       2.134 -10.768  55.617  1.00  0.00     0.020 A 
BRANCH  15  19
ATOM     19  O   UNL A   1       4.849  -7.678  55.058  1.00  0.00    -0.348 OA
BRANCH  19  20
ATOM     20  C   UNL A   1       4.418  -6.584  54.250  1.00  0.00     0.180 C 
BRANCH  20  21
ATOM     21  C   UNL A   1       4.210  -5.383  55.108  1.00  0.00     0.010 A 
ATOM     22  C   UNL A   1       2.896  -4.667  55.049  1.00  0.00     0.007 A 
ATOM     23  C   UNL A   1       3.262  -5.470  56.263  1.00  0.00     0.007 A 
ENDBRANCH  20  21
ENDBRANCH  19  20
ENDBRANCH  15  19
BRANCH  16  24
ATOM     24  O   UNL A   1       4.933  -9.208  57.375  1.00  0.00    -0.287 OA
BRANCH  24  25
ATOM     25  C   UNL A   1       5.333 -10.296  58.199  1.00  0.00     0.505 C 
ATOM     26  F   UNL A   1       6.663 -10.492  58.002  1.00  0.00    -0.184 F 
ATOM     27  F   UNL A   1       5.184  -9.947  59.500  1.00  0.00    -0.184 F 
ENDBRANCH  24  25
ENDBRANCH  16  24
ENDBRANCH  10  13
ENDBRANCH   4   9
TORSDOF 7
ENDMDL
MODEL 2
REMARK VINA RESULT:      -7.6      0.293      1.790
REMARK  7 active torsions:
REMARK  status: ('A' for Active; 'I' for Inactive)
REMARK    1  A    between atoms: O_5  and  C_13 
REMARK    2  A    between atoms: O_5  and  C_14 
REMARK    3  A    between atoms: O_6  and  C_15 
REMARK    4  A    between atoms: O_6  and  C_22 
REMARK       I    between atoms: N_8  and  C_20 
REMARK    5  A    between atoms: N_8  and  C_21 
REMARK    6  A    between atoms: C_10  and  C_13 
REMARK    7  A    between atoms: C_17  and  C_20 
ROOT
ATOM      1 CL   UNL A   1       1.503 -12.394  50.749  1.00  0.00    -0.080 Cl
ATOM      2 CL   UNL A   1      -2.361 -11.150  54.414  1.00  0.00    -0.080 Cl
ATOM      3  N   UNL A   1      -2.449 -12.808  50.803  1.00  0.00    -0.270 NA
ATOM      4  C   UNL A   1      -0.502 -11.810  52.517  1.00  0.00     0.081 A 
ATOM      5  C   UNL A   1      -0.130 -12.328  51.291  1.00  0.00     0.080 A 
ATOM      6  C   UNL A   1      -1.830 -11.780  52.902  1.00  0.00     0.080 A 
ATOM      7  C   UNL A   1      -1.138 -12.812  50.473  1.00  0.00     0.142 A 
ATOM      8  C   UNL A   1      -2.761 -12.290  52.012  1.00  0.00     0.142 A 
ENDROOT
BRANCH   4   9
ATOM      9  N   UNL A   1       0.490 -11.302  53.391  1.00  0.00    -0.320 N 
ATOM     10  C   UNL A   1       1.022 -10.006  53.450  1.00  0.00     0.256 C 
ATOM     11  O   UNL A   1       0.688  -9.064  52.712  1.00  0.00    -0.267 OA
ATOM     12  H   UNL A   1       0.854 -11.944  54.043  1.00  0.00     0.169 HD
BRANCH  10  13
ATOM     13  C   UNL A   1       2.059  -9.790  54.447  1.00  0.00     0.035 A 
ATOM     14  C   UNL A   1       2.954  -8.729  54.304  1.00  0.00     0.056 A 
ATOM     15  C   UNL A   1       3.948  -8.523  55.260  1.00  0.00     0.103 A 
ATOM     16  C   UNL A   1       4.048  -9.377  56.358  1.00  0.00     0.108 A 
ATOM     17  C   UNL A   1       3.153 -10.437  56.502  1.00  0.00     0.041 A 
ATOM     18  C   UNL A   1       2.158 -10.643  55.546  1.00  0.00     0.020 A 
BRANCH  15  19
ATOM     19  O   UNL A   1       4.817  -7.485  55.110  1.00  0.00    -0.348 OA
BRANCH  19  20
ATOM     20  C   UNL A   1       4.440  -6.450  54.205  1.00  0.00     0.180 C 
BRANCH  20  21
ATOM     21  C   UNL A   1       4.143  -5.205  54.967  1.00  0.00     0.010 A 
ATOM     22  C   UNL A   1       2.750  -4.656  54.949  1.00  0.00     0.007 A 
ATOM     23  C   UNL A   1       3.292  -5.290  56.196  1.00  0.00     0.007 A 
ENDBRANCH  20  21
ENDBRANCH  19  20
ENDBRANCH  15  19
BRANCH  16  24
ATOM     24  O   UNL A   1       5.014  -9.185  57.299  1.00  0.00    -0.287 OA
BRANCH  24  25
ATOM     25  C   UNL A   1       5.365 -10.298  58.112  1.00  0.00     0.505 C 
ATOM     26  F   UNL A   1       6.693 -10.530  57.938  1.00  0.00    -0.184 F 
ATOM     27  F   UNL A   1       5.199  -9.967  59.415  1.00  0.00    -0.184 F 
ENDBRANCH  24  25
ENDBRANCH  16  24
ENDBRANCH  10  13
ENDBRANCH   4   9
TORSDOF 7
ENDMDL
MODEL 3
REMARK VINA RESULT:      -7.6      3.558      5.037
REMARK  7 active torsions:
REMARK  status: ('A' for Active; 'I' for Inactive)
REMARK    1  A    between atoms: O_5  and  C_13 
REMARK    2  A    between atoms: O_5  and  C_14 
REMARK    3  A    between atoms: O_6  and  C_15 
REMARK    4  A    between atoms: O_6  and  C_22 
REMARK       I    between atoms: N_8  and  C_20 
REMARK    5  A    between atoms: N_8  and  C_21 
REMARK    6  A    between atoms: C_10  and  C_13 
REMARK    7  A    between atoms: C_17  and  C_20 
ROOT
ATOM      1 CL   UNL A   1       0.671  -6.184  51.299  1.00  0.00    -0.080 Cl
ATOM      2 CL   UNL A   1       4.364  -9.849  49.613  1.00  0.00    -0.080 Cl
ATOM      3  N   UNL A   1       2.028  -7.250  47.719  1.00  0.00    -0.270 NA
ATOM      4  C   UNL A   1       2.500  -7.989  50.357  1.00  0.00     0.081 A 
ATOM      5  C   UNL A   1       1.572  -7.002  50.080  1.00  0.00     0.080 A 
ATOM      6  C   UNL A   1       3.196  -8.614  49.339  1.00  0.00     0.080 A 
ATOM      7  C   UNL A   1       1.373  -6.670  48.750  1.00  0.00     0.142 A 
ATOM      8  C   UNL A   1       2.925  -8.210  48.041  1.00  0.00     0.142 A 
ENDROOT
BRANCH   4   9
ATOM      9  N   UNL A   1       2.741  -8.364  51.701  1.00  0.00    -0.320 N 
ATOM     10  C   UNL A   1       3.670  -7.829  52.604  1.00  0.00     0.256 C 
ATOM     11  O   UNL A   1       4.459  -6.903  52.351  1.00  0.00    -0.267 OA
ATOM     12  H   UNL A   1       2.182  -9.098  52.046  1.00  0.00     0.169 HD
BRANCH  10  13
ATOM     13  C   UNL A   1       3.704  -8.447  53.921  1.00  0.00     0.035 A 
ATOM     14  C   UNL A   1       2.780  -9.439  54.249  1.00  0.00     0.056 A 
ATOM     15  C   UNL A   1       2.813 -10.030  55.513  1.00  0.00     0.103 A 
ATOM     16  C   UNL A   1       3.768  -9.628  56.446  1.00  0.00     0.108 A 
ATOM     17  C   UNL A   1       4.692  -8.636  56.117  1.00  0.00     0.041 A 
ATOM     18  C   UNL A   1       4.659  -8.046  54.854  1.00  0.00     0.020 A 
BRANCH  15  19
ATOM     19  O   UNL A   1       1.906 -10.997  55.824  1.00  0.00    -0.348 OA
BRANCH  19  20
ATOM     20  C   UNL A   1       1.207 -11.603  54.738  1.00  0.00     0.180 C 
BRANCH  20  21
ATOM     21  C   UNL A   1      -0.252 -11.628  55.037  1.00  0.00     0.010 A 
ATOM     22  C   UNL A   1      -0.853 -10.503  55.822  1.00  0.00     0.007 A 
ATOM     23  C   UNL A   1      -1.150 -10.641  54.358  1.00  0.00     0.007 A 
ENDBRANCH  20  21
ENDBRANCH  19  20
ENDBRANCH  15  19
BRANCH  16  24
ATOM     24  O   UNL A   1       3.811 -10.199  57.683  1.00  0.00    -0.287 OA
BRANCH  24  25
ATOM     25  C   UNL A   1       5.071 -10.238  58.341  1.00  0.00     0.505 C 
ATOM     26  F   UNL A   1       4.868  -9.875  59.635  1.00  0.00    -0.184 F 
ATOM     27  F   UNL A   1       5.521 -11.516  58.365  1.00  0.00    -0.184 F 
ENDBRANCH  24  25
ENDBRANCH  16  24
ENDBRANCH  10  13
ENDBRANCH   4   9
TORSDOF 7
ENDMDL
MODEL 4
REMARK VINA RESULT:      -7.5      4.666      5.752
REMARK  7 active torsions:
REMARK  status: ('A' for Active; 'I' for Inactive)
REMARK    1  A    between atoms: O_5  and  C_13 
REMARK    2  A    between atoms: O_5  and  C_14 
REMARK    3  A    between atoms: O_6  and  C_15 
REMARK    4  A    between atoms: O_6  and  C_22 
REMARK       I    between atoms: N_8  and  C_20 
REMARK    5  A    between atoms: N_8  and  C_21 
REMARK    6  A    between atoms: C_10  and  C_13 
REMARK    7  A    between atoms: C_17  and  C_20 
ROOT
ATOM      1 CL   UNL A   1       4.323  -4.665  50.210  1.00  0.00    -0.080 Cl
ATOM      2 CL   UNL A   1      -0.557  -6.720  48.840  1.00  0.00    -0.080 Cl
ATOM      3  N   UNL A   1       1.834  -4.012  47.182  1.00  0.00    -0.270 NA
ATOM      4  C   UNL A   1       1.882  -5.631  49.440  1.00  0.00     0.081 A 
ATOM      5  C   UNL A   1       2.943  -4.782  49.187  1.00  0.00     0.080 A 
ATOM      6  C   UNL A   1       0.796  -5.685  48.585  1.00  0.00     0.080 A 
ATOM      7  C   UNL A   1       2.871  -3.995  48.049  1.00  0.00     0.142 A 
ATOM      8  C   UNL A   1       0.821  -4.859  47.473  1.00  0.00     0.142 A 
ENDROOT
BRANCH   4   9
ATOM      9  N   UNL A   1       1.906  -6.457  50.591  1.00  0.00    -0.320 N 
ATOM     10  C   UNL A   1       2.515  -7.710  50.754  1.00  0.00     0.256 C 
ATOM     11  O   UNL A   1       3.153  -8.312  49.875  1.00  0.00    -0.267 OA
ATOM     12  H   UNL A   1       1.433  -6.105  51.379  1.00  0.00     0.169 HD
BRANCH  10  13
ATOM     13  C   UNL A   1       2.344  -8.334  52.057  1.00  0.00     0.035 A 
ATOM     14  C   UNL A   1       2.530  -7.585  53.218  1.00  0.00     0.056 A 
ATOM     15  C   UNL A   1       2.367  -8.185  54.467  1.00  0.00     0.103 A 
ATOM     16  C   UNL A   1       2.018  -9.532  54.554  1.00  0.00     0.108 A 
ATOM     17  C   UNL A   1       1.831 -10.281  53.392  1.00  0.00     0.041 A 
ATOM     18  C   UNL A   1       1.995  -9.681  52.143  1.00  0.00     0.020 A 
BRANCH  15  19
ATOM     19  O   UNL A   1       2.552  -7.444  55.595  1.00  0.00    -0.348 OA
BRANCH  19  20
ATOM     20  C   UNL A   1       3.889  -7.059  55.906  1.00  0.00     0.180 C 
BRANCH  20  21
ATOM     21  C   UNL A   1       3.936  -5.594  56.174  1.00  0.00     0.010 A 
ATOM     22  C   UNL A   1       3.937  -4.643  55.017  1.00  0.00     0.007 A 
ATOM     23  C   UNL A   1       2.723  -4.764  55.890  1.00  0.00     0.007 A 
ENDBRANCH  20  21
ENDBRANCH  19  20
ENDBRANCH  15  19
BRANCH  16  24
ATOM     24  O   UNL A   1       1.854 -10.129  55.768  1.00  0.00    -0.287 OA
BRANCH  24  25
ATOM     25  C   UNL A   1       3.016 -10.647  56.403  1.00  0.00     0.505 C 
ATOM     26  F   UNL A   1       3.178  -9.975  57.573  1.00  0.00    -0.184 F 
ATOM     27  F   UNL A   1       2.803 -11.945  56.730  1.00  0.00    -0.184 F 
ENDBRANCH  24  25
ENDBRANCH  16  24
ENDBRANCH  10  13
ENDBRANCH   4   9
TORSDOF 7
ENDMDL
MODEL 5
REMARK VINA RESULT:      -7.5      3.200      4.026
REMARK  7 active torsions:
REMARK  status: ('A' for Active; 'I' for Inactive)
REMARK    1  A    between atoms: O_5  and  C_13 
REMARK    2  A    between atoms: O_5  and  C_14 
REMARK    3  A    between atoms: O_6  and  C_15 
REMARK    4  A    between atoms: O_6  and  C_22 
REMARK       I    between atoms: N_8  and  C_20 
REMARK    5  A    between atoms: N_8  and  C_21 
REMARK    6  A    between atoms: C_10  and  C_13 
REMARK    7  A    between atoms: C_17  and  C_20 
ROOT
ATOM      1 CL   UNL A   1       4.094 -10.246  49.526  1.00  0.00    -0.080 Cl
ATOM      2 CL   UNL A   1       0.498  -6.435  51.093  1.00  0.00    -0.080 Cl
ATOM      3  N   UNL A   1       1.616  -7.848  47.551  1.00  0.00    -0.270 NA
ATOM      4  C   UNL A   1       2.271  -8.323  50.210  1.00  0.00     0.081 A 
ATOM      5  C   UNL A   1       2.901  -9.044  49.213  1.00  0.00     0.080 A 
ATOM      6  C   UNL A   1       1.320  -7.368  49.902  1.00  0.00     0.080 A 
ATOM      7  C   UNL A   1       2.540  -8.770  47.904  1.00  0.00     0.142 A 
ATOM      8  C   UNL A   1       1.029  -7.169  48.562  1.00  0.00     0.142 A 
ENDROOT
BRANCH   4   9
ATOM      9  N   UNL A   1       2.605  -8.565  51.565  1.00  0.00    -0.320 N 
ATOM     10  C   UNL A   1       2.029  -9.482  52.456  1.00  0.00     0.256 C 
ATOM     11  O   UNL A   1       1.098 -10.256  52.179  1.00  0.00    -0.267 OA
ATOM     12  H   UNL A   1       3.337  -8.017  51.929  1.00  0.00     0.169 HD
BRANCH  10  13
ATOM     13  C   UNL A   1       2.571  -9.482  53.805  1.00  0.00     0.035 A 
ATOM     14  C   UNL A   1       3.503  -8.515  54.183  1.00  0.00     0.056 A 
ATOM     15  C   UNL A   1       4.023  -8.517  55.477  1.00  0.00     0.103 A 
ATOM     16  C   UNL A   1       3.613  -9.485  56.393  1.00  0.00     0.108 A 
ATOM     17  C   UNL A   1       2.681 -10.453  56.015  1.00  0.00     0.041 A 
ATOM     18  C   UNL A   1       2.161 -10.451  54.721  1.00  0.00     0.020 A 
BRANCH  15  19
ATOM     19  O   UNL A   1       4.932  -7.568  55.835  1.00  0.00    -0.348 OA
BRANCH  19  20
ATOM     20  C   UNL A   1       4.426  -6.384  56.448  1.00  0.00     0.180 C 
BRANCH  20  21
ATOM     21  C   UNL A   1       3.216  -5.920  55.713  1.00  0.00     0.010 A 
ATOM     22  C   UNL A   1       2.606  -4.602  56.074  1.00  0.00     0.007 A 
ATOM     23  C   UNL A   1       3.336  -4.761  54.774  1.00  0.00     0.007 A 
ENDBRANCH  20  21
ENDBRANCH  19  20
ENDBRANCH  15  19
BRANCH  16  24
ATOM     24  O   UNL A   1       4.113  -9.497  57.660  1.00  0.00    -0.287 OA
BRANCH  24  25
ATOM     25  C   UNL A   1       5.106 -10.469  57.962  1.00  0.00     0.505 C 
ATOM     26  F   UNL A   1       6.296  -9.991  57.513  1.00  0.00    -0.184 F 
ATOM     27  F   UNL A   1       5.219 -10.586  59.307  1.00  0.00    -0.184 F 
ENDBRANCH  24  25
ENDBRANCH  16  24
ENDBRANCH  10  13
ENDBRANCH   4   9
TORSDOF 7
ENDMDL
MODEL 6
REMARK VINA RESULT:      -7.5      3.498      5.449
REMARK  7 active torsions:
REMARK  status: ('A' for Active; 'I' for Inactive)
REMARK    1  A    between atoms: O_5  and  C_13 
REMARK    2  A    between atoms: O_5  and  C_14 
REMARK    3  A    between atoms: O_6  and  C_15 
REMARK    4  A    between atoms: O_6  and  C_22 
REMARK       I    between atoms: N_8  and  C_20 
REMARK    5  A    between atoms: N_8  and  C_21 
REMARK    6  A    between atoms: C_10  and  C_13 
REMARK    7  A    between atoms: C_17  and  C_20 
ROOT
ATOM      1 CL   UNL A   1       4.370  -9.843  49.552  1.00  0.00    -0.080 Cl
ATOM      2 CL   UNL A   1       0.645  -6.221  51.258  1.00  0.00    -0.080 Cl
ATOM      3  N   UNL A   1       1.991  -7.276  47.670  1.00  0.00    -0.270 NA
ATOM      4  C   UNL A   1       2.489  -8.004  50.305  1.00  0.00     0.081 A 
ATOM      5  C   UNL A   1       3.186  -8.622  49.284  1.00  0.00     0.080 A 
ATOM      6  C   UNL A   1       1.548  -7.029  50.034  1.00  0.00     0.080 A 
ATOM      7  C   UNL A   1       2.901  -8.224  47.988  1.00  0.00     0.142 A 
ATOM      8  C   UNL A   1       1.336  -6.702  48.704  1.00  0.00     0.142 A 
ENDROOT
BRANCH   4   9
ATOM      9  N   UNL A   1       2.742  -8.376  51.649  1.00  0.00    -0.320 N 
ATOM     10  C   UNL A   1       3.629  -7.793  52.564  1.00  0.00     0.256 C 
ATOM     11  O   UNL A   1       4.361  -6.817  52.325  1.00  0.00    -0.267 OA
ATOM     12  H   UNL A   1       2.227  -9.146  51.983  1.00  0.00     0.169 HD
BRANCH  10  13
ATOM     13  C   UNL A   1       3.691  -8.418  53.876  1.00  0.00     0.035 A 
ATOM     14  C   UNL A   1       2.773  -9.411  54.218  1.00  0.00     0.056 A 
ATOM     15  C   UNL A   1       2.832 -10.010  55.477  1.00  0.00     0.103 A 
ATOM     16  C   UNL A   1       3.808  -9.615  56.392  1.00  0.00     0.108 A 
ATOM     17  C   UNL A   1       4.725  -8.622  56.050  1.00  0.00     0.041 A 
ATOM     18  C   UNL A   1       4.666  -8.024  54.791  1.00  0.00     0.020 A 
BRANCH  15  19
ATOM     19  O   UNL A   1       1.931 -10.978  55.801  1.00  0.00    -0.348 OA
BRANCH  19  20
ATOM     20  C   UNL A   1       0.680 -10.954  55.118  1.00  0.00     0.180 C 
BRANCH  20  21
ATOM     21  C   UNL A   1       0.499 -12.227  54.363  1.00  0.00     0.010 A 
ATOM     22  C   UNL A   1      -0.578 -12.311  53.327  1.00  0.00     0.007 A 
ATOM     23  C   UNL A   1       0.863 -12.269  52.912  1.00  0.00     0.007 A 
ENDBRANCH  20  21
ENDBRANCH  19  20
ENDBRANCH  15  19
BRANCH  16  24
ATOM     24  O   UNL A   1       3.876 -10.193  57.624  1.00  0.00    -0.287 OA
BRANCH  24  25
ATOM     25  C   UNL A   1       5.102 -10.072  58.335  1.00  0.00     0.505 C 
ATOM     26  F   UNL A   1       4.800  -9.970  59.656  1.00  0.00    -0.184 F 
ATOM     27  F   UNL A   1       5.815 -11.215  58.190  1.00  0.00    -0.184 F 
ENDBRANCH  24  25
ENDBRANCH  16  24
ENDBRANCH  10  13
ENDBRANCH   4   9
TORSDOF 7
ENDMDL
MODEL 7
REMARK VINA RESULT:      -7.5      1.976      2.185
REMARK  7 active torsions:
REMARK  status: ('A' for Active; 'I' for Inactive)
REMARK    1  A    between atoms: O_5  and  C_13 
REMARK    2  A    between atoms: O_5  and  C_14 
REMARK    3  A    between atoms: O_6  and  C_15 
REMARK    4  A    between atoms: O_6  and  C_22 
REMARK       I    between atoms: N_8  and  C_20 
REMARK    5  A    between atoms: N_8  and  C_21 
REMARK    6  A    between atoms: C_10  and  C_13 
REMARK    7  A    between atoms: C_17  and  C_20 
ROOT
ATOM      1 CL   UNL A   1       0.647  -7.516  50.872  1.00  0.00    -0.080 Cl
ATOM      2 CL   UNL A   1       1.126 -12.951  51.244  1.00  0.00    -0.080 Cl
ATOM      3  N   UNL A   1      -0.599 -10.532  48.604  1.00  0.00    -0.270 NA
ATOM      4  C   UNL A   1       0.832 -10.244  50.969  1.00  0.00     0.081 A 
ATOM      5  C   UNL A   1       0.376  -9.119  50.307  1.00  0.00     0.080 A 
ATOM      6  C   UNL A   1       0.586 -11.510  50.471  1.00  0.00     0.080 A 
ATOM      7  C   UNL A   1      -0.333  -9.316  49.133  1.00  0.00     0.142 A 
ATOM      8  C   UNL A   1      -0.132 -11.599  49.289  1.00  0.00     0.142 A 
ENDROOT
BRANCH   4   9
ATOM      9  N   UNL A   1       1.563 -10.098  52.174  1.00  0.00    -0.320 N 
ATOM     10  C   UNL A   1       1.077 -10.038  53.488  1.00  0.00     0.256 C 
ATOM     11  O   UNL A   1      -0.120 -10.108  53.809  1.00  0.00    -0.267 OA
ATOM     12  H   UNL A   1       2.540 -10.028  52.076  1.00  0.00     0.169 HD
BRANCH  10  13
ATOM     13  C   UNL A   1       2.079  -9.855  54.527  1.00  0.00     0.035 A 
ATOM     14  C   UNL A   1       2.960  -8.776  54.463  1.00  0.00     0.056 A 
ATOM     15  C   UNL A   1       3.921  -8.602  55.460  1.00  0.00     0.103 A 
ATOM     16  C   UNL A   1       4.000  -9.506  56.519  1.00  0.00     0.108 A 
ATOM     17  C   UNL A   1       3.118 -10.585  56.583  1.00  0.00     0.041 A 
ATOM     18  C   UNL A   1       2.157 -10.759  55.586  1.00  0.00     0.020 A 
BRANCH  15  19
ATOM     19  O   UNL A   1       4.777  -7.545  55.388  1.00  0.00    -0.348 OA
BRANCH  19  20
ATOM     20  C   UNL A   1       4.505  -6.557  54.396  1.00  0.00     0.180 C 
BRANCH  20  21
ATOM     21  C   UNL A   1       4.163  -5.267  55.059  1.00  0.00     0.010 A 
ATOM     22  C   UNL A   1       2.806  -4.674  54.840  1.00  0.00     0.007 A 
ATOM     23  C   UNL A   1       3.163  -5.264  56.172  1.00  0.00     0.007 A 
ENDBRANCH  20  21
ENDBRANCH  19  20
ENDBRANCH  15  19
BRANCH  16  24
ATOM     24  O   UNL A   1       4.932  -9.346  57.499  1.00  0.00    -0.287 OA
BRANCH  24  25
ATOM     25  C   UNL A   1       5.420 -10.520  58.135  1.00  0.00     0.505 C 
ATOM     26  F   UNL A   1       6.711 -10.691  57.747  1.00  0.00    -0.184 F 
ATOM     27  F   UNL A   1       5.444 -10.322  59.476  1.00  0.00    -0.184 F 
ENDBRANCH  24  25
ENDBRANCH  16  24
ENDBRANCH  10  13
ENDBRANCH   4   9
TORSDOF 7
ENDMDL
MODEL 8
REMARK VINA RESULT:      -7.4      4.873      5.924
REMARK  7 active torsions:
REMARK  status: ('A' for Active; 'I' for Inactive)
REMARK    1  A    between atoms: O_5  and  C_13 
REMARK    2  A    between atoms: O_5  and  C_14 
REMARK    3  A    between atoms: O_6  and  C_15 
REMARK    4  A    between atoms: O_6  and  C_22 
REMARK       I    between atoms: N_8  and  C_20 
REMARK    5  A    between atoms: N_8  and  C_21 
REMARK    6  A    between atoms: C_10  and  C_13 
REMARK    7  A    between atoms: C_17  and  C_20 
ROOT
ATOM      1 CL   UNL A   1      -0.496  -6.789  48.619  1.00  0.00    -0.080 Cl
ATOM      2 CL   UNL A   1       4.232  -4.626  50.318  1.00  0.00    -0.080 Cl
ATOM      3  N   UNL A   1       1.875  -3.936  47.193  1.00  0.00    -0.270 NA
ATOM      4  C   UNL A   1       1.868  -5.643  49.386  1.00  0.00     0.081 A 
ATOM      5  C   UNL A   1       0.830  -5.700  48.475  1.00  0.00     0.080 A 
ATOM      6  C   UNL A   1       2.910  -4.749  49.221  1.00  0.00     0.080 A 
ATOM      7  C   UNL A   1       0.880  -4.829  47.398  1.00  0.00     0.142 A 
ATOM      8  C   UNL A   1       2.866  -3.920  48.112  1.00  0.00     0.142 A 
ENDROOT
BRANCH   4   9
ATOM      9  N   UNL A   1       1.864  -6.513  50.505  1.00  0.00    -0.320 N 
ATOM     10  C   UNL A   1       2.569  -7.711  50.681  1.00  0.00     0.256 C 
ATOM     11  O   UNL A   1       3.338  -8.216  49.846  1.00  0.00    -0.267 OA
ATOM     12  H   UNL A   1       1.291  -6.238  51.257  1.00  0.00     0.169 HD
BRANCH  10  13
ATOM     13  C   UNL A   1       2.339  -8.404  51.939  1.00  0.00     0.035 A 
ATOM     14  C   UNL A   1       2.584  -7.753  53.148  1.00  0.00     0.056 A 
ATOM     15  C   UNL A   1       2.364  -8.418  54.355  1.00  0.00     0.103 A 
ATOM     16  C   UNL A   1       1.900  -9.733  54.352  1.00  0.00     0.108 A 
ATOM     17  C   UNL A   1       1.654 -10.384  53.143  1.00  0.00     0.041 A 
ATOM     18  C   UNL A   1       1.874  -9.719  51.936  1.00  0.00     0.020 A 
BRANCH  15  19
ATOM     19  O   UNL A   1       2.607  -7.773  55.529  1.00  0.00    -0.348 OA
BRANCH  19  20
ATOM     20  C   UNL A   1       3.934  -7.299  55.746  1.00  0.00     0.180 C 
BRANCH  20  21
ATOM     21  C   UNL A   1       3.890  -5.871  56.169  1.00  0.00     0.010 A 
ATOM     22  C   UNL A   1       4.090  -4.801  55.140  1.00  0.00     0.007 A 
ATOM     23  C   UNL A   1       2.734  -5.022  55.743  1.00  0.00     0.007 A 
ENDBRANCH  20  21
ENDBRANCH  19  20
ENDBRANCH  15  19
BRANCH  16  24
ATOM     24  O   UNL A   1       1.680 -10.393  55.523  1.00  0.00    -0.287 OA
BRANCH  24  25
ATOM     25  C   UNL A   1       1.116 -11.696  55.444  1.00  0.00     0.505 C 
ATOM     26  F   UNL A   1       1.761 -12.477  56.349  1.00  0.00    -0.184 F 
ATOM     27  F   UNL A   1      -0.181 -11.644  55.834  1.00  0.00    -0.184 F 
ENDBRANCH  24  25
ENDBRANCH  16  24
ENDBRANCH  10  13
ENDBRANCH   4   9
TORSDOF 7
ENDMDL
MODEL 9
REMARK VINA RESULT:      -7.1      1.359      1.567
REMARK  7 active torsions:
REMARK  status: ('A' for Active; 'I' for Inactive)
REMARK    1  A    between atoms: O_5  and  C_13 
REMARK    2  A    between atoms: O_5  and  C_14 
REMARK    3  A    between atoms: O_6  and  C_15 
REMARK    4  A    between atoms: O_6  and  C_22 
REMARK       I    between atoms: N_8  and  C_20 
REMARK    5  A    between atoms: N_8  and  C_21 
REMARK    6  A    between atoms: C_10  and  C_13 
REMARK    7  A    between atoms: C_17  and  C_20 
ROOT
ATOM      1 CL   UNL A   1      -1.918 -12.486  52.414  1.00  0.00    -0.080 Cl
ATOM      2 CL   UNL A   1       2.874 -12.812  49.799  1.00  0.00    -0.080 Cl
ATOM      3  N   UNL A   1      -0.810 -14.014  48.917  1.00  0.00    -0.270 NA
ATOM      4  C   UNL A   1       0.431 -12.698  51.027  1.00  0.00     0.081 A 
ATOM      5  C   UNL A   1      -0.927 -12.949  51.084  1.00  0.00     0.080 A 
ATOM      6  C   UNL A   1       1.180 -13.093  49.935  1.00  0.00     0.080 A 
ATOM      7  C   UNL A   1      -1.499 -13.608  50.008  1.00  0.00     0.142 A 
ATOM      8  C   UNL A   1       0.515 -13.745  48.909  1.00  0.00     0.142 A 
ENDROOT
BRANCH   4   9
ATOM      9  N   UNL A   1       1.064 -12.027  52.102  1.00  0.00    -0.320 N 
ATOM     10  C   UNL A   1       1.090 -10.653  52.380  1.00  0.00     0.256 C 
ATOM     11  O   UNL A   1       0.537  -9.777  51.695  1.00  0.00    -0.267 OA
ATOM     12  H   UNL A   1       1.549 -12.601  52.738  1.00  0.00     0.169 HD
BRANCH  10  13
ATOM     13  C   UNL A   1       1.852 -10.257  53.553  1.00  0.00     0.035 A 
ATOM     14  C   UNL A   1       2.734  -9.179  53.480  1.00  0.00     0.056 A 
ATOM     15  C   UNL A   1       3.466  -8.800  54.606  1.00  0.00     0.103 A 
ATOM     16  C   UNL A   1       3.316  -9.499  55.804  1.00  0.00     0.108 A 
ATOM     17  C   UNL A   1       2.434 -10.577  55.876  1.00  0.00     0.041 A 
ATOM     18  C   UNL A   1       1.702 -10.956  54.751  1.00  0.00     0.020 A 
BRANCH  15  19
ATOM     19  O   UNL A   1       4.324  -7.745  54.524  1.00  0.00    -0.348 OA
BRANCH  19  20
ATOM     20  C   UNL A   1       3.838  -6.562  53.894  1.00  0.00     0.180 C 
BRANCH  20  21
ATOM     21  C   UNL A   1       3.968  -5.410  54.830  1.00  0.00     0.010 A 
ATOM     22  C   UNL A   1       2.748  -4.909  55.541  1.00  0.00     0.007 A 
ATOM     23  C   UNL A   1       3.812  -5.646  56.300  1.00  0.00     0.007 A 
ENDBRANCH  20  21
ENDBRANCH  19  20
ENDBRANCH  15  19
BRANCH  16  24
ATOM     24  O   UNL A   1       4.024  -9.137  56.910  1.00  0.00    -0.287 OA
BRANCH  24  25
ATOM     25  C   UNL A   1       4.713 -10.166  57.610  1.00  0.00     0.505 C 
ATOM     26  F   UNL A   1       6.041 -10.000  57.378  1.00  0.00    -0.184 F 
ATOM     27  F   UNL A   1       4.529  -9.998  58.942  1.00  0.00    -0.184 F 
ENDBRANCH  24  25
ENDBRANCH  16  24
ENDBRANCH  10  13
ENDBRANCH   4   9
TORSDOF 7
ENDMDL
