MODEL 1
REMARK VINA RESULT:      -7.8      0.000      0.000
REMARK  7 active torsions:
REMARK  status: ('A' for Active; 'I' for Inactive)
REMARK    1  A    between atoms: O_5  and  C_13 
REMARK    2  A    between atoms: O_5  and  C_14 
REMARK    3  A    between atoms: O_6  and  C_15 
REMARK    4  A    between atoms: O_6  and  C_22 
REMARK       I    between atoms: N_8  and  C_20 
REMARK    5  A    between atoms: N_8  and  C_21 
REMARK    6  A    between atoms: C_10  and  C_13 
REMARK    7  A    between atoms: C_17  and  C_20 
ROOT
ATOM      1 CL   UNL A   1       2.723  -3.341  53.450  1.00  0.00    -0.080 Cl
ATOM      2 CL   UNL A   1       7.643  -0.990  53.027  1.00  0.00    -0.080 Cl
ATOM      3  N   UNL A   1       4.539  -1.301  50.564  1.00  0.00    -0.270 NA
ATOM      4  C   UNL A   1       5.159  -2.134  53.142  1.00  0.00     0.081 A 
ATOM      5  C   UNL A   1       3.925  -2.447  52.602  1.00  0.00     0.080 A 
ATOM      6  C   UNL A   1       6.089  -1.413  52.416  1.00  0.00     0.080 A 
ATOM      7  C   UNL A   1       3.665  -2.009  51.314  1.00  0.00     0.142 A 
ATOM      8  C   UNL A   1       5.732  -1.021  51.136  1.00  0.00     0.142 A 
ENDROOT
BRANCH   4   9
ATOM      9  N   UNL A   1       5.475  -2.558  54.456  1.00  0.00    -0.320 N 
ATOM     10  C   UNL A   1       5.462  -1.810  55.641  1.00  0.00     0.256 C 
ATOM     11  O   UNL A   1       5.157  -0.609  55.723  1.00  0.00    -0.267 OA
ATOM     12  H   UNL A   1       5.738  -3.502  54.548  1.00  0.00     0.169 HD
BRANCH  10  13
ATOM     13  C   UNL A   1       5.865  -2.521  56.845  1.00  0.00     0.035 A 
ATOM     14  C   UNL A   1       4.946  -3.324  57.521  1.00  0.00     0.056 A 
ATOM     15  C   UNL A   1       5.334  -4.004  58.676  1.00  0.00     0.103 A 
ATOM     16  C   UNL A   1       6.638  -3.881  59.154  1.00  0.00     0.108 A 
ATOM     17  C   UNL A   1       7.557  -3.078  58.478  1.00  0.00     0.041 A 
ATOM     18  C   UNL A   1       7.169  -2.398  57.323  1.00  0.00     0.020 A 
BRANCH  15  19
ATOM     19  O   UNL A   1       4.429  -4.785  59.329  1.00  0.00    -0.348 OA
BRANCH  19  20
ATOM     20  C   UNL A   1       4.120  -6.048  58.742  1.00  0.00     0.180 C 
BRANCH  20  21
ATOM     21  C   UNL A   1       2.641  -6.215  58.668  1.00  0.00     0.010 A 
ATOM     22  C   UNL A   1       1.759  -5.112  59.164  1.00  0.00     0.007 A 
ATOM     23  C   UNL A   1       1.864  -5.387  57.694  1.00  0.00     0.007 A 
ENDBRANCH  20  21
ENDBRANCH  19  20
ENDBRANCH  15  19
BRANCH  16  24
ATOM     24  O   UNL A   1       7.028  -4.542  60.280  1.00  0.00    -0.287 OA
BRANCH  24  25
ATOM     25  C   UNL A   1       8.303  -4.216  60.819  1.00  0.00     0.505 C 
ATOM     26  F   UNL A   1       8.102  -3.377  61.869  1.00  0.00    -0.184 F 
ATOM     27  F   UNL A   1       8.871  -5.338  61.326  1.00  0.00    -0.184 F 
ENDBRANCH  24  25
ENDBRANCH  16  24
ENDBRANCH  10  13
ENDBRANCH   4   9
TORSDOF 7
ENDMDL
MODEL 2
REMARK VINA RESULT:      -7.7      0.190      1.785
REMARK  7 active torsions:
REMARK  status: ('A' for Active; 'I' for Inactive)
REMARK    1  A    between atoms: O_5  and  C_13 
REMARK    2  A    between atoms: O_5  and  C_14 
REMARK    3  A    between atoms: O_6  and  C_15 
REMARK    4  A    between atoms: O_6  and  C_22 
REMARK       I    between atoms: N_8  and  C_20 
REMARK    5  A    between atoms: N_8  and  C_21 
REMARK    6  A    between atoms: C_10  and  C_13 
REMARK    7  A    between atoms: C_17  and  C_20 
ROOT
ATOM      1 CL   UNL A   1       7.497  -1.129  53.009  1.00  0.00    -0.080 Cl
ATOM      2 CL   UNL A   1       2.549  -3.391  53.565  1.00  0.00    -0.080 Cl
ATOM      3  N   UNL A   1       4.329  -1.397  50.624  1.00  0.00    -0.270 NA
ATOM      4  C   UNL A   1       4.998  -2.229  53.191  1.00  0.00     0.081 A 
ATOM      5  C   UNL A   1       5.922  -1.528  52.439  1.00  0.00     0.080 A 
ATOM      6  C   UNL A   1       3.746  -2.521  52.683  1.00  0.00     0.080 A 
ATOM      7  C   UNL A   1       5.540  -1.135  51.166  1.00  0.00     0.142 A 
ATOM      8  C   UNL A   1       3.461  -2.085  51.399  1.00  0.00     0.142 A 
ENDROOT
BRANCH   4   9
ATOM      9  N   UNL A   1       5.339  -2.654  54.498  1.00  0.00    -0.320 N 
ATOM     10  C   UNL A   1       5.412  -1.892  55.673  1.00  0.00     0.256 C 
ATOM     11  O   UNL A   1       5.179  -0.674  55.748  1.00  0.00    -0.267 OA
ATOM     12  H   UNL A   1       5.552  -3.610  54.594  1.00  0.00     0.169 HD
BRANCH  10  13
ATOM     13  C   UNL A   1       5.820  -2.610  56.870  1.00  0.00     0.035 A 
ATOM     14  C   UNL A   1       4.916  -3.448  57.523  1.00  0.00     0.056 A 
ATOM     15  C   UNL A   1       5.308  -4.135  58.672  1.00  0.00     0.103 A 
ATOM     16  C   UNL A   1       6.602  -3.983  59.168  1.00  0.00     0.108 A 
ATOM     17  C   UNL A   1       7.506  -3.145  58.516  1.00  0.00     0.041 A 
ATOM     18  C   UNL A   1       7.115  -2.458  57.366  1.00  0.00     0.020 A 
BRANCH  15  19
ATOM     19  O   UNL A   1       4.417  -4.950  59.302  1.00  0.00    -0.348 OA
BRANCH  19  20
ATOM     20  C   UNL A   1       4.046  -6.150  58.626  1.00  0.00     0.180 C 
BRANCH  20  21
ATOM     21  C   UNL A   1       2.562  -6.275  58.609  1.00  0.00     0.010 A 
ATOM     22  C   UNL A   1       1.732  -5.159  59.164  1.00  0.00     0.007 A 
ATOM     23  C   UNL A   1       1.769  -5.405  57.685  1.00  0.00     0.007 A 
ENDBRANCH  20  21
ENDBRANCH  19  20
ENDBRANCH  15  19
BRANCH  16  24
ATOM     24  O   UNL A   1       6.996  -4.650  60.289  1.00  0.00    -0.287 OA
BRANCH  24  25
ATOM     25  C   UNL A   1       8.343  -4.477  60.712  1.00  0.00     0.505 C 
ATOM     26  F   UNL A   1       8.332  -3.647  61.787  1.00  0.00    -0.184 F 
ATOM     27  F   UNL A   1       8.828  -5.665  61.148  1.00  0.00    -0.184 F 
ENDBRANCH  24  25
ENDBRANCH  16  24
ENDBRANCH  10  13
ENDBRANCH   4   9
TORSDOF 7
ENDMDL
MODEL 3
REMARK VINA RESULT:      -7.6      3.748      5.745
REMARK  7 active torsions:
REMARK  status: ('A' for Active; 'I' for Inactive)
REMARK    1  A    between atoms: O_5  and  C_13 
REMARK    2  A    between atoms: O_5  and  C_14 
REMARK    3  A    between atoms: O_6  and  C_15 
REMARK    4  A    between atoms: O_6  and  C_22 
REMARK       I    between atoms: N_8  and  C_20 
REMARK    5  A    between atoms: N_8  and  C_21 
REMARK    6  A    between atoms: C_10  and  C_13 
REMARK    7  A    between atoms: C_17  and  C_20 
ROOT
ATOM      1 CL   UNL A   1       0.158  -5.793  58.422  1.00  0.00    -0.080 Cl
ATOM      2 CL   UNL A   1       3.496  -8.238  54.846  1.00  0.00    -0.080 Cl
ATOM      3  N   UNL A   1      -0.419  -8.428  55.504  1.00  0.00    -0.270 NA
ATOM      4  C   UNL A   1       1.746  -7.067  56.593  1.00  0.00     0.081 A 
ATOM      5  C   UNL A   1       0.481  -6.863  57.112  1.00  0.00     0.080 A 
ATOM      6  C   UNL A   1       1.949  -7.939  55.540  1.00  0.00     0.080 A 
ATOM      7  C   UNL A   1      -0.565  -7.566  56.535  1.00  0.00     0.142 A 
ATOM      8  C   UNL A   1       0.837  -8.593  55.032  1.00  0.00     0.142 A 
ENDROOT
BRANCH   4   9
ATOM      9  N   UNL A   1       2.849  -6.373  57.148  1.00  0.00    -0.320 N 
ATOM     10  C   UNL A   1       3.413  -5.157  56.736  1.00  0.00     0.256 C 
ATOM     11  O   UNL A   1       3.012  -4.474  55.779  1.00  0.00    -0.267 OA
ATOM     12  H   UNL A   1       3.276  -6.800  57.925  1.00  0.00     0.169 HD
BRANCH  10  13
ATOM     13  C   UNL A   1       4.569  -4.704  57.493  1.00  0.00     0.035 A 
ATOM     14  C   UNL A   1       5.342  -3.645  57.018  1.00  0.00     0.056 A 
ATOM     15  C   UNL A   1       6.452  -3.212  57.744  1.00  0.00     0.103 A 
ATOM     16  C   UNL A   1       6.787  -3.837  58.945  1.00  0.00     0.108 A 
ATOM     17  C   UNL A   1       6.013  -4.896  59.420  1.00  0.00     0.041 A 
ATOM     18  C   UNL A   1       4.904  -5.329  58.694  1.00  0.00     0.020 A 
BRANCH  15  19
ATOM     19  O   UNL A   1       7.200  -2.177  57.271  1.00  0.00    -0.348 OA
BRANCH  19  20
ATOM     20  C   UNL A   1       6.841  -0.866  57.702  1.00  0.00     0.180 C 
BRANCH  20  21
ATOM     21  C   UNL A   1       5.506  -0.507  57.146  1.00  0.00     0.010 A 
ATOM     22  C   UNL A   1       5.009   0.897  57.296  1.00  0.00     0.007 A 
ATOM     23  C   UNL A   1       5.434   0.390  55.950  1.00  0.00     0.007 A 
ENDBRANCH  20  21
ENDBRANCH  19  20
ENDBRANCH  15  19
BRANCH  16  24
ATOM     24  O   UNL A   1       7.867  -3.422  59.664  1.00  0.00    -0.287 OA
BRANCH  24  25
ATOM     25  C   UNL A   1       8.597  -4.412  60.378  1.00  0.00     0.505 C 
ATOM     26  F   UNL A   1       9.851  -4.451  59.858  1.00  0.00    -0.184 F 
ATOM     27  F   UNL A   1       8.726  -4.024  61.670  1.00  0.00    -0.184 F 
ENDBRANCH  24  25
ENDBRANCH  16  24
ENDBRANCH  10  13
ENDBRANCH   4   9
TORSDOF 7
ENDMDL
MODEL 4
REMARK VINA RESULT:      -7.5      3.693      5.918
REMARK  7 active torsions:
REMARK  status: ('A' for Active; 'I' for Inactive)
REMARK    1  A    between atoms: O_5  and  C_13 
REMARK    2  A    between atoms: O_5  and  C_14 
REMARK    3  A    between atoms: O_6  and  C_15 
REMARK    4  A    between atoms: O_6  and  C_22 
REMARK       I    between atoms: N_8  and  C_20 
REMARK    5  A    between atoms: N_8  and  C_21 
REMARK    6  A    between atoms: C_10  and  C_13 
REMARK    7  A    between atoms: C_17  and  C_20 
ROOT
ATOM      1 CL   UNL A   1       3.392  -8.183  54.879  1.00  0.00    -0.080 Cl
ATOM      2 CL   UNL A   1       0.146  -5.730  58.534  1.00  0.00    -0.080 Cl
ATOM      3  N   UNL A   1      -0.501  -8.390  55.653  1.00  0.00    -0.270 NA
ATOM      4  C   UNL A   1       1.687  -7.009  56.668  1.00  0.00     0.081 A 
ATOM      5  C   UNL A   1       1.864  -7.887  55.616  1.00  0.00     0.080 A 
ATOM      6  C   UNL A   1       0.436  -6.808  57.222  1.00  0.00     0.080 A 
ATOM      7  C   UNL A   1       0.742  -8.551  55.145  1.00  0.00     0.142 A 
ATOM      8  C   UNL A   1      -0.622  -7.521  56.681  1.00  0.00     0.142 A 
ENDROOT
BRANCH   4   9
ATOM      9  N   UNL A   1       2.802  -6.305  57.187  1.00  0.00    -0.320 N 
ATOM     10  C   UNL A   1       3.321  -5.069  56.778  1.00  0.00     0.256 C 
ATOM     11  O   UNL A   1       2.861  -4.371  55.859  1.00  0.00    -0.267 OA
ATOM     12  H   UNL A   1       3.274  -6.742  57.932  1.00  0.00     0.169 HD
BRANCH  10  13
ATOM     13  C   UNL A   1       4.503  -4.610  57.491  1.00  0.00     0.035 A 
ATOM     14  C   UNL A   1       5.201  -3.492  57.035  1.00  0.00     0.056 A 
ATOM     15  C   UNL A   1       6.336  -3.053  57.718  1.00  0.00     0.103 A 
ATOM     16  C   UNL A   1       6.771  -3.732  58.856  1.00  0.00     0.108 A 
ATOM     17  C   UNL A   1       6.072  -4.849  59.312  1.00  0.00     0.041 A 
ATOM     18  C   UNL A   1       4.938  -5.288  58.629  1.00  0.00     0.020 A 
BRANCH  15  19
ATOM     19  O   UNL A   1       7.011  -1.960  57.264  1.00  0.00    -0.348 OA
BRANCH  19  20
ATOM     20  C   UNL A   1       6.765  -0.724  57.931  1.00  0.00     0.180 C 
BRANCH  20  21
ATOM     21  C   UNL A   1       6.300   0.291  56.943  1.00  0.00     0.010 A 
ATOM     22  C   UNL A   1       5.186  -0.063  56.007  1.00  0.00     0.007 A 
ATOM     23  C   UNL A   1       4.951   0.914  57.121  1.00  0.00     0.007 A 
ENDBRANCH  20  21
ENDBRANCH  19  20
ENDBRANCH  15  19
BRANCH  16  24
ATOM     24  O   UNL A   1       7.876  -3.312  59.533  1.00  0.00    -0.287 OA
BRANCH  24  25
ATOM     25  C   UNL A   1       8.512  -4.250  60.392  1.00  0.00     0.505 C 
ATOM     26  F   UNL A   1       9.792  -4.399  59.960  1.00  0.00    -0.184 F 
ATOM     27  F   UNL A   1       8.585  -3.730  61.641  1.00  0.00    -0.184 F 
ENDBRANCH  24  25
ENDBRANCH  16  24
ENDBRANCH  10  13
ENDBRANCH   4   9
TORSDOF 7
ENDMDL
MODEL 5
REMARK VINA RESULT:      -7.3      1.892      2.087
REMARK  7 active torsions:
REMARK  status: ('A' for Active; 'I' for Inactive)
REMARK    1  A    between atoms: O_5  and  C_13 
REMARK    2  A    between atoms: O_5  and  C_14 
REMARK    3  A    between atoms: O_6  and  C_15 
REMARK    4  A    between atoms: O_6  and  C_22 
REMARK       I    between atoms: N_8  and  C_20 
REMARK    5  A    between atoms: N_8  and  C_21 
REMARK    6  A    between atoms: C_10  and  C_13 
REMARK    7  A    between atoms: C_17  and  C_20 
ROOT
ATOM      1 CL   UNL A   1       2.597  -2.063  53.534  1.00  0.00    -0.080 Cl
ATOM      2 CL   UNL A   1       6.103  -6.090  52.352  1.00  0.00    -0.080 Cl
ATOM      3  N   UNL A   1       3.410  -4.094  50.216  1.00  0.00    -0.270 NA
ATOM      4  C   UNL A   1       4.315  -4.077  52.844  1.00  0.00     0.081 A 
ATOM      5  C   UNL A   1       3.323  -3.196  52.459  1.00  0.00     0.080 A 
ATOM      6  C   UNL A   1       4.864  -4.967  51.939  1.00  0.00     0.080 A 
ATOM      7  C   UNL A   1       2.905  -3.244  51.139  1.00  0.00     0.142 A 
ATOM      8  C   UNL A   1       4.378  -4.936  50.642  1.00  0.00     0.142 A 
ENDROOT
BRANCH   4   9
ATOM      9  N   UNL A   1       4.778  -4.068  54.183  1.00  0.00    -0.320 N 
ATOM     10  C   UNL A   1       5.793  -3.286  54.751  1.00  0.00     0.256 C 
ATOM     11  O   UNL A   1       6.471  -2.444  54.138  1.00  0.00    -0.267 OA
ATOM     12  H   UNL A   1       4.327  -4.693  54.795  1.00  0.00     0.169 HD
BRANCH  10  13
ATOM     13  C   UNL A   1       6.063  -3.521  56.160  1.00  0.00     0.035 A 
ATOM     14  C   UNL A   1       5.244  -4.381  56.893  1.00  0.00     0.056 A 
ATOM     15  C   UNL A   1       5.503  -4.606  58.245  1.00  0.00     0.103 A 
ATOM     16  C   UNL A   1       6.580  -3.971  58.864  1.00  0.00     0.108 A 
ATOM     17  C   UNL A   1       7.399  -3.112  58.132  1.00  0.00     0.041 A 
ATOM     18  C   UNL A   1       7.140  -2.887  56.779  1.00  0.00     0.020 A 
BRANCH  15  19
ATOM     19  O   UNL A   1       4.698  -5.447  58.951  1.00  0.00    -0.348 OA
BRANCH  19  20
ATOM     20  C   UNL A   1       3.312  -5.450  58.616  1.00  0.00     0.180 C 
BRANCH  20  21
ATOM     21  C   UNL A   1       2.902  -6.820  58.197  1.00  0.00     0.010 A 
ATOM     22  C   UNL A   1       1.749  -6.978  57.255  1.00  0.00     0.007 A 
ATOM     23  C   UNL A   1       3.147  -7.252  56.785  1.00  0.00     0.007 A 
ENDBRANCH  20  21
ENDBRANCH  19  20
ENDBRANCH  15  19
BRANCH  16  24
ATOM     24  O   UNL A   1       6.844  -4.184  60.183  1.00  0.00    -0.287 OA
BRANCH  24  25
ATOM     25  C   UNL A   1       8.166  -3.920  60.636  1.00  0.00     0.505 C 
ATOM     26  F   UNL A   1       8.076  -3.438  61.904  1.00  0.00    -0.184 F 
ATOM     27  F   UNL A   1       8.850  -5.087  60.715  1.00  0.00    -0.184 F 
ENDBRANCH  24  25
ENDBRANCH  16  24
ENDBRANCH  10  13
ENDBRANCH   4   9
TORSDOF 7
ENDMDL
MODEL 6
REMARK VINA RESULT:      -7.3      2.886      4.697
REMARK  7 active torsions:
REMARK  status: ('A' for Active; 'I' for Inactive)
REMARK    1  A    between atoms: O_5  and  C_13 
REMARK    2  A    between atoms: O_5  and  C_14 
REMARK    3  A    between atoms: O_6  and  C_15 
REMARK    4  A    between atoms: O_6  and  C_22 
REMARK       I    between atoms: N_8  and  C_20 
REMARK    5  A    between atoms: N_8  and  C_21 
REMARK    6  A    between atoms: C_10  and  C_13 
REMARK    7  A    between atoms: C_17  and  C_20 
ROOT
ATOM      1 CL   UNL A   1       2.525  -3.164  53.482  1.00  0.00    -0.080 Cl
ATOM      2 CL   UNL A   1       3.303  -8.364  54.988  1.00  0.00    -0.080 Cl
ATOM      3  N   UNL A   1       1.111  -6.635  52.159  1.00  0.00    -0.270 NA
ATOM      4  C   UNL A   1       2.849  -5.795  54.159  1.00  0.00     0.081 A 
ATOM      5  C   UNL A   1       2.252  -4.858  53.338  1.00  0.00     0.080 A 
ATOM      6  C   UNL A   1       2.593  -7.145  54.000  1.00  0.00     0.080 A 
ATOM      7  C   UNL A   1       1.393  -5.327  52.356  1.00  0.00     0.142 A 
ATOM      8  C   UNL A   1       1.720  -7.512  52.989  1.00  0.00     0.142 A 
ENDROOT
BRANCH   4   9
ATOM      9  N   UNL A   1       3.735  -5.368  55.178  1.00  0.00    -0.320 N 
ATOM     10  C   UNL A   1       3.462  -5.138  56.534  1.00  0.00     0.256 C 
ATOM     11  O   UNL A   1       2.351  -5.280  57.071  1.00  0.00    -0.267 OA
ATOM     12  H   UNL A   1       4.666  -5.212  54.897  1.00  0.00     0.169 HD
BRANCH  10  13
ATOM     13  C   UNL A   1       4.582  -4.674  57.338  1.00  0.00     0.035 A 
ATOM     14  C   UNL A   1       5.358  -3.601  56.899  1.00  0.00     0.056 A 
ATOM     15  C   UNL A   1       6.432  -3.157  57.670  1.00  0.00     0.103 A 
ATOM     16  C   UNL A   1       6.731  -3.785  58.878  1.00  0.00     0.108 A 
ATOM     17  C   UNL A   1       5.955  -4.858  59.317  1.00  0.00     0.041 A 
ATOM     18  C   UNL A   1       4.880  -5.302  58.546  1.00  0.00     0.020 A 
BRANCH  15  19
ATOM     19  O   UNL A   1       7.183  -2.109  57.232  1.00  0.00    -0.348 OA
BRANCH  19  20
ATOM     20  C   UNL A   1       6.836  -0.814  57.718  1.00  0.00     0.180 C 
BRANCH  20  21
ATOM     21  C   UNL A   1       5.456  -0.468  57.274  1.00  0.00     0.010 A 
ATOM     22  C   UNL A   1       5.030   0.967  57.275  1.00  0.00     0.007 A 
ATOM     23  C   UNL A   1       5.270   0.255  55.977  1.00  0.00     0.007 A 
ENDBRANCH  20  21
ENDBRANCH  19  20
ENDBRANCH  15  19
BRANCH  16  24
ATOM     24  O   UNL A   1       7.777  -3.360  59.641  1.00  0.00    -0.287 OA
BRANCH  24  25
ATOM     25  C   UNL A   1       8.095  -4.124  60.797  1.00  0.00     0.505 C 
ATOM     26  F   UNL A   1       9.301  -4.711  60.581  1.00  0.00    -0.184 F 
ATOM     27  F   UNL A   1       8.257  -3.288  61.852  1.00  0.00    -0.184 F 
ENDBRANCH  24  25
ENDBRANCH  16  24
ENDBRANCH  10  13
ENDBRANCH   4   9
TORSDOF 7
ENDMDL
MODEL 7
REMARK VINA RESULT:      -7.3      2.578      4.103
REMARK  7 active torsions:
REMARK  status: ('A' for Active; 'I' for Inactive)
REMARK    1  A    between atoms: O_5  and  C_13 
REMARK    2  A    between atoms: O_5  and  C_14 
REMARK    3  A    between atoms: O_6  and  C_15 
REMARK    4  A    between atoms: O_6  and  C_22 
REMARK       I    between atoms: N_8  and  C_20 
REMARK    5  A    between atoms: N_8  and  C_21 
REMARK    6  A    between atoms: C_10  and  C_13 
REMARK    7  A    between atoms: C_17  and  C_20 
ROOT
ATOM      1 CL   UNL A   1       4.606  -7.248  53.135  1.00  0.00    -0.080 Cl
ATOM      2 CL   UNL A   1       2.480  -2.221  53.470  1.00  0.00    -0.080 Cl
ATOM      3  N   UNL A   1       2.079  -5.192  50.860  1.00  0.00    -0.270 NA
ATOM      4  C   UNL A   1       3.490  -4.751  53.214  1.00  0.00     0.081 A 
ATOM      5  C   UNL A   1       3.611  -5.965  52.563  1.00  0.00     0.080 A 
ATOM      6  C   UNL A   1       2.676  -3.754  52.709  1.00  0.00     0.080 A 
ATOM      7  C   UNL A   1       2.888  -6.135  51.393  1.00  0.00     0.142 A 
ATOM      8  C   UNL A   1       1.994  -4.023  51.534  1.00  0.00     0.142 A 
ENDROOT
BRANCH   4   9
ATOM      9  N   UNL A   1       4.209  -4.527  54.414  1.00  0.00    -0.320 N 
ATOM     10  C   UNL A   1       3.891  -4.945  55.713  1.00  0.00     0.256 C 
ATOM     11  O   UNL A   1       2.885  -5.606  56.023  1.00  0.00    -0.267 OA
ATOM     12  H   UNL A   1       5.041  -4.009  54.323  1.00  0.00     0.169 HD
BRANCH  10  13
ATOM     13  C   UNL A   1       4.817  -4.535  56.757  1.00  0.00     0.035 A 
ATOM     14  C   UNL A   1       5.687  -3.468  56.537  1.00  0.00     0.056 A 
ATOM     15  C   UNL A   1       6.576  -3.076  57.538  1.00  0.00     0.103 A 
ATOM     16  C   UNL A   1       6.595  -3.751  58.758  1.00  0.00     0.108 A 
ATOM     17  C   UNL A   1       5.724  -4.819  58.978  1.00  0.00     0.041 A 
ATOM     18  C   UNL A   1       4.835  -5.211  57.977  1.00  0.00     0.020 A 
BRANCH  15  19
ATOM     19  O   UNL A   1       7.422  -2.033  57.312  1.00  0.00    -0.348 OA
BRANCH  19  20
ATOM     20  C   UNL A   1       6.995  -0.745  57.752  1.00  0.00     0.180 C 
BRANCH  20  21
ATOM     21  C   UNL A   1       5.602  -0.496  57.286  1.00  0.00     0.010 A 
ATOM     22  C   UNL A   1       5.051   0.895  57.351  1.00  0.00     0.007 A 
ATOM     23  C   UNL A   1       5.385   0.280  56.024  1.00  0.00     0.007 A 
ENDBRANCH  20  21
ENDBRANCH  19  20
ENDBRANCH  15  19
BRANCH  16  24
ATOM     24  O   UNL A   1       7.458  -3.377  59.744  1.00  0.00    -0.287 OA
BRANCH  24  25
ATOM     25  C   UNL A   1       8.186  -4.407  60.400  1.00  0.00     0.505 C 
ATOM     26  F   UNL A   1       9.420  -4.461  59.834  1.00  0.00    -0.184 F 
ATOM     27  F   UNL A   1       8.372  -4.063  61.698  1.00  0.00    -0.184 F 
ENDBRANCH  24  25
ENDBRANCH  16  24
ENDBRANCH  10  13
ENDBRANCH   4   9
TORSDOF 7
ENDMDL
MODEL 8
REMARK VINA RESULT:      -7.2      2.715      4.175
REMARK  7 active torsions:
REMARK  status: ('A' for Active; 'I' for Inactive)
REMARK    1  A    between atoms: O_5  and  C_13 
REMARK    2  A    between atoms: O_5  and  C_14 
REMARK    3  A    between atoms: O_6  and  C_15 
REMARK    4  A    between atoms: O_6  and  C_22 
REMARK       I    between atoms: N_8  and  C_20 
REMARK    5  A    between atoms: N_8  and  C_21 
REMARK    6  A    between atoms: C_10  and  C_13 
REMARK    7  A    between atoms: C_17  and  C_20 
ROOT
ATOM      1 CL   UNL A   1       4.476  -1.976  51.965  1.00  0.00    -0.080 Cl
ATOM      2 CL   UNL A   1       5.059  -7.393  52.442  1.00  0.00    -0.080 Cl
ATOM      3  N   UNL A   1       4.538  -4.961  49.342  1.00  0.00    -0.270 NA
ATOM      4  C   UNL A   1       4.759  -4.695  52.099  1.00  0.00     0.081 A 
ATOM      5  C   UNL A   1       4.577  -3.569  51.318  1.00  0.00     0.080 A 
ATOM      6  C   UNL A   1       4.832  -5.951  51.528  1.00  0.00     0.080 A 
ATOM      7  C   UNL A   1       4.472  -3.755  49.949  1.00  0.00     0.142 A 
ATOM      8  C   UNL A   1       4.717  -6.031  50.149  1.00  0.00     0.142 A 
ENDROOT
BRANCH   4   9
ATOM      9  N   UNL A   1       4.873  -4.559  53.505  1.00  0.00    -0.320 N 
ATOM     10  C   UNL A   1       3.864  -4.645  54.475  1.00  0.00     0.256 C 
ATOM     11  O   UNL A   1       2.665  -4.862  54.239  1.00  0.00    -0.267 OA
ATOM     12  H   UNL A   1       5.780  -4.381  53.845  1.00  0.00     0.169 HD
BRANCH  10  13
ATOM     13  C   UNL A   1       4.287  -4.432  55.850  1.00  0.00     0.035 A 
ATOM     14  C   UNL A   1       4.701  -3.167  56.265  1.00  0.00     0.056 A 
ATOM     15  C   UNL A   1       5.107  -2.964  57.584  1.00  0.00     0.103 A 
ATOM     16  C   UNL A   1       5.099  -4.027  58.488  1.00  0.00     0.108 A 
ATOM     17  C   UNL A   1       4.685  -5.292  58.073  1.00  0.00     0.041 A 
ATOM     18  C   UNL A   1       4.279  -5.495  56.754  1.00  0.00     0.020 A 
BRANCH  15  19
ATOM     19  O   UNL A   1       5.510  -1.725  57.979  1.00  0.00    -0.348 OA
BRANCH  19  20
ATOM     20  C   UNL A   1       6.601  -1.141  57.269  1.00  0.00     0.180 C 
BRANCH  20  21
ATOM     21  C   UNL A   1       6.247   0.249  56.866  1.00  0.00     0.010 A 
ATOM     22  C   UNL A   1       5.115   0.464  55.911  1.00  0.00     0.007 A 
ATOM     23  C   UNL A   1       4.962   0.843  57.354  1.00  0.00     0.007 A 
ENDBRANCH  20  21
ENDBRANCH  19  20
ENDBRANCH  15  19
BRANCH  16  24
ATOM     24  O   UNL A   1       5.492  -3.841  59.779  1.00  0.00    -0.287 OA
BRANCH  24  25
ATOM     25  C   UNL A   1       6.846  -4.137  60.099  1.00  0.00     0.505 C 
ATOM     26  F   UNL A   1       6.932  -5.475  60.319  1.00  0.00    -0.184 F 
ATOM     27  F   UNL A   1       7.625  -3.872  59.022  1.00  0.00    -0.184 F 
ENDBRANCH  24  25
ENDBRANCH  16  24
ENDBRANCH  10  13
ENDBRANCH   4   9
TORSDOF 7
ENDMDL
MODEL 9
REMARK VINA RESULT:      -7.1      1.727      2.781
REMARK  7 active torsions:
REMARK  status: ('A' for Active; 'I' for Inactive)
REMARK    1  A    between atoms: O_5  and  C_13 
REMARK    2  A    between atoms: O_5  and  C_14 
REMARK    3  A    between atoms: O_6  and  C_15 
REMARK    4  A    between atoms: O_6  and  C_22 
REMARK       I    between atoms: N_8  and  C_20 
REMARK    5  A    between atoms: N_8  and  C_21 
REMARK    6  A    between atoms: C_10  and  C_13 
REMARK    7  A    between atoms: C_17  and  C_20 
ROOT
ATOM      1 CL   UNL A   1       8.185  -0.632  52.126  1.00  0.00    -0.080 Cl
ATOM      2 CL   UNL A   1       2.983  -2.152  51.391  1.00  0.00    -0.080 Cl
ATOM      3  N   UNL A   1       5.776  -0.697  48.966  1.00  0.00    -0.270 NA
ATOM      4  C   UNL A   1       5.591  -1.366  51.657  1.00  0.00     0.081 A 
ATOM      5  C   UNL A   1       6.780  -0.868  51.159  1.00  0.00     0.080 A 
ATOM      6  C   UNL A   1       4.492  -1.536  50.835  1.00  0.00     0.080 A 
ATOM      7  C   UNL A   1       6.821  -0.549  49.811  1.00  0.00     0.142 A 
ATOM      8  C   UNL A   1       4.636  -1.188  49.502  1.00  0.00     0.142 A 
ENDROOT
BRANCH   4   9
ATOM      9  N   UNL A   1       5.497  -1.709  53.029  1.00  0.00    -0.320 N 
ATOM     10  C   UNL A   1       5.462  -0.856  54.141  1.00  0.00     0.256 C 
ATOM     11  O   UNL A   1       5.510   0.384  54.091  1.00  0.00    -0.267 OA
ATOM     12  H   UNL A   1       5.450  -2.672  53.226  1.00  0.00     0.169 HD
BRANCH  10  13
ATOM     13  C   UNL A   1       5.388  -1.509  55.439  1.00  0.00     0.035 A 
ATOM     14  C   UNL A   1       4.845  -2.789  55.546  1.00  0.00     0.056 A 
ATOM     15  C   UNL A   1       4.774  -3.414  56.791  1.00  0.00     0.103 A 
ATOM     16  C   UNL A   1       5.245  -2.759  57.928  1.00  0.00     0.108 A 
ATOM     17  C   UNL A   1       5.788  -1.478  57.822  1.00  0.00     0.041 A 
ATOM     18  C   UNL A   1       5.859  -0.854  56.576  1.00  0.00     0.020 A 
BRANCH  15  19
ATOM     19  O   UNL A   1       4.242  -4.664  56.884  1.00  0.00    -0.348 OA
BRANCH  19  20
ATOM     20  C   UNL A   1       2.848  -4.797  56.612  1.00  0.00     0.180 C 
BRANCH  20  21
ATOM     21  C   UNL A   1       2.243  -5.763  57.572  1.00  0.00     0.010 A 
ATOM     22  C   UNL A   1       2.965  -6.071  58.846  1.00  0.00     0.007 A 
ATOM     23  C   UNL A   1       1.707  -5.255  58.873  1.00  0.00     0.007 A 
ENDBRANCH  20  21
ENDBRANCH  19  20
ENDBRANCH  15  19
BRANCH  16  24
ATOM     24  O   UNL A   1       5.183  -3.359  59.150  1.00  0.00    -0.287 OA
BRANCH  24  25
ATOM     25  C   UNL A   1       6.320  -4.102  59.572  1.00  0.00     0.505 C 
ATOM     26  F   UNL A   1       5.959  -5.412  59.617  1.00  0.00    -0.184 F 
ATOM     27  F   UNL A   1       7.290  -4.002  58.631  1.00  0.00    -0.184 F 
ENDBRANCH  24  25
ENDBRANCH  16  24
ENDBRANCH  10  13
ENDBRANCH   4   9
TORSDOF 7
ENDMDL
