MODEL 1
REMARK VINA RESULT:      -7.6      0.000      0.000
REMARK  7 active torsions:
REMARK  status: ('A' for Active; 'I' for Inactive)
REMARK    1  A    between atoms: O_5  and  C_13 
REMARK    2  A    between atoms: O_5  and  C_14 
REMARK    3  A    between atoms: O_6  and  C_15 
REMARK    4  A    between atoms: O_6  and  C_22 
REMARK       I    between atoms: N_8  and  C_20 
REMARK    5  A    between atoms: N_8  and  C_21 
REMARK    6  A    between atoms: C_10  and  C_13 
REMARK    7  A    between atoms: C_17  and  C_20 
ROOT
ATOM      1 CL   UNL A   1      -2.400 -11.035  54.629  1.00  0.00    -0.080 Cl
ATOM      2 CL   UNL A   1       1.391 -12.869  51.139  1.00  0.00    -0.080 Cl
ATOM      3  N   UNL A   1      -2.580 -13.005  51.182  1.00  0.00    -0.270 NA
ATOM      4  C   UNL A   1      -0.580 -11.990  52.823  1.00  0.00     0.081 A 
ATOM      5  C   UNL A   1      -1.904 -11.836  53.187  1.00  0.00     0.080 A 
ATOM      6  C   UNL A   1      -0.237 -12.643  51.653  1.00  0.00     0.080 A 
ATOM      7  C   UNL A   1      -2.864 -12.360  52.336  1.00  0.00     0.142 A 
ATOM      8  C   UNL A   1      -1.271 -13.130  50.870  1.00  0.00     0.142 A 
ENDROOT
BRANCH   4   9
ATOM      9  N   UNL A   1       0.441 -11.472  53.658  1.00  0.00    -0.320 N 
ATOM     10  C   UNL A   1       1.049 -10.210  53.614  1.00  0.00     0.256 C 
ATOM     11  O   UNL A   1       0.773  -9.314  52.798  1.00  0.00    -0.267 OA
ATOM     12  H   UNL A   1       0.765 -12.079  54.363  1.00  0.00     0.169 HD
BRANCH  10  13
ATOM     13  C   UNL A   1       2.096  -9.975  54.596  1.00  0.00     0.035 A 
ATOM     14  C   UNL A   1       3.012  -8.941  54.404  1.00  0.00     0.056 A 
ATOM     15  C   UNL A   1       4.016  -8.716  55.346  1.00  0.00     0.103 A 
ATOM     16  C   UNL A   1       4.105  -9.526  56.478  1.00  0.00     0.108 A 
ATOM     17  C   UNL A   1       3.189 -10.560  56.669  1.00  0.00     0.041 A 
ATOM     18  C   UNL A   1       2.184 -10.785  55.728  1.00  0.00     0.020 A 
BRANCH  15  19
ATOM     19  O   UNL A   1       4.906  -7.704  55.149  1.00  0.00    -0.348 OA
BRANCH  19  20
ATOM     20  C   UNL A   1       4.464  -6.596  54.366  1.00  0.00     0.180 C 
BRANCH  20  21
ATOM     21  C   UNL A   1       4.158  -5.444  55.260  1.00  0.00     0.010 A 
ATOM     22  C   UNL A   1       3.099  -4.468  54.851  1.00  0.00     0.007 A 
ATOM     23  C   UNL A   1       2.851  -5.416  55.988  1.00  0.00     0.007 A 
ENDBRANCH  20  21
ENDBRANCH  19  20
ENDBRANCH  15  19
BRANCH  16  24
ATOM     24  O   UNL A   1       5.080  -9.316  57.405  1.00  0.00    -0.287 OA
BRANCH  24  25
ATOM     25  C   UNL A   1       5.605 -10.457  58.071  1.00  0.00     0.505 C 
ATOM     26  F   UNL A   1       6.922 -10.549  57.750  1.00  0.00    -0.184 F 
ATOM     27  F   UNL A   1       5.548 -10.256  59.410  1.00  0.00    -0.184 F 
ENDBRANCH  24  25
ENDBRANCH  16  24
ENDBRANCH  10  13
ENDBRANCH   4   9
TORSDOF 7
ENDMDL
MODEL 2
REMARK VINA RESULT:      -7.5      3.577      5.283
REMARK  7 active torsions:
REMARK  status: ('A' for Active; 'I' for Inactive)
REMARK    1  A    between atoms: O_5  and  C_13 
REMARK    2  A    between atoms: O_5  and  C_14 
REMARK    3  A    between atoms: O_6  and  C_15 
REMARK    4  A    between atoms: O_6  and  C_22 
REMARK       I    between atoms: N_8  and  C_20 
REMARK    5  A    between atoms: N_8  and  C_21 
REMARK    6  A    between atoms: C_10  and  C_13 
REMARK    7  A    between atoms: C_17  and  C_20 
ROOT
ATOM      1 CL   UNL A   1       4.388  -9.853  49.624  1.00  0.00    -0.080 Cl
ATOM      2 CL   UNL A   1       0.565  -6.299  51.257  1.00  0.00    -0.080 Cl
ATOM      3  N   UNL A   1       1.966  -7.364  47.693  1.00  0.00    -0.270 NA
ATOM      4  C   UNL A   1       2.459  -8.050  50.341  1.00  0.00     0.081 A 
ATOM      5  C   UNL A   1       3.178  -8.663  49.332  1.00  0.00     0.080 A 
ATOM      6  C   UNL A   1       1.497  -7.100  50.050  1.00  0.00     0.080 A 
ATOM      7  C   UNL A   1       2.896  -8.286  48.029  1.00  0.00     0.142 A 
ATOM      8  C   UNL A   1       1.289  -6.793  48.715  1.00  0.00     0.142 A 
ENDROOT
BRANCH   4   9
ATOM      9  N   UNL A   1       2.709  -8.401  51.690  1.00  0.00    -0.320 N 
ATOM     10  C   UNL A   1       3.647  -7.852  52.575  1.00  0.00     0.256 C 
ATOM     11  O   UNL A   1       4.436  -6.934  52.299  1.00  0.00    -0.267 OA
ATOM     12  H   UNL A   1       2.150  -9.126  52.054  1.00  0.00     0.169 HD
BRANCH  10  13
ATOM     13  C   UNL A   1       3.689  -8.444  53.903  1.00  0.00     0.035 A 
ATOM     14  C   UNL A   1       2.711  -9.361  54.289  1.00  0.00     0.056 A 
ATOM     15  C   UNL A   1       2.751  -9.927  55.564  1.00  0.00     0.103 A 
ATOM     16  C   UNL A   1       3.768  -9.577  56.451  1.00  0.00     0.108 A 
ATOM     17  C   UNL A   1       4.746  -8.660  56.065  1.00  0.00     0.041 A 
ATOM     18  C   UNL A   1       4.706  -8.093  54.791  1.00  0.00     0.020 A 
BRANCH  15  19
ATOM     19  O   UNL A   1       1.791 -10.821  55.930  1.00  0.00    -0.348 OA
BRANCH  19  20
ATOM     20  C   UNL A   1       1.259 -11.658  54.905  1.00  0.00     0.180 C 
BRANCH  20  21
ATOM     21  C   UNL A   1      -0.229 -11.650  54.978  1.00  0.00     0.010 A 
ATOM     22  C   UNL A   1      -0.912 -10.594  55.790  1.00  0.00     0.007 A 
ATOM     23  C   UNL A   1      -0.985 -10.554  54.293  1.00  0.00     0.007 A 
ENDBRANCH  20  21
ENDBRANCH  19  20
ENDBRANCH  15  19
BRANCH  16  24
ATOM     24  O   UNL A   1       3.819 -10.124  57.697  1.00  0.00    -0.287 OA
BRANCH  24  25
ATOM     25  C   UNL A   1       5.091 -10.192  58.330  1.00  0.00     0.505 C 
ATOM     26  F   UNL A   1       4.919  -9.854  59.634  1.00  0.00    -0.184 F 
ATOM     27  F   UNL A   1       5.525 -11.476  58.319  1.00  0.00    -0.184 F 
ENDBRANCH  24  25
ENDBRANCH  16  24
ENDBRANCH  10  13
ENDBRANCH   4   9
TORSDOF 7
ENDMDL
MODEL 3
REMARK VINA RESULT:      -7.5      3.577      5.039
REMARK  7 active torsions:
REMARK  status: ('A' for Active; 'I' for Inactive)
REMARK    1  A    between atoms: O_5  and  C_13 
REMARK    2  A    between atoms: O_5  and  C_14 
REMARK    3  A    between atoms: O_6  and  C_15 
REMARK    4  A    between atoms: O_6  and  C_22 
REMARK       I    between atoms: N_8  and  C_20 
REMARK    5  A    between atoms: N_8  and  C_21 
REMARK    6  A    between atoms: C_10  and  C_13 
REMARK    7  A    between atoms: C_17  and  C_20 
ROOT
ATOM      1 CL   UNL A   1       0.663  -6.215  51.361  1.00  0.00    -0.080 Cl
ATOM      2 CL   UNL A   1       4.392  -9.847  49.685  1.00  0.00    -0.080 Cl
ATOM      3  N   UNL A   1       2.063  -7.246  47.787  1.00  0.00    -0.270 NA
ATOM      4  C   UNL A   1       2.510  -8.003  50.423  1.00  0.00     0.081 A 
ATOM      5  C   UNL A   1       1.581  -7.018  50.145  1.00  0.00     0.080 A 
ATOM      6  C   UNL A   1       3.220  -8.616  49.408  1.00  0.00     0.080 A 
ATOM      7  C   UNL A   1       1.394  -6.677  48.815  1.00  0.00     0.142 A 
ATOM      8  C   UNL A   1       2.961  -8.203  48.111  1.00  0.00     0.142 A 
ENDROOT
BRANCH   4   9
ATOM      9  N   UNL A   1       2.739  -8.388  51.767  1.00  0.00    -0.320 N 
ATOM     10  C   UNL A   1       3.600  -7.806  52.708  1.00  0.00     0.256 C 
ATOM     11  O   UNL A   1       4.325  -6.820  52.497  1.00  0.00    -0.267 OA
ATOM     12  H   UNL A   1       2.226  -9.167  52.081  1.00  0.00     0.169 HD
BRANCH  10  13
ATOM     13  C   UNL A   1       3.641  -8.447  54.013  1.00  0.00     0.035 A 
ATOM     14  C   UNL A   1       2.738  -9.465  54.318  1.00  0.00     0.056 A 
ATOM     15  C   UNL A   1       2.777 -10.079  55.571  1.00  0.00     0.103 A 
ATOM     16  C   UNL A   1       3.718  -9.673  56.517  1.00  0.00     0.108 A 
ATOM     17  C   UNL A   1       4.621  -8.655  56.212  1.00  0.00     0.041 A 
ATOM     18  C   UNL A   1       4.582  -8.041  54.959  1.00  0.00     0.020 A 
BRANCH  15  19
ATOM     19  O   UNL A   1       1.891 -11.072  55.858  1.00  0.00    -0.348 OA
BRANCH  19  20
ATOM     20  C   UNL A   1       1.140 -11.606  54.770  1.00  0.00     0.180 C 
BRANCH  20  21
ATOM     21  C   UNL A   1      -0.307 -11.623  55.124  1.00  0.00     0.010 A 
ATOM     22  C   UNL A   1      -0.882 -10.472  55.888  1.00  0.00     0.007 A 
ATOM     23  C   UNL A   1      -1.233 -10.665  54.443  1.00  0.00     0.007 A 
ENDBRANCH  20  21
ENDBRANCH  19  20
ENDBRANCH  15  19
BRANCH  16  24
ATOM     24  O   UNL A   1       3.767 -10.266  57.743  1.00  0.00    -0.287 OA
BRANCH  24  25
ATOM     25  C   UNL A   1       5.022 -10.279  58.412  1.00  0.00     0.505 C 
ATOM     26  F   UNL A   1       4.802  -9.915  59.702  1.00  0.00    -0.184 F 
ATOM     27  F   UNL A   1       5.495 -11.549  58.446  1.00  0.00    -0.184 F 
ENDBRANCH  24  25
ENDBRANCH  16  24
ENDBRANCH  10  13
ENDBRANCH   4   9
TORSDOF 7
ENDMDL
MODEL 4
REMARK VINA RESULT:      -7.5      1.032      2.061
REMARK  7 active torsions:
REMARK  status: ('A' for Active; 'I' for Inactive)
REMARK    1  A    between atoms: O_5  and  C_13 
REMARK    2  A    between atoms: O_5  and  C_14 
REMARK    3  A    between atoms: O_6  and  C_15 
REMARK    4  A    between atoms: O_6  and  C_22 
REMARK       I    between atoms: N_8  and  C_20 
REMARK    5  A    between atoms: N_8  and  C_21 
REMARK    6  A    between atoms: C_10  and  C_13 
REMARK    7  A    between atoms: C_17  and  C_20 
ROOT
ATOM      1 CL   UNL A   1       2.477 -11.698  49.923  1.00  0.00    -0.080 Cl
ATOM      2 CL   UNL A   1      -1.824 -11.708  53.301  1.00  0.00    -0.080 Cl
ATOM      3  N   UNL A   1      -1.335 -12.737  49.493  1.00  0.00    -0.270 NA
ATOM      4  C   UNL A   1       0.266 -11.740  51.535  1.00  0.00     0.081 A 
ATOM      5  C   UNL A   1       0.819 -11.983  50.291  1.00  0.00     0.080 A 
ATOM      6  C   UNL A   1      -1.073 -11.986  51.777  1.00  0.00     0.080 A 
ATOM      7  C   UNL A   1      -0.021 -12.478  49.307  1.00  0.00     0.142 A 
ATOM      8  C   UNL A   1      -1.828 -12.483  50.726  1.00  0.00     0.142 A 
ENDROOT
BRANCH   4   9
ATOM      9  N   UNL A   1       1.082 -11.233  52.576  1.00  0.00    -0.320 N 
ATOM     10  C   UNL A   1       1.236  -9.905  52.997  1.00  0.00     0.256 C 
ATOM     11  O   UNL A   1       0.653  -8.927  52.499  1.00  0.00    -0.267 OA
ATOM     12  H   UNL A   1       1.611 -11.902  53.068  1.00  0.00     0.169 HD
BRANCH  10  13
ATOM     13  C   UNL A   1       2.176  -9.689  54.086  1.00  0.00     0.035 A 
ATOM     14  C   UNL A   1       3.106  -8.652  54.008  1.00  0.00     0.056 A 
ATOM     15  C   UNL A   1       4.008  -8.446  55.053  1.00  0.00     0.103 A 
ATOM     16  C   UNL A   1       3.979  -9.276  56.173  1.00  0.00     0.108 A 
ATOM     17  C   UNL A   1       3.049 -10.312  56.251  1.00  0.00     0.041 A 
ATOM     18  C   UNL A   1       2.147 -10.518  55.206  1.00  0.00     0.020 A 
BRANCH  15  19
ATOM     19  O   UNL A   1       4.912  -7.432  54.966  1.00  0.00    -0.348 OA
BRANCH  19  20
ATOM     20  C   UNL A   1       4.548  -6.304  54.172  1.00  0.00     0.180 C 
BRANCH  20  21
ATOM     21  C   UNL A   1       4.198  -5.161  55.061  1.00  0.00     0.010 A 
ATOM     22  C   UNL A   1       2.816  -4.588  54.998  1.00  0.00     0.007 A 
ATOM     23  C   UNL A   1       3.246  -5.385  56.194  1.00  0.00     0.007 A 
ENDBRANCH  20  21
ENDBRANCH  19  20
ENDBRANCH  15  19
BRANCH  16  24
ATOM     24  O   UNL A   1       4.854  -9.084  57.200  1.00  0.00    -0.287 OA
BRANCH  24  25
ATOM     25  C   UNL A   1       5.133 -10.198  58.037  1.00  0.00     0.505 C 
ATOM     26  F   UNL A   1       6.454 -10.490  57.903  1.00  0.00    -0.184 F 
ATOM     27  F   UNL A   1       4.947  -9.841  59.331  1.00  0.00    -0.184 F 
ENDBRANCH  24  25
ENDBRANCH  16  24
ENDBRANCH  10  13
ENDBRANCH   4   9
TORSDOF 7
ENDMDL
MODEL 5
REMARK VINA RESULT:      -7.5      4.699      5.812
REMARK  7 active torsions:
REMARK  status: ('A' for Active; 'I' for Inactive)
REMARK    1  A    between atoms: O_5  and  C_13 
REMARK    2  A    between atoms: O_5  and  C_14 
REMARK    3  A    between atoms: O_6  and  C_15 
REMARK    4  A    between atoms: O_6  and  C_22 
REMARK       I    between atoms: N_8  and  C_20 
REMARK    5  A    between atoms: N_8  and  C_21 
REMARK    6  A    between atoms: C_10  and  C_13 
REMARK    7  A    between atoms: C_17  and  C_20 
ROOT
ATOM      1 CL   UNL A   1       4.368  -4.614  50.240  1.00  0.00    -0.080 Cl
ATOM      2 CL   UNL A   1      -0.481  -6.682  48.784  1.00  0.00    -0.080 Cl
ATOM      3  N   UNL A   1       1.925  -3.959  47.175  1.00  0.00    -0.270 NA
ATOM      4  C   UNL A   1       1.943  -5.587  49.427  1.00  0.00     0.081 A 
ATOM      5  C   UNL A   1       3.005  -4.733  49.195  1.00  0.00     0.080 A 
ATOM      6  C   UNL A   1       0.872  -5.642  48.554  1.00  0.00     0.080 A 
ATOM      7  C   UNL A   1       2.948  -3.941  48.058  1.00  0.00     0.142 A 
ATOM      8  C   UNL A   1       0.911  -4.810  47.446  1.00  0.00     0.142 A 
ENDROOT
BRANCH   4   9
ATOM      9  N   UNL A   1       1.952  -6.417  50.575  1.00  0.00    -0.320 N 
ATOM     10  C   UNL A   1       2.482  -7.707  50.714  1.00  0.00     0.256 C 
ATOM     11  O   UNL A   1       3.050  -8.347  49.813  1.00  0.00    -0.267 OA
ATOM     12  H   UNL A   1       1.531  -6.038  51.380  1.00  0.00     0.169 HD
BRANCH  10  13
ATOM     13  C   UNL A   1       2.315  -8.325  52.021  1.00  0.00     0.035 A 
ATOM     14  C   UNL A   1       2.491  -7.566  53.178  1.00  0.00     0.056 A 
ATOM     15  C   UNL A   1       2.332  -8.159  54.431  1.00  0.00     0.103 A 
ATOM     16  C   UNL A   1       1.997  -9.509  54.526  1.00  0.00     0.108 A 
ATOM     17  C   UNL A   1       1.821 -10.268  53.369  1.00  0.00     0.041 A 
ATOM     18  C   UNL A   1       1.981  -9.675  52.116  1.00  0.00     0.020 A 
BRANCH  15  19
ATOM     19  O   UNL A   1       2.506  -7.409  55.554  1.00  0.00    -0.348 OA
BRANCH  19  20
ATOM     20  C   UNL A   1       3.845  -7.057  55.897  1.00  0.00     0.180 C 
BRANCH  20  21
ATOM     21  C   UNL A   1       3.922  -5.594  56.172  1.00  0.00     0.010 A 
ATOM     22  C   UNL A   1       3.861  -4.635  55.024  1.00  0.00     0.007 A 
ATOM     23  C   UNL A   1       2.701  -4.752  55.968  1.00  0.00     0.007 A 
ENDBRANCH  20  21
ENDBRANCH  19  20
ENDBRANCH  15  19
BRANCH  16  24
ATOM     24  O   UNL A   1       1.838 -10.099  55.743  1.00  0.00    -0.287 OA
BRANCH  24  25
ATOM     25  C   UNL A   1       2.992 -10.663  56.353  1.00  0.00     0.505 C 
ATOM     26  F   UNL A   1       3.214  -9.990  57.512  1.00  0.00    -0.184 F 
ATOM     27  F   UNL A   1       2.731 -11.948  56.697  1.00  0.00    -0.184 F 
ENDBRANCH  24  25
ENDBRANCH  16  24
ENDBRANCH  10  13
ENDBRANCH   4   9
TORSDOF 7
ENDMDL
MODEL 6
REMARK VINA RESULT:      -7.4      2.169      2.654
REMARK  7 active torsions:
REMARK  status: ('A' for Active; 'I' for Inactive)
REMARK    1  A    between atoms: O_5  and  C_13 
REMARK    2  A    between atoms: O_5  and  C_14 
REMARK    3  A    between atoms: O_6  and  C_15 
REMARK    4  A    between atoms: O_6  and  C_22 
REMARK       I    between atoms: N_8  and  C_20 
REMARK    5  A    between atoms: N_8  and  C_21 
REMARK    6  A    between atoms: C_10  and  C_13 
REMARK    7  A    between atoms: C_17  and  C_20 
ROOT
ATOM      1 CL   UNL A   1       1.368 -12.594  50.902  1.00  0.00    -0.080 Cl
ATOM      2 CL   UNL A   1       0.586  -7.181  50.876  1.00  0.00    -0.080 Cl
ATOM      3  N   UNL A   1      -0.481 -10.110  48.411  1.00  0.00    -0.270 NA
ATOM      4  C   UNL A   1       0.924  -9.896  50.799  1.00  0.00     0.081 A 
ATOM      5  C   UNL A   1       0.751 -11.139  50.219  1.00  0.00     0.080 A 
ATOM      6  C   UNL A   1       0.408  -8.758  50.207  1.00  0.00     0.080 A 
ATOM      7  C   UNL A   1       0.044 -11.193  49.029  1.00  0.00     0.142 A 
ATOM      8  C   UNL A   1      -0.285  -8.919  49.018  1.00  0.00     0.142 A 
ENDROOT
BRANCH   4   9
ATOM      9  N   UNL A   1       1.639  -9.787  52.017  1.00  0.00    -0.320 N 
ATOM     10  C   UNL A   1       1.144  -9.829  53.328  1.00  0.00     0.256 C 
ATOM     11  O   UNL A   1      -0.051  -9.976  53.633  1.00  0.00    -0.267 OA
ATOM     12  H   UNL A   1       2.613  -9.665  51.931  1.00  0.00     0.169 HD
BRANCH  10  13
ATOM     13  C   UNL A   1       2.129  -9.660  54.385  1.00  0.00     0.035 A 
ATOM     14  C   UNL A   1       3.017  -8.586  54.344  1.00  0.00     0.056 A 
ATOM     15  C   UNL A   1       3.962  -8.425  55.358  1.00  0.00     0.103 A 
ATOM     16  C   UNL A   1       4.018  -9.338  56.411  1.00  0.00     0.108 A 
ATOM     17  C   UNL A   1       3.130 -10.412  56.451  1.00  0.00     0.041 A 
ATOM     18  C   UNL A   1       2.185 -10.573  55.437  1.00  0.00     0.020 A 
BRANCH  15  19
ATOM     19  O   UNL A   1       4.825  -7.373  55.308  1.00  0.00    -0.348 OA
BRANCH  19  20
ATOM     20  C   UNL A   1       4.533  -6.338  54.371  1.00  0.00     0.180 C 
BRANCH  20  21
ATOM     21  C   UNL A   1       4.133  -5.102  55.102  1.00  0.00     0.010 A 
ATOM     22  C   UNL A   1       2.745  -4.570  54.925  1.00  0.00     0.007 A 
ATOM     23  C   UNL A   1       3.146  -5.207  56.222  1.00  0.00     0.007 A 
ENDBRANCH  20  21
ENDBRANCH  19  20
ENDBRANCH  15  19
BRANCH  16  24
ATOM     24  O   UNL A   1       4.936  -9.190  57.407  1.00  0.00    -0.287 OA
BRANCH  24  25
ATOM     25  C   UNL A   1       5.149 -10.301  58.269  1.00  0.00     0.505 C 
ATOM     26  F   UNL A   1       6.452 -10.665  58.153  1.00  0.00    -0.184 F 
ATOM     27  F   UNL A   1       4.970  -9.908  59.553  1.00  0.00    -0.184 F 
ENDBRANCH  24  25
ENDBRANCH  16  24
ENDBRANCH  10  13
ENDBRANCH   4   9
TORSDOF 7
ENDMDL
MODEL 7
REMARK VINA RESULT:      -7.4      2.683      2.901
REMARK  7 active torsions:
REMARK  status: ('A' for Active; 'I' for Inactive)
REMARK    1  A    between atoms: O_5  and  C_13 
REMARK    2  A    between atoms: O_5  and  C_14 
REMARK    3  A    between atoms: O_6  and  C_15 
REMARK    4  A    between atoms: O_6  and  C_22 
REMARK       I    between atoms: N_8  and  C_20 
REMARK    5  A    between atoms: N_8  and  C_21 
REMARK    6  A    between atoms: C_10  and  C_13 
REMARK    7  A    between atoms: C_17  and  C_20 
ROOT
ATOM      1 CL   UNL A   1       0.512  -6.405  51.013  1.00  0.00    -0.080 Cl
ATOM      2 CL   UNL A   1       1.929 -11.602  50.067  1.00  0.00    -0.080 Cl
ATOM      3  N   UNL A   1      -0.113  -8.902  47.985  1.00  0.00    -0.270 NA
ATOM      4  C   UNL A   1       1.172  -8.999  50.448  1.00  0.00     0.081 A 
ATOM      5  C   UNL A   1       0.545  -7.833  50.052  1.00  0.00     0.080 A 
ATOM      6  C   UNL A   1       1.168 -10.118  49.636  1.00  0.00     0.080 A 
ATOM      7  C   UNL A   1      -0.082  -7.835  48.816  1.00  0.00     0.142 A 
ATOM      8  C   UNL A   1       0.514 -10.018  48.418  1.00  0.00     0.142 A 
ENDROOT
BRANCH   4   9
ATOM      9  N   UNL A   1       1.828  -9.049  51.702  1.00  0.00    -0.320 N 
ATOM     10  C   UNL A   1       1.372  -9.607  52.905  1.00  0.00     0.256 C 
ATOM     11  O   UNL A   1       0.274 -10.167  53.060  1.00  0.00    -0.267 OA
ATOM     12  H   UNL A   1       2.722  -8.638  51.733  1.00  0.00     0.169 HD
BRANCH  10  13
ATOM     13  C   UNL A   1       2.267  -9.479  54.044  1.00  0.00     0.035 A 
ATOM     14  C   UNL A   1       3.163  -8.412  54.110  1.00  0.00     0.056 A 
ATOM     15  C   UNL A   1       4.023  -8.291  55.203  1.00  0.00     0.103 A 
ATOM     16  C   UNL A   1       3.986  -9.237  56.227  1.00  0.00     0.108 A 
ATOM     17  C   UNL A   1       3.090 -10.304  56.161  1.00  0.00     0.041 A 
ATOM     18  C   UNL A   1       2.231 -10.425  55.068  1.00  0.00     0.020 A 
BRANCH  15  19
ATOM     19  O   UNL A   1       4.894  -7.246  55.258  1.00  0.00    -0.348 OA
BRANCH  19  20
ATOM     20  C   UNL A   1       4.671  -6.169  54.350  1.00  0.00     0.180 C 
BRANCH  20  21
ATOM     21  C   UNL A   1       4.164  -4.984  55.097  1.00  0.00     0.010 A 
ATOM     22  C   UNL A   1       2.728  -4.588  54.943  1.00  0.00     0.007 A 
ATOM     23  C   UNL A   1       3.207  -5.193  56.229  1.00  0.00     0.007 A 
ENDBRANCH  20  21
ENDBRANCH  19  20
ENDBRANCH  15  19
BRANCH  16  24
ATOM     24  O   UNL A   1       4.819  -9.129  57.299  1.00  0.00    -0.287 OA
BRANCH  24  25
ATOM     25  C   UNL A   1       5.060 -10.306  58.061  1.00  0.00     0.505 C 
ATOM     26  F   UNL A   1       6.353 -10.669  57.856  1.00  0.00    -0.184 F 
ATOM     27  F   UNL A   1       4.946 -10.013  59.380  1.00  0.00    -0.184 F 
ENDBRANCH  24  25
ENDBRANCH  16  24
ENDBRANCH  10  13
ENDBRANCH   4   9
TORSDOF 7
ENDMDL
MODEL 8
REMARK VINA RESULT:      -7.4      3.404      4.213
REMARK  7 active torsions:
REMARK  status: ('A' for Active; 'I' for Inactive)
REMARK    1  A    between atoms: O_5  and  C_13 
REMARK    2  A    between atoms: O_5  and  C_14 
REMARK    3  A    between atoms: O_6  and  C_15 
REMARK    4  A    between atoms: O_6  and  C_22 
REMARK       I    between atoms: N_8  and  C_20 
REMARK    5  A    between atoms: N_8  and  C_21 
REMARK    6  A    between atoms: C_10  and  C_13 
REMARK    7  A    between atoms: C_17  and  C_20 
ROOT
ATOM      1 CL   UNL A   1       4.023 -10.221  49.512  1.00  0.00    -0.080 Cl
ATOM      2 CL   UNL A   1       0.595  -6.220  50.977  1.00  0.00    -0.080 Cl
ATOM      3  N   UNL A   1       1.968  -7.499  47.473  1.00  0.00    -0.270 NA
ATOM      4  C   UNL A   1       2.297  -8.194  50.144  1.00  0.00     0.081 A 
ATOM      5  C   UNL A   1       2.970  -8.904  49.167  1.00  0.00     0.080 A 
ATOM      6  C   UNL A   1       1.463  -7.143  49.811  1.00  0.00     0.080 A 
ATOM      7  C   UNL A   1       2.773  -8.518  47.851  1.00  0.00     0.142 A 
ATOM      8  C   UNL A   1       1.332  -6.837  48.466  1.00  0.00     0.142 A 
ENDROOT
BRANCH   4   9
ATOM      9  N   UNL A   1       2.464  -8.549  51.505  1.00  0.00    -0.320 N 
ATOM     10  C   UNL A   1       1.724  -9.465  52.266  1.00  0.00     0.256 C 
ATOM     11  O   UNL A   1       0.767 -10.135  51.843  1.00  0.00    -0.267 OA
ATOM     12  H   UNL A   1       3.196  -8.092  51.979  1.00  0.00     0.169 HD
BRANCH  10  13
ATOM     13  C   UNL A   1       2.118  -9.598  53.660  1.00  0.00     0.035 A 
ATOM     14  C   UNL A   1       2.822  -8.569  54.286  1.00  0.00     0.056 A 
ATOM     15  C   UNL A   1       3.200  -8.698  55.623  1.00  0.00     0.103 A 
ATOM     16  C   UNL A   1       2.876  -9.854  56.332  1.00  0.00     0.108 A 
ATOM     17  C   UNL A   1       2.172 -10.883  55.705  1.00  0.00     0.041 A 
ATOM     18  C   UNL A   1       1.794 -10.754  54.369  1.00  0.00     0.020 A 
BRANCH  15  19
ATOM     19  O   UNL A   1       3.887  -7.688  56.225  1.00  0.00    -0.348 OA
BRANCH  19  20
ATOM     20  C   UNL A   1       4.516  -6.733  55.372  1.00  0.00     0.180 C 
BRANCH  20  21
ATOM     21  C   UNL A   1       4.081  -5.360  55.754  1.00  0.00     0.010 A 
ATOM     22  C   UNL A   1       3.373  -4.514  54.741  1.00  0.00     0.007 A 
ATOM     23  C   UNL A   1       2.619  -5.078  55.908  1.00  0.00     0.007 A 
ENDBRANCH  20  21
ENDBRANCH  19  20
ENDBRANCH  15  19
BRANCH  16  24
ATOM     24  O   UNL A   1       3.239  -9.991  57.638  1.00  0.00    -0.287 OA
BRANCH  24  25
ATOM     25  C   UNL A   1       4.594 -10.328  57.907  1.00  0.00     0.505 C 
ATOM     26  F   UNL A   1       4.850  -9.995  59.199  1.00  0.00    -0.184 F 
ATOM     27  F   UNL A   1       4.744 -11.672  57.819  1.00  0.00    -0.184 F 
ENDBRANCH  24  25
ENDBRANCH  16  24
ENDBRANCH  10  13
ENDBRANCH   4   9
TORSDOF 7
ENDMDL
MODEL 9
REMARK VINA RESULT:      -7.2      2.274      4.257
REMARK  7 active torsions:
REMARK  status: ('A' for Active; 'I' for Inactive)
REMARK    1  A    between atoms: O_5  and  C_13 
REMARK    2  A    between atoms: O_5  and  C_14 
REMARK    3  A    between atoms: O_6  and  C_15 
REMARK    4  A    between atoms: O_6  and  C_22 
REMARK       I    between atoms: N_8  and  C_20 
REMARK    5  A    between atoms: N_8  and  C_21 
REMARK    6  A    between atoms: C_10  and  C_13 
REMARK    7  A    between atoms: C_17  and  C_20 
ROOT
ATOM      1 CL   UNL A   1       1.905 -12.838  50.247  1.00  0.00    -0.080 Cl
ATOM      2 CL   UNL A   1      -2.254 -11.527  53.548  1.00  0.00    -0.080 Cl
ATOM      3  N   UNL A   1      -1.816 -14.180  50.621  1.00  0.00    -0.270 NA
ATOM      4  C   UNL A   1      -0.234 -12.255  51.851  1.00  0.00     0.081 A 
ATOM      5  C   UNL A   1       0.293 -13.015  50.823  1.00  0.00     0.080 A 
ATOM      6  C   UNL A   1      -1.537 -12.439  52.274  1.00  0.00     0.080 A 
ATOM      7  C   UNL A   1      -0.537 -13.961  50.242  1.00  0.00     0.142 A 
ATOM      8  C   UNL A   1      -2.284 -13.411  51.629  1.00  0.00     0.142 A 
ENDROOT
BRANCH   4   9
ATOM      9  N   UNL A   1       0.573 -11.274  52.478  1.00  0.00    -0.320 N 
ATOM     10  C   UNL A   1       1.132 -11.296  53.764  1.00  0.00     0.256 C 
ATOM     11  O   UNL A   1       0.999 -12.219  54.584  1.00  0.00    -0.267 OA
ATOM     12  H   UNL A   1       0.766 -10.472  51.941  1.00  0.00     0.169 HD
BRANCH  10  13
ATOM     13  C   UNL A   1       1.900 -10.119  54.142  1.00  0.00     0.035 A 
ATOM     14  C   UNL A   1       2.749 -10.167  55.247  1.00  0.00     0.056 A 
ATOM     15  C   UNL A   1       3.484  -9.038  55.610  1.00  0.00     0.103 A 
ATOM     16  C   UNL A   1       3.370  -7.863  54.868  1.00  0.00     0.108 A 
ATOM     17  C   UNL A   1       2.520  -7.815  53.763  1.00  0.00     0.041 A 
ATOM     18  C   UNL A   1       1.785  -8.944  53.400  1.00  0.00     0.020 A 
BRANCH  15  19
ATOM     19  O   UNL A   1       4.310  -9.095  56.691  1.00  0.00    -0.348 OA
BRANCH  19  20
ATOM     20  C   UNL A   1       3.871  -9.874  57.802  1.00  0.00     0.180 C 
BRANCH  20  21
ATOM     21  C   UNL A   1       5.051 -10.318  58.597  1.00  0.00     0.010 A 
ATOM     22  C   UNL A   1       5.584 -11.703  58.395  1.00  0.00     0.007 A 
ATOM     23  C   UNL A   1       6.362 -10.517  57.903  1.00  0.00     0.007 A 
ENDBRANCH  20  21
ENDBRANCH  19  20
ENDBRANCH  15  19
BRANCH  16  24
ATOM     24  O   UNL A   1       4.083  -6.754  55.212  1.00  0.00    -0.287 OA
BRANCH  24  25
ATOM     25  C   UNL A   1       3.459  -5.491  55.023  1.00  0.00     0.505 C 
ATOM     26  F   UNL A   1       2.613  -5.292  56.068  1.00  0.00    -0.184 F 
ATOM     27  F   UNL A   1       4.397  -4.516  55.095  1.00  0.00    -0.184 F 
ENDBRANCH  24  25
ENDBRANCH  16  24
ENDBRANCH  10  13
ENDBRANCH   4   9
TORSDOF 7
ENDMDL
