MODEL 1
REMARK VINA RESULT:      -7.8      0.000      0.000
REMARK  7 active torsions:
REMARK  status: ('A' for Active; 'I' for Inactive)
REMARK    1  A    between atoms: O_5  and  C_13 
REMARK    2  A    between atoms: O_5  and  C_14 
REMARK    3  A    between atoms: O_6  and  C_15 
REMARK    4  A    between atoms: O_6  and  C_22 
REMARK       I    between atoms: N_8  and  C_20 
REMARK    5  A    between atoms: N_8  and  C_21 
REMARK    6  A    between atoms: C_10  and  C_13 
REMARK    7  A    between atoms: C_17  and  C_20 
ROOT
ATOM      1 CL   UNL A   1       2.736  -3.346  53.444  1.00  0.00    -0.080 Cl
ATOM      2 CL   UNL A   1       7.660  -1.000  53.040  1.00  0.00    -0.080 Cl
ATOM      3  N   UNL A   1       4.563  -1.303  50.567  1.00  0.00    -0.270 NA
ATOM      4  C   UNL A   1       5.175  -2.142  53.145  1.00  0.00     0.081 A 
ATOM      5  C   UNL A   1       3.942  -2.451  52.602  1.00  0.00     0.080 A 
ATOM      6  C   UNL A   1       6.108  -1.420  52.423  1.00  0.00     0.080 A 
ATOM      7  C   UNL A   1       3.686  -2.011  51.313  1.00  0.00     0.142 A 
ATOM      8  C   UNL A   1       5.754  -1.026  51.143  1.00  0.00     0.142 A 
ENDROOT
BRANCH   4   9
ATOM      9  N   UNL A   1       5.486  -2.568  54.460  1.00  0.00    -0.320 N 
ATOM     10  C   UNL A   1       5.485  -1.818  55.644  1.00  0.00     0.256 C 
ATOM     11  O   UNL A   1       5.197  -0.612  55.724  1.00  0.00    -0.267 OA
ATOM     12  H   UNL A   1       5.737  -3.515  54.553  1.00  0.00     0.169 HD
BRANCH  10  13
ATOM     13  C   UNL A   1       5.879  -2.532  56.848  1.00  0.00     0.035 A 
ATOM     14  C   UNL A   1       4.951  -3.321  57.527  1.00  0.00     0.056 A 
ATOM     15  C   UNL A   1       5.330  -4.005  58.682  1.00  0.00     0.103 A 
ATOM     16  C   UNL A   1       6.637  -3.900  59.158  1.00  0.00     0.108 A 
ATOM     17  C   UNL A   1       7.565  -3.111  58.479  1.00  0.00     0.041 A 
ATOM     18  C   UNL A   1       7.186  -2.427  57.324  1.00  0.00     0.020 A 
BRANCH  15  19
ATOM     19  O   UNL A   1       4.415  -4.773  59.337  1.00  0.00    -0.348 OA
BRANCH  19  20
ATOM     20  C   UNL A   1       4.133  -6.057  58.786  1.00  0.00     0.180 C 
BRANCH  20  21
ATOM     21  C   UNL A   1       2.659  -6.224  58.641  1.00  0.00     0.010 A 
ATOM     22  C   UNL A   1       1.752  -5.143  59.141  1.00  0.00     0.007 A 
ATOM     23  C   UNL A   1       1.922  -5.360  57.667  1.00  0.00     0.007 A 
ENDBRANCH  20  21
ENDBRANCH  19  20
ENDBRANCH  15  19
BRANCH  16  24
ATOM     24  O   UNL A   1       7.019  -4.564  60.284  1.00  0.00    -0.287 OA
BRANCH  24  25
ATOM     25  C   UNL A   1       8.292  -4.244  60.831  1.00  0.00     0.505 C 
ATOM     26  F   UNL A   1       8.090  -3.387  61.866  1.00  0.00    -0.184 F 
ATOM     27  F   UNL A   1       8.844  -5.364  61.360  1.00  0.00    -0.184 F 
ENDBRANCH  24  25
ENDBRANCH  16  24
ENDBRANCH  10  13
ENDBRANCH   4   9
TORSDOF 7
ENDMDL
MODEL 2
REMARK VINA RESULT:      -7.7      0.094      1.778
REMARK  7 active torsions:
REMARK  status: ('A' for Active; 'I' for Inactive)
REMARK    1  A    between atoms: O_5  and  C_13 
REMARK    2  A    between atoms: O_5  and  C_14 
REMARK    3  A    between atoms: O_6  and  C_15 
REMARK    4  A    between atoms: O_6  and  C_22 
REMARK       I    between atoms: N_8  and  C_20 
REMARK    5  A    between atoms: N_8  and  C_21 
REMARK    6  A    between atoms: C_10  and  C_13 
REMARK    7  A    between atoms: C_17  and  C_20 
ROOT
ATOM      1 CL   UNL A   1       7.655  -1.002  52.959  1.00  0.00    -0.080 Cl
ATOM      2 CL   UNL A   1       2.709  -3.293  53.409  1.00  0.00    -0.080 Cl
ATOM      3  N   UNL A   1       4.552  -1.315  50.495  1.00  0.00    -0.270 NA
ATOM      4  C   UNL A   1       5.159  -2.117  53.086  1.00  0.00     0.081 A 
ATOM      5  C   UNL A   1       6.098  -1.417  52.352  1.00  0.00     0.080 A 
ATOM      6  C   UNL A   1       3.923  -2.424  52.549  1.00  0.00     0.080 A 
ATOM      7  C   UNL A   1       5.747  -1.039  51.066  1.00  0.00     0.142 A 
ATOM      8  C   UNL A   1       3.669  -2.002  51.254  1.00  0.00     0.142 A 
ENDROOT
BRANCH   4   9
ATOM      9  N   UNL A   1       5.469  -2.527  54.407  1.00  0.00    -0.320 N 
ATOM     10  C   UNL A   1       5.442  -1.768  55.585  1.00  0.00     0.256 C 
ATOM     11  O   UNL A   1       5.130  -0.568  55.653  1.00  0.00    -0.267 OA
ATOM     12  H   UNL A   1       5.738  -3.468  54.509  1.00  0.00     0.169 HD
BRANCH  10  13
ATOM     13  C   UNL A   1       5.842  -2.465  56.798  1.00  0.00     0.035 A 
ATOM     14  C   UNL A   1       4.925  -3.269  57.474  1.00  0.00     0.056 A 
ATOM     15  C   UNL A   1       5.308  -3.936  58.638  1.00  0.00     0.103 A 
ATOM     16  C   UNL A   1       6.608  -3.799  59.124  1.00  0.00     0.108 A 
ATOM     17  C   UNL A   1       7.525  -2.995  58.448  1.00  0.00     0.041 A 
ATOM     18  C   UNL A   1       7.142  -2.327  57.284  1.00  0.00     0.020 A 
BRANCH  15  19
ATOM     19  O   UNL A   1       4.405  -4.719  59.290  1.00  0.00    -0.348 OA
BRANCH  19  20
ATOM     20  C   UNL A   1       4.142  -6.006  58.735  1.00  0.00     0.180 C 
BRANCH  20  21
ATOM     21  C   UNL A   1       2.672  -6.192  58.580  1.00  0.00     0.010 A 
ATOM     22  C   UNL A   1       1.748  -5.126  59.081  1.00  0.00     0.007 A 
ATOM     23  C   UNL A   1       1.929  -5.332  57.606  1.00  0.00     0.007 A 
ENDBRANCH  20  21
ENDBRANCH  19  20
ENDBRANCH  15  19
BRANCH  16  24
ATOM     24  O   UNL A   1       6.995  -4.446  60.259  1.00  0.00    -0.287 OA
BRANCH  24  25
ATOM     25  C   UNL A   1       8.273  -4.123  60.792  1.00  0.00     0.505 C 
ATOM     26  F   UNL A   1       8.074  -3.391  61.919  1.00  0.00    -0.184 F 
ATOM     27  F   UNL A   1       8.895  -5.264  61.179  1.00  0.00    -0.184 F 
ENDBRANCH  24  25
ENDBRANCH  16  24
ENDBRANCH  10  13
ENDBRANCH   4   9
TORSDOF 7
ENDMDL
MODEL 3
REMARK VINA RESULT:      -7.5      1.110      2.093
REMARK  7 active torsions:
REMARK  status: ('A' for Active; 'I' for Inactive)
REMARK    1  A    between atoms: O_5  and  C_13 
REMARK    2  A    between atoms: O_5  and  C_14 
REMARK    3  A    between atoms: O_6  and  C_15 
REMARK    4  A    between atoms: O_6  and  C_22 
REMARK       I    between atoms: N_8  and  C_20 
REMARK    5  A    between atoms: N_8  and  C_21 
REMARK    6  A    between atoms: C_10  and  C_13 
REMARK    7  A    between atoms: C_17  and  C_20 
ROOT
ATOM      1 CL   UNL A   1       7.329  -0.860  52.725  1.00  0.00    -0.080 Cl
ATOM      2 CL   UNL A   1       2.436  -3.204  53.417  1.00  0.00    -0.080 Cl
ATOM      3  N   UNL A   1       4.139  -1.270  50.391  1.00  0.00    -0.270 NA
ATOM      4  C   UNL A   1       4.856  -2.004  52.974  1.00  0.00     0.081 A 
ATOM      5  C   UNL A   1       5.756  -1.309  52.188  1.00  0.00     0.080 A 
ATOM      6  C   UNL A   1       3.604  -2.339  52.492  1.00  0.00     0.080 A 
ATOM      7  C   UNL A   1       5.351  -0.966  50.908  1.00  0.00     0.142 A 
ATOM      8  C   UNL A   1       3.295  -1.950  51.199  1.00  0.00     0.142 A 
ENDROOT
BRANCH   4   9
ATOM      9  N   UNL A   1       5.222  -2.379  54.290  1.00  0.00    -0.320 N 
ATOM     10  C   UNL A   1       5.693  -3.618  54.746  1.00  0.00     0.256 C 
ATOM     11  O   UNL A   1       5.869  -4.620  54.033  1.00  0.00    -0.267 OA
ATOM     12  H   UNL A   1       5.133  -1.677  54.974  1.00  0.00     0.169 HD
BRANCH  10  13
ATOM     13  C   UNL A   1       5.962  -3.709  56.173  1.00  0.00     0.035 A 
ATOM     14  C   UNL A   1       5.115  -4.453  56.995  1.00  0.00     0.056 A 
ATOM     15  C   UNL A   1       5.373  -4.539  58.364  1.00  0.00     0.103 A 
ATOM     16  C   UNL A   1       6.476  -3.882  58.908  1.00  0.00     0.108 A 
ATOM     17  C   UNL A   1       7.323  -3.139  58.086  1.00  0.00     0.041 A 
ATOM     18  C   UNL A   1       7.065  -3.053  56.717  1.00  0.00     0.020 A 
BRANCH  15  19
ATOM     19  O   UNL A   1       4.540  -5.267  59.158  1.00  0.00    -0.348 OA
BRANCH  19  20
ATOM     20  C   UNL A   1       3.859  -6.362  58.550  1.00  0.00     0.180 C 
BRANCH  20  21
ATOM     21  C   UNL A   1       2.399  -6.259  58.831  1.00  0.00     0.010 A 
ATOM     22  C   UNL A   1       1.825  -4.930  59.215  1.00  0.00     0.007 A 
ATOM     23  C   UNL A   1       1.524  -5.519  57.868  1.00  0.00     0.007 A 
ENDBRANCH  20  21
ENDBRANCH  19  20
ENDBRANCH  15  19
BRANCH  16  24
ATOM     24  O   UNL A   1       6.739  -3.960  60.243  1.00  0.00    -0.287 OA
BRANCH  24  25
ATOM     25  C   UNL A   1       8.103  -3.914  60.644  1.00  0.00     0.505 C 
ATOM     26  F   UNL A   1       8.138  -3.464  61.925  1.00  0.00    -0.184 F 
ATOM     27  F   UNL A   1       8.603  -5.174  60.664  1.00  0.00    -0.184 F 
ENDBRANCH  24  25
ENDBRANCH  16  24
ENDBRANCH  10  13
ENDBRANCH   4   9
TORSDOF 7
ENDMDL
MODEL 4
REMARK VINA RESULT:      -7.5      2.346      3.905
REMARK  7 active torsions:
REMARK  status: ('A' for Active; 'I' for Inactive)
REMARK    1  A    between atoms: O_5  and  C_13 
REMARK    2  A    between atoms: O_5  and  C_14 
REMARK    3  A    between atoms: O_6  and  C_15 
REMARK    4  A    between atoms: O_6  and  C_22 
REMARK       I    between atoms: N_8  and  C_20 
REMARK    5  A    between atoms: N_8  and  C_21 
REMARK    6  A    between atoms: C_10  and  C_13 
REMARK    7  A    between atoms: C_17  and  C_20 
ROOT
ATOM      1 CL   UNL A   1       6.061  -6.096  52.217  1.00  0.00    -0.080 Cl
ATOM      2 CL   UNL A   1       2.390  -2.214  53.384  1.00  0.00    -0.080 Cl
ATOM      3  N   UNL A   1       3.181  -4.336  50.118  1.00  0.00    -0.270 NA
ATOM      4  C   UNL A   1       4.188  -4.162  52.703  1.00  0.00     0.081 A 
ATOM      5  C   UNL A   1       4.748  -5.058  51.812  1.00  0.00     0.080 A 
ATOM      6  C   UNL A   1       3.134  -3.350  52.325  1.00  0.00     0.080 A 
ATOM      7  C   UNL A   1       4.211  -5.107  50.536  1.00  0.00     0.142 A 
ATOM      8  C   UNL A   1       2.668  -3.476  51.026  1.00  0.00     0.142 A 
ENDROOT
BRANCH   4   9
ATOM      9  N   UNL A   1       4.700  -4.073  54.021  1.00  0.00    -0.320 N 
ATOM     10  C   UNL A   1       4.350  -4.832  55.146  1.00  0.00     0.256 C 
ATOM     11  O   UNL A   1       3.501  -5.739  55.159  1.00  0.00    -0.267 OA
ATOM     12  H   UNL A   1       5.392  -3.388  54.165  1.00  0.00     0.169 HD
BRANCH  10  13
ATOM     13  C   UNL A   1       5.036  -4.489  56.382  1.00  0.00     0.035 A 
ATOM     14  C   UNL A   1       5.984  -3.465  56.392  1.00  0.00     0.056 A 
ATOM     15  C   UNL A   1       6.642  -3.137  57.577  1.00  0.00     0.103 A 
ATOM     16  C   UNL A   1       6.353  -3.832  58.751  1.00  0.00     0.108 A 
ATOM     17  C   UNL A   1       5.406  -4.856  58.741  1.00  0.00     0.041 A 
ATOM     18  C   UNL A   1       4.748  -5.184  57.556  1.00  0.00     0.020 A 
BRANCH  15  19
ATOM     19  O   UNL A   1       7.565  -2.136  57.576  1.00  0.00    -0.348 OA
BRANCH  19  20
ATOM     20  C   UNL A   1       7.106  -0.830  57.919  1.00  0.00     0.180 C 
BRANCH  20  21
ATOM     21  C   UNL A   1       5.769  -0.594  57.304  1.00  0.00     0.010 A 
ATOM     22  C   UNL A   1       5.163   0.772  57.384  1.00  0.00     0.007 A 
ATOM     23  C   UNL A   1       5.675   0.253  56.074  1.00  0.00     0.007 A 
ENDBRANCH  20  21
ENDBRANCH  19  20
ENDBRANCH  15  19
BRANCH  16  24
ATOM     24  O   UNL A   1       6.989  -3.520  59.915  1.00  0.00    -0.287 OA
BRANCH  24  25
ATOM     25  C   UNL A   1       8.007  -4.407  60.362  1.00  0.00     0.505 C 
ATOM     26  F   UNL A   1       9.118  -4.162  59.620  1.00  0.00    -0.184 F 
ATOM     27  F   UNL A   1       8.326  -4.108  61.645  1.00  0.00    -0.184 F 
ENDBRANCH  24  25
ENDBRANCH  16  24
ENDBRANCH  10  13
ENDBRANCH   4   9
TORSDOF 7
ENDMDL
MODEL 5
REMARK VINA RESULT:      -7.4      3.633      5.717
REMARK  7 active torsions:
REMARK  status: ('A' for Active; 'I' for Inactive)
REMARK    1  A    between atoms: O_5  and  C_13 
REMARK    2  A    between atoms: O_5  and  C_14 
REMARK    3  A    between atoms: O_6  and  C_15 
REMARK    4  A    between atoms: O_6  and  C_22 
REMARK       I    between atoms: N_8  and  C_20 
REMARK    5  A    between atoms: N_8  and  C_21 
REMARK    6  A    between atoms: C_10  and  C_13 
REMARK    7  A    between atoms: C_17  and  C_20 
ROOT
ATOM      1 CL   UNL A   1       4.221  -8.192  53.952  1.00  0.00    -0.080 Cl
ATOM      2 CL   UNL A   1       0.380  -6.652  57.528  1.00  0.00    -0.080 Cl
ATOM      3  N   UNL A   1       0.350  -9.008  54.327  1.00  0.00    -0.270 NA
ATOM      4  C   UNL A   1       2.230  -7.479  55.689  1.00  0.00     0.081 A 
ATOM      5  C   UNL A   1       2.614  -8.193  54.569  1.00  0.00     0.080 A 
ATOM      6  C   UNL A   1       0.924  -7.515  56.141  1.00  0.00     0.080 A 
ATOM      7  C   UNL A   1       1.639  -8.939  53.925  1.00  0.00     0.142 A 
ATOM      8  C   UNL A   1       0.025  -8.292  55.428  1.00  0.00     0.142 A 
ENDROOT
BRANCH   4   9
ATOM      9  N   UNL A   1       3.189  -6.701  56.383  1.00  0.00    -0.320 N 
ATOM     10  C   UNL A   1       3.422  -5.321  56.297  1.00  0.00     0.256 C 
ATOM     11  O   UNL A   1       2.795  -4.537  55.565  1.00  0.00    -0.267 OA
ATOM     12  H   UNL A   1       3.767  -7.194  57.009  1.00  0.00     0.169 HD
BRANCH  10  13
ATOM     13  C   UNL A   1       4.504  -4.807  57.122  1.00  0.00     0.035 A 
ATOM     14  C   UNL A   1       5.282  -3.742  56.667  1.00  0.00     0.056 A 
ATOM     15  C   UNL A   1       6.320  -3.251  57.458  1.00  0.00     0.103 A 
ATOM     16  C   UNL A   1       6.580  -3.823  58.703  1.00  0.00     0.108 A 
ATOM     17  C   UNL A   1       5.802  -4.888  59.158  1.00  0.00     0.041 A 
ATOM     18  C   UNL A   1       4.764  -5.380  58.366  1.00  0.00     0.020 A 
BRANCH  15  19
ATOM     19  O   UNL A   1       7.074  -2.211  57.005  1.00  0.00    -0.348 OA
BRANCH  19  20
ATOM     20  C   UNL A   1       6.802  -0.924  57.557  1.00  0.00     0.180 C 
BRANCH  20  21
ATOM     21  C   UNL A   1       5.428  -0.496  57.172  1.00  0.00     0.010 A 
ATOM     22  C   UNL A   1       5.041   0.941  57.336  1.00  0.00     0.007 A 
ATOM     23  C   UNL A   1       5.247   0.369  55.965  1.00  0.00     0.007 A 
ENDBRANCH  20  21
ENDBRANCH  19  20
ENDBRANCH  15  19
BRANCH  16  24
ATOM     24  O   UNL A   1       7.590  -3.351  59.485  1.00  0.00    -0.287 OA
BRANCH  24  25
ATOM     25  C   UNL A   1       8.144  -4.241  60.446  1.00  0.00     0.505 C 
ATOM     26  F   UNL A   1       9.463  -4.390  60.153  1.00  0.00    -0.184 F 
ATOM     27  F   UNL A   1       8.084  -3.667  61.672  1.00  0.00    -0.184 F 
ENDBRANCH  24  25
ENDBRANCH  16  24
ENDBRANCH  10  13
ENDBRANCH   4   9
TORSDOF 7
ENDMDL
MODEL 6
REMARK VINA RESULT:      -7.4      1.877      2.229
REMARK  7 active torsions:
REMARK  status: ('A' for Active; 'I' for Inactive)
REMARK    1  A    between atoms: O_5  and  C_13 
REMARK    2  A    between atoms: O_5  and  C_14 
REMARK    3  A    between atoms: O_6  and  C_15 
REMARK    4  A    between atoms: O_6  and  C_22 
REMARK       I    between atoms: N_8  and  C_20 
REMARK    5  A    between atoms: N_8  and  C_21 
REMARK    6  A    between atoms: C_10  and  C_13 
REMARK    7  A    between atoms: C_17  and  C_20 
ROOT
ATOM      1 CL   UNL A   1       6.091  -6.201  52.397  1.00  0.00    -0.080 Cl
ATOM      2 CL   UNL A   1       2.566  -2.167  53.496  1.00  0.00    -0.080 Cl
ATOM      3  N   UNL A   1       3.387  -4.264  50.222  1.00  0.00    -0.270 NA
ATOM      4  C   UNL A   1       4.295  -4.187  52.848  1.00  0.00     0.081 A 
ATOM      5  C   UNL A   1       4.847  -5.093  51.962  1.00  0.00     0.080 A 
ATOM      6  C   UNL A   1       3.297  -3.318  52.445  1.00  0.00     0.080 A 
ATOM      7  C   UNL A   1       4.361  -5.092  50.664  1.00  0.00     0.142 A 
ATOM      8  C   UNL A   1       2.879  -3.397  51.126  1.00  0.00     0.142 A 
ENDROOT
BRANCH   4   9
ATOM      9  N   UNL A   1       4.756  -4.147  54.186  1.00  0.00    -0.320 N 
ATOM     10  C   UNL A   1       5.794  -3.378  54.730  1.00  0.00     0.256 C 
ATOM     11  O   UNL A   1       6.498  -2.578  54.091  1.00  0.00    -0.267 OA
ATOM     12  H   UNL A   1       4.286  -4.738  54.818  1.00  0.00     0.169 HD
BRANCH  10  13
ATOM     13  C   UNL A   1       6.056  -3.575  56.147  1.00  0.00     0.035 A 
ATOM     14  C   UNL A   1       5.222  -4.399  56.902  1.00  0.00     0.056 A 
ATOM     15  C   UNL A   1       5.473  -4.587  58.261  1.00  0.00     0.103 A 
ATOM     16  C   UNL A   1       6.558  -3.951  58.865  1.00  0.00     0.108 A 
ATOM     17  C   UNL A   1       7.392  -3.128  58.110  1.00  0.00     0.041 A 
ATOM     18  C   UNL A   1       7.141  -2.940  56.750  1.00  0.00     0.020 A 
BRANCH  15  19
ATOM     19  O   UNL A   1       4.651  -5.393  58.989  1.00  0.00    -0.348 OA
BRANCH  19  20
ATOM     20  C   UNL A   1       3.814  -6.291  58.263  1.00  0.00     0.180 C 
BRANCH  20  21
ATOM     21  C   UNL A   1       2.421  -6.206  58.785  1.00  0.00     0.010 A 
ATOM     22  C   UNL A   1       1.893  -4.879  59.235  1.00  0.00     0.007 A 
ATOM     23  C   UNL A   1       1.382  -5.502  57.970  1.00  0.00     0.007 A 
ENDBRANCH  20  21
ENDBRANCH  19  20
ENDBRANCH  15  19
BRANCH  16  24
ATOM     24  O   UNL A   1       6.814  -4.128  60.191  1.00  0.00    -0.287 OA
BRANCH  24  25
ATOM     25  C   UNL A   1       8.152  -3.928  60.630  1.00  0.00     0.505 C 
ATOM     26  F   UNL A   1       8.101  -3.524  61.927  1.00  0.00    -0.184 F 
ATOM     27  F   UNL A   1       8.805  -5.116  60.622  1.00  0.00    -0.184 F 
ENDBRANCH  24  25
ENDBRANCH  16  24
ENDBRANCH  10  13
ENDBRANCH   4   9
TORSDOF 7
ENDMDL
MODEL 7
REMARK VINA RESULT:      -7.3      2.381      3.888
REMARK  7 active torsions:
REMARK  status: ('A' for Active; 'I' for Inactive)
REMARK    1  A    between atoms: O_5  and  C_13 
REMARK    2  A    between atoms: O_5  and  C_14 
REMARK    3  A    between atoms: O_6  and  C_15 
REMARK    4  A    between atoms: O_6  and  C_22 
REMARK       I    between atoms: N_8  and  C_20 
REMARK    5  A    between atoms: N_8  and  C_21 
REMARK    6  A    between atoms: C_10  and  C_13 
REMARK    7  A    between atoms: C_17  and  C_20 
ROOT
ATOM      1 CL   UNL A   1       2.168  -2.173  52.962  1.00  0.00    -0.080 Cl
ATOM      2 CL   UNL A   1       5.904  -6.085  52.157  1.00  0.00    -0.080 Cl
ATOM      3  N   UNL A   1       3.363  -4.195  49.756  1.00  0.00    -0.270 NA
ATOM      4  C   UNL A   1       4.011  -4.131  52.458  1.00  0.00     0.081 A 
ATOM      5  C   UNL A   1       3.031  -3.286  51.972  1.00  0.00     0.080 A 
ATOM      6  C   UNL A   1       4.673  -5.008  51.618  1.00  0.00     0.080 A 
ATOM      7  C   UNL A   1       2.744  -3.357  50.618  1.00  0.00     0.142 A 
ATOM      8  C   UNL A   1       4.314  -5.000  50.280  1.00  0.00     0.142 A 
ENDROOT
BRANCH   4   9
ATOM      9  N   UNL A   1       4.343  -4.099  53.835  1.00  0.00    -0.320 N 
ATOM     10  C   UNL A   1       3.703  -4.744  54.902  1.00  0.00     0.256 C 
ATOM     11  O   UNL A   1       2.704  -5.475  54.798  1.00  0.00    -0.267 OA
ATOM     12  H   UNL A   1       5.125  -3.550  54.073  1.00  0.00     0.169 HD
BRANCH  10  13
ATOM     13  C   UNL A   1       4.264  -4.496  56.222  1.00  0.00     0.035 A 
ATOM     14  C   UNL A   1       4.739  -3.226  56.550  1.00  0.00     0.056 A 
ATOM     15  C   UNL A   1       5.277  -2.990  57.815  1.00  0.00     0.103 A 
ATOM     16  C   UNL A   1       5.340  -4.022  58.751  1.00  0.00     0.108 A 
ATOM     17  C   UNL A   1       4.865  -5.291  58.422  1.00  0.00     0.041 A 
ATOM     18  C   UNL A   1       4.327  -5.528  57.157  1.00  0.00     0.020 A 
BRANCH  15  19
ATOM     19  O   UNL A   1       5.738  -1.746  58.125  1.00  0.00    -0.348 OA
BRANCH  19  20
ATOM     20  C   UNL A   1       6.711  -1.179  57.250  1.00  0.00     0.180 C 
BRANCH  20  21
ATOM     21  C   UNL A   1       6.305   0.207  56.884  1.00  0.00     0.010 A 
ATOM     22  C   UNL A   1       5.156   0.403  55.944  1.00  0.00     0.007 A 
ATOM     23  C   UNL A   1       5.005   0.743  57.397  1.00  0.00     0.007 A 
ENDBRANCH  20  21
ENDBRANCH  19  20
ENDBRANCH  15  19
BRANCH  16  24
ATOM     24  O   UNL A   1       5.862  -3.802  59.990  1.00  0.00    -0.287 OA
BRANCH  24  25
ATOM     25  C   UNL A   1       7.176  -4.286  60.240  1.00  0.00     0.505 C 
ATOM     26  F   UNL A   1       7.966  -3.875  59.214  1.00  0.00    -0.184 F 
ATOM     27  F   UNL A   1       7.661  -3.697  61.361  1.00  0.00    -0.184 F 
ENDBRANCH  24  25
ENDBRANCH  16  24
ENDBRANCH  10  13
ENDBRANCH   4   9
TORSDOF 7
ENDMDL
MODEL 8
REMARK VINA RESULT:      -7.3      3.576      5.441
REMARK  7 active torsions:
REMARK  status: ('A' for Active; 'I' for Inactive)
REMARK    1  A    between atoms: O_5  and  C_13 
REMARK    2  A    between atoms: O_5  and  C_14 
REMARK    3  A    between atoms: O_6  and  C_15 
REMARK    4  A    between atoms: O_6  and  C_22 
REMARK       I    between atoms: N_8  and  C_20 
REMARK    5  A    between atoms: N_8  and  C_21 
REMARK    6  A    between atoms: C_10  and  C_13 
REMARK    7  A    between atoms: C_17  and  C_20 
ROOT
ATOM      1 CL   UNL A   1       0.370  -6.741  57.396  1.00  0.00    -0.080 Cl
ATOM      2 CL   UNL A   1       4.183  -7.793  53.619  1.00  0.00    -0.080 Cl
ATOM      3  N   UNL A   1       0.334  -8.727  53.954  1.00  0.00    -0.270 NA
ATOM      4  C   UNL A   1       2.206  -7.320  55.452  1.00  0.00     0.081 A 
ATOM      5  C   UNL A   1       0.909  -7.434  55.915  1.00  0.00     0.080 A 
ATOM      6  C   UNL A   1       2.585  -7.897  54.254  1.00  0.00     0.080 A 
ATOM      7  C   UNL A   1       0.013  -8.146  55.132  1.00  0.00     0.142 A 
ATOM      8  C   UNL A   1       1.615  -8.588  53.545  1.00  0.00     0.142 A 
ENDROOT
BRANCH   4   9
ATOM      9  N   UNL A   1       3.160  -6.602  56.214  1.00  0.00    -0.320 N 
ATOM     10  C   UNL A   1       3.381  -5.219  56.257  1.00  0.00     0.256 C 
ATOM     11  O   UNL A   1       2.746  -4.375  55.603  1.00  0.00    -0.267 OA
ATOM     12  H   UNL A   1       3.744  -7.147  56.790  1.00  0.00     0.169 HD
BRANCH  10  13
ATOM     13  C   UNL A   1       4.462  -4.775  57.124  1.00  0.00     0.035 A 
ATOM     14  C   UNL A   1       5.313  -3.752  56.709  1.00  0.00     0.056 A 
ATOM     15  C   UNL A   1       6.350  -3.327  57.540  1.00  0.00     0.103 A 
ATOM     16  C   UNL A   1       6.534  -3.927  58.786  1.00  0.00     0.108 A 
ATOM     17  C   UNL A   1       5.683  -4.950  59.201  1.00  0.00     0.041 A 
ATOM     18  C   UNL A   1       4.646  -5.374  58.369  1.00  0.00     0.020 A 
BRANCH  15  19
ATOM     19  O   UNL A   1       7.176  -2.327  57.125  1.00  0.00    -0.348 OA
BRANCH  19  20
ATOM     20  C   UNL A   1       6.897  -1.014  57.607  1.00  0.00     0.180 C 
BRANCH  20  21
ATOM     21  C   UNL A   1       5.594  -0.546  57.055  1.00  0.00     0.010 A 
ATOM     22  C   UNL A   1       5.113   0.830  57.394  1.00  0.00     0.007 A 
ATOM     23  C   UNL A   1       5.592   0.522  56.006  1.00  0.00     0.007 A 
ENDBRANCH  20  21
ENDBRANCH  19  20
ENDBRANCH  15  19
BRANCH  16  24
ATOM     24  O   UNL A   1       7.542  -3.520  59.608  1.00  0.00    -0.287 OA
BRANCH  24  25
ATOM     25  C   UNL A   1       8.092  -4.486  60.495  1.00  0.00     0.505 C 
ATOM     26  F   UNL A   1       9.353  -4.761  60.072  1.00  0.00    -0.184 F 
ATOM     27  F   UNL A   1       8.210  -3.939  61.730  1.00  0.00    -0.184 F 
ENDBRANCH  24  25
ENDBRANCH  16  24
ENDBRANCH  10  13
ENDBRANCH   4   9
TORSDOF 7
ENDMDL
MODEL 9
REMARK VINA RESULT:      -7.1      2.322      4.259
REMARK  7 active torsions:
REMARK  status: ('A' for Active; 'I' for Inactive)
REMARK    1  A    between atoms: O_5  and  C_13 
REMARK    2  A    between atoms: O_5  and  C_14 
REMARK    3  A    between atoms: O_6  and  C_15 
REMARK    4  A    between atoms: O_6  and  C_22 
REMARK       I    between atoms: N_8  and  C_20 
REMARK    5  A    between atoms: N_8  and  C_21 
REMARK    6  A    between atoms: C_10  and  C_13 
REMARK    7  A    between atoms: C_17  and  C_20 
ROOT
ATOM      1 CL   UNL A   1       6.067  -0.948  51.534  1.00  0.00    -0.080 Cl
ATOM      2 CL   UNL A   1       1.099  -3.235  51.515  1.00  0.00    -0.080 Cl
ATOM      3  N   UNL A   1       3.150  -1.131  48.840  1.00  0.00    -0.270 NA
ATOM      4  C   UNL A   1       3.567  -2.057  51.427  1.00  0.00     0.081 A 
ATOM      5  C   UNL A   1       4.557  -1.327  50.796  1.00  0.00     0.080 A 
ATOM      6  C   UNL A   1       2.372  -2.332  50.788  1.00  0.00     0.080 A 
ATOM      7  C   UNL A   1       4.301  -0.887  49.508  1.00  0.00     0.142 A 
ATOM      8  C   UNL A   1       2.214  -1.848  49.499  1.00  0.00     0.142 A 
ENDROOT
BRANCH   4   9
ATOM      9  N   UNL A   1       3.780  -2.530  52.745  1.00  0.00    -0.320 N 
ATOM     10  C   UNL A   1       4.430  -3.701  53.159  1.00  0.00     0.256 C 
ATOM     11  O   UNL A   1       4.941  -4.539  52.398  1.00  0.00    -0.267 OA
ATOM     12  H   UNL A   1       3.423  -1.961  53.466  1.00  0.00     0.169 HD
BRANCH  10  13
ATOM     13  C   UNL A   1       4.468  -3.933  54.594  1.00  0.00     0.035 A 
ATOM     14  C   UNL A   1       4.841  -2.903  55.457  1.00  0.00     0.056 A 
ATOM     15  C   UNL A   1       4.879  -3.127  56.834  1.00  0.00     0.103 A 
ATOM     16  C   UNL A   1       4.543  -4.379  57.346  1.00  0.00     0.108 A 
ATOM     17  C   UNL A   1       4.169  -5.409  56.483  1.00  0.00     0.041 A 
ATOM     18  C   UNL A   1       4.132  -5.186  55.107  1.00  0.00     0.020 A 
BRANCH  15  19
ATOM     19  O   UNL A   1       5.245  -2.114  57.668  1.00  0.00    -0.348 OA
BRANCH  19  20
ATOM     20  C   UNL A   1       6.522  -1.520  57.444  1.00  0.00     0.180 C 
BRANCH  20  21
ATOM     21  C   UNL A   1       6.393  -0.036  57.471  1.00  0.00     0.010 A 
ATOM     22  C   UNL A   1       6.055   0.688  56.205  1.00  0.00     0.007 A 
ATOM     23  C   UNL A   1       5.039   0.579  57.303  1.00  0.00     0.007 A 
ENDBRANCH  20  21
ENDBRANCH  19  20
ENDBRANCH  15  19
BRANCH  16  24
ATOM     24  O   UNL A   1       4.574  -4.610  58.689  1.00  0.00    -0.287 OA
BRANCH  24  25
ATOM     25  C   UNL A   1       5.835  -4.921  59.269  1.00  0.00     0.505 C 
ATOM     26  F   UNL A   1       6.097  -3.976  60.209  1.00  0.00    -0.184 F 
ATOM     27  F   UNL A   1       5.742  -6.103  59.925  1.00  0.00    -0.184 F 
ENDBRANCH  24  25
ENDBRANCH  16  24
ENDBRANCH  10  13
ENDBRANCH   4   9
TORSDOF 7
ENDMDL
