MODEL 1
REMARK VINA RESULT:      -7.8      0.000      0.000
REMARK  7 active torsions:
REMARK  status: ('A' for Active; 'I' for Inactive)
REMARK    1  A    between atoms: O_5  and  C_13 
REMARK    2  A    between atoms: O_5  and  C_14 
REMARK    3  A    between atoms: O_6  and  C_15 
REMARK    4  A    between atoms: O_6  and  C_22 
REMARK       I    between atoms: N_8  and  C_20 
REMARK    5  A    between atoms: N_8  and  C_21 
REMARK    6  A    between atoms: C_10  and  C_13 
REMARK    7  A    between atoms: C_17  and  C_20 
ROOT
ATOM      1 CL   UNL A   1       7.527  -1.002  52.959  1.00  0.00    -0.080 Cl
ATOM      2 CL   UNL A   1       2.621  -3.369  53.450  1.00  0.00    -0.080 Cl
ATOM      3  N   UNL A   1       4.400  -1.344  50.529  1.00  0.00    -0.270 NA
ATOM      4  C   UNL A   1       5.050  -2.155  53.107  1.00  0.00     0.081 A 
ATOM      5  C   UNL A   1       5.969  -1.436  52.367  1.00  0.00     0.080 A 
ATOM      6  C   UNL A   1       3.811  -2.476  52.583  1.00  0.00     0.080 A 
ATOM      7  C   UNL A   1       5.597  -1.055  51.088  1.00  0.00     0.142 A 
ATOM      8  C   UNL A   1       3.536  -2.049  51.293  1.00  0.00     0.142 A 
ENDROOT
BRANCH   4   9
ATOM      9  N   UNL A   1       5.381  -2.569  54.421  1.00  0.00    -0.320 N 
ATOM     10  C   UNL A   1       5.413  -1.805  55.595  1.00  0.00     0.256 C 
ATOM     11  O   UNL A   1       5.145  -0.594  55.666  1.00  0.00    -0.267 OA
ATOM     12  H   UNL A   1       5.619  -3.519  54.522  1.00  0.00     0.169 HD
BRANCH  10  13
ATOM     13  C   UNL A   1       5.821  -2.510  56.801  1.00  0.00     0.035 A 
ATOM     14  C   UNL A   1       4.906  -3.311  57.483  1.00  0.00     0.056 A 
ATOM     15  C   UNL A   1       5.298  -3.986  58.639  1.00  0.00     0.103 A 
ATOM     16  C   UNL A   1       6.603  -3.859  59.113  1.00  0.00     0.108 A 
ATOM     17  C   UNL A   1       7.519  -3.058  58.430  1.00  0.00     0.041 A 
ATOM     18  C   UNL A   1       7.127  -2.383  57.274  1.00  0.00     0.020 A 
BRANCH  15  19
ATOM     19  O   UNL A   1       4.396  -4.766  59.298  1.00  0.00    -0.348 OA
BRANCH  19  20
ATOM     20  C   UNL A   1       4.104  -6.041  58.729  1.00  0.00     0.180 C 
BRANCH  20  21
ATOM     21  C   UNL A   1       2.628  -6.212  58.622  1.00  0.00     0.010 A 
ATOM     22  C   UNL A   1       1.731  -5.131  59.141  1.00  0.00     0.007 A 
ATOM     23  C   UNL A   1       1.864  -5.353  57.663  1.00  0.00     0.007 A 
ENDBRANCH  20  21
ENDBRANCH  19  20
ENDBRANCH  15  19
BRANCH  16  24
ATOM     24  O   UNL A   1       6.998  -4.514  60.240  1.00  0.00    -0.287 OA
BRANCH  24  25
ATOM     25  C   UNL A   1       8.273  -4.183  60.776  1.00  0.00     0.505 C 
ATOM     26  F   UNL A   1       8.066  -3.425  61.885  1.00  0.00    -0.184 F 
ATOM     27  F   UNL A   1       8.889  -5.316  61.193  1.00  0.00    -0.184 F 
ENDBRANCH  24  25
ENDBRANCH  16  24
ENDBRANCH  10  13
ENDBRANCH   4   9
TORSDOF 7
ENDMDL
MODEL 2
REMARK VINA RESULT:      -7.7      0.183      1.785
REMARK  7 active torsions:
REMARK  status: ('A' for Active; 'I' for Inactive)
REMARK    1  A    between atoms: O_5  and  C_13 
REMARK    2  A    between atoms: O_5  and  C_14 
REMARK    3  A    between atoms: O_6  and  C_15 
REMARK    4  A    between atoms: O_6  and  C_22 
REMARK       I    between atoms: N_8  and  C_20 
REMARK    5  A    between atoms: N_8  and  C_21 
REMARK    6  A    between atoms: C_10  and  C_13 
REMARK    7  A    between atoms: C_17  and  C_20 
ROOT
ATOM      1 CL   UNL A   1       2.772  -3.391  53.516  1.00  0.00    -0.080 Cl
ATOM      2 CL   UNL A   1       7.694  -1.040  53.112  1.00  0.00    -0.080 Cl
ATOM      3  N   UNL A   1       4.598  -1.345  50.639  1.00  0.00    -0.270 NA
ATOM      4  C   UNL A   1       5.210  -2.184  53.217  1.00  0.00     0.081 A 
ATOM      5  C   UNL A   1       3.978  -2.495  52.673  1.00  0.00     0.080 A 
ATOM      6  C   UNL A   1       6.142  -1.462  52.495  1.00  0.00     0.080 A 
ATOM      7  C   UNL A   1       3.721  -2.055  51.385  1.00  0.00     0.142 A 
ATOM      8  C   UNL A   1       5.788  -1.067  51.215  1.00  0.00     0.142 A 
ENDROOT
BRANCH   4   9
ATOM      9  N   UNL A   1       5.522  -2.611  54.531  1.00  0.00    -0.320 N 
ATOM     10  C   UNL A   1       5.495  -1.869  55.720  1.00  0.00     0.256 C 
ATOM     11  O   UNL A   1       5.181  -0.670  55.805  1.00  0.00    -0.267 OA
ATOM     12  H   UNL A   1       5.793  -3.554  54.621  1.00  0.00     0.169 HD
BRANCH  10  13
ATOM     13  C   UNL A   1       5.898  -2.581  56.923  1.00  0.00     0.035 A 
ATOM     14  C   UNL A   1       5.006  -3.451  57.549  1.00  0.00     0.056 A 
ATOM     15  C   UNL A   1       5.392  -4.133  58.703  1.00  0.00     0.103 A 
ATOM     16  C   UNL A   1       6.670  -3.944  59.230  1.00  0.00     0.108 A 
ATOM     17  C   UNL A   1       7.562  -3.074  58.604  1.00  0.00     0.041 A 
ATOM     18  C   UNL A   1       7.175  -2.392  57.450  1.00  0.00     0.020 A 
BRANCH  15  19
ATOM     19  O   UNL A   1       4.514  -4.981  59.306  1.00  0.00    -0.348 OA
BRANCH  19  20
ATOM     20  C   UNL A   1       4.074  -6.106  58.549  1.00  0.00     0.180 C 
BRANCH  20  21
ATOM     21  C   UNL A   1       2.590  -6.215  58.632  1.00  0.00     0.010 A 
ATOM     22  C   UNL A   1       1.805  -5.052  59.155  1.00  0.00     0.007 A 
ATOM     23  C   UNL A   1       1.749  -5.403  57.697  1.00  0.00     0.007 A 
ENDBRANCH  20  21
ENDBRANCH  19  20
ENDBRANCH  15  19
BRANCH  16  24
ATOM     24  O   UNL A   1       7.059  -4.606  60.356  1.00  0.00    -0.287 OA
BRANCH  24  25
ATOM     25  C   UNL A   1       8.345  -4.301  60.881  1.00  0.00     0.505 C 
ATOM     26  F   UNL A   1       8.171  -3.436  61.914  1.00  0.00    -0.184 F 
ATOM     27  F   UNL A   1       8.889  -5.426  61.407  1.00  0.00    -0.184 F 
ENDBRANCH  24  25
ENDBRANCH  16  24
ENDBRANCH  10  13
ENDBRANCH   4   9
TORSDOF 7
ENDMDL
MODEL 3
REMARK VINA RESULT:      -7.6      1.017      1.017
REMARK  7 active torsions:
REMARK  status: ('A' for Active; 'I' for Inactive)
REMARK    1  A    between atoms: O_5  and  C_13 
REMARK    2  A    between atoms: O_5  and  C_14 
REMARK    3  A    between atoms: O_6  and  C_15 
REMARK    4  A    between atoms: O_6  and  C_22 
REMARK       I    between atoms: N_8  and  C_20 
REMARK    5  A    between atoms: N_8  and  C_21 
REMARK    6  A    between atoms: C_10  and  C_13 
REMARK    7  A    between atoms: C_17  and  C_20 
ROOT
ATOM      1 CL   UNL A   1       7.071  -0.763  52.742  1.00  0.00    -0.080 Cl
ATOM      2 CL   UNL A   1       2.373  -3.457  53.506  1.00  0.00    -0.080 Cl
ATOM      3  N   UNL A   1       3.901  -1.439  50.442  1.00  0.00    -0.270 NA
ATOM      4  C   UNL A   1       4.692  -2.085  53.027  1.00  0.00     0.081 A 
ATOM      5  C   UNL A   1       5.531  -1.335  52.225  1.00  0.00     0.080 A 
ATOM      6  C   UNL A   1       3.465  -2.519  52.561  1.00  0.00     0.080 A 
ATOM      7  C   UNL A   1       5.091  -1.039  50.945  1.00  0.00     0.142 A 
ATOM      8  C   UNL A   1       3.117  -2.171  51.265  1.00  0.00     0.142 A 
ENDROOT
BRANCH   4   9
ATOM      9  N   UNL A   1       5.096  -2.415  54.344  1.00  0.00    -0.320 N 
ATOM     10  C   UNL A   1       6.066  -3.339  54.754  1.00  0.00     0.256 C 
ATOM     11  O   UNL A   1       6.751  -4.040  53.991  1.00  0.00    -0.267 OA
ATOM     12  H   UNL A   1       4.633  -1.932  55.066  1.00  0.00     0.169 HD
BRANCH  10  13
ATOM     13  C   UNL A   1       6.241  -3.480  56.192  1.00  0.00     0.035 A 
ATOM     14  C   UNL A   1       5.264  -4.121  56.953  1.00  0.00     0.056 A 
ATOM     15  C   UNL A   1       5.432  -4.255  58.332  1.00  0.00     0.103 A 
ATOM     16  C   UNL A   1       6.576  -3.749  58.948  1.00  0.00     0.108 A 
ATOM     17  C   UNL A   1       7.554  -3.109  58.186  1.00  0.00     0.041 A 
ATOM     18  C   UNL A   1       7.386  -2.975  56.807  1.00  0.00     0.020 A 
BRANCH  15  19
ATOM     19  O   UNL A   1       4.471  -4.882  59.066  1.00  0.00    -0.348 OA
BRANCH  19  20
ATOM     20  C   UNL A   1       4.076  -6.184  58.639  1.00  0.00     0.180 C 
BRANCH  20  21
ATOM     21  C   UNL A   1       2.588  -6.265  58.601  1.00  0.00     0.010 A 
ATOM     22  C   UNL A   1       1.784  -5.127  59.149  1.00  0.00     0.007 A 
ATOM     23  C   UNL A   1       1.835  -5.369  57.669  1.00  0.00     0.007 A 
ENDBRANCH  20  21
ENDBRANCH  19  20
ENDBRANCH  15  19
BRANCH  16  24
ATOM     24  O   UNL A   1       6.752  -3.875  60.293  1.00  0.00    -0.287 OA
BRANCH  24  25
ATOM     25  C   UNL A   1       8.089  -3.940  60.773  1.00  0.00     0.505 C 
ATOM     26  F   UNL A   1       8.104  -3.396  62.018  1.00  0.00    -0.184 F 
ATOM     27  F   UNL A   1       8.448  -5.239  60.916  1.00  0.00    -0.184 F 
ENDBRANCH  24  25
ENDBRANCH  16  24
ENDBRANCH  10  13
ENDBRANCH   4   9
TORSDOF 7
ENDMDL
MODEL 4
REMARK VINA RESULT:      -7.5      3.650      5.894
REMARK  7 active torsions:
REMARK  status: ('A' for Active; 'I' for Inactive)
REMARK    1  A    between atoms: O_5  and  C_13 
REMARK    2  A    between atoms: O_5  and  C_14 
REMARK    3  A    between atoms: O_6  and  C_15 
REMARK    4  A    between atoms: O_6  and  C_22 
REMARK       I    between atoms: N_8  and  C_20 
REMARK    5  A    between atoms: N_8  and  C_21 
REMARK    6  A    between atoms: C_10  and  C_13 
REMARK    7  A    between atoms: C_17  and  C_20 
ROOT
ATOM      1 CL   UNL A   1       0.117  -5.802  58.398  1.00  0.00    -0.080 Cl
ATOM      2 CL   UNL A   1       3.409  -8.209  54.753  1.00  0.00    -0.080 Cl
ATOM      3  N   UNL A   1      -0.482  -8.473  55.517  1.00  0.00    -0.270 NA
ATOM      4  C   UNL A   1       1.681  -7.059  56.537  1.00  0.00     0.081 A 
ATOM      5  C   UNL A   1       0.427  -6.877  57.088  1.00  0.00     0.080 A 
ATOM      6  C   UNL A   1       1.874  -7.936  55.486  1.00  0.00     0.080 A 
ATOM      7  C   UNL A   1      -0.619  -7.605  56.545  1.00  0.00     0.142 A 
ATOM      8  C   UNL A   1       0.764  -8.616  55.013  1.00  0.00     0.142 A 
ENDROOT
BRANCH   4   9
ATOM      9  N   UNL A   1       2.785  -6.337  57.057  1.00  0.00    -0.320 N 
ATOM     10  C   UNL A   1       3.284  -5.093  56.648  1.00  0.00     0.256 C 
ATOM     11  O   UNL A   1       2.815  -4.403  55.728  1.00  0.00    -0.267 OA
ATOM     12  H   UNL A   1       3.263  -6.766  57.802  1.00  0.00     0.169 HD
BRANCH  10  13
ATOM     13  C   UNL A   1       4.458  -4.615  57.361  1.00  0.00     0.035 A 
ATOM     14  C   UNL A   1       5.194  -3.544  56.854  1.00  0.00     0.056 A 
ATOM     15  C   UNL A   1       6.321  -3.087  57.538  1.00  0.00     0.103 A 
ATOM     16  C   UNL A   1       6.711  -3.700  58.729  1.00  0.00     0.108 A 
ATOM     17  C   UNL A   1       5.975  -4.771  59.236  1.00  0.00     0.041 A 
ATOM     18  C   UNL A   1       4.848  -5.228  58.552  1.00  0.00     0.020 A 
BRANCH  15  19
ATOM     19  O   UNL A   1       7.032  -2.041  57.034  1.00  0.00    -0.348 OA
BRANCH  19  20
ATOM     20  C   UNL A   1       6.468  -1.350  55.921  1.00  0.00     0.180 C 
BRANCH  20  21
ATOM     21  C   UNL A   1       6.254   0.081  56.278  1.00  0.00     0.010 A 
ATOM     22  C   UNL A   1       4.951   0.730  55.929  1.00  0.00     0.007 A 
ATOM     23  C   UNL A   1       5.278   0.421  57.360  1.00  0.00     0.007 A 
ENDBRANCH  20  21
ENDBRANCH  19  20
ENDBRANCH  15  19
BRANCH  16  24
ATOM     24  O   UNL A   1       7.808  -3.262  59.406  1.00  0.00    -0.287 OA
BRANCH  24  25
ATOM     25  C   UNL A   1       8.318  -4.100  60.436  1.00  0.00     0.505 C 
ATOM     26  F   UNL A   1       9.584  -4.451  60.089  1.00  0.00    -0.184 F 
ATOM     27  F   UNL A   1       8.417  -3.385  61.583  1.00  0.00    -0.184 F 
ENDBRANCH  24  25
ENDBRANCH  16  24
ENDBRANCH  10  13
ENDBRANCH   4   9
TORSDOF 7
ENDMDL
MODEL 5
REMARK VINA RESULT:      -7.5      3.701      5.811
REMARK  7 active torsions:
REMARK  status: ('A' for Active; 'I' for Inactive)
REMARK    1  A    between atoms: O_5  and  C_13 
REMARK    2  A    between atoms: O_5  and  C_14 
REMARK    3  A    between atoms: O_6  and  C_15 
REMARK    4  A    between atoms: O_6  and  C_22 
REMARK       I    between atoms: N_8  and  C_20 
REMARK    5  A    between atoms: N_8  and  C_21 
REMARK    6  A    between atoms: C_10  and  C_13 
REMARK    7  A    between atoms: C_17  and  C_20 
ROOT
ATOM      1 CL   UNL A   1       3.407  -8.268  54.894  1.00  0.00    -0.080 Cl
ATOM      2 CL   UNL A   1       0.117  -5.776  58.482  1.00  0.00    -0.080 Cl
ATOM      3  N   UNL A   1      -0.493  -8.475  55.629  1.00  0.00    -0.270 NA
ATOM      4  C   UNL A   1       1.680  -7.075  56.650  1.00  0.00     0.081 A 
ATOM      5  C   UNL A   1       1.871  -7.966  55.611  1.00  0.00     0.080 A 
ATOM      6  C   UNL A   1       0.423  -6.870  57.188  1.00  0.00     0.080 A 
ATOM      7  C   UNL A   1       0.756  -8.639  55.137  1.00  0.00     0.142 A 
ATOM      8  C   UNL A   1      -0.627  -7.592  56.644  1.00  0.00     0.142 A 
ENDROOT
BRANCH   4   9
ATOM      9  N   UNL A   1       2.788  -6.361  57.170  1.00  0.00    -0.320 N 
ATOM     10  C   UNL A   1       3.274  -5.103  56.789  1.00  0.00     0.256 C 
ATOM     11  O   UNL A   1       2.785  -4.391  55.896  1.00  0.00    -0.267 OA
ATOM     12  H   UNL A   1       3.281  -6.809  57.896  1.00  0.00     0.169 HD
BRANCH  10  13
ATOM     13  C   UNL A   1       4.457  -4.638  57.496  1.00  0.00     0.035 A 
ATOM     14  C   UNL A   1       5.171  -3.542  57.014  1.00  0.00     0.056 A 
ATOM     15  C   UNL A   1       6.307  -3.097  57.692  1.00  0.00     0.103 A 
ATOM     16  C   UNL A   1       6.727  -3.749  58.851  1.00  0.00     0.108 A 
ATOM     17  C   UNL A   1       6.012  -4.846  59.333  1.00  0.00     0.041 A 
ATOM     18  C   UNL A   1       4.877  -5.290  58.655  1.00  0.00     0.020 A 
BRANCH  15  19
ATOM     19  O   UNL A   1       6.997  -2.026  57.212  1.00  0.00    -0.348 OA
BRANCH  19  20
ATOM     20  C   UNL A   1       6.457  -1.365  56.070  1.00  0.00     0.180 C 
BRANCH  20  21
ATOM     21  C   UNL A   1       6.261   0.080  56.375  1.00  0.00     0.010 A 
ATOM     22  C   UNL A   1       4.994   0.750  55.940  1.00  0.00     0.007 A 
ATOM     23  C   UNL A   1       5.239   0.475  57.395  1.00  0.00     0.007 A 
ENDBRANCH  20  21
ENDBRANCH  19  20
ENDBRANCH  15  19
BRANCH  16  24
ATOM     24  O   UNL A   1       7.833  -3.324  59.523  1.00  0.00    -0.287 OA
BRANCH  24  25
ATOM     25  C   UNL A   1       8.481  -4.260  60.374  1.00  0.00     0.505 C 
ATOM     26  F   UNL A   1       9.770  -4.368  59.958  1.00  0.00    -0.184 F 
ATOM     27  F   UNL A   1       8.523  -3.762  61.634  1.00  0.00    -0.184 F 
ENDBRANCH  24  25
ENDBRANCH  16  24
ENDBRANCH  10  13
ENDBRANCH   4   9
TORSDOF 7
ENDMDL
MODEL 6
REMARK VINA RESULT:      -7.3      1.865      2.262
REMARK  7 active torsions:
REMARK  status: ('A' for Active; 'I' for Inactive)
REMARK    1  A    between atoms: O_5  and  C_13 
REMARK    2  A    between atoms: O_5  and  C_14 
REMARK    3  A    between atoms: O_6  and  C_15 
REMARK    4  A    between atoms: O_6  and  C_22 
REMARK       I    between atoms: N_8  and  C_20 
REMARK    5  A    between atoms: N_8  and  C_21 
REMARK    6  A    between atoms: C_10  and  C_13 
REMARK    7  A    between atoms: C_17  and  C_20 
ROOT
ATOM      1 CL   UNL A   1       2.619  -2.082  53.535  1.00  0.00    -0.080 Cl
ATOM      2 CL   UNL A   1       6.151  -6.101  52.404  1.00  0.00    -0.080 Cl
ATOM      3  N   UNL A   1       3.471  -4.126  50.235  1.00  0.00    -0.270 NA
ATOM      4  C   UNL A   1       4.352  -4.093  52.870  1.00  0.00     0.081 A 
ATOM      5  C   UNL A   1       3.359  -3.217  52.472  1.00  0.00     0.080 A 
ATOM      6  C   UNL A   1       4.912  -4.985  51.975  1.00  0.00     0.080 A 
ATOM      7  C   UNL A   1       2.954  -3.273  51.148  1.00  0.00     0.142 A 
ATOM      8  C   UNL A   1       4.438  -4.962  50.673  1.00  0.00     0.142 A 
ENDROOT
BRANCH   4   9
ATOM      9  N   UNL A   1       4.802  -4.076  54.214  1.00  0.00    -0.320 N 
ATOM     10  C   UNL A   1       5.852  -3.335  54.773  1.00  0.00     0.256 C 
ATOM     11  O   UNL A   1       6.580  -2.546  54.148  1.00  0.00    -0.267 OA
ATOM     12  H   UNL A   1       4.312  -4.661  54.835  1.00  0.00     0.169 HD
BRANCH  10  13
ATOM     13  C   UNL A   1       6.096  -3.551  56.191  1.00  0.00     0.035 A 
ATOM     14  C   UNL A   1       5.288  -4.430  56.912  1.00  0.00     0.056 A 
ATOM     15  C   UNL A   1       5.522  -4.635  58.272  1.00  0.00     0.103 A 
ATOM     16  C   UNL A   1       6.563  -3.961  58.910  1.00  0.00     0.108 A 
ATOM     17  C   UNL A   1       7.371  -3.082  58.189  1.00  0.00     0.041 A 
ATOM     18  C   UNL A   1       7.137  -2.877  56.829  1.00  0.00     0.020 A 
BRANCH  15  19
ATOM     19  O   UNL A   1       4.727  -5.495  58.966  1.00  0.00    -0.348 OA
BRANCH  19  20
ATOM     20  C   UNL A   1       3.329  -5.454  58.688  1.00  0.00     0.180 C 
BRANCH  20  21
ATOM     21  C   UNL A   1       2.863  -6.805  58.267  1.00  0.00     0.010 A 
ATOM     22  C   UNL A   1       1.777  -6.914  57.242  1.00  0.00     0.007 A 
ATOM     23  C   UNL A   1       3.186  -7.289  56.888  1.00  0.00     0.007 A 
ENDBRANCH  20  21
ENDBRANCH  19  20
ENDBRANCH  15  19
BRANCH  16  24
ATOM     24  O   UNL A   1       6.802  -4.155  60.237  1.00  0.00    -0.287 OA
BRANCH  24  25
ATOM     25  C   UNL A   1       8.155  -4.093  60.673  1.00  0.00     0.505 C 
ATOM     26  F   UNL A   1       8.168  -3.466  61.878  1.00  0.00    -0.184 F 
ATOM     27  F   UNL A   1       8.611  -5.351  60.888  1.00  0.00    -0.184 F 
ENDBRANCH  24  25
ENDBRANCH  16  24
ENDBRANCH  10  13
ENDBRANCH   4   9
TORSDOF 7
ENDMDL
MODEL 7
REMARK VINA RESULT:      -7.2      2.461      4.089
REMARK  7 active torsions:
REMARK  status: ('A' for Active; 'I' for Inactive)
REMARK    1  A    between atoms: O_5  and  C_13 
REMARK    2  A    between atoms: O_5  and  C_14 
REMARK    3  A    between atoms: O_6  and  C_15 
REMARK    4  A    between atoms: O_6  and  C_22 
REMARK       I    between atoms: N_8  and  C_20 
REMARK    5  A    between atoms: N_8  and  C_21 
REMARK    6  A    between atoms: C_10  and  C_13 
REMARK    7  A    between atoms: C_17  and  C_20 
ROOT
ATOM      1 CL   UNL A   1       4.960  -6.930  52.565  1.00  0.00    -0.080 Cl
ATOM      2 CL   UNL A   1       2.185  -2.243  53.055  1.00  0.00    -0.080 Cl
ATOM      3  N   UNL A   1       2.690  -4.824  50.075  1.00  0.00    -0.270 NA
ATOM      4  C   UNL A   1       3.541  -4.596  52.711  1.00  0.00     0.081 A 
ATOM      5  C   UNL A   1       3.942  -5.682  51.957  1.00  0.00     0.080 A 
ATOM      6  C   UNL A   1       2.722  -3.621  52.171  1.00  0.00     0.080 A 
ATOM      7  C   UNL A   1       3.492  -5.750  50.648  1.00  0.00     0.142 A 
ATOM      8  C   UNL A   1       2.326  -3.781  50.853  1.00  0.00     0.142 A 
ENDROOT
BRANCH   4   9
ATOM      9  N   UNL A   1       3.974  -4.479  54.055  1.00  0.00    -0.320 N 
ATOM     10  C   UNL A   1       3.360  -4.971  55.215  1.00  0.00     0.256 C 
ATOM     11  O   UNL A   1       2.296  -5.612  55.242  1.00  0.00    -0.267 OA
ATOM     12  H   UNL A   1       4.816  -3.989  54.191  1.00  0.00     0.169 HD
BRANCH  10  13
ATOM     13  C   UNL A   1       4.035  -4.667  56.467  1.00  0.00     0.035 A 
ATOM     14  C   UNL A   1       4.558  -3.393  56.686  1.00  0.00     0.056 A 
ATOM     15  C   UNL A   1       5.206  -3.103  57.887  1.00  0.00     0.103 A 
ATOM     16  C   UNL A   1       5.330  -4.086  58.868  1.00  0.00     0.108 A 
ATOM     17  C   UNL A   1       4.807  -5.361  58.649  1.00  0.00     0.041 A 
ATOM     18  C   UNL A   1       4.159  -5.651  57.448  1.00  0.00     0.020 A 
BRANCH  15  19
ATOM     19  O   UNL A   1       5.714  -1.856  58.090  1.00  0.00    -0.348 OA
BRANCH  19  20
ATOM     20  C   UNL A   1       6.578  -1.336  57.082  1.00  0.00     0.180 C 
BRANCH  20  21
ATOM     21  C   UNL A   1       6.288   0.111  56.874  1.00  0.00     0.010 A 
ATOM     22  C   UNL A   1       5.148   0.504  55.987  1.00  0.00     0.007 A 
ATOM     23  C   UNL A   1       5.047   0.696  57.471  1.00  0.00     0.007 A 
ENDBRANCH  20  21
ENDBRANCH  19  20
ENDBRANCH  15  19
BRANCH  16  24
ATOM     24  O   UNL A   1       5.960  -3.815  60.045  1.00  0.00    -0.287 OA
BRANCH  24  25
ATOM     25  C   UNL A   1       7.312  -4.235  60.176  1.00  0.00     0.505 C 
ATOM     26  F   UNL A   1       8.002  -3.730  59.120  1.00  0.00    -0.184 F 
ATOM     27  F   UNL A   1       7.847  -3.676  61.288  1.00  0.00    -0.184 F 
ENDBRANCH  24  25
ENDBRANCH  16  24
ENDBRANCH  10  13
ENDBRANCH   4   9
TORSDOF 7
ENDMDL
MODEL 8
REMARK VINA RESULT:      -7.2      2.266      4.207
REMARK  7 active torsions:
REMARK  status: ('A' for Active; 'I' for Inactive)
REMARK    1  A    between atoms: O_5  and  C_13 
REMARK    2  A    between atoms: O_5  and  C_14 
REMARK    3  A    between atoms: O_6  and  C_15 
REMARK    4  A    between atoms: O_6  and  C_22 
REMARK       I    between atoms: N_8  and  C_20 
REMARK    5  A    between atoms: N_8  and  C_21 
REMARK    6  A    between atoms: C_10  and  C_13 
REMARK    7  A    between atoms: C_17  and  C_20 
ROOT
ATOM      1 CL   UNL A   1       1.158  -3.325  51.799  1.00  0.00    -0.080 Cl
ATOM      2 CL   UNL A   1       6.128  -1.051  51.602  1.00  0.00    -0.080 Cl
ATOM      3  N   UNL A   1       3.184  -1.422  48.958  1.00  0.00    -0.270 NA
ATOM      4  C   UNL A   1       3.626  -2.160  51.601  1.00  0.00     0.081 A 
ATOM      5  C   UNL A   1       2.425  -2.479  50.996  1.00  0.00     0.080 A 
ATOM      6  C   UNL A   1       4.611  -1.480  50.909  1.00  0.00     0.080 A 
ATOM      7  C   UNL A   1       2.253  -2.089  49.677  1.00  0.00     0.142 A 
ATOM      8  C   UNL A   1       4.341  -1.134  49.594  1.00  0.00     0.142 A 
ENDROOT
BRANCH   4   9
ATOM      9  N   UNL A   1       3.852  -2.536  52.948  1.00  0.00    -0.320 N 
ATOM     10  C   UNL A   1       4.246  -3.783  53.452  1.00  0.00     0.256 C 
ATOM     11  O   UNL A   1       4.466  -4.793  52.764  1.00  0.00    -0.267 OA
ATOM     12  H   UNL A   1       3.714  -1.828  53.618  1.00  0.00     0.169 HD
BRANCH  10  13
ATOM     13  C   UNL A   1       4.371  -3.872  54.899  1.00  0.00     0.035 A 
ATOM     14  C   UNL A   1       4.674  -2.732  55.644  1.00  0.00     0.056 A 
ATOM     15  C   UNL A   1       4.795  -2.819  57.031  1.00  0.00     0.103 A 
ATOM     16  C   UNL A   1       4.614  -4.044  57.672  1.00  0.00     0.108 A 
ATOM     17  C   UNL A   1       4.311  -5.183  56.927  1.00  0.00     0.041 A 
ATOM     18  C   UNL A   1       4.190  -5.097  55.540  1.00  0.00     0.020 A 
BRANCH  15  19
ATOM     19  O   UNL A   1       5.091  -1.700  57.748  1.00  0.00    -0.348 OA
BRANCH  19  20
ATOM     20  C   UNL A   1       6.367  -1.104  57.523  1.00  0.00     0.180 C 
BRANCH  20  21
ATOM     21  C   UNL A   1       6.191   0.328  57.150  1.00  0.00     0.010 A 
ATOM     22  C   UNL A   1       5.354   0.670  55.957  1.00  0.00     0.007 A 
ATOM     23  C   UNL A   1       4.851   0.968  57.339  1.00  0.00     0.007 A 
ENDBRANCH  20  21
ENDBRANCH  19  20
ENDBRANCH  15  19
BRANCH  16  24
ATOM     24  O   UNL A   1       4.728  -4.140  59.026  1.00  0.00    -0.287 OA
BRANCH  24  25
ATOM     25  C   UNL A   1       6.003  -4.490  59.551  1.00  0.00     0.505 C 
ATOM     26  F   UNL A   1       6.002  -5.830  59.771  1.00  0.00    -0.184 F 
ATOM     27  F   UNL A   1       6.951  -4.254  58.611  1.00  0.00    -0.184 F 
ENDBRANCH  24  25
ENDBRANCH  16  24
ENDBRANCH  10  13
ENDBRANCH   4   9
TORSDOF 7
ENDMDL
MODEL 9
REMARK VINA RESULT:      -7.1      2.648      4.169
REMARK  7 active torsions:
REMARK  status: ('A' for Active; 'I' for Inactive)
REMARK    1  A    between atoms: O_5  and  C_13 
REMARK    2  A    between atoms: O_5  and  C_14 
REMARK    3  A    between atoms: O_6  and  C_15 
REMARK    4  A    between atoms: O_6  and  C_22 
REMARK       I    between atoms: N_8  and  C_20 
REMARK    5  A    between atoms: N_8  and  C_21 
REMARK    6  A    between atoms: C_10  and  C_13 
REMARK    7  A    between atoms: C_17  and  C_20 
ROOT
ATOM      1 CL   UNL A   1       6.019  -1.052  51.424  1.00  0.00    -0.080 Cl
ATOM      2 CL   UNL A   1       0.987  -3.194  51.327  1.00  0.00    -0.080 Cl
ATOM      3  N   UNL A   1       3.114  -1.089  48.712  1.00  0.00    -0.270 NA
ATOM      4  C   UNL A   1       3.489  -2.085  51.279  1.00  0.00     0.081 A 
ATOM      5  C   UNL A   1       4.503  -1.370  50.671  1.00  0.00     0.080 A 
ATOM      6  C   UNL A   1       2.290  -2.311  50.628  1.00  0.00     0.080 A 
ATOM      7  C   UNL A   1       4.267  -0.894  49.391  1.00  0.00     0.142 A 
ATOM      8  C   UNL A   1       2.154  -1.794  49.350  1.00  0.00     0.142 A 
ENDROOT
BRANCH   4   9
ATOM      9  N   UNL A   1       3.680  -2.594  52.587  1.00  0.00    -0.320 N 
ATOM     10  C   UNL A   1       4.406  -3.725  52.987  1.00  0.00     0.256 C 
ATOM     11  O   UNL A   1       5.020  -4.486  52.220  1.00  0.00    -0.267 OA
ATOM     12  H   UNL A   1       3.246  -2.087  53.310  1.00  0.00     0.169 HD
BRANCH  10  13
ATOM     13  C   UNL A   1       4.398  -4.013  54.413  1.00  0.00     0.035 A 
ATOM     14  C   UNL A   1       4.713  -3.010  55.329  1.00  0.00     0.056 A 
ATOM     15  C   UNL A   1       4.706  -3.287  56.696  1.00  0.00     0.103 A 
ATOM     16  C   UNL A   1       4.385  -4.567  57.146  1.00  0.00     0.108 A 
ATOM     17  C   UNL A   1       4.070  -5.571  56.230  1.00  0.00     0.041 A 
ATOM     18  C   UNL A   1       4.077  -5.293  54.863  1.00  0.00     0.020 A 
BRANCH  15  19
ATOM     19  O   UNL A   1       5.016  -2.300  57.582  1.00  0.00    -0.348 OA
BRANCH  19  20
ATOM     20  C   UNL A   1       6.380  -1.888  57.642  1.00  0.00     0.180 C 
BRANCH  20  21
ATOM     21  C   UNL A   1       6.456  -0.402  57.558  1.00  0.00     0.010 A 
ATOM     22  C   UNL A   1       6.161   0.268  56.252  1.00  0.00     0.007 A 
ATOM     23  C   UNL A   1       5.192   0.382  57.391  1.00  0.00     0.007 A 
ENDBRANCH  20  21
ENDBRANCH  19  20
ENDBRANCH  15  19
BRANCH  16  24
ATOM     24  O   UNL A   1       4.374  -4.850  58.479  1.00  0.00    -0.287 OA
BRANCH  24  25
ATOM     25  C   UNL A   1       3.901  -6.133  58.870  1.00  0.00     0.505 C 
ATOM     26  F   UNL A   1       4.759  -6.617  59.806  1.00  0.00    -0.184 F 
ATOM     27  F   UNL A   1       2.700  -5.997  59.482  1.00  0.00    -0.184 F 
ENDBRANCH  24  25
ENDBRANCH  16  24
ENDBRANCH  10  13
ENDBRANCH   4   9
TORSDOF 7
ENDMDL
