MODEL 1
REMARK VINA RESULT:      -8.8      0.000      0.000
REMARK  7 active torsions:
REMARK  status: ('A' for Active; 'I' for Inactive)
REMARK    1  A    between atoms: O_5  and  C_13 
REMARK    2  A    between atoms: O_5  and  C_14 
REMARK    3  A    between atoms: O_6  and  C_15 
REMARK    4  A    between atoms: O_6  and  C_22 
REMARK       I    between atoms: N_8  and  C_20 
REMARK    5  A    between atoms: N_8  and  C_21 
REMARK    6  A    between atoms: C_10  and  C_13 
REMARK    7  A    between atoms: C_17  and  C_20 
ROOT
ATOM      1 CL   UNL A   1      22.446  -6.438  27.680  1.00  0.00    -0.080 Cl
ATOM      2 CL   UNL A   1      17.356  -4.680  28.632  1.00  0.00    -0.080 Cl
ATOM      3  N   UNL A   1      19.042  -6.687  25.645  1.00  0.00    -0.270 NA
ATOM      4  C   UNL A   1      19.870  -5.600  28.065  1.00  0.00     0.081 A 
ATOM      5  C   UNL A   1      20.786  -6.253  27.262  1.00  0.00     0.080 A 
ATOM      6  C   UNL A   1      18.547  -5.480  27.680  1.00  0.00     0.080 A 
ATOM      7  C   UNL A   1      20.324  -6.777  26.066  1.00  0.00     0.142 A 
ATOM      8  C   UNL A   1      18.185  -6.039  26.466  1.00  0.00     0.142 A 
ENDROOT
BRANCH   4   9
ATOM      9  N   UNL A   1      20.292  -5.046  29.299  1.00  0.00    -0.320 N 
ATOM     10  C   UNL A   1      20.559  -3.706  29.609  1.00  0.00     0.256 C 
ATOM     11  O   UNL A   1      20.463  -2.757  28.812  1.00  0.00    -0.267 OA
ATOM     12  H   UNL A   1      20.413  -5.688  30.036  1.00  0.00     0.169 HD
BRANCH  10  13
ATOM     13  C   UNL A   1      21.006  -3.445  30.968  1.00  0.00     0.035 A 
ATOM     14  C   UNL A   1      21.425  -4.500  31.779  1.00  0.00     0.056 A 
ATOM     15  C   UNL A   1      21.852  -4.249  33.083  1.00  0.00     0.103 A 
ATOM     16  C   UNL A   1      21.860  -2.944  33.576  1.00  0.00     0.108 A 
ATOM     17  C   UNL A   1      21.441  -1.889  32.765  1.00  0.00     0.041 A 
ATOM     18  C   UNL A   1      21.013  -2.140  31.461  1.00  0.00     0.020 A 
BRANCH  15  19
ATOM     19  O   UNL A   1      22.259  -5.286  33.866  1.00  0.00    -0.348 OA
BRANCH  19  20
ATOM     20  C   UNL A   1      21.419  -6.439  33.903  1.00  0.00     0.180 C 
BRANCH  20  21
ATOM     21  C   UNL A   1      22.222  -7.650  33.574  1.00  0.00     0.010 A 
ATOM     22  C   UNL A   1      23.351  -7.532  32.597  1.00  0.00     0.007 A 
ATOM     23  C   UNL A   1      23.636  -7.738  34.055  1.00  0.00     0.007 A 
ENDBRANCH  20  21
ENDBRANCH  19  20
ENDBRANCH  15  19
BRANCH  16  24
ATOM     24  O   UNL A   1      22.276  -2.687  34.847  1.00  0.00    -0.287 OA
BRANCH  24  25
ATOM     25  C   UNL A   1      22.640  -1.347  35.157  1.00  0.00     0.505 C 
ATOM     26  F   UNL A   1      22.375  -1.144  36.474  1.00  0.00    -0.184 F 
ATOM     27  F   UNL A   1      23.980  -1.205  35.007  1.00  0.00    -0.184 F 
ENDBRANCH  24  25
ENDBRANCH  16  24
ENDBRANCH  10  13
ENDBRANCH   4   9
TORSDOF 7
ENDMDL
MODEL 2
REMARK VINA RESULT:      -8.8      0.057      1.776
REMARK  7 active torsions:
REMARK  status: ('A' for Active; 'I' for Inactive)
REMARK    1  A    between atoms: O_5  and  C_13 
REMARK    2  A    between atoms: O_5  and  C_14 
REMARK    3  A    between atoms: O_6  and  C_15 
REMARK    4  A    between atoms: O_6  and  C_22 
REMARK       I    between atoms: N_8  and  C_20 
REMARK    5  A    between atoms: N_8  and  C_21 
REMARK    6  A    between atoms: C_10  and  C_13 
REMARK    7  A    between atoms: C_17  and  C_20 
ROOT
ATOM      1 CL   UNL A   1      17.393  -4.700  28.619  1.00  0.00    -0.080 Cl
ATOM      2 CL   UNL A   1      22.488  -6.469  27.716  1.00  0.00    -0.080 Cl
ATOM      3  N   UNL A   1      19.099  -6.725  25.656  1.00  0.00    -0.270 NA
ATOM      4  C   UNL A   1      19.910  -5.626  28.076  1.00  0.00     0.081 A 
ATOM      5  C   UNL A   1      18.591  -5.506  27.681  1.00  0.00     0.080 A 
ATOM      6  C   UNL A   1      20.831  -6.285  27.284  1.00  0.00     0.080 A 
ATOM      7  C   UNL A   1      18.236  -6.071  26.467  1.00  0.00     0.142 A 
ATOM      8  C   UNL A   1      20.377  -6.815  26.087  1.00  0.00     0.142 A 
ENDROOT
BRANCH   4   9
ATOM      9  N   UNL A   1      20.324  -5.065  29.310  1.00  0.00    -0.320 N 
ATOM     10  C   UNL A   1      20.632  -3.729  29.602  1.00  0.00     0.256 C 
ATOM     11  O   UNL A   1      20.587  -2.793  28.787  1.00  0.00    -0.267 OA
ATOM     12  H   UNL A   1      20.405  -5.697  30.060  1.00  0.00     0.169 HD
BRANCH  10  13
ATOM     13  C   UNL A   1      21.058  -3.460  30.966  1.00  0.00     0.035 A 
ATOM     14  C   UNL A   1      21.431  -4.513  31.801  1.00  0.00     0.056 A 
ATOM     15  C   UNL A   1      21.838  -4.253  33.110  1.00  0.00     0.103 A 
ATOM     16  C   UNL A   1      21.871  -2.942  33.584  1.00  0.00     0.108 A 
ATOM     17  C   UNL A   1      21.498  -1.889  32.749  1.00  0.00     0.041 A 
ATOM     18  C   UNL A   1      21.091  -2.148  31.440  1.00  0.00     0.020 A 
BRANCH  15  19
ATOM     19  O   UNL A   1      22.200  -5.289  33.917  1.00  0.00    -0.348 OA
BRANCH  19  20
ATOM     20  C   UNL A   1      21.382  -6.457  33.880  1.00  0.00     0.180 C 
BRANCH  20  21
ATOM     21  C   UNL A   1      22.229  -7.650  33.598  1.00  0.00     0.010 A 
ATOM     22  C   UNL A   1      23.331  -7.538  32.590  1.00  0.00     0.007 A 
ATOM     23  C   UNL A   1      23.655  -7.652  34.050  1.00  0.00     0.007 A 
ENDBRANCH  20  21
ENDBRANCH  19  20
ENDBRANCH  15  19
BRANCH  16  24
ATOM     24  O   UNL A   1      22.268  -2.676  34.859  1.00  0.00    -0.287 OA
BRANCH  24  25
ATOM     25  C   UNL A   1      22.630  -1.335  35.165  1.00  0.00     0.505 C 
ATOM     26  F   UNL A   1      22.365  -1.129  36.482  1.00  0.00    -0.184 F 
ATOM     27  F   UNL A   1      23.969  -1.191  35.014  1.00  0.00    -0.184 F 
ENDBRANCH  24  25
ENDBRANCH  16  24
ENDBRANCH  10  13
ENDBRANCH   4   9
TORSDOF 7
ENDMDL
MODEL 3
REMARK VINA RESULT:      -7.8      2.697      4.668
REMARK  7 active torsions:
REMARK  status: ('A' for Active; 'I' for Inactive)
REMARK    1  A    between atoms: O_5  and  C_13 
REMARK    2  A    between atoms: O_5  and  C_14 
REMARK    3  A    between atoms: O_6  and  C_15 
REMARK    4  A    between atoms: O_6  and  C_22 
REMARK       I    between atoms: N_8  and  C_20 
REMARK    5  A    between atoms: N_8  and  C_21 
REMARK    6  A    between atoms: C_10  and  C_13 
REMARK    7  A    between atoms: C_17  and  C_20 
ROOT
ATOM      1 CL   UNL A   1      25.403  -8.500  30.812  1.00  0.00    -0.080 Cl
ATOM      2 CL   UNL A   1      20.838  -7.625  27.930  1.00  0.00    -0.080 Cl
ATOM      3  N   UNL A   1      23.700 -10.377  27.752  1.00  0.00    -0.270 NA
ATOM      4  C   UNL A   1      23.142  -8.146  29.312  1.00  0.00     0.081 A 
ATOM      5  C   UNL A   1      24.282  -8.886  29.563  1.00  0.00     0.080 A 
ATOM      6  C   UNL A   1      22.275  -8.501  28.295  1.00  0.00     0.080 A 
ATOM      7  C   UNL A   1      24.516  -9.989  28.757  1.00  0.00     0.142 A 
ATOM      8  C   UNL A   1      22.598  -9.621  27.546  1.00  0.00     0.142 A 
ENDROOT
BRANCH   4   9
ATOM      9  N   UNL A   1      22.857  -7.010  30.109  1.00  0.00    -0.320 N 
ATOM     10  C   UNL A   1      22.257  -6.958  31.374  1.00  0.00     0.256 C 
ATOM     11  O   UNL A   1      21.867  -7.946  32.019  1.00  0.00    -0.267 OA
ATOM     12  H   UNL A   1      23.114  -6.142  29.721  1.00  0.00     0.169 HD
BRANCH  10  13
ATOM     13  C   UNL A   1      22.070  -5.629  31.935  1.00  0.00     0.035 A 
ATOM     14  C   UNL A   1      21.538  -4.609  31.147  1.00  0.00     0.056 A 
ATOM     15  C   UNL A   1      21.359  -3.334  31.685  1.00  0.00     0.103 A 
ATOM     16  C   UNL A   1      21.713  -3.080  33.009  1.00  0.00     0.108 A 
ATOM     17  C   UNL A   1      22.245  -4.101  33.798  1.00  0.00     0.041 A 
ATOM     18  C   UNL A   1      22.424  -5.375  33.260  1.00  0.00     0.020 A 
BRANCH  15  19
ATOM     19  O   UNL A   1      20.839  -2.345  30.906  1.00  0.00    -0.348 OA
BRANCH  19  20
ATOM     20  C   UNL A   1      20.768  -2.594  29.504  1.00  0.00     0.180 C 
BRANCH  20  21
ATOM     21  C   UNL A   1      19.341  -2.694  29.087  1.00  0.00     0.010 A 
ATOM     22  C   UNL A   1      19.018  -3.205  27.717  1.00  0.00     0.007 A 
ATOM     23  C   UNL A   1      18.724  -4.048  28.923  1.00  0.00     0.007 A 
ENDBRANCH  20  21
ENDBRANCH  19  20
ENDBRANCH  15  19
BRANCH  16  24
ATOM     24  O   UNL A   1      21.542  -1.840  33.546  1.00  0.00    -0.287 OA
BRANCH  24  25
ATOM     25  C   UNL A   1      22.165  -1.578  34.798  1.00  0.00     0.505 C 
ATOM     26  F   UNL A   1      23.267  -0.821  34.557  1.00  0.00    -0.184 F 
ATOM     27  F   UNL A   1      21.336  -0.822  35.558  1.00  0.00    -0.184 F 
ENDBRANCH  24  25
ENDBRANCH  16  24
ENDBRANCH  10  13
ENDBRANCH   4   9
TORSDOF 7
ENDMDL
MODEL 4
REMARK VINA RESULT:      -7.7      2.790      5.016
REMARK  7 active torsions:
REMARK  status: ('A' for Active; 'I' for Inactive)
REMARK    1  A    between atoms: O_5  and  C_13 
REMARK    2  A    between atoms: O_5  and  C_14 
REMARK    3  A    between atoms: O_6  and  C_15 
REMARK    4  A    between atoms: O_6  and  C_22 
REMARK       I    between atoms: N_8  and  C_20 
REMARK    5  A    between atoms: N_8  and  C_21 
REMARK    6  A    between atoms: C_10  and  C_13 
REMARK    7  A    between atoms: C_17  and  C_20 
ROOT
ATOM      1 CL   UNL A   1      21.276  -7.538  27.552  1.00  0.00    -0.080 Cl
ATOM      2 CL   UNL A   1      25.466  -8.601  30.902  1.00  0.00    -0.080 Cl
ATOM      3  N   UNL A   1      24.068 -10.365  27.627  1.00  0.00    -0.270 NA
ATOM      4  C   UNL A   1      23.396  -8.153  29.169  1.00  0.00     0.081 A 
ATOM      5  C   UNL A   1      22.640  -8.462  28.054  1.00  0.00     0.080 A 
ATOM      6  C   UNL A   1      24.482  -8.930  29.527  1.00  0.00     0.080 A 
ATOM      7  C   UNL A   1      23.015  -9.575  27.319  1.00  0.00     0.142 A 
ATOM      8  C   UNL A   1      24.776 -10.021  28.726  1.00  0.00     0.142 A 
ENDROOT
BRANCH   4   9
ATOM      9  N   UNL A   1      23.055  -7.025  29.955  1.00  0.00    -0.320 N 
ATOM     10  C   UNL A   1      22.343  -6.984  31.161  1.00  0.00     0.256 C 
ATOM     11  O   UNL A   1      21.882  -7.976  31.751  1.00  0.00    -0.267 OA
ATOM     12  H   UNL A   1      23.357  -6.155  29.607  1.00  0.00     0.169 HD
BRANCH  10  13
ATOM     13  C   UNL A   1      22.122  -5.661  31.725  1.00  0.00     0.035 A 
ATOM     14  C   UNL A   1      21.710  -4.613  30.902  1.00  0.00     0.056 A 
ATOM     15  C   UNL A   1      21.500  -3.344  31.443  1.00  0.00     0.103 A 
ATOM     16  C   UNL A   1      21.702  -3.124  32.805  1.00  0.00     0.108 A 
ATOM     17  C   UNL A   1      22.114  -4.173  33.628  1.00  0.00     0.041 A 
ATOM     18  C   UNL A   1      22.324  -5.441  33.087  1.00  0.00     0.020 A 
BRANCH  15  19
ATOM     19  O   UNL A   1      21.098  -2.328  30.630  1.00  0.00    -0.348 OA
BRANCH  19  20
ATOM     20  C   UNL A   1      20.917  -2.635  29.249  1.00  0.00     0.180 C 
BRANCH  20  21
ATOM     21  C   UNL A   1      19.461  -2.698  28.940  1.00  0.00     0.010 A 
ATOM     22  C   UNL A   1      19.027  -2.860  27.516  1.00  0.00     0.007 A 
ATOM     23  C   UNL A   1      18.871  -3.996  28.483  1.00  0.00     0.007 A 
ENDBRANCH  20  21
ENDBRANCH  19  20
ENDBRANCH  15  19
BRANCH  16  24
ATOM     24  O   UNL A   1      21.499  -1.890  33.345  1.00  0.00    -0.287 OA
BRANCH  24  25
ATOM     25  C   UNL A   1      21.872  -1.702  34.704  1.00  0.00     0.505 C 
ATOM     26  F   UNL A   1      23.035  -1.000  34.717  1.00  0.00    -0.184 F 
ATOM     27  F   UNL A   1      20.945  -0.925  35.316  1.00  0.00    -0.184 F 
ENDBRANCH  24  25
ENDBRANCH  16  24
ENDBRANCH  10  13
ENDBRANCH   4   9
TORSDOF 7
ENDMDL
MODEL 5
REMARK VINA RESULT:      -7.6      1.313      1.678
REMARK  7 active torsions:
REMARK  status: ('A' for Active; 'I' for Inactive)
REMARK    1  A    between atoms: O_5  and  C_13 
REMARK    2  A    between atoms: O_5  and  C_14 
REMARK    3  A    between atoms: O_6  and  C_15 
REMARK    4  A    between atoms: O_6  and  C_22 
REMARK       I    between atoms: N_8  and  C_20 
REMARK    5  A    between atoms: N_8  and  C_21 
REMARK    6  A    between atoms: C_10  and  C_13 
REMARK    7  A    between atoms: C_17  and  C_20 
ROOT
ATOM      1 CL   UNL A   1      23.540  -7.662  27.720  1.00  0.00    -0.080 Cl
ATOM      2 CL   UNL A   1      18.522  -5.523  27.324  1.00  0.00    -0.080 Cl
ATOM      3  N   UNL A   1      20.672  -7.907  24.981  1.00  0.00    -0.270 NA
ATOM      4  C   UNL A   1      21.019  -6.640  27.430  1.00  0.00     0.081 A 
ATOM      5  C   UNL A   1      22.037  -7.421  26.916  1.00  0.00     0.080 A 
ATOM      6  C   UNL A   1      19.830  -6.480  26.742  1.00  0.00     0.080 A 
ATOM      7  C   UNL A   1      21.815  -8.031  25.692  1.00  0.00     0.142 A 
ATOM      8  C   UNL A   1      19.707  -7.133  25.525  1.00  0.00     0.142 A 
ENDROOT
BRANCH   4   9
ATOM      9  N   UNL A   1      21.195  -5.995  28.679  1.00  0.00    -0.320 N 
ATOM     10  C   UNL A   1      21.566  -4.667  28.932  1.00  0.00     0.256 C 
ATOM     11  O   UNL A   1      21.807  -3.816  28.059  1.00  0.00    -0.267 OA
ATOM     12  H   UNL A   1      21.035  -6.553  29.474  1.00  0.00     0.169 HD
BRANCH  10  13
ATOM     13  C   UNL A   1      21.692  -4.299  30.333  1.00  0.00     0.035 A 
ATOM     14  C   UNL A   1      22.272  -5.188  31.238  1.00  0.00     0.056 A 
ATOM     15  C   UNL A   1      22.392  -4.834  32.582  1.00  0.00     0.103 A 
ATOM     16  C   UNL A   1      21.933  -3.592  33.021  1.00  0.00     0.108 A 
ATOM     17  C   UNL A   1      21.353  -2.703  32.116  1.00  0.00     0.041 A 
ATOM     18  C   UNL A   1      21.233  -3.057  30.771  1.00  0.00     0.020 A 
BRANCH  15  19
ATOM     19  O   UNL A   1      22.959  -5.710  33.457  1.00  0.00    -0.348 OA
BRANCH  19  20
ATOM     20  C   UNL A   1      22.893  -7.095  33.123  1.00  0.00     0.180 C 
BRANCH  20  21
ATOM     21  C   UNL A   1      21.488  -7.573  33.256  1.00  0.00     0.010 A 
ATOM     22  C   UNL A   1      21.109  -8.391  34.452  1.00  0.00     0.007 A 
ATOM     23  C   UNL A   1      20.616  -6.980  34.318  1.00  0.00     0.007 A 
ENDBRANCH  20  21
ENDBRANCH  19  20
ENDBRANCH  15  19
BRANCH  16  24
ATOM     24  O   UNL A   1      22.046  -3.235  34.330  1.00  0.00    -0.287 OA
BRANCH  24  25
ATOM     25  C   UNL A   1      22.259  -1.858  34.616  1.00  0.00     0.505 C 
ATOM     26  F   UNL A   1      21.134  -1.384  35.212  1.00  0.00    -0.184 F 
ATOM     27  F   UNL A   1      23.256  -1.742  35.527  1.00  0.00    -0.184 F 
ENDBRANCH  24  25
ENDBRANCH  16  24
ENDBRANCH  10  13
ENDBRANCH   4   9
TORSDOF 7
ENDMDL
MODEL 6
REMARK VINA RESULT:      -7.5      2.396      4.233
REMARK  7 active torsions:
REMARK  status: ('A' for Active; 'I' for Inactive)
REMARK    1  A    between atoms: O_5  and  C_13 
REMARK    2  A    between atoms: O_5  and  C_14 
REMARK    3  A    between atoms: O_6  and  C_15 
REMARK    4  A    between atoms: O_6  and  C_22 
REMARK       I    between atoms: N_8  and  C_20 
REMARK    5  A    between atoms: N_8  and  C_21 
REMARK    6  A    between atoms: C_10  and  C_13 
REMARK    7  A    between atoms: C_17  and  C_20 
ROOT
ATOM      1 CL   UNL A   1      17.370  -5.239  28.174  1.00  0.00    -0.080 Cl
ATOM      2 CL   UNL A   1      21.582  -8.007  26.052  1.00  0.00    -0.080 Cl
ATOM      3  N   UNL A   1      18.059  -6.862  24.613  1.00  0.00    -0.270 NA
ATOM      4  C   UNL A   1      19.424  -6.632  27.022  1.00  0.00     0.081 A 
ATOM      5  C   UNL A   1      18.163  -6.080  26.898  1.00  0.00     0.080 A 
ATOM      6  C   UNL A   1      20.015  -7.298  25.964  1.00  0.00     0.080 A 
ATOM      7  C   UNL A   1      17.524  -6.222  25.677  1.00  0.00     0.142 A 
ATOM      8  C   UNL A   1      19.294  -7.385  24.785  1.00  0.00     0.142 A 
ENDROOT
BRANCH   4   9
ATOM      9  N   UNL A   1      20.121  -6.514  28.250  1.00  0.00    -0.320 N 
ATOM     10  C   UNL A   1      20.876  -5.433  28.725  1.00  0.00     0.256 C 
ATOM     11  O   UNL A   1      21.057  -4.367  28.114  1.00  0.00    -0.267 OA
ATOM     12  H   UNL A   1      20.067  -7.294  28.848  1.00  0.00     0.169 HD
BRANCH  10  13
ATOM     13  C   UNL A   1      21.502  -5.618  30.025  1.00  0.00     0.035 A 
ATOM     14  C   UNL A   1      21.331  -4.660  31.024  1.00  0.00     0.056 A 
ATOM     15  C   UNL A   1      21.933  -4.838  32.270  1.00  0.00     0.103 A 
ATOM     16  C   UNL A   1      22.705  -5.973  32.517  1.00  0.00     0.108 A 
ATOM     17  C   UNL A   1      22.876  -6.931  31.518  1.00  0.00     0.041 A 
ATOM     18  C   UNL A   1      22.274  -6.753  30.271  1.00  0.00     0.020 A 
BRANCH  15  19
ATOM     19  O   UNL A   1      21.759  -3.896  33.239  1.00  0.00    -0.348 OA
BRANCH  19  20
ATOM     20  C   UNL A   1      21.375  -2.590  32.812  1.00  0.00     0.180 C 
BRANCH  20  21
ATOM     21  C   UNL A   1      21.907  -1.577  33.766  1.00  0.00     0.010 A 
ATOM     22  C   UNL A   1      21.394  -1.564  35.173  1.00  0.00     0.007 A 
ATOM     23  C   UNL A   1      22.791  -2.027  34.886  1.00  0.00     0.007 A 
ENDBRANCH  20  21
ENDBRANCH  19  20
ENDBRANCH  15  19
BRANCH  16  24
ATOM     24  O   UNL A   1      23.296  -6.158  33.730  1.00  0.00    -0.287 OA
BRANCH  24  25
ATOM     25  C   UNL A   1      22.915  -7.309  34.474  1.00  0.00     0.505 C 
ATOM     26  F   UNL A   1      21.658  -7.648  34.087  1.00  0.00    -0.184 F 
ATOM     27  F   UNL A   1      23.717  -8.346  34.131  1.00  0.00    -0.184 F 
ENDBRANCH  24  25
ENDBRANCH  16  24
ENDBRANCH  10  13
ENDBRANCH   4   9
TORSDOF 7
ENDMDL
MODEL 7
REMARK VINA RESULT:      -7.2      2.438      4.030
REMARK  7 active torsions:
REMARK  status: ('A' for Active; 'I' for Inactive)
REMARK    1  A    between atoms: O_5  and  C_13 
REMARK    2  A    between atoms: O_5  and  C_14 
REMARK    3  A    between atoms: O_6  and  C_15 
REMARK    4  A    between atoms: O_6  and  C_22 
REMARK       I    between atoms: N_8  and  C_20 
REMARK    5  A    between atoms: N_8  and  C_21 
REMARK    6  A    between atoms: C_10  and  C_13 
REMARK    7  A    between atoms: C_17  and  C_20 
ROOT
ATOM      1 CL   UNL A   1      21.063  -7.865  25.480  1.00  0.00    -0.080 Cl
ATOM      2 CL   UNL A   1      16.716  -5.647  27.950  1.00  0.00    -0.080 Cl
ATOM      3  N   UNL A   1      17.357  -7.060  24.291  1.00  0.00    -0.270 NA
ATOM      4  C   UNL A   1      18.834  -6.767  26.627  1.00  0.00     0.081 A 
ATOM      5  C   UNL A   1      19.428  -7.327  25.511  1.00  0.00     0.080 A 
ATOM      6  C   UNL A   1      17.516  -6.351  26.597  1.00  0.00     0.080 A 
ATOM      7  C   UNL A   1      18.650  -7.450  24.371  1.00  0.00     0.142 A 
ATOM      8  C   UNL A   1      16.823  -6.519  25.409  1.00  0.00     0.142 A 
ENDROOT
BRANCH   4   9
ATOM      9  N   UNL A   1      19.587  -6.619  27.818  1.00  0.00    -0.320 N 
ATOM     10  C   UNL A   1      20.249  -5.479  28.297  1.00  0.00     0.256 C 
ATOM     11  O   UNL A   1      20.277  -4.378  27.723  1.00  0.00    -0.267 OA
ATOM     12  H   UNL A   1      19.653  -7.421  28.385  1.00  0.00     0.169 HD
BRANCH  10  13
ATOM     13  C   UNL A   1      20.967  -5.642  29.551  1.00  0.00     0.035 A 
ATOM     14  C   UNL A   1      21.043  -4.582  30.454  1.00  0.00     0.056 A 
ATOM     15  C   UNL A   1      21.734  -4.739  31.656  1.00  0.00     0.103 A 
ATOM     16  C   UNL A   1      22.348  -5.955  31.954  1.00  0.00     0.108 A 
ATOM     17  C   UNL A   1      22.272  -7.015  31.051  1.00  0.00     0.041 A 
ATOM     18  C   UNL A   1      21.581  -6.858  29.849  1.00  0.00     0.020 A 
BRANCH  15  19
ATOM     19  O   UNL A   1      21.802  -3.697  32.530  1.00  0.00    -0.348 OA
BRANCH  19  20
ATOM     20  C   UNL A   1      21.176  -2.477  32.135  1.00  0.00     0.180 C 
BRANCH  20  21
ATOM     21  C   UNL A   1      21.383  -1.446  33.191  1.00  0.00     0.010 A 
ATOM     22  C   UNL A   1      21.470  -1.879  34.622  1.00  0.00     0.007 A 
ATOM     23  C   UNL A   1      22.696  -1.392  33.907  1.00  0.00     0.007 A 
ENDBRANCH  20  21
ENDBRANCH  19  20
ENDBRANCH  15  19
BRANCH  16  24
ATOM     24  O   UNL A   1      23.024  -6.120  33.125  1.00  0.00    -0.287 OA
BRANCH  24  25
ATOM     25  C   UNL A   1      23.115  -7.440  33.646  1.00  0.00     0.505 C 
ATOM     26  F   UNL A   1      24.039  -7.425  34.642  1.00  0.00    -0.184 F 
ATOM     27  F   UNL A   1      21.934  -7.774  34.221  1.00  0.00    -0.184 F 
ENDBRANCH  24  25
ENDBRANCH  16  24
ENDBRANCH  10  13
ENDBRANCH   4   9
TORSDOF 7
ENDMDL
MODEL 8
REMARK VINA RESULT:      -7.1      3.954      6.429
REMARK  7 active torsions:
REMARK  status: ('A' for Active; 'I' for Inactive)
REMARK    1  A    between atoms: O_5  and  C_13 
REMARK    2  A    between atoms: O_5  and  C_14 
REMARK    3  A    between atoms: O_6  and  C_15 
REMARK    4  A    between atoms: O_6  and  C_22 
REMARK       I    between atoms: N_8  and  C_20 
REMARK    5  A    between atoms: N_8  and  C_21 
REMARK    6  A    between atoms: C_10  and  C_13 
REMARK    7  A    between atoms: C_17  and  C_20 
ROOT
ATOM      1 CL   UNL A   1      23.989  -8.696  27.638  1.00  0.00    -0.080 Cl
ATOM      2 CL   UNL A   1      23.457  -6.995  32.809  1.00  0.00    -0.080 Cl
ATOM      3  N   UNL A   1      25.592  -9.868  31.081  1.00  0.00    -0.270 NA
ATOM      4  C   UNL A   1      23.791  -7.919  30.254  1.00  0.00     0.081 A 
ATOM      5  C   UNL A   1      24.350  -8.771  29.320  1.00  0.00     0.080 A 
ATOM      6  C   UNL A   1      24.115  -8.023  31.594  1.00  0.00     0.080 A 
ATOM      7  C   UNL A   1      25.241  -9.725  29.783  1.00  0.00     0.142 A 
ATOM      8  C   UNL A   1      25.018  -9.011  31.955  1.00  0.00     0.142 A 
ENDROOT
BRANCH   4   9
ATOM      9  N   UNL A   1      22.873  -6.925  29.833  1.00  0.00    -0.320 N 
ATOM     10  C   UNL A   1      21.553  -7.087  29.391  1.00  0.00     0.256 C 
ATOM     11  O   UNL A   1      20.961  -8.175  29.297  1.00  0.00    -0.267 OA
ATOM     12  H   UNL A   1      23.207  -5.999  29.854  1.00  0.00     0.169 HD
BRANCH  10  13
ATOM     13  C   UNL A   1      20.862  -5.869  28.996  1.00  0.00     0.035 A 
ATOM     14  C   UNL A   1      21.115  -4.674  29.670  1.00  0.00     0.056 A 
ATOM     15  C   UNL A   1      20.451  -3.507  29.291  1.00  0.00     0.103 A 
ATOM     16  C   UNL A   1      19.535  -3.535  28.240  1.00  0.00     0.108 A 
ATOM     17  C   UNL A   1      19.282  -4.730  27.566  1.00  0.00     0.041 A 
ATOM     18  C   UNL A   1      19.946  -5.897  27.945  1.00  0.00     0.020 A 
BRANCH  15  19
ATOM     19  O   UNL A   1      20.706  -2.346  29.956  1.00  0.00    -0.348 OA
BRANCH  19  20
ATOM     20  C   UNL A   1      20.363  -2.303  31.339  1.00  0.00     0.180 C 
BRANCH  20  21
ATOM     21  C   UNL A   1      21.606  -2.266  32.160  1.00  0.00     0.010 A 
ATOM     22  C   UNL A   1      21.522  -1.819  33.587  1.00  0.00     0.007 A 
ATOM     23  C   UNL A   1      21.777  -3.262  33.265  1.00  0.00     0.007 A 
ENDBRANCH  20  21
ENDBRANCH  19  20
ENDBRANCH  15  19
BRANCH  16  24
ATOM     24  O   UNL A   1      18.882  -2.402  27.860  1.00  0.00    -0.287 OA
BRANCH  24  25
ATOM     25  C   UNL A   1      19.379  -1.711  26.721  1.00  0.00     0.505 C 
ATOM     26  F   UNL A   1      20.675  -2.083  26.550  1.00  0.00    -0.184 F 
ATOM     27  F   UNL A   1      18.709  -2.130  25.620  1.00  0.00    -0.184 F 
ENDBRANCH  24  25
ENDBRANCH  16  24
ENDBRANCH  10  13
ENDBRANCH   4   9
TORSDOF 7
ENDMDL
MODEL 9
REMARK VINA RESULT:      -7.0      4.835      8.253
REMARK  7 active torsions:
REMARK  status: ('A' for Active; 'I' for Inactive)
REMARK    1  A    between atoms: O_5  and  C_13 
REMARK    2  A    between atoms: O_5  and  C_14 
REMARK    3  A    between atoms: O_6  and  C_15 
REMARK    4  A    between atoms: O_6  and  C_22 
REMARK       I    between atoms: N_8  and  C_20 
REMARK    5  A    between atoms: N_8  and  C_21 
REMARK    6  A    between atoms: C_10  and  C_13 
REMARK    7  A    between atoms: C_17  and  C_20 
ROOT
ATOM      1 CL   UNL A   1      19.780  -1.933  30.607  1.00  0.00    -0.080 Cl
ATOM      2 CL   UNL A   1      22.502  -5.908  33.194  1.00  0.00    -0.080 Cl
ATOM      3  N   UNL A   1      22.032  -2.021  33.879  1.00  0.00    -0.270 NA
ATOM      4  C   UNL A   1      21.173  -3.851  31.972  1.00  0.00     0.081 A 
ATOM      5  C   UNL A   1      20.785  -2.529  31.871  1.00  0.00     0.080 A 
ATOM      6  C   UNL A   1      21.983  -4.276  33.009  1.00  0.00     0.080 A 
ATOM      7  C   UNL A   1      21.240  -1.656  32.846  1.00  0.00     0.142 A 
ATOM      8  C   UNL A   1      22.384  -3.326  33.934  1.00  0.00     0.142 A 
ENDROOT
BRANCH   4   9
ATOM      9  N   UNL A   1      20.735  -4.785  31.000  1.00  0.00    -0.320 N 
ATOM     10  C   UNL A   1      21.304  -5.079  29.754  1.00  0.00     0.256 C 
ATOM     11  O   UNL A   1      22.324  -4.543  29.291  1.00  0.00    -0.267 OA
ATOM     12  H   UNL A   1      19.924  -5.293  31.232  1.00  0.00     0.169 HD
BRANCH  10  13
ATOM     13  C   UNL A   1      20.605  -6.076  28.957  1.00  0.00     0.035 A 
ATOM     14  C   UNL A   1      19.427  -5.736  28.292  1.00  0.00     0.056 A 
ATOM     15  C   UNL A   1      18.757  -6.693  27.529  1.00  0.00     0.103 A 
ATOM     16  C   UNL A   1      19.265  -7.988  27.431  1.00  0.00     0.108 A 
ATOM     17  C   UNL A   1      20.444  -8.327  28.095  1.00  0.00     0.041 A 
ATOM     18  C   UNL A   1      21.114  -7.371  28.859  1.00  0.00     0.020 A 
BRANCH  15  19
ATOM     19  O   UNL A   1      17.607  -6.351  26.885  1.00  0.00    -0.348 OA
BRANCH  19  20
ATOM     20  C   UNL A   1      16.598  -5.705  27.658  1.00  0.00     0.180 C 
BRANCH  20  21
ATOM     21  C   UNL A   1      15.281  -6.353  27.401  1.00  0.00     0.010 A 
ATOM     22  C   UNL A   1      14.688  -7.237  28.453  1.00  0.00     0.007 A 
ATOM     23  C   UNL A   1      14.082  -5.894  28.171  1.00  0.00     0.007 A 
ENDBRANCH  20  21
ENDBRANCH  19  20
ENDBRANCH  15  19
BRANCH  16  24
ATOM     24  O   UNL A   1      18.621  -8.930  26.688  1.00  0.00    -0.287 OA
BRANCH  24  25
ATOM     25  C   UNL A   1      17.891  -9.929  27.389  1.00  0.00     0.505 C 
ATOM     26  F   UNL A   1      17.319  -9.336  28.470  1.00  0.00    -0.184 F 
ATOM     27  F   UNL A   1      16.874 -10.368  26.608  1.00  0.00    -0.184 F 
ENDBRANCH  24  25
ENDBRANCH  16  24
ENDBRANCH  10  13
ENDBRANCH   4   9
TORSDOF 7
ENDMDL
