MODEL 1
REMARK VINA RESULT:      -8.2      0.000      0.000
REMARK  7 active torsions:
REMARK  status: ('A' for Active; 'I' for Inactive)
REMARK    1  A    between atoms: O_5  and  C_13 
REMARK    2  A    between atoms: O_5  and  C_14 
REMARK    3  A    between atoms: O_6  and  C_15 
REMARK    4  A    between atoms: O_6  and  C_22 
REMARK       I    between atoms: N_8  and  C_20 
REMARK    5  A    between atoms: N_8  and  C_21 
REMARK    6  A    between atoms: C_10  and  C_13 
REMARK    7  A    between atoms: C_17  and  C_20 
ROOT
ATOM      1 CL   UNL A   1      17.654   6.350  15.316  1.00  0.00    -0.080 Cl
ATOM      2 CL   UNL A   1      12.322   6.758  16.459  1.00  0.00    -0.080 Cl
ATOM      3  N   UNL A   1      15.605   6.734  18.699  1.00  0.00    -0.270 NA
ATOM      4  C   UNL A   1      15.011   6.561  15.990  1.00  0.00     0.081 A 
ATOM      5  C   UNL A   1      16.329   6.514  16.403  1.00  0.00     0.080 A 
ATOM      6  C   UNL A   1      13.984   6.692  16.906  1.00  0.00     0.080 A 
ATOM      7  C   UNL A   1      16.573   6.604  17.764  1.00  0.00     0.142 A 
ATOM      8  C   UNL A   1      14.332   6.775  18.245  1.00  0.00     0.142 A 
ENDROOT
BRANCH   4   9
ATOM      9  N   UNL A   1      14.708   6.473  14.609  1.00  0.00    -0.320 N 
ATOM     10  C   UNL A   1      14.090   5.423  13.915  1.00  0.00     0.256 C 
ATOM     11  O   UNL A   1      13.697   4.363  14.430  1.00  0.00    -0.267 OA
ATOM     12  H   UNL A   1      14.965   7.252  14.065  1.00  0.00     0.169 HD
BRANCH  10  13
ATOM     13  C   UNL A   1      13.936   5.613  12.481  1.00  0.00     0.035 A 
ATOM     14  C   UNL A   1      15.024   6.026  11.712  1.00  0.00     0.056 A 
ATOM     15  C   UNL A   1      14.875   6.209  10.337  1.00  0.00     0.103 A 
ATOM     16  C   UNL A   1      13.640   5.979   9.732  1.00  0.00     0.108 A 
ATOM     17  C   UNL A   1      12.552   5.566  10.501  1.00  0.00     0.041 A 
ATOM     18  C   UNL A   1      12.701   5.383  11.876  1.00  0.00     0.020 A 
BRANCH  15  19
ATOM     19  O   UNL A   1      15.944   6.613   9.596  1.00  0.00    -0.348 OA
BRANCH  19  20
ATOM     20  C   UNL A   1      16.762   7.644  10.146  1.00  0.00     0.180 C 
BRANCH  20  21
ATOM     21  C   UNL A   1      18.162   7.150  10.280  1.00  0.00     0.010 A 
ATOM     22  C   UNL A   1      18.408   5.836  10.954  1.00  0.00     0.007 A 
ATOM     23  C   UNL A   1      18.596   5.968   9.471  1.00  0.00     0.007 A 
ENDBRANCH  20  21
ENDBRANCH  19  20
ENDBRANCH  15  19
BRANCH  16  24
ATOM     24  O   UNL A   1      13.483   6.153   8.390  1.00  0.00    -0.287 OA
BRANCH  24  25
ATOM     25  C   UNL A   1      12.424   5.443   7.759  1.00  0.00     0.505 C 
ATOM     26  F   UNL A   1      12.126   6.095   6.605  1.00  0.00    -0.184 F 
ATOM     27  F   UNL A   1      12.865   4.212   7.403  1.00  0.00    -0.184 F 
ENDBRANCH  24  25
ENDBRANCH  16  24
ENDBRANCH  10  13
ENDBRANCH   4   9
TORSDOF 7
ENDMDL
MODEL 2
REMARK VINA RESULT:      -8.1      1.628      2.148
REMARK  7 active torsions:
REMARK  status: ('A' for Active; 'I' for Inactive)
REMARK    1  A    between atoms: O_5  and  C_13 
REMARK    2  A    between atoms: O_5  and  C_14 
REMARK    3  A    between atoms: O_6  and  C_15 
REMARK    4  A    between atoms: O_6  and  C_22 
REMARK       I    between atoms: N_8  and  C_20 
REMARK    5  A    between atoms: N_8  and  C_21 
REMARK    6  A    between atoms: C_10  and  C_13 
REMARK    7  A    between atoms: C_17  and  C_20 
ROOT
ATOM      1 CL   UNL A   1      15.940   7.439  16.719  1.00  0.00    -0.080 Cl
ATOM      2 CL   UNL A   1      16.964   2.360  14.968  1.00  0.00    -0.080 Cl
ATOM      3  N   UNL A   1      17.778   4.308  18.335  1.00  0.00    -0.270 NA
ATOM      4  C   UNL A   1      16.500   4.878  15.934  1.00  0.00     0.081 A 
ATOM      5  C   UNL A   1      16.588   5.855  16.908  1.00  0.00     0.080 A 
ATOM      6  C   UNL A   1      17.039   3.621  16.138  1.00  0.00     0.080 A 
ATOM      7  C   UNL A   1      17.235   5.521  18.087  1.00  0.00     0.142 A 
ATOM      8  C   UNL A   1      17.666   3.387  17.352  1.00  0.00     0.142 A 
ENDROOT
BRANCH   4   9
ATOM      9  N   UNL A   1      15.848   5.168  14.710  1.00  0.00    -0.320 N 
ATOM     10  C   UNL A   1      14.485   5.060  14.400  1.00  0.00     0.256 C 
ATOM     11  O   UNL A   1      13.603   4.677  15.186  1.00  0.00    -0.267 OA
ATOM     12  H   UNL A   1      16.429   5.488  13.982  1.00  0.00     0.169 HD
BRANCH  10  13
ATOM     13  C   UNL A   1      14.115   5.408  13.037  1.00  0.00     0.035 A 
ATOM     14  C   UNL A   1      15.099   5.776  12.119  1.00  0.00     0.056 A 
ATOM     15  C   UNL A   1      14.743   6.110  10.813  1.00  0.00     0.103 A 
ATOM     16  C   UNL A   1      13.404   6.077  10.424  1.00  0.00     0.108 A 
ATOM     17  C   UNL A   1      12.420   5.709  11.342  1.00  0.00     0.041 A 
ATOM     18  C   UNL A   1      12.776   5.375  12.648  1.00  0.00     0.020 A 
BRANCH  15  19
ATOM     19  O   UNL A   1      15.712   6.468   9.925  1.00  0.00    -0.348 OA
BRANCH  19  20
ATOM     20  C   UNL A   1      16.564   7.550  10.297  1.00  0.00     0.180 C 
BRANCH  20  21
ATOM     21  C   UNL A   1      17.985   7.105  10.249  1.00  0.00     0.010 A 
ATOM     22  C   UNL A   1      18.381   5.858  10.978  1.00  0.00     0.007 A 
ATOM     23  C   UNL A   1      18.334   5.870   9.479  1.00  0.00     0.007 A 
ENDBRANCH  20  21
ENDBRANCH  19  20
ENDBRANCH  15  19
BRANCH  16  24
ATOM     24  O   UNL A   1      13.044   6.400   9.150  1.00  0.00    -0.287 OA
BRANCH  24  25
ATOM     25  C   UNL A   1      12.457   5.375   8.357  1.00  0.00     0.505 C 
ATOM     26  F   UNL A   1      11.849   5.974   7.300  1.00  0.00    -0.184 F 
ATOM     27  F   UNL A   1      13.438   4.593   7.846  1.00  0.00    -0.184 F 
ENDBRANCH  24  25
ENDBRANCH  16  24
ENDBRANCH  10  13
ENDBRANCH   4   9
TORSDOF 7
ENDMDL
MODEL 3
REMARK VINA RESULT:      -7.8      2.654      4.804
REMARK  7 active torsions:
REMARK  status: ('A' for Active; 'I' for Inactive)
REMARK    1  A    between atoms: O_5  and  C_13 
REMARK    2  A    between atoms: O_5  and  C_14 
REMARK    3  A    between atoms: O_6  and  C_15 
REMARK    4  A    between atoms: O_6  and  C_22 
REMARK       I    between atoms: N_8  and  C_20 
REMARK    5  A    between atoms: N_8  and  C_21 
REMARK    6  A    between atoms: C_10  and  C_13 
REMARK    7  A    between atoms: C_17  and  C_20 
ROOT
ATOM      1 CL   UNL A   1      17.264   6.572  16.245  1.00  0.00    -0.080 Cl
ATOM      2 CL   UNL A   1      19.757   3.492  12.475  1.00  0.00    -0.080 Cl
ATOM      3  N   UNL A   1      20.752   4.671  16.138  1.00  0.00    -0.270 NA
ATOM      4  C   UNL A   1      18.592   5.019  14.425  1.00  0.00     0.081 A 
ATOM      5  C   UNL A   1      18.573   5.611  15.674  1.00  0.00     0.080 A 
ATOM      6  C   UNL A   1      19.670   4.257  14.016  1.00  0.00     0.080 A 
ATOM      7  C   UNL A   1      19.674   5.408  16.490  1.00  0.00     0.142 A 
ATOM      8  C   UNL A   1      20.722   4.114  14.907  1.00  0.00     0.142 A 
ENDROOT
BRANCH   4   9
ATOM      9  N   UNL A   1      17.490   5.195  13.551  1.00  0.00    -0.320 N 
ATOM     10  C   UNL A   1      17.405   5.995  12.404  1.00  0.00     0.256 C 
ATOM     11  O   UNL A   1      18.324   6.702  11.958  1.00  0.00    -0.267 OA
ATOM     12  H   UNL A   1      16.677   4.689  13.782  1.00  0.00     0.169 HD
BRANCH  10  13
ATOM     13  C   UNL A   1      16.120   5.992  11.721  1.00  0.00     0.035 A 
ATOM     14  C   UNL A   1      14.945   5.799  12.448  1.00  0.00     0.056 A 
ATOM     15  C   UNL A   1      13.714   5.795  11.793  1.00  0.00     0.103 A 
ATOM     16  C   UNL A   1      13.657   5.984  10.412  1.00  0.00     0.108 A 
ATOM     17  C   UNL A   1      14.832   6.178   9.686  1.00  0.00     0.041 A 
ATOM     18  C   UNL A   1      16.064   6.181  10.341  1.00  0.00     0.020 A 
BRANCH  15  19
ATOM     19  O   UNL A   1      12.573   5.605  12.512  1.00  0.00    -0.348 OA
BRANCH  19  20
ATOM     20  C   UNL A   1      12.721   5.130  13.849  1.00  0.00     0.180 C 
BRANCH  20  21
ATOM     21  C   UNL A   1      12.226   6.163  14.802  1.00  0.00     0.010 A 
ATOM     22  C   UNL A   1      12.974   6.393  16.078  1.00  0.00     0.007 A 
ATOM     23  C   UNL A   1      13.016   7.420  14.987  1.00  0.00     0.007 A 
ENDBRANCH  20  21
ENDBRANCH  19  20
ENDBRANCH  15  19
BRANCH  16  24
ATOM     24  O   UNL A   1      12.460   5.984   9.762  1.00  0.00    -0.287 OA
BRANCH  24  25
ATOM     25  C   UNL A   1      12.489   5.922   8.341  1.00  0.00     0.505 C 
ATOM     26  F   UNL A   1      12.144   4.659   7.979  1.00  0.00    -0.184 F 
ATOM     27  F   UNL A   1      11.532   6.741   7.841  1.00  0.00    -0.184 F 
ENDBRANCH  24  25
ENDBRANCH  16  24
ENDBRANCH  10  13
ENDBRANCH   4   9
TORSDOF 7
ENDMDL
MODEL 4
REMARK VINA RESULT:      -7.6      2.720      4.643
REMARK  7 active torsions:
REMARK  status: ('A' for Active; 'I' for Inactive)
REMARK    1  A    between atoms: O_5  and  C_13 
REMARK    2  A    between atoms: O_5  and  C_14 
REMARK    3  A    between atoms: O_6  and  C_15 
REMARK    4  A    between atoms: O_6  and  C_22 
REMARK       I    between atoms: N_8  and  C_20 
REMARK    5  A    between atoms: N_8  and  C_21 
REMARK    6  A    between atoms: C_10  and  C_13 
REMARK    7  A    between atoms: C_17  and  C_20 
ROOT
ATOM      1 CL   UNL A   1      18.690   2.382  14.285  1.00  0.00    -0.080 Cl
ATOM      2 CL   UNL A   1      18.488   7.637  15.789  1.00  0.00    -0.080 Cl
ATOM      3  N   UNL A   1      20.731   4.554  16.913  1.00  0.00    -0.270 NA
ATOM      4  C   UNL A   1      18.667   4.993  15.105  1.00  0.00     0.081 A 
ATOM      5  C   UNL A   1      19.218   3.730  15.218  1.00  0.00     0.080 A 
ATOM      6  C   UNL A   1      19.129   6.040  15.880  1.00  0.00     0.080 A 
ATOM      7  C   UNL A   1      20.244   3.563  16.134  1.00  0.00     0.142 A 
ATOM      8  C   UNL A   1      20.159   5.770  16.766  1.00  0.00     0.142 A 
ENDROOT
BRANCH   4   9
ATOM      9  N   UNL A   1      17.615   5.217  14.183  1.00  0.00    -0.320 N 
ATOM     10  C   UNL A   1      17.695   5.405  12.796  1.00  0.00     0.256 C 
ATOM     11  O   UNL A   1      18.748   5.405  12.136  1.00  0.00    -0.267 OA
ATOM     12  H   UNL A   1      16.709   5.243  14.567  1.00  0.00     0.169 HD
BRANCH  10  13
ATOM     13  C   UNL A   1      16.433   5.642  12.114  1.00  0.00     0.035 A 
ATOM     14  C   UNL A   1      15.229   5.486  12.800  1.00  0.00     0.056 A 
ATOM     15  C   UNL A   1      14.019   5.713  12.145  1.00  0.00     0.103 A 
ATOM     16  C   UNL A   1      14.012   6.095  10.804  1.00  0.00     0.108 A 
ATOM     17  C   UNL A   1      15.216   6.251  10.117  1.00  0.00     0.041 A 
ATOM     18  C   UNL A   1      16.427   6.024  10.772  1.00  0.00     0.020 A 
BRANCH  15  19
ATOM     19  O   UNL A   1      12.849   5.558  12.825  1.00  0.00    -0.348 OA
BRANCH  19  20
ATOM     20  C   UNL A   1      12.930   4.998  14.134  1.00  0.00     0.180 C 
BRANCH  20  21
ATOM     21  C   UNL A   1      12.508   6.016  15.138  1.00  0.00     0.010 A 
ATOM     22  C   UNL A   1      13.442   6.364  16.256  1.00  0.00     0.007 A 
ATOM     23  C   UNL A   1      13.190   7.349  15.152  1.00  0.00     0.007 A 
ENDBRANCH  20  21
ENDBRANCH  19  20
ENDBRANCH  15  19
BRANCH  16  24
ATOM     24  O   UNL A   1      12.837   6.320  10.153  1.00  0.00    -0.287 OA
BRANCH  24  25
ATOM     25  C   UNL A   1      12.763   5.937   8.785  1.00  0.00     0.505 C 
ATOM     26  F   UNL A   1      12.179   4.712   8.734  1.00  0.00    -0.184 F 
ATOM     27  F   UNL A   1      11.935   6.787   8.130  1.00  0.00    -0.184 F 
ENDBRANCH  24  25
ENDBRANCH  16  24
ENDBRANCH  10  13
ENDBRANCH   4   9
TORSDOF 7
ENDMDL
MODEL 5
REMARK VINA RESULT:      -7.3      2.205      3.303
REMARK  7 active torsions:
REMARK  status: ('A' for Active; 'I' for Inactive)
REMARK    1  A    between atoms: O_5  and  C_13 
REMARK    2  A    between atoms: O_5  and  C_14 
REMARK    3  A    between atoms: O_6  and  C_15 
REMARK    4  A    between atoms: O_6  and  C_22 
REMARK       I    between atoms: N_8  and  C_20 
REMARK    5  A    between atoms: N_8  and  C_21 
REMARK    6  A    between atoms: C_10  and  C_13 
REMARK    7  A    between atoms: C_17  and  C_20 
ROOT
ATOM      1 CL   UNL A   1      14.555   7.192  19.363  1.00  0.00    -0.080 Cl
ATOM      2 CL   UNL A   1      18.790   7.852  15.965  1.00  0.00    -0.080 Cl
ATOM      3  N   UNL A   1      18.407   7.999  19.918  1.00  0.00    -0.270 NA
ATOM      4  C   UNL A   1      16.735   7.540  17.746  1.00  0.00     0.081 A 
ATOM      5  C   UNL A   1      16.214   7.507  19.026  1.00  0.00     0.080 A 
ATOM      6  C   UNL A   1      18.076   7.798  17.532  1.00  0.00     0.080 A 
ATOM      7  C   UNL A   1      17.088   7.743  20.075  1.00  0.00     0.142 A 
ATOM      8  C   UNL A   1      18.867   8.020  18.648  1.00  0.00     0.142 A 
ENDROOT
BRANCH   4   9
ATOM      9  N   UNL A   1      15.883   7.305  16.638  1.00  0.00    -0.320 N 
ATOM     10  C   UNL A   1      15.608   6.093  15.990  1.00  0.00     0.256 C 
ATOM     11  O   UNL A   1      16.091   4.992  16.302  1.00  0.00    -0.267 OA
ATOM     12  H   UNL A   1      15.425   8.097  16.277  1.00  0.00     0.169 HD
BRANCH  10  13
ATOM     13  C   UNL A   1      14.704   6.172  14.853  1.00  0.00     0.035 A 
ATOM     14  C   UNL A   1      15.203   6.052  13.556  1.00  0.00     0.056 A 
ATOM     15  C   UNL A   1      14.335   6.129  12.466  1.00  0.00     0.103 A 
ATOM     16  C   UNL A   1      12.970   6.326  12.674  1.00  0.00     0.108 A 
ATOM     17  C   UNL A   1      12.471   6.446  13.971  1.00  0.00     0.041 A 
ATOM     18  C   UNL A   1      13.339   6.369  15.061  1.00  0.00     0.020 A 
BRANCH  15  19
ATOM     19  O   UNL A   1      14.832   6.011  11.204  1.00  0.00    -0.348 OA
BRANCH  19  20
ATOM     20  C   UNL A   1      16.010   6.755  10.899  1.00  0.00     0.180 C 
BRANCH  20  21
ATOM     21  C   UNL A   1      17.066   5.832  10.395  1.00  0.00     0.010 A 
ATOM     22  C   UNL A   1      18.362   6.405   9.911  1.00  0.00     0.007 A 
ATOM     23  C   UNL A   1      18.312   5.643  11.202  1.00  0.00     0.007 A 
ENDBRANCH  20  21
ENDBRANCH  19  20
ENDBRANCH  15  19
BRANCH  16  24
ATOM     24  O   UNL A   1      12.113   6.401  11.618  1.00  0.00    -0.287 OA
BRANCH  24  25
ATOM     25  C   UNL A   1      11.676   5.176  11.042  1.00  0.00     0.505 C 
ATOM     26  F   UNL A   1      12.294   5.046   9.839  1.00  0.00    -0.184 F 
ATOM     27  F   UNL A   1      12.106   4.146  11.810  1.00  0.00    -0.184 F 
ENDBRANCH  24  25
ENDBRANCH  16  24
ENDBRANCH  10  13
ENDBRANCH   4   9
TORSDOF 7
ENDMDL
MODEL 6
REMARK VINA RESULT:      -7.3      2.355      3.332
REMARK  7 active torsions:
REMARK  status: ('A' for Active; 'I' for Inactive)
REMARK    1  A    between atoms: O_5  and  C_13 
REMARK    2  A    between atoms: O_5  and  C_14 
REMARK    3  A    between atoms: O_6  and  C_15 
REMARK    4  A    between atoms: O_6  and  C_22 
REMARK       I    between atoms: N_8  and  C_20 
REMARK    5  A    between atoms: N_8  and  C_21 
REMARK    6  A    between atoms: C_10  and  C_13 
REMARK    7  A    between atoms: C_17  and  C_20 
ROOT
ATOM      1 CL   UNL A   1      16.981   9.853  17.484  1.00  0.00    -0.080 Cl
ATOM      2 CL   UNL A   1      17.965   4.489  17.905  1.00  0.00    -0.080 Cl
ATOM      3  N   UNL A   1      18.928   7.631  20.142  1.00  0.00    -0.270 NA
ATOM      4  C   UNL A   1      17.526   7.188  17.783  1.00  0.00     0.081 A 
ATOM      5  C   UNL A   1      17.653   8.476  18.269  1.00  0.00     0.080 A 
ATOM      6  C   UNL A   1      18.087   6.117  18.454  1.00  0.00     0.080 A 
ATOM      7  C   UNL A   1      18.362   8.644  19.448  1.00  0.00     0.142 A 
ATOM      8  C   UNL A   1      18.775   6.391  19.625  1.00  0.00     0.142 A 
ENDROOT
BRANCH   4   9
ATOM      9  N   UNL A   1      16.810   6.962  16.582  1.00  0.00    -0.320 N 
ATOM     10  C   UNL A   1      15.442   6.709  16.415  1.00  0.00     0.256 C 
ATOM     11  O   UNL A   1      14.611   6.641  17.336  1.00  0.00    -0.267 OA
ATOM     12  H   UNL A   1      17.345   6.986  15.755  1.00  0.00     0.169 HD
BRANCH  10  13
ATOM     13  C   UNL A   1      14.999   6.488  15.047  1.00  0.00     0.035 A 
ATOM     14  C   UNL A   1      15.896   6.010  14.092  1.00  0.00     0.056 A 
ATOM     15  C   UNL A   1      15.471   5.799  12.780  1.00  0.00     0.103 A 
ATOM     16  C   UNL A   1      14.150   6.067  12.424  1.00  0.00     0.108 A 
ATOM     17  C   UNL A   1      13.252   6.545  13.378  1.00  0.00     0.041 A 
ATOM     18  C   UNL A   1      13.678   6.756  14.690  1.00  0.00     0.020 A 
BRANCH  15  19
ATOM     19  O   UNL A   1      16.356   5.332  11.856  1.00  0.00    -0.348 OA
BRANCH  19  20
ATOM     20  C   UNL A   1      17.549   6.089  11.660  1.00  0.00     0.180 C 
BRANCH  20  21
ATOM     21  C   UNL A   1      17.541   6.689  10.297  1.00  0.00     0.010 A 
ATOM     22  C   UNL A   1      16.788   7.963  10.067  1.00  0.00     0.007 A 
ATOM     23  C   UNL A   1      18.288   7.964  10.059  1.00  0.00     0.007 A 
ENDBRANCH  20  21
ENDBRANCH  19  20
ENDBRANCH  15  19
BRANCH  16  24
ATOM     24  O   UNL A   1      13.723   5.864  11.146  1.00  0.00    -0.287 OA
BRANCH  24  25
ATOM     25  C   UNL A   1      12.323   5.713  10.941  1.00  0.00     0.505 C 
ATOM     26  F   UNL A   1      11.877   6.836  10.320  1.00  0.00    -0.184 F 
ATOM     27  F   UNL A   1      12.108   4.686  10.083  1.00  0.00    -0.184 F 
ENDBRANCH  24  25
ENDBRANCH  16  24
ENDBRANCH  10  13
ENDBRANCH   4   9
TORSDOF 7
ENDMDL
MODEL 7
REMARK VINA RESULT:      -7.1      3.790      5.148
REMARK  7 active torsions:
REMARK  status: ('A' for Active; 'I' for Inactive)
REMARK    1  A    between atoms: O_5  and  C_13 
REMARK    2  A    between atoms: O_5  and  C_14 
REMARK    3  A    between atoms: O_6  and  C_15 
REMARK    4  A    between atoms: O_6  and  C_22 
REMARK       I    between atoms: N_8  and  C_20 
REMARK    5  A    between atoms: N_8  and  C_21 
REMARK    6  A    between atoms: C_10  and  C_13 
REMARK    7  A    between atoms: C_17  and  C_20 
ROOT
ATOM      1 CL   UNL A   1      20.360   4.553  16.903  1.00  0.00    -0.080 Cl
ATOM      2 CL   UNL A   1      16.391   1.062  15.499  1.00  0.00    -0.080 Cl
ATOM      3  N   UNL A   1      18.905   1.253  18.572  1.00  0.00    -0.270 NA
ATOM      4  C   UNL A   1      18.395   2.751  16.287  1.00  0.00     0.081 A 
ATOM      5  C   UNL A   1      19.393   3.152  17.156  1.00  0.00     0.080 A 
ATOM      6  C   UNL A   1      17.648   1.616  16.539  1.00  0.00     0.080 A 
ATOM      7  C   UNL A   1      19.608   2.371  18.281  1.00  0.00     0.142 A 
ATOM      8  C   UNL A   1      17.941   0.904  17.691  1.00  0.00     0.142 A 
ENDROOT
BRANCH   4   9
ATOM      9  N   UNL A   1      18.135   3.515  15.123  1.00  0.00    -0.320 N 
ATOM     10  C   UNL A   1      17.129   4.469  14.911  1.00  0.00     0.256 C 
ATOM     11  O   UNL A   1      16.276   4.804  15.750  1.00  0.00    -0.267 OA
ATOM     12  H   UNL A   1      18.740   3.355  14.363  1.00  0.00     0.169 HD
BRANCH  10  13
ATOM     13  C   UNL A   1      17.097   5.074  13.589  1.00  0.00     0.035 A 
ATOM     14  C   UNL A   1      15.907   5.611  13.098  1.00  0.00     0.056 A 
ATOM     15  C   UNL A   1      15.876   6.191  11.829  1.00  0.00     0.103 A 
ATOM     16  C   UNL A   1      17.034   6.232  11.052  1.00  0.00     0.108 A 
ATOM     17  C   UNL A   1      18.223   5.695  11.544  1.00  0.00     0.041 A 
ATOM     18  C   UNL A   1      18.254   5.115  12.813  1.00  0.00     0.020 A 
BRANCH  15  19
ATOM     19  O   UNL A   1      14.709   6.712  11.359  1.00  0.00    -0.348 OA
BRANCH  19  20
ATOM     20  C   UNL A   1      14.048   5.991  10.321  1.00  0.00     0.180 C 
BRANCH  20  21
ATOM     21  C   UNL A   1      12.597   5.875  10.640  1.00  0.00     0.010 A 
ATOM     22  C   UNL A   1      12.153   4.858  11.645  1.00  0.00     0.007 A 
ATOM     23  C   UNL A   1      12.111   6.318  11.984  1.00  0.00     0.007 A 
ENDBRANCH  20  21
ENDBRANCH  19  20
ENDBRANCH  15  19
BRANCH  16  24
ATOM     24  O   UNL A   1      17.016   6.796   9.813  1.00  0.00    -0.287 OA
BRANCH  24  25
ATOM     25  C   UNL A   1      17.433   8.152   9.706  1.00  0.00     0.505 C 
ATOM     26  F   UNL A   1      16.482   8.921  10.297  1.00  0.00    -0.184 F 
ATOM     27  F   UNL A   1      18.570   8.325  10.423  1.00  0.00    -0.184 F 
ENDBRANCH  24  25
ENDBRANCH  16  24
ENDBRANCH  10  13
ENDBRANCH   4   9
TORSDOF 7
ENDMDL
MODEL 8
REMARK VINA RESULT:      -7.1      2.683      3.717
REMARK  7 active torsions:
REMARK  status: ('A' for Active; 'I' for Inactive)
REMARK    1  A    between atoms: O_5  and  C_13 
REMARK    2  A    between atoms: O_5  and  C_14 
REMARK    3  A    between atoms: O_6  and  C_15 
REMARK    4  A    between atoms: O_6  and  C_22 
REMARK       I    between atoms: N_8  and  C_20 
REMARK    5  A    between atoms: N_8  and  C_21 
REMARK    6  A    between atoms: C_10  and  C_13 
REMARK    7  A    between atoms: C_17  and  C_20 
ROOT
ATOM      1 CL   UNL A   1      18.454   5.042  18.256  1.00  0.00    -0.080 Cl
ATOM      2 CL   UNL A   1      17.479  10.338  17.298  1.00  0.00    -0.080 Cl
ATOM      3  N   UNL A   1      19.598   8.401  20.046  1.00  0.00    -0.270 NA
ATOM      4  C   UNL A   1      18.026   7.716  17.859  1.00  0.00     0.081 A 
ATOM      5  C   UNL A   1      18.626   6.720  18.606  1.00  0.00     0.080 A 
ATOM      6  C   UNL A   1      18.197   9.048  18.185  1.00  0.00     0.080 A 
ATOM      7  C   UNL A   1      19.399   7.113  19.687  1.00  0.00     0.142 A 
ATOM      8  C   UNL A   1      18.990   9.338  19.284  1.00  0.00     0.142 A 
ENDROOT
BRANCH   4   9
ATOM      9  N   UNL A   1      17.225   7.367  16.744  1.00  0.00    -0.320 N 
ATOM     10  C   UNL A   1      15.868   7.015  16.719  1.00  0.00     0.256 C 
ATOM     11  O   UNL A   1      15.129   6.953  17.716  1.00  0.00    -0.267 OA
ATOM     12  H   UNL A   1      17.682   7.372  15.872  1.00  0.00     0.169 HD
BRANCH  10  13
ATOM     13  C   UNL A   1      15.323   6.678  15.413  1.00  0.00     0.035 A 
ATOM     14  C   UNL A   1      16.150   6.129  14.433  1.00  0.00     0.056 A 
ATOM     15  C   UNL A   1      15.627   5.807  13.180  1.00  0.00     0.103 A 
ATOM     16  C   UNL A   1      14.279   6.035  12.908  1.00  0.00     0.108 A 
ATOM     17  C   UNL A   1      13.452   6.585  13.888  1.00  0.00     0.041 A 
ATOM     18  C   UNL A   1      13.975   6.907  15.140  1.00  0.00     0.020 A 
BRANCH  15  19
ATOM     19  O   UNL A   1      16.443   5.271  12.231  1.00  0.00    -0.348 OA
BRANCH  19  20
ATOM     20  C   UNL A   1      17.604   6.020  11.876  1.00  0.00     0.180 C 
BRANCH  20  21
ATOM     21  C   UNL A   1      17.473   6.508  10.474  1.00  0.00     0.010 A 
ATOM     22  C   UNL A   1      16.606   7.696  10.196  1.00  0.00     0.007 A 
ATOM     23  C   UNL A   1      18.098   7.814  10.098  1.00  0.00     0.007 A 
ENDBRANCH  20  21
ENDBRANCH  19  20
ENDBRANCH  15  19
BRANCH  16  24
ATOM     24  O   UNL A   1      13.756   5.724  11.689  1.00  0.00    -0.287 OA
BRANCH  24  25
ATOM     25  C   UNL A   1      12.339   5.677  11.578  1.00  0.00     0.505 C 
ATOM     26  F   UNL A   1      11.945   6.779  10.888  1.00  0.00    -0.184 F 
ATOM     27  F   UNL A   1      11.987   4.605  10.827  1.00  0.00    -0.184 F 
ENDBRANCH  24  25
ENDBRANCH  16  24
ENDBRANCH  10  13
ENDBRANCH   4   9
TORSDOF 7
ENDMDL
MODEL 9
REMARK VINA RESULT:      -7.1      3.256      4.867
REMARK  7 active torsions:
REMARK  status: ('A' for Active; 'I' for Inactive)
REMARK    1  A    between atoms: O_5  and  C_13 
REMARK    2  A    between atoms: O_5  and  C_14 
REMARK    3  A    between atoms: O_6  and  C_15 
REMARK    4  A    between atoms: O_6  and  C_22 
REMARK       I    between atoms: N_8  and  C_20 
REMARK    5  A    between atoms: N_8  and  C_21 
REMARK    6  A    between atoms: C_10  and  C_13 
REMARK    7  A    between atoms: C_17  and  C_20 
ROOT
ATOM      1 CL   UNL A   1      18.565   1.524  16.648  1.00  0.00    -0.080 Cl
ATOM      2 CL   UNL A   1      17.623   6.606  18.439  1.00  0.00    -0.080 Cl
ATOM      3  N   UNL A   1      18.554   3.195  20.254  1.00  0.00    -0.270 NA
ATOM      4  C   UNL A   1      18.111   4.033  17.642  1.00  0.00     0.081 A 
ATOM      5  C   UNL A   1      18.427   2.710  17.889  1.00  0.00     0.080 A 
ATOM      6  C   UNL A   1      18.012   4.945  18.677  1.00  0.00     0.080 A 
ATOM      7  C   UNL A   1      18.638   2.342  19.208  1.00  0.00     0.142 A 
ATOM      8  C   UNL A   1      18.243   4.477  19.960  1.00  0.00     0.142 A 
ENDROOT
BRANCH   4   9
ATOM      9  N   UNL A   1      17.886   4.461  16.310  1.00  0.00    -0.320 N 
ATOM     10  C   UNL A   1      16.704   4.392  15.559  1.00  0.00     0.256 C 
ATOM     11  O   UNL A   1      15.628   3.924  15.965  1.00  0.00    -0.267 OA
ATOM     12  H   UNL A   1      18.661   4.859  15.852  1.00  0.00     0.169 HD
BRANCH  10  13
ATOM     13  C   UNL A   1      16.789   4.892  14.195  1.00  0.00     0.035 A 
ATOM     14  C   UNL A   1      15.630   5.279  13.522  1.00  0.00     0.056 A 
ATOM     15  C   UNL A   1      15.712   5.758  12.214  1.00  0.00     0.103 A 
ATOM     16  C   UNL A   1      16.951   5.848  11.580  1.00  0.00     0.108 A 
ATOM     17  C   UNL A   1      18.110   5.461  12.254  1.00  0.00     0.041 A 
ATOM     18  C   UNL A   1      18.028   4.983  13.562  1.00  0.00     0.020 A 
BRANCH  15  19
ATOM     19  O   UNL A   1      14.575   6.133  11.565  1.00  0.00    -0.348 OA
BRANCH  19  20
ATOM     20  C   UNL A   1      13.382   6.214  12.343  1.00  0.00     0.180 C 
BRANCH  20  21
ATOM     21  C   UNL A   1      12.196   6.166  11.442  1.00  0.00     0.010 A 
ATOM     22  C   UNL A   1      12.401   6.274   9.963  1.00  0.00     0.007 A 
ATOM     23  C   UNL A   1      11.992   4.966  10.572  1.00  0.00     0.007 A 
ENDBRANCH  20  21
ENDBRANCH  19  20
ENDBRANCH  15  19
BRANCH  16  24
ATOM     24  O   UNL A   1      17.044   6.315  10.304  1.00  0.00    -0.287 OA
BRANCH  24  25
ATOM     25  C   UNL A   1      17.687   7.569  10.112  1.00  0.00     0.505 C 
ATOM     26  F   UNL A   1      18.780   7.354   9.333  1.00  0.00    -0.184 F 
ATOM     27  F   UNL A   1      16.867   8.387   9.408  1.00  0.00    -0.184 F 
ENDBRANCH  24  25
ENDBRANCH  16  24
ENDBRANCH  10  13
ENDBRANCH   4   9
TORSDOF 7
ENDMDL
