MODEL 1
REMARK VINA RESULT:      -8.8      0.000      0.000
REMARK  7 active torsions:
REMARK  status: ('A' for Active; 'I' for Inactive)
REMARK    1  A    between atoms: O_5  and  C_13 
REMARK    2  A    between atoms: O_5  and  C_14 
REMARK    3  A    between atoms: O_6  and  C_15 
REMARK    4  A    between atoms: O_6  and  C_22 
REMARK       I    between atoms: N_8  and  C_20 
REMARK    5  A    between atoms: N_8  and  C_21 
REMARK    6  A    between atoms: C_10  and  C_13 
REMARK    7  A    between atoms: C_17  and  C_20 
ROOT
ATOM      1 CL   UNL A   1      22.414  -6.395  27.695  1.00  0.00    -0.080 Cl
ATOM      2 CL   UNL A   1      17.316  -4.669  28.662  1.00  0.00    -0.080 Cl
ATOM      3  N   UNL A   1      19.006  -6.662  25.668  1.00  0.00    -0.270 NA
ATOM      4  C   UNL A   1      19.834  -5.573  28.087  1.00  0.00     0.081 A 
ATOM      5  C   UNL A   1      20.752  -6.220  27.281  1.00  0.00     0.080 A 
ATOM      6  C   UNL A   1      18.510  -5.460  27.706  1.00  0.00     0.080 A 
ATOM      7  C   UNL A   1      20.290  -6.745  26.085  1.00  0.00     0.142 A 
ATOM      8  C   UNL A   1      18.148  -6.020  26.492  1.00  0.00     0.142 A 
ENDROOT
BRANCH   4   9
ATOM      9  N   UNL A   1      20.256  -5.018  29.321  1.00  0.00    -0.320 N 
ATOM     10  C   UNL A   1      20.656  -3.703  29.596  1.00  0.00     0.256 C 
ATOM     11  O   UNL A   1      20.703  -2.784  28.762  1.00  0.00    -0.267 OA
ATOM     12  H   UNL A   1      20.270  -5.639  30.085  1.00  0.00     0.169 HD
BRANCH  10  13
ATOM     13  C   UNL A   1      21.064  -3.437  30.966  1.00  0.00     0.035 A 
ATOM     14  C   UNL A   1      21.452  -4.490  31.795  1.00  0.00     0.056 A 
ATOM     15  C   UNL A   1      21.842  -4.234  33.110  1.00  0.00     0.103 A 
ATOM     16  C   UNL A   1      21.843  -2.926  33.595  1.00  0.00     0.108 A 
ATOM     17  C   UNL A   1      21.455  -1.874  32.766  1.00  0.00     0.041 A 
ATOM     18  C   UNL A   1      21.065  -2.130  31.452  1.00  0.00     0.020 A 
BRANCH  15  19
ATOM     19  O   UNL A   1      22.219  -5.269  33.911  1.00  0.00    -0.348 OA
BRANCH  19  20
ATOM     20  C   UNL A   1      21.390  -6.430  33.902  1.00  0.00     0.180 C 
BRANCH  20  21
ATOM     21  C   UNL A   1      22.223  -7.634  33.622  1.00  0.00     0.010 A 
ATOM     22  C   UNL A   1      23.269  -7.562  32.554  1.00  0.00     0.007 A 
ATOM     23  C   UNL A   1      23.671  -7.619  33.998  1.00  0.00     0.007 A 
ENDBRANCH  20  21
ENDBRANCH  19  20
ENDBRANCH  15  19
BRANCH  16  24
ATOM     24  O   UNL A   1      22.223  -2.664  34.877  1.00  0.00    -0.287 OA
BRANCH  24  25
ATOM     25  C   UNL A   1      22.663  -1.343  35.171  1.00  0.00     0.505 C 
ATOM     26  F   UNL A   1      22.388  -1.102  36.479  1.00  0.00    -0.184 F 
ATOM     27  F   UNL A   1      24.011  -1.284  35.042  1.00  0.00    -0.184 F 
ENDBRANCH  24  25
ENDBRANCH  16  24
ENDBRANCH  10  13
ENDBRANCH   4   9
TORSDOF 7
ENDMDL
MODEL 2
REMARK VINA RESULT:      -8.8      0.228      1.787
REMARK  7 active torsions:
REMARK  status: ('A' for Active; 'I' for Inactive)
REMARK    1  A    between atoms: O_5  and  C_13 
REMARK    2  A    between atoms: O_5  and  C_14 
REMARK    3  A    between atoms: O_6  and  C_15 
REMARK    4  A    between atoms: O_6  and  C_22 
REMARK       I    between atoms: N_8  and  C_20 
REMARK    5  A    between atoms: N_8  and  C_21 
REMARK    6  A    between atoms: C_10  and  C_13 
REMARK    7  A    between atoms: C_17  and  C_20 
ROOT
ATOM      1 CL   UNL A   1      17.609  -4.641  28.455  1.00  0.00    -0.080 Cl
ATOM      2 CL   UNL A   1      22.673  -6.622  27.871  1.00  0.00    -0.080 Cl
ATOM      3  N   UNL A   1      19.393  -6.796  25.633  1.00  0.00    -0.270 NA
ATOM      4  C   UNL A   1      20.114  -5.674  28.071  1.00  0.00     0.081 A 
ATOM      5  C   UNL A   1      18.824  -5.513  27.602  1.00  0.00     0.080 A 
ATOM      6  C   UNL A   1      21.051  -6.385  27.345  1.00  0.00     0.080 A 
ATOM      7  C   UNL A   1      18.514  -6.092  26.381  1.00  0.00     0.142 A 
ATOM      8  C   UNL A   1      20.642  -6.925  26.135  1.00  0.00     0.142 A 
ENDROOT
BRANCH   4   9
ATOM      9  N   UNL A   1      20.482  -5.101  29.314  1.00  0.00    -0.320 N 
ATOM     10  C   UNL A   1      20.845  -3.776  29.591  1.00  0.00     0.256 C 
ATOM     11  O   UNL A   1      20.902  -2.862  28.752  1.00  0.00    -0.267 OA
ATOM     12  H   UNL A   1      20.482  -5.715  30.083  1.00  0.00     0.169 HD
BRANCH  10  13
ATOM     13  C   UNL A   1      21.200  -3.491  30.972  1.00  0.00     0.035 A 
ATOM     14  C   UNL A   1      21.540  -4.533  31.834  1.00  0.00     0.056 A 
ATOM     15  C   UNL A   1      21.880  -4.259  33.159  1.00  0.00     0.103 A 
ATOM     16  C   UNL A   1      21.880  -2.943  33.622  1.00  0.00     0.108 A 
ATOM     17  C   UNL A   1      21.540  -1.901  32.760  1.00  0.00     0.041 A 
ATOM     18  C   UNL A   1      21.200  -2.175  31.435  1.00  0.00     0.020 A 
BRANCH  15  19
ATOM     19  O   UNL A   1      22.210  -5.285  33.992  1.00  0.00    -0.348 OA
BRANCH  19  20
ATOM     20  C   UNL A   1      21.376  -6.441  33.959  1.00  0.00     0.180 C 
BRANCH  20  21
ATOM     21  C   UNL A   1      22.209  -7.648  33.691  1.00  0.00     0.010 A 
ATOM     22  C   UNL A   1      23.295  -7.569  32.663  1.00  0.00     0.007 A 
ATOM     23  C   UNL A   1      23.642  -7.652  34.120  1.00  0.00     0.007 A 
ENDBRANCH  20  21
ENDBRANCH  19  20
ENDBRANCH  15  19
BRANCH  16  24
ATOM     24  O   UNL A   1      22.211  -2.663  34.913  1.00  0.00    -0.287 OA
BRANCH  24  25
ATOM     25  C   UNL A   1      22.682  -1.351  35.197  1.00  0.00     0.505 C 
ATOM     26  F   UNL A   1      22.415  -1.094  36.504  1.00  0.00    -0.184 F 
ATOM     27  F   UNL A   1      24.031  -1.325  35.066  1.00  0.00    -0.184 F 
ENDBRANCH  24  25
ENDBRANCH  16  24
ENDBRANCH  10  13
ENDBRANCH   4   9
TORSDOF 7
ENDMDL
MODEL 3
REMARK VINA RESULT:      -7.8      2.908      4.958
REMARK  7 active torsions:
REMARK  status: ('A' for Active; 'I' for Inactive)
REMARK    1  A    between atoms: O_5  and  C_13 
REMARK    2  A    between atoms: O_5  and  C_14 
REMARK    3  A    between atoms: O_6  and  C_15 
REMARK    4  A    between atoms: O_6  and  C_22 
REMARK       I    between atoms: N_8  and  C_20 
REMARK    5  A    between atoms: N_8  and  C_21 
REMARK    6  A    between atoms: C_10  and  C_13 
REMARK    7  A    between atoms: C_17  and  C_20 
ROOT
ATOM      1 CL   UNL A   1      25.172  -8.880  31.419  1.00  0.00    -0.080 Cl
ATOM      2 CL   UNL A   1      22.394  -7.010  27.095  1.00  0.00    -0.080 Cl
ATOM      3  N   UNL A   1      24.714 -10.181  27.692  1.00  0.00    -0.270 NA
ATOM      4  C   UNL A   1      23.817  -8.026  29.200  1.00  0.00     0.081 A 
ATOM      5  C   UNL A   1      24.647  -8.966  29.781  1.00  0.00     0.080 A 
ATOM      6  C   UNL A   1      23.426  -8.143  27.879  1.00  0.00     0.080 A 
ATOM      7  C   UNL A   1      25.068 -10.021  28.987  1.00  0.00     0.142 A 
ATOM      8  C   UNL A   1      23.900  -9.235  27.170  1.00  0.00     0.142 A 
ENDROOT
BRANCH   4   9
ATOM      9  N   UNL A   1      23.359  -6.928  29.969  1.00  0.00    -0.320 N 
ATOM     10  C   UNL A   1      22.387  -6.914  30.979  1.00  0.00     0.256 C 
ATOM     11  O   UNL A   1      21.752  -7.907  31.371  1.00  0.00    -0.267 OA
ATOM     12  H   UNL A   1      23.778  -6.060  29.767  1.00  0.00     0.169 HD
BRANCH  10  13
ATOM     13  C   UNL A   1      22.109  -5.617  31.575  1.00  0.00     0.035 A 
ATOM     14  C   UNL A   1      21.558  -4.597  30.799  1.00  0.00     0.056 A 
ATOM     15  C   UNL A   1      21.292  -3.352  31.370  1.00  0.00     0.103 A 
ATOM     16  C   UNL A   1      21.577  -3.128  32.717  1.00  0.00     0.108 A 
ATOM     17  C   UNL A   1      22.128  -4.148  33.493  1.00  0.00     0.041 A 
ATOM     18  C   UNL A   1      22.393  -5.392  32.922  1.00  0.00     0.020 A 
BRANCH  15  19
ATOM     19  O   UNL A   1      20.754  -2.364  30.603  1.00  0.00    -0.348 OA
BRANCH  19  20
ATOM     20  C   UNL A   1      19.608  -2.699  29.824  1.00  0.00     0.180 C 
BRANCH  20  21
ATOM     21  C   UNL A   1      19.838  -2.306  28.405  1.00  0.00     0.010 A 
ATOM     22  C   UNL A   1      21.172  -2.576  27.782  1.00  0.00     0.007 A 
ATOM     23  C   UNL A   1      19.973  -3.375  27.367  1.00  0.00     0.007 A 
ENDBRANCH  20  21
ENDBRANCH  19  20
ENDBRANCH  15  19
BRANCH  16  24
ATOM     24  O   UNL A   1      21.320  -1.918  33.287  1.00  0.00    -0.287 OA
BRANCH  24  25
ATOM     25  C   UNL A   1      21.825  -1.692  34.598  1.00  0.00     0.505 C 
ATOM     26  F   UNL A   1      22.960  -0.955  34.479  1.00  0.00    -0.184 F 
ATOM     27  F   UNL A   1      20.941  -0.932  35.289  1.00  0.00    -0.184 F 
ENDBRANCH  24  25
ENDBRANCH  16  24
ENDBRANCH  10  13
ENDBRANCH   4   9
TORSDOF 7
ENDMDL
MODEL 4
REMARK VINA RESULT:      -7.8      2.858      5.039
REMARK  7 active torsions:
REMARK  status: ('A' for Active; 'I' for Inactive)
REMARK    1  A    between atoms: O_5  and  C_13 
REMARK    2  A    between atoms: O_5  and  C_14 
REMARK    3  A    between atoms: O_6  and  C_15 
REMARK    4  A    between atoms: O_6  and  C_22 
REMARK       I    between atoms: N_8  and  C_20 
REMARK    5  A    between atoms: N_8  and  C_21 
REMARK    6  A    between atoms: C_10  and  C_13 
REMARK    7  A    between atoms: C_17  and  C_20 
ROOT
ATOM      1 CL   UNL A   1      21.884  -7.247  27.221  1.00  0.00    -0.080 Cl
ATOM      2 CL   UNL A   1      25.312  -8.759  31.205  1.00  0.00    -0.080 Cl
ATOM      3  N   UNL A   1      24.433 -10.267  27.635  1.00  0.00    -0.270 NA
ATOM      4  C   UNL A   1      23.628  -8.085  29.156  1.00  0.00     0.081 A 
ATOM      5  C   UNL A   1      23.072  -8.288  27.907  1.00  0.00     0.080 A 
ATOM      6  C   UNL A   1      24.579  -8.953  29.659  1.00  0.00     0.080 A 
ATOM      7  C   UNL A   1      23.506  -9.390  27.188  1.00  0.00     0.142 A 
ATOM      8  C   UNL A   1      24.947 -10.025  28.862  1.00  0.00     0.142 A 
ENDROOT
BRANCH   4   9
ATOM      9  N   UNL A   1      23.218  -6.972  29.931  1.00  0.00    -0.320 N 
ATOM     10  C   UNL A   1      22.350  -6.947  31.031  1.00  0.00     0.256 C 
ATOM     11  O   UNL A   1      21.783  -7.940  31.515  1.00  0.00    -0.267 OA
ATOM     12  H   UNL A   1      23.593  -6.102  29.661  1.00  0.00     0.169 HD
BRANCH  10  13
ATOM     13  C   UNL A   1      22.097  -5.636  31.610  1.00  0.00     0.035 A 
ATOM     14  C   UNL A   1      21.607  -4.604  30.810  1.00  0.00     0.056 A 
ATOM     15  C   UNL A   1      21.366  -3.347  31.366  1.00  0.00     0.103 A 
ATOM     16  C   UNL A   1      21.614  -3.123  32.720  1.00  0.00     0.108 A 
ATOM     17  C   UNL A   1      22.103  -4.156  33.520  1.00  0.00     0.041 A 
ATOM     18  C   UNL A   1      22.345  -5.413  32.964  1.00  0.00     0.020 A 
BRANCH  15  19
ATOM     19  O   UNL A   1      20.888  -2.346  30.576  1.00  0.00    -0.348 OA
BRANCH  19  20
ATOM     20  C   UNL A   1      19.575  -2.510  30.044  1.00  0.00     0.180 C 
BRANCH  20  21
ATOM     21  C   UNL A   1      19.616  -2.362  28.562  1.00  0.00     0.010 A 
ATOM     22  C   UNL A   1      20.935  -2.444  27.859  1.00  0.00     0.007 A 
ATOM     23  C   UNL A   1      19.938  -3.556  27.720  1.00  0.00     0.007 A 
ENDBRANCH  20  21
ENDBRANCH  19  20
ENDBRANCH  15  19
BRANCH  16  24
ATOM     24  O   UNL A   1      21.380  -1.901  33.274  1.00  0.00    -0.287 OA
BRANCH  24  25
ATOM     25  C   UNL A   1      21.845  -1.686  34.601  1.00  0.00     0.505 C 
ATOM     26  F   UNL A   1      22.974  -0.934  34.523  1.00  0.00    -0.184 F 
ATOM     27  F   UNL A   1      20.934  -0.944  35.277  1.00  0.00    -0.184 F 
ENDBRANCH  24  25
ENDBRANCH  16  24
ENDBRANCH  10  13
ENDBRANCH   4   9
TORSDOF 7
ENDMDL
MODEL 5
REMARK VINA RESULT:      -7.5      1.431      2.494
REMARK  7 active torsions:
REMARK  status: ('A' for Active; 'I' for Inactive)
REMARK    1  A    between atoms: O_5  and  C_13 
REMARK    2  A    between atoms: O_5  and  C_14 
REMARK    3  A    between atoms: O_6  and  C_15 
REMARK    4  A    between atoms: O_6  and  C_22 
REMARK       I    between atoms: N_8  and  C_20 
REMARK    5  A    between atoms: N_8  and  C_21 
REMARK    6  A    between atoms: C_10  and  C_13 
REMARK    7  A    between atoms: C_17  and  C_20 
ROOT
ATOM      1 CL   UNL A   1      16.062  -5.300  28.405  1.00  0.00    -0.080 Cl
ATOM      2 CL   UNL A   1      20.954  -6.680  26.386  1.00  0.00    -0.080 Cl
ATOM      3  N   UNL A   1      17.223  -7.244  25.138  1.00  0.00    -0.270 NA
ATOM      4  C   UNL A   1      18.461  -6.036  27.314  1.00  0.00     0.081 A 
ATOM      5  C   UNL A   1      17.082  -6.028  27.224  1.00  0.00     0.080 A 
ATOM      6  C   UNL A   1      19.233  -6.636  26.336  1.00  0.00     0.080 A 
ATOM      7  C   UNL A   1      16.513  -6.644  26.121  1.00  0.00     0.142 A 
ATOM      8  C   UNL A   1      18.568  -7.224  25.272  1.00  0.00     0.142 A 
ENDROOT
BRANCH   4   9
ATOM      9  N   UNL A   1      19.093  -5.419  28.422  1.00  0.00    -0.320 N 
ATOM     10  C   UNL A   1      19.216  -4.053  28.708  1.00  0.00     0.256 C 
ATOM     11  O   UNL A   1      18.770  -3.134  28.001  1.00  0.00    -0.267 OA
ATOM     12  H   UNL A   1      19.499  -6.032  29.077  1.00  0.00     0.169 HD
BRANCH  10  13
ATOM     13  C   UNL A   1      19.950  -3.721  29.919  1.00  0.00     0.035 A 
ATOM     14  C   UNL A   1      20.875  -4.624  30.443  1.00  0.00     0.056 A 
ATOM     15  C   UNL A   1      21.578  -4.305  31.605  1.00  0.00     0.103 A 
ATOM     16  C   UNL A   1      21.356  -3.085  32.243  1.00  0.00     0.108 A 
ATOM     17  C   UNL A   1      20.431  -2.182  31.719  1.00  0.00     0.041 A 
ATOM     18  C   UNL A   1      19.728  -2.501  30.556  1.00  0.00     0.020 A 
BRANCH  15  19
ATOM     19  O   UNL A   1      22.479  -5.194  32.109  1.00  0.00    -0.348 OA
BRANCH  19  20
ATOM     20  C   UNL A   1      22.135  -6.577  32.035  1.00  0.00     0.180 C 
BRANCH  20  21
ATOM     21  C   UNL A   1      22.235  -7.188  33.391  1.00  0.00     0.010 A 
ATOM     22  C   UNL A   1      21.378  -6.651  34.495  1.00  0.00     0.007 A 
ATOM     23  C   UNL A   1      21.089  -8.000  33.907  1.00  0.00     0.007 A 
ENDBRANCH  20  21
ENDBRANCH  19  20
ENDBRANCH  15  19
BRANCH  16  24
ATOM     24  O   UNL A   1      22.037  -2.762  33.378  1.00  0.00    -0.287 OA
BRANCH  24  25
ATOM     25  C   UNL A   1      21.947  -1.418  33.834  1.00  0.00     0.505 C 
ATOM     26  F   UNL A   1      21.363  -1.440  35.060  1.00  0.00    -0.184 F 
ATOM     27  F   UNL A   1      23.197  -0.924  34.010  1.00  0.00    -0.184 F 
ENDBRANCH  24  25
ENDBRANCH  16  24
ENDBRANCH  10  13
ENDBRANCH   4   9
TORSDOF 7
ENDMDL
MODEL 6
REMARK VINA RESULT:      -7.4      2.383      4.226
REMARK  7 active torsions:
REMARK  status: ('A' for Active; 'I' for Inactive)
REMARK    1  A    between atoms: O_5  and  C_13 
REMARK    2  A    between atoms: O_5  and  C_14 
REMARK    3  A    between atoms: O_6  and  C_15 
REMARK    4  A    between atoms: O_6  and  C_22 
REMARK       I    between atoms: N_8  and  C_20 
REMARK    5  A    between atoms: N_8  and  C_21 
REMARK    6  A    between atoms: C_10  and  C_13 
REMARK    7  A    between atoms: C_17  and  C_20 
ROOT
ATOM      1 CL   UNL A   1      17.192  -5.317  28.240  1.00  0.00    -0.080 Cl
ATOM      2 CL   UNL A   1      21.480  -7.834  25.961  1.00  0.00    -0.080 Cl
ATOM      3  N   UNL A   1      17.887  -6.795  24.617  1.00  0.00    -0.270 NA
ATOM      4  C   UNL A   1      19.283  -6.583  27.011  1.00  0.00     0.081 A 
ATOM      5  C   UNL A   1      17.998  -6.082  26.925  1.00  0.00     0.080 A 
ATOM      6  C   UNL A   1      19.883  -7.189  25.922  1.00  0.00     0.080 A 
ATOM      7  C   UNL A   1      17.344  -6.213  25.710  1.00  0.00     0.142 A 
ATOM      8  C   UNL A   1      19.145  -7.270  24.752  1.00  0.00     0.142 A 
ENDROOT
BRANCH   4   9
ATOM      9  N   UNL A   1      19.996  -6.474  28.230  1.00  0.00    -0.320 N 
ATOM     10  C   UNL A   1      20.752  -5.394  28.706  1.00  0.00     0.256 C 
ATOM     11  O   UNL A   1      20.920  -4.321  28.104  1.00  0.00    -0.267 OA
ATOM     12  H   UNL A   1      19.954  -7.261  28.821  1.00  0.00     0.169 HD
BRANCH  10  13
ATOM     13  C   UNL A   1      21.396  -5.590  29.996  1.00  0.00     0.035 A 
ATOM     14  C   UNL A   1      21.276  -4.619  30.990  1.00  0.00     0.056 A 
ATOM     15  C   UNL A   1      21.895  -4.806  32.226  1.00  0.00     0.103 A 
ATOM     16  C   UNL A   1      22.634  -5.964  32.467  1.00  0.00     0.108 A 
ATOM     17  C   UNL A   1      22.755  -6.935  31.473  1.00  0.00     0.041 A 
ATOM     18  C   UNL A   1      22.136  -6.748  30.237  1.00  0.00     0.020 A 
BRANCH  15  19
ATOM     19  O   UNL A   1      21.771  -3.852  33.189  1.00  0.00    -0.348 OA
BRANCH  19  20
ATOM     20  C   UNL A   1      21.398  -2.544  32.761  1.00  0.00     0.180 C 
BRANCH  20  21
ATOM     21  C   UNL A   1      21.883  -1.538  33.748  1.00  0.00     0.010 A 
ATOM     22  C   UNL A   1      21.367  -1.590  35.152  1.00  0.00     0.007 A 
ATOM     23  C   UNL A   1      22.784  -1.985  34.857  1.00  0.00     0.007 A 
ENDBRANCH  20  21
ENDBRANCH  19  20
ENDBRANCH  15  19
BRANCH  16  24
ATOM     24  O   UNL A   1      23.242  -6.159  33.671  1.00  0.00    -0.287 OA
BRANCH  24  25
ATOM     25  C   UNL A   1      22.764  -7.228  34.478  1.00  0.00     0.505 C 
ATOM     26  F   UNL A   1      21.524  -7.555  34.032  1.00  0.00    -0.184 F 
ATOM     27  F   UNL A   1      23.546  -8.318  34.281  1.00  0.00    -0.184 F 
ENDBRANCH  24  25
ENDBRANCH  16  24
ENDBRANCH  10  13
ENDBRANCH   4   9
TORSDOF 7
ENDMDL
MODEL 7
REMARK VINA RESULT:      -7.3      1.597      2.062
REMARK  7 active torsions:
REMARK  status: ('A' for Active; 'I' for Inactive)
REMARK    1  A    between atoms: O_5  and  C_13 
REMARK    2  A    between atoms: O_5  and  C_14 
REMARK    3  A    between atoms: O_6  and  C_15 
REMARK    4  A    between atoms: O_6  and  C_22 
REMARK       I    between atoms: N_8  and  C_20 
REMARK    5  A    between atoms: N_8  and  C_21 
REMARK    6  A    between atoms: C_10  and  C_13 
REMARK    7  A    between atoms: C_17  and  C_20 
ROOT
ATOM      1 CL   UNL A   1      20.891  -7.007  26.108  1.00  0.00    -0.080 Cl
ATOM      2 CL   UNL A   1      15.988  -5.524  28.025  1.00  0.00    -0.080 Cl
ATOM      3  N   UNL A   1      17.169  -7.596  24.846  1.00  0.00    -0.270 NA
ATOM      4  C   UNL A   1      18.394  -6.314  26.986  1.00  0.00     0.081 A 
ATOM      5  C   UNL A   1      19.171  -6.954  26.039  1.00  0.00     0.080 A 
ATOM      6  C   UNL A   1      17.015  -6.302  26.882  1.00  0.00     0.080 A 
ATOM      7  C   UNL A   1      18.513  -7.578  24.991  1.00  0.00     0.142 A 
ATOM      8  C   UNL A   1      16.453  -6.956  25.797  1.00  0.00     0.142 A 
ENDROOT
BRANCH   4   9
ATOM      9  N   UNL A   1      19.018  -5.661  28.077  1.00  0.00    -0.320 N 
ATOM     10  C   UNL A   1      19.392  -4.315  28.191  1.00  0.00     0.256 C 
ATOM     11  O   UNL A   1      19.227  -3.452  27.313  1.00  0.00    -0.267 OA
ATOM     12  H   UNL A   1      19.214  -6.227  28.858  1.00  0.00     0.169 HD
BRANCH  10  13
ATOM     13  C   UNL A   1      20.045  -3.941  29.436  1.00  0.00     0.035 A 
ATOM     14  C   UNL A   1      20.937  -4.821  30.047  1.00  0.00     0.056 A 
ATOM     15  C   UNL A   1      21.562  -4.462  31.242  1.00  0.00     0.103 A 
ATOM     16  C   UNL A   1      21.294  -3.223  31.824  1.00  0.00     0.108 A 
ATOM     17  C   UNL A   1      20.402  -2.343  31.213  1.00  0.00     0.041 A 
ATOM     18  C   UNL A   1      19.777  -2.702  30.018  1.00  0.00     0.020 A 
BRANCH  15  19
ATOM     19  O   UNL A   1      22.432  -5.329  31.831  1.00  0.00    -0.348 OA
BRANCH  19  20
ATOM     20  C   UNL A   1      22.211  -6.720  31.605  1.00  0.00     0.180 C 
BRANCH  20  21
ATOM     21  C   UNL A   1      21.920  -7.395  32.902  1.00  0.00     0.010 A 
ATOM     22  C   UNL A   1      22.084  -6.625  34.175  1.00  0.00     0.007 A 
ATOM     23  C   UNL A   1      20.713  -6.980  33.682  1.00  0.00     0.007 A 
ENDBRANCH  20  21
ENDBRANCH  19  20
ENDBRANCH  15  19
BRANCH  16  24
ATOM     24  O   UNL A   1      21.899  -2.861  32.990  1.00  0.00    -0.287 OA
BRANCH  24  25
ATOM     25  C   UNL A   1      21.726  -1.518  33.426  1.00  0.00     0.505 C 
ATOM     26  F   UNL A   1      20.860  -1.537  34.473  1.00  0.00    -0.184 F 
ATOM     27  F   UNL A   1      22.903  -1.052  33.908  1.00  0.00    -0.184 F 
ENDBRANCH  24  25
ENDBRANCH  16  24
ENDBRANCH  10  13
ENDBRANCH   4   9
TORSDOF 7
ENDMDL
MODEL 8
REMARK VINA RESULT:      -7.2      3.859      6.496
REMARK  7 active torsions:
REMARK  status: ('A' for Active; 'I' for Inactive)
REMARK    1  A    between atoms: O_5  and  C_13 
REMARK    2  A    between atoms: O_5  and  C_14 
REMARK    3  A    between atoms: O_6  and  C_15 
REMARK    4  A    between atoms: O_6  and  C_22 
REMARK       I    between atoms: N_8  and  C_20 
REMARK    5  A    between atoms: N_8  and  C_21 
REMARK    6  A    between atoms: C_10  and  C_13 
REMARK    7  A    between atoms: C_17  and  C_20 
ROOT
ATOM      1 CL   UNL A   1      23.232  -6.875  32.800  1.00  0.00    -0.080 Cl
ATOM      2 CL   UNL A   1      23.958  -8.644  27.675  1.00  0.00    -0.080 Cl
ATOM      3  N   UNL A   1      25.482  -9.724  31.183  1.00  0.00    -0.270 NA
ATOM      4  C   UNL A   1      23.664  -7.830  30.272  1.00  0.00     0.081 A 
ATOM      5  C   UNL A   1      23.950  -7.906  31.622  1.00  0.00     0.080 A 
ATOM      6  C   UNL A   1      24.270  -8.684  29.369  1.00  0.00     0.080 A 
ATOM      7  C   UNL A   1      24.864  -8.867  32.026  1.00  0.00     0.142 A 
ATOM      8  C   UNL A   1      25.169  -9.610  29.873  1.00  0.00     0.142 A 
ENDROOT
BRANCH   4   9
ATOM      9  N   UNL A   1      22.736  -6.866  29.807  1.00  0.00    -0.320 N 
ATOM     10  C   UNL A   1      21.422  -7.063  29.360  1.00  0.00     0.256 C 
ATOM     11  O   UNL A   1      20.846  -8.162  29.300  1.00  0.00    -0.267 OA
ATOM     12  H   UNL A   1      23.056  -5.935  29.798  1.00  0.00     0.169 HD
BRANCH  10  13
ATOM     13  C   UNL A   1      20.717  -5.870  28.915  1.00  0.00     0.035 A 
ATOM     14  C   UNL A   1      20.542  -4.797  29.789  1.00  0.00     0.056 A 
ATOM     15  C   UNL A   1      19.866  -3.655  29.362  1.00  0.00     0.103 A 
ATOM     16  C   UNL A   1      19.364  -3.585  28.063  1.00  0.00     0.108 A 
ATOM     17  C   UNL A   1      19.539  -4.658  27.189  1.00  0.00     0.041 A 
ATOM     18  C   UNL A   1      20.216  -5.801  27.616  1.00  0.00     0.020 A 
BRANCH  15  19
ATOM     19  O   UNL A   1      19.700  -2.613  30.224  1.00  0.00    -0.348 OA
BRANCH  19  20
ATOM     20  C   UNL A   1      20.874  -2.090  30.842  1.00  0.00     0.180 C 
BRANCH  20  21
ATOM     21  C   UNL A   1      20.727  -2.149  32.323  1.00  0.00     0.010 A 
ATOM     22  C   UNL A   1      21.628  -3.051  33.108  1.00  0.00     0.007 A 
ATOM     23  C   UNL A   1      21.800  -1.563  33.185  1.00  0.00     0.007 A 
ENDBRANCH  20  21
ENDBRANCH  19  20
ENDBRANCH  15  19
BRANCH  16  24
ATOM     24  O   UNL A   1      18.703  -2.474  27.634  1.00  0.00    -0.287 OA
BRANCH  24  25
ATOM     25  C   UNL A   1      19.435  -1.539  26.852  1.00  0.00     0.505 C 
ATOM     26  F   UNL A   1      20.728  -1.581  27.267  1.00  0.00    -0.184 F 
ATOM     27  F   UNL A   1      19.432  -1.942  25.558  1.00  0.00    -0.184 F 
ENDBRANCH  24  25
ENDBRANCH  16  24
ENDBRANCH  10  13
ENDBRANCH   4   9
TORSDOF 7
ENDMDL
MODEL 9
REMARK VINA RESULT:      -7.2      2.939      4.513
REMARK  7 active torsions:
REMARK  status: ('A' for Active; 'I' for Inactive)
REMARK    1  A    between atoms: O_5  and  C_13 
REMARK    2  A    between atoms: O_5  and  C_14 
REMARK    3  A    between atoms: O_6  and  C_15 
REMARK    4  A    between atoms: O_6  and  C_22 
REMARK       I    between atoms: N_8  and  C_20 
REMARK    5  A    between atoms: N_8  and  C_21 
REMARK    6  A    between atoms: C_10  and  C_13 
REMARK    7  A    between atoms: C_17  and  C_20 
ROOT
ATOM      1 CL   UNL A   1      18.283  -5.743  27.898  1.00  0.00    -0.080 Cl
ATOM      2 CL   UNL A   1      21.666  -1.475  28.396  1.00  0.00    -0.080 Cl
ATOM      3  N   UNL A   1      18.700  -2.336  25.895  1.00  0.00    -0.270 NA
ATOM      4  C   UNL A   1      19.928  -3.563  28.065  1.00  0.00     0.081 A 
ATOM      5  C   UNL A   1      18.883  -4.200  27.423  1.00  0.00     0.080 A 
ATOM      6  C   UNL A   1      20.371  -2.323  27.642  1.00  0.00     0.080 A 
ATOM      7  C   UNL A   1      18.305  -3.548  26.346  1.00  0.00     0.142 A 
ATOM      8  C   UNL A   1      19.726  -1.754  26.556  1.00  0.00     0.142 A 
ENDROOT
BRANCH   4   9
ATOM      9  N   UNL A   1      20.554  -4.188  29.172  1.00  0.00    -0.320 N 
ATOM     10  C   UNL A   1      21.727  -4.954  29.194  1.00  0.00     0.256 C 
ATOM     11  O   UNL A   1      22.428  -5.213  28.202  1.00  0.00    -0.267 OA
ATOM     12  H   UNL A   1      20.105  -4.067  30.040  1.00  0.00     0.169 HD
BRANCH  10  13
ATOM     13  C   UNL A   1      22.110  -5.492  30.490  1.00  0.00     0.035 A 
ATOM     14  C   UNL A   1      21.915  -4.734  31.645  1.00  0.00     0.056 A 
ATOM     15  C   UNL A   1      22.284  -5.250  32.887  1.00  0.00     0.103 A 
ATOM     16  C   UNL A   1      22.847  -6.523  32.975  1.00  0.00     0.108 A 
ATOM     17  C   UNL A   1      23.042  -7.281  31.820  1.00  0.00     0.041 A 
ATOM     18  C   UNL A   1      22.673  -6.765  30.577  1.00  0.00     0.020 A 
BRANCH  15  19
ATOM     19  O   UNL A   1      22.089  -4.502  34.008  1.00  0.00    -0.348 OA
BRANCH  19  20
ATOM     20  C   UNL A   1      22.086  -3.085  33.849  1.00  0.00     0.180 C 
BRANCH  20  21
ATOM     21  C   UNL A   1      22.632  -2.443  35.078  1.00  0.00     0.010 A 
ATOM     22  C   UNL A   1      23.346  -1.133  34.957  1.00  0.00     0.007 A 
ATOM     23  C   UNL A   1      21.989  -1.194  35.593  1.00  0.00     0.007 A 
ENDBRANCH  20  21
ENDBRANCH  19  20
ENDBRANCH  15  19
BRANCH  16  24
ATOM     24  O   UNL A   1      23.210  -7.038  34.182  1.00  0.00    -0.287 OA
BRANCH  24  25
ATOM     25  C   UNL A   1      22.236  -7.798  34.888  1.00  0.00     0.505 C 
ATOM     26  F   UNL A   1      21.090  -7.773  34.159  1.00  0.00    -0.184 F 
ATOM     27  F   UNL A   1      22.633  -9.093  34.938  1.00  0.00    -0.184 F 
ENDBRANCH  24  25
ENDBRANCH  16  24
ENDBRANCH  10  13
ENDBRANCH   4   9
TORSDOF 7
ENDMDL
