MODEL 1
REMARK VINA RESULT:      -8.0      0.000      0.000
REMARK  7 active torsions:
REMARK  status: ('A' for Active; 'I' for Inactive)
REMARK    1  A    between atoms: O_5  and  C_13 
REMARK    2  A    between atoms: O_5  and  C_14 
REMARK    3  A    between atoms: O_6  and  C_15 
REMARK    4  A    between atoms: O_6  and  C_22 
REMARK       I    between atoms: N_8  and  C_20 
REMARK    5  A    between atoms: N_8  and  C_21 
REMARK    6  A    between atoms: C_10  and  C_13 
REMARK    7  A    between atoms: C_17  and  C_20 
ROOT
ATOM      1 CL   UNL A   1      17.031   2.510  15.016  1.00  0.00    -0.080 Cl
ATOM      2 CL   UNL A   1      15.736   7.555  16.685  1.00  0.00    -0.080 Cl
ATOM      3  N   UNL A   1      17.671   4.525  18.381  1.00  0.00    -0.270 NA
ATOM      4  C   UNL A   1      16.430   5.013  15.942  1.00  0.00     0.081 A 
ATOM      5  C   UNL A   1      17.019   3.785  16.174  1.00  0.00     0.080 A 
ATOM      6  C   UNL A   1      16.449   6.003  16.908  1.00  0.00     0.080 A 
ATOM      7  C   UNL A   1      17.624   3.590  17.405  1.00  0.00     0.142 A 
ATOM      8  C   UNL A   1      17.080   5.710  18.106  1.00  0.00     0.142 A 
ENDROOT
BRANCH   4   9
ATOM      9  N   UNL A   1      15.799   5.263  14.699  1.00  0.00    -0.320 N 
ATOM     10  C   UNL A   1      14.445   5.124  14.364  1.00  0.00     0.256 C 
ATOM     11  O   UNL A   1      13.553   4.744  15.141  1.00  0.00    -0.267 OA
ATOM     12  H   UNL A   1      16.389   5.575  13.975  1.00  0.00     0.169 HD
BRANCH  10  13
ATOM     13  C   UNL A   1      14.097   5.433  12.986  1.00  0.00     0.035 A 
ATOM     14  C   UNL A   1      15.088   5.827  12.088  1.00  0.00     0.056 A 
ATOM     15  C   UNL A   1      14.754   6.124  10.766  1.00  0.00     0.103 A 
ATOM     16  C   UNL A   1      13.428   6.027  10.344  1.00  0.00     0.108 A 
ATOM     17  C   UNL A   1      12.436   5.633  11.242  1.00  0.00     0.041 A 
ATOM     18  C   UNL A   1      12.771   5.336  12.563  1.00  0.00     0.020 A 
BRANCH  15  19
ATOM     19  O   UNL A   1      15.730   6.507   9.898  1.00  0.00    -0.348 OA
BRANCH  19  20
ATOM     20  C   UNL A   1      16.593   7.563  10.318  1.00  0.00     0.180 C 
BRANCH  20  21
ATOM     21  C   UNL A   1      18.010   7.109  10.240  1.00  0.00     0.010 A 
ATOM     22  C   UNL A   1      18.406   5.841  10.932  1.00  0.00     0.007 A 
ATOM     23  C   UNL A   1      18.340   5.892   9.434  1.00  0.00     0.007 A 
ENDBRANCH  20  21
ENDBRANCH  19  20
ENDBRANCH  15  19
BRANCH  16  24
ATOM     24  O   UNL A   1      13.089   6.313   9.056  1.00  0.00    -0.287 OA
BRANCH  24  25
ATOM     25  C   UNL A   1      12.408   5.305   8.320  1.00  0.00     0.505 C 
ATOM     26  F   UNL A   1      11.747   5.916   7.302  1.00  0.00    -0.184 F 
ATOM     27  F   UNL A   1      13.319   4.480   7.748  1.00  0.00    -0.184 F 
ENDBRANCH  24  25
ENDBRANCH  16  24
ENDBRANCH  10  13
ENDBRANCH   4   9
TORSDOF 7
ENDMDL
MODEL 2
REMARK VINA RESULT:      -7.9      0.249      1.788
REMARK  7 active torsions:
REMARK  status: ('A' for Active; 'I' for Inactive)
REMARK    1  A    between atoms: O_5  and  C_13 
REMARK    2  A    between atoms: O_5  and  C_14 
REMARK    3  A    between atoms: O_6  and  C_15 
REMARK    4  A    between atoms: O_6  and  C_22 
REMARK       I    between atoms: N_8  and  C_20 
REMARK    5  A    between atoms: N_8  and  C_21 
REMARK    6  A    between atoms: C_10  and  C_13 
REMARK    7  A    between atoms: C_17  and  C_20 
ROOT
ATOM      1 CL   UNL A   1      16.116   7.359  16.607  1.00  0.00    -0.080 Cl
ATOM      2 CL   UNL A   1      16.876   2.194  14.975  1.00  0.00    -0.080 Cl
ATOM      3  N   UNL A   1      17.791   4.175  18.297  1.00  0.00    -0.270 NA
ATOM      4  C   UNL A   1      16.543   4.755  15.882  1.00  0.00     0.081 A 
ATOM      5  C   UNL A   1      16.682   5.748  16.833  1.00  0.00     0.080 A 
ATOM      6  C   UNL A   1      17.017   3.477  16.115  1.00  0.00     0.080 A 
ATOM      7  C   UNL A   1      17.311   5.409  18.020  1.00  0.00     0.142 A 
ATOM      8  C   UNL A   1      17.630   3.239  17.334  1.00  0.00     0.142 A 
ENDROOT
BRANCH   4   9
ATOM      9  N   UNL A   1      15.906   5.050  14.651  1.00  0.00    -0.320 N 
ATOM     10  C   UNL A   1      14.537   5.033  14.350  1.00  0.00     0.256 C 
ATOM     11  O   UNL A   1      13.634   4.744  15.153  1.00  0.00    -0.267 OA
ATOM     12  H   UNL A   1      16.504   5.299  13.910  1.00  0.00     0.169 HD
BRANCH  10  13
ATOM     13  C   UNL A   1      14.185   5.359  12.977  1.00  0.00     0.035 A 
ATOM     14  C   UNL A   1      15.171   5.778  12.085  1.00  0.00     0.056 A 
ATOM     15  C   UNL A   1      14.832   6.092  10.768  1.00  0.00     0.103 A 
ATOM     16  C   UNL A   1      13.508   5.987  10.345  1.00  0.00     0.108 A 
ATOM     17  C   UNL A   1      12.521   5.568  11.237  1.00  0.00     0.041 A 
ATOM     18  C   UNL A   1      12.860   5.254  12.554  1.00  0.00     0.020 A 
BRANCH  15  19
ATOM     19  O   UNL A   1      15.804   6.500   9.905  1.00  0.00    -0.348 OA
BRANCH  19  20
ATOM     20  C   UNL A   1      16.635   7.579  10.329  1.00  0.00     0.180 C 
BRANCH  20  21
ATOM     21  C   UNL A   1      18.061   7.147  10.308  1.00  0.00     0.010 A 
ATOM     22  C   UNL A   1      18.422   5.803  10.861  1.00  0.00     0.007 A 
ATOM     23  C   UNL A   1      18.474   6.046   9.381  1.00  0.00     0.007 A 
ENDBRANCH  20  21
ENDBRANCH  19  20
ENDBRANCH  15  19
BRANCH  16  24
ATOM     24  O   UNL A   1      13.165   6.289   9.062  1.00  0.00    -0.287 OA
BRANCH  24  25
ATOM     25  C   UNL A   1      12.255   5.414   8.405  1.00  0.00     0.505 C 
ATOM     26  F   UNL A   1      11.857   6.024   7.258  1.00  0.00    -0.184 F 
ATOM     27  F   UNL A   1      12.911   4.287   8.035  1.00  0.00    -0.184 F 
ENDBRANCH  24  25
ENDBRANCH  16  24
ENDBRANCH  10  13
ENDBRANCH   4   9
TORSDOF 7
ENDMDL
MODEL 3
REMARK VINA RESULT:      -7.6      2.098      4.146
REMARK  7 active torsions:
REMARK  status: ('A' for Active; 'I' for Inactive)
REMARK    1  A    between atoms: O_5  and  C_13 
REMARK    2  A    between atoms: O_5  and  C_14 
REMARK    3  A    between atoms: O_6  and  C_15 
REMARK    4  A    between atoms: O_6  and  C_22 
REMARK       I    between atoms: N_8  and  C_20 
REMARK    5  A    between atoms: N_8  and  C_21 
REMARK    6  A    between atoms: C_10  and  C_13 
REMARK    7  A    between atoms: C_17  and  C_20 
ROOT
ATOM      1 CL   UNL A   1      18.632   7.562  15.592  1.00  0.00    -0.080 Cl
ATOM      2 CL   UNL A   1      17.933   2.191  14.831  1.00  0.00    -0.080 Cl
ATOM      3  N   UNL A   1      20.291   4.333  17.208  1.00  0.00    -0.270 NA
ATOM      4  C   UNL A   1      18.355   4.857  15.284  1.00  0.00     0.081 A 
ATOM      5  C   UNL A   1      18.984   5.909  15.923  1.00  0.00     0.080 A 
ATOM      6  C   UNL A   1      18.677   3.547  15.588  1.00  0.00     0.080 A 
ATOM      7  C   UNL A   1      19.941   5.595  16.874  1.00  0.00     0.142 A 
ATOM      8  C   UNL A   1      19.648   3.339  16.555  1.00  0.00     0.142 A 
ENDROOT
BRANCH   4   9
ATOM      9  N   UNL A   1      17.368   5.124  14.303  1.00  0.00    -0.320 N 
ATOM     10  C   UNL A   1      17.536   5.313  12.924  1.00  0.00     0.256 C 
ATOM     11  O   UNL A   1      18.624   5.273  12.326  1.00  0.00    -0.267 OA
ATOM     12  H   UNL A   1      16.443   5.185  14.634  1.00  0.00     0.169 HD
BRANCH  10  13
ATOM     13  C   UNL A   1      16.325   5.601  12.171  1.00  0.00     0.035 A 
ATOM     14  C   UNL A   1      15.077   5.467  12.780  1.00  0.00     0.056 A 
ATOM     15  C   UNL A   1      13.916   5.742  12.057  1.00  0.00     0.103 A 
ATOM     16  C   UNL A   1      14.003   6.150  10.726  1.00  0.00     0.108 A 
ATOM     17  C   UNL A   1      15.251   6.283  10.117  1.00  0.00     0.041 A 
ATOM     18  C   UNL A   1      16.412   6.008  10.841  1.00  0.00     0.020 A 
BRANCH  15  19
ATOM     19  O   UNL A   1      12.703   5.608  12.661  1.00  0.00    -0.348 OA
BRANCH  19  20
ATOM     20  C   UNL A   1      12.698   5.149  14.011  1.00  0.00     0.180 C 
BRANCH  20  21
ATOM     21  C   UNL A   1      12.237   6.245  14.909  1.00  0.00     0.010 A 
ATOM     22  C   UNL A   1      12.971   6.494  16.189  1.00  0.00     0.007 A 
ATOM     23  C   UNL A   1      13.085   7.470  15.056  1.00  0.00     0.007 A 
ENDBRANCH  20  21
ENDBRANCH  19  20
ENDBRANCH  15  19
BRANCH  16  24
ATOM     24  O   UNL A   1      12.877   6.423  10.010  1.00  0.00    -0.287 OA
BRANCH  24  25
ATOM     25  C   UNL A   1      12.766   5.837   8.719  1.00  0.00     0.505 C 
ATOM     26  F   UNL A   1      12.211   4.607   8.873  1.00  0.00    -0.184 F 
ATOM     27  F   UNL A   1      11.896   6.562   7.975  1.00  0.00    -0.184 F 
ENDBRANCH  24  25
ENDBRANCH  16  24
ENDBRANCH  10  13
ENDBRANCH   4   9
TORSDOF 7
ENDMDL
MODEL 4
REMARK VINA RESULT:      -7.5      2.253      3.932
REMARK  7 active torsions:
REMARK  status: ('A' for Active; 'I' for Inactive)
REMARK    1  A    between atoms: O_5  and  C_13 
REMARK    2  A    between atoms: O_5  and  C_14 
REMARK    3  A    between atoms: O_6  and  C_15 
REMARK    4  A    between atoms: O_6  and  C_22 
REMARK       I    between atoms: N_8  and  C_20 
REMARK    5  A    between atoms: N_8  and  C_21 
REMARK    6  A    between atoms: C_10  and  C_13 
REMARK    7  A    between atoms: C_17  and  C_20 
ROOT
ATOM      1 CL   UNL A   1      19.737   3.562  12.566  1.00  0.00    -0.080 Cl
ATOM      2 CL   UNL A   1      17.090   6.524  16.326  1.00  0.00    -0.080 Cl
ATOM      3  N   UNL A   1      20.618   4.694  16.272  1.00  0.00    -0.270 NA
ATOM      4  C   UNL A   1      18.493   5.030  14.512  1.00  0.00     0.081 A 
ATOM      5  C   UNL A   1      19.597   4.296  14.117  1.00  0.00     0.080 A 
ATOM      6  C   UNL A   1      18.432   5.598  15.771  1.00  0.00     0.080 A 
ATOM      7  C   UNL A   1      20.629   4.158  15.031  1.00  0.00     0.142 A 
ATOM      8  C   UNL A   1      19.517   5.402  16.611  1.00  0.00     0.142 A 
ENDROOT
BRANCH   4   9
ATOM      9  N   UNL A   1      17.411   5.202  13.615  1.00  0.00    -0.320 N 
ATOM     10  C   UNL A   1      17.345   6.008  12.470  1.00  0.00     0.256 C 
ATOM     11  O   UNL A   1      18.267   6.727  12.050  1.00  0.00    -0.267 OA
ATOM     12  H   UNL A   1      16.598   4.687  13.823  1.00  0.00     0.169 HD
BRANCH  10  13
ATOM     13  C   UNL A   1      16.076   5.998  11.758  1.00  0.00     0.035 A 
ATOM     14  C   UNL A   1      14.881   5.865  12.465  1.00  0.00     0.056 A 
ATOM     15  C   UNL A   1      13.665   5.855  11.782  1.00  0.00     0.103 A 
ATOM     16  C   UNL A   1      13.645   5.976  10.393  1.00  0.00     0.108 A 
ATOM     17  C   UNL A   1      14.840   6.109   9.686  1.00  0.00     0.041 A 
ATOM     18  C   UNL A   1      16.056   6.120  10.369  1.00  0.00     0.020 A 
BRANCH  15  19
ATOM     19  O   UNL A   1      12.504   5.724  12.482  1.00  0.00    -0.348 OA
BRANCH  19  20
ATOM     20  C   UNL A   1      12.242   6.700  13.489  1.00  0.00     0.180 C 
BRANCH  20  21
ATOM     21  C   UNL A   1      12.112   6.027  14.812  1.00  0.00     0.010 A 
ATOM     22  C   UNL A   1      13.347   5.549  15.510  1.00  0.00     0.007 A 
ATOM     23  C   UNL A   1      12.597   6.735  16.038  1.00  0.00     0.007 A 
ENDBRANCH  20  21
ENDBRANCH  19  20
ENDBRANCH  15  19
BRANCH  16  24
ATOM     24  O   UNL A   1      12.463   5.969   9.714  1.00  0.00    -0.287 OA
BRANCH  24  25
ATOM     25  C   UNL A   1      12.526   5.970   8.293  1.00  0.00     0.505 C 
ATOM     26  F   UNL A   1      12.312   4.697   7.873  1.00  0.00    -0.184 F 
ATOM     27  F   UNL A   1      11.504   6.715   7.804  1.00  0.00    -0.184 F 
ENDBRANCH  24  25
ENDBRANCH  16  24
ENDBRANCH  10  13
ENDBRANCH   4   9
TORSDOF 7
ENDMDL
MODEL 5
REMARK VINA RESULT:      -7.2      3.392      4.790
REMARK  7 active torsions:
REMARK  status: ('A' for Active; 'I' for Inactive)
REMARK    1  A    between atoms: O_5  and  C_13 
REMARK    2  A    between atoms: O_5  and  C_14 
REMARK    3  A    between atoms: O_6  and  C_15 
REMARK    4  A    between atoms: O_6  and  C_22 
REMARK       I    between atoms: N_8  and  C_20 
REMARK    5  A    between atoms: N_8  and  C_21 
REMARK    6  A    between atoms: C_10  and  C_13 
REMARK    7  A    between atoms: C_17  and  C_20 
ROOT
ATOM      1 CL   UNL A   1      18.626  10.366  16.691  1.00  0.00    -0.080 Cl
ATOM      2 CL   UNL A   1      17.174   6.825  20.598  1.00  0.00    -0.080 Cl
ATOM      3  N   UNL A   1      19.761   9.839  20.463  1.00  0.00    -0.270 NA
ATOM      4  C   UNL A   1      17.968   8.641  18.710  1.00  0.00     0.081 A 
ATOM      5  C   UNL A   1      18.727   9.713  18.281  1.00  0.00     0.080 A 
ATOM      6  C   UNL A   1      18.089   8.156  19.999  1.00  0.00     0.080 A 
ATOM      7  C   UNL A   1      19.606  10.275  19.193  1.00  0.00     0.142 A 
ATOM      8  C   UNL A   1      18.996   8.788  20.834  1.00  0.00     0.142 A 
ENDROOT
BRANCH   4   9
ATOM      9  N   UNL A   1      17.053   8.030  17.817  1.00  0.00    -0.320 N 
ATOM     10  C   UNL A   1      17.244   6.902  17.007  1.00  0.00     0.256 C 
ATOM     11  O   UNL A   1      18.292   6.238  16.946  1.00  0.00    -0.267 OA
ATOM     12  H   UNL A   1      16.166   8.454  17.758  1.00  0.00     0.169 HD
BRANCH  10  13
ATOM     13  C   UNL A   1      16.118   6.525  16.167  1.00  0.00     0.035 A 
ATOM     14  C   UNL A   1      16.338   6.079  14.864  1.00  0.00     0.056 A 
ATOM     15  C   UNL A   1      15.258   5.718  14.059  1.00  0.00     0.103 A 
ATOM     16  C   UNL A   1      13.958   5.804  14.557  1.00  0.00     0.108 A 
ATOM     17  C   UNL A   1      13.737   6.250  15.860  1.00  0.00     0.041 A 
ATOM     18  C   UNL A   1      14.818   6.611  16.665  1.00  0.00     0.020 A 
BRANCH  15  19
ATOM     19  O   UNL A   1      15.484   5.284  12.789  1.00  0.00    -0.348 OA
BRANCH  19  20
ATOM     20  C   UNL A   1      16.755   5.587  12.217  1.00  0.00     0.180 C 
BRANCH  20  21
ATOM     21  C   UNL A   1      16.582   5.957  10.784  1.00  0.00     0.010 A 
ATOM     22  C   UNL A   1      15.214   6.301  10.283  1.00  0.00     0.007 A 
ATOM     23  C   UNL A   1      16.251   7.374  10.435  1.00  0.00     0.007 A 
ENDBRANCH  20  21
ENDBRANCH  19  20
ENDBRANCH  15  19
BRANCH  16  24
ATOM     24  O   UNL A   1      12.894   5.453  13.781  1.00  0.00    -0.287 OA
BRANCH  24  25
ATOM     25  C   UNL A   1      12.274   6.482  13.019  1.00  0.00     0.505 C 
ATOM     26  F   UNL A   1      11.660   5.893  11.960  1.00  0.00    -0.184 F 
ATOM     27  F   UNL A   1      11.297   7.057  13.762  1.00  0.00    -0.184 F 
ENDBRANCH  24  25
ENDBRANCH  16  24
ENDBRANCH  10  13
ENDBRANCH   4   9
TORSDOF 7
ENDMDL
MODEL 6
REMARK VINA RESULT:      -7.2      2.403      4.292
REMARK  7 active torsions:
REMARK  status: ('A' for Active; 'I' for Inactive)
REMARK    1  A    between atoms: O_5  and  C_13 
REMARK    2  A    between atoms: O_5  and  C_14 
REMARK    3  A    between atoms: O_6  and  C_15 
REMARK    4  A    between atoms: O_6  and  C_22 
REMARK       I    between atoms: N_8  and  C_20 
REMARK    5  A    between atoms: N_8  and  C_21 
REMARK    6  A    between atoms: C_10  and  C_13 
REMARK    7  A    between atoms: C_17  and  C_20 
ROOT
ATOM      1 CL   UNL A   1      18.809   6.251  17.787  1.00  0.00    -0.080 Cl
ATOM      2 CL   UNL A   1      17.330   1.293  16.014  1.00  0.00    -0.080 Cl
ATOM      3  N   UNL A   1      18.574   2.683  19.523  1.00  0.00    -0.270 NA
ATOM      4  C   UNL A   1      18.088   3.733  16.996  1.00  0.00     0.081 A 
ATOM      5  C   UNL A   1      18.532   4.565  18.006  1.00  0.00     0.080 A 
ATOM      6  C   UNL A   1      17.883   2.385  17.226  1.00  0.00     0.080 A 
ATOM      7  C   UNL A   1      18.761   3.994  19.247  1.00  0.00     0.142 A 
ATOM      8  C   UNL A   1      18.139   1.911  18.503  1.00  0.00     0.142 A 
ENDROOT
BRANCH   4   9
ATOM      9  N   UNL A   1      17.839   4.267  15.708  1.00  0.00    -0.320 N 
ATOM     10  C   UNL A   1      16.612   4.628  15.134  1.00  0.00     0.256 C 
ATOM     11  O   UNL A   1      15.507   4.530  15.694  1.00  0.00    -0.267 OA
ATOM     12  H   UNL A   1      18.633   4.403  15.141  1.00  0.00     0.169 HD
BRANCH  10  13
ATOM     13  C   UNL A   1      16.671   5.129  13.770  1.00  0.00     0.035 A 
ATOM     14  C   UNL A   1      15.494   5.435  13.088  1.00  0.00     0.056 A 
ATOM     15  C   UNL A   1      15.552   5.914  11.779  1.00  0.00     0.103 A 
ATOM     16  C   UNL A   1      16.786   6.087  11.153  1.00  0.00     0.108 A 
ATOM     17  C   UNL A   1      17.963   5.781  11.835  1.00  0.00     0.041 A 
ATOM     18  C   UNL A   1      17.906   5.301  13.144  1.00  0.00     0.020 A 
BRANCH  15  19
ATOM     19  O   UNL A   1      14.396   6.210  11.122  1.00  0.00    -0.348 OA
BRANCH  19  20
ATOM     20  C   UNL A   1      13.186   5.698  11.677  1.00  0.00     0.180 C 
BRANCH  20  21
ATOM     21  C   UNL A   1      12.204   5.446  10.585  1.00  0.00     0.010 A 
ATOM     22  C   UNL A   1      11.947   6.522   9.576  1.00  0.00     0.007 A 
ATOM     23  C   UNL A   1      12.701   5.287   9.183  1.00  0.00     0.007 A 
ENDBRANCH  20  21
ENDBRANCH  19  20
ENDBRANCH  15  19
BRANCH  16  24
ATOM     24  O   UNL A   1      16.855   6.555   9.876  1.00  0.00    -0.287 OA
BRANCH  24  25
ATOM     25  C   UNL A   1      17.110   7.944   9.702  1.00  0.00     0.505 C 
ATOM     26  F   UNL A   1      16.331   8.617  10.588  1.00  0.00    -0.184 F 
ATOM     27  F   UNL A   1      18.395   8.206  10.041  1.00  0.00    -0.184 F 
ENDBRANCH  24  25
ENDBRANCH  16  24
ENDBRANCH  10  13
ENDBRANCH   4   9
TORSDOF 7
ENDMDL
MODEL 7
REMARK VINA RESULT:      -7.1      3.006      4.910
REMARK  7 active torsions:
REMARK  status: ('A' for Active; 'I' for Inactive)
REMARK    1  A    between atoms: O_5  and  C_13 
REMARK    2  A    between atoms: O_5  and  C_14 
REMARK    3  A    between atoms: O_6  and  C_15 
REMARK    4  A    between atoms: O_6  and  C_22 
REMARK       I    between atoms: N_8  and  C_20 
REMARK    5  A    between atoms: N_8  and  C_21 
REMARK    6  A    between atoms: C_10  and  C_13 
REMARK    7  A    between atoms: C_17  and  C_20 
ROOT
ATOM      1 CL   UNL A   1      20.159   9.409  16.973  1.00  0.00    -0.080 Cl
ATOM      2 CL   UNL A   1      16.128   6.626  19.405  1.00  0.00    -0.080 Cl
ATOM      3  N   UNL A   1      18.992   9.029  20.753  1.00  0.00    -0.270 NA
ATOM      4  C   UNL A   1      18.174   8.054  18.282  1.00  0.00     0.081 A 
ATOM      5  C   UNL A   1      19.261   8.905  18.353  1.00  0.00     0.080 A 
ATOM      6  C   UNL A   1      17.489   7.681  19.423  1.00  0.00     0.080 A 
ATOM      7  C   UNL A   1      19.630   9.363  19.608  1.00  0.00     0.142 A 
ATOM      8  C   UNL A   1      17.936   8.194  20.630  1.00  0.00     0.142 A 
ENDROOT
BRANCH   4   9
ATOM      9  N   UNL A   1      17.757   7.558  17.022  1.00  0.00    -0.320 N 
ATOM     10  C   UNL A   1      17.986   6.294  16.462  1.00  0.00     0.256 C 
ATOM     11  O   UNL A   1      18.619   5.376  17.009  1.00  0.00    -0.267 OA
ATOM     12  H   UNL A   1      17.237   8.184  16.468  1.00  0.00     0.169 HD
BRANCH  10  13
ATOM     13  C   UNL A   1      17.450   6.085  15.126  1.00  0.00     0.035 A 
ATOM     14  C   UNL A   1      16.087   5.846  14.952  1.00  0.00     0.056 A 
ATOM     15  C   UNL A   1      15.573   5.644  13.671  1.00  0.00     0.103 A 
ATOM     16  C   UNL A   1      16.422   5.681  12.565  1.00  0.00     0.108 A 
ATOM     17  C   UNL A   1      17.785   5.920  12.739  1.00  0.00     0.041 A 
ATOM     18  C   UNL A   1      18.299   6.122  14.021  1.00  0.00     0.020 A 
BRANCH  15  19
ATOM     19  O   UNL A   1      14.241   5.412  13.512  1.00  0.00    -0.348 OA
BRANCH  19  20
ATOM     20  C   UNL A   1      13.394   6.553  13.387  1.00  0.00     0.180 C 
BRANCH  20  21
ATOM     21  C   UNL A   1      12.181   6.190  12.601  1.00  0.00     0.010 A 
ATOM     22  C   UNL A   1      12.213   6.329  11.110  1.00  0.00     0.007 A 
ATOM     23  C   UNL A   1      12.213   4.967  11.738  1.00  0.00     0.007 A 
ENDBRANCH  20  21
ENDBRANCH  19  20
ENDBRANCH  15  19
BRANCH  16  24
ATOM     24  O   UNL A   1      15.932   5.487  11.309  1.00  0.00    -0.287 OA
BRANCH  24  25
ATOM     25  C   UNL A   1      15.926   6.605  10.430  1.00  0.00     0.505 C 
ATOM     26  F   UNL A   1      14.933   6.408   9.523  1.00  0.00    -0.184 F 
ATOM     27  F   UNL A   1      15.596   7.718  11.128  1.00  0.00    -0.184 F 
ENDBRANCH  24  25
ENDBRANCH  16  24
ENDBRANCH  10  13
ENDBRANCH   4   9
TORSDOF 7
ENDMDL
MODEL 8
REMARK VINA RESULT:      -7.1      1.945      2.314
REMARK  7 active torsions:
REMARK  status: ('A' for Active; 'I' for Inactive)
REMARK    1  A    between atoms: O_5  and  C_13 
REMARK    2  A    between atoms: O_5  and  C_14 
REMARK    3  A    between atoms: O_6  and  C_15 
REMARK    4  A    between atoms: O_6  and  C_22 
REMARK       I    between atoms: N_8  and  C_20 
REMARK    5  A    between atoms: N_8  and  C_21 
REMARK    6  A    between atoms: C_10  and  C_13 
REMARK    7  A    between atoms: C_17  and  C_20 
ROOT
ATOM      1 CL   UNL A   1      17.604   4.045  17.127  1.00  0.00    -0.080 Cl
ATOM      2 CL   UNL A   1      16.557   9.398  17.530  1.00  0.00    -0.080 Cl
ATOM      3  N   UNL A   1      18.783   6.879  19.651  1.00  0.00    -0.270 NA
ATOM      4  C   UNL A   1      17.143   6.727  17.413  1.00  0.00     0.081 A 
ATOM      5  C   UNL A   1      17.775   5.588  17.873  1.00  0.00     0.080 A 
ATOM      6  C   UNL A   1      17.314   7.941  18.051  1.00  0.00     0.080 A 
ATOM      7  C   UNL A   1      18.582   5.716  18.993  1.00  0.00     0.142 A 
ATOM      8  C   UNL A   1      18.142   7.965  19.162  1.00  0.00     0.142 A 
ENDROOT
BRANCH   4   9
ATOM      9  N   UNL A   1      16.307   6.650  16.271  1.00  0.00    -0.320 N 
ATOM     10  C   UNL A   1      14.909   6.558  16.217  1.00  0.00     0.256 C 
ATOM     11  O   UNL A   1      14.158   6.529  17.206  1.00  0.00    -0.267 OA
ATOM     12  H   UNL A   1      16.769   6.662  15.402  1.00  0.00     0.169 HD
BRANCH  10  13
ATOM     13  C   UNL A   1      14.330   6.466  14.886  1.00  0.00     0.035 A 
ATOM     14  C   UNL A   1      15.141   6.161  13.792  1.00  0.00     0.056 A 
ATOM     15  C   UNL A   1      14.585   6.074  12.516  1.00  0.00     0.103 A 
ATOM     16  C   UNL A   1      13.220   6.292  12.333  1.00  0.00     0.108 A 
ATOM     17  C   UNL A   1      12.409   6.597  13.426  1.00  0.00     0.041 A 
ATOM     18  C   UNL A   1      12.965   6.684  14.703  1.00  0.00     0.020 A 
BRANCH  15  19
ATOM     19  O   UNL A   1      15.386   5.776  11.455  1.00  0.00    -0.348 OA
BRANCH  19  20
ATOM     20  C   UNL A   1      15.950   6.873  10.740  1.00  0.00     0.180 C 
BRANCH  20  21
ATOM     21  C   UNL A   1      17.435   6.832  10.854  1.00  0.00     0.010 A 
ATOM     22  C   UNL A   1      18.087   5.607  11.416  1.00  0.00     0.007 A 
ATOM     23  C   UNL A   1      18.208   5.918   9.954  1.00  0.00     0.007 A 
ENDBRANCH  20  21
ENDBRANCH  19  20
ENDBRANCH  15  19
BRANCH  16  24
ATOM     24  O   UNL A   1      12.666   6.208  11.091  1.00  0.00    -0.287 OA
BRANCH  24  25
ATOM     25  C   UNL A   1      11.835   5.086  10.821  1.00  0.00     0.505 C 
ATOM     26  F   UNL A   1      12.129   4.651   9.568  1.00  0.00    -0.184 F 
ATOM     27  F   UNL A   1      12.161   4.078  11.666  1.00  0.00    -0.184 F 
ENDBRANCH  24  25
ENDBRANCH  16  24
ENDBRANCH  10  13
ENDBRANCH   4   9
TORSDOF 7
ENDMDL
MODEL 9
REMARK VINA RESULT:      -7.0      2.548      3.606
REMARK  7 active torsions:
REMARK  status: ('A' for Active; 'I' for Inactive)
REMARK    1  A    between atoms: O_5  and  C_13 
REMARK    2  A    between atoms: O_5  and  C_14 
REMARK    3  A    between atoms: O_6  and  C_15 
REMARK    4  A    between atoms: O_6  and  C_22 
REMARK       I    between atoms: N_8  and  C_20 
REMARK    5  A    between atoms: N_8  and  C_21 
REMARK    6  A    between atoms: C_10  and  C_13 
REMARK    7  A    between atoms: C_17  and  C_20 
ROOT
ATOM      1 CL   UNL A   1      17.680  10.155  17.234  1.00  0.00    -0.080 Cl
ATOM      2 CL   UNL A   1      17.895   4.824  18.435  1.00  0.00    -0.080 Cl
ATOM      3  N   UNL A   1      19.401   8.077  20.151  1.00  0.00    -0.270 NA
ATOM      4  C   UNL A   1      17.846   7.511  17.918  1.00  0.00     0.081 A 
ATOM      5  C   UNL A   1      18.180   8.822  18.202  1.00  0.00     0.080 A 
ATOM      6  C   UNL A   1      18.275   6.478  18.730  1.00  0.00     0.080 A 
ATOM      7  C   UNL A   1      18.957   9.052  19.326  1.00  0.00     0.142 A 
ATOM      8  C   UNL A   1      19.047   6.812  19.831  1.00  0.00     0.142 A 
ENDROOT
BRANCH   4   9
ATOM      9  N   UNL A   1      17.053   7.223  16.780  1.00  0.00    -0.320 N 
ATOM     10  C   UNL A   1      15.682   6.936  16.722  1.00  0.00     0.256 C 
ATOM     11  O   UNL A   1      14.921   6.889  17.702  1.00  0.00    -0.267 OA
ATOM     12  H   UNL A   1      17.527   7.224  15.918  1.00  0.00     0.169 HD
BRANCH  10  13
ATOM     13  C   UNL A   1      15.149   6.651  15.399  1.00  0.00     0.035 A 
ATOM     14  C   UNL A   1      15.962   6.062  14.431  1.00  0.00     0.056 A 
ATOM     15  C   UNL A   1      15.450   5.790  13.162  1.00  0.00     0.103 A 
ATOM     16  C   UNL A   1      14.126   6.108  12.861  1.00  0.00     0.108 A 
ATOM     17  C   UNL A   1      13.313   6.697  13.829  1.00  0.00     0.041 A 
ATOM     18  C   UNL A   1      13.825   6.969  15.098  1.00  0.00     0.020 A 
BRANCH  15  19
ATOM     19  O   UNL A   1      16.254   5.215  12.225  1.00  0.00    -0.348 OA
BRANCH  19  20
ATOM     20  C   UNL A   1      17.434   5.925  11.858  1.00  0.00     0.180 C 
BRANCH  20  21
ATOM     21  C   UNL A   1      17.287   6.456  10.474  1.00  0.00     0.010 A 
ATOM     22  C   UNL A   1      16.540   7.736  10.261  1.00  0.00     0.007 A 
ATOM     23  C   UNL A   1      18.029   7.698  10.089  1.00  0.00     0.007 A 
ENDBRANCH  20  21
ENDBRANCH  19  20
ENDBRANCH  15  19
BRANCH  16  24
ATOM     24  O   UNL A   1      13.615   5.846  11.626  1.00  0.00    -0.287 OA
BRANCH  24  25
ATOM     25  C   UNL A   1      12.204   5.937  11.470  1.00  0.00     0.505 C 
ATOM     26  F   UNL A   1      11.955   6.904  10.549  1.00  0.00    -0.184 F 
ATOM     27  F   UNL A   1      11.739   4.777  10.947  1.00  0.00    -0.184 F 
ENDBRANCH  24  25
ENDBRANCH  16  24
ENDBRANCH  10  13
ENDBRANCH   4   9
TORSDOF 7
ENDMDL
