MODEL 1
REMARK VINA RESULT:      -8.1      0.000      0.000
REMARK  7 active torsions:
REMARK  status: ('A' for Active; 'I' for Inactive)
REMARK    1  A    between atoms: O_5  and  C_13 
REMARK    2  A    between atoms: O_5  and  C_14 
REMARK    3  A    between atoms: O_6  and  C_15 
REMARK    4  A    between atoms: O_6  and  C_22 
REMARK       I    between atoms: N_8  and  C_20 
REMARK    5  A    between atoms: N_8  and  C_21 
REMARK    6  A    between atoms: C_10  and  C_13 
REMARK    7  A    between atoms: C_17  and  C_20 
ROOT
ATOM      1 CL   UNL A   1      12.305   6.780  16.430  1.00  0.00    -0.080 Cl
ATOM      2 CL   UNL A   1      17.630   6.296  15.278  1.00  0.00    -0.080 Cl
ATOM      3  N   UNL A   1      15.591   6.716  18.664  1.00  0.00    -0.270 NA
ATOM      4  C   UNL A   1      14.989   6.544  15.956  1.00  0.00     0.081 A 
ATOM      5  C   UNL A   1      13.966   6.693  16.873  1.00  0.00     0.080 A 
ATOM      6  C   UNL A   1      16.308   6.481  16.367  1.00  0.00     0.080 A 
ATOM      7  C   UNL A   1      14.318   6.774  18.211  1.00  0.00     0.142 A 
ATOM      8  C   UNL A   1      16.555   6.570  17.728  1.00  0.00     0.142 A 
ENDROOT
BRANCH   4   9
ATOM      9  N   UNL A   1      14.683   6.456  14.575  1.00  0.00    -0.320 N 
ATOM     10  C   UNL A   1      14.068   5.404  13.883  1.00  0.00     0.256 C 
ATOM     11  O   UNL A   1      13.681   4.342  14.398  1.00  0.00    -0.267 OA
ATOM     12  H   UNL A   1      14.936   7.237  14.031  1.00  0.00     0.169 HD
BRANCH  10  13
ATOM     13  C   UNL A   1      13.910   5.594  12.450  1.00  0.00     0.035 A 
ATOM     14  C   UNL A   1      14.976   6.073  11.688  1.00  0.00     0.056 A 
ATOM     15  C   UNL A   1      14.823   6.256  10.314  1.00  0.00     0.103 A 
ATOM     16  C   UNL A   1      13.606   5.960   9.701  1.00  0.00     0.108 A 
ATOM     17  C   UNL A   1      12.540   5.481  10.463  1.00  0.00     0.041 A 
ATOM     18  C   UNL A   1      12.693   5.298  11.837  1.00  0.00     0.020 A 
BRANCH  15  19
ATOM     19  O   UNL A   1      15.870   6.725   9.580  1.00  0.00    -0.348 OA
BRANCH  19  20
ATOM     20  C   UNL A   1      16.722   7.684  10.204  1.00  0.00     0.180 C 
BRANCH  20  21
ATOM     21  C   UNL A   1      18.123   7.175  10.213  1.00  0.00     0.010 A 
ATOM     22  C   UNL A   1      18.458   5.983  11.055  1.00  0.00     0.007 A 
ATOM     23  C   UNL A   1      18.423   5.862   9.560  1.00  0.00     0.007 A 
ENDBRANCH  20  21
ENDBRANCH  19  20
ENDBRANCH  15  19
BRANCH  16  24
ATOM     24  O   UNL A   1      13.445   6.133   8.360  1.00  0.00    -0.287 OA
BRANCH  24  25
ATOM     25  C   UNL A   1      12.336   5.488   7.746  1.00  0.00     0.505 C 
ATOM     26  F   UNL A   1      12.034   6.180   6.616  1.00  0.00    -0.184 F 
ATOM     27  F   UNL A   1      12.708   4.246   7.350  1.00  0.00    -0.184 F 
ENDBRANCH  24  25
ENDBRANCH  16  24
ENDBRANCH  10  13
ENDBRANCH   4   9
TORSDOF 7
ENDMDL
MODEL 2
REMARK VINA RESULT:      -8.0      1.659      1.961
REMARK  7 active torsions:
REMARK  status: ('A' for Active; 'I' for Inactive)
REMARK    1  A    between atoms: O_5  and  C_13 
REMARK    2  A    between atoms: O_5  and  C_14 
REMARK    3  A    between atoms: O_6  and  C_15 
REMARK    4  A    between atoms: O_6  and  C_22 
REMARK       I    between atoms: N_8  and  C_20 
REMARK    5  A    between atoms: N_8  and  C_21 
REMARK    6  A    between atoms: C_10  and  C_13 
REMARK    7  A    between atoms: C_17  and  C_20 
ROOT
ATOM      1 CL   UNL A   1      16.103   7.389  16.652  1.00  0.00    -0.080 Cl
ATOM      2 CL   UNL A   1      16.902   2.254  14.946  1.00  0.00    -0.080 Cl
ATOM      3  N   UNL A   1      17.833   4.204  18.282  1.00  0.00    -0.270 NA
ATOM      4  C   UNL A   1      16.551   4.800  15.889  1.00  0.00     0.081 A 
ATOM      5  C   UNL A   1      16.689   5.782  16.851  1.00  0.00     0.080 A 
ATOM      6  C   UNL A   1      17.042   3.524  16.101  1.00  0.00     0.080 A 
ATOM      7  C   UNL A   1      17.337   5.436  18.026  1.00  0.00     0.142 A 
ATOM      8  C   UNL A   1      17.672   3.279  17.310  1.00  0.00     0.142 A 
ENDROOT
BRANCH   4   9
ATOM      9  N   UNL A   1      15.896   5.102  14.670  1.00  0.00    -0.320 N 
ATOM     10  C   UNL A   1      14.527   5.041  14.375  1.00  0.00     0.256 C 
ATOM     11  O   UNL A   1      13.640   4.697  15.174  1.00  0.00    -0.267 OA
ATOM     12  H   UNL A   1      16.480   5.394  13.932  1.00  0.00     0.169 HD
BRANCH  10  13
ATOM     13  C   UNL A   1      14.154   5.390  13.013  1.00  0.00     0.035 A 
ATOM     14  C   UNL A   1      15.137   5.761  12.095  1.00  0.00     0.056 A 
ATOM     15  C   UNL A   1      14.778   6.096  10.789  1.00  0.00     0.103 A 
ATOM     16  C   UNL A   1      13.439   6.061  10.402  1.00  0.00     0.108 A 
ATOM     17  C   UNL A   1      12.457   5.691  11.320  1.00  0.00     0.041 A 
ATOM     18  C   UNL A   1      12.815   5.355  12.626  1.00  0.00     0.020 A 
BRANCH  15  19
ATOM     19  O   UNL A   1      15.746   6.456   9.900  1.00  0.00    -0.348 OA
BRANCH  19  20
ATOM     20  C   UNL A   1      16.580   7.555  10.261  1.00  0.00     0.180 C 
BRANCH  20  21
ATOM     21  C   UNL A   1      18.004   7.114  10.279  1.00  0.00     0.010 A 
ATOM     22  C   UNL A   1      18.348   5.792  10.892  1.00  0.00     0.007 A 
ATOM     23  C   UNL A   1      18.423   5.974   9.405  1.00  0.00     0.007 A 
ENDBRANCH  20  21
ENDBRANCH  19  20
ENDBRANCH  15  19
BRANCH  16  24
ATOM     24  O   UNL A   1      13.077   6.385   9.129  1.00  0.00    -0.287 OA
BRANCH  24  25
ATOM     25  C   UNL A   1      12.446   5.375   8.352  1.00  0.00     0.505 C 
ATOM     26  F   UNL A   1      11.882   5.979   7.274  1.00  0.00    -0.184 F 
ATOM     27  F   UNL A   1      13.390   4.530   7.870  1.00  0.00    -0.184 F 
ENDBRANCH  24  25
ENDBRANCH  16  24
ENDBRANCH  10  13
ENDBRANCH   4   9
TORSDOF 7
ENDMDL
MODEL 3
REMARK VINA RESULT:      -7.7      2.682      4.602
REMARK  7 active torsions:
REMARK  status: ('A' for Active; 'I' for Inactive)
REMARK    1  A    between atoms: O_5  and  C_13 
REMARK    2  A    between atoms: O_5  and  C_14 
REMARK    3  A    between atoms: O_6  and  C_15 
REMARK    4  A    between atoms: O_6  and  C_22 
REMARK       I    between atoms: N_8  and  C_20 
REMARK    5  A    between atoms: N_8  and  C_21 
REMARK    6  A    between atoms: C_10  and  C_13 
REMARK    7  A    between atoms: C_17  and  C_20 
ROOT
ATOM      1 CL   UNL A   1      17.304   6.410  16.244  1.00  0.00    -0.080 Cl
ATOM      2 CL   UNL A   1      19.805   3.494  12.351  1.00  0.00    -0.080 Cl
ATOM      3  N   UNL A   1      20.807   4.543  16.051  1.00  0.00    -0.270 NA
ATOM      4  C   UNL A   1      18.636   4.937  14.361  1.00  0.00     0.081 A 
ATOM      5  C   UNL A   1      18.619   5.481  15.632  1.00  0.00     0.080 A 
ATOM      6  C   UNL A   1      19.719   4.200  13.920  1.00  0.00     0.080 A 
ATOM      7  C   UNL A   1      19.725   5.257  16.435  1.00  0.00     0.142 A 
ATOM      8  C   UNL A   1      20.776   4.032  14.800  1.00  0.00     0.142 A 
ENDROOT
BRANCH   4   9
ATOM      9  N   UNL A   1      17.529   5.137  13.500  1.00  0.00    -0.320 N 
ATOM     10  C   UNL A   1      17.427   5.991  12.393  1.00  0.00     0.256 C 
ATOM     11  O   UNL A   1      18.333   6.734  11.980  1.00  0.00    -0.267 OA
ATOM     12  H   UNL A   1      16.726   4.607  13.707  1.00  0.00     0.169 HD
BRANCH  10  13
ATOM     13  C   UNL A   1      16.141   5.999  11.714  1.00  0.00     0.035 A 
ATOM     14  C   UNL A   1      14.963   5.865  12.449  1.00  0.00     0.056 A 
ATOM     15  C   UNL A   1      13.730   5.873  11.797  1.00  0.00     0.103 A 
ATOM     16  C   UNL A   1      13.675   6.014  10.411  1.00  0.00     0.108 A 
ATOM     17  C   UNL A   1      14.852   6.148   9.675  1.00  0.00     0.041 A 
ATOM     18  C   UNL A   1      16.086   6.140  10.327  1.00  0.00     0.020 A 
BRANCH  15  19
ATOM     19  O   UNL A   1      12.587   5.741  12.525  1.00  0.00    -0.348 OA
BRANCH  19  20
ATOM     20  C   UNL A   1      12.659   4.948  13.708  1.00  0.00     0.180 C 
BRANCH  20  21
ATOM     21  C   UNL A   1      12.280   5.776  14.887  1.00  0.00     0.010 A 
ATOM     22  C   UNL A   1      13.354   6.261  15.811  1.00  0.00     0.007 A 
ATOM     23  C   UNL A   1      12.648   7.226  14.906  1.00  0.00     0.007 A 
ENDBRANCH  20  21
ENDBRANCH  19  20
ENDBRANCH  15  19
BRANCH  16  24
ATOM     24  O   UNL A   1      12.476   6.024   9.763  1.00  0.00    -0.287 OA
BRANCH  24  25
ATOM     25  C   UNL A   1      12.502   5.982   8.342  1.00  0.00     0.505 C 
ATOM     26  F   UNL A   1      12.239   4.704   7.964  1.00  0.00    -0.184 F 
ATOM     27  F   UNL A   1      11.490   6.743   7.857  1.00  0.00    -0.184 F 
ENDBRANCH  24  25
ENDBRANCH  16  24
ENDBRANCH  10  13
ENDBRANCH   4   9
TORSDOF 7
ENDMDL
MODEL 4
REMARK VINA RESULT:      -7.6      2.619      4.544
REMARK  7 active torsions:
REMARK  status: ('A' for Active; 'I' for Inactive)
REMARK    1  A    between atoms: O_5  and  C_13 
REMARK    2  A    between atoms: O_5  and  C_14 
REMARK    3  A    between atoms: O_6  and  C_15 
REMARK    4  A    between atoms: O_6  and  C_22 
REMARK       I    between atoms: N_8  and  C_20 
REMARK    5  A    between atoms: N_8  and  C_21 
REMARK    6  A    between atoms: C_10  and  C_13 
REMARK    7  A    between atoms: C_17  and  C_20 
ROOT
ATOM      1 CL   UNL A   1      17.801   2.147  14.869  1.00  0.00    -0.080 Cl
ATOM      2 CL   UNL A   1      18.600   7.517  15.523  1.00  0.00    -0.080 Cl
ATOM      3  N   UNL A   1      20.216   4.289  17.186  1.00  0.00    -0.270 NA
ATOM      4  C   UNL A   1      18.273   4.812  15.268  1.00  0.00     0.081 A 
ATOM      5  C   UNL A   1      18.574   3.503  15.595  1.00  0.00     0.080 A 
ATOM      6  C   UNL A   1      18.925   5.865  15.883  1.00  0.00     0.080 A 
ATOM      7  C   UNL A   1      19.549   3.295  16.557  1.00  0.00     0.142 A 
ATOM      8  C   UNL A   1      19.885   5.551  16.832  1.00  0.00     0.142 A 
ENDROOT
BRANCH   4   9
ATOM      9  N   UNL A   1      17.284   5.079  14.290  1.00  0.00    -0.320 N 
ATOM     10  C   UNL A   1      17.456   5.352  12.926  1.00  0.00     0.256 C 
ATOM     11  O   UNL A   1      18.551   5.403  12.342  1.00  0.00    -0.267 OA
ATOM     12  H   UNL A   1      16.353   5.072  14.611  1.00  0.00     0.169 HD
BRANCH  10  13
ATOM     13  C   UNL A   1      16.240   5.615  12.172  1.00  0.00     0.035 A 
ATOM     14  C   UNL A   1      14.995   5.450  12.779  1.00  0.00     0.056 A 
ATOM     15  C   UNL A   1      13.829   5.702  12.055  1.00  0.00     0.103 A 
ATOM     16  C   UNL A   1      13.909   6.117  10.726  1.00  0.00     0.108 A 
ATOM     17  C   UNL A   1      15.154   6.281  10.120  1.00  0.00     0.041 A 
ATOM     18  C   UNL A   1      16.320   6.030  10.843  1.00  0.00     0.020 A 
BRANCH  15  19
ATOM     19  O   UNL A   1      12.618   5.538  12.657  1.00  0.00    -0.348 OA
BRANCH  19  20
ATOM     20  C   UNL A   1      12.624   5.198  14.042  1.00  0.00     0.180 C 
BRANCH  20  21
ATOM     21  C   UNL A   1      12.168   6.367  14.845  1.00  0.00     0.010 A 
ATOM     22  C   UNL A   1      12.721   6.565  16.222  1.00  0.00     0.007 A 
ATOM     23  C   UNL A   1      13.126   7.486  15.109  1.00  0.00     0.007 A 
ENDBRANCH  20  21
ENDBRANCH  19  20
ENDBRANCH  15  19
BRANCH  16  24
ATOM     24  O   UNL A   1      12.777   6.367  10.010  1.00  0.00    -0.287 OA
BRANCH  24  25
ATOM     25  C   UNL A   1      12.803   6.062   8.621  1.00  0.00     0.505 C 
ATOM     26  F   UNL A   1      12.633   4.720   8.493  1.00  0.00    -0.184 F 
ATOM     27  F   UNL A   1      11.738   6.645   8.018  1.00  0.00    -0.184 F 
ENDBRANCH  24  25
ENDBRANCH  16  24
ENDBRANCH  10  13
ENDBRANCH   4   9
TORSDOF 7
ENDMDL
MODEL 5
REMARK VINA RESULT:      -7.3      3.401      4.946
REMARK  7 active torsions:
REMARK  status: ('A' for Active; 'I' for Inactive)
REMARK    1  A    between atoms: O_5  and  C_13 
REMARK    2  A    between atoms: O_5  and  C_14 
REMARK    3  A    between atoms: O_6  and  C_15 
REMARK    4  A    between atoms: O_6  and  C_22 
REMARK       I    between atoms: N_8  and  C_20 
REMARK    5  A    between atoms: N_8  and  C_21 
REMARK    6  A    between atoms: C_10  and  C_13 
REMARK    7  A    between atoms: C_17  and  C_20 
ROOT
ATOM      1 CL   UNL A   1      18.462  10.581  16.736  1.00  0.00    -0.080 Cl
ATOM      2 CL   UNL A   1      17.378   6.775  20.512  1.00  0.00    -0.080 Cl
ATOM      3  N   UNL A   1      19.770   9.948  20.435  1.00  0.00    -0.270 NA
ATOM      4  C   UNL A   1      17.987   8.724  18.690  1.00  0.00     0.081 A 
ATOM      5  C   UNL A   1      18.663   9.861  18.288  1.00  0.00     0.080 A 
ATOM      6  C   UNL A   1      18.187   8.187  19.948  1.00  0.00     0.080 A 
ATOM      7  C   UNL A   1      19.541  10.433  19.194  1.00  0.00     0.142 A 
ATOM      8  C   UNL A   1      19.085   8.835  20.781  1.00  0.00     0.142 A 
ENDROOT
BRANCH   4   9
ATOM      9  N   UNL A   1      17.078   8.101  17.800  1.00  0.00    -0.320 N 
ATOM     10  C   UNL A   1      17.280   6.973  16.993  1.00  0.00     0.256 C 
ATOM     11  O   UNL A   1      18.335   6.320  16.932  1.00  0.00    -0.267 OA
ATOM     12  H   UNL A   1      16.186   8.514  17.742  1.00  0.00     0.169 HD
BRANCH  10  13
ATOM     13  C   UNL A   1      16.156   6.580  16.157  1.00  0.00     0.035 A 
ATOM     14  C   UNL A   1      16.381   6.106  14.865  1.00  0.00     0.056 A 
ATOM     15  C   UNL A   1      15.303   5.731  14.063  1.00  0.00     0.103 A 
ATOM     16  C   UNL A   1      14.001   5.830  14.554  1.00  0.00     0.108 A 
ATOM     17  C   UNL A   1      13.776   6.304  15.846  1.00  0.00     0.041 A 
ATOM     18  C   UNL A   1      14.855   6.679  16.648  1.00  0.00     0.020 A 
BRANCH  15  19
ATOM     19  O   UNL A   1      15.533   5.270  12.802  1.00  0.00    -0.348 OA
BRANCH  19  20
ATOM     20  C   UNL A   1      16.786   5.607  12.208  1.00  0.00     0.180 C 
BRANCH  20  21
ATOM     21  C   UNL A   1      16.577   5.972  10.779  1.00  0.00     0.010 A 
ATOM     22  C   UNL A   1      15.197   6.315  10.310  1.00  0.00     0.007 A 
ATOM     23  C   UNL A   1      16.238   7.388  10.433  1.00  0.00     0.007 A 
ENDBRANCH  20  21
ENDBRANCH  19  20
ENDBRANCH  15  19
BRANCH  16  24
ATOM     24  O   UNL A   1      12.940   5.465  13.781  1.00  0.00    -0.287 OA
BRANCH  24  25
ATOM     25  C   UNL A   1      12.286   6.490  13.043  1.00  0.00     0.505 C 
ATOM     26  F   UNL A   1      11.695   5.908  11.968  1.00  0.00    -0.184 F 
ATOM     27  F   UNL A   1      11.288   7.012  13.796  1.00  0.00    -0.184 F 
ENDBRANCH  24  25
ENDBRANCH  16  24
ENDBRANCH  10  13
ENDBRANCH   4   9
TORSDOF 7
ENDMDL
MODEL 6
REMARK VINA RESULT:      -7.2      3.366      4.839
REMARK  7 active torsions:
REMARK  status: ('A' for Active; 'I' for Inactive)
REMARK    1  A    between atoms: O_5  and  C_13 
REMARK    2  A    between atoms: O_5  and  C_14 
REMARK    3  A    between atoms: O_6  and  C_15 
REMARK    4  A    between atoms: O_6  and  C_22 
REMARK       I    between atoms: N_8  and  C_20 
REMARK    5  A    between atoms: N_8  and  C_21 
REMARK    6  A    between atoms: C_10  and  C_13 
REMARK    7  A    between atoms: C_17  and  C_20 
ROOT
ATOM      1 CL   UNL A   1      19.172   5.846  17.418  1.00  0.00    -0.080 Cl
ATOM      2 CL   UNL A   1      16.845   1.239  15.609  1.00  0.00    -0.080 Cl
ATOM      3  N   UNL A   1      18.534   2.280  19.053  1.00  0.00    -0.270 NA
ATOM      4  C   UNL A   1      18.028   3.497  16.606  1.00  0.00     0.081 A 
ATOM      5  C   UNL A   1      18.663   4.211  17.604  1.00  0.00     0.080 A 
ATOM      6  C   UNL A   1      17.641   2.185  16.808  1.00  0.00     0.080 A 
ATOM      7  C   UNL A   1      18.893   3.560  18.805  1.00  0.00     0.142 A 
ATOM      8  C   UNL A   1      17.915   1.625  18.045  1.00  0.00     0.142 A 
ENDROOT
BRANCH   4   9
ATOM      9  N   UNL A   1      17.769   4.117  15.358  1.00  0.00    -0.320 N 
ATOM     10  C   UNL A   1      16.562   4.644  14.879  1.00  0.00     0.256 C 
ATOM     11  O   UNL A   1      15.488   4.647  15.503  1.00  0.00    -0.267 OA
ATOM     12  H   UNL A   1      18.539   4.187  14.748  1.00  0.00     0.169 HD
BRANCH  10  13
ATOM     13  C   UNL A   1      16.601   5.198  13.535  1.00  0.00     0.035 A 
ATOM     14  C   UNL A   1      15.431   5.674  12.943  1.00  0.00     0.056 A 
ATOM     15  C   UNL A   1      15.468   6.204  11.653  1.00  0.00     0.103 A 
ATOM     16  C   UNL A   1      16.675   6.259  10.956  1.00  0.00     0.108 A 
ATOM     17  C   UNL A   1      17.845   5.783  11.548  1.00  0.00     0.041 A 
ATOM     18  C   UNL A   1      17.807   5.253  12.838  1.00  0.00     0.020 A 
BRANCH  15  19
ATOM     19  O   UNL A   1      14.320   6.666  11.085  1.00  0.00    -0.348 OA
BRANCH  19  20
ATOM     20  C   UNL A   1      13.468   5.701  10.470  1.00  0.00     0.180 C 
BRANCH  20  21
ATOM     21  C   UNL A   1      13.467   5.905   8.994  1.00  0.00     0.010 A 
ATOM     22  C   UNL A   1      12.692   4.959   8.130  1.00  0.00     0.007 A 
ATOM     23  C   UNL A   1      12.209   6.366   8.325  1.00  0.00     0.007 A 
ENDBRANCH  20  21
ENDBRANCH  19  20
ENDBRANCH  15  19
BRANCH  16  24
ATOM     24  O   UNL A   1      16.724   6.776   9.697  1.00  0.00    -0.287 OA
BRANCH  24  25
ATOM     25  C   UNL A   1      17.130   8.132   9.563  1.00  0.00     0.505 C 
ATOM     26  F   UNL A   1      16.471   8.852  10.508  1.00  0.00    -0.184 F 
ATOM     27  F   UNL A   1      18.450   8.233   9.853  1.00  0.00    -0.184 F 
ENDBRANCH  24  25
ENDBRANCH  16  24
ENDBRANCH  10  13
ENDBRANCH   4   9
TORSDOF 7
ENDMDL
MODEL 7
REMARK VINA RESULT:      -7.2      3.114      4.956
REMARK  7 active torsions:
REMARK  status: ('A' for Active; 'I' for Inactive)
REMARK    1  A    between atoms: O_5  and  C_13 
REMARK    2  A    between atoms: O_5  and  C_14 
REMARK    3  A    between atoms: O_6  and  C_15 
REMARK    4  A    between atoms: O_6  and  C_22 
REMARK       I    between atoms: N_8  and  C_20 
REMARK    5  A    between atoms: N_8  and  C_21 
REMARK    6  A    between atoms: C_10  and  C_13 
REMARK    7  A    between atoms: C_17  and  C_20 
ROOT
ATOM      1 CL   UNL A   1      16.538   6.350  19.555  1.00  0.00    -0.080 Cl
ATOM      2 CL   UNL A   1      19.737   9.895  16.890  1.00  0.00    -0.080 Cl
ATOM      3  N   UNL A   1      19.049   9.192  20.741  1.00  0.00    -0.270 NA
ATOM      4  C   UNL A   1      18.170   8.161  18.314  1.00  0.00     0.081 A 
ATOM      5  C   UNL A   1      17.683   7.634  19.495  1.00  0.00     0.080 A 
ATOM      6  C   UNL A   1      19.089   9.194  18.323  1.00  0.00     0.080 A 
ATOM      7  C   UNL A   1      18.151   8.183  20.678  1.00  0.00     0.142 A 
ATOM      8  C   UNL A   1      19.496   9.673  19.558  1.00  0.00     0.142 A 
ENDROOT
BRANCH   4   9
ATOM      9  N   UNL A   1      17.723   7.635  17.077  1.00  0.00    -0.320 N 
ATOM     10  C   UNL A   1      18.121   6.454  16.435  1.00  0.00     0.256 C 
ATOM     11  O   UNL A   1      18.965   5.654  16.873  1.00  0.00    -0.267 OA
ATOM     12  H   UNL A   1      17.043   8.169  16.607  1.00  0.00     0.169 HD
BRANCH  10  13
ATOM     13  C   UNL A   1      17.498   6.190  15.148  1.00  0.00     0.035 A 
ATOM     14  C   UNL A   1      16.122   5.974  15.071  1.00  0.00     0.056 A 
ATOM     15  C   UNL A   1      15.525   5.719  13.836  1.00  0.00     0.103 A 
ATOM     16  C   UNL A   1      16.303   5.680  12.679  1.00  0.00     0.108 A 
ATOM     17  C   UNL A   1      17.679   5.896  12.756  1.00  0.00     0.041 A 
ATOM     18  C   UNL A   1      18.276   6.151  13.991  1.00  0.00     0.020 A 
BRANCH  15  19
ATOM     19  O   UNL A   1      14.181   5.510  13.772  1.00  0.00    -0.348 OA
BRANCH  19  20
ATOM     20  C   UNL A   1      13.359   6.647  13.518  1.00  0.00     0.180 C 
BRANCH  20  21
ATOM     21  C   UNL A   1      12.169   6.235  12.721  1.00  0.00     0.010 A 
ATOM     22  C   UNL A   1      12.211   6.369  11.230  1.00  0.00     0.007 A 
ATOM     23  C   UNL A   1      12.258   5.011  11.864  1.00  0.00     0.007 A 
ENDBRANCH  20  21
ENDBRANCH  19  20
ENDBRANCH  15  19
BRANCH  16  24
ATOM     24  O   UNL A   1      15.731   5.434  11.468  1.00  0.00    -0.287 OA
BRANCH  24  25
ATOM     25  C   UNL A   1      15.909   6.412  10.451  1.00  0.00     0.505 C 
ATOM     26  F   UNL A   1      14.987   6.168   9.482  1.00  0.00    -0.184 F 
ATOM     27  F   UNL A   1      15.622   7.637  10.956  1.00  0.00    -0.184 F 
ENDBRANCH  24  25
ENDBRANCH  16  24
ENDBRANCH  10  13
ENDBRANCH   4   9
TORSDOF 7
ENDMDL
MODEL 8
REMARK VINA RESULT:      -7.1      2.328      3.058
REMARK  7 active torsions:
REMARK  status: ('A' for Active; 'I' for Inactive)
REMARK    1  A    between atoms: O_5  and  C_13 
REMARK    2  A    between atoms: O_5  and  C_14 
REMARK    3  A    between atoms: O_6  and  C_15 
REMARK    4  A    between atoms: O_6  and  C_22 
REMARK       I    between atoms: N_8  and  C_20 
REMARK    5  A    between atoms: N_8  and  C_21 
REMARK    6  A    between atoms: C_10  and  C_13 
REMARK    7  A    between atoms: C_17  and  C_20 
ROOT
ATOM      1 CL   UNL A   1      14.183   6.870  19.736  1.00  0.00    -0.080 Cl
ATOM      2 CL   UNL A   1      18.388   8.344  16.565  1.00  0.00    -0.080 Cl
ATOM      3  N   UNL A   1      17.884   8.100  20.500  1.00  0.00    -0.270 NA
ATOM      4  C   UNL A   1      16.343   7.625  18.236  1.00  0.00     0.081 A 
ATOM      5  C   UNL A   1      15.797   7.417  19.488  1.00  0.00     0.080 A 
ATOM      6  C   UNL A   1      17.646   8.066  18.094  1.00  0.00     0.080 A 
ATOM      7  C   UNL A   1      16.605   7.669  20.585  1.00  0.00     0.142 A 
ATOM      8  C   UNL A   1      18.372   8.288  19.253  1.00  0.00     0.142 A 
ENDROOT
BRANCH   4   9
ATOM      9  N   UNL A   1      15.559   7.382  17.082  1.00  0.00    -0.320 N 
ATOM     10  C   UNL A   1      15.477   6.213  16.312  1.00  0.00     0.256 C 
ATOM     11  O   UNL A   1      16.108   5.167  16.534  1.00  0.00    -0.267 OA
ATOM     12  H   UNL A   1      14.997   8.132  16.781  1.00  0.00     0.169 HD
BRANCH  10  13
ATOM     13  C   UNL A   1      14.595   6.274  15.156  1.00  0.00     0.035 A 
ATOM     14  C   UNL A   1      15.127   6.209  13.869  1.00  0.00     0.056 A 
ATOM     15  C   UNL A   1      14.281   6.269  12.761  1.00  0.00     0.103 A 
ATOM     16  C   UNL A   1      12.903   6.394  12.942  1.00  0.00     0.108 A 
ATOM     17  C   UNL A   1      12.371   6.459  14.230  1.00  0.00     0.041 A 
ATOM     18  C   UNL A   1      13.218   6.399  15.337  1.00  0.00     0.020 A 
BRANCH  15  19
ATOM     19  O   UNL A   1      14.811   6.205  11.509  1.00  0.00    -0.348 OA
BRANCH  19  20
ATOM     20  C   UNL A   1      16.095   6.795  11.317  1.00  0.00     0.180 C 
BRANCH  20  21
ATOM     21  C   UNL A   1      17.033   5.779  10.763  1.00  0.00     0.010 A 
ATOM     22  C   UNL A   1      18.273   6.240  10.063  1.00  0.00     0.007 A 
ATOM     23  C   UNL A   1      18.369   5.593  11.412  1.00  0.00     0.007 A 
ENDBRANCH  20  21
ENDBRANCH  19  20
ENDBRANCH  15  19
BRANCH  16  24
ATOM     24  O   UNL A   1      12.067   6.452  11.868  1.00  0.00    -0.287 OA
BRANCH  24  25
ATOM     25  C   UNL A   1      11.708   5.221  11.253  1.00  0.00     0.505 C 
ATOM     26  F   UNL A   1      12.407   5.124  10.092  1.00  0.00    -0.184 F 
ATOM     27  F   UNL A   1      12.118   4.195  12.037  1.00  0.00    -0.184 F 
ENDBRANCH  24  25
ENDBRANCH  16  24
ENDBRANCH  10  13
ENDBRANCH   4   9
TORSDOF 7
ENDMDL
MODEL 9
REMARK VINA RESULT:      -7.1      3.348      4.721
REMARK  7 active torsions:
REMARK  status: ('A' for Active; 'I' for Inactive)
REMARK    1  A    between atoms: O_5  and  C_13 
REMARK    2  A    between atoms: O_5  and  C_14 
REMARK    3  A    between atoms: O_6  and  C_15 
REMARK    4  A    between atoms: O_6  and  C_22 
REMARK       I    between atoms: N_8  and  C_20 
REMARK    5  A    between atoms: N_8  and  C_21 
REMARK    6  A    between atoms: C_10  and  C_13 
REMARK    7  A    between atoms: C_17  and  C_20 
ROOT
ATOM      1 CL   UNL A   1      17.416   6.670  20.415  1.00  0.00    -0.080 Cl
ATOM      2 CL   UNL A   1      18.363  10.594  16.725  1.00  0.00    -0.080 Cl
ATOM      3  N   UNL A   1      19.734   9.898  20.390  1.00  0.00    -0.270 NA
ATOM      4  C   UNL A   1      17.956   8.678  18.636  1.00  0.00     0.081 A 
ATOM      5  C   UNL A   1      18.184   8.115  19.878  1.00  0.00     0.080 A 
ATOM      6  C   UNL A   1      18.600   9.841  18.255  1.00  0.00     0.080 A 
ATOM      7  C   UNL A   1      19.079   8.761  20.716  1.00  0.00     0.142 A 
ATOM      8  C   UNL A   1      19.477  10.410  19.165  1.00  0.00     0.142 A 
ENDROOT
BRANCH   4   9
ATOM      9  N   UNL A   1      17.051   8.056  17.742  1.00  0.00    -0.320 N 
ATOM     10  C   UNL A   1      17.287   6.992  16.860  1.00  0.00     0.256 C 
ATOM     11  O   UNL A   1      18.375   6.407  16.723  1.00  0.00    -0.267 OA
ATOM     12  H   UNL A   1      16.136   8.418  17.739  1.00  0.00     0.169 HD
BRANCH  10  13
ATOM     13  C   UNL A   1      16.157   6.584  16.040  1.00  0.00     0.035 A 
ATOM     14  C   UNL A   1      16.365   6.160  14.728  1.00  0.00     0.056 A 
ATOM     15  C   UNL A   1      15.281   5.770  13.942  1.00  0.00     0.103 A 
ATOM     16  C   UNL A   1      13.990   5.804  14.468  1.00  0.00     0.108 A 
ATOM     17  C   UNL A   1      13.782   6.228  15.780  1.00  0.00     0.041 A 
ATOM     18  C   UNL A   1      14.866   6.618  16.566  1.00  0.00     0.020 A 
BRANCH  15  19
ATOM     19  O   UNL A   1      15.495   5.358  12.661  1.00  0.00    -0.348 OA
BRANCH  19  20
ATOM     20  C   UNL A   1      15.751   6.369  11.689  1.00  0.00     0.180 C 
BRANCH  20  21
ATOM     21  C   UNL A   1      16.831   5.915  10.769  1.00  0.00     0.010 A 
ATOM     22  C   UNL A   1      17.957   6.849  10.451  1.00  0.00     0.007 A 
ATOM     23  C   UNL A   1      18.196   5.653  11.324  1.00  0.00     0.007 A 
ENDBRANCH  20  21
ENDBRANCH  19  20
ENDBRANCH  15  19
BRANCH  16  24
ATOM     24  O   UNL A   1      12.923   5.424  13.710  1.00  0.00    -0.287 OA
BRANCH  24  25
ATOM     25  C   UNL A   1      12.261   6.436  12.960  1.00  0.00     0.505 C 
ATOM     26  F   UNL A   1      11.615   5.826  11.932  1.00  0.00    -0.184 F 
ATOM     27  F   UNL A   1      11.306   7.009  13.731  1.00  0.00    -0.184 F 
ENDBRANCH  24  25
ENDBRANCH  16  24
ENDBRANCH  10  13
ENDBRANCH   4   9
TORSDOF 7
ENDMDL
