MODEL 1
REMARK VINA RESULT:      -3.2      0.000      0.000
REMARK  0 active torsions:
REMARK  status: ('A' for Active; 'I' for Inactive)
ROOT
ATOM      1  O   UNL A   1      22.191  -2.190  36.421  1.00  0.00    -0.648 OA
ATOM      2  O   UNL A   1      23.677  -1.173  35.009  1.00  0.00    -0.648 OA
ATOM      3  C   UNL A   1      21.555  -1.762  34.196  1.00  0.00     0.129 C 
ATOM      4  C   UNL A   1      22.574  -1.703  35.321  1.00  0.00     0.168 C 
ENDROOT
TORSDOF 0
ENDMDL
MODEL 2
REMARK VINA RESULT:      -3.2      0.034      1.618
REMARK  0 active torsions:
REMARK  status: ('A' for Active; 'I' for Inactive)
ROOT
ATOM      1  O   UNL A   1      23.687  -1.178  34.991  1.00  0.00    -0.648 OA
ATOM      2  O   UNL A   1      22.216  -2.164  36.439  1.00  0.00    -0.648 OA
ATOM      3  C   UNL A   1      21.533  -1.745  34.233  1.00  0.00     0.129 C 
ATOM      4  C   UNL A   1      22.584  -1.690  35.329  1.00  0.00     0.168 C 
ENDROOT
TORSDOF 0
ENDMDL
MODEL 3
REMARK VINA RESULT:      -3.1      1.456      1.684
REMARK  0 active torsions:
REMARK  status: ('A' for Active; 'I' for Inactive)
ROOT
ATOM      1  O   UNL A   1      22.273  -2.271  36.647  1.00  0.00    -0.648 OA
ATOM      2  O   UNL A   1      21.016  -1.206  35.060  1.00  0.00    -0.648 OA
ATOM      3  C   UNL A   1      23.351  -1.249  34.823  1.00  0.00     0.129 C 
ATOM      4  C   UNL A   1      22.089  -1.612  35.587  1.00  0.00     0.168 C 
ENDROOT
TORSDOF 0
ENDMDL
MODEL 4
REMARK VINA RESULT:      -3.1      1.418      1.903
REMARK  0 active torsions:
REMARK  status: ('A' for Active; 'I' for Inactive)
ROOT
ATOM      1  O   UNL A   1      21.016  -1.385  34.863  1.00  0.00    -0.648 OA
ATOM      2  O   UNL A   1      22.237  -2.201  36.617  1.00  0.00    -0.648 OA
ATOM      3  C   UNL A   1      23.358  -1.158  34.837  1.00  0.00     0.129 C 
ATOM      4  C   UNL A   1      22.076  -1.627  35.504  1.00  0.00     0.168 C 
ENDROOT
TORSDOF 0
ENDMDL
MODEL 5
REMARK VINA RESULT:      -2.9      1.838      2.067
REMARK  0 active torsions:
REMARK  status: ('A' for Active; 'I' for Inactive)
ROOT
ATOM      1  O   UNL A   1      22.544  -3.300  34.538  1.00  0.00    -0.648 OA
ATOM      2  O   UNL A   1      21.234  -1.584  33.782  1.00  0.00    -0.648 OA
ATOM      3  C   UNL A   1      22.343  -1.349  35.837  1.00  0.00     0.129 C 
ATOM      4  C   UNL A   1      22.008  -2.159  34.596  1.00  0.00     0.168 C 
ENDROOT
TORSDOF 0
ENDMDL
MODEL 6
REMARK VINA RESULT:      -2.9      1.459      1.674
REMARK  0 active torsions:
REMARK  status: ('A' for Active; 'I' for Inactive)
ROOT
ATOM      1  O   UNL A   1      22.569  -3.115  34.640  1.00  0.00    -0.648 OA
ATOM      2  O   UNL A   1      21.546  -1.234  35.448  1.00  0.00    -0.648 OA
ATOM      3  C   UNL A   1      21.415  -1.703  33.152  1.00  0.00     0.129 C 
ATOM      4  C   UNL A   1      21.891  -2.053  34.551  1.00  0.00     0.168 C 
ENDROOT
TORSDOF 0
ENDMDL
MODEL 7
REMARK VINA RESULT:      -2.7      2.510      3.080
REMARK  0 active torsions:
REMARK  status: ('A' for Active; 'I' for Inactive)
ROOT
ATOM      1  O   UNL A   1      21.328  -1.166  32.089  1.00  0.00    -0.648 OA
ATOM      2  O   UNL A   1      21.160  -1.546  34.338  1.00  0.00    -0.648 OA
ATOM      3  C   UNL A   1      21.653  -3.345  32.914  1.00  0.00     0.129 C 
ATOM      4  C   UNL A   1      21.350  -1.873  33.134  1.00  0.00     0.168 C 
ENDROOT
TORSDOF 0
ENDMDL
MODEL 8
REMARK VINA RESULT:      -2.6      2.621      2.865
REMARK  0 active torsions:
REMARK  status: ('A' for Active; 'I' for Inactive)
ROOT
ATOM      1  O   UNL A   1      21.737  -4.137  32.565  1.00  0.00    -0.648 OA
ATOM      2  O   UNL A   1      22.387  -3.162  34.530  1.00  0.00    -0.648 OA
ATOM      3  C   UNL A   1      21.102  -1.915  33.012  1.00  0.00     0.129 C 
ATOM      4  C   UNL A   1      21.812  -3.199  33.407  1.00  0.00     0.168 C 
ENDROOT
TORSDOF 0
ENDMDL
MODEL 9
REMARK VINA RESULT:      -2.6      2.680      2.902
REMARK  0 active torsions:
REMARK  status: ('A' for Active; 'I' for Inactive)
ROOT
ATOM      1  O   UNL A   1      21.603  -3.344  32.874  1.00  0.00    -0.648 OA
ATOM      2  O   UNL A   1      21.353  -1.157  32.251  1.00  0.00    -0.648 OA
ATOM      3  C   UNL A   1      21.776  -1.658  34.505  1.00  0.00     0.129 C 
ATOM      4  C   UNL A   1      21.556  -2.098  33.068  1.00  0.00     0.168 C 
ENDROOT
TORSDOF 0
ENDMDL
