MODEL 1
REMARK VINA RESULT:      -3.2      0.000      0.000
REMARK  0 active torsions:
REMARK  status: ('A' for Active; 'I' for Inactive)
ROOT
ATOM      1  O   UNL A   1      22.193  -2.189  36.421  1.00  0.00    -0.648 OA
ATOM      2  O   UNL A   1      23.677  -1.171  35.009  1.00  0.00    -0.648 OA
ATOM      3  C   UNL A   1      21.555  -1.761  34.197  1.00  0.00     0.129 C 
ATOM      4  C   UNL A   1      22.575  -1.702  35.321  1.00  0.00     0.168 C 
ENDROOT
TORSDOF 0
ENDMDL
MODEL 2
REMARK VINA RESULT:      -3.2      0.039      1.618
REMARK  0 active torsions:
REMARK  status: ('A' for Active; 'I' for Inactive)
ROOT
ATOM      1  O   UNL A   1      23.691  -1.176  34.983  1.00  0.00    -0.648 OA
ATOM      2  O   UNL A   1      22.228  -2.162  36.439  1.00  0.00    -0.648 OA
ATOM      3  C   UNL A   1      21.532  -1.741  34.237  1.00  0.00     0.129 C 
ATOM      4  C   UNL A   1      22.590  -1.687  35.327  1.00  0.00     0.168 C 
ENDROOT
TORSDOF 0
ENDMDL
MODEL 3
REMARK VINA RESULT:      -3.1      1.466      1.694
REMARK  0 active torsions:
REMARK  status: ('A' for Active; 'I' for Inactive)
ROOT
ATOM      1  O   UNL A   1      22.240  -2.252  36.654  1.00  0.00    -0.648 OA
ATOM      2  O   UNL A   1      21.018  -1.182  35.043  1.00  0.00    -0.648 OA
ATOM      3  C   UNL A   1      23.358  -1.204  34.870  1.00  0.00     0.129 C 
ATOM      4  C   UNL A   1      22.079  -1.584  35.595  1.00  0.00     0.168 C 
ENDROOT
TORSDOF 0
ENDMDL
MODEL 4
REMARK VINA RESULT:      -3.1      1.435      1.871
REMARK  0 active torsions:
REMARK  status: ('A' for Active; 'I' for Inactive)
ROOT
ATOM      1  O   UNL A   1      20.983  -1.228  35.039  1.00  0.00    -0.648 OA
ATOM      2  O   UNL A   1      22.296  -2.143  36.673  1.00  0.00    -0.648 OA
ATOM      3  C   UNL A   1      23.322  -1.218  34.776  1.00  0.00     0.129 C 
ATOM      4  C   UNL A   1      22.076  -1.563  35.574  1.00  0.00     0.168 C 
ENDROOT
TORSDOF 0
ENDMDL
MODEL 5
REMARK VINA RESULT:      -2.9      1.840      2.069
REMARK  0 active torsions:
REMARK  status: ('A' for Active; 'I' for Inactive)
ROOT
ATOM      1  O   UNL A   1      22.532  -3.309  34.528  1.00  0.00    -0.648 OA
ATOM      2  O   UNL A   1      21.238  -1.579  33.776  1.00  0.00    -0.648 OA
ATOM      3  C   UNL A   1      22.353  -1.356  35.829  1.00  0.00     0.129 C 
ATOM      4  C   UNL A   1      22.008  -2.163  34.589  1.00  0.00     0.168 C 
ENDROOT
TORSDOF 0
ENDMDL
MODEL 6
REMARK VINA RESULT:      -2.9      1.518      1.605
REMARK  0 active torsions:
REMARK  status: ('A' for Active; 'I' for Inactive)
ROOT
ATOM      1  O   UNL A   1      21.380  -1.239  35.359  1.00  0.00    -0.648 OA
ATOM      2  O   UNL A   1      22.560  -3.055  34.622  1.00  0.00    -0.648 OA
ATOM      3  C   UNL A   1      21.467  -1.695  33.052  1.00  0.00     0.129 C 
ATOM      4  C   UNL A   1      21.838  -2.028  34.487  1.00  0.00     0.168 C 
ENDROOT
TORSDOF 0
ENDMDL
MODEL 7
REMARK VINA RESULT:      -2.7      2.581      3.151
REMARK  0 active torsions:
REMARK  status: ('A' for Active; 'I' for Inactive)
ROOT
ATOM      1  O   UNL A   1      21.329  -1.166  32.004  1.00  0.00    -0.648 OA
ATOM      2  O   UNL A   1      21.150  -1.576  34.248  1.00  0.00    -0.648 OA
ATOM      3  C   UNL A   1      21.628  -3.360  32.799  1.00  0.00     0.129 C 
ATOM      4  C   UNL A   1      21.341  -1.888  33.039  1.00  0.00     0.168 C 
ENDROOT
TORSDOF 0
ENDMDL
MODEL 8
REMARK VINA RESULT:      -2.7      2.216      2.372
REMARK  0 active torsions:
REMARK  status: ('A' for Active; 'I' for Inactive)
ROOT
ATOM      1  O   UNL A   1      22.527  -2.731  34.941  1.00  0.00    -0.648 OA
ATOM      2  O   UNL A   1      21.952  -4.034  33.151  1.00  0.00    -0.648 OA
ATOM      3  C   UNL A   1      21.266  -1.790  33.191  1.00  0.00     0.129 C 
ATOM      4  C   UNL A   1      21.987  -2.967  33.825  1.00  0.00     0.168 C 
ENDROOT
TORSDOF 0
ENDMDL
MODEL 9
REMARK VINA RESULT:      -2.6      2.567      2.836
REMARK  0 active torsions:
REMARK  status: ('A' for Active; 'I' for Inactive)
ROOT
ATOM      1  O   UNL A   1      21.090  -2.083  33.035  1.00  0.00    -0.648 OA
ATOM      2  O   UNL A   1      22.454  -3.051  34.596  1.00  0.00    -0.648 OA
ATOM      3  C   UNL A   1      21.836  -4.289  32.700  1.00  0.00     0.129 C 
ATOM      4  C   UNL A   1      21.788  -3.014  33.524  1.00  0.00     0.168 C 
ENDROOT
TORSDOF 0
ENDMDL
