MODEL 1
REMARK VINA RESULT:      -3.1      0.000      0.000
REMARK  0 active torsions:
REMARK  status: ('A' for Active; 'I' for Inactive)
ROOT
ATOM      1  O   UNL A   1      13.233   6.402   6.984  1.00  0.00    -0.648 OA
ATOM      2  O   UNL A   1      12.614   4.310   7.673  1.00  0.00    -0.648 OA
ATOM      3  C   UNL A   1      12.420   6.106   9.172  1.00  0.00     0.129 C 
ATOM      4  C   UNL A   1      12.793   5.553   7.807  1.00  0.00     0.168 C 
ENDROOT
TORSDOF 0
ENDMDL
MODEL 2
REMARK VINA RESULT:      -3.1      1.455      1.944
REMARK  0 active torsions:
REMARK  status: ('A' for Active; 'I' for Inactive)
ROOT
ATOM      1  O   UNL A   1      11.868   6.720   8.625  1.00  0.00    -0.648 OA
ATOM      2  O   UNL A   1      13.320   6.543   6.867  1.00  0.00    -0.648 OA
ATOM      3  C   UNL A   1      12.527   4.584   7.889  1.00  0.00     0.129 C 
ATOM      4  C   UNL A   1      12.575   6.099   7.785  1.00  0.00     0.168 C 
ENDROOT
TORSDOF 0
ENDMDL
MODEL 3
REMARK VINA RESULT:      -3.1      0.014      1.618
REMARK  0 active torsions:
REMARK  status: ('A' for Active; 'I' for Inactive)
ROOT
ATOM      1  O   UNL A   1      12.626   4.314   7.661  1.00  0.00    -0.648 OA
ATOM      2  O   UNL A   1      13.238   6.412   6.986  1.00  0.00    -0.648 OA
ATOM      3  C   UNL A   1      12.407   6.113   9.161  1.00  0.00     0.129 C 
ATOM      4  C   UNL A   1      12.795   5.557   7.802  1.00  0.00     0.168 C 
ENDROOT
TORSDOF 0
ENDMDL
MODEL 4
REMARK VINA RESULT:      -2.9      1.200      1.595
REMARK  0 active torsions:
REMARK  status: ('A' for Active; 'I' for Inactive)
ROOT
ATOM      1  O   UNL A   1      14.199   5.792   8.770  1.00  0.00    -0.648 OA
ATOM      2  O   UNL A   1      13.106   6.227   6.808  1.00  0.00    -0.648 OA
ATOM      3  C   UNL A   1      11.938   6.441   8.833  1.00  0.00     0.129 C 
ATOM      4  C   UNL A   1      13.208   6.121   8.062  1.00  0.00     0.168 C 
ENDROOT
TORSDOF 0
ENDMDL
MODEL 5
REMARK VINA RESULT:      -2.8      1.587      1.765
REMARK  0 active torsions:
REMARK  status: ('A' for Active; 'I' for Inactive)
ROOT
ATOM      1  O   UNL A   1      13.274   6.026   7.536  1.00  0.00    -0.648 OA
ATOM      2  O   UNL A   1      14.689   6.019   9.334  1.00  0.00    -0.648 OA
ATOM      3  C   UNL A   1      12.377   5.859   9.704  1.00  0.00     0.129 C 
ATOM      4  C   UNL A   1      13.563   5.980   8.763  1.00  0.00     0.168 C 
ENDROOT
TORSDOF 0
ENDMDL
MODEL 6
REMARK VINA RESULT:      -2.7      2.586      3.186
REMARK  0 active torsions:
REMARK  status: ('A' for Active; 'I' for Inactive)
ROOT
ATOM      1  O   UNL A   1      11.481   5.343  11.128  1.00  0.00    -0.648 OA
ATOM      2  O   UNL A   1      11.992   6.571   9.266  1.00  0.00    -0.648 OA
ATOM      3  C   UNL A   1      13.700   6.049  10.788  1.00  0.00     0.129 C 
ATOM      4  C   UNL A   1      12.247   5.980  10.352  1.00  0.00     0.168 C 
ENDROOT
TORSDOF 0
ENDMDL
MODEL 7
REMARK VINA RESULT:      -2.7      2.558      2.811
REMARK  0 active torsions:
REMARK  status: ('A' for Active; 'I' for Inactive)
ROOT
ATOM      1  O   UNL A   1      11.988   6.574   9.236  1.00  0.00    -0.648 OA
ATOM      2  O   UNL A   1      11.503   5.334  11.096  1.00  0.00    -0.648 OA
ATOM      3  C   UNL A   1      13.709   6.061  10.756  1.00  0.00     0.129 C 
ATOM      4  C   UNL A   1      12.256   5.983  10.318  1.00  0.00     0.168 C 
ENDROOT
TORSDOF 0
ENDMDL
MODEL 8
REMARK VINA RESULT:      -2.6      2.307      2.456
REMARK  0 active torsions:
REMARK  status: ('A' for Active; 'I' for Inactive)
ROOT
ATOM      1  O   UNL A   1      13.919   5.746   8.536  1.00  0.00    -0.648 OA
ATOM      2  O   UNL A   1      12.289   6.288  10.047  1.00  0.00    -0.648 OA
ATOM      3  C   UNL A   1      14.523   6.209  10.762  1.00  0.00     0.129 C 
ATOM      4  C   UNL A   1      13.474   6.067   9.672  1.00  0.00     0.168 C 
ENDROOT
TORSDOF 0
ENDMDL
MODEL 9
REMARK VINA RESULT:      -2.6     12.095     12.540
REMARK  0 active torsions:
REMARK  status: ('A' for Active; 'I' for Inactive)
ROOT
ATOM      1  O   UNL A   1      18.835  11.455  18.660  1.00  0.00    -0.648 OA
ATOM      2  O   UNL A   1      17.013  11.543  17.278  1.00  0.00    -0.648 OA
ATOM      3  C   UNL A   1      18.898  10.321  16.599  1.00  0.00     0.129 C 
ATOM      4  C   UNL A   1      18.179  11.192  17.614  1.00  0.00     0.168 C 
ENDROOT
TORSDOF 0
ENDMDL
