MODEL 1
REMARK VINA RESULT:      -3.1      0.000      0.000
REMARK  0 active torsions:
REMARK  status: ('A' for Active; 'I' for Inactive)
ROOT
ATOM      1  O   UNL A   1      13.674   6.579   7.708  1.00  0.00    -0.648 OA
ATOM      2  O   UNL A   1      11.858   6.130   6.391  1.00  0.00    -0.648 OA
ATOM      3  C   UNL A   1      12.573   4.512   7.933  1.00  0.00     0.129 C 
ATOM      4  C   UNL A   1      12.717   5.875   7.280  1.00  0.00     0.168 C 
ENDROOT
TORSDOF 0
ENDMDL
MODEL 2
REMARK VINA RESULT:      -3.1      1.218      1.218
REMARK  0 active torsions:
REMARK  status: ('A' for Active; 'I' for Inactive)
ROOT
ATOM      1  O   UNL A   1      13.187   6.470   6.631  1.00  0.00    -0.648 OA
ATOM      2  O   UNL A   1      11.702   6.814   8.337  1.00  0.00    -0.648 OA
ATOM      3  C   UNL A   1      12.511   4.644   7.952  1.00  0.00     0.129 C 
ATOM      4  C   UNL A   1      12.463   6.122   7.604  1.00  0.00     0.168 C 
ENDROOT
TORSDOF 0
ENDMDL
MODEL 3
REMARK VINA RESULT:      -3.1      1.150      1.323
REMARK  0 active torsions:
REMARK  status: ('A' for Active; 'I' for Inactive)
ROOT
ATOM      1  O   UNL A   1      11.861   6.718   8.613  1.00  0.00    -0.648 OA
ATOM      2  O   UNL A   1      13.325   6.549   6.863  1.00  0.00    -0.648 OA
ATOM      3  C   UNL A   1      12.525   4.586   7.871  1.00  0.00     0.129 C 
ATOM      4  C   UNL A   1      12.574   6.101   7.774  1.00  0.00     0.168 C 
ENDROOT
TORSDOF 0
ENDMDL
MODEL 4
REMARK VINA RESULT:      -3.1      1.610      1.638
REMARK  0 active torsions:
REMARK  status: ('A' for Active; 'I' for Inactive)
ROOT
ATOM      1  O   UNL A   1      13.238   6.411   6.993  1.00  0.00    -0.648 OA
ATOM      2  O   UNL A   1      12.616   4.317   7.672  1.00  0.00    -0.648 OA
ATOM      3  C   UNL A   1      12.420   6.107   9.178  1.00  0.00     0.129 C 
ATOM      4  C   UNL A   1      12.795   5.559   7.812  1.00  0.00     0.168 C 
ENDROOT
TORSDOF 0
ENDMDL
MODEL 5
REMARK VINA RESULT:      -3.1      1.607      1.808
REMARK  0 active torsions:
REMARK  status: ('A' for Active; 'I' for Inactive)
ROOT
ATOM      1  O   UNL A   1      12.624   4.316   7.664  1.00  0.00    -0.648 OA
ATOM      2  O   UNL A   1      13.239   6.415   6.994  1.00  0.00    -0.648 OA
ATOM      3  C   UNL A   1      12.418   6.111   9.172  1.00  0.00     0.129 C 
ATOM      4  C   UNL A   1      12.798   5.558   7.809  1.00  0.00     0.168 C 
ENDROOT
TORSDOF 0
ENDMDL
MODEL 6
REMARK VINA RESULT:      -2.9      1.552      1.795
REMARK  0 active torsions:
REMARK  status: ('A' for Active; 'I' for Inactive)
ROOT
ATOM      1  O   UNL A   1      14.106   5.788   8.632  1.00  0.00    -0.648 OA
ATOM      2  O   UNL A   1      12.693   4.242   7.713  1.00  0.00    -0.648 OA
ATOM      3  C   UNL A   1      12.077   6.506   7.680  1.00  0.00     0.129 C 
ATOM      4  C   UNL A   1      13.057   5.404   8.045  1.00  0.00     0.168 C 
ENDROOT
TORSDOF 0
ENDMDL
MODEL 7
REMARK VINA RESULT:      -2.7      3.292      3.466
REMARK  0 active torsions:
REMARK  status: ('A' for Active; 'I' for Inactive)
ROOT
ATOM      1  O   UNL A   1      11.537   5.425  11.212  1.00  0.00    -0.648 OA
ATOM      2  O   UNL A   1      11.975   6.582   9.288  1.00  0.00    -0.648 OA
ATOM      3  C   UNL A   1      13.754   6.039  10.719  1.00  0.00     0.129 C 
ATOM      4  C   UNL A   1      12.275   6.012  10.373  1.00  0.00     0.168 C 
ENDROOT
TORSDOF 0
ENDMDL
MODEL 8
REMARK VINA RESULT:      -2.6      2.743      3.090
REMARK  0 active torsions:
REMARK  status: ('A' for Active; 'I' for Inactive)
ROOT
ATOM      1  O   UNL A   1      12.223   6.318   9.991  1.00  0.00    -0.648 OA
ATOM      2  O   UNL A   1      13.969   5.778   8.616  1.00  0.00    -0.648 OA
ATOM      3  C   UNL A   1      14.391   6.164  10.892  1.00  0.00     0.129 C 
ATOM      4  C   UNL A   1      13.431   6.078   9.718  1.00  0.00     0.168 C 
ENDROOT
TORSDOF 0
ENDMDL
MODEL 9
REMARK VINA RESULT:      -2.6     12.320     12.926
REMARK  0 active torsions:
REMARK  status: ('A' for Active; 'I' for Inactive)
ROOT
ATOM      1  O   UNL A   1      16.975  11.510  17.307  1.00  0.00    -0.648 OA
ATOM      2  O   UNL A   1      18.824  11.471  18.653  1.00  0.00    -0.648 OA
ATOM      3  C   UNL A   1      18.886  10.330  16.603  1.00  0.00     0.129 C 
ATOM      4  C   UNL A   1      18.155  11.189  17.621  1.00  0.00     0.168 C 
ENDROOT
TORSDOF 0
ENDMDL
