MODEL 1
REMARK VINA RESULT:      -3.1      0.000      0.000
REMARK  0 active torsions:
REMARK  status: ('A' for Active; 'I' for Inactive)
ROOT
ATOM      1  O   UNL A   1      13.203   6.487   6.644  1.00  0.00    -0.648 OA
ATOM      2  O   UNL A   1      11.719   6.820   8.353  1.00  0.00    -0.648 OA
ATOM      3  C   UNL A   1      12.515   4.650   7.943  1.00  0.00     0.129 C 
ATOM      4  C   UNL A   1      12.476   6.132   7.613  1.00  0.00     0.168 C 
ENDROOT
TORSDOF 0
ENDMDL
MODEL 2
REMARK VINA RESULT:      -3.1      1.510      1.906
REMARK  0 active torsions:
REMARK  status: ('A' for Active; 'I' for Inactive)
ROOT
ATOM      1  O   UNL A   1      12.624   4.317   7.664  1.00  0.00    -0.648 OA
ATOM      2  O   UNL A   1      13.239   6.416   6.994  1.00  0.00    -0.648 OA
ATOM      3  C   UNL A   1      12.418   6.111   9.172  1.00  0.00     0.129 C 
ATOM      4  C   UNL A   1      12.798   5.558   7.809  1.00  0.00     0.168 C 
ENDROOT
TORSDOF 0
ENDMDL
MODEL 3
REMARK VINA RESULT:      -3.1      1.515      1.718
REMARK  0 active torsions:
REMARK  status: ('A' for Active; 'I' for Inactive)
ROOT
ATOM      1  O   UNL A   1      13.236   6.404   6.989  1.00  0.00    -0.648 OA
ATOM      2  O   UNL A   1      12.615   4.312   7.674  1.00  0.00    -0.648 OA
ATOM      3  C   UNL A   1      12.421   6.106   9.176  1.00  0.00     0.129 C 
ATOM      4  C   UNL A   1      12.795   5.554   7.811  1.00  0.00     0.168 C 
ENDROOT
TORSDOF 0
ENDMDL
MODEL 4
REMARK VINA RESULT:      -3.1      0.262      1.635
REMARK  0 active torsions:
REMARK  status: ('A' for Active; 'I' for Inactive)
ROOT
ATOM      1  O   UNL A   1      11.878   6.700   8.656  1.00  0.00    -0.648 OA
ATOM      2  O   UNL A   1      13.329   6.567   6.891  1.00  0.00    -0.648 OA
ATOM      3  C   UNL A   1      12.545   4.584   7.872  1.00  0.00     0.129 C 
ATOM      4  C   UNL A   1      12.587   6.101   7.800  1.00  0.00     0.168 C 
ENDROOT
TORSDOF 0
ENDMDL
MODEL 5
REMARK VINA RESULT:      -2.9      1.535      1.602
REMARK  0 active torsions:
REMARK  status: ('A' for Active; 'I' for Inactive)
ROOT
ATOM      1  O   UNL A   1      14.059   5.777   8.599  1.00  0.00    -0.648 OA
ATOM      2  O   UNL A   1      12.045   6.382   9.499  1.00  0.00    -0.648 OA
ATOM      3  C   UNL A   1      12.195   6.023   7.184  1.00  0.00     0.129 C 
ATOM      4  C   UNL A   1      12.831   6.064   8.563  1.00  0.00     0.168 C 
ENDROOT
TORSDOF 0
ENDMDL
MODEL 6
REMARK VINA RESULT:      -2.7      2.728      3.042
REMARK  0 active torsions:
REMARK  status: ('A' for Active; 'I' for Inactive)
ROOT
ATOM      1  O   UNL A   1      11.987   6.536   9.236  1.00  0.00    -0.648 OA
ATOM      2  O   UNL A   1      11.500   5.344  11.127  1.00  0.00    -0.648 OA
ATOM      3  C   UNL A   1      13.705   6.066  10.773  1.00  0.00     0.129 C 
ATOM      4  C   UNL A   1      12.254   5.974  10.334  1.00  0.00     0.168 C 
ENDROOT
TORSDOF 0
ENDMDL
MODEL 7
REMARK VINA RESULT:      -2.6      2.699      2.740
REMARK  0 active torsions:
REMARK  status: ('A' for Active; 'I' for Inactive)
ROOT
ATOM      1  O   UNL A   1      13.866   5.767   8.446  1.00  0.00    -0.648 OA
ATOM      2  O   UNL A   1      14.490   6.158  10.612  1.00  0.00    -0.648 OA
ATOM      3  C   UNL A   1      12.209   6.194  10.061  1.00  0.00     0.129 C 
ATOM      4  C   UNL A   1      13.666   6.022   9.666  1.00  0.00     0.168 C 
ENDROOT
TORSDOF 0
ENDMDL
MODEL 8
REMARK VINA RESULT:      -2.6     12.311     12.620
REMARK  0 active torsions:
REMARK  status: ('A' for Active; 'I' for Inactive)
ROOT
ATOM      1  O   UNL A   1      18.834  11.446  18.668  1.00  0.00    -0.648 OA
ATOM      2  O   UNL A   1      17.000  11.514  17.303  1.00  0.00    -0.648 OA
ATOM      3  C   UNL A   1      18.899  10.327  16.599  1.00  0.00     0.129 C 
ATOM      4  C   UNL A   1      18.174  11.180  17.626  1.00  0.00     0.168 C 
ENDROOT
TORSDOF 0
ENDMDL
MODEL 9
REMARK VINA RESULT:      -2.6      4.172      4.320
REMARK  0 active torsions:
REMARK  status: ('A' for Active; 'I' for Inactive)
ROOT
ATOM      1  O   UNL A   1      14.497   6.091   9.301  1.00  0.00    -0.648 OA
ATOM      2  O   UNL A   1      16.697   5.997   9.921  1.00  0.00    -0.648 OA
ATOM      3  C   UNL A   1      15.068   6.403  11.562  1.00  0.00     0.129 C 
ATOM      4  C   UNL A   1      15.457   6.137  10.118  1.00  0.00     0.168 C 
ENDROOT
TORSDOF 0
ENDMDL
