MODEL 1
REMARK VINA RESULT:      -6.7      0.000      0.000
REMARK  7 active torsions:
REMARK  status: ('A' for Active; 'I' for Inactive)
REMARK    1  A    between atoms: O_1  and  C_2 
REMARK    2  A    between atoms: C_2  and  C_3 
REMARK    3  A    between atoms: C_2  and  C_8 
REMARK    4  A    between atoms: C_3  and  C_4 
REMARK    5  A    between atoms: C_4  and  C_5 
REMARK    6  A    between atoms: C_8  and  C_9 
REMARK    7  A    between atoms: C_11  and  O_15 
ROOT
HETATM    1  O   UNL     1      31.480  76.991  23.157  1.00  0.00    -0.395 OA
HETATM    2  H   UNL     1      31.388  77.883  23.526  1.00  0.00     0.210 HD
ENDROOT
BRANCH   1   3
HETATM    3  C   UNL     1      31.077  77.000  21.788  1.00  0.00     0.122 C 
BRANCH   3   4
HETATM    4  C   UNL     1      30.611  78.410  21.390  1.00  0.00     0.042 C 
BRANCH   4   5
HETATM    5  C   UNL     1      30.599  79.398  22.559  1.00  0.00     0.116 C 
BRANCH   5   6
HETATM    6  C   UNL     1      31.825  80.263  22.705  1.00  0.00     0.172 C 
HETATM    7  O   UNL     1      31.928  81.412  22.305  1.00  0.00    -0.648 OA
HETATM    8  O   UNL     1      32.891  79.643  23.248  1.00  0.00    -0.648 OA
ENDBRANCH   5   6
ENDBRANCH   4   5
ENDBRANCH   3   4
BRANCH   3   9
HETATM    9  C   UNL     1      32.248  76.541  20.897  1.00  0.00     0.070 C 
BRANCH   9  10
HETATM   10  C   UNL     1      31.981  76.731  19.419  1.00  0.00    -0.053 A 
HETATM   11  C   UNL     1      32.459  77.869  18.750  1.00  0.00     0.043 A 
HETATM   12  C   UNL     1      32.210  78.031  17.389  1.00  0.00     0.066 A 
HETATM   13  C   UNL     1      31.489  77.080  16.677  1.00  0.00     0.036 A 
HETATM   14  C   UNL     1      31.010  75.949  17.332  1.00  0.00     0.003 A 
HETATM   15  C   UNL     1      31.255  75.775  18.696  1.00  0.00     0.007 A 
BRANCH  12  16
HETATM   16  O   UNL     1      32.661  79.124  16.709  1.00  0.00    -0.361 OA
HETATM   17  H   UNL     1      33.226  79.016  15.970  1.00  0.00     0.217 HD
ENDBRANCH  12  16
ENDBRANCH   9  10
ENDBRANCH   3   9
ENDBRANCH   1   3
TORSDOF 7
ENDMDL
MODEL 2
REMARK VINA RESULT:      -6.6      1.291      1.649
REMARK  7 active torsions:
REMARK  status: ('A' for Active; 'I' for Inactive)
REMARK    1  A    between atoms: O_1  and  C_2 
REMARK    2  A    between atoms: C_2  and  C_3 
REMARK    3  A    between atoms: C_2  and  C_8 
REMARK    4  A    between atoms: C_3  and  C_4 
REMARK    5  A    between atoms: C_4  and  C_5 
REMARK    6  A    between atoms: C_8  and  C_9 
REMARK    7  A    between atoms: C_11  and  O_15 
ROOT
HETATM    1  O   UNL     1      31.831  76.385  23.638  1.00  0.00    -0.395 OA
HETATM    2  H   UNL     1      31.184  76.505  24.350  1.00  0.00     0.210 HD
ENDROOT
BRANCH   1   3
HETATM    3  C   UNL     1      31.212  76.660  22.382  1.00  0.00     0.122 C 
BRANCH   3   4
HETATM    4  C   UNL     1      30.469  78.004  22.450  1.00  0.00     0.042 C 
BRANCH   4   5
HETATM    5  C   UNL     1      31.194  79.137  21.721  1.00  0.00     0.116 C 
BRANCH   5   6
HETATM    6  C   UNL     1      31.994  80.074  22.590  1.00  0.00     0.172 C 
HETATM    7  O   UNL     1      31.854  81.286  22.634  1.00  0.00    -0.648 OA
HETATM    8  O   UNL     1      32.987  79.487  23.287  1.00  0.00    -0.648 OA
ENDBRANCH   5   6
ENDBRANCH   4   5
ENDBRANCH   3   4
BRANCH   3   9
HETATM    9  C   UNL     1      32.279  76.683  21.269  1.00  0.00     0.070 C 
BRANCH   9  10
HETATM   10  C   UNL     1      31.847  75.952  20.016  1.00  0.00    -0.053 A 
HETATM   11  C   UNL     1      31.453  76.667  18.874  1.00  0.00     0.043 A 
HETATM   12  C   UNL     1      31.061  75.982  17.725  1.00  0.00     0.066 A 
HETATM   13  C   UNL     1      31.050  74.593  17.691  1.00  0.00     0.036 A 
HETATM   14  C   UNL     1      31.438  73.874  18.820  1.00  0.00     0.003 A 
HETATM   15  C   UNL     1      31.835  74.550  19.976  1.00  0.00     0.007 A 
BRANCH  12  16
HETATM   16  O   UNL     1      30.674  76.646  16.599  1.00  0.00    -0.361 OA
HETATM   17  H   UNL     1      31.195  77.352  16.270  1.00  0.00     0.217 HD
ENDBRANCH  12  16
ENDBRANCH   9  10
ENDBRANCH   3   9
ENDBRANCH   1   3
TORSDOF 7
ENDMDL
MODEL 3
REMARK VINA RESULT:      -6.5      2.906      4.205
REMARK  7 active torsions:
REMARK  status: ('A' for Active; 'I' for Inactive)
REMARK    1  A    between atoms: O_1  and  C_2 
REMARK    2  A    between atoms: C_2  and  C_3 
REMARK    3  A    between atoms: C_2  and  C_8 
REMARK    4  A    between atoms: C_3  and  C_4 
REMARK    5  A    between atoms: C_4  and  C_5 
REMARK    6  A    between atoms: C_8  and  C_9 
REMARK    7  A    between atoms: C_11  and  O_15 
ROOT
HETATM    1  O   UNL     1      30.855  76.834  23.283  1.00  0.00    -0.395 OA
HETATM    2  H   UNL     1      30.063  77.339  23.044  1.00  0.00     0.210 HD
ENDROOT
BRANCH   1   3
HETATM    3  C   UNL     1      31.583  76.502  22.101  1.00  0.00     0.122 C 
BRANCH   3   4
HETATM    4  C   UNL     1      31.767  77.758  21.233  1.00  0.00     0.042 C 
BRANCH   4   5
HETATM    5  C   UNL     1      31.078  78.998  21.805  1.00  0.00     0.116 C 
BRANCH   5   6
HETATM    6  C   UNL     1      31.970  79.973  22.530  1.00  0.00     0.172 C 
HETATM    7  O   UNL     1      31.892  81.189  22.455  1.00  0.00    -0.648 OA
HETATM    8  O   UNL     1      32.970  79.407  23.234  1.00  0.00    -0.648 OA
ENDBRANCH   5   6
ENDBRANCH   4   5
ENDBRANCH   3   4
BRANCH   3   9
HETATM    9  C   UNL     1      32.949  75.898  22.483  1.00  0.00     0.070 C 
BRANCH   9  10
HETATM   10  C   UNL     1      33.297  74.661  21.682  1.00  0.00    -0.053 A 
HETATM   11  C   UNL     1      33.801  73.518  22.322  1.00  0.00     0.043 A 
HETATM   12  C   UNL     1      34.115  72.385  21.573  1.00  0.00     0.066 A 
HETATM   13  C   UNL     1      33.937  72.367  20.195  1.00  0.00     0.036 A 
HETATM   14  C   UNL     1      33.438  73.497  19.552  1.00  0.00     0.003 A 
HETATM   15  C   UNL     1      33.119  74.638  20.291  1.00  0.00     0.007 A 
BRANCH  12  16
HETATM   16  O   UNL     1      34.605  71.258  22.163  1.00  0.00    -0.361 OA
HETATM   17  H   UNL     1      34.189  70.432  22.015  1.00  0.00     0.217 HD
ENDBRANCH  12  16
ENDBRANCH   9  10
ENDBRANCH   3   9
ENDBRANCH   1   3
TORSDOF 7
ENDMDL
MODEL 4
REMARK VINA RESULT:      -6.4      1.349      1.543
REMARK  7 active torsions:
REMARK  status: ('A' for Active; 'I' for Inactive)
REMARK    1  A    between atoms: O_1  and  C_2 
REMARK    2  A    between atoms: C_2  and  C_3 
REMARK    3  A    between atoms: C_2  and  C_8 
REMARK    4  A    between atoms: C_3  and  C_4 
REMARK    5  A    between atoms: C_4  and  C_5 
REMARK    6  A    between atoms: C_8  and  C_9 
REMARK    7  A    between atoms: C_11  and  O_15 
ROOT
HETATM    1  O   UNL     1      31.323  75.245  21.594  1.00  0.00    -0.395 OA
HETATM    2  H   UNL     1      30.385  75.022  21.707  1.00  0.00     0.210 HD
ENDROOT
BRANCH   1   3
HETATM    3  C   UNL     1      31.437  76.480  20.889  1.00  0.00     0.122 C 
BRANCH   3   4
HETATM    4  C   UNL     1      32.100  77.535  21.788  1.00  0.00     0.042 C 
BRANCH   4   5
HETATM    5  C   UNL     1      31.370  78.881  21.786  1.00  0.00     0.116 C 
BRANCH   5   6
HETATM    6  C   UNL     1      32.072  80.013  22.489  1.00  0.00     0.172 C 
HETATM    7  O   UNL     1      31.902  81.200  22.259  1.00  0.00    -0.648 OA
HETATM    8  O   UNL     1      33.016  79.630  23.372  1.00  0.00    -0.648 OA
ENDBRANCH   5   6
ENDBRANCH   4   5
ENDBRANCH   3   4
BRANCH   3   9
HETATM    9  C   UNL     1      32.256  76.270  19.600  1.00  0.00     0.070 C 
BRANCH   9  10
HETATM   10  C   UNL     1      31.470  76.565  18.340  1.00  0.00    -0.053 A 
HETATM   11  C   UNL     1      30.976  77.856  18.095  1.00  0.00     0.043 A 
HETATM   12  C   UNL     1      30.256  78.115  16.930  1.00  0.00     0.066 A 
HETATM   13  C   UNL     1      30.015  77.110  16.001  1.00  0.00     0.036 A 
HETATM   14  C   UNL     1      30.500  75.825  16.236  1.00  0.00     0.003 A 
HETATM   15  C   UNL     1      31.224  75.554  17.399  1.00  0.00     0.007 A 
BRANCH  12  16
HETATM   16  O   UNL     1      29.764  79.358  16.660  1.00  0.00    -0.361 OA
HETATM   17  H   UNL     1      30.351  80.080  16.549  1.00  0.00     0.217 HD
ENDBRANCH  12  16
ENDBRANCH   9  10
ENDBRANCH   3   9
ENDBRANCH   1   3
TORSDOF 7
ENDMDL
MODEL 5
REMARK VINA RESULT:      -6.4      2.533      5.612
REMARK  7 active torsions:
REMARK  status: ('A' for Active; 'I' for Inactive)
REMARK    1  A    between atoms: O_1  and  C_2 
REMARK    2  A    between atoms: C_2  and  C_3 
REMARK    3  A    between atoms: C_2  and  C_8 
REMARK    4  A    between atoms: C_3  and  C_4 
REMARK    5  A    between atoms: C_4  and  C_5 
REMARK    6  A    between atoms: C_8  and  C_9 
REMARK    7  A    between atoms: C_11  and  O_15 
ROOT
HETATM    1  O   UNL     1      30.665  78.858  19.942  1.00  0.00    -0.395 OA
HETATM    2  H   UNL     1      30.889  79.040  20.868  1.00  0.00     0.210 HD
ENDROOT
BRANCH   1   3
HETATM    3  C   UNL     1      31.055  77.526  19.612  1.00  0.00     0.122 C 
BRANCH   3   4
HETATM    4  C   UNL     1      31.752  77.511  18.241  1.00  0.00     0.042 C 
BRANCH   4   5
HETATM    5  C   UNL     1      30.835  77.069  17.098  1.00  0.00     0.116 C 
BRANCH   5   6
HETATM    6  C   UNL     1      30.094  78.169  16.384  1.00  0.00     0.172 C 
HETATM    7  O   UNL     1      29.878  79.283  16.836  1.00  0.00    -0.648 OA
HETATM    8  O   UNL     1      29.575  77.817  15.191  1.00  0.00    -0.648 OA
ENDBRANCH   5   6
ENDBRANCH   4   5
ENDBRANCH   3   4
BRANCH   3   9
HETATM    9  C   UNL     1      31.990  76.970  20.704  1.00  0.00     0.070 C 
BRANCH   9  10
HETATM   10  C   UNL     1      31.495  75.673  21.307  1.00  0.00    -0.053 A 
HETATM   11  C   UNL     1      30.976  75.646  22.610  1.00  0.00     0.043 A 
HETATM   12  C   UNL     1      30.521  74.445  23.153  1.00  0.00     0.066 A 
HETATM   13  C   UNL     1      30.575  73.265  22.421  1.00  0.00     0.036 A 
HETATM   14  C   UNL     1      31.090  73.282  21.127  1.00  0.00     0.003 A 
HETATM   15  C   UNL     1      31.547  74.479  20.573  1.00  0.00     0.007 A 
BRANCH  12  16
HETATM   16  O   UNL     1      30.009  74.384  24.415  1.00  0.00    -0.361 OA
HETATM   17  H   UNL     1      29.131  74.666  24.579  1.00  0.00     0.217 HD
ENDBRANCH  12  16
ENDBRANCH   9  10
ENDBRANCH   3   9
ENDBRANCH   1   3
TORSDOF 7
ENDMDL
MODEL 6
REMARK VINA RESULT:      -6.3      3.150      4.684
REMARK  7 active torsions:
REMARK  status: ('A' for Active; 'I' for Inactive)
REMARK    1  A    between atoms: O_1  and  C_2 
REMARK    2  A    between atoms: C_2  and  C_3 
REMARK    3  A    between atoms: C_2  and  C_8 
REMARK    4  A    between atoms: C_3  and  C_4 
REMARK    5  A    between atoms: C_4  and  C_5 
REMARK    6  A    between atoms: C_8  and  C_9 
REMARK    7  A    between atoms: C_11  and  O_15 
ROOT
HETATM    1  O   UNL     1      32.082  76.818  23.242  1.00  0.00    -0.395 OA
HETATM    2  H   UNL     1      31.308  76.837  23.827  1.00  0.00     0.210 HD
ENDROOT
BRANCH   1   3
HETATM    3  C   UNL     1      31.653  76.623  21.894  1.00  0.00     0.122 C 
BRANCH   3   4
HETATM    4  C   UNL     1      31.607  77.973  21.161  1.00  0.00     0.042 C 
BRANCH   4   5
HETATM    5  C   UNL     1      30.995  79.099  21.998  1.00  0.00     0.116 C 
BRANCH   5   6
HETATM    6  C   UNL     1      31.960  80.134  22.517  1.00  0.00     0.172 C 
HETATM    7  O   UNL     1      31.958  81.316  22.209  1.00  0.00    -0.648 OA
HETATM    8  O   UNL     1      32.934  79.649  23.312  1.00  0.00    -0.648 OA
ENDBRANCH   5   6
ENDBRANCH   4   5
ENDBRANCH   3   4
BRANCH   3   9
HETATM    9  C   UNL     1      32.609  75.647  21.180  1.00  0.00     0.070 C 
BRANCH   9  10
HETATM   10  C   UNL     1      32.551  74.241  21.738  1.00  0.00    -0.053 A 
HETATM   11  C   UNL     1      33.682  73.412  21.699  1.00  0.00     0.043 A 
HETATM   12  C   UNL     1      33.616  72.121  22.220  1.00  0.00     0.066 A 
HETATM   13  C   UNL     1      32.441  71.635  22.779  1.00  0.00     0.036 A 
HETATM   14  C   UNL     1      31.312  72.451  22.822  1.00  0.00     0.003 A 
HETATM   15  C   UNL     1      31.367  73.747  22.305  1.00  0.00     0.007 A 
BRANCH  12  16
HETATM   16  O   UNL     1      34.698  71.290  22.198  1.00  0.00    -0.361 OA
HETATM   17  H   UNL     1      35.420  71.476  21.632  1.00  0.00     0.217 HD
ENDBRANCH  12  16
ENDBRANCH   9  10
ENDBRANCH   3   9
ENDBRANCH   1   3
TORSDOF 7
ENDMDL
MODEL 7
REMARK VINA RESULT:      -6.2      2.764      4.373
REMARK  7 active torsions:
REMARK  status: ('A' for Active; 'I' for Inactive)
REMARK    1  A    between atoms: O_1  and  C_2 
REMARK    2  A    between atoms: C_2  and  C_3 
REMARK    3  A    between atoms: C_2  and  C_8 
REMARK    4  A    between atoms: C_3  and  C_4 
REMARK    5  A    between atoms: C_4  and  C_5 
REMARK    6  A    between atoms: C_8  and  C_9 
REMARK    7  A    between atoms: C_11  and  O_15 
ROOT
HETATM    1  O   UNL     1      32.283  76.776  23.312  1.00  0.00    -0.395 OA
HETATM    2  H   UNL     1      33.041  76.332  22.901  1.00  0.00     0.210 HD
ENDROOT
BRANCH   1   3
HETATM    3  C   UNL     1      31.150  76.678  22.450  1.00  0.00     0.122 C 
BRANCH   3   4
HETATM    4  C   UNL     1      30.516  78.066  22.262  1.00  0.00     0.042 C 
BRANCH   4   5
HETATM    5  C   UNL     1      31.451  79.075  21.591  1.00  0.00     0.116 C 
BRANCH   5   6
HETATM    6  C   UNL     1      32.203  79.995  22.518  1.00  0.00     0.172 C 
HETATM    7  O   UNL     1      33.005  79.639  23.367  1.00  0.00    -0.648 OA
HETATM    8  O   UNL     1      31.861  81.296  22.421  1.00  0.00    -0.648 OA
ENDBRANCH   5   6
ENDBRANCH   4   5
ENDBRANCH   3   4
BRANCH   3   9
HETATM    9  C   UNL     1      31.577  76.086  21.093  1.00  0.00     0.070 C 
BRANCH   9  10
HETATM   10  C   UNL     1      32.362  74.798  21.226  1.00  0.00    -0.053 A 
HETATM   11  C   UNL     1      32.070  73.890  22.256  1.00  0.00     0.043 A 
HETATM   12  C   UNL     1      32.798  72.706  22.366  1.00  0.00     0.066 A 
HETATM   13  C   UNL     1      33.815  72.408  21.468  1.00  0.00     0.036 A 
HETATM   14  C   UNL     1      34.113  73.303  20.444  1.00  0.00     0.003 A 
HETATM   15  C   UNL     1      33.390  74.491  20.323  1.00  0.00     0.007 A 
BRANCH  12  16
HETATM   16  O   UNL     1      32.539  71.802  23.353  1.00  0.00    -0.361 OA
HETATM   17  H   UNL     1      31.709  71.809  23.789  1.00  0.00     0.217 HD
ENDBRANCH  12  16
ENDBRANCH   9  10
ENDBRANCH   3   9
ENDBRANCH   1   3
TORSDOF 7
ENDMDL
MODEL 8
REMARK VINA RESULT:      -6.1      3.389      5.050
REMARK  7 active torsions:
REMARK  status: ('A' for Active; 'I' for Inactive)
REMARK    1  A    between atoms: O_1  and  C_2 
REMARK    2  A    between atoms: C_2  and  C_3 
REMARK    3  A    between atoms: C_2  and  C_8 
REMARK    4  A    between atoms: C_3  and  C_4 
REMARK    5  A    between atoms: C_4  and  C_5 
REMARK    6  A    between atoms: C_8  and  C_9 
REMARK    7  A    between atoms: C_11  and  O_15 
ROOT
HETATM    1  O   UNL     1      31.467  75.869  24.069  1.00  0.00    -0.395 OA
HETATM    2  H   UNL     1      30.557  76.128  24.285  1.00  0.00     0.210 HD
ENDROOT
BRANCH   1   3
HETATM    3  C   UNL     1      31.644  75.893  22.653  1.00  0.00     0.122 C 
BRANCH   3   4
HETATM    4  C   UNL     1      31.077  77.201  22.079  1.00  0.00     0.042 C 
BRANCH   4   5
HETATM    5  C   UNL     1      31.767  77.647  20.788  1.00  0.00     0.116 C 
BRANCH   5   6
HETATM    6  C   UNL     1      31.002  77.403  19.512  1.00  0.00     0.172 C 
HETATM    7  O   UNL     1      30.977  76.349  18.897  1.00  0.00    -0.648 OA
HETATM    8  O   UNL     1      30.385  78.490  19.008  1.00  0.00    -0.648 OA
ENDBRANCH   5   6
ENDBRANCH   4   5
ENDBRANCH   3   4
BRANCH   3   9
HETATM    9  C   UNL     1      33.141  75.753  22.314  1.00  0.00     0.070 C 
BRANCH   9  10
HETATM   10  C   UNL     1      33.475  74.448  21.622  1.00  0.00    -0.053 A 
HETATM   11  C   UNL     1      33.846  73.320  22.369  1.00  0.00     0.043 A 
HETATM   12  C   UNL     1      34.148  72.124  21.719  1.00  0.00     0.066 A 
HETATM   13  C   UNL     1      34.088  72.029  20.335  1.00  0.00     0.036 A 
HETATM   14  C   UNL     1      33.721  73.144  19.584  1.00  0.00     0.003 A 
HETATM   15  C   UNL     1      33.415  74.347  20.224  1.00  0.00     0.007 A 
BRANCH  12  16
HETATM   16  O   UNL     1      34.511  71.010  22.416  1.00  0.00    -0.361 OA
HETATM   17  H   UNL     1      35.393  70.912  22.717  1.00  0.00     0.217 HD
ENDBRANCH  12  16
ENDBRANCH   9  10
ENDBRANCH   3   9
ENDBRANCH   1   3
TORSDOF 7
ENDMDL
MODEL 9
REMARK VINA RESULT:      -6.1      3.018      5.156
REMARK  7 active torsions:
REMARK  status: ('A' for Active; 'I' for Inactive)
REMARK    1  A    between atoms: O_1  and  C_2 
REMARK    2  A    between atoms: C_2  and  C_3 
REMARK    3  A    between atoms: C_2  and  C_8 
REMARK    4  A    between atoms: C_3  and  C_4 
REMARK    5  A    between atoms: C_4  and  C_5 
REMARK    6  A    between atoms: C_8  and  C_9 
REMARK    7  A    between atoms: C_11  and  O_15 
ROOT
HETATM    1  O   UNL     1      30.377  77.747  23.246  1.00  0.00    -0.395 OA
HETATM    2  H   UNL     1      29.449  77.960  23.060  1.00  0.00     0.210 HD
ENDROOT
BRANCH   1   3
HETATM    3  C   UNL     1      31.004  77.273  22.055  1.00  0.00     0.122 C 
BRANCH   3   4
HETATM    4  C   UNL     1      31.240  78.445  21.088  1.00  0.00     0.042 C 
BRANCH   4   5
HETATM    5  C   UNL     1      31.925  78.029  19.785  1.00  0.00     0.116 C 
BRANCH   5   6
HETATM    6  C   UNL     1      31.041  77.377  18.754  1.00  0.00     0.172 C 
HETATM    7  O   UNL     1      30.944  76.174  18.567  1.00  0.00    -0.648 OA
HETATM    8  O   UNL     1      30.392  78.236  17.942  1.00  0.00    -0.648 OA
ENDBRANCH   5   6
ENDBRANCH   4   5
ENDBRANCH   3   4
BRANCH   3   9
HETATM    9  C   UNL     1      32.335  76.580  22.407  1.00  0.00     0.070 C 
BRANCH   9  10
HETATM   10  C   UNL     1      32.240  75.070  22.399  1.00  0.00    -0.053 A 
HETATM   11  C   UNL     1      33.397  74.284  22.288  1.00  0.00     0.043 A 
HETATM   12  C   UNL     1      33.296  72.893  22.284  1.00  0.00     0.066 A 
HETATM   13  C   UNL     1      32.060  72.267  22.389  1.00  0.00     0.036 A 
HETATM   14  C   UNL     1      30.906  73.039  22.499  1.00  0.00     0.003 A 
HETATM   15  C   UNL     1      30.995  74.432  22.505  1.00  0.00     0.007 A 
BRANCH  12  16
HETATM   16  O   UNL     1      34.401  72.101  22.179  1.00  0.00    -0.361 OA
HETATM   17  H   UNL     1      35.171  72.424  21.755  1.00  0.00     0.217 HD
ENDBRANCH  12  16
ENDBRANCH   9  10
ENDBRANCH   3   9
ENDBRANCH   1   3
TORSDOF 7
ENDMDL
