MODEL 1
REMARK VINA RESULT:      -6.6      0.000      0.000
REMARK  7 active torsions:
REMARK  status: ('A' for Active; 'I' for Inactive)
REMARK    1  A    between atoms: O_1  and  C_2 
REMARK    2  A    between atoms: C_2  and  C_3 
REMARK    3  A    between atoms: C_2  and  C_8 
REMARK    4  A    between atoms: C_3  and  C_4 
REMARK    5  A    between atoms: C_4  and  C_5 
REMARK    6  A    between atoms: C_8  and  C_9 
REMARK    7  A    between atoms: C_11  and  O_15 
ROOT
HETATM    1  O   UNL     1      31.725  76.279  23.581  1.00  0.00    -0.395 OA
HETATM    2  H   UNL     1      31.569  75.328  23.693  1.00  0.00     0.210 HD
ENDROOT
BRANCH   1   3
HETATM    3  C   UNL     1      31.158  76.710  22.344  1.00  0.00     0.122 C 
BRANCH   3   4
HETATM    4  C   UNL     1      30.479  78.077  22.531  1.00  0.00     0.042 C 
BRANCH   4   5
HETATM    5  C   UNL     1      31.206  79.219  21.818  1.00  0.00     0.116 C 
BRANCH   5   6
HETATM    6  C   UNL     1      31.990  80.156  22.702  1.00  0.00     0.172 C 
HETATM    7  O   UNL     1      31.795  81.356  22.804  1.00  0.00    -0.648 OA
HETATM    8  O   UNL     1      33.032  79.588  23.342  1.00  0.00    -0.648 OA
ENDBRANCH   5   6
ENDBRANCH   4   5
ENDBRANCH   3   4
BRANCH   3   9
HETATM    9  C   UNL     1      32.257  76.790  21.267  1.00  0.00     0.070 C 
BRANCH   9  10
HETATM   10  C   UNL     1      31.818  76.239  19.927  1.00  0.00    -0.053 A 
HETATM   11  C   UNL     1      31.274  77.089  18.951  1.00  0.00     0.043 A 
HETATM   12  C   UNL     1      30.876  76.569  17.720  1.00  0.00     0.066 A 
HETATM   13  C   UNL     1      31.008  75.215  17.441  1.00  0.00     0.036 A 
HETATM   14  C   UNL     1      31.546  74.363  18.403  1.00  0.00     0.003 A 
HETATM   15  C   UNL     1      31.950  74.873  19.639  1.00  0.00     0.007 A 
BRANCH  12  16
HETATM   16  O   UNL     1      30.345  77.367  16.751  1.00  0.00    -0.361 OA
HETATM   17  H   UNL     1      29.430  77.322  16.556  1.00  0.00     0.217 HD
ENDBRANCH  12  16
ENDBRANCH   9  10
ENDBRANCH   3   9
ENDBRANCH   1   3
TORSDOF 7
ENDMDL
MODEL 2
REMARK VINA RESULT:      -6.5      1.323      1.985
REMARK  7 active torsions:
REMARK  status: ('A' for Active; 'I' for Inactive)
REMARK    1  A    between atoms: O_1  and  C_2 
REMARK    2  A    between atoms: C_2  and  C_3 
REMARK    3  A    between atoms: C_2  and  C_8 
REMARK    4  A    between atoms: C_3  and  C_4 
REMARK    5  A    between atoms: C_4  and  C_5 
REMARK    6  A    between atoms: C_8  and  C_9 
REMARK    7  A    between atoms: C_11  and  O_15 
ROOT
HETATM    1  O   UNL     1      31.565  76.290  23.687  1.00  0.00    -0.395 OA
HETATM    2  H   UNL     1      32.205  76.948  24.000  1.00  0.00     0.210 HD
ENDROOT
BRANCH   1   3
HETATM    3  C   UNL     1      31.053  76.692  22.416  1.00  0.00     0.122 C 
BRANCH   3   4
HETATM    4  C   UNL     1      30.413  78.085  22.529  1.00  0.00     0.042 C 
BRANCH   4   5
HETATM    5  C   UNL     1      31.202  79.177  21.804  1.00  0.00     0.116 C 
BRANCH   5   6
HETATM    6  C   UNL     1      32.111  80.015  22.666  1.00  0.00     0.172 C 
HETATM    7  O   UNL     1      33.033  79.587  23.342  1.00  0.00    -0.648 OA
HETATM    8  O   UNL     1      31.784  81.322  22.727  1.00  0.00    -0.648 OA
ENDBRANCH   5   6
ENDBRANCH   4   5
ENDBRANCH   3   4
BRANCH   3   9
HETATM    9  C   UNL     1      32.190  76.697  21.375  1.00  0.00     0.070 C 
BRANCH   9  10
HETATM   10  C   UNL     1      31.793  76.068  20.057  1.00  0.00    -0.053 A 
HETATM   11  C   UNL     1      31.807  74.674  19.900  1.00  0.00     0.043 A 
HETATM   12  C   UNL     1      31.436  74.107  18.682  1.00  0.00     0.066 A 
HETATM   13  C   UNL     1      31.051  74.905  17.611  1.00  0.00     0.036 A 
HETATM   14  C   UNL     1      31.034  76.290  17.757  1.00  0.00     0.003 A 
HETATM   15  C   UNL     1      31.403  76.869  18.973  1.00  0.00     0.007 A 
BRANCH  12  16
HETATM   16  O   UNL     1      31.438  72.756  18.497  1.00  0.00    -0.361 OA
HETATM   17  H   UNL     1      31.910  72.382  17.780  1.00  0.00     0.217 HD
ENDBRANCH  12  16
ENDBRANCH   9  10
ENDBRANCH   3   9
ENDBRANCH   1   3
TORSDOF 7
ENDMDL
MODEL 3
REMARK VINA RESULT:      -6.4      2.486      3.680
REMARK  7 active torsions:
REMARK  status: ('A' for Active; 'I' for Inactive)
REMARK    1  A    between atoms: O_1  and  C_2 
REMARK    2  A    between atoms: C_2  and  C_3 
REMARK    3  A    between atoms: C_2  and  C_8 
REMARK    4  A    between atoms: C_3  and  C_4 
REMARK    5  A    between atoms: C_4  and  C_5 
REMARK    6  A    between atoms: C_8  and  C_9 
REMARK    7  A    between atoms: C_11  and  O_15 
ROOT
HETATM    1  O   UNL     1      30.868  76.974  23.221  1.00  0.00    -0.395 OA
HETATM    2  H   UNL     1      30.583  76.185  23.709  1.00  0.00     0.210 HD
ENDROOT
BRANCH   1   3
HETATM    3  C   UNL     1      31.651  76.578  22.095  1.00  0.00     0.122 C 
BRANCH   3   4
HETATM    4  C   UNL     1      32.030  77.814  21.263  1.00  0.00     0.042 C 
BRANCH   4   5
HETATM    5  C   UNL     1      31.253  79.073  21.657  1.00  0.00     0.116 C 
BRANCH   5   6
HETATM    6  C   UNL     1      32.003  80.077  22.494  1.00  0.00     0.172 C 
HETATM    7  O   UNL     1      31.866  81.288  22.432  1.00  0.00    -0.648 OA
HETATM    8  O   UNL     1      32.948  79.548  23.296  1.00  0.00    -0.648 OA
ENDBRANCH   5   6
ENDBRANCH   4   5
ENDBRANCH   3   4
BRANCH   3   9
HETATM    9  C   UNL     1      32.914  75.836  22.574  1.00  0.00     0.070 C 
BRANCH   9  10
HETATM   10  C   UNL     1      33.272  74.649  21.706  1.00  0.00    -0.053 A 
HETATM   11  C   UNL     1      33.837  73.496  22.273  1.00  0.00     0.043 A 
HETATM   12  C   UNL     1      34.160  72.409  21.463  1.00  0.00     0.066 A 
HETATM   13  C   UNL     1      33.931  72.446  20.093  1.00  0.00     0.036 A 
HETATM   14  C   UNL     1      33.371  73.586  19.521  1.00  0.00     0.003 A 
HETATM   15  C   UNL     1      33.042  74.681  20.323  1.00  0.00     0.007 A 
BRANCH  12  16
HETATM   16  O   UNL     1      34.709  71.274  21.983  1.00  0.00    -0.361 OA
HETATM   17  H   UNL     1      34.813  70.515  21.444  1.00  0.00     0.217 HD
ENDBRANCH  12  16
ENDBRANCH   9  10
ENDBRANCH   3   9
ENDBRANCH   1   3
TORSDOF 7
ENDMDL
MODEL 4
REMARK VINA RESULT:      -6.3      2.252      4.806
REMARK  7 active torsions:
REMARK  status: ('A' for Active; 'I' for Inactive)
REMARK    1  A    between atoms: O_1  and  C_2 
REMARK    2  A    between atoms: C_2  and  C_3 
REMARK    3  A    between atoms: C_2  and  C_8 
REMARK    4  A    between atoms: C_3  and  C_4 
REMARK    5  A    between atoms: C_4  and  C_5 
REMARK    6  A    between atoms: C_8  and  C_9 
REMARK    7  A    between atoms: C_11  and  O_15 
ROOT
HETATM    1  O   UNL     1      31.775  78.972  20.360  1.00  0.00    -0.395 OA
HETATM    2  H   UNL     1      31.164  79.529  20.868  1.00  0.00     0.210 HD
ENDROOT
BRANCH   1   3
HETATM    3  C   UNL     1      31.179  77.695  20.137  1.00  0.00     0.122 C 
BRANCH   3   4
HETATM    4  C   UNL     1      30.664  77.605  18.691  1.00  0.00     0.042 C 
BRANCH   4   5
HETATM    5  C   UNL     1      31.752  77.238  17.680  1.00  0.00     0.116 C 
BRANCH   5   6
HETATM    6  C   UNL     1      32.315  78.379  16.873  1.00  0.00     0.172 C 
HETATM    7  O   UNL     1      32.084  78.589  15.693  1.00  0.00    -0.648 OA
HETATM    8  O   UNL     1      33.207  79.148  17.530  1.00  0.00    -0.648 OA
ENDBRANCH   5   6
ENDBRANCH   4   5
ENDBRANCH   3   4
BRANCH   3   9
HETATM    9  C   UNL     1      32.210  76.584  20.418  1.00  0.00     0.070 C 
BRANCH   9  10
HETATM   10  C   UNL     1      31.615  75.387  21.130  1.00  0.00    -0.053 A 
HETATM   11  C   UNL     1      31.086  75.519  22.424  1.00  0.00     0.043 A 
HETATM   12  C   UNL     1      30.539  74.410  23.067  1.00  0.00     0.066 A 
HETATM   13  C   UNL     1      30.510  73.167  22.447  1.00  0.00     0.036 A 
HETATM   14  C   UNL     1      31.033  73.026  21.164  1.00  0.00     0.003 A 
HETATM   15  C   UNL     1      31.583  74.130  20.509  1.00  0.00     0.007 A 
BRANCH  12  16
HETATM   16  O   UNL     1      30.015  74.504  24.323  1.00  0.00    -0.361 OA
HETATM   17  H   UNL     1      29.396  73.869  24.621  1.00  0.00     0.217 HD
ENDBRANCH  12  16
ENDBRANCH   9  10
ENDBRANCH   3   9
ENDBRANCH   1   3
TORSDOF 7
ENDMDL
MODEL 5
REMARK VINA RESULT:      -6.3      2.442      3.514
REMARK  7 active torsions:
REMARK  status: ('A' for Active; 'I' for Inactive)
REMARK    1  A    between atoms: O_1  and  C_2 
REMARK    2  A    between atoms: C_2  and  C_3 
REMARK    3  A    between atoms: C_2  and  C_8 
REMARK    4  A    between atoms: C_3  and  C_4 
REMARK    5  A    between atoms: C_4  and  C_5 
REMARK    6  A    between atoms: C_8  and  C_9 
REMARK    7  A    between atoms: C_11  and  O_15 
ROOT
HETATM    1  O   UNL     1      32.212  76.819  23.328  1.00  0.00    -0.395 OA
HETATM    2  H   UNL     1      31.870  76.698  24.227  1.00  0.00     0.210 HD
ENDROOT
BRANCH   1   3
HETATM    3  C   UNL     1      31.136  76.728  22.395  1.00  0.00     0.122 C 
BRANCH   3   4
HETATM    4  C   UNL     1      30.496  78.112  22.200  1.00  0.00     0.042 C 
BRANCH   4   5
HETATM    5  C   UNL     1      31.439  79.132  21.557  1.00  0.00     0.116 C 
BRANCH   5   6
HETATM    6  C   UNL     1      32.078  80.122  22.496  1.00  0.00     0.172 C 
HETATM    7  O   UNL     1      31.853  81.322  22.515  1.00  0.00    -0.648 OA
HETATM    8  O   UNL     1      33.030  79.605  23.299  1.00  0.00    -0.648 OA
ENDBRANCH   5   6
ENDBRANCH   4   5
ENDBRANCH   3   4
BRANCH   3   9
HETATM    9  C   UNL     1      31.655  76.174  21.053  1.00  0.00     0.070 C 
BRANCH   9  10
HETATM   10  C   UNL     1      32.260  74.791  21.175  1.00  0.00    -0.053 A 
HETATM   11  C   UNL     1      31.865  73.930  22.210  1.00  0.00     0.043 A 
HETATM   12  C   UNL     1      32.428  72.658  22.309  1.00  0.00     0.066 A 
HETATM   13  C   UNL     1      33.380  72.225  21.394  1.00  0.00     0.036 A 
HETATM   14  C   UNL     1      33.778  73.073  20.364  1.00  0.00     0.003 A 
HETATM   15  C   UNL     1      33.221  74.349  20.254  1.00  0.00     0.007 A 
BRANCH  12  16
HETATM   16  O   UNL     1      32.066  71.797  23.302  1.00  0.00    -0.361 OA
HETATM   17  H   UNL     1      32.678  71.573  23.975  1.00  0.00     0.217 HD
ENDBRANCH  12  16
ENDBRANCH   9  10
ENDBRANCH   3   9
ENDBRANCH   1   3
TORSDOF 7
ENDMDL
MODEL 6
REMARK VINA RESULT:      -6.2      2.033      3.715
REMARK  7 active torsions:
REMARK  status: ('A' for Active; 'I' for Inactive)
REMARK    1  A    between atoms: O_1  and  C_2 
REMARK    2  A    between atoms: C_2  and  C_3 
REMARK    3  A    between atoms: C_2  and  C_8 
REMARK    4  A    between atoms: C_3  and  C_4 
REMARK    5  A    between atoms: C_4  and  C_5 
REMARK    6  A    between atoms: C_8  and  C_9 
REMARK    7  A    between atoms: C_11  and  O_15 
ROOT
HETATM    1  O   UNL     1      31.327  78.206  19.062  1.00  0.00    -0.395 OA
HETATM    2  H   UNL     1      30.448  78.409  19.418  1.00  0.00     0.210 HD
ENDROOT
BRANCH   1   3
HETATM    3  C   UNL     1      31.982  77.271  19.919  1.00  0.00     0.122 C 
BRANCH   3   4
HETATM    4  C   UNL     1      31.802  77.692  21.386  1.00  0.00     0.042 C 
BRANCH   4   5
HETATM    5  C   UNL     1      31.260  79.114  21.548  1.00  0.00     0.116 C 
BRANCH   5   6
HETATM    6  C   UNL     1      32.009  80.000  22.509  1.00  0.00     0.172 C 
HETATM    7  O   UNL     1      31.815  81.196  22.662  1.00  0.00    -0.648 OA
HETATM    8  O   UNL     1      33.020  79.395  23.164  1.00  0.00    -0.648 OA
ENDBRANCH   5   6
ENDBRANCH   4   5
ENDBRANCH   3   4
BRANCH   3   9
HETATM    9  C   UNL     1      31.409  75.859  19.683  1.00  0.00     0.070 C 
BRANCH   9  10
HETATM   10  C   UNL     1      32.126  74.786  20.474  1.00  0.00    -0.053 A 
HETATM   11  C   UNL     1      31.482  74.137  21.539  1.00  0.00     0.043 A 
HETATM   12  C   UNL     1      32.152  73.149  22.258  1.00  0.00     0.066 A 
HETATM   13  C   UNL     1      33.457  72.793  21.938  1.00  0.00     0.036 A 
HETATM   14  C   UNL     1      34.104  73.433  20.883  1.00  0.00     0.003 A 
HETATM   15  C   UNL     1      33.442  74.423  20.155  1.00  0.00     0.007 A 
BRANCH  12  16
HETATM   16  O   UNL     1      31.555  72.498  23.297  1.00  0.00    -0.361 OA
HETATM   17  H   UNL     1      31.607  71.564  23.357  1.00  0.00     0.217 HD
ENDBRANCH  12  16
ENDBRANCH   9  10
ENDBRANCH   3   9
ENDBRANCH   1   3
TORSDOF 7
ENDMDL
MODEL 7
REMARK VINA RESULT:      -6.1      2.748      4.362
REMARK  7 active torsions:
REMARK  status: ('A' for Active; 'I' for Inactive)
REMARK    1  A    between atoms: O_1  and  C_2 
REMARK    2  A    between atoms: C_2  and  C_3 
REMARK    3  A    between atoms: C_2  and  C_8 
REMARK    4  A    between atoms: C_3  and  C_4 
REMARK    5  A    between atoms: C_4  and  C_5 
REMARK    6  A    between atoms: C_8  and  C_9 
REMARK    7  A    between atoms: C_11  and  O_15 
ROOT
HETATM    1  O   UNL     1      31.352  75.861  24.028  1.00  0.00    -0.395 OA
HETATM    2  H   UNL     1      30.598  76.422  24.266  1.00  0.00     0.210 HD
ENDROOT
BRANCH   1   3
HETATM    3  C   UNL     1      31.579  75.940  22.621  1.00  0.00     0.122 C 
BRANCH   3   4
HETATM    4  C   UNL     1      31.053  77.281  22.083  1.00  0.00     0.042 C 
BRANCH   4   5
HETATM    5  C   UNL     1      31.983  77.930  21.056  1.00  0.00     0.116 C 
BRANCH   5   6
HETATM    6  C   UNL     1      31.597  77.751  19.610  1.00  0.00     0.172 C 
HETATM    7  O   UNL     1      30.748  76.976  19.198  1.00  0.00    -0.648 OA
HETATM    8  O   UNL     1      32.336  78.462  18.736  1.00  0.00    -0.648 OA
ENDBRANCH   5   6
ENDBRANCH   4   5
ENDBRANCH   3   4
BRANCH   3   9
HETATM    9  C   UNL     1      33.084  75.788  22.327  1.00  0.00     0.070 C 
BRANCH   9  10
HETATM   10  C   UNL     1      33.417  74.520  21.570  1.00  0.00    -0.053 A 
HETATM   11  C   UNL     1      33.869  73.380  22.253  1.00  0.00     0.043 A 
HETATM   12  C   UNL     1      34.170  72.218  21.544  1.00  0.00     0.066 A 
HETATM   13  C   UNL     1      34.030  72.168  20.163  1.00  0.00     0.036 A 
HETATM   14  C   UNL     1      33.583  73.294  19.476  1.00  0.00     0.003 A 
HETATM   15  C   UNL     1      33.277  74.464  20.176  1.00  0.00     0.007 A 
BRANCH  12  16
HETATM   16  O   UNL     1      34.610  71.094  22.178  1.00  0.00    -0.361 OA
HETATM   17  H   UNL     1      34.524  71.015  23.107  1.00  0.00     0.217 HD
ENDBRANCH  12  16
ENDBRANCH   9  10
ENDBRANCH   3   9
ENDBRANCH   1   3
TORSDOF 7
ENDMDL
MODEL 8
REMARK VINA RESULT:      -6.1      2.739      4.665
REMARK  7 active torsions:
REMARK  status: ('A' for Active; 'I' for Inactive)
REMARK    1  A    between atoms: O_1  and  C_2 
REMARK    2  A    between atoms: C_2  and  C_3 
REMARK    3  A    between atoms: C_2  and  C_8 
REMARK    4  A    between atoms: C_3  and  C_4 
REMARK    5  A    between atoms: C_4  and  C_5 
REMARK    6  A    between atoms: C_8  and  C_9 
REMARK    7  A    between atoms: C_11  and  O_15 
ROOT
HETATM    1  O   UNL     1      30.501  77.850  23.178  1.00  0.00    -0.395 OA
HETATM    2  H   UNL     1      30.246  78.765  22.985  1.00  0.00     0.210 HD
ENDROOT
BRANCH   1   3
HETATM    3  C   UNL     1      31.052  77.253  22.004  1.00  0.00     0.122 C 
BRANCH   3   4
HETATM    4  C   UNL     1      31.265  78.327  20.924  1.00  0.00     0.042 C 
BRANCH   4   5
HETATM    5  C   UNL     1      30.869  77.863  19.520  1.00  0.00     0.116 C 
BRANCH   5   6
HETATM    6  C   UNL     1      32.006  77.514  18.595  1.00  0.00     0.172 C 
HETATM    7  O   UNL     1      32.335  76.382  18.279  1.00  0.00    -0.648 OA
HETATM    8  O   UNL     1      32.740  78.567  18.181  1.00  0.00    -0.648 OA
ENDBRANCH   5   6
ENDBRANCH   4   5
ENDBRANCH   3   4
BRANCH   3   9
HETATM    9  C   UNL     1      32.382  76.556  22.349  1.00  0.00     0.070 C 
BRANCH   9  10
HETATM   10  C   UNL     1      32.266  75.047  22.407  1.00  0.00    -0.053 A 
HETATM   11  C   UNL     1      33.409  74.240  22.301  1.00  0.00     0.043 A 
HETATM   12  C   UNL     1      33.289  72.853  22.358  1.00  0.00     0.066 A 
HETATM   13  C   UNL     1      32.047  72.250  22.518  1.00  0.00     0.036 A 
HETATM   14  C   UNL     1      30.907  73.042  22.623  1.00  0.00     0.003 A 
HETATM   15  C   UNL     1      31.015  74.434  22.568  1.00  0.00     0.007 A 
BRANCH  12  16
HETATM   16  O   UNL     1      34.379  72.040  22.260  1.00  0.00    -0.361 OA
HETATM   17  H   UNL     1      34.491  71.331  22.861  1.00  0.00     0.217 HD
ENDBRANCH  12  16
ENDBRANCH   9  10
ENDBRANCH   3   9
ENDBRANCH   1   3
TORSDOF 7
ENDMDL
MODEL 9
REMARK VINA RESULT:      -6.0      2.009      5.473
REMARK  7 active torsions:
REMARK  status: ('A' for Active; 'I' for Inactive)
REMARK    1  A    between atoms: O_1  and  C_2 
REMARK    2  A    between atoms: C_2  and  C_3 
REMARK    3  A    between atoms: C_2  and  C_8 
REMARK    4  A    between atoms: C_3  and  C_4 
REMARK    5  A    between atoms: C_4  and  C_5 
REMARK    6  A    between atoms: C_8  and  C_9 
REMARK    7  A    between atoms: C_11  and  O_15 
ROOT
HETATM    1  O   UNL     1      32.556  74.635  16.765  1.00  0.00    -0.395 OA
HETATM    2  H   UNL     1      33.292  75.079  16.316  1.00  0.00     0.210 HD
ENDROOT
BRANCH   1   3
HETATM    3  C   UNL     1      31.792  75.597  17.491  1.00  0.00     0.122 C 
BRANCH   3   4
HETATM    4  C   UNL     1      30.537  75.979  16.690  1.00  0.00     0.042 C 
BRANCH   4   5
HETATM    5  C   UNL     1      30.781  77.102  15.679  1.00  0.00     0.116 C 
BRANCH   5   6
HETATM    6  C   UNL     1      31.061  78.464  16.260  1.00  0.00     0.172 C 
HETATM    7  O   UNL     1      32.165  78.979  16.350  1.00  0.00    -0.648 OA
HETATM    8  O   UNL     1      29.986  79.084  16.787  1.00  0.00    -0.648 OA
ENDBRANCH   5   6
ENDBRANCH   4   5
ENDBRANCH   3   4
BRANCH   3   9
HETATM    9  C   UNL     1      31.405  75.022  18.868  1.00  0.00     0.070 C 
BRANCH   9  10
HETATM   10  C   UNL     1      31.536  76.029  19.991  1.00  0.00    -0.053 A 
HETATM   11  C   UNL     1      31.605  75.602  21.327  1.00  0.00     0.043 A 
HETATM   12  C   UNL     1      31.728  76.539  22.351  1.00  0.00     0.066 A 
HETATM   13  C   UNL     1      31.783  77.899  22.072  1.00  0.00     0.036 A 
HETATM   14  C   UNL     1      31.714  78.333  20.750  1.00  0.00     0.003 A 
HETATM   15  C   UNL     1      31.592  77.403  19.715  1.00  0.00     0.007 A 
BRANCH  12  16
HETATM   16  O   UNL     1      31.798  76.157  23.658  1.00  0.00    -0.361 OA
HETATM   17  H   UNL     1      32.030  75.277  23.877  1.00  0.00     0.217 HD
ENDBRANCH  12  16
ENDBRANCH   9  10
ENDBRANCH   3   9
ENDBRANCH   1   3
TORSDOF 7
ENDMDL
