MODEL 1
REMARK VINA RESULT:      -6.5      0.000      0.000
REMARK  7 active torsions:
REMARK  status: ('A' for Active; 'I' for Inactive)
REMARK    1  A    between atoms: O_1  and  C_2 
REMARK    2  A    between atoms: C_2  and  C_3 
REMARK    3  A    between atoms: C_2  and  C_8 
REMARK    4  A    between atoms: C_3  and  C_4 
REMARK    5  A    between atoms: C_4  and  C_5 
REMARK    6  A    between atoms: C_8  and  C_9 
REMARK    7  A    between atoms: C_11  and  O_15 
ROOT
HETATM    1  O   UNL     1      31.700  76.261  23.674  1.00  0.00    -0.395 OA
HETATM    2  H   UNL     1      32.647  76.082  23.574  1.00  0.00     0.210 HD
ENDROOT
BRANCH   1   3
HETATM    3  C   UNL     1      31.147  76.620  22.408  1.00  0.00     0.122 C 
BRANCH   3   4
HETATM    4  C   UNL     1      30.486  78.005  22.501  1.00  0.00     0.042 C 
BRANCH   4   5
HETATM    5  C   UNL     1      31.250  79.095  21.748  1.00  0.00     0.116 C 
BRANCH   5   6
HETATM    6  C   UNL     1      32.012  80.076  22.601  1.00  0.00     0.172 C 
HETATM    7  O   UNL     1      31.828  81.283  22.622  1.00  0.00    -0.648 OA
HETATM    8  O   UNL     1      33.023  79.539  23.313  1.00  0.00    -0.648 OA
ENDBRANCH   5   6
ENDBRANCH   4   5
ENDBRANCH   3   4
BRANCH   3   9
HETATM    9  C   UNL     1      32.256  76.617  21.337  1.00  0.00     0.070 C 
BRANCH   9  10
HETATM   10  C   UNL     1      31.841  75.927  20.054  1.00  0.00    -0.053 A 
HETATM   11  C   UNL     1      31.810  74.526  19.977  1.00  0.00     0.043 A 
HETATM   12  C   UNL     1      31.424  73.904  18.791  1.00  0.00     0.066 A 
HETATM   13  C   UNL     1      31.068  74.652  17.675  1.00  0.00     0.036 A 
HETATM   14  C   UNL     1      31.098  76.043  17.742  1.00  0.00     0.003 A 
HETATM   15  C   UNL     1      31.481  76.677  18.925  1.00  0.00     0.007 A 
BRANCH  12  16
HETATM   16  O   UNL     1      31.381  72.545  18.683  1.00  0.00    -0.361 OA
HETATM   17  H   UNL     1      32.006  72.098  18.147  1.00  0.00     0.217 HD
ENDBRANCH  12  16
ENDBRANCH   9  10
ENDBRANCH   3   9
ENDBRANCH   1   3
TORSDOF 7
ENDMDL
MODEL 2
REMARK VINA RESULT:      -6.5      1.410      2.043
REMARK  7 active torsions:
REMARK  status: ('A' for Active; 'I' for Inactive)
REMARK    1  A    between atoms: O_1  and  C_2 
REMARK    2  A    between atoms: C_2  and  C_3 
REMARK    3  A    between atoms: C_2  and  C_8 
REMARK    4  A    between atoms: C_3  and  C_4 
REMARK    5  A    between atoms: C_4  and  C_5 
REMARK    6  A    between atoms: C_8  and  C_9 
REMARK    7  A    between atoms: C_11  and  O_15 
ROOT
HETATM    1  O   UNL     1      31.663  76.281  23.628  1.00  0.00    -0.395 OA
HETATM    2  H   UNL     1      32.581  76.586  23.691  1.00  0.00     0.210 HD
ENDROOT
BRANCH   1   3
HETATM    3  C   UNL     1      31.101  76.720  22.391  1.00  0.00     0.122 C 
BRANCH   3   4
HETATM    4  C   UNL     1      30.408  78.078  22.586  1.00  0.00     0.042 C 
BRANCH   4   5
HETATM    5  C   UNL     1      31.097  79.224  21.840  1.00  0.00     0.116 C 
BRANCH   5   6
HETATM    6  C   UNL     1      32.063  80.050  22.649  1.00  0.00     0.172 C 
HETATM    7  O   UNL     1      32.970  79.605  23.334  1.00  0.00    -0.648 OA
HETATM    8  O   UNL     1      31.808  81.374  22.651  1.00  0.00    -0.648 OA
ENDBRANCH   5   6
ENDBRANCH   4   5
ENDBRANCH   3   4
BRANCH   3   9
HETATM    9  C   UNL     1      32.207  76.820  21.323  1.00  0.00     0.070 C 
BRANCH   9  10
HETATM   10  C   UNL     1      31.789  76.263  19.979  1.00  0.00    -0.053 A 
HETATM   11  C   UNL     1      31.295  77.113  18.977  1.00  0.00     0.043 A 
HETATM   12  C   UNL     1      30.916  76.588  17.743  1.00  0.00     0.066 A 
HETATM   13  C   UNL     1      31.017  75.226  17.485  1.00  0.00     0.036 A 
HETATM   14  C   UNL     1      31.505  74.374  18.473  1.00  0.00     0.003 A 
HETATM   15  C   UNL     1      31.889  74.889  19.713  1.00  0.00     0.007 A 
BRANCH  12  16
HETATM   16  O   UNL     1      30.434  77.387  16.749  1.00  0.00    -0.361 OA
HETATM   17  H   UNL     1      29.740  77.083  16.199  1.00  0.00     0.217 HD
ENDBRANCH  12  16
ENDBRANCH   9  10
ENDBRANCH   3   9
ENDBRANCH   1   3
TORSDOF 7
ENDMDL
MODEL 3
REMARK VINA RESULT:      -6.4      2.147      2.643
REMARK  7 active torsions:
REMARK  status: ('A' for Active; 'I' for Inactive)
REMARK    1  A    between atoms: O_1  and  C_2 
REMARK    2  A    between atoms: C_2  and  C_3 
REMARK    3  A    between atoms: C_2  and  C_8 
REMARK    4  A    between atoms: C_3  and  C_4 
REMARK    5  A    between atoms: C_4  and  C_5 
REMARK    6  A    between atoms: C_8  and  C_9 
REMARK    7  A    between atoms: C_11  and  O_15 
ROOT
HETATM    1  O   UNL     1      30.649  76.816  23.289  1.00  0.00    -0.395 OA
HETATM    2  H   UNL     1      31.242  77.042  24.022  1.00  0.00     0.210 HD
ENDROOT
BRANCH   1   3
HETATM    3  C   UNL     1      31.418  76.592  22.108  1.00  0.00     0.122 C 
BRANCH   3   4
HETATM    4  C   UNL     1      31.546  77.901  21.312  1.00  0.00     0.042 C 
BRANCH   4   5
HETATM    5  C   UNL     1      30.955  79.112  22.036  1.00  0.00     0.116 C 
BRANCH   5   6
HETATM    6  C   UNL     1      31.950  80.086  22.613  1.00  0.00     0.172 C 
HETATM    7  O   UNL     1      31.907  81.299  22.479  1.00  0.00    -0.648 OA
HETATM    8  O   UNL     1      32.996  79.517  23.243  1.00  0.00    -0.648 OA
ENDBRANCH   5   6
ENDBRANCH   4   5
ENDBRANCH   3   4
BRANCH   3   9
HETATM    9  C   UNL     1      32.809  76.046  22.488  1.00  0.00     0.070 C 
BRANCH   9  10
HETATM   10  C   UNL     1      33.196  74.809  21.707  1.00  0.00    -0.053 A 
HETATM   11  C   UNL     1      33.678  73.670  22.370  1.00  0.00     0.043 A 
HETATM   12  C   UNL     1      34.029  72.536  21.640  1.00  0.00     0.066 A 
HETATM   13  C   UNL     1      33.910  72.513  20.256  1.00  0.00     0.036 A 
HETATM   14  C   UNL     1      33.434  73.639  19.588  1.00  0.00     0.003 A 
HETATM   15  C   UNL     1      33.078  74.780  20.310  1.00  0.00     0.007 A 
BRANCH  12  16
HETATM   16  O   UNL     1      34.499  71.413  22.254  1.00  0.00    -0.361 OA
HETATM   17  H   UNL     1      34.491  70.593  21.801  1.00  0.00     0.217 HD
ENDBRANCH  12  16
ENDBRANCH   9  10
ENDBRANCH   3   9
ENDBRANCH   1   3
TORSDOF 7
ENDMDL
MODEL 4
REMARK VINA RESULT:      -6.2      2.892      4.453
REMARK  7 active torsions:
REMARK  status: ('A' for Active; 'I' for Inactive)
REMARK    1  A    between atoms: O_1  and  C_2 
REMARK    2  A    between atoms: C_2  and  C_3 
REMARK    3  A    between atoms: C_2  and  C_8 
REMARK    4  A    between atoms: C_3  and  C_4 
REMARK    5  A    between atoms: C_4  and  C_5 
REMARK    6  A    between atoms: C_8  and  C_9 
REMARK    7  A    between atoms: C_11  and  O_15 
ROOT
HETATM    1  O   UNL     1      31.526  79.275  20.655  1.00  0.00    -0.395 OA
HETATM    2  H   UNL     1      31.573  79.779  19.827  1.00  0.00     0.210 HD
ENDROOT
BRANCH   1   3
HETATM    3  C   UNL     1      31.034  77.963  20.385  1.00  0.00     0.122 C 
BRANCH   3   4
HETATM    4  C   UNL     1      30.590  77.864  18.917  1.00  0.00     0.042 C 
BRANCH   4   5
HETATM    5  C   UNL     1      31.689  77.353  17.983  1.00  0.00     0.116 C 
BRANCH   5   6
HETATM    6  C   UNL     1      32.235  78.353  16.997  1.00  0.00     0.172 C 
HETATM    7  O   UNL     1      31.943  78.406  15.812  1.00  0.00    -0.648 OA
HETATM    8  O   UNL     1      33.181  79.176  17.493  1.00  0.00    -0.648 OA
ENDBRANCH   5   6
ENDBRANCH   4   5
ENDBRANCH   3   4
BRANCH   3   9
HETATM    9  C   UNL     1      32.128  76.923  20.695  1.00  0.00     0.070 C 
BRANCH   9  10
HETATM   10  C   UNL     1      31.581  75.644  21.294  1.00  0.00    -0.053 A 
HETATM   11  C   UNL     1      31.038  75.639  22.588  1.00  0.00     0.043 A 
HETATM   12  C   UNL     1      30.535  74.456  23.127  1.00  0.00     0.066 A 
HETATM   13  C   UNL     1      30.563  73.272  22.400  1.00  0.00     0.036 A 
HETATM   14  C   UNL     1      31.101  73.267  21.115  1.00  0.00     0.003 A 
HETATM   15  C   UNL     1      31.606  74.447  20.564  1.00  0.00     0.007 A 
BRANCH  12  16
HETATM   16  O   UNL     1      30.000  74.417  24.380  1.00  0.00    -0.361 OA
HETATM   17  H   UNL     1      30.561  74.360  25.128  1.00  0.00     0.217 HD
ENDBRANCH  12  16
ENDBRANCH   9  10
ENDBRANCH   3   9
ENDBRANCH   1   3
TORSDOF 7
ENDMDL
MODEL 5
REMARK VINA RESULT:      -6.2      2.110      2.672
REMARK  7 active torsions:
REMARK  status: ('A' for Active; 'I' for Inactive)
REMARK    1  A    between atoms: O_1  and  C_2 
REMARK    2  A    between atoms: C_2  and  C_3 
REMARK    3  A    between atoms: C_2  and  C_8 
REMARK    4  A    between atoms: C_3  and  C_4 
REMARK    5  A    between atoms: C_4  and  C_5 
REMARK    6  A    between atoms: C_8  and  C_9 
REMARK    7  A    between atoms: C_11  and  O_15 
ROOT
HETATM    1  O   UNL     1      31.872  75.222  21.885  1.00  0.00    -0.395 OA
HETATM    2  H   UNL     1      31.366  75.041  22.692  1.00  0.00     0.210 HD
ENDROOT
BRANCH   1   3
HETATM    3  C   UNL     1      31.348  76.386  21.247  1.00  0.00     0.122 C 
BRANCH   3   4
HETATM    4  C   UNL     1      31.226  77.530  22.266  1.00  0.00     0.042 C 
BRANCH   4   5
HETATM    5  C   UNL     1      31.377  78.919  21.642  1.00  0.00     0.116 C 
BRANCH   5   6
HETATM    6  C   UNL     1      32.078  79.950  22.489  1.00  0.00     0.172 C 
HETATM    7  O   UNL     1      31.882  81.154  22.438  1.00  0.00    -0.648 OA
HETATM    8  O   UNL     1      33.048  79.461  23.287  1.00  0.00    -0.648 OA
ENDBRANCH   5   6
ENDBRANCH   4   5
ENDBRANCH   3   4
BRANCH   3   9
HETATM    9  C   UNL     1      32.262  76.795  20.076  1.00  0.00     0.070 C 
BRANCH   9  10
HETATM   10  C   UNL     1      31.558  76.775  18.736  1.00  0.00    -0.053 A 
HETATM   11  C   UNL     1      31.004  77.951  18.205  1.00  0.00     0.043 A 
HETATM   12  C   UNL     1      30.361  77.920  16.969  1.00  0.00     0.066 A 
HETATM   13  C   UNL     1      30.256  76.736  16.248  1.00  0.00     0.036 A 
HETATM   14  C   UNL     1      30.801  75.564  16.767  1.00  0.00     0.003 A 
HETATM   15  C   UNL     1      31.449  75.584  18.004  1.00  0.00     0.007 A 
BRANCH  12  16
HETATM   16  O   UNL     1      29.813  79.044  16.425  1.00  0.00    -0.361 OA
HETATM   17  H   UNL     1      30.291  79.535  15.786  1.00  0.00     0.217 HD
ENDBRANCH  12  16
ENDBRANCH   9  10
ENDBRANCH   3   9
ENDBRANCH   1   3
TORSDOF 7
ENDMDL
MODEL 6
REMARK VINA RESULT:      -6.2      2.081      3.006
REMARK  7 active torsions:
REMARK  status: ('A' for Active; 'I' for Inactive)
REMARK    1  A    between atoms: O_1  and  C_2 
REMARK    2  A    between atoms: C_2  and  C_3 
REMARK    3  A    between atoms: C_2  and  C_8 
REMARK    4  A    between atoms: C_3  and  C_4 
REMARK    5  A    between atoms: C_4  and  C_5 
REMARK    6  A    between atoms: C_8  and  C_9 
REMARK    7  A    between atoms: C_11  and  O_15 
ROOT
HETATM    1  O   UNL     1      32.280  78.575  18.842  1.00  0.00    -0.395 OA
HETATM    2  H   UNL     1      32.992  79.206  19.030  1.00  0.00     0.210 HD
ENDROOT
BRANCH   1   3
HETATM    3  C   UNL     1      31.901  77.912  20.047  1.00  0.00     0.122 C 
BRANCH   3   4
HETATM    4  C   UNL     1      30.718  78.648  20.698  1.00  0.00     0.042 C 
BRANCH   4   5
HETATM    5  C   UNL     1      30.920  78.923  22.190  1.00  0.00     0.116 C 
BRANCH   5   6
HETATM    6  C   UNL     1      31.971  79.946  22.536  1.00  0.00     0.172 C 
HETATM    7  O   UNL     1      31.962  81.114  22.179  1.00  0.00    -0.648 OA
HETATM    8  O   UNL     1      33.025  79.462  23.223  1.00  0.00    -0.648 OA
ENDBRANCH   5   6
ENDBRANCH   4   5
ENDBRANCH   3   4
BRANCH   3   9
HETATM    9  C   UNL     1      31.530  76.448  19.742  1.00  0.00     0.070 C 
BRANCH   9  10
HETATM   10  C   UNL     1      32.430  75.448  20.438  1.00  0.00    -0.053 A 
HETATM   11  C   UNL     1      33.142  74.494  19.695  1.00  0.00     0.043 A 
HETATM   12  C   UNL     1      33.969  73.581  20.348  1.00  0.00     0.066 A 
HETATM   13  C   UNL     1      34.101  73.599  21.731  1.00  0.00     0.036 A 
HETATM   14  C   UNL     1      33.398  74.542  22.476  1.00  0.00     0.003 A 
HETATM   15  C   UNL     1      32.567  75.462  21.833  1.00  0.00     0.007 A 
BRANCH  12  16
HETATM   16  O   UNL     1      34.675  72.642  19.656  1.00  0.00    -0.361 OA
HETATM   17  H   UNL     1      35.499  72.865  19.269  1.00  0.00     0.217 HD
ENDBRANCH  12  16
ENDBRANCH   9  10
ENDBRANCH   3   9
ENDBRANCH   1   3
TORSDOF 7
ENDMDL
MODEL 7
REMARK VINA RESULT:      -6.1      2.369      4.947
REMARK  7 active torsions:
REMARK  status: ('A' for Active; 'I' for Inactive)
REMARK    1  A    between atoms: O_1  and  C_2 
REMARK    2  A    between atoms: C_2  and  C_3 
REMARK    3  A    between atoms: C_2  and  C_8 
REMARK    4  A    between atoms: C_3  and  C_4 
REMARK    5  A    between atoms: C_4  and  C_5 
REMARK    6  A    between atoms: C_8  and  C_9 
REMARK    7  A    between atoms: C_11  and  O_15 
ROOT
HETATM    1  O   UNL     1      32.394  73.755  21.469  1.00  0.00    -0.395 OA
HETATM    2  H   UNL     1      31.631  73.326  21.053  1.00  0.00     0.210 HD
ENDROOT
BRANCH   1   3
HETATM    3  C   UNL     1      32.284  75.170  21.322  1.00  0.00     0.122 C 
BRANCH   3   4
HETATM    4  C   UNL     1      31.525  75.501  20.027  1.00  0.00     0.042 C 
BRANCH   4   5
HETATM    5  C   UNL     1      32.340  76.345  19.044  1.00  0.00     0.116 C 
BRANCH   5   6
HETATM    6  C   UNL     1      31.850  77.752  18.819  1.00  0.00     0.172 C 
HETATM    7  O   UNL     1      30.721  78.152  19.056  1.00  0.00    -0.648 OA
HETATM    8  O   UNL     1      32.741  78.572  18.226  1.00  0.00    -0.648 OA
ENDBRANCH   5   6
ENDBRANCH   4   5
ENDBRANCH   3   4
BRANCH   3   9
HETATM    9  C   UNL     1      31.561  75.767  22.545  1.00  0.00     0.070 C 
BRANCH   9  10
HETATM   10  C   UNL     1      31.437  77.274  22.486  1.00  0.00    -0.053 A 
HETATM   11  C   UNL     1      30.173  77.884  22.448  1.00  0.00     0.043 A 
HETATM   12  C   UNL     1      30.072  79.273  22.397  1.00  0.00     0.066 A 
HETATM   13  C   UNL     1      31.210  80.071  22.381  1.00  0.00     0.036 A 
HETATM   14  C   UNL     1      32.468  79.476  22.417  1.00  0.00     0.003 A 
HETATM   15  C   UNL     1      32.581  78.085  22.471  1.00  0.00     0.007 A 
BRANCH  12  16
HETATM   16  O   UNL     1      28.860  79.896  22.360  1.00  0.00    -0.361 OA
HETATM   17  H   UNL     1      28.113  79.490  22.751  1.00  0.00     0.217 HD
ENDBRANCH  12  16
ENDBRANCH   9  10
ENDBRANCH   3   9
ENDBRANCH   1   3
TORSDOF 7
ENDMDL
MODEL 8
REMARK VINA RESULT:      -6.1      2.155      3.039
REMARK  7 active torsions:
REMARK  status: ('A' for Active; 'I' for Inactive)
REMARK    1  A    between atoms: O_1  and  C_2 
REMARK    2  A    between atoms: C_2  and  C_3 
REMARK    3  A    between atoms: C_2  and  C_8 
REMARK    4  A    between atoms: C_3  and  C_4 
REMARK    5  A    between atoms: C_4  and  C_5 
REMARK    6  A    between atoms: C_8  and  C_9 
REMARK    7  A    between atoms: C_11  and  O_15 
ROOT
HETATM    1  O   UNL     1      31.642  78.278  19.246  1.00  0.00    -0.395 OA
HETATM    2  H   UNL     1      32.095  78.040  18.423  1.00  0.00     0.210 HD
ENDROOT
BRANCH   1   3
HETATM    3  C   UNL     1      31.957  77.319  20.255  1.00  0.00     0.122 C 
BRANCH   3   4
HETATM    4  C   UNL     1      31.302  77.727  21.585  1.00  0.00     0.042 C 
BRANCH   4   5
HETATM    5  C   UNL     1      30.971  79.219  21.667  1.00  0.00     0.116 C 
BRANCH   5   6
HETATM    6  C   UNL     1      31.917  80.062  22.483  1.00  0.00     0.172 C 
HETATM    7  O   UNL     1      31.887  81.280  22.562  1.00  0.00    -0.648 OA
HETATM    8  O   UNL     1      32.909  79.375  23.084  1.00  0.00    -0.648 OA
ENDBRANCH   5   6
ENDBRANCH   4   5
ENDBRANCH   3   4
BRANCH   3   9
HETATM    9  C   UNL     1      31.474  75.923  19.816  1.00  0.00     0.070 C 
BRANCH   9  10
HETATM   10  C   UNL     1      32.148  74.796  20.569  1.00  0.00    -0.053 A 
HETATM   11  C   UNL     1      31.475  74.127  21.603  1.00  0.00     0.043 A 
HETATM   12  C   UNL     1      32.106  73.089  22.286  1.00  0.00     0.066 A 
HETATM   13  C   UNL     1      33.400  72.703  21.960  1.00  0.00     0.036 A 
HETATM   14  C   UNL     1      34.077  73.361  20.936  1.00  0.00     0.003 A 
HETATM   15  C   UNL     1      33.454  74.402  20.244  1.00  0.00     0.007 A 
BRANCH  12  16
HETATM   16  O   UNL     1      31.480  72.418  23.295  1.00  0.00    -0.361 OA
HETATM   17  H   UNL     1      30.813  72.843  23.796  1.00  0.00     0.217 HD
ENDBRANCH  12  16
ENDBRANCH   9  10
ENDBRANCH   3   9
ENDBRANCH   1   3
TORSDOF 7
ENDMDL
MODEL 9
REMARK VINA RESULT:      -6.0      3.013      4.217
REMARK  7 active torsions:
REMARK  status: ('A' for Active; 'I' for Inactive)
REMARK    1  A    between atoms: O_1  and  C_2 
REMARK    2  A    between atoms: C_2  and  C_3 
REMARK    3  A    between atoms: C_2  and  C_8 
REMARK    4  A    between atoms: C_3  and  C_4 
REMARK    5  A    between atoms: C_4  and  C_5 
REMARK    6  A    between atoms: C_8  and  C_9 
REMARK    7  A    between atoms: C_11  and  O_15 
ROOT
HETATM    1  O   UNL     1      30.835  78.693  22.793  1.00  0.00    -0.395 OA
HETATM    2  H   UNL     1      30.172  78.402  23.438  1.00  0.00     0.210 HD
ENDROOT
BRANCH   1   3
HETATM    3  C   UNL     1      31.140  77.615  21.908  1.00  0.00     0.122 C 
BRANCH   3   4
HETATM    4  C   UNL     1      31.348  78.154  20.483  1.00  0.00     0.042 C 
BRANCH   4   5
HETATM    5  C   UNL     1      30.990  77.142  19.392  1.00  0.00     0.116 C 
BRANCH   5   6
HETATM    6  C   UNL     1      31.106  77.633  17.972  1.00  0.00     0.172 C 
HETATM    7  O   UNL     1      31.989  77.319  17.189  1.00  0.00    -0.648 OA
HETATM    8  O   UNL     1      30.189  78.555  17.617  1.00  0.00    -0.648 OA
ENDBRANCH   5   6
ENDBRANCH   4   5
ENDBRANCH   3   4
BRANCH   3   9
HETATM    9  C   UNL     1      32.401  76.877  22.400  1.00  0.00     0.070 C 
BRANCH   9  10
HETATM   10  C   UNL     1      32.235  75.373  22.434  1.00  0.00    -0.053 A 
HETATM   11  C   UNL     1      33.352  74.531  22.328  1.00  0.00     0.043 A 
HETATM   12  C   UNL     1      33.186  73.147  22.363  1.00  0.00     0.066 A 
HETATM   13  C   UNL     1      31.924  72.583  22.499  1.00  0.00     0.036 A 
HETATM   14  C   UNL     1      30.808  73.411  22.604  1.00  0.00     0.003 A 
HETATM   15  C   UNL     1      30.963  74.798  22.572  1.00  0.00     0.007 A 
BRANCH  12  16
HETATM   16  O   UNL     1      34.251  72.301  22.264  1.00  0.00    -0.361 OA
HETATM   17  H   UNL     1      35.009  72.557  21.776  1.00  0.00     0.217 HD
ENDBRANCH  12  16
ENDBRANCH   9  10
ENDBRANCH   3   9
ENDBRANCH   1   3
TORSDOF 7
ENDMDL
