MODEL 1
REMARK VINA RESULT:      -4.1      0.000      0.000
REMARK  2 active torsions:
REMARK  status: ('A' for Active; 'I' for Inactive)
REMARK    1  A    between atoms: C_3  and  C_4 
REMARK    2  A    between atoms: C_4  and  C_6 
ROOT
ATOM      1  O   UNL A   1      12.594   4.469   7.709  1.00  0.00    -0.648 OA
ATOM      2  O   UNL A   1      13.328   6.489   6.937  1.00  0.00    -0.648 OA
ATOM      3  C   UNL A   1      12.709   5.725   7.733  1.00  0.00     0.172 C 
ENDROOT
BRANCH   3   4
ATOM      4  C   UNL A   1      11.987   6.454   8.871  1.00  0.00     0.113 C 
BRANCH   4   5
ATOM      5  C   UNL A   1      12.348   6.026  10.289  1.00  0.00     0.006 C 
ATOM      6  C   UNL A   1      13.843   6.116  10.562  1.00  0.00     0.005 C 
ENDBRANCH   4   5
ENDBRANCH   3   4
TORSDOF 2
ENDMDL
MODEL 2
REMARK VINA RESULT:      -3.9      1.456      1.638
REMARK  2 active torsions:
REMARK  status: ('A' for Active; 'I' for Inactive)
REMARK    1  A    between atoms: C_3  and  C_4 
REMARK    2  A    between atoms: C_4  and  C_6 
ROOT
ATOM      1  O   UNL A   1      14.487   5.934   9.215  1.00  0.00    -0.648 OA
ATOM      2  O   UNL A   1      13.176   6.117   7.353  1.00  0.00    -0.648 OA
ATOM      3  C   UNL A   1      13.393   6.062   8.598  1.00  0.00     0.172 C 
ENDROOT
BRANCH   3   4
ATOM      4  C   UNL A   1      12.130   6.147   9.462  1.00  0.00     0.113 C 
BRANCH   4   5
ATOM      5  C   UNL A   1      12.153   5.381  10.780  1.00  0.00     0.006 C 
ATOM      6  C   UNL A   1      12.050   6.299  11.989  1.00  0.00     0.005 C 
ENDBRANCH   4   5
ENDBRANCH   3   4
TORSDOF 2
ENDMDL
MODEL 3
REMARK VINA RESULT:      -3.7      2.306      3.153
REMARK  2 active torsions:
REMARK  status: ('A' for Active; 'I' for Inactive)
REMARK    1  A    between atoms: C_3  and  C_4 
REMARK    2  A    between atoms: C_4  and  C_6 
ROOT
ATOM      1  O   UNL A   1      14.131   6.264  11.496  1.00  0.00    -0.648 OA
ATOM      2  O   UNL A   1      15.137   6.120   9.450  1.00  0.00    -0.648 OA
ATOM      3  C   UNL A   1      14.150   6.121  10.242  1.00  0.00     0.172 C 
ENDROOT
BRANCH   3   4
ATOM      4  C   UNL A   1      12.796   5.899   9.561  1.00  0.00     0.113 C 
BRANCH   4   5
ATOM      5  C   UNL A   1      12.823   5.209   8.201  1.00  0.00     0.006 C 
ATOM      6  C   UNL A   1      12.135   6.029   7.119  1.00  0.00     0.005 C 
ENDBRANCH   4   5
ENDBRANCH   3   4
TORSDOF 2
ENDMDL
MODEL 4
REMARK VINA RESULT:      -3.7      2.034      2.696
REMARK  2 active torsions:
REMARK  status: ('A' for Active; 'I' for Inactive)
REMARK    1  A    between atoms: C_3  and  C_4 
REMARK    2  A    between atoms: C_4  and  C_6 
ROOT
ATOM      1  O   UNL A   1      12.075   6.346   9.738  1.00  0.00    -0.648 OA
ATOM      2  O   UNL A   1      13.880   5.714   8.489  1.00  0.00    -0.648 OA
ATOM      3  C   UNL A   1      13.287   6.044   9.556  1.00  0.00     0.172 C 
ENDROOT
BRANCH   3   4
ATOM      4  C   UNL A   1      14.194   6.094  10.790  1.00  0.00     0.113 C 
BRANCH   4   5
ATOM      5  C   UNL A   1      15.693   6.193  10.530  1.00  0.00     0.006 C 
ATOM      6  C   UNL A   1      16.522   5.726  11.718  1.00  0.00     0.005 C 
ENDBRANCH   4   5
ENDBRANCH   3   4
TORSDOF 2
ENDMDL
MODEL 5
REMARK VINA RESULT:      -3.7      2.284      3.042
REMARK  2 active torsions:
REMARK  status: ('A' for Active; 'I' for Inactive)
REMARK    1  A    between atoms: C_3  and  C_4 
REMARK    2  A    between atoms: C_4  and  C_6 
ROOT
ATOM      1  O   UNL A   1      11.524   5.366  11.190  1.00  0.00    -0.648 OA
ATOM      2  O   UNL A   1      13.660   6.094  10.833  1.00  0.00    -0.648 OA
ATOM      3  C   UNL A   1      12.443   5.929  10.531  1.00  0.00     0.172 C 
ENDROOT
BRANCH   3   4
ATOM      4  C   UNL A   1      12.054   6.482   9.156  1.00  0.00     0.113 C 
BRANCH   4   5
ATOM      5  C   UNL A   1      12.882   6.002   7.970  1.00  0.00     0.006 C 
ATOM      6  C   UNL A   1      12.659   4.528   7.662  1.00  0.00     0.005 C 
ENDBRANCH   4   5
ENDBRANCH   3   4
TORSDOF 2
ENDMDL
MODEL 6
REMARK VINA RESULT:      -3.7      2.227      2.922
REMARK  2 active torsions:
REMARK  status: ('A' for Active; 'I' for Inactive)
REMARK    1  A    between atoms: C_3  and  C_4 
REMARK    2  A    between atoms: C_4  and  C_6 
ROOT
ATOM      1  O   UNL A   1      11.455   5.218  11.247  1.00  0.00    -0.648 OA
ATOM      2  O   UNL A   1      12.077   6.604   9.540  1.00  0.00    -0.648 OA
ATOM      3  C   UNL A   1      12.264   5.940  10.601  1.00  0.00     0.172 C 
ENDROOT
BRANCH   3   4
ATOM      4  C   UNL A   1      13.679   6.061  11.178  1.00  0.00     0.113 C 
BRANCH   4   5
ATOM      5  C   UNL A   1      14.818   6.162  10.170  1.00  0.00     0.006 C 
ATOM      6  C   UNL A   1      16.185   5.991  10.817  1.00  0.00     0.005 C 
ENDBRANCH   4   5
ENDBRANCH   3   4
TORSDOF 2
ENDMDL
MODEL 7
REMARK VINA RESULT:      -3.6      2.974      3.446
REMARK  2 active torsions:
REMARK  status: ('A' for Active; 'I' for Inactive)
REMARK    1  A    between atoms: C_3  and  C_4 
REMARK    2  A    between atoms: C_4  and  C_6 
ROOT
ATOM      1  O   UNL A   1      12.049   4.434  11.752  1.00  0.00    -0.648 OA
ATOM      2  O   UNL A   1      11.853   6.563  12.557  1.00  0.00    -0.648 OA
ATOM      3  C   UNL A   1      12.027   5.692  11.655  1.00  0.00     0.172 C 
ENDROOT
BRANCH   3   4
ATOM      4  C   UNL A   1      12.262   6.272  10.257  1.00  0.00     0.113 C 
BRANCH   4   5
ATOM      5  C   UNL A   1      13.607   5.965   9.609  1.00  0.00     0.006 C 
ATOM      6  C   UNL A   1      14.780   6.267  10.532  1.00  0.00     0.005 C 
ENDBRANCH   4   5
ENDBRANCH   3   4
TORSDOF 2
ENDMDL
MODEL 8
REMARK VINA RESULT:      -3.6      2.317      3.104
REMARK  2 active torsions:
REMARK  status: ('A' for Active; 'I' for Inactive)
REMARK    1  A    between atoms: C_3  and  C_4 
REMARK    2  A    between atoms: C_4  and  C_6 
ROOT
ATOM      1  O   UNL A   1      16.325   6.388  10.053  1.00  0.00    -0.648 OA
ATOM      2  O   UNL A   1      14.392   5.971   8.911  1.00  0.00    -0.648 OA
ATOM      3  C   UNL A   1      15.084   6.185   9.948  1.00  0.00     0.172 C 
ENDROOT
BRANCH   3   4
ATOM      4  C   UNL A   1      14.282   6.175  11.253  1.00  0.00     0.113 C 
BRANCH   4   5
ATOM      5  C   UNL A   1      12.770   6.027  11.123  1.00  0.00     0.006 C 
ATOM      6  C   UNL A   1      12.039   6.349  12.418  1.00  0.00     0.005 C 
ENDBRANCH   4   5
ENDBRANCH   3   4
TORSDOF 2
ENDMDL
MODEL 9
REMARK VINA RESULT:      -3.5      4.222      5.284
REMARK  2 active torsions:
REMARK  status: ('A' for Active; 'I' for Inactive)
REMARK    1  A    between atoms: C_3  and  C_4 
REMARK    2  A    between atoms: C_4  and  C_6 
ROOT
ATOM      1  O   UNL A   1      18.240   7.884  10.234  1.00  0.00    -0.648 OA
ATOM      2  O   UNL A   1      18.412   6.012   8.936  1.00  0.00    -0.648 OA
ATOM      3  C   UNL A   1      18.101   6.655   9.981  1.00  0.00     0.172 C 
ENDROOT
BRANCH   3   4
ATOM      4  C   UNL A   1      17.488   5.795  11.091  1.00  0.00     0.113 C 
BRANCH   4   5
ATOM      5  C   UNL A   1      16.052   6.120  11.488  1.00  0.00     0.006 C 
ATOM      6  C   UNL A   1      15.131   6.254  10.285  1.00  0.00     0.005 C 
ENDBRANCH   4   5
ENDBRANCH   3   4
TORSDOF 2
ENDMDL
