MODEL 1
REMARK VINA RESULT:      -4.1      0.000      0.000
REMARK  2 active torsions:
REMARK  status: ('A' for Active; 'I' for Inactive)
REMARK    1  A    between atoms: C_3  and  C_4 
REMARK    2  A    between atoms: C_4  and  C_6 
ROOT
ATOM      1  O   UNL A   1      12.592   4.394   7.715  1.00  0.00    -0.648 OA
ATOM      2  O   UNL A   1      13.282   6.428   6.938  1.00  0.00    -0.648 OA
ATOM      3  C   UNL A   1      12.710   5.650   7.756  1.00  0.00     0.172 C 
ENDROOT
BRANCH   3   4
ATOM      4  C   UNL A   1      12.060   6.357   8.949  1.00  0.00     0.113 C 
BRANCH   4   5
ATOM      5  C   UNL A   1      12.570   5.967  10.332  1.00  0.00     0.006 C 
ATOM      6  C   UNL A   1      14.077   6.138  10.467  1.00  0.00     0.005 C 
ENDBRANCH   4   5
ENDBRANCH   3   4
TORSDOF 2
ENDMDL
MODEL 2
REMARK VINA RESULT:      -4.1      1.323      1.745
REMARK  2 active torsions:
REMARK  status: ('A' for Active; 'I' for Inactive)
REMARK    1  A    between atoms: C_3  and  C_4 
REMARK    2  A    between atoms: C_4  and  C_6 
ROOT
ATOM      1  O   UNL A   1      13.664   6.867   7.227  1.00  0.00    -0.648 OA
ATOM      2  O   UNL A   1      11.708   6.008   6.417  1.00  0.00    -0.648 OA
ATOM      3  C   UNL A   1      12.637   6.134   7.266  1.00  0.00     0.172 C 
ENDROOT
BRANCH   3   4
ATOM      4  C   UNL A   1      12.482   5.246   8.505  1.00  0.00     0.113 C 
BRANCH   4   5
ATOM      5  C   UNL A   1      12.411   5.960   9.850  1.00  0.00     0.006 C 
ATOM      6  C   UNL A   1      12.091   5.012  10.997  1.00  0.00     0.005 C 
ENDBRANCH   4   5
ENDBRANCH   3   4
TORSDOF 2
ENDMDL
MODEL 3
REMARK VINA RESULT:      -3.7      1.968      2.618
REMARK  2 active torsions:
REMARK  status: ('A' for Active; 'I' for Inactive)
REMARK    1  A    between atoms: C_3  and  C_4 
REMARK    2  A    between atoms: C_4  and  C_6 
ROOT
ATOM      1  O   UNL A   1      12.076   6.353   9.771  1.00  0.00    -0.648 OA
ATOM      2  O   UNL A   1      13.855   5.696   8.498  1.00  0.00    -0.648 OA
ATOM      3  C   UNL A   1      13.283   6.042   9.572  1.00  0.00     0.172 C 
ENDROOT
BRANCH   3   4
ATOM      4  C   UNL A   1      14.211   6.100  10.790  1.00  0.00     0.113 C 
BRANCH   4   5
ATOM      5  C   UNL A   1      15.697   6.291  10.504  1.00  0.00     0.006 C 
ATOM      6  C   UNL A   1      16.579   5.725  11.608  1.00  0.00     0.005 C 
ENDBRANCH   4   5
ENDBRANCH   3   4
TORSDOF 2
ENDMDL
MODEL 4
REMARK VINA RESULT:      -3.7      2.267      3.234
REMARK  2 active torsions:
REMARK  status: ('A' for Active; 'I' for Inactive)
REMARK    1  A    between atoms: C_3  and  C_4 
REMARK    2  A    between atoms: C_4  and  C_6 
ROOT
ATOM      1  O   UNL A   1      15.005   6.225   9.501  1.00  0.00    -0.648 OA
ATOM      2  O   UNL A   1      14.004   6.027  11.545  1.00  0.00    -0.648 OA
ATOM      3  C   UNL A   1      14.023   6.084  10.281  1.00  0.00     0.172 C 
ENDROOT
BRANCH   3   4
ATOM      4  C   UNL A   1      12.642   5.982   9.626  1.00  0.00     0.113 C 
BRANCH   4   5
ATOM      5  C   UNL A   1      12.556   5.164   8.342  1.00  0.00     0.006 C 
ATOM      6  C   UNL A   1      12.198   6.016   7.132  1.00  0.00     0.005 C 
ENDBRANCH   4   5
ENDBRANCH   3   4
TORSDOF 2
ENDMDL
MODEL 5
REMARK VINA RESULT:      -3.7      2.529      3.358
REMARK  2 active torsions:
REMARK  status: ('A' for Active; 'I' for Inactive)
REMARK    1  A    between atoms: C_3  and  C_4 
REMARK    2  A    between atoms: C_4  and  C_6 
ROOT
ATOM      1  O   UNL A   1      11.504   5.432  11.005  1.00  0.00    -0.648 OA
ATOM      2  O   UNL A   1      13.664   5.623  11.722  1.00  0.00    -0.648 OA
ATOM      3  C   UNL A   1      12.740   5.639  10.858  1.00  0.00     0.172 C 
ENDROOT
BRANCH   3   4
ATOM      4  C   UNL A   1      13.216   5.935   9.432  1.00  0.00     0.113 C 
BRANCH   4   5
ATOM      5  C   UNL A   1      12.551   5.141   8.313  1.00  0.00     0.006 C 
ATOM      6  C   UNL A   1      12.207   6.007   7.110  1.00  0.00     0.005 C 
ENDBRANCH   4   5
ENDBRANCH   3   4
TORSDOF 2
ENDMDL
MODEL 6
REMARK VINA RESULT:      -3.7      1.982      2.692
REMARK  2 active torsions:
REMARK  status: ('A' for Active; 'I' for Inactive)
REMARK    1  A    between atoms: C_3  and  C_4 
REMARK    2  A    between atoms: C_4  and  C_6 
ROOT
ATOM      1  O   UNL A   1      13.833   5.687   8.478  1.00  0.00    -0.648 OA
ATOM      2  O   UNL A   1      12.109   6.344   9.826  1.00  0.00    -0.648 OA
ATOM      3  C   UNL A   1      13.309   6.031   9.574  1.00  0.00     0.172 C 
ENDROOT
BRANCH   3   4
ATOM      4  C   UNL A   1      14.238   6.064  10.792  1.00  0.00     0.113 C 
BRANCH   4   5
ATOM      5  C   UNL A   1      15.714   6.322  10.516  1.00  0.00     0.006 C 
ATOM      6  C   UNL A   1      16.620   5.712  11.575  1.00  0.00     0.005 C 
ENDBRANCH   4   5
ENDBRANCH   3   4
TORSDOF 2
ENDMDL
MODEL 7
REMARK VINA RESULT:      -3.6      3.012      3.814
REMARK  2 active torsions:
REMARK  status: ('A' for Active; 'I' for Inactive)
REMARK    1  A    between atoms: C_3  and  C_4 
REMARK    2  A    between atoms: C_4  and  C_6 
ROOT
ATOM      1  O   UNL A   1      11.537   5.543  10.958  1.00  0.00    -0.648 OA
ATOM      2  O   UNL A   1      11.750   6.668  12.935  1.00  0.00    -0.648 OA
ATOM      3  C   UNL A   1      12.181   6.051  11.918  1.00  0.00     0.172 C 
ENDROOT
BRANCH   3   4
ATOM      4  C   UNL A   1      13.704   5.894  11.875  1.00  0.00     0.113 C 
BRANCH   4   5
ATOM      5  C   UNL A   1      14.380   6.170  10.537  1.00  0.00     0.006 C 
ATOM      6  C   UNL A   1      15.898   6.112  10.627  1.00  0.00     0.005 C 
ENDBRANCH   4   5
ENDBRANCH   3   4
TORSDOF 2
ENDMDL
MODEL 8
REMARK VINA RESULT:      -3.6      2.827      3.591
REMARK  2 active torsions:
REMARK  status: ('A' for Active; 'I' for Inactive)
REMARK    1  A    between atoms: C_3  and  C_4 
REMARK    2  A    between atoms: C_4  and  C_6 
ROOT
ATOM      1  O   UNL A   1      12.050   6.599  12.474  1.00  0.00    -0.648 OA
ATOM      2  O   UNL A   1      11.387   5.183  10.808  1.00  0.00    -0.648 OA
ATOM      3  C   UNL A   1      12.199   5.951  11.401  1.00  0.00     0.172 C 
ENDROOT
BRANCH   3   4
ATOM      4  C   UNL A   1      13.544   6.118  10.686  1.00  0.00     0.113 C 
BRANCH   4   5
ATOM      5  C   UNL A   1      14.794   6.001  11.551  1.00  0.00     0.006 C 
ATOM      6  C   UNL A   1      16.069   6.295  10.775  1.00  0.00     0.005 C 
ENDBRANCH   4   5
ENDBRANCH   3   4
TORSDOF 2
ENDMDL
MODEL 9
REMARK VINA RESULT:      -3.5      2.052      2.716
REMARK  2 active torsions:
REMARK  status: ('A' for Active; 'I' for Inactive)
REMARK    1  A    between atoms: C_3  and  C_4 
REMARK    2  A    between atoms: C_4  and  C_6 
ROOT
ATOM      1  O   UNL A   1      13.839   5.973   8.674  1.00  0.00    -0.648 OA
ATOM      2  O   UNL A   1      15.691   6.727   9.779  1.00  0.00    -0.648 OA
ATOM      3  C   UNL A   1      14.533   6.222   9.698  1.00  0.00     0.172 C 
ENDROOT
BRANCH   3   4
ATOM      4  C   UNL A   1      13.895   5.892  11.051  1.00  0.00     0.113 C 
BRANCH   4   5
ATOM      5  C   UNL A   1      12.397   6.142  11.177  1.00  0.00     0.006 C 
ATOM      6  C   UNL A   1      11.965   6.385  12.616  1.00  0.00     0.005 C 
ENDBRANCH   4   5
ENDBRANCH   3   4
TORSDOF 2
ENDMDL
