MODEL 1
REMARK VINA RESULT:      -4.1      0.000      0.000
REMARK  2 active torsions:
REMARK  status: ('A' for Active; 'I' for Inactive)
REMARK    1  A    between atoms: C_3  and  C_4 
REMARK    2  A    between atoms: C_4  and  C_6 
ROOT
ATOM      1  O   UNL A   1      12.594   4.397   7.708  1.00  0.00    -0.648 OA
ATOM      2  O   UNL A   1      13.276   6.438   6.940  1.00  0.00    -0.648 OA
ATOM      3  C   UNL A   1      12.718   5.652   7.761  1.00  0.00     0.172 C 
ENDROOT
BRANCH   3   4
ATOM      4  C   UNL A   1      12.096   6.349   8.975  1.00  0.00     0.113 C 
BRANCH   4   5
ATOM      5  C   UNL A   1      12.656   5.964  10.341  1.00  0.00     0.006 C 
ATOM      6  C   UNL A   1      14.166   6.134  10.420  1.00  0.00     0.005 C 
ENDBRANCH   4   5
ENDBRANCH   3   4
TORSDOF 2
ENDMDL
MODEL 2
REMARK VINA RESULT:      -4.1      0.213      1.335
REMARK  2 active torsions:
REMARK  status: ('A' for Active; 'I' for Inactive)
REMARK    1  A    between atoms: C_3  and  C_4 
REMARK    2  A    between atoms: C_4  and  C_6 
ROOT
ATOM      1  O   UNL A   1      13.359   6.495   6.959  1.00  0.00    -0.648 OA
ATOM      2  O   UNL A   1      12.571   4.480   7.690  1.00  0.00    -0.648 OA
ATOM      3  C   UNL A   1      12.699   5.738   7.723  1.00  0.00     0.172 C 
ENDROOT
BRANCH   3   4
ATOM      4  C   UNL A   1      11.950   6.417   8.875  1.00  0.00     0.113 C 
BRANCH   4   5
ATOM      5  C   UNL A   1      12.351   6.002  10.286  1.00  0.00     0.006 C 
ATOM      6  C   UNL A   1      13.848   6.130  10.527  1.00  0.00     0.005 C 
ENDBRANCH   4   5
ENDBRANCH   3   4
TORSDOF 2
ENDMDL
MODEL 3
REMARK VINA RESULT:      -4.0      1.355      1.428
REMARK  2 active torsions:
REMARK  status: ('A' for Active; 'I' for Inactive)
REMARK    1  A    between atoms: C_3  and  C_4 
REMARK    2  A    between atoms: C_4  and  C_6 
ROOT
ATOM      1  O   UNL A   1      14.145   5.771   8.457  1.00  0.00    -0.648 OA
ATOM      2  O   UNL A   1      12.578   6.368   6.906  1.00  0.00    -0.648 OA
ATOM      3  C   UNL A   1      13.002   6.148   8.077  1.00  0.00     0.172 C 
ENDROOT
BRANCH   3   4
ATOM      4  C   UNL A   1      11.954   6.358   9.176  1.00  0.00     0.113 C 
BRANCH   4   5
ATOM      5  C   UNL A   1      12.061   5.456  10.400  1.00  0.00     0.006 C 
ATOM      6  C   UNL A   1      12.133   6.244  11.700  1.00  0.00     0.005 C 
ENDBRANCH   4   5
ENDBRANCH   3   4
TORSDOF 2
ENDMDL
MODEL 4
REMARK VINA RESULT:      -3.7      2.269      3.090
REMARK  2 active torsions:
REMARK  status: ('A' for Active; 'I' for Inactive)
REMARK    1  A    between atoms: C_3  and  C_4 
REMARK    2  A    between atoms: C_4  and  C_6 
ROOT
ATOM      1  O   UNL A   1      14.169   6.133  11.502  1.00  0.00    -0.648 OA
ATOM      2  O   UNL A   1      15.023   6.109   9.384  1.00  0.00    -0.648 OA
ATOM      3  C   UNL A   1      14.095   6.080  10.243  1.00  0.00     0.172 C 
ENDROOT
BRANCH   3   4
ATOM      4  C   UNL A   1      12.690   5.942   9.648  1.00  0.00     0.113 C 
BRANCH   4   5
ATOM      5  C   UNL A   1      12.580   5.183   8.330  1.00  0.00     0.006 C 
ATOM      6  C   UNL A   1      12.218   6.092   7.164  1.00  0.00     0.005 C 
ENDBRANCH   4   5
ENDBRANCH   3   4
TORSDOF 2
ENDMDL
MODEL 5
REMARK VINA RESULT:      -3.7      2.009      2.672
REMARK  2 active torsions:
REMARK  status: ('A' for Active; 'I' for Inactive)
REMARK    1  A    between atoms: C_3  and  C_4 
REMARK    2  A    between atoms: C_4  and  C_6 
ROOT
ATOM      1  O   UNL A   1      12.135   6.408   9.877  1.00  0.00    -0.648 OA
ATOM      2  O   UNL A   1      13.895   5.739   8.584  1.00  0.00    -0.648 OA
ATOM      3  C   UNL A   1      13.333   6.069   9.668  1.00  0.00     0.172 C 
ENDROOT
BRANCH   3   4
ATOM      4  C   UNL A   1      14.262   6.065  10.886  1.00  0.00     0.113 C 
BRANCH   4   5
ATOM      5  C   UNL A   1      15.754   6.198  10.604  1.00  0.00     0.006 C 
ATOM      6  C   UNL A   1      16.612   5.714  11.764  1.00  0.00     0.005 C 
ENDBRANCH   4   5
ENDBRANCH   3   4
TORSDOF 2
ENDMDL
MODEL 6
REMARK VINA RESULT:      -3.7      2.497      3.443
REMARK  2 active torsions:
REMARK  status: ('A' for Active; 'I' for Inactive)
REMARK    1  A    between atoms: C_3  and  C_4 
REMARK    2  A    between atoms: C_4  and  C_6 
ROOT
ATOM      1  O   UNL A   1      13.474   5.919  11.880  1.00  0.00    -0.648 OA
ATOM      2  O   UNL A   1      11.477   5.339  10.933  1.00  0.00    -0.648 OA
ATOM      3  C   UNL A   1      12.688   5.706  10.915  1.00  0.00     0.172 C 
ENDROOT
BRANCH   3   4
ATOM      4  C   UNL A   1      13.256   5.935   9.510  1.00  0.00     0.113 C 
BRANCH   4   5
ATOM      5  C   UNL A   1      12.578   5.182   8.371  1.00  0.00     0.006 C 
ATOM      6  C   UNL A   1      12.349   6.059   7.148  1.00  0.00     0.005 C 
ENDBRANCH   4   5
ENDBRANCH   3   4
TORSDOF 2
ENDMDL
MODEL 7
REMARK VINA RESULT:      -3.7      2.145      3.034
REMARK  2 active torsions:
REMARK  status: ('A' for Active; 'I' for Inactive)
REMARK    1  A    between atoms: C_3  and  C_4 
REMARK    2  A    between atoms: C_4  and  C_6 
ROOT
ATOM      1  O   UNL A   1      12.081   6.575   9.458  1.00  0.00    -0.648 OA
ATOM      2  O   UNL A   1      11.429   5.213  11.173  1.00  0.00    -0.648 OA
ATOM      3  C   UNL A   1      12.244   5.946  10.541  1.00  0.00     0.172 C 
ENDROOT
BRANCH   3   4
ATOM      4  C   UNL A   1      13.626   6.058  11.192  1.00  0.00     0.113 C 
BRANCH   4   5
ATOM      5  C   UNL A   1      14.810   6.242  10.248  1.00  0.00     0.006 C 
ATOM      6  C   UNL A   1      16.030   6.820  10.951  1.00  0.00     0.005 C 
ENDBRANCH   4   5
ENDBRANCH   3   4
TORSDOF 2
ENDMDL
MODEL 8
REMARK VINA RESULT:      -3.6      2.118      2.905
REMARK  2 active torsions:
REMARK  status: ('A' for Active; 'I' for Inactive)
REMARK    1  A    between atoms: C_3  and  C_4 
REMARK    2  A    between atoms: C_4  and  C_6 
ROOT
ATOM      1  O   UNL A   1      13.977   5.806   8.663  1.00  0.00    -0.648 OA
ATOM      2  O   UNL A   1      12.281   6.268  10.122  1.00  0.00    -0.648 OA
ATOM      3  C   UNL A   1      13.488   6.079   9.795  1.00  0.00     0.172 C 
ENDROOT
BRANCH   3   4
ATOM      4  C   UNL A   1      14.480   6.182  10.958  1.00  0.00     0.113 C 
BRANCH   4   5
ATOM      5  C   UNL A   1      15.960   6.106  10.601  1.00  0.00     0.006 C 
ATOM      6  C   UNL A   1      16.827   5.717  11.789  1.00  0.00     0.005 C 
ENDBRANCH   4   5
ENDBRANCH   3   4
TORSDOF 2
ENDMDL
MODEL 9
REMARK VINA RESULT:      -3.6      2.368      3.071
REMARK  2 active torsions:
REMARK  status: ('A' for Active; 'I' for Inactive)
REMARK    1  A    between atoms: C_3  and  C_4 
REMARK    2  A    between atoms: C_4  and  C_6 
ROOT
ATOM      1  O   UNL A   1      11.639   5.908  11.670  1.00  0.00    -0.648 OA
ATOM      2  O   UNL A   1      12.427   6.359   9.573  1.00  0.00    -0.648 OA
ATOM      3  C   UNL A   1      12.540   6.098  10.806  1.00  0.00     0.172 C 
ENDROOT
BRANCH   3   4
ATOM      4  C   UNL A   1      13.987   6.027  11.305  1.00  0.00     0.113 C 
BRANCH   4   5
ATOM      5  C   UNL A   1      15.077   6.282  10.270  1.00  0.00     0.006 C 
ATOM      6  C   UNL A   1      16.466   5.946  10.792  1.00  0.00     0.005 C 
ENDBRANCH   4   5
ENDBRANCH   3   4
TORSDOF 2
ENDMDL
