MODEL 1
REMARK VINA RESULT:      -4.4      0.000      0.000
REMARK  2 active torsions:
REMARK  status: ('A' for Active; 'I' for Inactive)
REMARK    1  A    between atoms: C_3  and  C_4 
REMARK    2  A    between atoms: C_4  and  C_6 
ROOT
ATOM      1  O   UNL A   1      22.208  -2.211  36.465  1.00  0.00    -0.648 OA
ATOM      2  O   UNL A   1      23.646  -1.212  34.997  1.00  0.00    -0.648 OA
ATOM      3  C   UNL A   1      22.529  -1.678  35.366  1.00  0.00     0.172 C 
ENDROOT
BRANCH   3   4
ATOM      4  C   UNL A   1      21.427  -1.588  34.305  1.00  0.00     0.113 C 
BRANCH   4   5
ATOM      5  C   UNL A   1      21.556  -2.526  33.110  1.00  0.00     0.006 C 
ATOM      6  C   UNL A   1      20.752  -2.051  31.908  1.00  0.00     0.005 C 
ENDBRANCH   4   5
ENDBRANCH   3   4
TORSDOF 2
ENDMDL
MODEL 2
REMARK VINA RESULT:      -4.4      0.414      1.382
REMARK  2 active torsions:
REMARK  status: ('A' for Active; 'I' for Inactive)
REMARK    1  A    between atoms: C_3  and  C_4 
REMARK    2  A    between atoms: C_4  and  C_6 
ROOT
ATOM      1  O   UNL A   1      23.649  -1.163  34.972  1.00  0.00    -0.648 OA
ATOM      2  O   UNL A   1      22.255  -2.202  36.454  1.00  0.00    -0.648 OA
ATOM      3  C   UNL A   1      22.554  -1.667  35.347  1.00  0.00     0.172 C 
ENDROOT
BRANCH   3   4
ATOM      4  C   UNL A   1      21.401  -1.620  34.339  1.00  0.00     0.113 C 
BRANCH   4   5
ATOM      5  C   UNL A   1      21.787  -1.579  32.865  1.00  0.00     0.006 C 
ATOM      6  C   UNL A   1      20.664  -2.054  31.955  1.00  0.00     0.005 C 
ENDBRANCH   4   5
ENDBRANCH   3   4
TORSDOF 2
ENDMDL
MODEL 3
REMARK VINA RESULT:      -4.1      1.373      1.521
REMARK  2 active torsions:
REMARK  status: ('A' for Active; 'I' for Inactive)
REMARK    1  A    between atoms: C_3  and  C_4 
REMARK    2  A    between atoms: C_4  and  C_6 
ROOT
ATOM      1  O   UNL A   1      22.455  -3.712  34.144  1.00  0.00    -0.648 OA
ATOM      2  O   UNL A   1      22.517  -2.155  35.814  1.00  0.00    -0.648 OA
ATOM      3  C   UNL A   1      22.188  -2.599  34.676  1.00  0.00     0.172 C 
ENDROOT
BRANCH   3   4
ATOM      4  C   UNL A   1      21.361  -1.621  33.834  1.00  0.00     0.113 C 
BRANCH   4   5
ATOM      5  C   UNL A   1      21.646  -1.604  32.336  1.00  0.00     0.006 C 
ATOM      6  C   UNL A   1      20.471  -2.115  31.514  1.00  0.00     0.005 C 
ENDBRANCH   4   5
ENDBRANCH   3   4
TORSDOF 2
ENDMDL
MODEL 4
REMARK VINA RESULT:      -3.9      1.269      1.310
REMARK  2 active torsions:
REMARK  status: ('A' for Active; 'I' for Inactive)
REMARK    1  A    between atoms: C_3  and  C_4 
REMARK    2  A    between atoms: C_4  and  C_6 
ROOT
ATOM      1  O   UNL A   1      21.590  -1.245  35.597  1.00  0.00    -0.648 OA
ATOM      2  O   UNL A   1      22.645  -3.060  34.697  1.00  0.00    -0.648 OA
ATOM      3  C   UNL A   1      21.979  -1.986  34.652  1.00  0.00     0.172 C 
ENDROOT
BRANCH   3   4
ATOM      4  C   UNL A   1      21.582  -1.550  33.237  1.00  0.00     0.113 C 
BRANCH   4   5
ATOM      5  C   UNL A   1      21.262  -2.663  32.247  1.00  0.00     0.006 C 
ATOM      6  C   UNL A   1      20.309  -2.211  31.150  1.00  0.00     0.005 C 
ENDBRANCH   4   5
ENDBRANCH   3   4
TORSDOF 2
ENDMDL
MODEL 5
REMARK VINA RESULT:      -3.9      2.372      3.271
REMARK  2 active torsions:
REMARK  status: ('A' for Active; 'I' for Inactive)
REMARK    1  A    between atoms: C_3  and  C_4 
REMARK    2  A    between atoms: C_4  and  C_6 
ROOT
ATOM      1  O   UNL A   1      22.249  -4.318  33.916  1.00  0.00    -0.648 OA
ATOM      2  O   UNL A   1      21.521  -3.609  31.871  1.00  0.00    -0.648 OA
ATOM      3  C   UNL A   1      21.810  -3.467  33.094  1.00  0.00     0.172 C 
ENDROOT
BRANCH   3   4
ATOM      4  C   UNL A   1      21.567  -2.055  33.639  1.00  0.00     0.113 C 
BRANCH   4   5
ATOM      5  C   UNL A   1      22.681  -1.453  34.488  1.00  0.00     0.006 C 
ATOM      6  C   UNL A   1      22.318  -1.387  35.964  1.00  0.00     0.005 C 
ENDBRANCH   4   5
ENDBRANCH   3   4
TORSDOF 2
ENDMDL
MODEL 6
REMARK VINA RESULT:      -3.8      2.492      3.049
REMARK  2 active torsions:
REMARK  status: ('A' for Active; 'I' for Inactive)
REMARK    1  A    between atoms: C_3  and  C_4 
REMARK    2  A    between atoms: C_4  and  C_6 
ROOT
ATOM      1  O   UNL A   1      21.401  -1.833  34.148  1.00  0.00    -0.648 OA
ATOM      2  O   UNL A   1      21.390  -1.075  31.993  1.00  0.00    -0.648 OA
ATOM      3  C   UNL A   1      21.421  -1.964  32.893  1.00  0.00     0.172 C 
ENDROOT
BRANCH   3   4
ATOM      4  C   UNL A   1      21.513  -3.397  32.359  1.00  0.00     0.113 C 
BRANCH   4   5
ATOM      5  C   UNL A   1      22.060  -4.447  33.319  1.00  0.00     0.006 C 
ATOM      6  C   UNL A   1      22.576  -5.684  32.598  1.00  0.00     0.005 C 
ENDBRANCH   4   5
ENDBRANCH   3   4
TORSDOF 2
ENDMDL
MODEL 7
REMARK VINA RESULT:      -3.8      2.513      3.525
REMARK  2 active torsions:
REMARK  status: ('A' for Active; 'I' for Inactive)
REMARK    1  A    between atoms: C_3  and  C_4 
REMARK    2  A    between atoms: C_4  and  C_6 
ROOT
ATOM      1  O   UNL A   1      21.328  -3.446  31.751  1.00  0.00    -0.648 OA
ATOM      2  O   UNL A   1      21.313  -1.181  32.043  1.00  0.00    -0.648 OA
ATOM      3  C   UNL A   1      21.481  -2.380  32.409  1.00  0.00     0.172 C 
ENDROOT
BRANCH   3   4
ATOM      4  C   UNL A   1      21.917  -2.537  33.869  1.00  0.00     0.113 C 
BRANCH   4   5
ATOM      5  C   UNL A   1      21.440  -1.464  34.841  1.00  0.00     0.006 C 
ATOM      6  C   UNL A   1      22.414  -1.243  35.989  1.00  0.00     0.005 C 
ENDBRANCH   4   5
ENDBRANCH   3   4
TORSDOF 2
ENDMDL
MODEL 8
REMARK VINA RESULT:      -3.7      2.627      3.152
REMARK  2 active torsions:
REMARK  status: ('A' for Active; 'I' for Inactive)
REMARK    1  A    between atoms: C_3  and  C_4 
REMARK    2  A    between atoms: C_4  and  C_6 
ROOT
ATOM      1  O   UNL A   1      21.052  -1.773  33.225  1.00  0.00    -0.648 OA
ATOM      2  O   UNL A   1      22.506  -2.935  34.550  1.00  0.00    -0.648 OA
ATOM      3  C   UNL A   1      21.779  -2.759  33.530  1.00  0.00     0.172 C 
ENDROOT
BRANCH   3   4
ATOM      4  C   UNL A   1      21.781  -3.933  32.545  1.00  0.00     0.113 C 
BRANCH   4   5
ATOM      5  C   UNL A   1      22.230  -5.282  33.095  1.00  0.00     0.006 C 
ATOM      6  C   UNL A   1      22.682  -6.237  31.999  1.00  0.00     0.005 C 
ENDBRANCH   4   5
ENDBRANCH   3   4
TORSDOF 2
ENDMDL
MODEL 9
REMARK VINA RESULT:      -3.7      3.377      3.882
REMARK  2 active torsions:
REMARK  status: ('A' for Active; 'I' for Inactive)
REMARK    1  A    between atoms: C_3  and  C_4 
REMARK    2  A    between atoms: C_4  and  C_6 
ROOT
ATOM      1  O   UNL A   1      22.515  -5.551  31.594  1.00  0.00    -0.648 OA
ATOM      2  O   UNL A   1      23.003  -6.112  33.754  1.00  0.00    -0.648 OA
ATOM      3  C   UNL A   1      22.544  -5.365  32.842  1.00  0.00     0.172 C 
ENDROOT
BRANCH   3   4
ATOM      4  C   UNL A   1      21.960  -4.041  33.347  1.00  0.00     0.113 C 
BRANCH   4   5
ATOM      5  C   UNL A   1      21.406  -3.094  32.289  1.00  0.00     0.006 C 
ATOM      6  C   UNL A   1      21.377  -1.647  32.761  1.00  0.00     0.005 C 
ENDBRANCH   4   5
ENDBRANCH   3   4
TORSDOF 2
ENDMDL
