MODEL 1
REMARK VINA RESULT:      -4.4      0.000      0.000
REMARK  2 active torsions:
REMARK  status: ('A' for Active; 'I' for Inactive)
REMARK    1  A    between atoms: C_3  and  C_4 
REMARK    2  A    between atoms: C_4  and  C_6 
ROOT
ATOM      1  O   UNL A   1      22.225  -2.213  36.471  1.00  0.00    -0.648 OA
ATOM      2  O   UNL A   1      23.591  -1.184  34.956  1.00  0.00    -0.648 OA
ATOM      3  C   UNL A   1      22.499  -1.682  35.359  1.00  0.00     0.172 C 
ENDROOT
BRANCH   3   4
ATOM      4  C   UNL A   1      21.369  -1.640  34.326  1.00  0.00     0.113 C 
BRANCH   4   5
ATOM      5  C   UNL A   1      21.787  -1.584  32.861  1.00  0.00     0.006 C 
ATOM      6  C   UNL A   1      20.686  -2.057  31.923  1.00  0.00     0.005 C 
ENDBRANCH   4   5
ENDBRANCH   3   4
TORSDOF 2
ENDMDL
MODEL 2
REMARK VINA RESULT:      -4.4      0.039      1.319
REMARK  2 active torsions:
REMARK  status: ('A' for Active; 'I' for Inactive)
REMARK    1  A    between atoms: C_3  and  C_4 
REMARK    2  A    between atoms: C_4  and  C_6 
ROOT
ATOM      1  O   UNL A   1      23.642  -1.166  34.986  1.00  0.00    -0.648 OA
ATOM      2  O   UNL A   1      22.237  -2.191  36.468  1.00  0.00    -0.648 OA
ATOM      3  C   UNL A   1      22.544  -1.666  35.358  1.00  0.00     0.172 C 
ENDROOT
BRANCH   3   4
ATOM      4  C   UNL A   1      21.398  -1.627  34.342  1.00  0.00     0.113 C 
BRANCH   4   5
ATOM      5  C   UNL A   1      21.794  -1.580  32.871  1.00  0.00     0.006 C 
ATOM      6  C   UNL A   1      20.674  -2.047  31.951  1.00  0.00     0.005 C 
ENDBRANCH   4   5
ENDBRANCH   3   4
TORSDOF 2
ENDMDL
MODEL 3
REMARK VINA RESULT:      -3.9      2.464      3.250
REMARK  2 active torsions:
REMARK  status: ('A' for Active; 'I' for Inactive)
REMARK    1  A    between atoms: C_3  and  C_4 
REMARK    2  A    between atoms: C_4  and  C_6 
ROOT
ATOM      1  O   UNL A   1      22.303  -4.249  33.886  1.00  0.00    -0.648 OA
ATOM      2  O   UNL A   1      21.319  -3.601  31.929  1.00  0.00    -0.648 OA
ATOM      3  C   UNL A   1      21.759  -3.423  33.102  1.00  0.00     0.172 C 
ENDROOT
BRANCH   3   4
ATOM      4  C   UNL A   1      21.577  -1.997  33.633  1.00  0.00     0.113 C 
BRANCH   4   5
ATOM      5  C   UNL A   1      22.703  -1.445  34.499  1.00  0.00     0.006 C 
ATOM      6  C   UNL A   1      22.317  -1.354  35.969  1.00  0.00     0.005 C 
ENDBRANCH   4   5
ENDBRANCH   3   4
TORSDOF 2
ENDMDL
MODEL 4
REMARK VINA RESULT:      -3.8      2.623      3.643
REMARK  2 active torsions:
REMARK  status: ('A' for Active; 'I' for Inactive)
REMARK    1  A    between atoms: C_3  and  C_4 
REMARK    2  A    between atoms: C_4  and  C_6 
ROOT
ATOM      1  O   UNL A   1      20.369  -1.960  31.486  1.00  0.00    -0.648 OA
ATOM      2  O   UNL A   1      21.795  -3.555  32.286  1.00  0.00    -0.648 OA
ATOM      3  C   UNL A   1      21.132  -2.479  32.346  1.00  0.00     0.172 C 
ENDROOT
BRANCH   3   4
ATOM      4  C   UNL A   1      21.314  -1.701  33.654  1.00  0.00     0.113 C 
BRANCH   4   5
ATOM      5  C   UNL A   1      22.335  -2.257  34.640  1.00  0.00     0.006 C 
ATOM      6  C   UNL A   1      22.382  -1.464  35.939  1.00  0.00     0.005 C 
ENDBRANCH   4   5
ENDBRANCH   3   4
TORSDOF 2
ENDMDL
MODEL 5
REMARK VINA RESULT:      -3.8      3.032      3.277
REMARK  2 active torsions:
REMARK  status: ('A' for Active; 'I' for Inactive)
REMARK    1  A    between atoms: C_3  and  C_4 
REMARK    2  A    between atoms: C_4  and  C_6 
ROOT
ATOM      1  O   UNL A   1      21.012  -1.824  33.311  1.00  0.00    -0.648 OA
ATOM      2  O   UNL A   1      22.458  -3.067  34.570  1.00  0.00    -0.648 OA
ATOM      3  C   UNL A   1      21.735  -2.829  33.559  1.00  0.00     0.172 C 
ENDROOT
BRANCH   3   4
ATOM      4  C   UNL A   1      21.739  -3.942  32.506  1.00  0.00     0.113 C 
BRANCH   4   5
ATOM      5  C   UNL A   1      22.270  -5.299  32.952  1.00  0.00     0.006 C 
ATOM      6  C   UNL A   1      21.156  -6.258  33.349  1.00  0.00     0.005 C 
ENDBRANCH   4   5
ENDBRANCH   3   4
TORSDOF 2
ENDMDL
MODEL 6
REMARK VINA RESULT:      -3.7      2.936      3.115
REMARK  2 active torsions:
REMARK  status: ('A' for Active; 'I' for Inactive)
REMARK    1  A    between atoms: C_3  and  C_4 
REMARK    2  A    between atoms: C_4  and  C_6 
ROOT
ATOM      1  O   UNL A   1      22.442  -3.002  34.629  1.00  0.00    -0.648 OA
ATOM      2  O   UNL A   1      21.055  -1.697  33.367  1.00  0.00    -0.648 OA
ATOM      3  C   UNL A   1      21.734  -2.735  33.619  1.00  0.00     0.172 C 
ENDROOT
BRANCH   3   4
ATOM      4  C   UNL A   1      21.688  -3.800  32.518  1.00  0.00     0.113 C 
BRANCH   4   5
ATOM      5  C   UNL A   1      22.287  -5.159  32.862  1.00  0.00     0.006 C 
ATOM      6  C   UNL A   1      22.517  -6.022  31.629  1.00  0.00     0.005 C 
ENDBRANCH   4   5
ENDBRANCH   3   4
TORSDOF 2
ENDMDL
MODEL 7
REMARK VINA RESULT:      -3.6      3.384      3.990
REMARK  2 active torsions:
REMARK  status: ('A' for Active; 'I' for Inactive)
REMARK    1  A    between atoms: C_3  and  C_4 
REMARK    2  A    between atoms: C_4  and  C_6 
ROOT
ATOM      1  O   UNL A   1      21.490  -0.995  32.203  1.00  0.00    -0.648 OA
ATOM      2  O   UNL A   1      20.207  -2.484  31.039  1.00  0.00    -0.648 OA
ATOM      3  C   UNL A   1      21.047  -2.143  31.922  1.00  0.00     0.172 C 
ENDROOT
BRANCH   3   4
ATOM      4  C   UNL A   1      21.607  -3.309  32.742  1.00  0.00     0.113 C 
BRANCH   4   5
ATOM      5  C   UNL A   1      21.780  -4.635  32.010  1.00  0.00     0.006 C 
ATOM      6  C   UNL A   1      22.535  -5.664  32.839  1.00  0.00     0.005 C 
ENDBRANCH   4   5
ENDBRANCH   3   4
TORSDOF 2
ENDMDL
MODEL 8
REMARK VINA RESULT:      -3.6      3.707      3.989
REMARK  2 active torsions:
REMARK  status: ('A' for Active; 'I' for Inactive)
REMARK    1  A    between atoms: C_3  and  C_4 
REMARK    2  A    between atoms: C_4  and  C_6 
ROOT
ATOM      1  O   UNL A   1      22.868  -5.603  33.726  1.00  0.00    -0.648 OA
ATOM      2  O   UNL A   1      22.766  -6.285  31.548  1.00  0.00    -0.648 OA
ATOM      3  C   UNL A   1      22.534  -5.500  32.514  1.00  0.00     0.172 C 
ENDROOT
BRANCH   3   4
ATOM      4  C   UNL A   1      21.713  -4.263  32.136  1.00  0.00     0.113 C 
BRANCH   4   5
ATOM      5  C   UNL A   1      21.649  -3.146  33.172  1.00  0.00     0.006 C 
ATOM      6  C   UNL A   1      21.127  -1.841  32.589  1.00  0.00     0.005 C 
ENDBRANCH   4   5
ENDBRANCH   3   4
TORSDOF 2
ENDMDL
MODEL 9
REMARK VINA RESULT:      -3.6      2.954      3.908
REMARK  2 active torsions:
REMARK  status: ('A' for Active; 'I' for Inactive)
REMARK    1  A    between atoms: C_3  and  C_4 
REMARK    2  A    between atoms: C_4  and  C_6 
ROOT
ATOM      1  O   UNL A   1      21.703  -3.379  31.367  1.00  0.00    -0.648 OA
ATOM      2  O   UNL A   1      19.903  -2.000  31.094  1.00  0.00    -0.648 OA
ATOM      3  C   UNL A   1      20.929  -2.437  31.692  1.00  0.00     0.172 C 
ENDROOT
BRANCH   3   4
ATOM      4  C   UNL A   1      21.249  -1.714  33.005  1.00  0.00     0.113 C 
BRANCH   4   5
ATOM      5  C   UNL A   1      22.027  -2.509  34.047  1.00  0.00     0.006 C 
ATOM      6  C   UNL A   1      22.644  -1.619  35.116  1.00  0.00     0.005 C 
ENDBRANCH   4   5
ENDBRANCH   3   4
TORSDOF 2
ENDMDL
