MODEL 1
REMARK VINA RESULT:      -6.7      0.000      0.000
REMARK  7 active torsions:
REMARK  status: ('A' for Active; 'I' for Inactive)
REMARK    1  A    between atoms: O_1  and  C_2 
REMARK    2  A    between atoms: C_2  and  C_3 
REMARK    3  A    between atoms: C_2  and  C_8 
REMARK    4  A    between atoms: C_3  and  C_4 
REMARK    5  A    between atoms: C_4  and  C_5 
REMARK    6  A    between atoms: C_8  and  C_9 
REMARK    7  A    between atoms: C_11  and  O_15 
ROOT
HETATM    1  O   UNL     1       8.351  -1.345  57.952  1.00  0.00    -0.395 OA
HETATM    2  H   UNL     1       8.698  -1.655  58.803  1.00  0.00     0.210 HD
ENDROOT
BRANCH   1   3
HETATM    3  C   UNL     1       7.194  -2.109  57.603  1.00  0.00     0.122 C 
BRANCH   3   4
HETATM    4  C   UNL     1       5.955  -1.230  57.809  1.00  0.00     0.042 C 
BRANCH   4   5
HETATM    5  C   UNL     1       6.222   0.227  57.445  1.00  0.00     0.116 C 
BRANCH   5   6
HETATM    6  C   UNL     1       5.050   0.803  56.708  1.00  0.00     0.172 C 
HETATM    7  O   UNL     1       4.747   0.581  55.549  1.00  0.00    -0.648 OA
HETATM    8  O   UNL     1       4.292   1.608  57.477  1.00  0.00    -0.648 OA
ENDBRANCH   5   6
ENDBRANCH   4   5
ENDBRANCH   3   4
BRANCH   3   9
HETATM    9  C   UNL     1       7.102  -3.389  58.451  1.00  0.00     0.070 C 
BRANCH   9  10
HETATM   10  C   UNL     1       5.922  -4.258  58.082  1.00  0.00    -0.053 A 
HETATM   11  C   UNL     1       5.300  -5.063  59.044  1.00  0.00     0.043 A 
HETATM   12  C   UNL     1       4.218  -5.864  58.692  1.00  0.00     0.066 A 
HETATM   13  C   UNL     1       3.737  -5.882  57.386  1.00  0.00     0.036 A 
HETATM   14  C   UNL     1       4.352  -5.085  56.422  1.00  0.00     0.003 A 
HETATM   15  C   UNL     1       5.439  -4.277  56.765  1.00  0.00     0.007 A 
BRANCH  12  16
HETATM   16  O   UNL     1       3.649  -6.626  59.669  1.00  0.00    -0.361 OA
HETATM   17  H   UNL     1       4.191  -7.095  60.272  1.00  0.00     0.217 HD
ENDBRANCH  12  16
ENDBRANCH   9  10
ENDBRANCH   3   9
ENDBRANCH   1   3
TORSDOF 7
ENDMDL
MODEL 2
REMARK VINA RESULT:      -6.3      2.140      3.121
REMARK  7 active torsions:
REMARK  status: ('A' for Active; 'I' for Inactive)
REMARK    1  A    between atoms: O_1  and  C_2 
REMARK    2  A    between atoms: C_2  and  C_3 
REMARK    3  A    between atoms: C_2  and  C_8 
REMARK    4  A    between atoms: C_3  and  C_4 
REMARK    5  A    between atoms: C_4  and  C_5 
REMARK    6  A    between atoms: C_8  and  C_9 
REMARK    7  A    between atoms: C_11  and  O_15 
ROOT
HETATM    1  O   UNL     1       4.948  -1.185  54.475  1.00  0.00    -0.395 OA
HETATM    2  H   UNL     1       4.056  -1.560  54.408  1.00  0.00     0.210 HD
ENDROOT
BRANCH   1   3
HETATM    3  C   UNL     1       5.442  -1.367  55.804  1.00  0.00     0.122 C 
BRANCH   3   4
HETATM    4  C   UNL     1       6.077  -0.052  56.268  1.00  0.00     0.042 C 
BRANCH   4   5
HETATM    5  C   UNL     1       5.419   0.483  57.537  1.00  0.00     0.116 C 
BRANCH   5   6
HETATM    6  C   UNL     1       4.381   1.507  57.195  1.00  0.00     0.172 C 
HETATM    7  O   UNL     1       3.798   2.235  57.980  1.00  0.00    -0.648 OA
HETATM    8  O   UNL     1       4.147   1.594  55.872  1.00  0.00    -0.648 OA
ENDBRANCH   5   6
ENDBRANCH   4   5
ENDBRANCH   3   4
BRANCH   3   9
HETATM    9  C   UNL     1       6.466  -2.516  55.859  1.00  0.00     0.070 C 
BRANCH   9  10
HETATM   10  C   UNL     1       6.515  -3.198  57.206  1.00  0.00    -0.053 A 
HETATM   11  C   UNL     1       7.579  -2.963  58.086  1.00  0.00     0.043 A 
HETATM   12  C   UNL     1       7.618  -3.602  59.321  1.00  0.00     0.066 A 
HETATM   13  C   UNL     1       6.609  -4.480  59.704  1.00  0.00     0.036 A 
HETATM   14  C   UNL     1       5.547  -4.721  58.834  1.00  0.00     0.003 A 
HETATM   15  C   UNL     1       5.498  -4.085  57.591  1.00  0.00     0.007 A 
BRANCH  12  16
HETATM   16  O   UNL     1       8.676  -3.335  60.139  1.00  0.00    -0.361 OA
HETATM   17  H   UNL     1       9.548  -3.531  59.857  1.00  0.00     0.217 HD
ENDBRANCH  12  16
ENDBRANCH   9  10
ENDBRANCH   3   9
ENDBRANCH   1   3
TORSDOF 7
ENDMDL
MODEL 3
REMARK VINA RESULT:      -6.3      1.693      5.424
REMARK  7 active torsions:
REMARK  status: ('A' for Active; 'I' for Inactive)
REMARK    1  A    between atoms: O_1  and  C_2 
REMARK    2  A    between atoms: C_2  and  C_3 
REMARK    3  A    between atoms: C_2  and  C_8 
REMARK    4  A    between atoms: C_3  and  C_4 
REMARK    5  A    between atoms: C_4  and  C_5 
REMARK    6  A    between atoms: C_8  and  C_9 
REMARK    7  A    between atoms: C_11  and  O_15 
ROOT
HETATM    1  O   UNL     1       8.429  -2.887  59.396  1.00  0.00    -0.395 OA
HETATM    2  H   UNL     1       9.032  -3.498  58.944  1.00  0.00     0.210 HD
ENDROOT
BRANCH   1   3
HETATM    3  C   UNL     1       7.141  -2.947  58.780  1.00  0.00     0.122 C 
BRANCH   3   4
HETATM    4  C   UNL     1       6.504  -4.298  59.122  1.00  0.00     0.042 C 
BRANCH   4   5
HETATM    5  C   UNL     1       5.344  -4.635  58.189  1.00  0.00     0.116 C 
BRANCH   5   6
HETATM    6  C   UNL     1       4.203  -5.218  58.967  1.00  0.00     0.172 C 
HETATM    7  O   UNL     1       4.113  -6.366  59.366  1.00  0.00    -0.648 OA
HETATM    8  O   UNL     1       3.239  -4.317  59.237  1.00  0.00    -0.648 OA
ENDBRANCH   5   6
ENDBRANCH   4   5
ENDBRANCH   3   4
BRANCH   3   9
HETATM    9  C   UNL     1       7.249  -2.765  57.256  1.00  0.00     0.070 C 
BRANCH   9  10
HETATM   10  C   UNL     1       6.448  -1.591  56.744  1.00  0.00    -0.053 A 
HETATM   11  C   UNL     1       6.069  -1.518  55.397  1.00  0.00     0.043 A 
HETATM   12  C   UNL     1       5.337  -0.429  54.935  1.00  0.00     0.066 A 
HETATM   13  C   UNL     1       4.971   0.602  55.793  1.00  0.00     0.036 A 
HETATM   14  C   UNL     1       5.346   0.540  57.134  1.00  0.00     0.003 A 
HETATM   15  C   UNL     1       6.081  -0.549  57.609  1.00  0.00     0.007 A 
BRANCH  12  16
HETATM   16  O   UNL     1       4.992  -0.412  53.615  1.00  0.00    -0.361 OA
HETATM   17  H   UNL     1       4.226  -0.866  53.325  1.00  0.00     0.217 HD
ENDBRANCH  12  16
ENDBRANCH   9  10
ENDBRANCH   3   9
ENDBRANCH   1   3
TORSDOF 7
ENDMDL
MODEL 4
REMARK VINA RESULT:      -6.3      3.411      6.123
REMARK  7 active torsions:
REMARK  status: ('A' for Active; 'I' for Inactive)
REMARK    1  A    between atoms: O_1  and  C_2 
REMARK    2  A    between atoms: C_2  and  C_3 
REMARK    3  A    between atoms: C_2  and  C_8 
REMARK    4  A    between atoms: C_3  and  C_4 
REMARK    5  A    between atoms: C_4  and  C_5 
REMARK    6  A    between atoms: C_8  and  C_9 
REMARK    7  A    between atoms: C_11  and  O_15 
ROOT
HETATM    1  O   UNL     1       3.205  -7.711  57.986  1.00  0.00    -0.395 OA
HETATM    2  H   UNL     1       3.706  -8.213  58.648  1.00  0.00     0.210 HD
ENDROOT
BRANCH   1   3
HETATM    3  C   UNL     1       3.276  -6.317  58.290  1.00  0.00     0.122 C 
BRANCH   3   4
HETATM    4  C   UNL     1       1.848  -5.778  58.427  1.00  0.00     0.042 C 
BRANCH   4   5
HETATM    5  C   UNL     1       1.112  -5.766  57.090  1.00  0.00     0.116 C 
BRANCH   5   6
HETATM    6  C   UNL     1       0.327  -7.031  56.916  1.00  0.00     0.172 C 
HETATM    7  O   UNL     1      -0.734  -7.301  57.450  1.00  0.00    -0.648 OA
HETATM    8  O   UNL     1       0.900  -7.887  56.048  1.00  0.00    -0.648 OA
ENDBRANCH   5   6
ENDBRANCH   4   5
ENDBRANCH   3   4
BRANCH   3   9
HETATM    9  C   UNL     1       4.046  -5.552  57.199  1.00  0.00     0.070 C 
BRANCH   9  10
HETATM   10  C   UNL     1       5.205  -4.752  57.745  1.00  0.00    -0.053 A 
HETATM   11  C   UNL     1       5.552  -4.833  59.100  1.00  0.00     0.043 A 
HETATM   12  C   UNL     1       6.617  -4.086  59.594  1.00  0.00     0.066 A 
HETATM   13  C   UNL     1       7.351  -3.249  58.760  1.00  0.00     0.036 A 
HETATM   14  C   UNL     1       7.011  -3.160  57.412  1.00  0.00     0.003 A 
HETATM   15  C   UNL     1       5.944  -3.906  56.905  1.00  0.00     0.007 A 
BRANCH  12  16
HETATM   16  O   UNL     1       6.913  -4.206  60.920  1.00  0.00    -0.361 OA
HETATM   17  H   UNL     1       6.236  -4.408  61.535  1.00  0.00     0.217 HD
ENDBRANCH  12  16
ENDBRANCH   9  10
ENDBRANCH   3   9
ENDBRANCH   1   3
TORSDOF 7
ENDMDL
MODEL 5
REMARK VINA RESULT:      -6.2      2.664      5.990
REMARK  7 active torsions:
REMARK  status: ('A' for Active; 'I' for Inactive)
REMARK    1  A    between atoms: O_1  and  C_2 
REMARK    2  A    between atoms: C_2  and  C_3 
REMARK    3  A    between atoms: C_2  and  C_8 
REMARK    4  A    between atoms: C_3  and  C_4 
REMARK    5  A    between atoms: C_4  and  C_5 
REMARK    6  A    between atoms: C_8  and  C_9 
REMARK    7  A    between atoms: C_11  and  O_15 
ROOT
HETATM    1  O   UNL     1       8.400  -2.507  58.627  1.00  0.00    -0.395 OA
HETATM    2  H   UNL     1       8.644  -2.326  57.706  1.00  0.00     0.210 HD
ENDROOT
BRANCH   1   3
HETATM    3  C   UNL     1       7.005  -2.813  58.699  1.00  0.00     0.122 C 
BRANCH   3   4
HETATM    4  C   UNL     1       6.829  -4.064  59.565  1.00  0.00     0.042 C 
BRANCH   4   5
HETATM    5  C   UNL     1       7.656  -3.993  60.846  1.00  0.00     0.116 C 
BRANCH   5   6
HETATM    6  C   UNL     1       8.706  -5.062  60.849  1.00  0.00     0.172 C 
HETATM    7  O   UNL     1       8.683  -6.095  61.496  1.00  0.00    -0.648 OA
HETATM    8  O   UNL     1       9.725  -4.798  60.009  1.00  0.00    -0.648 OA
ENDBRANCH   5   6
ENDBRANCH   4   5
ENDBRANCH   3   4
BRANCH   3   9
HETATM    9  C   UNL     1       6.416  -3.034  57.294  1.00  0.00     0.070 C 
BRANCH   9  10
HETATM   10  C   UNL     1       5.897  -1.763  56.666  1.00  0.00    -0.053 A 
HETATM   11  C   UNL     1       5.683  -1.686  55.283  1.00  0.00     0.043 A 
HETATM   12  C   UNL     1       5.210  -0.508  54.714  1.00  0.00     0.066 A 
HETATM   13  C   UNL     1       4.944   0.609  55.499  1.00  0.00     0.036 A 
HETATM   14  C   UNL     1       5.157   0.543  56.875  1.00  0.00     0.003 A 
HETATM   15  C   UNL     1       5.631  -0.636  57.457  1.00  0.00     0.007 A 
BRANCH  12  16
HETATM   16  O   UNL     1       5.018  -0.490  53.364  1.00  0.00    -0.361 OA
HETATM   17  H   UNL     1       4.377   0.083  52.989  1.00  0.00     0.217 HD
ENDBRANCH  12  16
ENDBRANCH   9  10
ENDBRANCH   3   9
ENDBRANCH   1   3
TORSDOF 7
ENDMDL
MODEL 6
REMARK VINA RESULT:      -6.2      2.336      5.561
REMARK  7 active torsions:
REMARK  status: ('A' for Active; 'I' for Inactive)
REMARK    1  A    between atoms: O_1  and  C_2 
REMARK    2  A    between atoms: C_2  and  C_3 
REMARK    3  A    between atoms: C_2  and  C_8 
REMARK    4  A    between atoms: C_3  and  C_4 
REMARK    5  A    between atoms: C_4  and  C_5 
REMARK    6  A    between atoms: C_8  and  C_9 
REMARK    7  A    between atoms: C_11  and  O_15 
ROOT
HETATM    1  O   UNL     1       3.973  -6.059  55.221  1.00  0.00    -0.395 OA
HETATM    2  H   UNL     1       4.617  -6.773  55.348  1.00  0.00     0.210 HD
ENDROOT
BRANCH   1   3
HETATM    3  C   UNL     1       3.990  -5.194  56.359  1.00  0.00     0.122 C 
BRANCH   3   4
HETATM    4  C   UNL     1       2.548  -4.787  56.678  1.00  0.00     0.042 C 
BRANCH   4   5
HETATM    5  C   UNL     1       1.919  -5.691  57.734  1.00  0.00     0.116 C 
BRANCH   5   6
HETATM    6  C   UNL     1       2.480  -5.380  59.088  1.00  0.00     0.172 C 
HETATM    7  O   UNL     1       2.291  -4.362  59.731  1.00  0.00    -0.648 OA
HETATM    8  O   UNL     1       3.227  -6.383  59.589  1.00  0.00    -0.648 OA
ENDBRANCH   5   6
ENDBRANCH   4   5
ENDBRANCH   3   4
BRANCH   3   9
HETATM    9  C   UNL     1       4.863  -3.954  56.097  1.00  0.00     0.070 C 
BRANCH   9  10
HETATM   10  C   UNL     1       5.822  -3.658  57.226  1.00  0.00    -0.053 A 
HETATM   11  C   UNL     1       6.684  -2.555  57.160  1.00  0.00     0.043 A 
HETATM   12  C   UNL     1       7.567  -2.296  58.203  1.00  0.00     0.066 A 
HETATM   13  C   UNL     1       7.614  -3.121  59.322  1.00  0.00     0.036 A 
HETATM   14  C   UNL     1       6.762  -4.221  59.395  1.00  0.00     0.003 A 
HETATM   15  C   UNL     1       5.870  -4.491  58.354  1.00  0.00     0.007 A 
BRANCH  12  16
HETATM   16  O   UNL     1       8.381  -1.208  58.087  1.00  0.00    -0.361 OA
HETATM   17  H   UNL     1       9.091  -1.088  58.687  1.00  0.00     0.217 HD
ENDBRANCH  12  16
ENDBRANCH   9  10
ENDBRANCH   3   9
ENDBRANCH   1   3
TORSDOF 7
ENDMDL
MODEL 7
REMARK VINA RESULT:      -6.2      3.354      5.548
REMARK  7 active torsions:
REMARK  status: ('A' for Active; 'I' for Inactive)
REMARK    1  A    between atoms: O_1  and  C_2 
REMARK    2  A    between atoms: C_2  and  C_3 
REMARK    3  A    between atoms: C_2  and  C_8 
REMARK    4  A    between atoms: C_3  and  C_4 
REMARK    5  A    between atoms: C_4  and  C_5 
REMARK    6  A    between atoms: C_8  and  C_9 
REMARK    7  A    between atoms: C_11  and  O_15 
ROOT
HETATM    1  O   UNL     1       3.345  -8.163  56.533  1.00  0.00    -0.395 OA
HETATM    2  H   UNL     1       3.486  -8.879  57.172  1.00  0.00     0.210 HD
ENDROOT
BRANCH   1   3
HETATM    3  C   UNL     1       3.163  -6.930  57.233  1.00  0.00     0.122 C 
BRANCH   3   4
HETATM    4  C   UNL     1       1.679  -6.792  57.591  1.00  0.00     0.042 C 
BRANCH   4   5
HETATM    5  C   UNL     1       1.253  -5.331  57.707  1.00  0.00     0.116 C 
BRANCH   5   6
HETATM    6  C   UNL     1       0.981  -4.980  59.138  1.00  0.00     0.172 C 
HETATM    7  O   UNL     1      -0.084  -5.095  59.720  1.00  0.00    -0.648 OA
HETATM    8  O   UNL     1       2.075  -4.531  59.784  1.00  0.00    -0.648 OA
ENDBRANCH   5   6
ENDBRANCH   4   5
ENDBRANCH   3   4
BRANCH   3   9
HETATM    9  C   UNL     1       3.632  -5.738  56.381  1.00  0.00     0.070 C 
BRANCH   9  10
HETATM   10  C   UNL     1       4.730  -4.937  57.042  1.00  0.00    -0.053 A 
HETATM   11  C   UNL     1       5.055  -5.147  58.388  1.00  0.00     0.043 A 
HETATM   12  C   UNL     1       6.063  -4.399  58.988  1.00  0.00     0.066 A 
HETATM   13  C   UNL     1       6.762  -3.435  58.270  1.00  0.00     0.036 A 
HETATM   14  C   UNL     1       6.443  -3.217  56.930  1.00  0.00     0.003 A 
HETATM   15  C   UNL     1       5.433  -3.963  56.318  1.00  0.00     0.007 A 
BRANCH  12  16
HETATM   16  O   UNL     1       6.339  -4.647  60.301  1.00  0.00    -0.361 OA
HETATM   17  H   UNL     1       6.404  -5.529  60.608  1.00  0.00     0.217 HD
ENDBRANCH  12  16
ENDBRANCH   9  10
ENDBRANCH   3   9
ENDBRANCH   1   3
TORSDOF 7
ENDMDL
MODEL 8
REMARK VINA RESULT:      -6.2      2.151      5.776
REMARK  7 active torsions:
REMARK  status: ('A' for Active; 'I' for Inactive)
REMARK    1  A    between atoms: O_1  and  C_2 
REMARK    2  A    between atoms: C_2  and  C_3 
REMARK    3  A    between atoms: C_2  and  C_8 
REMARK    4  A    between atoms: C_3  and  C_4 
REMARK    5  A    between atoms: C_4  and  C_5 
REMARK    6  A    between atoms: C_8  and  C_9 
REMARK    7  A    between atoms: C_11  and  O_15 
ROOT
HETATM    1  O   UNL     1       6.118  -4.469  60.086  1.00  0.00    -0.395 OA
HETATM    2  H   UNL     1       7.084  -4.532  60.028  1.00  0.00     0.210 HD
ENDROOT
BRANCH   1   3
HETATM    3  C   UNL     1       5.641  -3.545  59.104  1.00  0.00     0.122 C 
BRANCH   3   4
HETATM    4  C   UNL     1       4.286  -4.043  58.591  1.00  0.00     0.042 C 
BRANCH   4   5
HETATM    5  C   UNL     1       4.428  -5.278  57.707  1.00  0.00     0.116 C 
BRANCH   5   6
HETATM    6  C   UNL     1       3.722  -6.446  58.326  1.00  0.00     0.172 C 
HETATM    7  O   UNL     1       3.164  -7.351  57.729  1.00  0.00    -0.648 OA
HETATM    8  O   UNL     1       3.779  -6.441  59.671  1.00  0.00    -0.648 OA
ENDBRANCH   5   6
ENDBRANCH   4   5
ENDBRANCH   3   4
BRANCH   3   9
HETATM    9  C   UNL     1       6.645  -3.405  57.947  1.00  0.00     0.070 C 
BRANCH   9  10
HETATM   10  C   UNL     1       6.423  -2.158  57.122  1.00  0.00    -0.053 A 
HETATM   11  C   UNL     1       6.618  -2.176  55.735  1.00  0.00     0.043 A 
HETATM   12  C   UNL     1       6.417  -1.021  54.986  1.00  0.00     0.066 A 
HETATM   13  C   UNL     1       6.023   0.166  55.595  1.00  0.00     0.036 A 
HETATM   14  C   UNL     1       5.829   0.194  56.975  1.00  0.00     0.003 A 
HETATM   15  C   UNL     1       6.028  -0.961  57.736  1.00  0.00     0.007 A 
BRANCH  12  16
HETATM   16  O   UNL     1       6.619  -1.096  53.639  1.00  0.00    -0.361 OA
HETATM   17  H   UNL     1       6.799  -1.923  53.238  1.00  0.00     0.217 HD
ENDBRANCH  12  16
ENDBRANCH   9  10
ENDBRANCH   3   9
ENDBRANCH   1   3
TORSDOF 7
ENDMDL
MODEL 9
REMARK VINA RESULT:      -6.2      1.734      2.172
REMARK  7 active torsions:
REMARK  status: ('A' for Active; 'I' for Inactive)
REMARK    1  A    between atoms: O_1  and  C_2 
REMARK    2  A    between atoms: C_2  and  C_3 
REMARK    3  A    between atoms: C_2  and  C_8 
REMARK    4  A    between atoms: C_3  and  C_4 
REMARK    5  A    between atoms: C_4  and  C_5 
REMARK    6  A    between atoms: C_8  and  C_9 
REMARK    7  A    between atoms: C_11  and  O_15 
ROOT
HETATM    1  O   UNL     1       8.187  -0.836  58.181  1.00  0.00    -0.395 OA
HETATM    2  H   UNL     1       7.835   0.068  58.189  1.00  0.00     0.210 HD
ENDROOT
BRANCH   1   3
HETATM    3  C   UNL     1       7.207  -1.724  57.640  1.00  0.00     0.122 C 
BRANCH   3   4
HETATM    4  C   UNL     1       5.834  -1.051  57.746  1.00  0.00     0.042 C 
BRANCH   4   5
HETATM    5  C   UNL     1       5.724   0.168  56.835  1.00  0.00     0.116 C 
BRANCH   5   6
HETATM    6  C   UNL     1       5.491  -0.260  55.417  1.00  0.00     0.172 C 
HETATM    7  O   UNL     1       4.704  -1.110  55.040  1.00  0.00    -0.648 OA
HETATM    8  O   UNL     1       6.238   0.430  54.533  1.00  0.00    -0.648 OA
ENDBRANCH   5   6
ENDBRANCH   4   5
ENDBRANCH   3   4
BRANCH   3   9
HETATM    9  C   UNL     1       7.212  -3.072  58.384  1.00  0.00     0.070 C 
BRANCH   9  10
HETATM   10  C   UNL     1       6.075  -3.977  57.972  1.00  0.00    -0.053 A 
HETATM   11  C   UNL     1       5.664  -4.042  56.634  1.00  0.00     0.043 A 
HETATM   12  C   UNL     1       4.612  -4.875  56.267  1.00  0.00     0.066 A 
HETATM   13  C   UNL     1       3.950  -5.651  57.213  1.00  0.00     0.036 A 
HETATM   14  C   UNL     1       4.351  -5.591  58.546  1.00  0.00     0.003 A 
HETATM   15  C   UNL     1       5.407  -4.759  58.926  1.00  0.00     0.007 A 
BRANCH  12  16
HETATM   16  O   UNL     1       4.254  -4.901  54.951  1.00  0.00    -0.361 OA
HETATM   17  H   UNL     1       4.154  -4.099  54.476  1.00  0.00     0.217 HD
ENDBRANCH  12  16
ENDBRANCH   9  10
ENDBRANCH   3   9
ENDBRANCH   1   3
TORSDOF 7
ENDMDL
