MODEL 1
REMARK VINA RESULT:      -6.5      0.000      0.000
REMARK  7 active torsions:
REMARK  status: ('A' for Active; 'I' for Inactive)
REMARK    1  A    between atoms: O_1  and  C_2 
REMARK    2  A    between atoms: C_2  and  C_3 
REMARK    3  A    between atoms: C_2  and  C_8 
REMARK    4  A    between atoms: C_3  and  C_4 
REMARK    5  A    between atoms: C_4  and  C_5 
REMARK    6  A    between atoms: C_8  and  C_9 
REMARK    7  A    between atoms: C_11  and  O_15 
ROOT
HETATM    1  O   UNL     1       8.912  -2.328  57.113  1.00  0.00    -0.395 OA
HETATM    2  H   UNL     1       9.325  -1.540  57.500  1.00  0.00     0.210 HD
ENDROOT
BRANCH   1   3
HETATM    3  C   UNL     1       7.511  -2.320  57.398  1.00  0.00     0.122 C 
BRANCH   3   4
HETATM    4  C   UNL     1       7.119  -0.912  57.857  1.00  0.00     0.042 C 
BRANCH   4   5
HETATM    5  C   UNL     1       5.653  -0.604  57.569  1.00  0.00     0.116 C 
BRANCH   5   6
HETATM    6  C   UNL     1       5.539   0.455  56.514  1.00  0.00     0.172 C 
HETATM    7  O   UNL     1       6.145   0.487  55.457  1.00  0.00    -0.648 OA
HETATM    8  O   UNL     1       4.641   1.409  56.824  1.00  0.00    -0.648 OA
ENDBRANCH   5   6
ENDBRANCH   4   5
ENDBRANCH   3   4
BRANCH   3   9
HETATM    9  C   UNL     1       7.162  -3.362  58.475  1.00  0.00     0.070 C 
BRANCH   9  10
HETATM   10  C   UNL     1       5.977  -4.222  58.102  1.00  0.00    -0.053 A 
HETATM   11  C   UNL     1       5.374  -5.057  59.051  1.00  0.00     0.043 A 
HETATM   12  C   UNL     1       4.287  -5.849  58.695  1.00  0.00     0.066 A 
HETATM   13  C   UNL     1       3.783  -5.830  57.398  1.00  0.00     0.036 A 
HETATM   14  C   UNL     1       4.378  -5.004  56.447  1.00  0.00     0.003 A 
HETATM   15  C   UNL     1       5.470  -4.204  56.794  1.00  0.00     0.007 A 
BRANCH  12  16
HETATM   16  O   UNL     1       3.738  -6.641  59.659  1.00  0.00    -0.361 OA
HETATM   17  H   UNL     1       3.853  -6.427  60.564  1.00  0.00     0.217 HD
ENDBRANCH  12  16
ENDBRANCH   9  10
ENDBRANCH   3   9
ENDBRANCH   1   3
TORSDOF 7
ENDMDL
MODEL 2
REMARK VINA RESULT:      -6.1      1.576      5.403
REMARK  7 active torsions:
REMARK  status: ('A' for Active; 'I' for Inactive)
REMARK    1  A    between atoms: O_1  and  C_2 
REMARK    2  A    between atoms: C_2  and  C_3 
REMARK    3  A    between atoms: C_2  and  C_8 
REMARK    4  A    between atoms: C_3  and  C_4 
REMARK    5  A    between atoms: C_4  and  C_5 
REMARK    6  A    between atoms: C_8  and  C_9 
REMARK    7  A    between atoms: C_11  and  O_15 
ROOT
HETATM    1  O   UNL     1       8.617  -3.138  59.056  1.00  0.00    -0.395 OA
HETATM    2  H   UNL     1       8.732  -3.909  59.632  1.00  0.00     0.210 HD
ENDROOT
BRANCH   1   3
HETATM    3  C   UNL     1       7.238  -3.009  58.702  1.00  0.00     0.122 C 
BRANCH   3   4
HETATM    4  C   UNL     1       6.479  -4.211  59.272  1.00  0.00     0.042 C 
BRANCH   4   5
HETATM    5  C   UNL     1       5.464  -4.769  58.278  1.00  0.00     0.116 C 
BRANCH   5   6
HETATM    6  C   UNL     1       4.234  -5.237  58.997  1.00  0.00     0.172 C 
HETATM    7  O   UNL     1       3.981  -6.383  59.323  1.00  0.00    -0.648 OA
HETATM    8  O   UNL     1       3.392  -4.231  59.302  1.00  0.00    -0.648 OA
ENDBRANCH   5   6
ENDBRANCH   4   5
ENDBRANCH   3   4
BRANCH   3   9
HETATM    9  C   UNL     1       7.066  -2.929  57.174  1.00  0.00     0.070 C 
BRANCH   9  10
HETATM   10  C   UNL     1       6.352  -1.675  56.726  1.00  0.00    -0.053 A 
HETATM   11  C   UNL     1       6.024  -1.485  55.377  1.00  0.00     0.043 A 
HETATM   12  C   UNL     1       5.372  -0.324  54.975  1.00  0.00     0.066 A 
HETATM   13  C   UNL     1       5.038   0.664  55.895  1.00  0.00     0.036 A 
HETATM   14  C   UNL     1       5.363   0.484  57.238  1.00  0.00     0.003 A 
HETATM   15  C   UNL     1       6.017  -0.678  57.654  1.00  0.00     0.007 A 
BRANCH  12  16
HETATM   16  O   UNL     1       5.075  -0.191  53.650  1.00  0.00    -0.361 OA
HETATM   17  H   UNL     1       4.454  -0.767  53.250  1.00  0.00     0.217 HD
ENDBRANCH  12  16
ENDBRANCH   9  10
ENDBRANCH   3   9
ENDBRANCH   1   3
TORSDOF 7
ENDMDL
MODEL 3
REMARK VINA RESULT:      -6.1      2.124      2.925
REMARK  7 active torsions:
REMARK  status: ('A' for Active; 'I' for Inactive)
REMARK    1  A    between atoms: O_1  and  C_2 
REMARK    2  A    between atoms: C_2  and  C_3 
REMARK    3  A    between atoms: C_2  and  C_8 
REMARK    4  A    between atoms: C_3  and  C_4 
REMARK    5  A    between atoms: C_4  and  C_5 
REMARK    6  A    between atoms: C_8  and  C_9 
REMARK    7  A    between atoms: C_11  and  O_15 
ROOT
HETATM    1  O   UNL     1       6.900  -0.130  55.253  1.00  0.00    -0.395 OA
HETATM    2  H   UNL     1       6.544   0.150  54.395  1.00  0.00     0.210 HD
ENDROOT
BRANCH   1   3
HETATM    3  C   UNL     1       6.216  -1.305  55.692  1.00  0.00     0.122 C 
BRANCH   3   4
HETATM    4  C   UNL     1       5.422  -0.959  56.956  1.00  0.00     0.042 C 
BRANCH   4   5
HETATM    5  C   UNL     1       5.720   0.454  57.448  1.00  0.00     0.116 C 
BRANCH   5   6
HETATM    6  C   UNL     1       4.560   1.360  57.166  1.00  0.00     0.172 C 
HETATM    7  O   UNL     1       3.955   2.033  57.982  1.00  0.00    -0.648 OA
HETATM    8  O   UNL     1       4.236   1.404  55.859  1.00  0.00    -0.648 OA
ENDBRANCH   5   6
ENDBRANCH   4   5
ENDBRANCH   3   4
BRANCH   3   9
HETATM    9  C   UNL     1       7.208  -2.450  55.967  1.00  0.00     0.070 C 
BRANCH   9  10
HETATM   10  C   UNL     1       6.929  -3.172  57.265  1.00  0.00    -0.053 A 
HETATM   11  C   UNL     1       7.766  -2.995  58.374  1.00  0.00     0.043 A 
HETATM   12  C   UNL     1       7.503  -3.670  59.562  1.00  0.00     0.066 A 
HETATM   13  C   UNL     1       6.415  -4.529  59.670  1.00  0.00     0.036 A 
HETATM   14  C   UNL     1       5.578  -4.714  58.570  1.00  0.00     0.003 A 
HETATM   15  C   UNL     1       5.832  -4.040  57.373  1.00  0.00     0.007 A 
BRANCH  12  16
HETATM   16  O   UNL     1       8.349  -3.459  60.611  1.00  0.00    -0.361 OA
HETATM   17  H   UNL     1       9.276  -3.486  60.478  1.00  0.00     0.217 HD
ENDBRANCH  12  16
ENDBRANCH   9  10
ENDBRANCH   3   9
ENDBRANCH   1   3
TORSDOF 7
ENDMDL
MODEL 4
REMARK VINA RESULT:      -6.0      2.248      4.142
REMARK  7 active torsions:
REMARK  status: ('A' for Active; 'I' for Inactive)
REMARK    1  A    between atoms: O_1  and  C_2 
REMARK    2  A    between atoms: C_2  and  C_3 
REMARK    3  A    between atoms: C_2  and  C_8 
REMARK    4  A    between atoms: C_3  and  C_4 
REMARK    5  A    between atoms: C_4  and  C_5 
REMARK    6  A    between atoms: C_8  and  C_9 
REMARK    7  A    between atoms: C_11  and  O_15 
ROOT
HETATM    1  O   UNL     1       8.230  -1.005  58.254  1.00  0.00    -0.395 OA
HETATM    2  H   UNL     1       9.025  -1.420  57.885  1.00  0.00     0.210 HD
ENDROOT
BRANCH   1   3
HETATM    3  C   UNL     1       7.227  -2.001  58.465  1.00  0.00     0.122 C 
BRANCH   3   4
HETATM    4  C   UNL     1       7.922  -3.351  58.670  1.00  0.00     0.042 C 
BRANCH   4   5
HETATM    5  C   UNL     1       7.540  -3.995  60.000  1.00  0.00     0.116 C 
BRANCH   5   6
HETATM    6  C   UNL     1       8.707  -4.743  60.571  1.00  0.00     0.172 C 
HETATM    7  O   UNL     1       8.689  -5.470  61.549  1.00  0.00    -0.648 OA
HETATM    8  O   UNL     1       9.838  -4.568  59.862  1.00  0.00    -0.648 OA
ENDBRANCH   5   6
ENDBRANCH   4   5
ENDBRANCH   3   4
BRANCH   3   9
HETATM    9  C   UNL     1       6.252  -2.064  57.276  1.00  0.00     0.070 C 
BRANCH   9  10
HETATM   10  C   UNL     1       5.271  -3.208  57.378  1.00  0.00    -0.053 A 
HETATM   11  C   UNL     1       4.408  -3.313  58.476  1.00  0.00     0.043 A 
HETATM   12  C   UNL     1       3.513  -4.375  58.563  1.00  0.00     0.066 A 
HETATM   13  C   UNL     1       3.459  -5.347  57.569  1.00  0.00     0.036 A 
HETATM   14  C   UNL     1       4.316  -5.252  56.474  1.00  0.00     0.003 A 
HETATM   15  C   UNL     1       5.218  -4.190  56.377  1.00  0.00     0.007 A 
BRANCH  12  16
HETATM   16  O   UNL     1       2.695  -4.426  59.652  1.00  0.00    -0.361 OA
HETATM   17  H   UNL     1       3.060  -4.535  60.508  1.00  0.00     0.217 HD
ENDBRANCH  12  16
ENDBRANCH   9  10
ENDBRANCH   3   9
ENDBRANCH   1   3
TORSDOF 7
ENDMDL
MODEL 5
REMARK VINA RESULT:      -6.0      1.989      5.782
REMARK  7 active torsions:
REMARK  status: ('A' for Active; 'I' for Inactive)
REMARK    1  A    between atoms: O_1  and  C_2 
REMARK    2  A    between atoms: C_2  and  C_3 
REMARK    3  A    between atoms: C_2  and  C_8 
REMARK    4  A    between atoms: C_3  and  C_4 
REMARK    5  A    between atoms: C_4  and  C_5 
REMARK    6  A    between atoms: C_8  and  C_9 
REMARK    7  A    between atoms: C_11  and  O_15 
ROOT
HETATM    1  O   UNL     1       6.030  -4.262  59.922  1.00  0.00    -0.395 OA
HETATM    2  H   UNL     1       5.801  -4.049  60.840  1.00  0.00     0.210 HD
ENDROOT
BRANCH   1   3
HETATM    3  C   UNL     1       5.368  -3.351  59.043  1.00  0.00     0.122 C 
BRANCH   3   4
HETATM    4  C   UNL     1       3.960  -3.887  58.762  1.00  0.00     0.042 C 
BRANCH   4   5
HETATM    5  C   UNL     1       3.979  -5.061  57.788  1.00  0.00     0.116 C 
BRANCH   5   6
HETATM    6  C   UNL     1       3.757  -6.350  58.520  1.00  0.00     0.172 C 
HETATM    7  O   UNL     1       3.995  -6.561  59.697  1.00  0.00    -0.648 OA
HETATM    8  O   UNL     1       3.213  -7.306  57.744  1.00  0.00    -0.648 OA
ENDBRANCH   5   6
ENDBRANCH   4   5
ENDBRANCH   3   4
BRANCH   3   9
HETATM    9  C   UNL     1       6.156  -3.177  57.733  1.00  0.00     0.070 C 
BRANCH   9  10
HETATM   10  C   UNL     1       5.778  -1.924  56.978  1.00  0.00    -0.053 A 
HETATM   11  C   UNL     1       5.321  -1.998  55.656  1.00  0.00     0.043 A 
HETATM   12  C   UNL     1       4.982  -0.837  54.969  1.00  0.00     0.066 A 
HETATM   13  C   UNL     1       5.089   0.410  55.575  1.00  0.00     0.036 A 
HETATM   14  C   UNL     1       5.545   0.493  56.889  1.00  0.00     0.003 A 
HETATM   15  C   UNL     1       5.888  -0.666  57.589  1.00  0.00     0.007 A 
BRANCH  12  16
HETATM   16  O   UNL     1       4.541  -0.967  53.685  1.00  0.00    -0.361 OA
HETATM   17  H   UNL     1       5.030  -0.591  52.980  1.00  0.00     0.217 HD
ENDBRANCH  12  16
ENDBRANCH   9  10
ENDBRANCH   3   9
ENDBRANCH   1   3
TORSDOF 7
ENDMDL
MODEL 6
REMARK VINA RESULT:      -5.9      3.315      5.999
REMARK  7 active torsions:
REMARK  status: ('A' for Active; 'I' for Inactive)
REMARK    1  A    between atoms: O_1  and  C_2 
REMARK    2  A    between atoms: C_2  and  C_3 
REMARK    3  A    between atoms: C_2  and  C_8 
REMARK    4  A    between atoms: C_3  and  C_4 
REMARK    5  A    between atoms: C_4  and  C_5 
REMARK    6  A    between atoms: C_8  and  C_9 
REMARK    7  A    between atoms: C_11  and  O_15 
ROOT
HETATM    1  O   UNL     1       3.184  -7.498  58.268  1.00  0.00    -0.395 OA
HETATM    2  H   UNL     1       4.025  -7.828  57.916  1.00  0.00     0.210 HD
ENDROOT
BRANCH   1   3
HETATM    3  C   UNL     1       3.222  -6.071  58.335  1.00  0.00     0.122 C 
BRANCH   3   4
HETATM    4  C   UNL     1       1.788  -5.543  58.219  1.00  0.00     0.042 C 
BRANCH   4   5
HETATM    5  C   UNL     1       1.298  -5.530  56.774  1.00  0.00     0.116 C 
BRANCH   5   6
HETATM    6  C   UNL     1       0.395  -6.698  56.519  1.00  0.00     0.172 C 
HETATM    7  O   UNL     1       0.240  -7.663  57.248  1.00  0.00    -0.648 OA
HETATM    8  O   UNL     1      -0.301  -6.582  55.372  1.00  0.00    -0.648 OA
ENDBRANCH   5   6
ENDBRANCH   4   5
ENDBRANCH   3   4
BRANCH   3   9
HETATM    9  C   UNL     1       4.108  -5.490  57.219  1.00  0.00     0.070 C 
BRANCH   9  10
HETATM   10  C   UNL     1       5.281  -4.698  57.749  1.00  0.00    -0.053 A 
HETATM   11  C   UNL     1       5.690  -4.835  59.082  1.00  0.00     0.043 A 
HETATM   12  C   UNL     1       6.766  -4.096  59.561  1.00  0.00     0.066 A 
HETATM   13  C   UNL     1       7.452  -3.212  58.735  1.00  0.00     0.036 A 
HETATM   14  C   UNL     1       7.049  -3.067  57.408  1.00  0.00     0.003 A 
HETATM   15  C   UNL     1       5.970  -3.805  56.916  1.00  0.00     0.007 A 
BRANCH  12  16
HETATM   16  O   UNL     1       7.124  -4.271  60.866  1.00  0.00    -0.361 OA
HETATM   17  H   UNL     1       7.537  -3.574  61.336  1.00  0.00     0.217 HD
ENDBRANCH  12  16
ENDBRANCH   9  10
ENDBRANCH   3   9
ENDBRANCH   1   3
TORSDOF 7
ENDMDL
MODEL 7
REMARK VINA RESULT:      -5.9      2.090      5.516
REMARK  7 active torsions:
REMARK  status: ('A' for Active; 'I' for Inactive)
REMARK    1  A    between atoms: O_1  and  C_2 
REMARK    2  A    between atoms: C_2  and  C_3 
REMARK    3  A    between atoms: C_2  and  C_8 
REMARK    4  A    between atoms: C_3  and  C_4 
REMARK    5  A    between atoms: C_4  and  C_5 
REMARK    6  A    between atoms: C_8  and  C_9 
REMARK    7  A    between atoms: C_11  and  O_15 
ROOT
HETATM    1  O   UNL     1       3.988  -5.995  55.163  1.00  0.00    -0.395 OA
HETATM    2  H   UNL     1       4.136  -5.455  54.371  1.00  0.00     0.210 HD
ENDROOT
BRANCH   1   3
HETATM    3  C   UNL     1       4.029  -5.161  56.323  1.00  0.00     0.122 C 
BRANCH   3   4
HETATM    4  C   UNL     1       2.593  -4.769  56.687  1.00  0.00     0.042 C 
BRANCH   4   5
HETATM    5  C   UNL     1       1.972  -5.739  57.688  1.00  0.00     0.116 C 
BRANCH   5   6
HETATM    6  C   UNL     1       2.635  -5.603  59.025  1.00  0.00     0.172 C 
HETATM    7  O   UNL     1       3.325  -6.442  59.577  1.00  0.00    -0.648 OA
HETATM    8  O   UNL     1       2.426  -4.400  59.593  1.00  0.00    -0.648 OA
ENDBRANCH   5   6
ENDBRANCH   4   5
ENDBRANCH   3   4
BRANCH   3   9
HETATM    9  C   UNL     1       4.890  -3.910  56.073  1.00  0.00     0.070 C 
BRANCH   9  10
HETATM   10  C   UNL     1       5.846  -3.617  57.205  1.00  0.00    -0.053 A 
HETATM   11  C   UNL     1       6.701  -2.508  57.148  1.00  0.00     0.043 A 
HETATM   12  C   UNL     1       7.582  -2.251  58.193  1.00  0.00     0.066 A 
HETATM   13  C   UNL     1       7.634  -3.084  59.306  1.00  0.00     0.036 A 
HETATM   14  C   UNL     1       6.789  -4.191  59.370  1.00  0.00     0.003 A 
HETATM   15  C   UNL     1       5.900  -4.458  58.326  1.00  0.00     0.007 A 
BRANCH  12  16
HETATM   16  O   UNL     1       8.389  -1.157  58.086  1.00  0.00    -0.361 OA
HETATM   17  H   UNL     1       8.820  -0.970  57.275  1.00  0.00     0.217 HD
ENDBRANCH  12  16
ENDBRANCH   9  10
ENDBRANCH   3   9
ENDBRANCH   1   3
TORSDOF 7
ENDMDL
MODEL 8
REMARK VINA RESULT:      -5.9      2.971      6.085
REMARK  7 active torsions:
REMARK  status: ('A' for Active; 'I' for Inactive)
REMARK    1  A    between atoms: O_1  and  C_2 
REMARK    2  A    between atoms: C_2  and  C_3 
REMARK    3  A    between atoms: C_2  and  C_8 
REMARK    4  A    between atoms: C_3  and  C_4 
REMARK    5  A    between atoms: C_4  and  C_5 
REMARK    6  A    between atoms: C_8  and  C_9 
REMARK    7  A    between atoms: C_11  and  O_15 
ROOT
HETATM    1  O   UNL     1       2.220  -5.134  59.811  1.00  0.00    -0.395 OA
HETATM    2  H   UNL     1       2.767  -5.607  60.458  1.00  0.00     0.210 HD
ENDROOT
BRANCH   1   3
HETATM    3  C   UNL     1       3.004  -4.833  58.655  1.00  0.00     0.122 C 
BRANCH   3   4
HETATM    4  C   UNL     1       2.225  -5.281  57.413  1.00  0.00     0.042 C 
BRANCH   4   5
HETATM    5  C   UNL     1       1.952  -6.782  57.420  1.00  0.00     0.116 C 
BRANCH   5   6
HETATM    6  C   UNL     1       0.604  -7.070  56.832  1.00  0.00     0.172 C 
HETATM    7  O   UNL     1      -0.204  -7.884  57.243  1.00  0.00    -0.648 OA
HETATM    8  O   UNL     1       0.320  -6.293  55.769  1.00  0.00    -0.648 OA
ENDBRANCH   5   6
ENDBRANCH   4   5
ENDBRANCH   3   4
BRANCH   3   9
HETATM    9  C   UNL     1       4.374  -5.531  58.720  1.00  0.00     0.070 C 
BRANCH   9  10
HETATM   10  C   UNL     1       5.521  -4.612  58.372  1.00  0.00    -0.053 A 
HETATM   11  C   UNL     1       6.485  -4.277  59.332  1.00  0.00     0.043 A 
HETATM   12  C   UNL     1       7.533  -3.425  59.002  1.00  0.00     0.066 A 
HETATM   13  C   UNL     1       7.644  -2.890  57.723  1.00  0.00     0.036 A 
HETATM   14  C   UNL     1       6.689  -3.216  56.762  1.00  0.00     0.003 A 
HETATM   15  C   UNL     1       5.632  -4.071  57.082  1.00  0.00     0.007 A 
BRANCH  12  16
HETATM   16  O   UNL     1       8.444  -3.135  59.976  1.00  0.00    -0.361 OA
HETATM   17  H   UNL     1       9.166  -2.569  59.788  1.00  0.00     0.217 HD
ENDBRANCH  12  16
ENDBRANCH   9  10
ENDBRANCH   3   9
ENDBRANCH   1   3
TORSDOF 7
ENDMDL
MODEL 9
REMARK VINA RESULT:      -5.9      3.270      5.630
REMARK  7 active torsions:
REMARK  status: ('A' for Active; 'I' for Inactive)
REMARK    1  A    between atoms: O_1  and  C_2 
REMARK    2  A    between atoms: C_2  and  C_3 
REMARK    3  A    between atoms: C_2  and  C_8 
REMARK    4  A    between atoms: C_3  and  C_4 
REMARK    5  A    between atoms: C_4  and  C_5 
REMARK    6  A    between atoms: C_8  and  C_9 
REMARK    7  A    between atoms: C_11  and  O_15 
ROOT
HETATM    1  O   UNL     1       3.405  -8.089  57.572  1.00  0.00    -0.395 OA
HETATM    2  H   UNL     1       4.206  -8.262  58.091  1.00  0.00     0.210 HD
ENDROOT
BRANCH   1   3
HETATM    3  C   UNL     1       3.058  -6.707  57.679  1.00  0.00     0.122 C 
BRANCH   3   4
HETATM    4  C   UNL     1       1.542  -6.573  57.492  1.00  0.00     0.042 C 
BRANCH   4   5
HETATM    5  C   UNL     1       1.055  -5.156  57.775  1.00  0.00     0.116 C 
BRANCH   5   6
HETATM    6  C   UNL     1       0.938  -4.930  59.252  1.00  0.00     0.172 C 
HETATM    7  O   UNL     1       1.727  -4.320  59.954  1.00  0.00    -0.648 OA
HETATM    8  O   UNL     1      -0.187  -5.454  59.775  1.00  0.00    -0.648 OA
ENDBRANCH   5   6
ENDBRANCH   4   5
ENDBRANCH   3   4
BRANCH   3   9
HETATM    9  C   UNL     1       3.813  -5.866  56.634  1.00  0.00     0.070 C 
BRANCH   9  10
HETATM   10  C   UNL     1       4.852  -4.958  57.249  1.00  0.00    -0.053 A 
HETATM   11  C   UNL     1       5.138  -5.025  58.619  1.00  0.00     0.043 A 
HETATM   12  C   UNL     1       6.093  -4.179  59.175  1.00  0.00     0.066 A 
HETATM   13  C   UNL     1       6.775  -3.256  58.389  1.00  0.00     0.036 A 
HETATM   14  C   UNL     1       6.494  -3.180  57.025  1.00  0.00     0.003 A 
HETATM   15  C   UNL     1       5.538  -4.025  56.457  1.00  0.00     0.007 A 
BRANCH  12  16
HETATM   16  O   UNL     1       6.333  -4.289  60.513  1.00  0.00    -0.361 OA
HETATM   17  H   UNL     1       6.851  -3.642  60.950  1.00  0.00     0.217 HD
ENDBRANCH  12  16
ENDBRANCH   9  10
ENDBRANCH   3   9
ENDBRANCH   1   3
TORSDOF 7
ENDMDL
