MODEL 1
REMARK VINA RESULT:      -6.5      0.000      0.000
REMARK  7 active torsions:
REMARK  status: ('A' for Active; 'I' for Inactive)
REMARK    1  A    between atoms: O_1  and  C_2 
REMARK    2  A    between atoms: C_2  and  C_3 
REMARK    3  A    between atoms: C_2  and  C_8 
REMARK    4  A    between atoms: C_3  and  C_4 
REMARK    5  A    between atoms: C_4  and  C_5 
REMARK    6  A    between atoms: C_8  and  C_9 
REMARK    7  A    between atoms: C_11  and  O_15 
ROOT
HETATM    1  O   UNL     1       6.447  -7.642  56.258  1.00  0.00    -0.395 OA
HETATM    2  H   UNL     1       6.742  -6.721  56.335  1.00  0.00     0.210 HD
ENDROOT
BRANCH   1   3
HETATM    3  C   UNL     1       5.036  -7.673  56.031  1.00  0.00     0.122 C 
BRANCH   3   4
HETATM    4  C   UNL     1       4.425  -6.392  56.609  1.00  0.00     0.042 C 
BRANCH   4   5
HETATM    5  C   UNL     1       3.176  -5.961  55.847  1.00  0.00     0.116 C 
BRANCH   5   6
HETATM    6  C   UNL     1       3.554  -5.321  54.545  1.00  0.00     0.172 C 
HETATM    7  O   UNL     1       4.429  -4.489  54.377  1.00  0.00    -0.648 OA
HETATM    8  O   UNL     1       2.834  -5.785  53.506  1.00  0.00    -0.648 OA
ENDBRANCH   5   6
ENDBRANCH   4   5
ENDBRANCH   3   4
BRANCH   3   9
HETATM    9  C   UNL     1       4.401  -8.919  56.673  1.00  0.00     0.070 C 
BRANCH   9  10
HETATM   10  C   UNL     1       3.377  -9.584  55.783  1.00  0.00    -0.053 A 
HETATM   11  C   UNL     1       2.598 -10.645  56.262  1.00  0.00     0.043 A 
HETATM   12  C   UNL     1       1.662 -11.254  55.432  1.00  0.00     0.066 A 
HETATM   13  C   UNL     1       1.485 -10.827  54.120  1.00  0.00     0.036 A 
HETATM   14  C   UNL     1       2.257  -9.773  53.635  1.00  0.00     0.003 A 
HETATM   15  C   UNL     1       3.199  -9.154  54.460  1.00  0.00     0.007 A 
BRANCH  12  16
HETATM   16  O   UNL     1       0.929 -12.281  55.950  1.00  0.00    -0.361 OA
HETATM   17  H   UNL     1       1.349 -12.945  56.462  1.00  0.00     0.217 HD
ENDBRANCH  12  16
ENDBRANCH   9  10
ENDBRANCH   3   9
ENDBRANCH   1   3
TORSDOF 7
ENDMDL
MODEL 2
REMARK VINA RESULT:      -6.5      1.404      5.362
REMARK  7 active torsions:
REMARK  status: ('A' for Active; 'I' for Inactive)
REMARK    1  A    between atoms: O_1  and  C_2 
REMARK    2  A    between atoms: C_2  and  C_3 
REMARK    3  A    between atoms: C_2  and  C_8 
REMARK    4  A    between atoms: C_3  and  C_4 
REMARK    5  A    between atoms: C_4  and  C_5 
REMARK    6  A    between atoms: C_8  and  C_9 
REMARK    7  A    between atoms: C_11  and  O_15 
ROOT
HETATM    1  O   UNL     1       5.961  -9.084  57.375  1.00  0.00    -0.395 OA
HETATM    2  H   UNL     1       5.828  -9.589  58.193  1.00  0.00     0.210 HD
ENDROOT
BRANCH   1   3
HETATM    3  C   UNL     1       4.691  -8.757  56.806  1.00  0.00     0.122 C 
BRANCH   3   4
HETATM    4  C   UNL     1       3.812 -10.013  56.831  1.00  0.00     0.042 C 
BRANCH   4   5
HETATM    5  C   UNL     1       2.924 -10.113  55.594  1.00  0.00     0.116 C 
BRANCH   5   6
HETATM    6  C   UNL     1       1.542 -10.545  55.978  1.00  0.00     0.172 C 
HETATM    7  O   UNL     1       0.621  -9.814  56.300  1.00  0.00    -0.648 OA
HETATM    8  O   UNL     1       1.371 -11.879  55.907  1.00  0.00    -0.648 OA
ENDBRANCH   5   6
ENDBRANCH   4   5
ENDBRANCH   3   4
BRANCH   3   9
HETATM    9  C   UNL     1       4.850  -8.231  55.369  1.00  0.00     0.070 C 
BRANCH   9  10
HETATM   10  C   UNL     1       4.288  -6.840  55.185  1.00  0.00    -0.053 A 
HETATM   11  C   UNL     1       4.754  -6.013  54.154  1.00  0.00     0.043 A 
HETATM   12  C   UNL     1       4.235  -4.732  53.998  1.00  0.00     0.066 A 
HETATM   13  C   UNL     1       3.252  -4.249  54.856  1.00  0.00     0.036 A 
HETATM   14  C   UNL     1       2.785  -5.064  55.886  1.00  0.00     0.003 A 
HETATM   15  C   UNL     1       3.299  -6.353  56.052  1.00  0.00     0.007 A 
BRANCH  12  16
HETATM   16  O   UNL     1       4.722  -3.971  52.977  1.00  0.00    -0.361 OA
HETATM   17  H   UNL     1       5.370  -3.316  53.148  1.00  0.00     0.217 HD
ENDBRANCH  12  16
ENDBRANCH   9  10
ENDBRANCH   3   9
ENDBRANCH   1   3
TORSDOF 7
ENDMDL
MODEL 3
REMARK VINA RESULT:      -6.2      2.310      5.569
REMARK  7 active torsions:
REMARK  status: ('A' for Active; 'I' for Inactive)
REMARK    1  A    between atoms: O_1  and  C_2 
REMARK    2  A    between atoms: C_2  and  C_3 
REMARK    3  A    between atoms: C_2  and  C_8 
REMARK    4  A    between atoms: C_3  and  C_4 
REMARK    5  A    between atoms: C_4  and  C_5 
REMARK    6  A    between atoms: C_8  and  C_9 
REMARK    7  A    between atoms: C_11  and  O_15 
ROOT
HETATM    1  O   UNL     1       1.963 -10.214  52.336  1.00  0.00    -0.395 OA
HETATM    2  H   UNL     1       1.963  -9.319  51.962  1.00  0.00     0.210 HD
ENDROOT
BRANCH   1   3
HETATM    3  C   UNL     1       1.635 -10.150  53.725  1.00  0.00     0.122 C 
BRANCH   3   4
HETATM    4  C   UNL     1       0.113 -10.248  53.868  1.00  0.00     0.042 C 
BRANCH   4   5
HETATM    5  C   UNL     1      -0.296 -11.229  54.963  1.00  0.00     0.116 C 
BRANCH   5   6
HETATM    6  C   UNL     1      -1.200 -10.558  55.953  1.00  0.00     0.172 C 
HETATM    7  O   UNL     1      -2.419 -10.573  55.943  1.00  0.00    -0.648 OA
HETATM    8  O   UNL     1      -0.526  -9.925  56.932  1.00  0.00    -0.648 OA
ENDBRANCH   5   6
ENDBRANCH   4   5
ENDBRANCH   3   4
BRANCH   3   9
HETATM    9  C   UNL     1       2.159  -8.847  54.355  1.00  0.00     0.070 C 
BRANCH   9  10
HETATM   10  C   UNL     1       3.183  -9.087  55.440  1.00  0.00    -0.053 A 
HETATM   11  C   UNL     1       4.323  -8.279  55.536  1.00  0.00     0.043 A 
HETATM   12  C   UNL     1       5.263  -8.513  56.535  1.00  0.00     0.066 A 
HETATM   13  C   UNL     1       5.091  -9.546  57.450  1.00  0.00     0.036 A 
HETATM   14  C   UNL     1       3.961 -10.357  57.361  1.00  0.00     0.003 A 
HETATM   15  C   UNL     1       3.011 -10.130  56.362  1.00  0.00     0.007 A 
BRANCH  12  16
HETATM   16  O   UNL     1       6.353  -7.694  56.584  1.00  0.00    -0.361 OA
HETATM   17  H   UNL     1       6.314  -6.839  56.203  1.00  0.00     0.217 HD
ENDBRANCH  12  16
ENDBRANCH   9  10
ENDBRANCH   3   9
ENDBRANCH   1   3
TORSDOF 7
ENDMDL
MODEL 4
REMARK VINA RESULT:      -6.2      3.097      5.662
REMARK  7 active torsions:
REMARK  status: ('A' for Active; 'I' for Inactive)
REMARK    1  A    between atoms: O_1  and  C_2 
REMARK    2  A    between atoms: C_2  and  C_3 
REMARK    3  A    between atoms: C_2  and  C_8 
REMARK    4  A    between atoms: C_3  and  C_4 
REMARK    5  A    between atoms: C_4  and  C_5 
REMARK    6  A    between atoms: C_8  and  C_9 
REMARK    7  A    between atoms: C_11  and  O_15 
ROOT
HETATM    1  O   UNL     1       0.921 -13.224  53.515  1.00  0.00    -0.395 OA
HETATM    2  H   UNL     1       0.149 -13.595  53.059  1.00  0.00     0.210 HD
ENDROOT
BRANCH   1   3
HETATM    3  C   UNL     1       0.560 -11.985  54.130  1.00  0.00     0.122 C 
BRANCH   3   4
HETATM    4  C   UNL     1      -0.959 -11.814  54.017  1.00  0.00     0.042 C 
BRANCH   4   5
HETATM    5  C   UNL     1      -1.416 -10.439  54.497  1.00  0.00     0.116 C 
BRANCH   5   6
HETATM    6  C   UNL     1      -1.781 -10.489  55.950  1.00  0.00     0.172 C 
HETATM    7  O   UNL     1      -1.080 -10.135  56.882  1.00  0.00    -0.648 OA
HETATM    8  O   UNL     1      -3.028 -10.950  56.161  1.00  0.00    -0.648 OA
ENDBRANCH   5   6
ENDBRANCH   4   5
ENDBRANCH   3   4
BRANCH   3   9
HETATM    9  C   UNL     1       1.293 -10.806  53.465  1.00  0.00     0.070 C 
BRANCH   9  10
HETATM   10  C   UNL     1       2.274 -10.125  54.390  1.00  0.00    -0.053 A 
HETATM   11  C   UNL     1       2.405 -10.539  55.722  1.00  0.00     0.043 A 
HETATM   12  C   UNL     1       3.307  -9.900  56.566  1.00  0.00     0.066 A 
HETATM   13  C   UNL     1       4.090  -8.845  56.110  1.00  0.00     0.036 A 
HETATM   14  C   UNL     1       3.965  -8.425  54.787  1.00  0.00     0.003 A 
HETATM   15  C   UNL     1       3.062  -9.060  53.930  1.00  0.00     0.007 A 
BRANCH  12  16
HETATM   16  O   UNL     1       3.394 -10.346  57.853  1.00  0.00    -0.361 OA
HETATM   17  H   UNL     1       3.185  -9.772  58.563  1.00  0.00     0.217 HD
ENDBRANCH  12  16
ENDBRANCH   9  10
ENDBRANCH   3   9
ENDBRANCH   1   3
TORSDOF 7
ENDMDL
MODEL 5
REMARK VINA RESULT:      -6.1      1.706      5.599
REMARK  7 active torsions:
REMARK  status: ('A' for Active; 'I' for Inactive)
REMARK    1  A    between atoms: O_1  and  C_2 
REMARK    2  A    between atoms: C_2  and  C_3 
REMARK    3  A    between atoms: C_2  and  C_8 
REMARK    4  A    between atoms: C_3  and  C_4 
REMARK    5  A    between atoms: C_4  and  C_5 
REMARK    6  A    between atoms: C_8  and  C_9 
REMARK    7  A    between atoms: C_11  and  O_15 
ROOT
HETATM    1  O   UNL     1       3.165 -10.439  57.367  1.00  0.00    -0.395 OA
HETATM    2  H   UNL     1       4.108 -10.633  57.247  1.00  0.00     0.210 HD
ENDROOT
BRANCH   1   3
HETATM    3  C   UNL     1       2.821  -9.272  56.617  1.00  0.00     0.122 C 
BRANCH   3   4
HETATM    4  C   UNL     1       1.535  -9.562  55.835  1.00  0.00     0.042 C 
BRANCH   4   5
HETATM    5  C   UNL     1       1.784 -10.493  54.653  1.00  0.00     0.116 C 
BRANCH   5   6
HETATM    6  C   UNL     1       1.042 -11.782  54.839  1.00  0.00     0.172 C 
HETATM    7  O   UNL     1       0.622 -12.508  53.955  1.00  0.00    -0.648 OA
HETATM    8  O   UNL     1       0.894 -12.118  56.135  1.00  0.00    -0.648 OA
ENDBRANCH   5   6
ENDBRANCH   4   5
ENDBRANCH   3   4
BRANCH   3   9
HETATM    9  C   UNL     1       3.961  -8.872  55.664  1.00  0.00     0.070 C 
BRANCH   9  10
HETATM   10  C   UNL     1       3.880  -7.430  55.220  1.00  0.00    -0.053 A 
HETATM   11  C   UNL     1       4.281  -7.057  53.931  1.00  0.00     0.043 A 
HETATM   12  C   UNL     1       4.208  -5.725  53.535  1.00  0.00     0.066 A 
HETATM   13  C   UNL     1       3.742  -4.745  54.404  1.00  0.00     0.036 A 
HETATM   14  C   UNL     1       3.343  -5.107  55.690  1.00  0.00     0.003 A 
HETATM   15  C   UNL     1       3.411  -6.441  56.098  1.00  0.00     0.007 A 
BRANCH  12  16
HETATM   16  O   UNL     1       4.610  -5.418  52.268  1.00  0.00    -0.361 OA
HETATM   17  H   UNL     1       4.513  -6.048  51.580  1.00  0.00     0.217 HD
ENDBRANCH  12  16
ENDBRANCH   9  10
ENDBRANCH   3   9
ENDBRANCH   1   3
TORSDOF 7
ENDMDL
MODEL 6
REMARK VINA RESULT:      -6.0      1.995      2.637
REMARK  7 active torsions:
REMARK  status: ('A' for Active; 'I' for Inactive)
REMARK    1  A    between atoms: O_1  and  C_2 
REMARK    2  A    between atoms: C_2  and  C_3 
REMARK    3  A    between atoms: C_2  and  C_8 
REMARK    4  A    between atoms: C_3  and  C_4 
REMARK    5  A    between atoms: C_4  and  C_5 
REMARK    6  A    between atoms: C_8  and  C_9 
REMARK    7  A    between atoms: C_11  and  O_15 
ROOT
HETATM    1  O   UNL     1       5.395  -6.554  52.169  1.00  0.00    -0.395 OA
HETATM    2  H   UNL     1       6.319  -6.674  52.438  1.00  0.00     0.210 HD
ENDROOT
BRANCH   1   3
HETATM    3  C   UNL     1       4.550  -6.627  53.320  1.00  0.00     0.122 C 
BRANCH   3   4
HETATM    4  C   UNL     1       4.320  -5.205  53.842  1.00  0.00     0.042 C 
BRANCH   4   5
HETATM    5  C   UNL     1       2.885  -4.996  54.317  1.00  0.00     0.116 C 
BRANCH   5   6
HETATM    6  C   UNL     1       2.846  -4.856  55.809  1.00  0.00     0.172 C 
HETATM    7  O   UNL     1       3.576  -5.420  56.606  1.00  0.00    -0.648 OA
HETATM    8  O   UNL     1       1.909  -3.984  56.229  1.00  0.00    -0.648 OA
ENDBRANCH   5   6
ENDBRANCH   4   5
ENDBRANCH   3   4
BRANCH   3   9
HETATM    9  C   UNL     1       5.178  -7.513  54.410  1.00  0.00     0.070 C 
BRANCH   9  10
HETATM   10  C   UNL     1       4.218  -8.542  54.960  1.00  0.00    -0.053 A 
HETATM   11  C   UNL     1       4.326  -8.982  56.285  1.00  0.00     0.043 A 
HETATM   12  C   UNL     1       3.440  -9.934  56.779  1.00  0.00     0.066 A 
HETATM   13  C   UNL     1       2.439 -10.466  55.973  1.00  0.00     0.036 A 
HETATM   14  C   UNL     1       2.326 -10.036  54.652  1.00  0.00     0.003 A 
HETATM   15  C   UNL     1       3.210  -9.079  54.146  1.00  0.00     0.007 A 
BRANCH  12  16
HETATM   16  O   UNL     1       3.590 -10.325  58.078  1.00  0.00    -0.361 OA
HETATM   17  H   UNL     1       4.034 -11.125  58.278  1.00  0.00     0.217 HD
ENDBRANCH  12  16
ENDBRANCH   9  10
ENDBRANCH   3   9
ENDBRANCH   1   3
TORSDOF 7
ENDMDL
MODEL 7
REMARK VINA RESULT:      -6.0      3.185      5.812
REMARK  7 active torsions:
REMARK  status: ('A' for Active; 'I' for Inactive)
REMARK    1  A    between atoms: O_1  and  C_2 
REMARK    2  A    between atoms: C_2  and  C_3 
REMARK    3  A    between atoms: C_2  and  C_8 
REMARK    4  A    between atoms: C_3  and  C_4 
REMARK    5  A    between atoms: C_4  and  C_5 
REMARK    6  A    between atoms: C_8  and  C_9 
REMARK    7  A    between atoms: C_11  and  O_15 
ROOT
HETATM    1  O   UNL     1       0.751 -12.466  55.303  1.00  0.00    -0.395 OA
HETATM    2  H   UNL     1       0.420 -12.691  54.419  1.00  0.00     0.210 HD
ENDROOT
BRANCH   1   3
HETATM    3  C   UNL     1       0.686 -11.050  55.489  1.00  0.00     0.122 C 
BRANCH   3   4
HETATM    4  C   UNL     1      -0.733 -10.583  55.146  1.00  0.00     0.042 C 
BRANCH   4   5
HETATM    5  C   UNL     1      -0.965 -10.520  53.639  1.00  0.00     0.116 C 
BRANCH   5   6
HETATM    6  C   UNL     1      -1.629 -11.776  53.161  1.00  0.00     0.172 C 
HETATM    7  O   UNL     1      -2.823 -12.016  53.189  1.00  0.00    -0.648 OA
HETATM    8  O   UNL     1      -0.759 -12.660  52.635  1.00  0.00    -0.648 OA
ENDBRANCH   5   6
ENDBRANCH   4   5
ENDBRANCH   3   4
BRANCH   3   9
HETATM    9  C   UNL     1       1.725 -10.329  54.612  1.00  0.00     0.070 C 
BRANCH   9  10
HETATM   10  C   UNL     1       2.912  -9.824  55.399  1.00  0.00    -0.053 A 
HETATM   11  C   UNL     1       3.219 -10.367  56.653  1.00  0.00     0.043 A 
HETATM   12  C   UNL     1       4.311  -9.890  57.372  1.00  0.00     0.066 A 
HETATM   13  C   UNL     1       5.111  -8.871  56.865  1.00  0.00     0.036 A 
HETATM   14  C   UNL     1       4.811  -8.324  55.618  1.00  0.00     0.003 A 
HETATM   15  C   UNL     1       3.717  -8.796  54.888  1.00  0.00     0.007 A 
BRANCH  12  16
HETATM   16  O   UNL     1       4.565 -10.456  58.586  1.00  0.00    -0.361 OA
HETATM   17  H   UNL     1       4.147 -11.259  58.826  1.00  0.00     0.217 HD
ENDBRANCH  12  16
ENDBRANCH   9  10
ENDBRANCH   3   9
ENDBRANCH   1   3
TORSDOF 7
ENDMDL
MODEL 8
REMARK VINA RESULT:      -5.9      1.740      5.436
REMARK  7 active torsions:
REMARK  status: ('A' for Active; 'I' for Inactive)
REMARK    1  A    between atoms: O_1  and  C_2 
REMARK    2  A    between atoms: C_2  and  C_3 
REMARK    3  A    between atoms: C_2  and  C_8 
REMARK    4  A    between atoms: C_3  and  C_4 
REMARK    5  A    between atoms: C_4  and  C_5 
REMARK    6  A    between atoms: C_8  and  C_9 
REMARK    7  A    between atoms: C_11  and  O_15 
ROOT
HETATM    1  O   UNL     1       3.308 -10.605  57.314  1.00  0.00    -0.395 OA
HETATM    2  H   UNL     1       2.488 -10.733  57.816  1.00  0.00     0.210 HD
ENDROOT
BRANCH   1   3
HETATM    3  C   UNL     1       3.153  -9.496  56.425  1.00  0.00     0.122 C 
BRANCH   3   4
HETATM    4  C   UNL     1       2.811 -10.037  55.033  1.00  0.00     0.042 C 
BRANCH   4   5
HETATM    5  C   UNL     1       1.309 -10.235  54.850  1.00  0.00     0.116 C 
BRANCH   5   6
HETATM    6  C   UNL     1       0.962 -11.691  54.925  1.00  0.00     0.172 C 
HETATM    7  O   UNL     1       0.736 -12.429  53.982  1.00  0.00    -0.648 OA
HETATM    8  O   UNL     1       0.950 -12.162  56.187  1.00  0.00    -0.648 OA
ENDBRANCH   5   6
ENDBRANCH   4   5
ENDBRANCH   3   4
BRANCH   3   9
HETATM    9  C   UNL     1       4.434  -8.643  56.380  1.00  0.00     0.070 C 
BRANCH   9  10
HETATM   10  C   UNL     1       4.253  -7.348  55.623  1.00  0.00    -0.053 A 
HETATM   11  C   UNL     1       3.378  -6.362  56.096  1.00  0.00     0.043 A 
HETATM   12  C   UNL     1       3.214  -5.176  55.388  1.00  0.00     0.066 A 
HETATM   13  C   UNL     1       3.908  -4.948  54.204  1.00  0.00     0.036 A 
HETATM   14  C   UNL     1       4.779  -5.925  53.724  1.00  0.00     0.003 A 
HETATM   15  C   UNL     1       4.951  -7.120  54.428  1.00  0.00     0.007 A 
BRANCH  12  16
HETATM   16  O   UNL     1       2.351  -4.249  55.895  1.00  0.00    -0.361 OA
HETATM   17  H   UNL     1       1.521  -4.518  56.234  1.00  0.00     0.217 HD
ENDBRANCH  12  16
ENDBRANCH   9  10
ENDBRANCH   3   9
ENDBRANCH   1   3
TORSDOF 7
ENDMDL
MODEL 9
REMARK VINA RESULT:      -5.9      2.209      5.561
REMARK  7 active torsions:
REMARK  status: ('A' for Active; 'I' for Inactive)
REMARK    1  A    between atoms: O_1  and  C_2 
REMARK    2  A    between atoms: C_2  and  C_3 
REMARK    3  A    between atoms: C_2  and  C_8 
REMARK    4  A    between atoms: C_3  and  C_4 
REMARK    5  A    between atoms: C_4  and  C_5 
REMARK    6  A    between atoms: C_8  and  C_9 
REMARK    7  A    between atoms: C_11  and  O_15 
ROOT
HETATM    1  O   UNL     1       2.544 -10.817  56.358  1.00  0.00    -0.395 OA
HETATM    2  H   UNL     1       3.113 -11.602  56.318  1.00  0.00     0.210 HD
ENDROOT
BRANCH   1   3
HETATM    3  C   UNL     1       3.248  -9.691  55.830  1.00  0.00     0.122 C 
BRANCH   3   4
HETATM    4  C   UNL     1       4.387  -9.338  56.792  1.00  0.00     0.042 C 
BRANCH   4   5
HETATM    5  C   UNL     1       4.306 -10.136  58.090  1.00  0.00     0.116 C 
BRANCH   5   6
HETATM    6  C   UNL     1       5.518 -11.005  58.244  1.00  0.00     0.172 C 
HETATM    7  O   UNL     1       5.551 -12.116  58.744  1.00  0.00    -0.648 OA
HETATM    8  O   UNL     1       6.630 -10.448  57.728  1.00  0.00    -0.648 OA
ENDBRANCH   5   6
ENDBRANCH   4   5
ENDBRANCH   3   4
BRANCH   3   9
HETATM    9  C   UNL     1       2.304  -8.491  55.637  1.00  0.00     0.070 C 
BRANCH   9  10
HETATM   10  C   UNL     1       3.013  -7.259  55.126  1.00  0.00    -0.053 A 
HETATM   11  C   UNL     1       3.685  -7.282  53.896  1.00  0.00     0.043 A 
HETATM   12  C   UNL     1       4.340  -6.143  53.438  1.00  0.00     0.066 A 
HETATM   13  C   UNL     1       4.343  -4.970  54.186  1.00  0.00     0.036 A 
HETATM   14  C   UNL     1       3.680  -4.940  55.411  1.00  0.00     0.003 A 
HETATM   15  C   UNL     1       3.018  -6.077  55.880  1.00  0.00     0.007 A 
BRANCH  12  16
HETATM   16  O   UNL     1       4.976  -6.220  52.234  1.00  0.00    -0.361 OA
HETATM   17  H   UNL     1       5.737  -5.698  52.071  1.00  0.00     0.217 HD
ENDBRANCH  12  16
ENDBRANCH   9  10
ENDBRANCH   3   9
ENDBRANCH   1   3
TORSDOF 7
ENDMDL
