MODEL 1
REMARK VINA RESULT:      -6.6      0.000      0.000
REMARK  7 active torsions:
REMARK  status: ('A' for Active; 'I' for Inactive)
REMARK    1  A    between atoms: O_1  and  C_2 
REMARK    2  A    between atoms: C_2  and  C_3 
REMARK    3  A    between atoms: C_2  and  C_8 
REMARK    4  A    between atoms: C_3  and  C_4 
REMARK    5  A    between atoms: C_4  and  C_5 
REMARK    6  A    between atoms: C_8  and  C_9 
REMARK    7  A    between atoms: C_11  and  O_15 
ROOT
HETATM    1  O   UNL     1       6.031  -9.095  57.316  1.00  0.00    -0.395 OA
HETATM    2  H   UNL     1       6.227 -10.017  57.089  1.00  0.00     0.210 HD
ENDROOT
BRANCH   1   3
HETATM    3  C   UNL     1       4.753  -8.736  56.785  1.00  0.00     0.122 C 
BRANCH   3   4
HETATM    4  C   UNL     1       3.851  -9.975  56.817  1.00  0.00     0.042 C 
BRANCH   4   5
HETATM    5  C   UNL     1       2.976 -10.076  55.572  1.00  0.00     0.116 C 
BRANCH   5   6
HETATM    6  C   UNL     1       1.682 -10.760  55.898  1.00  0.00     0.172 C 
HETATM    7  O   UNL     1       1.495 -11.963  55.949  1.00  0.00    -0.648 OA
HETATM    8  O   UNL     1       0.690  -9.894  56.181  1.00  0.00    -0.648 OA
ENDBRANCH   5   6
ENDBRANCH   4   5
ENDBRANCH   3   4
BRANCH   3   9
HETATM    9  C   UNL     1       4.884  -8.193  55.351  1.00  0.00     0.070 C 
BRANCH   9  10
HETATM   10  C   UNL     1       4.308  -6.806  55.191  1.00  0.00    -0.053 A 
HETATM   11  C   UNL     1       4.701  -5.989  54.123  1.00  0.00     0.043 A 
HETATM   12  C   UNL     1       4.169  -4.711  53.989  1.00  0.00     0.066 A 
HETATM   13  C   UNL     1       3.245  -4.220  54.906  1.00  0.00     0.036 A 
HETATM   14  C   UNL     1       2.851  -5.025  55.974  1.00  0.00     0.003 A 
HETATM   15  C   UNL     1       3.378  -6.311  56.118  1.00  0.00     0.007 A 
BRANCH  12  16
HETATM   16  O   UNL     1       4.584  -3.960  52.929  1.00  0.00    -0.361 OA
HETATM   17  H   UNL     1       5.382  -4.175  52.486  1.00  0.00     0.217 HD
ENDBRANCH  12  16
ENDBRANCH   9  10
ENDBRANCH   3   9
ENDBRANCH   1   3
TORSDOF 7
ENDMDL
MODEL 2
REMARK VINA RESULT:      -6.5      1.380      5.392
REMARK  7 active torsions:
REMARK  status: ('A' for Active; 'I' for Inactive)
REMARK    1  A    between atoms: O_1  and  C_2 
REMARK    2  A    between atoms: C_2  and  C_3 
REMARK    3  A    between atoms: C_2  and  C_8 
REMARK    4  A    between atoms: C_3  and  C_4 
REMARK    5  A    between atoms: C_4  and  C_5 
REMARK    6  A    between atoms: C_8  and  C_9 
REMARK    7  A    between atoms: C_11  and  O_15 
ROOT
HETATM    1  O   UNL     1       6.459  -7.611  56.169  1.00  0.00    -0.395 OA
HETATM    2  H   UNL     1       6.816  -6.797  55.782  1.00  0.00     0.210 HD
ENDROOT
BRANCH   1   3
HETATM    3  C   UNL     1       5.039  -7.633  56.005  1.00  0.00     0.122 C 
BRANCH   3   4
HETATM    4  C   UNL     1       4.459  -6.364  56.637  1.00  0.00     0.042 C 
BRANCH   4   5
HETATM    5  C   UNL     1       3.223  -5.868  55.893  1.00  0.00     0.116 C 
BRANCH   5   6
HETATM    6  C   UNL     1       3.603  -5.346  54.540  1.00  0.00     0.172 C 
HETATM    7  O   UNL     1       4.531  -4.596  54.291  1.00  0.00    -0.648 OA
HETATM    8  O   UNL     1       2.818  -5.822  53.556  1.00  0.00    -0.648 OA
ENDBRANCH   5   6
ENDBRANCH   4   5
ENDBRANCH   3   4
BRANCH   3   9
HETATM    9  C   UNL     1       4.429  -8.891  56.648  1.00  0.00     0.070 C 
BRANCH   9  10
HETATM   10  C   UNL     1       3.399  -9.562  55.769  1.00  0.00    -0.053 A 
HETATM   11  C   UNL     1       2.639 -10.636  56.252  1.00  0.00     0.043 A 
HETATM   12  C   UNL     1       1.699 -11.250  55.433  1.00  0.00     0.066 A 
HETATM   13  C   UNL     1       1.496 -10.816  54.127  1.00  0.00     0.036 A 
HETATM   14  C   UNL     1       2.249  -9.751  53.637  1.00  0.00     0.003 A 
HETATM   15  C   UNL     1       3.196  -9.126  54.452  1.00  0.00     0.007 A 
BRANCH  12  16
HETATM   16  O   UNL     1       0.986 -12.289  55.955  1.00  0.00    -0.361 OA
HETATM   17  H   UNL     1       0.298 -12.684  55.456  1.00  0.00     0.217 HD
ENDBRANCH  12  16
ENDBRANCH   9  10
ENDBRANCH   3   9
ENDBRANCH   1   3
TORSDOF 7
ENDMDL
MODEL 3
REMARK VINA RESULT:      -6.2      2.720      4.485
REMARK  7 active torsions:
REMARK  status: ('A' for Active; 'I' for Inactive)
REMARK    1  A    between atoms: O_1  and  C_2 
REMARK    2  A    between atoms: C_2  and  C_3 
REMARK    3  A    between atoms: C_2  and  C_8 
REMARK    4  A    between atoms: C_3  and  C_4 
REMARK    5  A    between atoms: C_4  and  C_5 
REMARK    6  A    between atoms: C_8  and  C_9 
REMARK    7  A    between atoms: C_11  and  O_15 
ROOT
HETATM    1  O   UNL     1       1.527 -10.989  52.261  1.00  0.00    -0.395 OA
HETATM    2  H   UNL     1       2.456 -11.007  51.983  1.00  0.00     0.210 HD
ENDROOT
BRANCH   1   3
HETATM    3  C   UNL     1       1.430 -10.406  53.562  1.00  0.00     0.122 C 
BRANCH   3   4
HETATM    4  C   UNL     1      -0.008  -9.919  53.769  1.00  0.00     0.042 C 
BRANCH   4   5
HETATM    5  C   UNL     1      -0.886 -10.989  54.412  1.00  0.00     0.116 C 
BRANCH   5   6
HETATM    6  C   UNL     1      -1.294 -10.567  55.792  1.00  0.00     0.172 C 
HETATM    7  O   UNL     1      -0.557 -10.140  56.663  1.00  0.00    -0.648 OA
HETATM    8  O   UNL     1      -2.620 -10.670  56.000  1.00  0.00    -0.648 OA
ENDBRANCH   5   6
ENDBRANCH   4   5
ENDBRANCH   3   4
BRANCH   3   9
HETATM    9  C   UNL     1       2.427  -9.244  53.721  1.00  0.00     0.070 C 
BRANCH   9  10
HETATM   10  C   UNL     1       3.235  -9.330  54.995  1.00  0.00    -0.053 A 
HETATM   11  C   UNL     1       4.320  -8.470  55.211  1.00  0.00     0.043 A 
HETATM   12  C   UNL     1       5.061  -8.563  56.384  1.00  0.00     0.066 A 
HETATM   13  C   UNL     1       4.744  -9.503  57.358  1.00  0.00     0.036 A 
HETATM   14  C   UNL     1       3.667 -10.364  57.151  1.00  0.00     0.003 A 
HETATM   15  C   UNL     1       2.916 -10.280  55.976  1.00  0.00     0.007 A 
BRANCH  12  16
HETATM   16  O   UNL     1       6.106  -7.700  56.543  1.00  0.00    -0.361 OA
HETATM   17  H   UNL     1       5.977  -6.780  56.418  1.00  0.00     0.217 HD
ENDBRANCH  12  16
ENDBRANCH   9  10
ENDBRANCH   3   9
ENDBRANCH   1   3
TORSDOF 7
ENDMDL
MODEL 4
REMARK VINA RESULT:      -6.1      2.006      5.357
REMARK  7 active torsions:
REMARK  status: ('A' for Active; 'I' for Inactive)
REMARK    1  A    between atoms: O_1  and  C_2 
REMARK    2  A    between atoms: C_2  and  C_3 
REMARK    3  A    between atoms: C_2  and  C_8 
REMARK    4  A    between atoms: C_3  and  C_4 
REMARK    5  A    between atoms: C_4  and  C_5 
REMARK    6  A    between atoms: C_8  and  C_9 
REMARK    7  A    between atoms: C_11  and  O_15 
ROOT
HETATM    1  O   UNL     1       5.481  -6.605  52.240  1.00  0.00    -0.395 OA
HETATM    2  H   UNL     1       6.249  -7.175  52.403  1.00  0.00     0.210 HD
ENDROOT
BRANCH   1   3
HETATM    3  C   UNL     1       4.599  -6.661  53.363  1.00  0.00     0.122 C 
BRANCH   3   4
HETATM    4  C   UNL     1       4.326  -5.229  53.835  1.00  0.00     0.042 C 
BRANCH   4   5
HETATM    5  C   UNL     1       2.886  -5.046  54.303  1.00  0.00     0.116 C 
BRANCH   5   6
HETATM    6  C   UNL     1       2.840  -4.863  55.790  1.00  0.00     0.172 C 
HETATM    7  O   UNL     1       3.549  -5.422  56.608  1.00  0.00    -0.648 OA
HETATM    8  O   UNL     1       1.924  -3.955  56.178  1.00  0.00    -0.648 OA
ENDBRANCH   5   6
ENDBRANCH   4   5
ENDBRANCH   3   4
BRANCH   3   9
HETATM    9  C   UNL     1       5.205  -7.504  54.499  1.00  0.00     0.070 C 
BRANCH   9  10
HETATM   10  C   UNL     1       4.249  -8.543  55.037  1.00  0.00    -0.053 A 
HETATM   11  C   UNL     1       4.372  -9.014  56.350  1.00  0.00     0.043 A 
HETATM   12  C   UNL     1       3.490  -9.976  56.833  1.00  0.00     0.066 A 
HETATM   13  C   UNL     1       2.478 -10.486  56.027  1.00  0.00     0.036 A 
HETATM   14  C   UNL     1       2.349 -10.025  54.718  1.00  0.00     0.003 A 
HETATM   15  C   UNL     1       3.229  -9.059  54.223  1.00  0.00     0.007 A 
BRANCH  12  16
HETATM   16  O   UNL     1       3.655 -10.397  58.120  1.00  0.00    -0.361 OA
HETATM   17  H   UNL     1       3.391 -11.261  58.367  1.00  0.00     0.217 HD
ENDBRANCH  12  16
ENDBRANCH   9  10
ENDBRANCH   3   9
ENDBRANCH   1   3
TORSDOF 7
ENDMDL
MODEL 5
REMARK VINA RESULT:      -6.1      1.327      1.831
REMARK  7 active torsions:
REMARK  status: ('A' for Active; 'I' for Inactive)
REMARK    1  A    between atoms: O_1  and  C_2 
REMARK    2  A    between atoms: C_2  and  C_3 
REMARK    3  A    between atoms: C_2  and  C_8 
REMARK    4  A    between atoms: C_3  and  C_4 
REMARK    5  A    between atoms: C_4  and  C_5 
REMARK    6  A    between atoms: C_8  and  C_9 
REMARK    7  A    between atoms: C_11  and  O_15 
ROOT
HETATM    1  O   UNL     1       3.528 -10.784  57.495  1.00  0.00    -0.395 OA
HETATM    2  H   UNL     1       2.887 -10.757  58.223  1.00  0.00     0.210 HD
ENDROOT
BRANCH   1   3
HETATM    3  C   UNL     1       3.354  -9.635  56.664  1.00  0.00     0.122 C 
BRANCH   3   4
HETATM    4  C   UNL     1       2.754 -10.090  55.329  1.00  0.00     0.042 C 
BRANCH   4   5
HETATM    5  C   UNL     1       1.272  -9.743  55.220  1.00  0.00     0.116 C 
BRANCH   5   6
HETATM    6  C   UNL     1       0.435 -10.844  55.797  1.00  0.00     0.172 C 
HETATM    7  O   UNL     1      -0.733 -10.760  56.138  1.00  0.00    -0.648 OA
HETATM    8  O   UNL     1       1.097 -12.013  55.887  1.00  0.00    -0.648 OA
ENDBRANCH   5   6
ENDBRANCH   4   5
ENDBRANCH   3   4
BRANCH   3   9
HETATM    9  C   UNL     1       4.692  -8.908  56.441  1.00  0.00     0.070 C 
BRANCH   9  10
HETATM   10  C   UNL     1       4.542  -7.623  55.660  1.00  0.00    -0.053 A 
HETATM   11  C   UNL     1       5.003  -7.533  54.339  1.00  0.00     0.043 A 
HETATM   12  C   UNL     1       4.865  -6.344  53.632  1.00  0.00     0.066 A 
HETATM   13  C   UNL     1       4.274  -5.228  54.216  1.00  0.00     0.036 A 
HETATM   14  C   UNL     1       3.815  -5.308  55.529  1.00  0.00     0.003 A 
HETATM   15  C   UNL     1       3.948  -6.498  56.249  1.00  0.00     0.007 A 
BRANCH  12  16
HETATM   16  O   UNL     1       5.330  -6.313  52.349  1.00  0.00    -0.361 OA
HETATM   17  H   UNL     1       6.067  -5.778  52.131  1.00  0.00     0.217 HD
ENDBRANCH  12  16
ENDBRANCH   9  10
ENDBRANCH   3   9
ENDBRANCH   1   3
TORSDOF 7
ENDMDL
MODEL 6
REMARK VINA RESULT:      -6.0      2.363      3.996
REMARK  7 active torsions:
REMARK  status: ('A' for Active; 'I' for Inactive)
REMARK    1  A    between atoms: O_1  and  C_2 
REMARK    2  A    between atoms: C_2  and  C_3 
REMARK    3  A    between atoms: C_2  and  C_8 
REMARK    4  A    between atoms: C_3  and  C_4 
REMARK    5  A    between atoms: C_4  and  C_5 
REMARK    6  A    between atoms: C_8  and  C_9 
REMARK    7  A    between atoms: C_11  and  O_15 
ROOT
HETATM    1  O   UNL     1       0.299 -11.448  56.036  1.00  0.00    -0.395 OA
HETATM    2  H   UNL     1       0.797 -11.836  56.772  1.00  0.00     0.210 HD
ENDROOT
BRANCH   1   3
HETATM    3  C   UNL     1       1.145 -10.558  55.305  1.00  0.00     0.122 C 
BRANCH   3   4
HETATM    4  C   UNL     1       1.183 -11.019  53.844  1.00  0.00     0.042 C 
BRANCH   4   5
HETATM    5  C   UNL     1       0.601 -12.419  53.671  1.00  0.00     0.116 C 
BRANCH   5   6
HETATM    6  C   UNL     1      -0.685 -12.358  52.904  1.00  0.00     0.172 C 
HETATM    7  O   UNL     1      -0.907 -12.877  51.823  1.00  0.00    -0.648 OA
HETATM    8  O   UNL     1      -1.648 -11.673  53.549  1.00  0.00    -0.648 OA
ENDBRANCH   5   6
ENDBRANCH   4   5
ENDBRANCH   3   4
BRANCH   3   9
HETATM    9  C   UNL     1       2.562 -10.527  55.904  1.00  0.00     0.070 C 
BRANCH   9  10
HETATM   10  C   UNL     1       3.157  -9.138  55.937  1.00  0.00    -0.053 A 
HETATM   11  C   UNL     1       4.482  -8.940  56.346  1.00  0.00     0.043 A 
HETATM   12  C   UNL     1       5.018  -7.656  56.379  1.00  0.00     0.066 A 
HETATM   13  C   UNL     1       4.255  -6.553  56.011  1.00  0.00     0.036 A 
HETATM   14  C   UNL     1       2.934  -6.741  55.606  1.00  0.00     0.003 A 
HETATM   15  C   UNL     1       2.386  -8.025  55.569  1.00  0.00     0.007 A 
BRANCH  12  16
HETATM   16  O   UNL     1       6.314  -7.522  56.782  1.00  0.00    -0.361 OA
HETATM   17  H   UNL     1       6.561  -7.760  57.654  1.00  0.00     0.217 HD
ENDBRANCH  12  16
ENDBRANCH   9  10
ENDBRANCH   3   9
ENDBRANCH   1   3
TORSDOF 7
ENDMDL
MODEL 7
REMARK VINA RESULT:      -6.0      2.228      5.585
REMARK  7 active torsions:
REMARK  status: ('A' for Active; 'I' for Inactive)
REMARK    1  A    between atoms: O_1  and  C_2 
REMARK    2  A    between atoms: C_2  and  C_3 
REMARK    3  A    between atoms: C_2  and  C_8 
REMARK    4  A    between atoms: C_3  and  C_4 
REMARK    5  A    between atoms: C_4  and  C_5 
REMARK    6  A    between atoms: C_8  and  C_9 
REMARK    7  A    between atoms: C_11  and  O_15 
ROOT
HETATM    1  O   UNL     1       4.472  -3.907  53.351  1.00  0.00    -0.395 OA
HETATM    2  H   UNL     1       3.547  -3.770  53.095  1.00  0.00     0.210 HD
ENDROOT
BRANCH   1   3
HETATM    3  C   UNL     1       4.623  -5.214  53.910  1.00  0.00     0.122 C 
BRANCH   3   4
HETATM    4  C   UNL     1       4.535  -6.239  52.774  1.00  0.00     0.042 C 
BRANCH   4   5
HETATM    5  C   UNL     1       3.254  -6.080  51.959  1.00  0.00     0.116 C 
BRANCH   5   6
HETATM    6  C   UNL     1       3.581  -5.779  50.528  1.00  0.00     0.172 C 
HETATM    7  O   UNL     1       3.236  -6.430  49.557  1.00  0.00    -0.648 OA
HETATM    8  O   UNL     1       4.299  -4.649  50.381  1.00  0.00    -0.648 OA
ENDBRANCH   5   6
ENDBRANCH   4   5
ENDBRANCH   3   4
BRANCH   3   9
HETATM    9  C   UNL     1       3.546  -5.486  54.975  1.00  0.00     0.070 C 
BRANCH   9  10
HETATM   10  C   UNL     1       3.624  -6.881  55.550  1.00  0.00    -0.053 A 
HETATM   11  C   UNL     1       4.781  -7.317  56.209  1.00  0.00     0.043 A 
HETATM   12  C   UNL     1       4.845  -8.606  56.729  1.00  0.00     0.066 A 
HETATM   13  C   UNL     1       3.771  -9.482  56.604  1.00  0.00     0.036 A 
HETATM   14  C   UNL     1       2.617  -9.057  55.947  1.00  0.00     0.003 A 
HETATM   15  C   UNL     1       2.542  -7.765  55.422  1.00  0.00     0.007 A 
BRANCH  12  16
HETATM   16  O   UNL     1       5.994  -8.977  57.363  1.00  0.00    -0.361 OA
HETATM   17  H   UNL     1       6.072  -8.873  58.291  1.00  0.00     0.217 HD
ENDBRANCH  12  16
ENDBRANCH   9  10
ENDBRANCH   3   9
ENDBRANCH   1   3
TORSDOF 7
ENDMDL
MODEL 8
REMARK VINA RESULT:      -5.9      3.304      5.393
REMARK  7 active torsions:
REMARK  status: ('A' for Active; 'I' for Inactive)
REMARK    1  A    between atoms: O_1  and  C_2 
REMARK    2  A    between atoms: C_2  and  C_3 
REMARK    3  A    between atoms: C_2  and  C_8 
REMARK    4  A    between atoms: C_3  and  C_4 
REMARK    5  A    between atoms: C_4  and  C_5 
REMARK    6  A    between atoms: C_8  and  C_9 
REMARK    7  A    between atoms: C_11  and  O_15 
ROOT
HETATM    1  O   UNL     1       0.549 -12.973  53.982  1.00  0.00    -0.395 OA
HETATM    2  H   UNL     1      -0.264 -13.442  54.226  1.00  0.00     0.210 HD
ENDROOT
BRANCH   1   3
HETATM    3  C   UNL     1       0.604 -11.724  54.675  1.00  0.00     0.122 C 
BRANCH   3   4
HETATM    4  C   UNL     1      -0.823 -11.183  54.809  1.00  0.00     0.042 C 
BRANCH   4   5
HETATM    5  C   UNL     1      -1.350 -10.627  53.490  1.00  0.00     0.116 C 
BRANCH   5   6
HETATM    6  C   UNL     1      -1.934 -11.727  52.657  1.00  0.00     0.172 C 
HETATM    7  O   UNL     1      -1.438 -12.216  51.656  1.00  0.00    -0.648 OA
HETATM    8  O   UNL     1      -3.103 -12.188  53.142  1.00  0.00    -0.648 OA
ENDBRANCH   5   6
ENDBRANCH   4   5
ENDBRANCH   3   4
BRANCH   3   9
HETATM    9  C   UNL     1       1.501 -10.719  53.929  1.00  0.00     0.070 C 
BRANCH   9  10
HETATM   10  C   UNL     1       2.532 -10.073  54.824  1.00  0.00    -0.053 A 
HETATM   11  C   UNL     1       2.700 -10.503  56.147  1.00  0.00     0.043 A 
HETATM   12  C   UNL     1       3.648  -9.897  56.964  1.00  0.00     0.066 A 
HETATM   13  C   UNL     1       4.442  -8.858  56.489  1.00  0.00     0.036 A 
HETATM   14  C   UNL     1       4.281  -8.422  55.175  1.00  0.00     0.003 A 
HETATM   15  C   UNL     1       3.331  -9.024  54.346  1.00  0.00     0.007 A 
BRANCH  12  16
HETATM   16  O   UNL     1       3.770 -10.358  58.242  1.00  0.00    -0.361 OA
HETATM   17  H   UNL     1       4.191  -9.830  58.892  1.00  0.00     0.217 HD
ENDBRANCH  12  16
ENDBRANCH   9  10
ENDBRANCH   3   9
ENDBRANCH   1   3
TORSDOF 7
ENDMDL
MODEL 9
REMARK VINA RESULT:      -5.9      1.494      2.119
REMARK  7 active torsions:
REMARK  status: ('A' for Active; 'I' for Inactive)
REMARK    1  A    between atoms: O_1  and  C_2 
REMARK    2  A    between atoms: C_2  and  C_3 
REMARK    3  A    between atoms: C_2  and  C_8 
REMARK    4  A    between atoms: C_3  and  C_4 
REMARK    5  A    between atoms: C_4  and  C_5 
REMARK    6  A    between atoms: C_8  and  C_9 
REMARK    7  A    between atoms: C_11  and  O_15 
ROOT
HETATM    1  O   UNL     1       3.350 -10.629  57.345  1.00  0.00    -0.395 OA
HETATM    2  H   UNL     1       3.631 -10.317  58.219  1.00  0.00     0.210 HD
ENDROOT
BRANCH   1   3
HETATM    3  C   UNL     1       3.178  -9.511  56.472  1.00  0.00     0.122 C 
BRANCH   3   4
HETATM    4  C   UNL     1       2.705 -10.030  55.110  1.00  0.00     0.042 C 
BRANCH   4   5
HETATM    5  C   UNL     1       1.194  -9.904  54.944  1.00  0.00     0.116 C 
BRANCH   5   6
HETATM    6  C   UNL     1       0.493 -10.978  55.720  1.00  0.00     0.172 C 
HETATM    7  O   UNL     1       0.919 -12.096  55.952  1.00  0.00    -0.648 OA
HETATM    8  O   UNL     1      -0.701 -10.582  56.201  1.00  0.00    -0.648 OA
ENDBRANCH   5   6
ENDBRANCH   4   5
ENDBRANCH   3   4
BRANCH   3   9
HETATM    9  C   UNL     1       4.488  -8.717  56.328  1.00  0.00     0.070 C 
BRANCH   9  10
HETATM   10  C   UNL     1       4.300  -7.391  55.629  1.00  0.00    -0.053 A 
HETATM   11  C   UNL     1       3.425  -6.427  56.149  1.00  0.00     0.043 A 
HETATM   12  C   UNL     1       3.255  -5.213  55.493  1.00  0.00     0.066 A 
HETATM   13  C   UNL     1       3.942  -4.932  54.317  1.00  0.00     0.036 A 
HETATM   14  C   UNL     1       4.812  -5.886  53.791  1.00  0.00     0.003 A 
HETATM   15  C   UNL     1       4.991  -7.109  54.441  1.00  0.00     0.007 A 
BRANCH  12  16
HETATM   16  O   UNL     1       2.393  -4.311  56.045  1.00  0.00    -0.361 OA
HETATM   17  H   UNL     1       2.249  -4.306  56.971  1.00  0.00     0.217 HD
ENDBRANCH  12  16
ENDBRANCH   9  10
ENDBRANCH   3   9
ENDBRANCH   1   3
TORSDOF 7
ENDMDL
