MODEL 1
REMARK VINA RESULT:      -7.0      0.000      0.000
REMARK  7 active torsions:
REMARK  status: ('A' for Active; 'I' for Inactive)
REMARK    1  A    between atoms: O_1  and  C_2 
REMARK    2  A    between atoms: C_2  and  C_3 
REMARK    3  A    between atoms: C_2  and  C_8 
REMARK    4  A    between atoms: C_3  and  C_4 
REMARK    5  A    between atoms: C_4  and  C_5 
REMARK    6  A    between atoms: C_8  and  C_9 
REMARK    7  A    between atoms: C_11  and  O_15 
ROOT
HETATM    1  O   UNL     1       8.294  -1.156  58.108  1.00  0.00    -0.395 OA
HETATM    2  H   UNL     1       8.825  -0.859  57.352  1.00  0.00     0.210 HD
ENDROOT
BRANCH   1   3
HETATM    3  C   UNL     1       7.246  -2.012  57.646  1.00  0.00     0.122 C 
BRANCH   3   4
HETATM    4  C   UNL     1       5.929  -1.228  57.690  1.00  0.00     0.042 C 
BRANCH   4   5
HETATM    5  C   UNL     1       6.154   0.275  57.556  1.00  0.00     0.116 C 
BRANCH   5   6
HETATM    6  C   UNL     1       4.937   0.935  56.981  1.00  0.00     0.172 C 
HETATM    7  O   UNL     1       4.184   1.695  57.566  1.00  0.00    -0.648 OA
HETATM    8  O   UNL     1       4.741   0.634  55.683  1.00  0.00    -0.648 OA
ENDBRANCH   5   6
ENDBRANCH   4   5
ENDBRANCH   3   4
BRANCH   3   9
HETATM    9  C   UNL     1       7.152  -3.284  58.507  1.00  0.00     0.070 C 
BRANCH   9  10
HETATM   10  C   UNL     1       5.990  -4.170  58.126  1.00  0.00    -0.053 A 
HETATM   11  C   UNL     1       5.385  -5.003  59.076  1.00  0.00     0.043 A 
HETATM   12  C   UNL     1       4.320  -5.820  58.712  1.00  0.00     0.066 A 
HETATM   13  C   UNL     1       3.838  -5.827  57.407  1.00  0.00     0.036 A 
HETATM   14  C   UNL     1       4.435  -5.004  56.454  1.00  0.00     0.003 A 
HETATM   15  C   UNL     1       5.505  -4.179  56.809  1.00  0.00     0.007 A 
BRANCH  12  16
HETATM   16  O   UNL     1       3.768  -6.609  59.678  1.00  0.00    -0.361 OA
HETATM   17  H   UNL     1       3.881  -6.391  60.582  1.00  0.00     0.217 HD
ENDBRANCH  12  16
ENDBRANCH   9  10
ENDBRANCH   3   9
ENDBRANCH   1   3
TORSDOF 7
ENDMDL
MODEL 2
REMARK VINA RESULT:      -6.7      0.808      1.225
REMARK  7 active torsions:
REMARK  status: ('A' for Active; 'I' for Inactive)
REMARK    1  A    between atoms: O_1  and  C_2 
REMARK    2  A    between atoms: C_2  and  C_3 
REMARK    3  A    between atoms: C_2  and  C_8 
REMARK    4  A    between atoms: C_3  and  C_4 
REMARK    5  A    between atoms: C_4  and  C_5 
REMARK    6  A    between atoms: C_8  and  C_9 
REMARK    7  A    between atoms: C_11  and  O_15 
ROOT
HETATM    1  O   UNL     1       8.354  -1.020  58.245  1.00  0.00    -0.395 OA
HETATM    2  H   UNL     1       8.353  -0.185  57.750  1.00  0.00     0.210 HD
ENDROOT
BRANCH   1   3
HETATM    3  C   UNL     1       7.320  -1.871  57.744  1.00  0.00     0.122 C 
BRANCH   3   4
HETATM    4  C   UNL     1       5.989  -1.116  57.829  1.00  0.00     0.042 C 
BRANCH   4   5
HETATM    5  C   UNL     1       6.002   0.161  56.995  1.00  0.00     0.116 C 
BRANCH   5   6
HETATM    6  C   UNL     1       5.588  -0.133  55.585  1.00  0.00     0.172 C 
HETATM    7  O   UNL     1       6.016  -1.030  54.879  1.00  0.00    -0.648 OA
HETATM    8  O   UNL     1       4.627   0.697  55.137  1.00  0.00    -0.648 OA
ENDBRANCH   5   6
ENDBRANCH   4   5
ENDBRANCH   3   4
BRANCH   3   9
HETATM    9  C   UNL     1       7.254  -3.186  58.540  1.00  0.00     0.070 C 
BRANCH   9  10
HETATM   10  C   UNL     1       6.099  -4.068  58.127  1.00  0.00    -0.053 A 
HETATM   11  C   UNL     1       5.485  -4.920  59.054  1.00  0.00     0.043 A 
HETATM   12  C   UNL     1       4.426  -5.732  58.662  1.00  0.00     0.066 A 
HETATM   13  C   UNL     1       3.961  -5.717  57.351  1.00  0.00     0.036 A 
HETATM   14  C   UNL     1       4.569  -4.875  56.421  1.00  0.00     0.003 A 
HETATM   15  C   UNL     1       5.632  -4.054  56.805  1.00  0.00     0.007 A 
BRANCH  12  16
HETATM   16  O   UNL     1       3.864  -6.540  59.606  1.00  0.00    -0.361 OA
HETATM   17  H   UNL     1       4.298  -7.327  59.868  1.00  0.00     0.217 HD
ENDBRANCH  12  16
ENDBRANCH   9  10
ENDBRANCH   3   9
ENDBRANCH   1   3
TORSDOF 7
ENDMDL
MODEL 3
REMARK VINA RESULT:      -6.4      2.110      3.073
REMARK  7 active torsions:
REMARK  status: ('A' for Active; 'I' for Inactive)
REMARK    1  A    between atoms: O_1  and  C_2 
REMARK    2  A    between atoms: C_2  and  C_3 
REMARK    3  A    between atoms: C_2  and  C_8 
REMARK    4  A    between atoms: C_3  and  C_4 
REMARK    5  A    between atoms: C_4  and  C_5 
REMARK    6  A    between atoms: C_8  and  C_9 
REMARK    7  A    between atoms: C_11  and  O_15 
ROOT
HETATM    1  O   UNL     1       4.963  -0.980  54.556  1.00  0.00    -0.395 OA
HETATM    2  H   UNL     1       5.700  -1.046  53.930  1.00  0.00     0.210 HD
ENDROOT
BRANCH   1   3
HETATM    3  C   UNL     1       5.441  -1.227  55.881  1.00  0.00     0.122 C 
BRANCH   3   4
HETATM    4  C   UNL     1       6.061   0.067  56.420  1.00  0.00     0.042 C 
BRANCH   4   5
HETATM    5  C   UNL     1       5.246   0.656  57.568  1.00  0.00     0.116 C 
BRANCH   5   6
HETATM    6  C   UNL     1       4.251   1.648  57.045  1.00  0.00     0.172 C 
HETATM    7  O   UNL     1       3.933   1.805  55.879  1.00  0.00    -0.648 OA
HETATM    8  O   UNL     1       3.677   2.377  58.021  1.00  0.00    -0.648 OA
ENDBRANCH   5   6
ENDBRANCH   4   5
ENDBRANCH   3   4
BRANCH   3   9
HETATM    9  C   UNL     1       6.470  -2.371  55.891  1.00  0.00     0.070 C 
BRANCH   9  10
HETATM   10  C   UNL     1       6.517  -3.110  57.209  1.00  0.00    -0.053 A 
HETATM   11  C   UNL     1       7.577  -2.909  58.102  1.00  0.00     0.043 A 
HETATM   12  C   UNL     1       7.614  -3.600  59.309  1.00  0.00     0.066 A 
HETATM   13  C   UNL     1       6.607  -4.497  59.650  1.00  0.00     0.036 A 
HETATM   14  C   UNL     1       5.549  -4.704  58.766  1.00  0.00     0.003 A 
HETATM   15  C   UNL     1       5.503  -4.016  57.552  1.00  0.00     0.007 A 
BRANCH  12  16
HETATM   16  O   UNL     1       8.668  -3.364  60.141  1.00  0.00    -0.361 OA
HETATM   17  H   UNL     1       9.545  -3.440  59.820  1.00  0.00     0.217 HD
ENDBRANCH  12  16
ENDBRANCH   9  10
ENDBRANCH   3   9
ENDBRANCH   1   3
TORSDOF 7
ENDMDL
MODEL 4
REMARK VINA RESULT:      -6.4      2.034      5.791
REMARK  7 active torsions:
REMARK  status: ('A' for Active; 'I' for Inactive)
REMARK    1  A    between atoms: O_1  and  C_2 
REMARK    2  A    between atoms: C_2  and  C_3 
REMARK    3  A    between atoms: C_2  and  C_8 
REMARK    4  A    between atoms: C_3  and  C_4 
REMARK    5  A    between atoms: C_4  and  C_5 
REMARK    6  A    between atoms: C_8  and  C_9 
REMARK    7  A    between atoms: C_11  and  O_15 
ROOT
HETATM    1  O   UNL     1       6.061  -4.343  59.865  1.00  0.00    -0.395 OA
HETATM    2  H   UNL     1       6.096  -3.975  60.762  1.00  0.00     0.210 HD
ENDROOT
BRANCH   1   3
HETATM    3  C   UNL     1       5.425  -3.407  58.991  1.00  0.00     0.122 C 
BRANCH   3   4
HETATM    4  C   UNL     1       4.080  -3.995  58.550  1.00  0.00     0.042 C 
BRANCH   4   5
HETATM    5  C   UNL     1       4.256  -5.239  57.685  1.00  0.00     0.116 C 
BRANCH   5   6
HETATM    6  C   UNL     1       3.658  -6.434  58.364  1.00  0.00     0.172 C 
HETATM    7  O   UNL     1       2.965  -7.290  57.840  1.00  0.00    -0.648 OA
HETATM    8  O   UNL     1       3.988  -6.517  59.666  1.00  0.00    -0.648 OA
ENDBRANCH   5   6
ENDBRANCH   4   5
ENDBRANCH   3   4
BRANCH   3   9
HETATM    9  C   UNL     1       6.312  -3.100  57.772  1.00  0.00     0.070 C 
BRANCH   9  10
HETATM   10  C   UNL     1       5.864  -1.874  57.011  1.00  0.00    -0.053 A 
HETATM   11  C   UNL     1       5.411  -1.981  55.690  1.00  0.00     0.043 A 
HETATM   12  C   UNL     1       5.007  -0.844  54.996  1.00  0.00     0.066 A 
HETATM   13  C   UNL     1       5.047   0.411  55.595  1.00  0.00     0.036 A 
HETATM   14  C   UNL     1       5.499   0.526  56.908  1.00  0.00     0.003 A 
HETATM   15  C   UNL     1       5.906  -0.608  57.614  1.00  0.00     0.007 A 
BRANCH  12  16
HETATM   16  O   UNL     1       4.573  -1.007  53.713  1.00  0.00    -0.361 OA
HETATM   17  H   UNL     1       5.179  -0.942  53.002  1.00  0.00     0.217 HD
ENDBRANCH  12  16
ENDBRANCH   9  10
ENDBRANCH   3   9
ENDBRANCH   1   3
TORSDOF 7
ENDMDL
MODEL 5
REMARK VINA RESULT:      -6.4      3.430      6.113
REMARK  7 active torsions:
REMARK  status: ('A' for Active; 'I' for Inactive)
REMARK    1  A    between atoms: O_1  and  C_2 
REMARK    2  A    between atoms: C_2  and  C_3 
REMARK    3  A    between atoms: C_2  and  C_8 
REMARK    4  A    between atoms: C_3  and  C_4 
REMARK    5  A    between atoms: C_4  and  C_5 
REMARK    6  A    between atoms: C_8  and  C_9 
REMARK    7  A    between atoms: C_11  and  O_15 
ROOT
HETATM    1  O   UNL     1       3.186  -7.657  58.059  1.00  0.00    -0.395 OA
HETATM    2  H   UNL     1       2.264  -7.957  58.036  1.00  0.00     0.210 HD
ENDROOT
BRANCH   1   3
HETATM    3  C   UNL     1       3.221  -6.246  58.288  1.00  0.00     0.122 C 
BRANCH   3   4
HETATM    4  C   UNL     1       1.779  -5.728  58.336  1.00  0.00     0.042 C 
BRANCH   4   5
HETATM    5  C   UNL     1       1.095  -5.814  56.975  1.00  0.00     0.116 C 
BRANCH   5   6
HETATM    6  C   UNL     1       0.318  -7.091  56.862  1.00  0.00     0.172 C 
HETATM    7  O   UNL     1      -0.744  -7.339  57.406  1.00  0.00    -0.648 OA
HETATM    8  O   UNL     1       0.897  -7.986  56.039  1.00  0.00    -0.648 OA
ENDBRANCH   5   6
ENDBRANCH   4   5
ENDBRANCH   3   4
BRANCH   3   9
HETATM    9  C   UNL     1       4.022  -5.528  57.188  1.00  0.00     0.070 C 
BRANCH   9  10
HETATM   10  C   UNL     1       5.189  -4.736  57.730  1.00  0.00    -0.053 A 
HETATM   11  C   UNL     1       5.552  -4.834  59.079  1.00  0.00     0.043 A 
HETATM   12  C   UNL     1       6.624  -4.095  59.569  1.00  0.00     0.066 A 
HETATM   13  C   UNL     1       7.350  -3.250  58.736  1.00  0.00     0.036 A 
HETATM   14  C   UNL     1       6.994  -3.145  57.393  1.00  0.00     0.003 A 
HETATM   15  C   UNL     1       5.920  -3.882  56.890  1.00  0.00     0.007 A 
BRANCH  12  16
HETATM   16  O   UNL     1       6.935  -4.230  60.890  1.00  0.00    -0.361 OA
HETATM   17  H   UNL     1       7.286  -3.503  61.366  1.00  0.00     0.217 HD
ENDBRANCH  12  16
ENDBRANCH   9  10
ENDBRANCH   3   9
ENDBRANCH   1   3
TORSDOF 7
ENDMDL
MODEL 6
REMARK VINA RESULT:      -6.3      3.388      5.561
REMARK  7 active torsions:
REMARK  status: ('A' for Active; 'I' for Inactive)
REMARK    1  A    between atoms: O_1  and  C_2 
REMARK    2  A    between atoms: C_2  and  C_3 
REMARK    3  A    between atoms: C_2  and  C_8 
REMARK    4  A    between atoms: C_3  and  C_4 
REMARK    5  A    between atoms: C_4  and  C_5 
REMARK    6  A    between atoms: C_8  and  C_9 
REMARK    7  A    between atoms: C_11  and  O_15 
ROOT
HETATM    1  O   UNL     1       3.450  -8.172  56.777  1.00  0.00    -0.395 OA
HETATM    2  H   UNL     1       3.638  -8.038  55.835  1.00  0.00     0.210 HD
ENDROOT
BRANCH   1   3
HETATM    3  C   UNL     1       3.165  -6.912  57.389  1.00  0.00     0.122 C 
BRANCH   3   4
HETATM    4  C   UNL     1       1.657  -6.832  57.652  1.00  0.00     0.042 C 
BRANCH   4   5
HETATM    5  C   UNL     1       1.170  -5.389  57.748  1.00  0.00     0.116 C 
BRANCH   5   6
HETATM    6  C   UNL     1       1.089  -4.960  59.182  1.00  0.00     0.172 C 
HETATM    7  O   UNL     1       1.999  -4.500  59.850  1.00  0.00    -0.648 OA
HETATM    8  O   UNL     1      -0.146  -5.098  59.700  1.00  0.00    -0.648 OA
ENDBRANCH   5   6
ENDBRANCH   4   5
ENDBRANCH   3   4
BRANCH   3   9
HETATM    9  C   UNL     1       3.626  -5.747  56.495  1.00  0.00     0.070 C 
BRANCH   9  10
HETATM   10  C   UNL     1       4.746  -4.940  57.109  1.00  0.00    -0.053 A 
HETATM   11  C   UNL     1       5.061  -5.075  58.467  1.00  0.00     0.043 A 
HETATM   12  C   UNL     1       6.090  -4.322  59.023  1.00  0.00     0.066 A 
HETATM   13  C   UNL     1       6.821  -3.427  58.248  1.00  0.00     0.036 A 
HETATM   14  C   UNL     1       6.513  -3.285  56.896  1.00  0.00     0.003 A 
HETATM   15  C   UNL     1       5.482  -4.036  56.328  1.00  0.00     0.007 A 
BRANCH  12  16
HETATM   16  O   UNL     1       6.355  -4.494  60.350  1.00  0.00    -0.361 OA
HETATM   17  H   UNL     1       6.110  -3.833  60.967  1.00  0.00     0.217 HD
ENDBRANCH  12  16
ENDBRANCH   9  10
ENDBRANCH   3   9
ENDBRANCH   1   3
TORSDOF 7
ENDMDL
MODEL 7
REMARK VINA RESULT:      -6.2      2.468      5.537
REMARK  7 active torsions:
REMARK  status: ('A' for Active; 'I' for Inactive)
REMARK    1  A    between atoms: O_1  and  C_2 
REMARK    2  A    between atoms: C_2  and  C_3 
REMARK    3  A    between atoms: C_2  and  C_8 
REMARK    4  A    between atoms: C_3  and  C_4 
REMARK    5  A    between atoms: C_4  and  C_5 
REMARK    6  A    between atoms: C_8  and  C_9 
REMARK    7  A    between atoms: C_11  and  O_15 
ROOT
HETATM    1  O   UNL     1       3.937  -6.125  55.472  1.00  0.00    -0.395 OA
HETATM    2  H   UNL     1       3.126  -6.640  55.345  1.00  0.00     0.210 HD
ENDROOT
BRANCH   1   3
HETATM    3  C   UNL     1       3.769  -5.236  56.579  1.00  0.00     0.122 C 
BRANCH   3   4
HETATM    4  C   UNL     1       2.273  -4.944  56.740  1.00  0.00     0.042 C 
BRANCH   4   5
HETATM    5  C   UNL     1       1.660  -5.726  57.898  1.00  0.00     0.116 C 
BRANCH   5   6
HETATM    6  C   UNL     1       2.313  -5.341  59.191  1.00  0.00     0.172 C 
HETATM    7  O   UNL     1       2.199  -4.273  59.767  1.00  0.00    -0.648 OA
HETATM    8  O   UNL     1       3.055  -6.333  59.719  1.00  0.00    -0.648 OA
ENDBRANCH   5   6
ENDBRANCH   4   5
ENDBRANCH   3   4
BRANCH   3   9
HETATM    9  C   UNL     1       4.559  -3.933  56.364  1.00  0.00     0.070 C 
BRANCH   9  10
HETATM   10  C   UNL     1       5.640  -3.722  57.399  1.00  0.00    -0.053 A 
HETATM   11  C   UNL     1       6.609  -2.725  57.225  1.00  0.00     0.043 A 
HETATM   12  C   UNL     1       7.604  -2.544  58.181  1.00  0.00     0.066 A 
HETATM   13  C   UNL     1       7.657  -3.343  59.318  1.00  0.00     0.036 A 
HETATM   14  C   UNL     1       6.698  -4.339  59.497  1.00  0.00     0.003 A 
HETATM   15  C   UNL     1       5.695  -4.529  58.544  1.00  0.00     0.007 A 
BRANCH  12  16
HETATM   16  O   UNL     1       8.520  -1.557  57.962  1.00  0.00    -0.361 OA
HETATM   17  H   UNL     1       8.289  -0.662  58.113  1.00  0.00     0.217 HD
ENDBRANCH  12  16
ENDBRANCH   9  10
ENDBRANCH   3   9
ENDBRANCH   1   3
TORSDOF 7
ENDMDL
MODEL 8
REMARK VINA RESULT:      -6.2      2.581      6.155
REMARK  7 active torsions:
REMARK  status: ('A' for Active; 'I' for Inactive)
REMARK    1  A    between atoms: O_1  and  C_2 
REMARK    2  A    between atoms: C_2  and  C_3 
REMARK    3  A    between atoms: C_2  and  C_8 
REMARK    4  A    between atoms: C_3  and  C_4 
REMARK    5  A    between atoms: C_4  and  C_5 
REMARK    6  A    between atoms: C_8  and  C_9 
REMARK    7  A    between atoms: C_11  and  O_15 
ROOT
HETATM    1  O   UNL     1       3.434  -7.239  58.560  1.00  0.00    -0.395 OA
HETATM    2  H   UNL     1       3.259  -7.634  59.429  1.00  0.00     0.210 HD
ENDROOT
BRANCH   1   3
HETATM    3  C   UNL     1       3.426  -5.815  58.675  1.00  0.00     0.122 C 
BRANCH   3   4
HETATM    4  C   UNL     1       1.971  -5.336  58.645  1.00  0.00     0.042 C 
BRANCH   4   5
HETATM    5  C   UNL     1       1.372  -5.414  57.243  1.00  0.00     0.116 C 
BRANCH   5   6
HETATM    6  C   UNL     1       0.711  -6.743  57.033  1.00  0.00     0.172 C 
HETATM    7  O   UNL     1      -0.373  -7.087  57.471  1.00  0.00    -0.648 OA
HETATM    8  O   UNL     1       1.432  -7.568  56.250  1.00  0.00    -0.648 OA
ENDBRANCH   5   6
ENDBRANCH   4   5
ENDBRANCH   3   4
BRANCH   3   9
HETATM    9  C   UNL     1       4.238  -5.166  57.539  1.00  0.00     0.070 C 
BRANCH   9  10
HETATM   10  C   UNL     1       5.489  -4.476  58.029  1.00  0.00    -0.053 A 
HETATM   11  C   UNL     1       6.209  -3.619  57.186  1.00  0.00     0.043 A 
HETATM   12  C   UNL     1       7.363  -2.995  57.645  1.00  0.00     0.066 A 
HETATM   13  C   UNL     1       7.824  -3.207  58.940  1.00  0.00     0.036 A 
HETATM   14  C   UNL     1       7.116  -4.059  59.786  1.00  0.00     0.003 A 
HETATM   15  C   UNL     1       5.955  -4.692  59.335  1.00  0.00     0.007 A 
BRANCH  12  16
HETATM   16  O   UNL     1       8.023  -2.169  56.782  1.00  0.00    -0.361 OA
HETATM   17  H   UNL     1       8.565  -1.481  57.114  1.00  0.00     0.217 HD
ENDBRANCH  12  16
ENDBRANCH   9  10
ENDBRANCH   3   9
ENDBRANCH   1   3
TORSDOF 7
ENDMDL
MODEL 9
REMARK VINA RESULT:      -6.2      1.896      2.451
REMARK  7 active torsions:
REMARK  status: ('A' for Active; 'I' for Inactive)
REMARK    1  A    between atoms: O_1  and  C_2 
REMARK    2  A    between atoms: C_2  and  C_3 
REMARK    3  A    between atoms: C_2  and  C_8 
REMARK    4  A    between atoms: C_3  and  C_4 
REMARK    5  A    between atoms: C_4  and  C_5 
REMARK    6  A    between atoms: C_8  and  C_9 
REMARK    7  A    between atoms: C_11  and  O_15 
ROOT
HETATM    1  O   UNL     1       8.311  -0.998  58.062  1.00  0.00    -0.395 OA
HETATM    2  H   UNL     1       8.248  -0.053  57.851  1.00  0.00     0.210 HD
ENDROOT
BRANCH   1   3
HETATM    3  C   UNL     1       7.150  -1.673  57.573  1.00  0.00     0.122 C 
BRANCH   3   4
HETATM    4  C   UNL     1       5.966  -0.702  57.632  1.00  0.00     0.042 C 
BRANCH   4   5
HETATM    5  C   UNL     1       6.040   0.357  56.536  1.00  0.00     0.116 C 
BRANCH   5   6
HETATM    6  C   UNL     1       5.884  -0.278  55.187  1.00  0.00     0.172 C 
HETATM    7  O   UNL     1       6.768  -0.454  54.366  1.00  0.00    -0.648 OA
HETATM    8  O   UNL     1       4.627  -0.696  54.946  1.00  0.00    -0.648 OA
ENDBRANCH   5   6
ENDBRANCH   4   5
ENDBRANCH   3   4
BRANCH   3   9
HETATM    9  C   UNL     1       6.859  -2.939  58.398  1.00  0.00     0.070 C 
BRANCH   9  10
HETATM   10  C   UNL     1       5.861  -3.859  57.735  1.00  0.00    -0.053 A 
HETATM   11  C   UNL     1       5.639  -3.794  56.353  1.00  0.00     0.043 A 
HETATM   12  C   UNL     1       4.713  -4.641  55.754  1.00  0.00     0.066 A 
HETATM   13  C   UNL     1       3.993  -5.561  56.508  1.00  0.00     0.036 A 
HETATM   14  C   UNL     1       4.205  -5.631  57.884  1.00  0.00     0.003 A 
HETATM   15  C   UNL     1       5.133  -4.785  58.496  1.00  0.00     0.007 A 
BRANCH  12  16
HETATM   16  O   UNL     1       4.539  -4.537  54.405  1.00  0.00    -0.361 OA
HETATM   17  H   UNL     1       5.176  -4.090  53.883  1.00  0.00     0.217 HD
ENDBRANCH  12  16
ENDBRANCH   9  10
ENDBRANCH   3   9
ENDBRANCH   1   3
TORSDOF 7
ENDMDL
