MODEL 1
REMARK VINA RESULT:      -6.6      0.000      0.000
REMARK  7 active torsions:
REMARK  status: ('A' for Active; 'I' for Inactive)
REMARK    1  A    between atoms: O_1  and  C_2 
REMARK    2  A    between atoms: C_2  and  C_3 
REMARK    3  A    between atoms: C_2  and  C_8 
REMARK    4  A    between atoms: C_3  and  C_4 
REMARK    5  A    between atoms: C_4  and  C_5 
REMARK    6  A    between atoms: C_8  and  C_9 
REMARK    7  A    between atoms: C_11  and  O_15 
ROOT
HETATM    1  O   UNL     1       6.034  -9.043  57.259  1.00  0.00    -0.395 OA
HETATM    2  H   UNL     1       6.307  -8.385  57.917  1.00  0.00     0.210 HD
ENDROOT
BRANCH   1   3
HETATM    3  C   UNL     1       4.745  -8.697  56.746  1.00  0.00     0.122 C 
BRANCH   3   4
HETATM    4  C   UNL     1       3.855  -9.943  56.795  1.00  0.00     0.042 C 
BRANCH   4   5
HETATM    5  C   UNL     1       2.970 -10.062  55.558  1.00  0.00     0.116 C 
BRANCH   5   6
HETATM    6  C   UNL     1       1.671 -10.723  55.908  1.00  0.00     0.172 C 
HETATM    7  O   UNL     1       1.449 -11.921  55.912  1.00  0.00    -0.648 OA
HETATM    8  O   UNL     1       0.717  -9.844  56.271  1.00  0.00    -0.648 OA
ENDBRANCH   5   6
ENDBRANCH   4   5
ENDBRANCH   3   4
BRANCH   3   9
HETATM    9  C   UNL     1       4.850  -8.157  55.308  1.00  0.00     0.070 C 
BRANCH   9  10
HETATM   10  C   UNL     1       4.265  -6.773  55.154  1.00  0.00    -0.053 A 
HETATM   11  C   UNL     1       4.666  -5.942  54.100  1.00  0.00     0.043 A 
HETATM   12  C   UNL     1       4.125  -4.667  53.971  1.00  0.00     0.066 A 
HETATM   13  C   UNL     1       3.184  -4.194  54.880  1.00  0.00     0.036 A 
HETATM   14  C   UNL     1       2.781  -5.013  55.933  1.00  0.00     0.003 A 
HETATM   15  C   UNL     1       3.317  -6.296  56.072  1.00  0.00     0.007 A 
BRANCH  12  16
HETATM   16  O   UNL     1       4.550  -3.902  52.925  1.00  0.00    -0.361 OA
HETATM   17  H   UNL     1       5.466  -3.818  52.747  1.00  0.00     0.217 HD
ENDBRANCH  12  16
ENDBRANCH   9  10
ENDBRANCH   3   9
ENDBRANCH   1   3
TORSDOF 7
ENDMDL
MODEL 2
REMARK VINA RESULT:      -6.5      1.374      5.411
REMARK  7 active torsions:
REMARK  status: ('A' for Active; 'I' for Inactive)
REMARK    1  A    between atoms: O_1  and  C_2 
REMARK    2  A    between atoms: C_2  and  C_3 
REMARK    3  A    between atoms: C_2  and  C_8 
REMARK    4  A    between atoms: C_3  and  C_4 
REMARK    5  A    between atoms: C_4  and  C_5 
REMARK    6  A    between atoms: C_8  and  C_9 
REMARK    7  A    between atoms: C_11  and  O_15 
ROOT
HETATM    1  O   UNL     1       6.426  -7.639  56.195  1.00  0.00    -0.395 OA
HETATM    2  H   UNL     1       6.630  -7.694  57.142  1.00  0.00     0.210 HD
ENDROOT
BRANCH   1   3
HETATM    3  C   UNL     1       5.009  -7.656  56.011  1.00  0.00     0.122 C 
BRANCH   3   4
HETATM    4  C   UNL     1       4.428  -6.376  56.621  1.00  0.00     0.042 C 
BRANCH   4   5
HETATM    5  C   UNL     1       3.190  -5.895  55.868  1.00  0.00     0.116 C 
BRANCH   5   6
HETATM    6  C   UNL     1       3.579  -5.320  54.540  1.00  0.00     0.172 C 
HETATM    7  O   UNL     1       4.461  -4.503  54.337  1.00  0.00    -0.648 OA
HETATM    8  O   UNL     1       2.862  -5.828  53.519  1.00  0.00    -0.648 OA
ENDBRANCH   5   6
ENDBRANCH   4   5
ENDBRANCH   3   4
BRANCH   3   9
HETATM    9  C   UNL     1       4.383  -8.903  56.660  1.00  0.00     0.070 C 
BRANCH   9  10
HETATM   10  C   UNL     1       3.363  -9.579  55.775  1.00  0.00    -0.053 A 
HETATM   11  C   UNL     1       2.596 -10.648  56.257  1.00  0.00     0.043 A 
HETATM   12  C   UNL     1       1.664 -11.268  55.431  1.00  0.00     0.066 A 
HETATM   13  C   UNL     1       1.478 -10.844  54.119  1.00  0.00     0.036 A 
HETATM   14  C   UNL     1       2.239  -9.784  53.630  1.00  0.00     0.003 A 
HETATM   15  C   UNL     1       3.177  -9.154  54.451  1.00  0.00     0.007 A 
BRANCH  12  16
HETATM   16  O   UNL     1       0.943 -12.301  55.953  1.00  0.00    -0.361 OA
HETATM   17  H   UNL     1       1.364 -12.939  56.495  1.00  0.00     0.217 HD
ENDBRANCH  12  16
ENDBRANCH   9  10
ENDBRANCH   3   9
ENDBRANCH   1   3
TORSDOF 7
ENDMDL
MODEL 3
REMARK VINA RESULT:      -6.2      2.714      4.451
REMARK  7 active torsions:
REMARK  status: ('A' for Active; 'I' for Inactive)
REMARK    1  A    between atoms: O_1  and  C_2 
REMARK    2  A    between atoms: C_2  and  C_3 
REMARK    3  A    between atoms: C_2  and  C_8 
REMARK    4  A    between atoms: C_3  and  C_4 
REMARK    5  A    between atoms: C_4  and  C_5 
REMARK    6  A    between atoms: C_8  and  C_9 
REMARK    7  A    between atoms: C_11  and  O_15 
ROOT
HETATM    1  O   UNL     1       1.683 -10.824  52.349  1.00  0.00    -0.395 OA
HETATM    2  H   UNL     1       1.001 -11.490  52.171  1.00  0.00     0.210 HD
ENDROOT
BRANCH   1   3
HETATM    3  C   UNL     1       1.497 -10.291  53.661  1.00  0.00     0.122 C 
BRANCH   3   4
HETATM    4  C   UNL     1       0.022  -9.908  53.823  1.00  0.00     0.042 C 
BRANCH   4   5
HETATM    5  C   UNL     1      -0.795 -11.035  54.448  1.00  0.00     0.116 C 
BRANCH   5   6
HETATM    6  C   UNL     1      -1.420 -10.575  55.731  1.00  0.00     0.172 C 
HETATM    7  O   UNL     1      -2.608 -10.591  56.002  1.00  0.00    -0.648 OA
HETATM    8  O   UNL     1      -0.513 -10.148  56.631  1.00  0.00    -0.648 OA
ENDBRANCH   5   6
ENDBRANCH   4   5
ENDBRANCH   3   4
BRANCH   3   9
HETATM    9  C   UNL     1       2.406  -9.071  53.895  1.00  0.00     0.070 C 
BRANCH   9  10
HETATM   10  C   UNL     1       3.272  -9.208  55.125  1.00  0.00    -0.053 A 
HETATM   11  C   UNL     1       4.385  -8.377  55.310  1.00  0.00     0.043 A 
HETATM   12  C   UNL     1       5.180  -8.516  56.443  1.00  0.00     0.066 A 
HETATM   13  C   UNL     1       4.890  -9.477  57.406  1.00  0.00     0.036 A 
HETATM   14  C   UNL     1       3.787 -10.311  57.228  1.00  0.00     0.003 A 
HETATM   15  C   UNL     1       2.981 -10.179  56.095  1.00  0.00     0.007 A 
BRANCH  12  16
HETATM   16  O   UNL     1       6.248  -7.679  56.574  1.00  0.00    -0.361 OA
HETATM   17  H   UNL     1       6.790  -7.491  55.833  1.00  0.00     0.217 HD
ENDBRANCH  12  16
ENDBRANCH   9  10
ENDBRANCH   3   9
ENDBRANCH   1   3
TORSDOF 7
ENDMDL
MODEL 4
REMARK VINA RESULT:      -6.2      3.193      5.229
REMARK  7 active torsions:
REMARK  status: ('A' for Active; 'I' for Inactive)
REMARK    1  A    between atoms: O_1  and  C_2 
REMARK    2  A    between atoms: C_2  and  C_3 
REMARK    3  A    between atoms: C_2  and  C_8 
REMARK    4  A    between atoms: C_3  and  C_4 
REMARK    5  A    between atoms: C_4  and  C_5 
REMARK    6  A    between atoms: C_8  and  C_9 
REMARK    7  A    between atoms: C_11  and  O_15 
ROOT
HETATM    1  O   UNL     1       0.678 -13.238  53.634  1.00  0.00    -0.395 OA
HETATM    2  H   UNL     1       1.372 -13.221  52.958  1.00  0.00     0.210 HD
ENDROOT
BRANCH   1   3
HETATM    3  C   UNL     1       0.421 -11.907  54.087  1.00  0.00     0.122 C 
BRANCH   3   4
HETATM    4  C   UNL     1      -1.055 -11.585  53.829  1.00  0.00     0.042 C 
BRANCH   4   5
HETATM    5  C   UNL     1      -1.470 -10.260  54.462  1.00  0.00     0.116 C 
BRANCH   5   6
HETATM    6  C   UNL     1      -1.972 -10.484  55.857  1.00  0.00     0.172 C 
HETATM    7  O   UNL     1      -3.083 -10.879  56.169  1.00  0.00    -0.648 OA
HETATM    8  O   UNL     1      -1.040 -10.234  56.796  1.00  0.00    -0.648 OA
ENDBRANCH   5   6
ENDBRANCH   4   5
ENDBRANCH   3   4
BRANCH   3   9
HETATM    9  C   UNL     1       1.334 -10.896  53.371  1.00  0.00     0.070 C 
BRANCH   9  10
HETATM   10  C   UNL     1       2.257 -10.162  54.316  1.00  0.00    -0.053 A 
HETATM   11  C   UNL     1       2.403 -10.587  55.643  1.00  0.00     0.043 A 
HETATM   12  C   UNL     1       3.250  -9.901  56.507  1.00  0.00     0.066 A 
HETATM   13  C   UNL     1       3.963  -8.787  56.074  1.00  0.00     0.036 A 
HETATM   14  C   UNL     1       3.822  -8.356  54.756  1.00  0.00     0.003 A 
HETATM   15  C   UNL     1       2.974  -9.038  53.880  1.00  0.00     0.007 A 
BRANCH  12  16
HETATM   16  O   UNL     1       3.357 -10.359  57.787  1.00  0.00    -0.361 OA
HETATM   17  H   UNL     1       2.595 -10.413  58.330  1.00  0.00     0.217 HD
ENDBRANCH  12  16
ENDBRANCH   9  10
ENDBRANCH   3   9
ENDBRANCH   1   3
TORSDOF 7
ENDMDL
MODEL 5
REMARK VINA RESULT:      -6.2      1.417      1.752
REMARK  7 active torsions:
REMARK  status: ('A' for Active; 'I' for Inactive)
REMARK    1  A    between atoms: O_1  and  C_2 
REMARK    2  A    between atoms: C_2  and  C_3 
REMARK    3  A    between atoms: C_2  and  C_8 
REMARK    4  A    between atoms: C_3  and  C_4 
REMARK    5  A    between atoms: C_4  and  C_5 
REMARK    6  A    between atoms: C_8  and  C_9 
REMARK    7  A    between atoms: C_11  and  O_15 
ROOT
HETATM    1  O   UNL     1       3.101 -10.415  57.389  1.00  0.00    -0.395 OA
HETATM    2  H   UNL     1       3.050 -10.192  58.332  1.00  0.00     0.210 HD
ENDROOT
BRANCH   1   3
HETATM    3  C   UNL     1       2.786  -9.259  56.609  1.00  0.00     0.122 C 
BRANCH   3   4
HETATM    4  C   UNL     1       1.529  -9.560  55.786  1.00  0.00     0.042 C 
BRANCH   4   5
HETATM    5  C   UNL     1       1.814 -10.528  54.641  1.00  0.00     0.116 C 
BRANCH   5   6
HETATM    6  C   UNL     1       1.042 -11.799  54.829  1.00  0.00     0.172 C 
HETATM    7  O   UNL     1       0.608 -12.517  53.944  1.00  0.00    -0.648 OA
HETATM    8  O   UNL     1       0.880 -12.127  56.125  1.00  0.00    -0.648 OA
ENDBRANCH   5   6
ENDBRANCH   4   5
ENDBRANCH   3   4
BRANCH   3   9
HETATM    9  C   UNL     1       3.960  -8.875  55.692  1.00  0.00     0.070 C 
BRANCH   9  10
HETATM   10  C   UNL     1       3.900  -7.440  55.225  1.00  0.00    -0.053 A 
HETATM   11  C   UNL     1       4.284  -7.096  53.922  1.00  0.00     0.043 A 
HETATM   12  C   UNL     1       4.230  -5.770  53.505  1.00  0.00     0.066 A 
HETATM   13  C   UNL     1       3.799  -4.767  54.366  1.00  0.00     0.036 A 
HETATM   14  C   UNL     1       3.417  -5.099  55.665  1.00  0.00     0.003 A 
HETATM   15  C   UNL     1       3.467  -6.427  56.094  1.00  0.00     0.007 A 
BRANCH  12  16
HETATM   16  O   UNL     1       4.613  -5.493  52.226  1.00  0.00    -0.361 OA
HETATM   17  H   UNL     1       5.213  -4.793  52.057  1.00  0.00     0.217 HD
ENDBRANCH  12  16
ENDBRANCH   9  10
ENDBRANCH   3   9
ENDBRANCH   1   3
TORSDOF 7
ENDMDL
MODEL 6
REMARK VINA RESULT:      -6.1      2.245      5.242
REMARK  7 active torsions:
REMARK  status: ('A' for Active; 'I' for Inactive)
REMARK    1  A    between atoms: O_1  and  C_2 
REMARK    2  A    between atoms: C_2  and  C_3 
REMARK    3  A    between atoms: C_2  and  C_8 
REMARK    4  A    between atoms: C_3  and  C_4 
REMARK    5  A    between atoms: C_4  and  C_5 
REMARK    6  A    between atoms: C_8  and  C_9 
REMARK    7  A    between atoms: C_11  and  O_15 
ROOT
HETATM    1  O   UNL     1       4.822  -6.120  51.777  1.00  0.00    -0.395 OA
HETATM    2  H   UNL     1       5.318  -5.289  51.716  1.00  0.00     0.210 HD
ENDROOT
BRANCH   1   3
HETATM    3  C   UNL     1       4.450  -6.355  53.137  1.00  0.00     0.122 C 
BRANCH   3   4
HETATM    4  C   UNL     1       4.308  -5.001  53.840  1.00  0.00     0.042 C 
BRANCH   4   5
HETATM    5  C   UNL     1       2.887  -4.765  54.344  1.00  0.00     0.116 C 
BRANCH   5   6
HETATM    6  C   UNL     1       2.850  -4.820  55.841  1.00  0.00     0.172 C 
HETATM    7  O   UNL     1       3.601  -5.457  56.559  1.00  0.00    -0.648 OA
HETATM    8  O   UNL     1       1.887  -4.040  56.370  1.00  0.00    -0.648 OA
ENDBRANCH   5   6
ENDBRANCH   4   5
ENDBRANCH   3   4
BRANCH   3   9
HETATM    9  C   UNL     1       5.494  -7.233  53.850  1.00  0.00     0.070 C 
BRANCH   9  10
HETATM   10  C   UNL     1       4.887  -8.139  54.896  1.00  0.00    -0.053 A 
HETATM   11  C   UNL     1       5.547  -8.370  56.110  1.00  0.00     0.043 A 
HETATM   12  C   UNL     1       4.982  -9.211  57.063  1.00  0.00     0.066 A 
HETATM   13  C   UNL     1       3.761  -9.836  56.831  1.00  0.00     0.036 A 
HETATM   14  C   UNL     1       3.099  -9.614  55.626  1.00  0.00     0.003 A 
HETATM   15  C   UNL     1       3.657  -8.771  54.661  1.00  0.00     0.007 A 
BRANCH  12  16
HETATM   16  O   UNL     1       5.667  -9.398  58.228  1.00  0.00    -0.361 OA
HETATM   17  H   UNL     1       5.320  -9.962  58.890  1.00  0.00     0.217 HD
ENDBRANCH  12  16
ENDBRANCH   9  10
ENDBRANCH   3   9
ENDBRANCH   1   3
TORSDOF 7
ENDMDL
MODEL 7
REMARK VINA RESULT:      -6.1      2.040      3.381
REMARK  7 active torsions:
REMARK  status: ('A' for Active; 'I' for Inactive)
REMARK    1  A    between atoms: O_1  and  C_2 
REMARK    2  A    between atoms: C_2  and  C_3 
REMARK    3  A    between atoms: C_2  and  C_8 
REMARK    4  A    between atoms: C_3  and  C_4 
REMARK    5  A    between atoms: C_4  and  C_5 
REMARK    6  A    between atoms: C_8  and  C_9 
REMARK    7  A    between atoms: C_11  and  O_15 
ROOT
HETATM    1  O   UNL     1       2.576 -11.616  56.679  1.00  0.00    -0.395 OA
HETATM    2  H   UNL     1       2.059 -11.903  57.448  1.00  0.00     0.210 HD
ENDROOT
BRANCH   1   3
HETATM    3  C   UNL     1       1.789 -10.732  55.879  1.00  0.00     0.122 C 
BRANCH   3   4
HETATM    4  C   UNL     1       0.652 -11.539  55.243  1.00  0.00     0.042 C 
BRANCH   4   5
HETATM    5  C   UNL     1      -0.529 -10.654  54.855  1.00  0.00     0.116 C 
BRANCH   5   6
HETATM    6  C   UNL     1      -1.462 -10.490  56.016  1.00  0.00     0.172 C 
HETATM    7  O   UNL     1      -2.630 -10.836  56.058  1.00  0.00    -0.648 OA
HETATM    8  O   UNL     1      -0.871  -9.928  57.088  1.00  0.00    -0.648 OA
ENDBRANCH   5   6
ENDBRANCH   4   5
ENDBRANCH   3   4
BRANCH   3   9
HETATM    9  C   UNL     1       2.648 -10.054  54.797  1.00  0.00     0.070 C 
BRANCH   9  10
HETATM   10  C   UNL     1       3.211  -8.723  55.239  1.00  0.00    -0.053 A 
HETATM   11  C   UNL     1       4.474  -8.647  55.840  1.00  0.00     0.043 A 
HETATM   12  C   UNL     1       4.980  -7.417  56.249  1.00  0.00     0.066 A 
HETATM   13  C   UNL     1       4.246  -6.248  56.073  1.00  0.00     0.036 A 
HETATM   14  C   UNL     1       2.987  -6.315  55.479  1.00  0.00     0.003 A 
HETATM   15  C   UNL     1       2.470  -7.545  55.064  1.00  0.00     0.007 A 
BRANCH  12  16
HETATM   16  O   UNL     1       6.216  -7.400  56.825  1.00  0.00    -0.361 OA
HETATM   17  H   UNL     1       6.304  -7.216  57.740  1.00  0.00     0.217 HD
ENDBRANCH  12  16
ENDBRANCH   9  10
ENDBRANCH   3   9
ENDBRANCH   1   3
TORSDOF 7
ENDMDL
MODEL 8
REMARK VINA RESULT:      -6.0      2.344      4.004
REMARK  7 active torsions:
REMARK  status: ('A' for Active; 'I' for Inactive)
REMARK    1  A    between atoms: O_1  and  C_2 
REMARK    2  A    between atoms: C_2  and  C_3 
REMARK    3  A    between atoms: C_2  and  C_8 
REMARK    4  A    between atoms: C_3  and  C_4 
REMARK    5  A    between atoms: C_4  and  C_5 
REMARK    6  A    between atoms: C_8  and  C_9 
REMARK    7  A    between atoms: C_11  and  O_15 
ROOT
HETATM    1  O   UNL     1       0.302 -11.433  56.037  1.00  0.00    -0.395 OA
HETATM    2  H   UNL     1       0.825 -12.179  56.370  1.00  0.00     0.210 HD
ENDROOT
BRANCH   1   3
HETATM    3  C   UNL     1       1.148 -10.552  55.295  1.00  0.00     0.122 C 
BRANCH   3   4
HETATM    4  C   UNL     1       1.169 -11.018  53.835  1.00  0.00     0.042 C 
BRANCH   4   5
HETATM    5  C   UNL     1       0.574 -12.413  53.672  1.00  0.00     0.116 C 
BRANCH   5   6
HETATM    6  C   UNL     1      -0.739 -12.339  52.953  1.00  0.00     0.172 C 
HETATM    7  O   UNL     1      -1.030 -12.918  51.920  1.00  0.00    -0.648 OA
HETATM    8  O   UNL     1      -1.641 -11.565  53.587  1.00  0.00    -0.648 OA
ENDBRANCH   5   6
ENDBRANCH   4   5
ENDBRANCH   3   4
BRANCH   3   9
HETATM    9  C   UNL     1       2.570 -10.529  55.881  1.00  0.00     0.070 C 
BRANCH   9  10
HETATM   10  C   UNL     1       3.166  -9.141  55.928  1.00  0.00    -0.053 A 
HETATM   11  C   UNL     1       4.503  -8.951  56.302  1.00  0.00     0.043 A 
HETATM   12  C   UNL     1       5.039  -7.668  56.348  1.00  0.00     0.066 A 
HETATM   13  C   UNL     1       4.265  -6.557  56.029  1.00  0.00     0.036 A 
HETATM   14  C   UNL     1       2.933  -6.737  55.659  1.00  0.00     0.003 A 
HETATM   15  C   UNL     1       2.385  -8.021  55.609  1.00  0.00     0.007 A 
BRANCH  12  16
HETATM   16  O   UNL     1       6.347  -7.541  56.716  1.00  0.00    -0.361 OA
HETATM   17  H   UNL     1       6.566  -7.320  57.599  1.00  0.00     0.217 HD
ENDBRANCH  12  16
ENDBRANCH   9  10
ENDBRANCH   3   9
ENDBRANCH   1   3
TORSDOF 7
ENDMDL
MODEL 9
REMARK VINA RESULT:      -6.0      3.296      5.483
REMARK  7 active torsions:
REMARK  status: ('A' for Active; 'I' for Inactive)
REMARK    1  A    between atoms: O_1  and  C_2 
REMARK    2  A    between atoms: C_2  and  C_3 
REMARK    3  A    between atoms: C_2  and  C_8 
REMARK    4  A    between atoms: C_3  and  C_4 
REMARK    5  A    between atoms: C_4  and  C_5 
REMARK    6  A    between atoms: C_8  and  C_9 
REMARK    7  A    between atoms: C_11  and  O_15 
ROOT
HETATM    1  O   UNL     1       0.570 -12.946  54.014  1.00  0.00    -0.395 OA
HETATM    2  H   UNL     1       1.364 -13.403  54.333  1.00  0.00     0.210 HD
ENDROOT
BRANCH   1   3
HETATM    3  C   UNL     1       0.530 -11.625  54.559  1.00  0.00     0.122 C 
BRANCH   3   4
HETATM    4  C   UNL     1      -0.907 -11.104  54.457  1.00  0.00     0.042 C 
BRANCH   4   5
HETATM    5  C   UNL     1      -1.263 -10.682  53.035  1.00  0.00     0.116 C 
BRANCH   5   6
HETATM    6  C   UNL     1      -2.118 -11.725  52.380  1.00  0.00     0.172 C 
HETATM    7  O   UNL     1      -2.274 -12.872  52.760  1.00  0.00    -0.648 OA
HETATM    8  O   UNL     1      -2.768 -11.263  51.295  1.00  0.00    -0.648 OA
ENDBRANCH   5   6
ENDBRANCH   4   5
ENDBRANCH   3   4
BRANCH   3   9
HETATM    9  C   UNL     1       1.503 -10.692  53.815  1.00  0.00     0.070 C 
BRANCH   9  10
HETATM   10  C   UNL     1       2.520 -10.051  54.730  1.00  0.00    -0.053 A 
HETATM   11  C   UNL     1       2.670 -10.492  56.051  1.00  0.00     0.043 A 
HETATM   12  C   UNL     1       3.605  -9.891  56.887  1.00  0.00     0.066 A 
HETATM   13  C   UNL     1       4.402  -8.846  56.432  1.00  0.00     0.036 A 
HETATM   14  C   UNL     1       4.259  -8.398  55.120  1.00  0.00     0.003 A 
HETATM   15  C   UNL     1       3.323  -8.996  54.272  1.00  0.00     0.007 A 
BRANCH  12  16
HETATM   16  O   UNL     1       3.710 -10.362  58.163  1.00  0.00    -0.361 OA
HETATM   17  H   UNL     1       3.077 -10.113  58.808  1.00  0.00     0.217 HD
ENDBRANCH  12  16
ENDBRANCH   9  10
ENDBRANCH   3   9
ENDBRANCH   1   3
TORSDOF 7
ENDMDL
