MODEL 1
REMARK VINA RESULT:      -7.1      0.000      0.000
REMARK  4 active torsions:
REMARK  status: ('A' for Active; 'I' for Inactive)
REMARK    1  A    between atoms: O_1  and  C_5 
REMARK    2  A    between atoms: O_1  and  C_14 
REMARK    3  A    between atoms: O_2  and  C_18 
REMARK    4  A    between atoms: C_10  and  C_13 
ROOT
HETATM    1  O   UNL     1     -53.041  47.915   8.730  1.00  0.00    -0.343 OA
ENDROOT
BRANCH   1   2
HETATM    2  C   UNL     1     -52.343  46.713   8.432  1.00  0.00     0.129 C 
HETATM    3  C   UNL     1     -51.000  47.051   7.801  1.00  0.00     0.032 C 
HETATM    4  C   UNL     1     -51.330  47.364   6.342  1.00  0.00     0.002 C 
HETATM    5  C   UNL     1     -52.665  46.680   6.049  1.00  0.00     0.002 C 
HETATM    6  C   UNL     1     -53.056  45.945   7.329  1.00  0.00     0.032 C 
ENDBRANCH   1   2
BRANCH   1   7
HETATM    7  C   UNL     1     -53.061  48.308  10.042  1.00  0.00     0.103 A 
HETATM    8  C   UNL     1     -52.714  47.390  11.029  1.00  0.00     0.047 A 
HETATM    9  C   UNL     1     -52.731  47.777  12.369  1.00  0.00    -0.049 A 
HETATM   10  C   UNL     1     -53.096  49.078  12.715  1.00  0.00     0.010 A 
HETATM   11  C   UNL     1     -53.443  49.992  11.721  1.00  0.00     0.040 A 
HETATM   12  C   UNL     1     -53.426  49.606  10.381  1.00  0.00     0.101 A 
BRANCH   9  13
HETATM   13  C   UNL     1     -52.354  46.784  13.448  1.00  0.00     0.045 C 
HETATM   14  C   UNL     1     -51.972  45.385  12.963  1.00  0.00     0.132 C 
HETATM   15  N   UNL     1     -51.185  44.853  14.039  1.00  0.00    -0.360 N 
HETATM   16  C   UNL     1     -50.664  45.843  14.861  1.00  0.00     0.218 C 
HETATM   17  H   UNL     1     -51.032  43.890  14.180  1.00  0.00     0.162 HD
HETATM   18  O   UNL     1     -49.924  45.698  15.820  1.00  0.00    -0.274 OA
HETATM   19  C   UNL     1     -51.138  47.168  14.313  1.00  0.00     0.113 C 
ENDBRANCH   9  13
BRANCH  12  20
HETATM   20  O   UNL     1     -53.768  50.508   9.418  1.00  0.00    -0.353 OA
HETATM   21  C   UNL     1     -53.661  51.888   9.758  1.00  0.00     0.210 C 
ENDBRANCH  12  20
ENDBRANCH   1   7
TORSDOF 4
ENDMDL
MODEL 2
REMARK VINA RESULT:      -7.1      3.753      5.748
REMARK  4 active torsions:
REMARK  status: ('A' for Active; 'I' for Inactive)
REMARK    1  A    between atoms: O_1  and  C_5 
REMARK    2  A    between atoms: O_1  and  C_14 
REMARK    3  A    between atoms: O_2  and  C_18 
REMARK    4  A    between atoms: C_10  and  C_13 
ROOT
HETATM    1  O   UNL     1     -52.349  43.332   9.574  1.00  0.00    -0.343 OA
ENDROOT
BRANCH   1   2
HETATM    2  C   UNL     1     -51.199  43.343   8.738  1.00  0.00     0.129 C 
HETATM    3  C   UNL     1     -51.594  42.916   7.332  1.00  0.00     0.032 C 
HETATM    4  C   UNL     1     -51.677  41.392   7.403  1.00  0.00     0.002 C 
HETATM    5  C   UNL     1     -50.822  40.972   8.599  1.00  0.00     0.002 C 
HETATM    6  C   UNL     1     -50.223  42.257   9.165  1.00  0.00     0.032 C 
ENDBRANCH   1   2
BRANCH   1   7
HETATM    7  C   UNL     1     -53.227  44.374   9.428  1.00  0.00     0.103 A 
HETATM    8  C   UNL     1     -52.786  45.671   9.672  1.00  0.00     0.047 A 
HETATM    9  C   UNL     1     -53.672  46.739   9.528  1.00  0.00    -0.049 A 
HETATM   10  C   UNL     1     -54.992  46.506   9.143  1.00  0.00     0.010 A 
HETATM   11  C   UNL     1     -55.427  45.203   8.901  1.00  0.00     0.040 A 
HETATM   12  C   UNL     1     -54.543  44.133   9.045  1.00  0.00     0.101 A 
BRANCH   9  13
HETATM   13  C   UNL     1     -53.199  48.153   9.789  1.00  0.00     0.045 C 
HETATM   14  C   UNL     1     -53.677  49.211   8.793  1.00  0.00     0.132 C 
HETATM   15  N   UNL     1     -53.562  50.443   9.521  1.00  0.00    -0.360 N 
HETATM   16  C   UNL     1     -53.536  50.251  10.895  1.00  0.00     0.218 C 
HETATM   17  H   UNL     1     -53.508  51.328   9.093  1.00  0.00     0.162 HD
HETATM   18  O   UNL     1     -53.493  51.108  11.763  1.00  0.00    -0.274 OA
HETATM   19  C   UNL     1     -53.629  48.764  11.137  1.00  0.00     0.113 C 
ENDBRANCH   9  13
BRANCH  12  20
HETATM   20  O   UNL     1     -54.979  42.865   8.807  1.00  0.00    -0.353 OA
HETATM   21  C   UNL     1     -56.354  42.708   8.464  1.00  0.00     0.210 C 
ENDBRANCH  12  20
ENDBRANCH   1   7
TORSDOF 4
ENDMDL
MODEL 3
REMARK VINA RESULT:      -6.8      1.247      1.373
REMARK  4 active torsions:
REMARK  status: ('A' for Active; 'I' for Inactive)
REMARK    1  A    between atoms: O_1  and  C_5 
REMARK    2  A    between atoms: O_1  and  C_14 
REMARK    3  A    between atoms: O_2  and  C_18 
REMARK    4  A    between atoms: C_10  and  C_13 
ROOT
HETATM    1  O   UNL     1     -53.006  46.817   9.404  1.00  0.00    -0.343 OA
ENDROOT
BRANCH   1   2
HETATM    2  C   UNL     1     -51.737  46.523   8.834  1.00  0.00     0.129 C 
HETATM    3  C   UNL     1     -51.505  47.420   7.627  1.00  0.00     0.032 C 
HETATM    4  C   UNL     1     -52.299  46.760   6.501  1.00  0.00     0.002 C 
HETATM    5  C   UNL     1     -52.476  45.296   6.903  1.00  0.00     0.002 C 
HETATM    6  C   UNL     1     -51.739  45.127   8.230  1.00  0.00     0.032 C 
ENDBRANCH   1   2
BRANCH   1   7
HETATM    7  C   UNL     1     -53.010  47.583  10.540  1.00  0.00     0.103 A 
HETATM    8  C   UNL     1     -52.469  47.059  11.711  1.00  0.00     0.047 A 
HETATM    9  C   UNL     1     -52.468  47.828  12.875  1.00  0.00    -0.049 A 
HETATM   10  C   UNL     1     -53.007  49.115  12.863  1.00  0.00     0.010 A 
HETATM   11  C   UNL     1     -53.548  49.632  11.687  1.00  0.00     0.040 A 
HETATM   12  C   UNL     1     -53.549  48.865  10.521  1.00  0.00     0.101 A 
BRANCH   9  13
HETATM   13  C   UNL     1     -51.880  47.266  14.152  1.00  0.00     0.045 C 
HETATM   14  C   UNL     1     -50.757  46.243  13.975  1.00  0.00     0.132 C 
HETATM   15  N   UNL     1     -50.056  46.286  15.228  1.00  0.00    -0.360 N 
HETATM   16  C   UNL     1     -50.286  47.461  15.929  1.00  0.00     0.218 C 
HETATM   17  H   UNL     1     -49.475  45.561  15.553  1.00  0.00     0.162 HD
HETATM   18  O   UNL     1     -49.794  47.799  16.993  1.00  0.00    -0.274 OA
HETATM   19  C   UNL     1     -51.233  48.294  15.099  1.00  0.00     0.113 C 
ENDBRANCH   9  13
BRANCH  12  20
HETATM   20  O   UNL     1     -54.081  49.381   9.378  1.00  0.00    -0.353 OA
HETATM   21  C   UNL     1     -53.331  50.396   8.716  1.00  0.00     0.210 C 
ENDBRANCH  12  20
ENDBRANCH   1   7
TORSDOF 4
ENDMDL
MODEL 4
REMARK VINA RESULT:      -6.8      2.770      4.891
REMARK  4 active torsions:
REMARK  status: ('A' for Active; 'I' for Inactive)
REMARK    1  A    between atoms: O_1  and  C_5 
REMARK    2  A    between atoms: O_1  and  C_14 
REMARK    3  A    between atoms: O_2  and  C_18 
REMARK    4  A    between atoms: C_10  and  C_13 
ROOT
HETATM    1  O   UNL     1     -52.368  47.755  10.833  1.00  0.00    -0.343 OA
ENDROOT
BRANCH   1   2
HETATM    2  C   UNL     1     -53.642  48.079  11.375  1.00  0.00     0.129 C 
HETATM    3  C   UNL     1     -54.582  48.480  10.248  1.00  0.00     0.032 C 
HETATM    4  C   UNL     1     -54.211  49.930   9.937  1.00  0.00     0.002 C 
HETATM    5  C   UNL     1     -53.524  50.473  11.189  1.00  0.00     0.002 C 
HETATM    6  C   UNL     1     -53.554  49.343  12.215  1.00  0.00     0.032 C 
ENDBRANCH   1   2
BRANCH   1   7
HETATM    7  C   UNL     1     -52.193  46.469  10.393  1.00  0.00     0.103 A 
HETATM    8  C   UNL     1     -52.364  45.418  11.290  1.00  0.00     0.047 A 
HETATM    9  C   UNL     1     -52.188  44.104  10.855  1.00  0.00    -0.049 A 
HETATM   10  C   UNL     1     -51.840  43.849   9.528  1.00  0.00     0.010 A 
HETATM   11  C   UNL     1     -51.670  44.906   8.636  1.00  0.00     0.040 A 
HETATM   12  C   UNL     1     -51.847  46.221   9.069  1.00  0.00     0.101 A 
BRANCH   9  13
HETATM   13  C   UNL     1     -52.373  42.956  11.823  1.00  0.00     0.045 C 
HETATM   14  C   UNL     1     -52.573  43.345  13.288  1.00  0.00     0.132 C 
HETATM   15  N   UNL     1     -53.229  42.202  13.859  1.00  0.00    -0.360 N 
HETATM   16  C   UNL     1     -53.849  41.410  12.904  1.00  0.00     0.218 C 
HETATM   17  H   UNL     1     -53.238  42.003  14.823  1.00  0.00     0.162 HD
HETATM   18  O   UNL     1     -54.519  40.407  13.093  1.00  0.00    -0.274 OA
HETATM   19  C   UNL     1     -53.593  42.051  11.562  1.00  0.00     0.113 C 
ENDBRANCH   9  13
BRANCH  12  20
HETATM   20  O   UNL     1     -51.677  47.246   8.189  1.00  0.00    -0.353 OA
HETATM   21  C   UNL     1     -51.508  46.900   6.817  1.00  0.00     0.210 C 
ENDBRANCH  12  20
ENDBRANCH   1   7
TORSDOF 4
ENDMDL
MODEL 5
REMARK VINA RESULT:      -6.8      2.836      5.223
REMARK  4 active torsions:
REMARK  status: ('A' for Active; 'I' for Inactive)
REMARK    1  A    between atoms: O_1  and  C_5 
REMARK    2  A    between atoms: O_1  and  C_14 
REMARK    3  A    between atoms: O_2  and  C_18 
REMARK    4  A    between atoms: C_10  and  C_13 
ROOT
HETATM    1  O   UNL     1     -51.469  46.129   7.334  1.00  0.00    -0.343 OA
ENDROOT
BRANCH   1   2
HETATM    2  C   UNL     1     -52.302  46.594   6.280  1.00  0.00     0.129 C 
HETATM    3  C   UNL     1     -53.079  45.423   5.696  1.00  0.00     0.032 C 
HETATM    4  C   UNL     1     -52.085  44.727   4.767  1.00  0.00     0.002 C 
HETATM    5  C   UNL     1     -51.027  45.772   4.414  1.00  0.00     0.002 C 
HETATM    6  C   UNL     1     -51.457  47.064   5.106  1.00  0.00     0.032 C 
ENDBRANCH   1   2
BRANCH   1   7
HETATM    7  C   UNL     1     -51.871  46.419   8.611  1.00  0.00     0.103 A 
HETATM    8  C   UNL     1     -52.519  47.626   8.860  1.00  0.00     0.047 A 
HETATM    9  C   UNL     1     -52.932  47.933  10.156  1.00  0.00    -0.049 A 
HETATM   10  C   UNL     1     -52.695  47.035  11.196  1.00  0.00     0.010 A 
HETATM   11  C   UNL     1     -52.045  45.829  10.941  1.00  0.00     0.040 A 
HETATM   12  C   UNL     1     -51.631  45.519   9.645  1.00  0.00     0.101 A 
BRANCH   9  13
HETATM   13  C   UNL     1     -53.639  49.243  10.433  1.00  0.00     0.045 C 
HETATM   14  C   UNL     1     -53.177  49.998  11.681  1.00  0.00     0.132 C 
HETATM   15  N   UNL     1     -53.576  51.354  11.427  1.00  0.00    -0.360 N 
HETATM   16  C   UNL     1     -53.777  51.608  10.078  1.00  0.00     0.218 C 
HETATM   17  H   UNL     1     -53.694  52.030  12.133  1.00  0.00     0.162 HD
HETATM   18  O   UNL     1     -54.073  52.672   9.559  1.00  0.00    -0.274 OA
HETATM   19  C   UNL     1     -53.506  50.320   9.339  1.00  0.00     0.113 C 
ENDBRANCH   9  13
BRANCH  12  20
HETATM   20  O   UNL     1     -50.996  44.338   9.407  1.00  0.00    -0.353 OA
HETATM   21  C   UNL     1     -51.323  43.244  10.260  1.00  0.00     0.210 C 
ENDBRANCH  12  20
ENDBRANCH   1   7
TORSDOF 4
ENDMDL
MODEL 6
REMARK VINA RESULT:      -6.7      3.286      5.735
REMARK  4 active torsions:
REMARK  status: ('A' for Active; 'I' for Inactive)
REMARK    1  A    between atoms: O_1  and  C_5 
REMARK    2  A    between atoms: O_1  and  C_14 
REMARK    3  A    between atoms: O_2  and  C_18 
REMARK    4  A    between atoms: C_10  and  C_13 
ROOT
HETATM    1  O   UNL     1     -52.629  47.818  11.264  1.00  0.00    -0.343 OA
ENDROOT
BRANCH   1   2
HETATM    2  C   UNL     1     -53.917  48.369  11.506  1.00  0.00     0.129 C 
HETATM    3  C   UNL     1     -54.597  48.667  10.178  1.00  0.00     0.032 C 
HETATM    4  C   UNL     1     -53.984  49.989   9.721  1.00  0.00     0.002 C 
HETATM    5  C   UNL     1     -53.440  50.666  10.979  1.00  0.00     0.002 C 
HETATM    6  C   UNL     1     -53.793  49.744  12.144  1.00  0.00     0.032 C 
ENDBRANCH   1   2
BRANCH   1   7
HETATM    7  C   UNL     1     -52.471  46.482  11.525  1.00  0.00     0.103 A 
HETATM    8  C   UNL     1     -52.701  45.562  10.506  1.00  0.00     0.047 A 
HETATM    9  C   UNL     1     -52.545  44.199  10.759  1.00  0.00    -0.049 A 
HETATM   10  C   UNL     1     -52.161  43.763  12.028  1.00  0.00     0.010 A 
HETATM   11  C   UNL     1     -51.933  44.691  13.043  1.00  0.00     0.040 A 
HETATM   12  C   UNL     1     -52.089  46.055  12.792  1.00  0.00     0.101 A 
BRANCH   9  13
HETATM   13  C   UNL     1     -52.792  43.192   9.657  1.00  0.00     0.045 C 
HETATM   14  C   UNL     1     -52.448  43.656   8.240  1.00  0.00     0.132 C 
HETATM   15  N   UNL     1     -52.260  42.431   7.515  1.00  0.00    -0.360 N 
HETATM   16  C   UNL     1     -51.988  41.354   8.347  1.00  0.00     0.218 C 
HETATM   17  H   UNL     1     -52.318  42.363   6.535  1.00  0.00     0.162 HD
HETATM   18  O   UNL     1     -51.738  40.206   8.017  1.00  0.00    -0.274 OA
HETATM   19  C   UNL     1     -51.999  41.875   9.764  1.00  0.00     0.113 C 
ENDBRANCH   9  13
BRANCH  12  20
HETATM   20  O   UNL     1     -51.864  46.952  13.792  1.00  0.00    -0.353 OA
HETATM   21  C   UNL     1     -50.675  46.782  14.559  1.00  0.00     0.210 C 
ENDBRANCH  12  20
ENDBRANCH   1   7
TORSDOF 4
ENDMDL
MODEL 7
REMARK VINA RESULT:      -6.7      2.634      5.607
REMARK  4 active torsions:
REMARK  status: ('A' for Active; 'I' for Inactive)
REMARK    1  A    between atoms: O_1  and  C_5 
REMARK    2  A    between atoms: O_1  and  C_14 
REMARK    3  A    between atoms: O_2  and  C_18 
REMARK    4  A    between atoms: C_10  and  C_13 
ROOT
HETATM    1  O   UNL     1     -52.244  48.935  12.806  1.00  0.00    -0.343 OA
ENDROOT
BRANCH   1   2
HETATM    2  C   UNL     1     -52.780  48.309  13.964  1.00  0.00     0.129 C 
HETATM    3  C   UNL     1     -52.239  49.000  15.207  1.00  0.00     0.032 C 
HETATM    4  C   UNL     1     -50.839  48.418  15.392  1.00  0.00     0.002 C 
HETATM    5  C   UNL     1     -50.831  47.080  14.653  1.00  0.00     0.002 C 
HETATM    6  C   UNL     1     -52.241  46.893  14.098  1.00  0.00     0.032 C 
ENDBRANCH   1   2
BRANCH   1   7
HETATM    7  C   UNL     1     -52.979  48.833  11.654  1.00  0.00     0.103 A 
HETATM    8  C   UNL     1     -53.067  47.600  11.014  1.00  0.00     0.047 A 
HETATM    9  C   UNL     1     -53.812  47.483   9.840  1.00  0.00    -0.049 A 
HETATM   10  C   UNL     1     -54.461  48.598   9.311  1.00  0.00     0.010 A 
HETATM   11  C   UNL     1     -54.368  49.830   9.957  1.00  0.00     0.040 A 
HETATM   12  C   UNL     1     -53.624  49.949  11.131  1.00  0.00     0.101 A 
BRANCH   9  13
HETATM   13  C   UNL     1     -53.914  46.145   9.140  1.00  0.00     0.045 C 
HETATM   14  C   UNL     1     -53.242  44.968   9.849  1.00  0.00     0.132 C 
HETATM   15  N   UNL     1     -53.908  43.817   9.308  1.00  0.00    -0.360 N 
HETATM   16  C   UNL     1     -55.144  44.125   8.756  1.00  0.00     0.218 C 
HETATM   17  H   UNL     1     -53.530  42.908   9.326  1.00  0.00     0.162 HD
HETATM   18  O   UNL     1     -55.952  43.353   8.267  1.00  0.00    -0.274 OA
HETATM   19  C   UNL     1     -55.343  45.613   8.918  1.00  0.00     0.113 C 
ENDBRANCH   9  13
BRANCH  12  20
HETATM   20  O   UNL     1     -53.539  51.158  11.753  1.00  0.00    -0.353 OA
HETATM   21  C   UNL     1     -53.527  52.314  10.919  1.00  0.00     0.210 C 
ENDBRANCH  12  20
ENDBRANCH   1   7
TORSDOF 4
ENDMDL
MODEL 8
REMARK VINA RESULT:      -6.6      2.635      5.970
REMARK  4 active torsions:
REMARK  status: ('A' for Active; 'I' for Inactive)
REMARK    1  A    between atoms: O_1  and  C_5 
REMARK    2  A    between atoms: O_1  and  C_14 
REMARK    3  A    between atoms: O_2  and  C_18 
REMARK    4  A    between atoms: C_10  and  C_13 
ROOT
HETATM    1  O   UNL     1     -52.406  46.625  13.001  1.00  0.00    -0.343 OA
ENDROOT
BRANCH   1   2
HETATM    2  C   UNL     1     -51.332  45.823  12.527  1.00  0.00     0.129 C 
HETATM    3  C   UNL     1     -51.727  44.355  12.602  1.00  0.00     0.032 C 
HETATM    4  C   UNL     1     -51.522  43.977  14.068  1.00  0.00     0.002 C 
HETATM    5  C   UNL     1     -50.531  44.993  14.637  1.00  0.00     0.002 C 
HETATM    6  C   UNL     1     -50.147  45.908  13.476  1.00  0.00     0.032 C 
ENDBRANCH   1   2
BRANCH   1   7
HETATM    7  C   UNL     1     -52.854  47.613  12.164  1.00  0.00     0.103 A 
HETATM    8  C   UNL     1     -52.811  47.406  10.788  1.00  0.00     0.047 A 
HETATM    9  C   UNL     1     -53.263  48.405   9.926  1.00  0.00    -0.049 A 
HETATM   10  C   UNL     1     -53.753  49.605  10.442  1.00  0.00     0.010 A 
HETATM   11  C   UNL     1     -53.793  49.805  11.821  1.00  0.00     0.040 A 
HETATM   12  C   UNL     1     -53.341  48.807  12.685  1.00  0.00     0.101 A 
BRANCH   9  13
HETATM   13  C   UNL     1     -53.221  48.187   8.429  1.00  0.00     0.045 C 
HETATM   14  C   UNL     1     -51.844  48.308   7.775  1.00  0.00     0.132 C 
HETATM   15  N   UNL     1     -51.979  47.568   6.552  1.00  0.00    -0.360 N 
HETATM   16  C   UNL     1     -53.033  46.666   6.588  1.00  0.00     0.218 C 
HETATM   17  H   UNL     1     -51.388  47.687   5.773  1.00  0.00     0.162 HD
HETATM   18  O   UNL     1     -53.359  45.872   5.720  1.00  0.00    -0.274 OA
HETATM   19  C   UNL     1     -53.687  46.801   7.941  1.00  0.00     0.113 C 
ENDBRANCH   9  13
BRANCH  12  20
HETATM   20  O   UNL     1     -53.383  49.015  14.031  1.00  0.00    -0.353 OA
HETATM   21  C   UNL     1     -52.136  49.202  14.696  1.00  0.00     0.210 C 
ENDBRANCH  12  20
ENDBRANCH   1   7
TORSDOF 4
ENDMDL
MODEL 9
REMARK VINA RESULT:      -6.6      2.588      6.113
REMARK  4 active torsions:
REMARK  status: ('A' for Active; 'I' for Inactive)
REMARK    1  A    between atoms: O_1  and  C_5 
REMARK    2  A    between atoms: O_1  and  C_14 
REMARK    3  A    between atoms: O_2  and  C_18 
REMARK    4  A    between atoms: C_10  and  C_13 
ROOT
HETATM    1  O   UNL     1     -51.108  45.745  13.798  1.00  0.00    -0.343 OA
ENDROOT
BRANCH   1   2
HETATM    2  C   UNL     1     -50.357  45.133  12.757  1.00  0.00     0.129 C 
HETATM    3  C   UNL     1     -50.100  43.675  13.110  1.00  0.00     0.032 C 
HETATM    4  C   UNL     1     -48.930  43.719  14.093  1.00  0.00     0.002 C 
HETATM    5  C   UNL     1     -48.216  45.048  13.848  1.00  0.00     0.002 C 
HETATM    6  C   UNL     1     -48.957  45.723  12.697  1.00  0.00     0.032 C 
ENDBRANCH   1   2
BRANCH   1   7
HETATM    7  C   UNL     1     -51.779  46.896  13.480  1.00  0.00     0.103 A 
HETATM    8  C   UNL     1     -52.408  46.992  12.242  1.00  0.00     0.047 A 
HETATM    9  C   UNL     1     -53.094  48.159  11.905  1.00  0.00    -0.049 A 
HETATM   10  C   UNL     1     -53.147  49.223  12.806  1.00  0.00     0.010 A 
HETATM   11  C   UNL     1     -52.515  49.119  14.044  1.00  0.00     0.040 A 
HETATM   12  C   UNL     1     -51.828  47.952  14.382  1.00  0.00     0.101 A 
BRANCH   9  13
HETATM   13  C   UNL     1     -53.781  48.271  10.561  1.00  0.00     0.045 C 
HETATM   14  C   UNL     1     -53.476  49.538   9.760  1.00  0.00     0.132 C 
HETATM   15  N   UNL     1     -53.781  49.168   8.406  1.00  0.00    -0.360 N 
HETATM   16  C   UNL     1     -53.773  47.794   8.214  1.00  0.00     0.218 C 
HETATM   17  H   UNL     1     -53.973  49.818   7.692  1.00  0.00     0.162 HD
HETATM   18  O   UNL     1     -53.948  47.190   7.167  1.00  0.00    -0.274 OA
HETATM   19  C   UNL     1     -53.449  47.161   9.545  1.00  0.00     0.113 C 
ENDBRANCH   9  13
BRANCH  12  20
HETATM   20  O   UNL     1     -51.213  47.863  15.595  1.00  0.00    -0.353 OA
HETATM   21  C   UNL     1     -49.809  48.107  15.628  1.00  0.00     0.210 C 
ENDBRANCH  12  20
ENDBRANCH   1   7
TORSDOF 4
ENDMDL
