MODEL 1
REMARK VINA RESULT:      -6.5      0.000      0.000
REMARK  8 active torsions:
REMARK  status: ('A' for Active; 'I' for Inactive)
REMARK    1  A    between atoms: O_1  and  C_2 
REMARK    2  A    between atoms: C_2  and  C_3 
REMARK    3  A    between atoms: C_2  and  C_8 
REMARK    4  A    between atoms: C_3  and  C_4 
REMARK    5  A    between atoms: C_4  and  C_5 
REMARK    6  A    between atoms: C_8  and  C_9 
REMARK    7  A    between atoms: C_11  and  O_16 
REMARK    8  A    between atoms: C_12  and  O_15 
ROOT
HETATM    1  O   UNL     1      11.563   7.001  14.857  1.00  0.00    -0.395 OA
HETATM    2  H   UNL     1      10.640   7.292  14.790  1.00  0.00     0.210 HD
ENDROOT
BRANCH   1   3
HETATM    3  C   UNL     1      12.278   7.417  13.694  1.00  0.00     0.122 C 
BRANCH   3   4
HETATM    4  C   UNL     1      11.866   8.848  13.315  1.00  0.00     0.042 C 
BRANCH   4   5
HETATM    5  C   UNL     1      12.626   9.925  14.092  1.00  0.00     0.116 C 
BRANCH   5   6
HETATM    6  C   UNL     1      12.372  11.348  13.663  1.00  0.00     0.172 C 
HETATM    7  O   UNL     1      13.051  12.311  13.979  1.00  0.00    -0.648 OA
HETATM    8  O   UNL     1      11.356  11.499  12.792  1.00  0.00    -0.648 OA
ENDBRANCH   5   6
ENDBRANCH   4   5
ENDBRANCH   3   4
BRANCH   3   9
HETATM    9  C   UNL     1      11.999   6.445  12.534  1.00  0.00     0.070 C 
BRANCH   9  10
HETATM   10  C   UNL     1      13.247   6.087  11.758  1.00  0.00    -0.053 A 
HETATM   11  C   UNL     1      13.173   5.227  10.651  1.00  0.00     0.046 A 
HETATM   12  C   UNL     1      14.330   4.895   9.961  1.00  0.00     0.099 A 
HETATM   13  C   UNL     1      15.559   5.428  10.336  1.00  0.00     0.098 A 
HETATM   14  C   UNL     1      15.655   6.263  11.438  1.00  0.00     0.040 A 
HETATM   15  C   UNL     1      14.499   6.591  12.152  1.00  0.00     0.010 A 
BRANCH  12  16
HETATM   16  O   UNL     1      14.253   4.008   8.925  1.00  0.00    -0.358 OA
HETATM   17  H   UNL     1      14.209   3.088   9.099  1.00  0.00     0.217 HD
ENDBRANCH  12  16
BRANCH  13  18
HETATM   18  O   UNL     1      16.682   5.160   9.608  1.00  0.00    -0.358 OA
HETATM   19  H   UNL     1      17.524   5.401   9.940  1.00  0.00     0.217 HD
ENDBRANCH  13  18
ENDBRANCH   9  10
ENDBRANCH   3   9
ENDBRANCH   1   3
TORSDOF 8
ENDMDL
MODEL 2
REMARK VINA RESULT:      -6.4      2.538      6.666
REMARK  8 active torsions:
REMARK  status: ('A' for Active; 'I' for Inactive)
REMARK    1  A    between atoms: O_1  and  C_2 
REMARK    2  A    between atoms: C_2  and  C_3 
REMARK    3  A    between atoms: C_2  and  C_8 
REMARK    4  A    between atoms: C_3  and  C_4 
REMARK    5  A    between atoms: C_4  and  C_5 
REMARK    6  A    between atoms: C_8  and  C_9 
REMARK    7  A    between atoms: C_11  and  O_16 
REMARK    8  A    between atoms: C_12  and  O_15 
ROOT
HETATM    1  O   UNL     1      15.670   5.395  10.275  1.00  0.00    -0.395 OA
HETATM    2  H   UNL     1      16.571   5.275  10.615  1.00  0.00     0.210 HD
ENDROOT
BRANCH   1   3
HETATM    3  C   UNL     1      14.749   5.408  11.365  1.00  0.00     0.122 C 
BRANCH   3   4
HETATM    4  C   UNL     1      13.447   4.701  10.953  1.00  0.00     0.042 C 
BRANCH   4   5
HETATM    5  C   UNL     1      13.235   4.654   9.438  1.00  0.00     0.116 C 
BRANCH   5   6
HETATM    6  C   UNL     1      13.409   3.304   8.792  1.00  0.00     0.172 C 
HETATM    7  O   UNL     1      14.080   3.080   7.797  1.00  0.00    -0.648 OA
HETATM    8  O   UNL     1      12.832   2.284   9.457  1.00  0.00    -0.648 OA
ENDBRANCH   5   6
ENDBRANCH   4   5
ENDBRANCH   3   4
BRANCH   3   9
HETATM    9  C   UNL     1      14.467   6.858  11.794  1.00  0.00     0.070 C 
BRANCH   9  10
HETATM   10  C   UNL     1      13.581   6.945  13.018  1.00  0.00    -0.053 A 
HETATM   11  C   UNL     1      13.906   6.234  14.183  1.00  0.00     0.046 A 
HETATM   12  C   UNL     1      13.074   6.311  15.290  1.00  0.00     0.099 A 
HETATM   13  C   UNL     1      11.935   7.109  15.268  1.00  0.00     0.098 A 
HETATM   14  C   UNL     1      11.586   7.805  14.120  1.00  0.00     0.040 A 
HETATM   15  C   UNL     1      12.408   7.721  12.993  1.00  0.00     0.010 A 
BRANCH  12  16
HETATM   16  O   UNL     1      13.367   5.564  16.395  1.00  0.00    -0.358 OA
HETATM   17  H   UNL     1      13.919   5.917  17.065  1.00  0.00     0.217 HD
ENDBRANCH  12  16
BRANCH  13  18
HETATM   18  O   UNL     1      11.160   7.244  16.384  1.00  0.00    -0.358 OA
HETATM   19  H   UNL     1      10.892   8.095  16.668  1.00  0.00     0.217 HD
ENDBRANCH  13  18
ENDBRANCH   9  10
ENDBRANCH   3   9
ENDBRANCH   1   3
TORSDOF 8
ENDMDL
MODEL 3
REMARK VINA RESULT:      -6.4      1.907      3.085
REMARK  8 active torsions:
REMARK  status: ('A' for Active; 'I' for Inactive)
REMARK    1  A    between atoms: O_1  and  C_2 
REMARK    2  A    between atoms: C_2  and  C_3 
REMARK    3  A    between atoms: C_2  and  C_8 
REMARK    4  A    between atoms: C_3  and  C_4 
REMARK    5  A    between atoms: C_4  and  C_5 
REMARK    6  A    between atoms: C_8  and  C_9 
REMARK    7  A    between atoms: C_11  and  O_16 
REMARK    8  A    between atoms: C_12  and  O_15 
ROOT
HETATM    1  O   UNL     1      11.456   4.080  12.009  1.00  0.00    -0.395 OA
HETATM    2  H   UNL     1      10.653   4.411  12.442  1.00  0.00     0.210 HD
ENDROOT
BRANCH   1   3
HETATM    3  C   UNL     1      12.471   5.081  12.058  1.00  0.00     0.122 C 
BRANCH   3   4
HETATM    4  C   UNL     1      11.827   6.476  12.003  1.00  0.00     0.042 C 
BRANCH   4   5
HETATM    5  C   UNL     1      12.574   7.523  12.832  1.00  0.00     0.116 C 
BRANCH   5   6
HETATM    6  C   UNL     1      11.762   8.228  13.888  1.00  0.00     0.172 C 
HETATM    7  O   UNL     1      11.096   7.676  14.749  1.00  0.00    -0.648 OA
HETATM    8  O   UNL     1      11.888   9.569  13.891  1.00  0.00    -0.648 OA
ENDBRANCH   5   6
ENDBRANCH   4   5
ENDBRANCH   3   4
BRANCH   3   9
HETATM    9  C   UNL     1      13.451   4.889  10.888  1.00  0.00     0.070 C 
BRANCH   9  10
HETATM   10  C   UNL     1      14.877   5.235  11.257  1.00  0.00    -0.053 A 
HETATM   11  C   UNL     1      15.833   5.471  10.257  1.00  0.00     0.046 A 
HETATM   12  C   UNL     1      17.140   5.770  10.612  1.00  0.00     0.099 A 
HETATM   13  C   UNL     1      17.508   5.866  11.950  1.00  0.00     0.098 A 
HETATM   14  C   UNL     1      16.583   5.617  12.953  1.00  0.00     0.040 A 
HETATM   15  C   UNL     1      15.267   5.298  12.606  1.00  0.00     0.010 A 
BRANCH  12  16
HETATM   16  O   UNL     1      18.074   5.935   9.630  1.00  0.00    -0.358 OA
HETATM   17  H   UNL     1      18.587   5.205   9.343  1.00  0.00     0.217 HD
ENDBRANCH  12  16
BRANCH  13  18
HETATM   18  O   UNL     1      18.776   6.236  12.296  1.00  0.00    -0.358 OA
HETATM   19  H   UNL     1      19.203   5.823  13.021  1.00  0.00     0.217 HD
ENDBRANCH  13  18
ENDBRANCH   9  10
ENDBRANCH   3   9
ENDBRANCH   1   3
TORSDOF 8
ENDMDL
MODEL 4
REMARK VINA RESULT:      -6.4      0.746      1.662
REMARK  8 active torsions:
REMARK  status: ('A' for Active; 'I' for Inactive)
REMARK    1  A    between atoms: O_1  and  C_2 
REMARK    2  A    between atoms: C_2  and  C_3 
REMARK    3  A    between atoms: C_2  and  C_8 
REMARK    4  A    between atoms: C_3  and  C_4 
REMARK    5  A    between atoms: C_4  and  C_5 
REMARK    6  A    between atoms: C_8  and  C_9 
REMARK    7  A    between atoms: C_11  and  O_16 
REMARK    8  A    between atoms: C_12  and  O_15 
ROOT
HETATM    1  O   UNL     1      11.589   6.919  15.011  1.00  0.00    -0.395 OA
HETATM    2  H   UNL     1      10.655   7.177  15.073  1.00  0.00     0.210 HD
ENDROOT
BRANCH   1   3
HETATM    3  C   UNL     1      12.161   7.486  13.833  1.00  0.00     0.122 C 
BRANCH   3   4
HETATM    4  C   UNL     1      11.671   8.933  13.662  1.00  0.00     0.042 C 
BRANCH   4   5
HETATM    5  C   UNL     1      12.729   9.979  14.021  1.00  0.00     0.116 C 
BRANCH   5   6
HETATM    6  C   UNL     1      12.413  11.397  13.621  1.00  0.00     0.172 C 
HETATM    7  O   UNL     1      13.064  12.380  13.937  1.00  0.00    -0.648 OA
HETATM    8  O   UNL     1      11.373  11.524  12.774  1.00  0.00    -0.648 OA
ENDBRANCH   5   6
ENDBRANCH   4   5
ENDBRANCH   3   4
BRANCH   3   9
HETATM    9  C   UNL     1      11.783   6.636  12.608  1.00  0.00     0.070 C 
BRANCH   9  10
HETATM   10  C   UNL     1      12.986   6.216  11.793  1.00  0.00    -0.053 A 
HETATM   11  C   UNL     1      14.169   6.969  11.831  1.00  0.00     0.046 A 
HETATM   12  C   UNL     1      15.257   6.579  11.064  1.00  0.00     0.099 A 
HETATM   13  C   UNL     1      15.198   5.432  10.279  1.00  0.00     0.098 A 
HETATM   14  C   UNL     1      14.032   4.685  10.213  1.00  0.00     0.040 A 
HETATM   15  C   UNL     1      12.923   5.078  10.968  1.00  0.00     0.010 A 
BRANCH  12  16
HETATM   16  O   UNL     1      16.381   7.355  11.061  1.00  0.00    -0.358 OA
HETATM   17  H   UNL     1      16.328   8.256  11.315  1.00  0.00     0.217 HD
ENDBRANCH  12  16
BRANCH  13  18
HETATM   18  O   UNL     1      16.296   5.008   9.586  1.00  0.00    -0.358 OA
HETATM   19  H   UNL     1      17.085   5.512   9.605  1.00  0.00     0.217 HD
ENDBRANCH  13  18
ENDBRANCH   9  10
ENDBRANCH   3   9
ENDBRANCH   1   3
TORSDOF 8
ENDMDL
MODEL 5
REMARK VINA RESULT:      -6.3      2.106      6.429
REMARK  8 active torsions:
REMARK  status: ('A' for Active; 'I' for Inactive)
REMARK    1  A    between atoms: O_1  and  C_2 
REMARK    2  A    between atoms: C_2  and  C_3 
REMARK    3  A    between atoms: C_2  and  C_8 
REMARK    4  A    between atoms: C_3  and  C_4 
REMARK    5  A    between atoms: C_4  and  C_5 
REMARK    6  A    between atoms: C_8  and  C_9 
REMARK    7  A    between atoms: C_11  and  O_16 
REMARK    8  A    between atoms: C_12  and  O_15 
ROOT
HETATM    1  O   UNL     1      14.972   6.430   9.768  1.00  0.00    -0.395 OA
HETATM    2  H   UNL     1      14.088   6.698   9.473  1.00  0.00     0.210 HD
ENDROOT
BRANCH   1   3
HETATM    3  C   UNL     1      14.867   5.269  10.591  1.00  0.00     0.122 C 
BRANCH   3   4
HETATM    4  C   UNL     1      13.391   4.861  10.729  1.00  0.00     0.042 C 
BRANCH   4   5
HETATM    5  C   UNL     1      13.009   3.663   9.857  1.00  0.00     0.116 C 
BRANCH   5   6
HETATM    6  C   UNL     1      13.343   3.782   8.392  1.00  0.00     0.172 C 
HETATM    7  O   UNL     1      13.908   2.929   7.727  1.00  0.00    -0.648 OA
HETATM    8  O   UNL     1      12.879   4.899   7.800  1.00  0.00    -0.648 OA
ENDBRANCH   5   6
ENDBRANCH   4   5
ENDBRANCH   3   4
BRANCH   3   9
HETATM    9  C   UNL     1      15.484   5.551  11.973  1.00  0.00     0.070 C 
BRANCH   9  10
HETATM   10  C   UNL     1      14.445   5.891  13.019  1.00  0.00    -0.053 A 
HETATM   11  C   UNL     1      14.064   7.224  13.235  1.00  0.00     0.046 A 
HETATM   12  C   UNL     1      13.123   7.520  14.211  1.00  0.00     0.099 A 
HETATM   13  C   UNL     1      12.531   6.507  14.958  1.00  0.00     0.098 A 
HETATM   14  C   UNL     1      12.908   5.185  14.772  1.00  0.00     0.040 A 
HETATM   15  C   UNL     1      13.868   4.877  13.804  1.00  0.00     0.010 A 
BRANCH  12  16
HETATM   16  O   UNL     1      12.808   8.826  14.455  1.00  0.00    -0.358 OA
HETATM   17  H   UNL     1      12.423   9.070  15.274  1.00  0.00     0.217 HD
ENDBRANCH  12  16
BRANCH  13  18
HETATM   18  O   UNL     1      11.550   6.794  15.862  1.00  0.00    -0.358 OA
HETATM   19  H   UNL     1      10.982   6.115  16.169  1.00  0.00     0.217 HD
ENDBRANCH  13  18
ENDBRANCH   9  10
ENDBRANCH   3   9
ENDBRANCH   1   3
TORSDOF 8
ENDMDL
MODEL 6
REMARK VINA RESULT:      -6.3      2.473      6.586
REMARK  8 active torsions:
REMARK  status: ('A' for Active; 'I' for Inactive)
REMARK    1  A    between atoms: O_1  and  C_2 
REMARK    2  A    between atoms: C_2  and  C_3 
REMARK    3  A    between atoms: C_2  and  C_8 
REMARK    4  A    between atoms: C_3  and  C_4 
REMARK    5  A    between atoms: C_4  and  C_5 
REMARK    6  A    between atoms: C_8  and  C_9 
REMARK    7  A    between atoms: C_11  and  O_16 
REMARK    8  A    between atoms: C_12  and  O_15 
ROOT
HETATM    1  O   UNL     1      15.728   5.700   9.922  1.00  0.00    -0.395 OA
HETATM    2  H   UNL     1      16.396   6.394  10.037  1.00  0.00     0.210 HD
ENDROOT
BRANCH   1   3
HETATM    3  C   UNL     1      14.956   5.580  11.116  1.00  0.00     0.122 C 
BRANCH   3   4
HETATM    4  C   UNL     1      13.729   4.692  10.854  1.00  0.00     0.042 C 
BRANCH   4   5
HETATM    5  C   UNL     1      13.346   4.607   9.375  1.00  0.00     0.116 C 
BRANCH   5   6
HETATM    6  C   UNL     1      13.475   3.247   8.740  1.00  0.00     0.172 C 
HETATM    7  O   UNL     1      14.120   2.997   7.734  1.00  0.00    -0.648 OA
HETATM    8  O   UNL     1      12.888   2.248   9.427  1.00  0.00    -0.648 OA
ENDBRANCH   5   6
ENDBRANCH   4   5
ENDBRANCH   3   4
BRANCH   3   9
HETATM    9  C   UNL     1      14.523   6.976  11.600  1.00  0.00     0.070 C 
BRANCH   9  10
HETATM   10  C   UNL     1      13.868   6.945  12.963  1.00  0.00    -0.053 A 
HETATM   11  C   UNL     1      12.477   7.074  13.087  1.00  0.00     0.046 A 
HETATM   12  C   UNL     1      11.895   7.062  14.347  1.00  0.00     0.099 A 
HETATM   13  C   UNL     1      12.673   6.895  15.487  1.00  0.00     0.098 A 
HETATM   14  C   UNL     1      14.052   6.787  15.387  1.00  0.00     0.040 A 
HETATM   15  C   UNL     1      14.651   6.815  14.124  1.00  0.00     0.010 A 
BRANCH  12  16
HETATM   16  O   UNL     1      10.547   7.251  14.457  1.00  0.00    -0.358 OA
HETATM   17  H   UNL     1      10.212   8.076  14.748  1.00  0.00     0.217 HD
ENDBRANCH  12  16
BRANCH  13  18
HETATM   18  O   UNL     1      12.090   6.806  16.718  1.00  0.00    -0.358 OA
HETATM   19  H   UNL     1      11.422   6.168  16.875  1.00  0.00     0.217 HD
ENDBRANCH  13  18
ENDBRANCH   9  10
ENDBRANCH   3   9
ENDBRANCH   1   3
TORSDOF 8
ENDMDL
MODEL 7
REMARK VINA RESULT:      -6.3      2.199      6.653
REMARK  8 active torsions:
REMARK  status: ('A' for Active; 'I' for Inactive)
REMARK    1  A    between atoms: O_1  and  C_2 
REMARK    2  A    between atoms: C_2  and  C_3 
REMARK    3  A    between atoms: C_2  and  C_8 
REMARK    4  A    between atoms: C_3  and  C_4 
REMARK    5  A    between atoms: C_4  and  C_5 
REMARK    6  A    between atoms: C_8  and  C_9 
REMARK    7  A    between atoms: C_11  and  O_16 
REMARK    8  A    between atoms: C_12  and  O_15 
ROOT
HETATM    1  O   UNL     1      11.825   2.778  12.046  1.00  0.00    -0.395 OA
HETATM    2  H   UNL     1      11.651   2.437  11.155  1.00  0.00     0.210 HD
ENDROOT
BRANCH   1   3
HETATM    3  C   UNL     1      12.279   4.128  11.959  1.00  0.00     0.122 C 
BRANCH   3   4
HETATM    4  C   UNL     1      13.160   4.300  10.712  1.00  0.00     0.042 C 
BRANCH   4   5
HETATM    5  C   UNL     1      12.922   3.226   9.647  1.00  0.00     0.116 C 
BRANCH   5   6
HETATM    6  C   UNL     1      13.460   3.533   8.273  1.00  0.00     0.172 C 
HETATM    7  O   UNL     1      14.175   2.795   7.615  1.00  0.00    -0.648 OA
HETATM    8  O   UNL     1      13.010   4.685   7.738  1.00  0.00    -0.648 OA
ENDBRANCH   5   6
ENDBRANCH   4   5
ENDBRANCH   3   4
BRANCH   3   9
HETATM    9  C   UNL     1      13.060   4.499  13.232  1.00  0.00     0.070 C 
BRANCH   9  10
HETATM   10  C   UNL     1      12.797   5.917  13.688  1.00  0.00    -0.053 A 
HETATM   11  C   UNL     1      12.165   6.163  14.917  1.00  0.00     0.046 A 
HETATM   12  C   UNL     1      11.915   7.469  15.312  1.00  0.00     0.099 A 
HETATM   13  C   UNL     1      12.310   8.540  14.516  1.00  0.00     0.098 A 
HETATM   14  C   UNL     1      12.918   8.317  13.290  1.00  0.00     0.040 A 
HETATM   15  C   UNL     1      13.159   7.005  12.874  1.00  0.00     0.010 A 
BRANCH  12  16
HETATM   16  O   UNL     1      11.244   7.693  16.480  1.00  0.00    -0.358 OA
HETATM   17  H   UNL     1      11.144   8.567  16.802  1.00  0.00     0.217 HD
ENDBRANCH  12  16
BRANCH  13  18
HETATM   18  O   UNL     1      12.133   9.824  14.943  1.00  0.00    -0.358 OA
HETATM   19  H   UNL     1      11.267  10.167  15.050  1.00  0.00     0.217 HD
ENDBRANCH  13  18
ENDBRANCH   9  10
ENDBRANCH   3   9
ENDBRANCH   1   3
TORSDOF 8
ENDMDL
MODEL 8
REMARK VINA RESULT:      -6.2      2.611      6.191
REMARK  8 active torsions:
REMARK  status: ('A' for Active; 'I' for Inactive)
REMARK    1  A    between atoms: O_1  and  C_2 
REMARK    2  A    between atoms: C_2  and  C_3 
REMARK    3  A    between atoms: C_2  and  C_8 
REMARK    4  A    between atoms: C_3  and  C_4 
REMARK    5  A    between atoms: C_4  and  C_5 
REMARK    6  A    between atoms: C_8  and  C_9 
REMARK    7  A    between atoms: C_11  and  O_16 
REMARK    8  A    between atoms: C_12  and  O_15 
ROOT
HETATM    1  O   UNL     1      14.928   6.435   9.600  1.00  0.00    -0.395 OA
HETATM    2  H   UNL     1      15.041   7.378   9.403  1.00  0.00     0.210 HD
ENDROOT
BRANCH   1   3
HETATM    3  C   UNL     1      14.758   6.260  11.006  1.00  0.00     0.122 C 
BRANCH   3   4
HETATM    4  C   UNL     1      15.853   5.329  11.550  1.00  0.00     0.042 C 
BRANCH   4   5
HETATM    5  C   UNL     1      17.113   6.072  11.999  1.00  0.00     0.116 C 
BRANCH   5   6
HETATM    6  C   UNL     1      18.249   6.097  11.008  1.00  0.00     0.172 C 
HETATM    7  O   UNL     1      19.412   6.354  11.276  1.00  0.00    -0.648 OA
HETATM    8  O   UNL     1      17.916   5.710   9.762  1.00  0.00    -0.648 OA
ENDBRANCH   5   6
ENDBRANCH   4   5
ENDBRANCH   3   4
BRANCH   3   9
HETATM    9  C   UNL     1      13.361   5.682  11.295  1.00  0.00     0.070 C 
BRANCH   9  10
HETATM   10  C   UNL     1      12.821   6.104  12.643  1.00  0.00    -0.053 A 
HETATM   11  C   UNL     1      13.215   5.430  13.810  1.00  0.00     0.046 A 
HETATM   12  C   UNL     1      12.696   5.818  15.036  1.00  0.00     0.099 A 
HETATM   13  C   UNL     1      11.810   6.887  15.127  1.00  0.00     0.098 A 
HETATM   14  C   UNL     1      11.393   7.553  13.984  1.00  0.00     0.040 A 
HETATM   15  C   UNL     1      11.896   7.159  12.741  1.00  0.00     0.010 A 
BRANCH  12  16
HETATM   16  O   UNL     1      13.039   5.114  16.155  1.00  0.00    -0.358 OA
HETATM   17  H   UNL     1      12.497   5.155  16.918  1.00  0.00     0.217 HD
ENDBRANCH  12  16
BRANCH  13  18
HETATM   18  O   UNL     1      11.362   7.315  16.343  1.00  0.00    -0.358 OA
HETATM   19  H   UNL     1      11.652   8.138  16.686  1.00  0.00     0.217 HD
ENDBRANCH  13  18
ENDBRANCH   9  10
ENDBRANCH   3   9
ENDBRANCH   1   3
TORSDOF 8
ENDMDL
MODEL 9
REMARK VINA RESULT:      -6.2      2.665      5.953
REMARK  8 active torsions:
REMARK  status: ('A' for Active; 'I' for Inactive)
REMARK    1  A    between atoms: O_1  and  C_2 
REMARK    2  A    between atoms: C_2  and  C_3 
REMARK    3  A    between atoms: C_2  and  C_8 
REMARK    4  A    between atoms: C_3  and  C_4 
REMARK    5  A    between atoms: C_4  and  C_5 
REMARK    6  A    between atoms: C_8  and  C_9 
REMARK    7  A    between atoms: C_11  and  O_16 
REMARK    8  A    between atoms: C_12  and  O_15 
ROOT
HETATM    1  O   UNL     1      16.655   5.575  11.287  1.00  0.00    -0.395 OA
HETATM    2  H   UNL     1      17.102   5.171  12.047  1.00  0.00     0.210 HD
ENDROOT
BRANCH   1   3
HETATM    3  C   UNL     1      15.272   5.752  11.587  1.00  0.00     0.122 C 
BRANCH   3   4
HETATM    4  C   UNL     1      14.434   5.554  10.313  1.00  0.00     0.042 C 
BRANCH   4   5
HETATM    5  C   UNL     1      13.487   4.354  10.390  1.00  0.00     0.116 C 
BRANCH   5   6
HETATM    6  C   UNL     1      12.444   4.409  11.476  1.00  0.00     0.172 C 
HETATM    7  O   UNL     1      12.375   3.645  12.426  1.00  0.00    -0.648 OA
HETATM    8  O   UNL     1      11.603   5.457  11.395  1.00  0.00    -0.648 OA
ENDBRANCH   5   6
ENDBRANCH   4   5
ENDBRANCH   3   4
BRANCH   3   9
HETATM    9  C   UNL     1      15.040   7.154  12.176  1.00  0.00     0.070 C 
BRANCH   9  10
HETATM   10  C   UNL     1      14.010   7.161  13.284  1.00  0.00    -0.053 A 
HETATM   11  C   UNL     1      14.081   6.223  14.326  1.00  0.00     0.046 A 
HETATM   12  C   UNL     1      13.118   6.232  15.325  1.00  0.00     0.099 A 
HETATM   13  C   UNL     1      12.099   7.179  15.321  1.00  0.00     0.098 A 
HETATM   14  C   UNL     1      12.001   8.101  14.290  1.00  0.00     0.040 A 
HETATM   15  C   UNL     1      12.955   8.091  13.269  1.00  0.00     0.010 A 
BRANCH  12  16
HETATM   16  O   UNL     1      13.162   5.275  16.298  1.00  0.00    -0.358 OA
HETATM   17  H   UNL     1      12.393   4.781  16.504  1.00  0.00     0.217 HD
ENDBRANCH  12  16
BRANCH  13  18
HETATM   18  O   UNL     1      11.199   7.234  16.346  1.00  0.00    -0.358 OA
HETATM   19  H   UNL     1      10.412   7.733  16.252  1.00  0.00     0.217 HD
ENDBRANCH  13  18
ENDBRANCH   9  10
ENDBRANCH   3   9
ENDBRANCH   1   3
TORSDOF 8
ENDMDL
