MODEL 1
REMARK VINA RESULT:      -6.7      0.000      0.000
REMARK  8 active torsions:
REMARK  status: ('A' for Active; 'I' for Inactive)
REMARK    1  A    between atoms: O_1  and  C_2 
REMARK    2  A    between atoms: C_2  and  C_3 
REMARK    3  A    between atoms: C_2  and  C_8 
REMARK    4  A    between atoms: C_3  and  C_4 
REMARK    5  A    between atoms: C_4  and  C_5 
REMARK    6  A    between atoms: C_8  and  C_9 
REMARK    7  A    between atoms: C_11  and  O_16 
REMARK    8  A    between atoms: C_12  and  O_15 
ROOT
HETATM    1  O   UNL     1      15.245   5.598   9.789  1.00  0.00    -0.395 OA
HETATM    2  H   UNL     1      14.775   5.125   9.084  1.00  0.00     0.210 HD
ENDROOT
BRANCH   1   3
HETATM    3  C   UNL     1      14.489   5.523  10.997  1.00  0.00     0.122 C 
BRANCH   3   4
HETATM    4  C   UNL     1      13.075   5.002  10.694  1.00  0.00     0.042 C 
BRANCH   4   5
HETATM    5  C   UNL     1      13.068   3.682   9.919  1.00  0.00     0.116 C 
BRANCH   5   6
HETATM    6  C   UNL     1      13.338   3.788   8.440  1.00  0.00     0.172 C 
HETATM    7  O   UNL     1      13.874   2.929   7.758  1.00  0.00    -0.648 OA
HETATM    8  O   UNL     1      12.846   4.898   7.857  1.00  0.00    -0.648 OA
ENDBRANCH   5   6
ENDBRANCH   4   5
ENDBRANCH   3   4
BRANCH   3   9
HETATM    9  C   UNL     1      14.425   6.911  11.660  1.00  0.00     0.070 C 
BRANCH   9  10
HETATM   10  C   UNL     1      13.534   6.935  12.882  1.00  0.00    -0.053 A 
HETATM   11  C   UNL     1      13.820   6.117  13.986  1.00  0.00     0.046 A 
HETATM   12  C   UNL     1      12.982   6.139  15.092  1.00  0.00     0.099 A 
HETATM   13  C   UNL     1      11.878   6.985  15.131  1.00  0.00     0.098 A 
HETATM   14  C   UNL     1      11.568   7.786  14.042  1.00  0.00     0.040 A 
HETATM   15  C   UNL     1      12.395   7.760  12.916  1.00  0.00     0.010 A 
BRANCH  12  16
HETATM   16  O   UNL     1      13.235   5.293  16.133  1.00  0.00    -0.358 OA
HETATM   17  H   UNL     1      12.729   5.353  16.920  1.00  0.00     0.217 HD
ENDBRANCH  12  16
BRANCH  13  18
HETATM   18  O   UNL     1      11.101   7.061  16.251  1.00  0.00    -0.358 OA
HETATM   19  H   UNL     1      10.242   7.430  16.200  1.00  0.00     0.217 HD
ENDBRANCH  13  18
ENDBRANCH   9  10
ENDBRANCH   3   9
ENDBRANCH   1   3
TORSDOF 8
ENDMDL
MODEL 2
REMARK VINA RESULT:      -6.5      2.524      5.826
REMARK  8 active torsions:
REMARK  status: ('A' for Active; 'I' for Inactive)
REMARK    1  A    between atoms: O_1  and  C_2 
REMARK    2  A    between atoms: C_2  and  C_3 
REMARK    3  A    between atoms: C_2  and  C_8 
REMARK    4  A    between atoms: C_3  and  C_4 
REMARK    5  A    between atoms: C_4  and  C_5 
REMARK    6  A    between atoms: C_8  and  C_9 
REMARK    7  A    between atoms: C_11  and  O_16 
REMARK    8  A    between atoms: C_12  and  O_15 
ROOT
HETATM    1  O   UNL     1      11.750   3.843  12.277  1.00  0.00    -0.395 OA
HETATM    2  H   UNL     1      12.277   3.051  12.470  1.00  0.00     0.210 HD
ENDROOT
BRANCH   1   3
HETATM    3  C   UNL     1      12.607   4.981  12.210  1.00  0.00     0.122 C 
BRANCH   3   4
HETATM    4  C   UNL     1      11.764   6.260  12.082  1.00  0.00     0.042 C 
BRANCH   4   5
HETATM    5  C   UNL     1      12.443   7.496  12.677  1.00  0.00     0.116 C 
BRANCH   5   6
HETATM    6  C   UNL     1      11.770   8.098  13.884  1.00  0.00     0.172 C 
HETATM    7  O   UNL     1      11.050   7.496  14.663  1.00  0.00    -0.648 OA
HETATM    8  O   UNL     1      12.096   9.382  14.126  1.00  0.00    -0.648 OA
ENDBRANCH   5   6
ENDBRANCH   4   5
ENDBRANCH   3   4
BRANCH   3   9
HETATM    9  C   UNL     1      13.568   4.842  11.016  1.00  0.00     0.070 C 
BRANCH   9  10
HETATM   10  C   UNL     1      14.988   5.234  11.358  1.00  0.00    -0.053 A 
HETATM   11  C   UNL     1      15.928   5.460  10.341  1.00  0.00     0.046 A 
HETATM   12  C   UNL     1      17.231   5.801  10.674  1.00  0.00     0.099 A 
HETATM   13  C   UNL     1      17.610   5.950  12.004  1.00  0.00     0.098 A 
HETATM   14  C   UNL     1      16.701   5.711  13.024  1.00  0.00     0.040 A 
HETATM   15  C   UNL     1      15.389   5.350  12.701  1.00  0.00     0.010 A 
BRANCH  12  16
HETATM   16  O   UNL     1      18.152   5.957   9.677  1.00  0.00    -0.358 OA
HETATM   17  H   UNL     1      17.870   6.168   8.808  1.00  0.00     0.217 HD
ENDBRANCH  12  16
BRANCH  13  18
HETATM   18  O   UNL     1      18.871   6.361  12.324  1.00  0.00    -0.358 OA
HETATM   19  H   UNL     1      19.599   6.089  11.802  1.00  0.00     0.217 HD
ENDBRANCH  13  18
ENDBRANCH   9  10
ENDBRANCH   3   9
ENDBRANCH   1   3
TORSDOF 8
ENDMDL
MODEL 3
REMARK VINA RESULT:      -6.5      1.108      1.727
REMARK  8 active torsions:
REMARK  status: ('A' for Active; 'I' for Inactive)
REMARK    1  A    between atoms: O_1  and  C_2 
REMARK    2  A    between atoms: C_2  and  C_3 
REMARK    3  A    between atoms: C_2  and  C_8 
REMARK    4  A    between atoms: C_3  and  C_4 
REMARK    5  A    between atoms: C_4  and  C_5 
REMARK    6  A    between atoms: C_8  and  C_9 
REMARK    7  A    between atoms: C_11  and  O_16 
REMARK    8  A    between atoms: C_12  and  O_15 
ROOT
HETATM    1  O   UNL     1      14.904   6.357   9.752  1.00  0.00    -0.395 OA
HETATM    2  H   UNL     1      14.905   7.160  10.296  1.00  0.00     0.210 HD
ENDROOT
BRANCH   1   3
HETATM    3  C   UNL     1      14.821   5.210  10.597  1.00  0.00     0.122 C 
BRANCH   3   4
HETATM    4  C   UNL     1      13.352   4.787  10.757  1.00  0.00     0.042 C 
BRANCH   4   5
HETATM    5  C   UNL     1      12.953   3.623   9.847  1.00  0.00     0.116 C 
BRANCH   5   6
HETATM    6  C   UNL     1      13.320   3.771   8.393  1.00  0.00     0.172 C 
HETATM    7  O   UNL     1      13.924   2.942   7.730  1.00  0.00    -0.648 OA
HETATM    8  O   UNL     1      12.841   4.883   7.803  1.00  0.00    -0.648 OA
ENDBRANCH   5   6
ENDBRANCH   4   5
ENDBRANCH   3   4
BRANCH   3   9
HETATM    9  C   UNL     1      15.447   5.525  11.967  1.00  0.00     0.070 C 
BRANCH   9  10
HETATM   10  C   UNL     1      14.415   5.871  13.017  1.00  0.00    -0.053 A 
HETATM   11  C   UNL     1      14.027   7.204  13.221  1.00  0.00     0.046 A 
HETATM   12  C   UNL     1      13.091   7.506  14.200  1.00  0.00     0.099 A 
HETATM   13  C   UNL     1      12.512   6.498  14.964  1.00  0.00     0.098 A 
HETATM   14  C   UNL     1      12.897   5.177  14.791  1.00  0.00     0.040 A 
HETATM   15  C   UNL     1      13.851   4.863  13.819  1.00  0.00     0.010 A 
BRANCH  12  16
HETATM   16  O   UNL     1      12.770   8.813  14.431  1.00  0.00    -0.358 OA
HETATM   17  H   UNL     1      11.898   9.042  14.690  1.00  0.00     0.217 HD
ENDBRANCH  12  16
BRANCH  13  18
HETATM   18  O   UNL     1      11.536   6.789  15.872  1.00  0.00    -0.358 OA
HETATM   19  H   UNL     1      10.986   7.537  15.745  1.00  0.00     0.217 HD
ENDBRANCH  13  18
ENDBRANCH   9  10
ENDBRANCH   3   9
ENDBRANCH   1   3
TORSDOF 8
ENDMDL
MODEL 4
REMARK VINA RESULT:      -6.4      1.674      2.458
REMARK  8 active torsions:
REMARK  status: ('A' for Active; 'I' for Inactive)
REMARK    1  A    between atoms: O_1  and  C_2 
REMARK    2  A    between atoms: C_2  and  C_3 
REMARK    3  A    between atoms: C_2  and  C_8 
REMARK    4  A    between atoms: C_3  and  C_4 
REMARK    5  A    between atoms: C_4  and  C_5 
REMARK    6  A    between atoms: C_8  and  C_9 
REMARK    7  A    between atoms: C_11  and  O_16 
REMARK    8  A    between atoms: C_12  and  O_15 
ROOT
HETATM    1  O   UNL     1      11.431   2.742  12.789  1.00  0.00    -0.395 OA
HETATM    2  H   UNL     1      11.481   1.933  12.256  1.00  0.00     0.210 HD
ENDROOT
BRANCH   1   3
HETATM    3  C   UNL     1      12.081   3.808  12.098  1.00  0.00     0.122 C 
BRANCH   3   4
HETATM    4  C   UNL     1      12.636   3.297  10.759  1.00  0.00     0.042 C 
BRANCH   4   5
HETATM    5  C   UNL     1      13.359   4.376   9.949  1.00  0.00     0.116 C 
BRANCH   5   6
HETATM    6  C   UNL     1      13.261   4.249   8.451  1.00  0.00     0.172 C 
HETATM    7  O   UNL     1      12.678   5.028   7.714  1.00  0.00    -0.648 OA
HETATM    8  O   UNL     1      13.967   3.229   7.926  1.00  0.00    -0.648 OA
ENDBRANCH   5   6
ENDBRANCH   4   5
ENDBRANCH   3   4
BRANCH   3   9
HETATM    9  C   UNL     1      13.211   4.383  12.970  1.00  0.00     0.070 C 
BRANCH   9  10
HETATM   10  C   UNL     1      12.902   5.770  13.489  1.00  0.00    -0.053 A 
HETATM   11  C   UNL     1      12.244   5.940  14.716  1.00  0.00     0.046 A 
HETATM   12  C   UNL     1      11.952   7.219  15.168  1.00  0.00     0.099 A 
HETATM   13  C   UNL     1      12.331   8.336  14.432  1.00  0.00     0.098 A 
HETATM   14  C   UNL     1      12.965   8.189  13.208  1.00  0.00     0.040 A 
HETATM   15  C   UNL     1      13.249   6.905  12.734  1.00  0.00     0.010 A 
BRANCH  12  16
HETATM   16  O   UNL     1      11.255   7.368  16.333  1.00  0.00    -0.358 OA
HETATM   17  H   UNL     1      11.172   6.646  16.925  1.00  0.00     0.217 HD
ENDBRANCH  12  16
BRANCH  13  18
HETATM   18  O   UNL     1      12.112   9.593  14.917  1.00  0.00    -0.358 OA
HETATM   19  H   UNL     1      11.919  10.296  14.328  1.00  0.00     0.217 HD
ENDBRANCH  13  18
ENDBRANCH   9  10
ENDBRANCH   3   9
ENDBRANCH   1   3
TORSDOF 8
ENDMDL
MODEL 5
REMARK VINA RESULT:      -6.4      2.627      6.419
REMARK  8 active torsions:
REMARK  status: ('A' for Active; 'I' for Inactive)
REMARK    1  A    between atoms: O_1  and  C_2 
REMARK    2  A    between atoms: C_2  and  C_3 
REMARK    3  A    between atoms: C_2  and  C_8 
REMARK    4  A    between atoms: C_3  and  C_4 
REMARK    5  A    between atoms: C_4  and  C_5 
REMARK    6  A    between atoms: C_8  and  C_9 
REMARK    7  A    between atoms: C_11  and  O_16 
REMARK    8  A    between atoms: C_12  and  O_15 
ROOT
HETATM    1  O   UNL     1      13.633   7.828  15.155  1.00  0.00    -0.395 OA
HETATM    2  H   UNL     1      13.334   8.713  15.418  1.00  0.00     0.210 HD
ENDROOT
BRANCH   1   3
HETATM    3  C   UNL     1      13.443   7.661  13.750  1.00  0.00     0.122 C 
BRANCH   3   4
HETATM    4  C   UNL     1      12.621   8.835  13.194  1.00  0.00     0.042 C 
BRANCH   4   5
HETATM    5  C   UNL     1      12.561  10.036  14.140  1.00  0.00     0.116 C 
BRANCH   5   6
HETATM    6  C   UNL     1      12.250  11.364  13.497  1.00  0.00     0.172 C 
HETATM    7  O   UNL     1      11.313  11.581  12.747  1.00  0.00    -0.648 OA
HETATM    8  O   UNL     1      13.047  12.377  13.887  1.00  0.00    -0.648 OA
ENDBRANCH   5   6
ENDBRANCH   4   5
ENDBRANCH   3   4
BRANCH   3   9
HETATM    9  C   UNL     1      12.736   6.323  13.474  1.00  0.00     0.070 C 
BRANCH   9  10
HETATM   10  C   UNL     1      13.182   5.682  12.178  1.00  0.00    -0.053 A 
HETATM   11  C   UNL     1      14.375   6.084  11.559  1.00  0.00     0.046 A 
HETATM   12  C   UNL     1      14.760   5.498  10.362  1.00  0.00     0.099 A 
HETATM   13  C   UNL     1      13.991   4.494   9.783  1.00  0.00     0.098 A 
HETATM   14  C   UNL     1      12.798   4.097  10.369  1.00  0.00     0.040 A 
HETATM   15  C   UNL     1      12.392   4.692  11.566  1.00  0.00     0.010 A 
BRANCH  12  16
HETATM   16  O   UNL     1      15.890   5.943   9.738  1.00  0.00    -0.358 OA
HETATM   17  H   UNL     1      15.919   5.996   8.803  1.00  0.00     0.217 HD
ENDBRANCH  12  16
BRANCH  13  18
HETATM   18  O   UNL     1      14.411   3.866   8.646  1.00  0.00    -0.358 OA
HETATM   19  H   UNL     1      13.809   3.711   7.946  1.00  0.00     0.217 HD
ENDBRANCH  13  18
ENDBRANCH   9  10
ENDBRANCH   3   9
ENDBRANCH   1   3
TORSDOF 8
ENDMDL
MODEL 6
REMARK VINA RESULT:      -6.4      1.716      2.742
REMARK  8 active torsions:
REMARK  status: ('A' for Active; 'I' for Inactive)
REMARK    1  A    between atoms: O_1  and  C_2 
REMARK    2  A    between atoms: C_2  and  C_3 
REMARK    3  A    between atoms: C_2  and  C_8 
REMARK    4  A    between atoms: C_3  and  C_4 
REMARK    5  A    between atoms: C_4  and  C_5 
REMARK    6  A    between atoms: C_8  and  C_9 
REMARK    7  A    between atoms: C_11  and  O_16 
REMARK    8  A    between atoms: C_12  and  O_15 
ROOT
HETATM    1  O   UNL     1      11.253   5.120  11.549  1.00  0.00    -0.395 OA
HETATM    2  H   UNL     1      11.236   4.972  10.591  1.00  0.00     0.210 HD
ENDROOT
BRANCH   1   3
HETATM    3  C   UNL     1      12.606   5.173  11.999  1.00  0.00     0.122 C 
BRANCH   3   4
HETATM    4  C   UNL     1      13.551   4.794  10.847  1.00  0.00     0.042 C 
BRANCH   4   5
HETATM    5  C   UNL     1      12.966   3.740   9.903  1.00  0.00     0.116 C 
BRANCH   5   6
HETATM    6  C   UNL     1      13.172   3.989   8.431  1.00  0.00     0.172 C 
HETATM    7  O   UNL     1      12.752   4.954   7.814  1.00  0.00    -0.648 OA
HETATM    8  O   UNL     1      13.967   3.092   7.816  1.00  0.00    -0.648 OA
ENDBRANCH   5   6
ENDBRANCH   4   5
ENDBRANCH   3   4
BRANCH   3   9
HETATM    9  C   UNL     1      12.797   4.221  13.193  1.00  0.00     0.070 C 
BRANCH   9  10
HETATM   10  C   UNL     1      13.021   4.956  14.496  1.00  0.00    -0.053 A 
HETATM   11  C   UNL     1      12.054   5.846  14.986  1.00  0.00     0.046 A 
HETATM   12  C   UNL     1      12.283   6.525  16.174  1.00  0.00     0.099 A 
HETATM   13  C   UNL     1      13.449   6.311  16.901  1.00  0.00     0.098 A 
HETATM   14  C   UNL     1      14.426   5.450  16.424  1.00  0.00     0.040 A 
HETATM   15  C   UNL     1      14.214   4.773  15.219  1.00  0.00     0.010 A 
BRANCH  12  16
HETATM   16  O   UNL     1      11.362   7.436  16.607  1.00  0.00    -0.358 OA
HETATM   17  H   UNL     1      10.507   7.151  16.864  1.00  0.00     0.217 HD
ENDBRANCH  12  16
BRANCH  13  18
HETATM   18  O   UNL     1      13.637   6.921  18.107  1.00  0.00    -0.358 OA
HETATM   19  H   UNL     1      13.537   7.849  18.183  1.00  0.00     0.217 HD
ENDBRANCH  13  18
ENDBRANCH   9  10
ENDBRANCH   3   9
ENDBRANCH   1   3
TORSDOF 8
ENDMDL
MODEL 7
REMARK VINA RESULT:      -6.3      2.045      6.070
REMARK  8 active torsions:
REMARK  status: ('A' for Active; 'I' for Inactive)
REMARK    1  A    between atoms: O_1  and  C_2 
REMARK    2  A    between atoms: C_2  and  C_3 
REMARK    3  A    between atoms: C_2  and  C_8 
REMARK    4  A    between atoms: C_3  and  C_4 
REMARK    5  A    between atoms: C_4  and  C_5 
REMARK    6  A    between atoms: C_8  and  C_9 
REMARK    7  A    between atoms: C_11  and  O_16 
REMARK    8  A    between atoms: C_12  and  O_15 
ROOT
HETATM    1  O   UNL     1      12.825   6.890  16.342  1.00  0.00    -0.395 OA
HETATM    2  H   UNL     1      13.257   7.712  16.621  1.00  0.00     0.210 HD
ENDROOT
BRANCH   1   3
HETATM    3  C   UNL     1      12.782   6.836  14.916  1.00  0.00     0.122 C 
BRANCH   3   4
HETATM    4  C   UNL     1      11.554   7.606  14.404  1.00  0.00     0.042 C 
BRANCH   4   5
HETATM    5  C   UNL     1      11.860   8.505  13.204  1.00  0.00     0.116 C 
BRANCH   5   6
HETATM    6  C   UNL     1      12.097   9.960  13.516  1.00  0.00     0.172 C 
HETATM    7  O   UNL     1      11.468  10.894  13.045  1.00  0.00    -0.648 OA
HETATM    8  O   UNL     1      13.026  10.187  14.465  1.00  0.00    -0.648 OA
ENDBRANCH   5   6
ENDBRANCH   4   5
ENDBRANCH   3   4
BRANCH   3   9
HETATM    9  C   UNL     1      12.736   5.370  14.451  1.00  0.00     0.070 C 
BRANCH   9  10
HETATM   10  C   UNL     1      13.314   5.177  13.067  1.00  0.00    -0.053 A 
HETATM   11  C   UNL     1      12.501   4.736  12.011  1.00  0.00     0.046 A 
HETATM   12  C   UNL     1      13.052   4.547  10.752  1.00  0.00     0.099 A 
HETATM   13  C   UNL     1      14.396   4.818  10.516  1.00  0.00     0.098 A 
HETATM   14  C   UNL     1      15.220   5.235  11.550  1.00  0.00     0.040 A 
HETATM   15  C   UNL     1      14.680   5.412  12.827  1.00  0.00     0.010 A 
BRANCH  12  16
HETATM   16  O   UNL     1      12.264   4.058   9.750  1.00  0.00    -0.358 OA
HETATM   17  H   UNL     1      11.566   4.580   9.405  1.00  0.00     0.217 HD
ENDBRANCH  12  16
BRANCH  13  18
HETATM   18  O   UNL     1      14.916   4.706   9.259  1.00  0.00    -0.358 OA
HETATM   19  H   UNL     1      15.720   5.136   9.045  1.00  0.00     0.217 HD
ENDBRANCH  13  18
ENDBRANCH   9  10
ENDBRANCH   3   9
ENDBRANCH   1   3
TORSDOF 8
ENDMDL
MODEL 8
REMARK VINA RESULT:      -6.3      1.779      1.953
REMARK  8 active torsions:
REMARK  status: ('A' for Active; 'I' for Inactive)
REMARK    1  A    between atoms: O_1  and  C_2 
REMARK    2  A    between atoms: C_2  and  C_3 
REMARK    3  A    between atoms: C_2  and  C_8 
REMARK    4  A    between atoms: C_3  and  C_4 
REMARK    5  A    between atoms: C_4  and  C_5 
REMARK    6  A    between atoms: C_8  and  C_9 
REMARK    7  A    between atoms: C_11  and  O_16 
REMARK    8  A    between atoms: C_12  and  O_15 
ROOT
HETATM    1  O   UNL     1      16.734   5.663  11.290  1.00  0.00    -0.395 OA
HETATM    2  H   UNL     1      16.949   6.238  10.539  1.00  0.00     0.210 HD
ENDROOT
BRANCH   1   3
HETATM    3  C   UNL     1      15.352   5.805  11.617  1.00  0.00     0.122 C 
BRANCH   3   4
HETATM    4  C   UNL     1      14.499   5.642  10.349  1.00  0.00     0.042 C 
BRANCH   4   5
HETATM    5  C   UNL     1      13.565   4.431  10.396  1.00  0.00     0.116 C 
BRANCH   5   6
HETATM    6  C   UNL     1      12.524   4.446  11.486  1.00  0.00     0.172 C 
HETATM    7  O   UNL     1      12.590   3.821  12.532  1.00  0.00    -0.648 OA
HETATM    8  O   UNL     1      11.506   5.303  11.278  1.00  0.00    -0.648 OA
ENDBRANCH   5   6
ENDBRANCH   4   5
ENDBRANCH   3   4
BRANCH   3   9
HETATM    9  C   UNL     1      15.106   7.179  12.265  1.00  0.00     0.070 C 
BRANCH   9  10
HETATM   10  C   UNL     1      14.018   7.145  13.315  1.00  0.00    -0.053 A 
HETATM   11  C   UNL     1      14.161   6.349  14.461  1.00  0.00     0.046 A 
HETATM   12  C   UNL     1      13.145   6.316  15.405  1.00  0.00     0.099 A 
HETATM   13  C   UNL     1      11.998   7.086  15.243  1.00  0.00     0.098 A 
HETATM   14  C   UNL     1      11.830   7.865  14.108  1.00  0.00     0.040 A 
HETATM   15  C   UNL     1      12.839   7.892  13.141  1.00  0.00     0.010 A 
BRANCH  12  16
HETATM   16  O   UNL     1      13.268   5.488  16.485  1.00  0.00    -0.358 OA
HETATM   17  H   UNL     1      12.867   5.718  17.300  1.00  0.00     0.217 HD
ENDBRANCH  12  16
BRANCH  13  18
HETATM   18  O   UNL     1      11.036   7.111  16.211  1.00  0.00    -0.358 OA
HETATM   19  H   UNL     1      10.804   7.922  16.620  1.00  0.00     0.217 HD
ENDBRANCH  13  18
ENDBRANCH   9  10
ENDBRANCH   3   9
ENDBRANCH   1   3
TORSDOF 8
ENDMDL
MODEL 9
REMARK VINA RESULT:      -6.3      1.915      3.261
REMARK  8 active torsions:
REMARK  status: ('A' for Active; 'I' for Inactive)
REMARK    1  A    between atoms: O_1  and  C_2 
REMARK    2  A    between atoms: C_2  and  C_3 
REMARK    3  A    between atoms: C_2  and  C_8 
REMARK    4  A    between atoms: C_3  and  C_4 
REMARK    5  A    between atoms: C_4  and  C_5 
REMARK    6  A    between atoms: C_8  and  C_9 
REMARK    7  A    between atoms: C_11  and  O_16 
REMARK    8  A    between atoms: C_12  and  O_15 
ROOT
HETATM    1  O   UNL     1      15.194   6.390   9.691  1.00  0.00    -0.395 OA
HETATM    2  H   UNL     1      14.519   5.819   9.292  1.00  0.00     0.210 HD
ENDROOT
BRANCH   1   3
HETATM    3  C   UNL     1      14.791   6.751  11.011  1.00  0.00     0.122 C 
BRANCH   3   4
HETATM    4  C   UNL     1      16.033   7.016  11.879  1.00  0.00     0.042 C 
BRANCH   4   5
HETATM    5  C   UNL     1      16.920   5.782  12.062  1.00  0.00     0.116 C 
BRANCH   5   6
HETATM    6  C   UNL     1      18.257   5.826  11.367  1.00  0.00     0.172 C 
HETATM    7  O   UNL     1      19.328   5.555  11.885  1.00  0.00    -0.648 OA
HETATM    8  O   UNL     1      18.197   6.103  10.051  1.00  0.00    -0.648 OA
ENDBRANCH   5   6
ENDBRANCH   4   5
ENDBRANCH   3   4
BRANCH   3   9
HETATM    9  C   UNL     1      13.933   5.628  11.621  1.00  0.00     0.070 C 
BRANCH   9  10
HETATM   10  C   UNL     1      13.218   6.058  12.882  1.00  0.00    -0.053 A 
HETATM   11  C   UNL     1      13.571   5.506  14.123  1.00  0.00     0.046 A 
HETATM   12  C   UNL     1      12.892   5.898  15.268  1.00  0.00     0.099 A 
HETATM   13  C   UNL     1      11.884   6.854  15.204  1.00  0.00     0.098 A 
HETATM   14  C   UNL     1      11.507   7.397  13.985  1.00  0.00     0.040 A 
HETATM   15  C   UNL     1      12.172   6.997  12.822  1.00  0.00     0.010 A 
BRANCH  12  16
HETATM   16  O   UNL     1      13.203   5.306  16.459  1.00  0.00    -0.358 OA
HETATM   17  H   UNL     1      13.724   5.766  17.088  1.00  0.00     0.217 HD
ENDBRANCH  12  16
BRANCH  13  18
HETATM   18  O   UNL     1      11.272   7.294  16.342  1.00  0.00    -0.358 OA
HETATM   19  H   UNL     1      11.414   8.170  16.642  1.00  0.00     0.217 HD
ENDBRANCH  13  18
ENDBRANCH   9  10
ENDBRANCH   3   9
ENDBRANCH   1   3
TORSDOF 8
ENDMDL
