MODEL 1
REMARK VINA RESULT:      -6.7      0.000      0.000
REMARK  8 active torsions:
REMARK  status: ('A' for Active; 'I' for Inactive)
REMARK    1  A    between atoms: O_1  and  C_2 
REMARK    2  A    between atoms: C_2  and  C_3 
REMARK    3  A    between atoms: C_2  and  C_8 
REMARK    4  A    between atoms: C_3  and  C_4 
REMARK    5  A    between atoms: C_4  and  C_5 
REMARK    6  A    between atoms: C_8  and  C_9 
REMARK    7  A    between atoms: C_11  and  O_16 
REMARK    8  A    between atoms: C_12  and  O_15 
ROOT
HETATM    1  O   UNL     1      12.931   7.098   7.157  1.00  0.00    -0.395 OA
HETATM    2  H   UNL     1      13.264   6.228   6.889  1.00  0.00     0.210 HD
ENDROOT
BRANCH   1   3
HETATM    3  C   UNL     1      12.367   7.009   8.465  1.00  0.00     0.122 C 
BRANCH   3   4
HETATM    4  C   UNL     1      10.848   6.796   8.362  1.00  0.00     0.042 C 
BRANCH   4   5
HETATM    5  C   UNL     1      10.447   5.805   7.266  1.00  0.00     0.116 C 
BRANCH   5   6
HETATM    6  C   UNL     1      10.687   6.260   5.849  1.00  0.00     0.172 C 
HETATM    7  O   UNL     1      11.115   5.559   4.947  1.00  0.00    -0.648 OA
HETATM    8  O   UNL     1      10.296   7.523   5.591  1.00  0.00    -0.648 OA
ENDBRANCH   5   6
ENDBRANCH   4   5
ENDBRANCH   3   4
BRANCH   3   9
HETATM    9  C   UNL     1      12.683   8.288   9.259  1.00  0.00     0.070 C 
BRANCH   9  10
HETATM   10  C   UNL     1      12.053   8.295  10.634  1.00  0.00    -0.053 A 
HETATM   11  C   UNL     1      12.363   7.290  11.563  1.00  0.00     0.046 A 
HETATM   12  C   UNL     1      11.762   7.301  12.814  1.00  0.00     0.099 A 
HETATM   13  C   UNL     1      10.877   8.314  13.168  1.00  0.00     0.098 A 
HETATM   14  C   UNL     1      10.543   9.305  12.257  1.00  0.00     0.040 A 
HETATM   15  C   UNL     1      11.129   9.294  10.988  1.00  0.00     0.010 A 
BRANCH  12  16
HETATM   16  O   UNL     1      12.024   6.283  13.685  1.00  0.00    -0.358 OA
HETATM   17  H   UNL     1      12.090   5.403  13.371  1.00  0.00     0.217 HD
ENDBRANCH  12  16
BRANCH  13  18
HETATM   18  O   UNL     1      10.348   8.365  14.425  1.00  0.00    -0.358 OA
HETATM   19  H   UNL     1       9.860   7.638  14.757  1.00  0.00     0.217 HD
ENDBRANCH  13  18
ENDBRANCH   9  10
ENDBRANCH   3   9
ENDBRANCH   1   3
TORSDOF 8
ENDMDL
MODEL 2
REMARK VINA RESULT:      -6.7      2.773      6.511
REMARK  8 active torsions:
REMARK  status: ('A' for Active; 'I' for Inactive)
REMARK    1  A    between atoms: O_1  and  C_2 
REMARK    2  A    between atoms: C_2  and  C_3 
REMARK    3  A    between atoms: C_2  and  C_8 
REMARK    4  A    between atoms: C_3  and  C_4 
REMARK    5  A    between atoms: C_4  and  C_5 
REMARK    6  A    between atoms: C_8  and  C_9 
REMARK    7  A    between atoms: C_11  and  O_16 
REMARK    8  A    between atoms: C_12  and  O_15 
ROOT
HETATM    1  O   UNL     1      12.962   8.871  12.712  1.00  0.00    -0.395 OA
HETATM    2  H   UNL     1      13.805   9.350  12.684  1.00  0.00     0.210 HD
ENDROOT
BRANCH   1   3
HETATM    3  C   UNL     1      12.190   9.197  11.557  1.00  0.00     0.122 C 
BRANCH   3   4
HETATM    4  C   UNL     1      11.380  10.477  11.818  1.00  0.00     0.042 C 
BRANCH   4   5
HETATM    5  C   UNL     1      12.117  11.495  12.692  1.00  0.00     0.116 C 
BRANCH   5   6
HETATM    6  C   UNL     1      11.921  12.943  12.322  1.00  0.00     0.172 C 
HETATM    7  O   UNL     1      10.919  13.409  11.807  1.00  0.00    -0.648 OA
HETATM    8  O   UNL     1      12.926  13.758  12.695  1.00  0.00    -0.648 OA
ENDBRANCH   5   6
ENDBRANCH   4   5
ENDBRANCH   3   4
BRANCH   3   9
HETATM    9  C   UNL     1      11.256   8.026  11.205  1.00  0.00     0.070 C 
BRANCH   9  10
HETATM   10  C   UNL     1      11.439   7.538   9.785  1.00  0.00    -0.053 A 
HETATM   11  C   UNL     1      10.473   6.715   9.186  1.00  0.00     0.046 A 
HETATM   12  C   UNL     1      10.665   6.263   7.889  1.00  0.00     0.099 A 
HETATM   13  C   UNL     1      11.791   6.639   7.164  1.00  0.00     0.098 A 
HETATM   14  C   UNL     1      12.766   7.436   7.745  1.00  0.00     0.040 A 
HETATM   15  C   UNL     1      12.592   7.884   9.057  1.00  0.00     0.010 A 
BRANCH  12  16
HETATM   16  O   UNL     1       9.748   5.411   7.340  1.00  0.00    -0.358 OA
HETATM   17  H   UNL     1       8.855   5.442   7.620  1.00  0.00     0.217 HD
ENDBRANCH  12  16
BRANCH  13  18
HETATM   18  O   UNL     1      11.938   6.256   5.862  1.00  0.00    -0.358 OA
HETATM   19  H   UNL     1      12.346   5.437   5.659  1.00  0.00     0.217 HD
ENDBRANCH  13  18
ENDBRANCH   9  10
ENDBRANCH   3   9
ENDBRANCH   1   3
TORSDOF 8
ENDMDL
MODEL 3
REMARK VINA RESULT:      -6.6      2.672      5.757
REMARK  8 active torsions:
REMARK  status: ('A' for Active; 'I' for Inactive)
REMARK    1  A    between atoms: O_1  and  C_2 
REMARK    2  A    between atoms: C_2  and  C_3 
REMARK    3  A    between atoms: C_2  and  C_8 
REMARK    4  A    between atoms: C_3  and  C_4 
REMARK    5  A    between atoms: C_4  and  C_5 
REMARK    6  A    between atoms: C_8  and  C_9 
REMARK    7  A    between atoms: C_11  and  O_16 
REMARK    8  A    between atoms: C_12  and  O_15 
ROOT
HETATM    1  O   UNL     1       9.314   6.387   9.611  1.00  0.00    -0.395 OA
HETATM    2  H   UNL     1       8.615   7.041   9.768  1.00  0.00     0.210 HD
ENDROOT
BRANCH   1   3
HETATM    3  C   UNL     1      10.589   7.024   9.695  1.00  0.00     0.122 C 
BRANCH   3   4
HETATM    4  C   UNL     1      10.402   8.526   9.962  1.00  0.00     0.042 C 
BRANCH   4   5
HETATM    5  C   UNL     1      10.490   8.895  11.445  1.00  0.00     0.116 C 
BRANCH   5   6
HETATM    6  C   UNL     1      11.456   9.998  11.792  1.00  0.00     0.172 C 
HETATM    7  O   UNL     1      11.144  11.121  12.153  1.00  0.00    -0.648 OA
HETATM    8  O   UNL     1      12.753   9.636  11.773  1.00  0.00    -0.648 OA
ENDBRANCH   5   6
ENDBRANCH   4   5
ENDBRANCH   3   4
BRANCH   3   9
HETATM    9  C   UNL     1      11.373   6.798   8.391  1.00  0.00     0.070 C 
BRANCH   9  10
HETATM   10  C   UNL     1      12.870   6.892   8.584  1.00  0.00    -0.053 A 
HETATM   11  C   UNL     1      13.713   7.153   7.493  1.00  0.00     0.046 A 
HETATM   12  C   UNL     1      15.086   7.219   7.685  1.00  0.00     0.099 A 
HETATM   13  C   UNL     1      15.634   7.058   8.953  1.00  0.00     0.098 A 
HETATM   14  C   UNL     1      14.820   6.780  10.040  1.00  0.00     0.040 A 
HETATM   15  C   UNL     1      13.437   6.694   9.856  1.00  0.00     0.010 A 
BRANCH  12  16
HETATM   16  O   UNL     1      15.899   7.411   6.604  1.00  0.00    -0.358 OA
HETATM   17  H   UNL     1      16.823   7.507   6.725  1.00  0.00     0.217 HD
ENDBRANCH  12  16
BRANCH  13  18
HETATM   18  O   UNL     1      16.977   7.200   9.151  1.00  0.00    -0.358 OA
HETATM   19  H   UNL     1      17.417   7.970   8.846  1.00  0.00     0.217 HD
ENDBRANCH  13  18
ENDBRANCH   9  10
ENDBRANCH   3   9
ENDBRANCH   1   3
TORSDOF 8
ENDMDL
MODEL 4
REMARK VINA RESULT:      -6.6      2.766      6.442
REMARK  8 active torsions:
REMARK  status: ('A' for Active; 'I' for Inactive)
REMARK    1  A    between atoms: O_1  and  C_2 
REMARK    2  A    between atoms: C_2  and  C_3 
REMARK    3  A    between atoms: C_2  and  C_8 
REMARK    4  A    between atoms: C_3  and  C_4 
REMARK    5  A    between atoms: C_4  and  C_5 
REMARK    6  A    between atoms: C_8  and  C_9 
REMARK    7  A    between atoms: C_11  and  O_16 
REMARK    8  A    between atoms: C_12  and  O_15 
ROOT
HETATM    1  O   UNL     1      10.026   8.503  12.684  1.00  0.00    -0.395 OA
HETATM    2  H   UNL     1       9.785   9.129  13.385  1.00  0.00     0.210 HD
ENDROOT
BRANCH   1   3
HETATM    3  C   UNL     1      11.023   9.088  11.846  1.00  0.00     0.122 C 
BRANCH   3   4
HETATM    4  C   UNL     1      10.875  10.618  11.853  1.00  0.00     0.042 C 
BRANCH   4   5
HETATM    5  C   UNL     1      12.096  11.343  12.421  1.00  0.00     0.116 C 
BRANCH   5   6
HETATM    6  C   UNL     1      12.044  12.849  12.381  1.00  0.00     0.172 C 
HETATM    7  O   UNL     1      12.931  13.595  12.762  1.00  0.00    -0.648 OA
HETATM    8  O   UNL     1      10.948  13.357  11.786  1.00  0.00    -0.648 OA
ENDBRANCH   5   6
ENDBRANCH   4   5
ENDBRANCH   3   4
BRANCH   3   9
HETATM    9  C   UNL     1      10.892   8.535  10.416  1.00  0.00     0.070 C 
BRANCH   9  10
HETATM   10  C   UNL     1      12.214   8.077   9.842  1.00  0.00    -0.053 A 
HETATM   11  C   UNL     1      12.315   7.714   8.491  1.00  0.00     0.046 A 
HETATM   12  C   UNL     1      13.532   7.280   7.985  1.00  0.00     0.099 A 
HETATM   13  C   UNL     1      14.661   7.227   8.796  1.00  0.00     0.098 A 
HETATM   14  C   UNL     1      14.577   7.563  10.139  1.00  0.00     0.040 A 
HETATM   15  C   UNL     1      13.352   7.986  10.664  1.00  0.00     0.010 A 
BRANCH  12  16
HETATM   16  O   UNL     1      13.602   6.869   6.684  1.00  0.00    -0.358 OA
HETATM   17  H   UNL     1      13.038   6.187   6.378  1.00  0.00     0.217 HD
ENDBRANCH  12  16
BRANCH  13  18
HETATM   18  O   UNL     1      15.873   6.874   8.277  1.00  0.00    -0.358 OA
HETATM   19  H   UNL     1      15.917   6.273   7.560  1.00  0.00     0.217 HD
ENDBRANCH  13  18
ENDBRANCH   9  10
ENDBRANCH   3   9
ENDBRANCH   1   3
TORSDOF 8
ENDMDL
MODEL 5
REMARK VINA RESULT:      -6.5      1.178      1.761
REMARK  8 active torsions:
REMARK  status: ('A' for Active; 'I' for Inactive)
REMARK    1  A    between atoms: O_1  and  C_2 
REMARK    2  A    between atoms: C_2  and  C_3 
REMARK    3  A    between atoms: C_2  and  C_8 
REMARK    4  A    between atoms: C_3  and  C_4 
REMARK    5  A    between atoms: C_4  and  C_5 
REMARK    6  A    between atoms: C_8  and  C_9 
REMARK    7  A    between atoms: C_11  and  O_16 
REMARK    8  A    between atoms: C_12  and  O_15 
ROOT
HETATM    1  O   UNL     1      12.968   8.272   7.374  1.00  0.00    -0.395 OA
HETATM    2  H   UNL     1      12.222   8.446   6.779  1.00  0.00     0.210 HD
ENDROOT
BRANCH   1   3
HETATM    3  C   UNL     1      12.777   7.014   8.021  1.00  0.00     0.122 C 
BRANCH   3   4
HETATM    4  C   UNL     1      11.299   6.846   8.405  1.00  0.00     0.042 C 
BRANCH   4   5
HETATM    5  C   UNL     1      10.495   6.033   7.388  1.00  0.00     0.116 C 
BRANCH   5   6
HETATM    6  C   UNL     1      10.710   6.396   5.941  1.00  0.00     0.172 C 
HETATM    7  O   UNL     1      11.086   5.629   5.070  1.00  0.00    -0.648 OA
HETATM    8  O   UNL     1      10.356   7.655   5.619  1.00  0.00    -0.648 OA
ENDBRANCH   5   6
ENDBRANCH   4   5
ENDBRANCH   3   4
BRANCH   3   9
HETATM    9  C   UNL     1      13.676   6.926   9.267  1.00  0.00     0.070 C 
BRANCH   9  10
HETATM   10  C   UNL     1      12.943   7.278  10.543  1.00  0.00    -0.053 A 
HETATM   11  C   UNL     1      12.874   8.609  10.979  1.00  0.00     0.046 A 
HETATM   12  C   UNL     1      12.213   8.912  12.161  1.00  0.00     0.099 A 
HETATM   13  C   UNL     1      11.593   7.912  12.904  1.00  0.00     0.098 A 
HETATM   14  C   UNL     1      11.668   6.588  12.500  1.00  0.00     0.040 A 
HETATM   15  C   UNL     1      12.346   6.269  11.320  1.00  0.00     0.010 A 
BRANCH  12  16
HETATM   16  O   UNL     1      12.207  10.202  12.607  1.00  0.00    -0.358 OA
HETATM   17  H   UNL     1      12.638  10.423  13.409  1.00  0.00     0.217 HD
ENDBRANCH  12  16
BRANCH  13  18
HETATM   18  O   UNL     1      10.879   8.223  14.025  1.00  0.00    -0.358 OA
HETATM   19  H   UNL     1      11.291   8.195  14.866  1.00  0.00     0.217 HD
ENDBRANCH  13  18
ENDBRANCH   9  10
ENDBRANCH   3   9
ENDBRANCH   1   3
TORSDOF 8
ENDMDL
MODEL 6
REMARK VINA RESULT:      -6.4      1.974      3.221
REMARK  8 active torsions:
REMARK  status: ('A' for Active; 'I' for Inactive)
REMARK    1  A    between atoms: O_1  and  C_2 
REMARK    2  A    between atoms: C_2  and  C_3 
REMARK    3  A    between atoms: C_2  and  C_8 
REMARK    4  A    between atoms: C_3  and  C_4 
REMARK    5  A    between atoms: C_4  and  C_5 
REMARK    6  A    between atoms: C_8  and  C_9 
REMARK    7  A    between atoms: C_11  and  O_16 
REMARK    8  A    between atoms: C_12  and  O_15 
ROOT
HETATM    1  O   UNL     1      13.034   8.511   7.326  1.00  0.00    -0.395 OA
HETATM    2  H   UNL     1      13.506   7.861   6.783  1.00  0.00     0.210 HD
ENDROOT
BRANCH   1   3
HETATM    3  C   UNL     1      13.021   8.076   8.685  1.00  0.00     0.122 C 
BRANCH   3   4
HETATM    4  C   UNL     1      13.955   6.867   8.852  1.00  0.00     0.042 C 
BRANCH   4   5
HETATM    5  C   UNL     1      15.417   7.257   9.085  1.00  0.00     0.116 C 
BRANCH   5   6
HETATM    6  C   UNL     1      16.308   7.221   7.870  1.00  0.00     0.172 C 
HETATM    7  O   UNL     1      17.526   7.154   7.891  1.00  0.00    -0.648 OA
HETATM    8  O   UNL     1      15.652   7.170   6.694  1.00  0.00    -0.648 OA
ENDBRANCH   5   6
ENDBRANCH   4   5
ENDBRANCH   3   4
BRANCH   3   9
HETATM    9  C   UNL     1      11.585   7.715   9.105  1.00  0.00     0.070 C 
BRANCH   9  10
HETATM   10  C   UNL     1      11.340   7.914  10.584  1.00  0.00    -0.053 A 
HETATM   11  C   UNL     1      11.740   6.937  11.509  1.00  0.00     0.046 A 
HETATM   12  C   UNL     1      11.491   7.127  12.860  1.00  0.00     0.099 A 
HETATM   13  C   UNL     1      10.875   8.290  13.312  1.00  0.00     0.098 A 
HETATM   14  C   UNL     1      10.455   9.258  12.413  1.00  0.00     0.040 A 
HETATM   15  C   UNL     1      10.685   9.069  11.047  1.00  0.00     0.010 A 
BRANCH  12  16
HETATM   16  O   UNL     1      11.828   6.141  13.743  1.00  0.00    -0.358 OA
HETATM   17  H   UNL     1      11.889   6.332  14.658  1.00  0.00     0.217 HD
ENDBRANCH  12  16
BRANCH  13  18
HETATM   18  O   UNL     1      10.702   8.508  14.649  1.00  0.00    -0.358 OA
HETATM   19  H   UNL     1      10.008   8.078  15.107  1.00  0.00     0.217 HD
ENDBRANCH  13  18
ENDBRANCH   9  10
ENDBRANCH   3   9
ENDBRANCH   1   3
TORSDOF 8
ENDMDL
MODEL 7
REMARK VINA RESULT:      -6.4      2.921      5.178
REMARK  8 active torsions:
REMARK  status: ('A' for Active; 'I' for Inactive)
REMARK    1  A    between atoms: O_1  and  C_2 
REMARK    2  A    between atoms: C_2  and  C_3 
REMARK    3  A    between atoms: C_2  and  C_8 
REMARK    4  A    between atoms: C_3  and  C_4 
REMARK    5  A    between atoms: C_4  and  C_5 
REMARK    6  A    between atoms: C_8  and  C_9 
REMARK    7  A    between atoms: C_11  and  O_16 
REMARK    8  A    between atoms: C_12  and  O_15 
ROOT
HETATM    1  O   UNL     1      11.907   9.013  10.234  1.00  0.00    -0.395 OA
HETATM    2  H   UNL     1      10.964   9.173  10.395  1.00  0.00     0.210 HD
ENDROOT
BRANCH   1   3
HETATM    3  C   UNL     1      12.058   7.882   9.377  1.00  0.00     0.122 C 
BRANCH   3   4
HETATM    4  C   UNL     1      10.684   7.250   9.105  1.00  0.00     0.042 C 
BRANCH   4   5
HETATM    5  C   UNL     1      10.715   6.175   8.015  1.00  0.00     0.116 C 
BRANCH   5   6
HETATM    6  C   UNL     1      10.878   6.676   6.603  1.00  0.00     0.172 C 
HETATM    7  O   UNL     1      10.163   7.504   6.062  1.00  0.00    -0.648 OA
HETATM    8  O   UNL     1      11.966   6.208   5.963  1.00  0.00    -0.648 OA
ENDBRANCH   5   6
ENDBRANCH   4   5
ENDBRANCH   3   4
BRANCH   3   9
HETATM    9  C   UNL     1      13.007   6.859  10.026  1.00  0.00     0.070 C 
BRANCH   9  10
HETATM   10  C   UNL     1      14.386   6.863   9.404  1.00  0.00    -0.053 A 
HETATM   11  C   UNL     1      14.558   7.220   8.058  1.00  0.00     0.046 A 
HETATM   12  C   UNL     1      15.827   7.201   7.498  1.00  0.00     0.099 A 
HETATM   13  C   UNL     1      16.936   6.860   8.266  1.00  0.00     0.098 A 
HETATM   14  C   UNL     1      16.785   6.486   9.592  1.00  0.00     0.040 A 
HETATM   15  C   UNL     1      15.509   6.484  10.162  1.00  0.00     0.010 A 
BRANCH  12  16
HETATM   16  O   UNL     1      15.972   7.489   6.171  1.00  0.00    -0.358 OA
HETATM   17  H   UNL     1      16.760   7.891   5.863  1.00  0.00     0.217 HD
ENDBRANCH  12  16
BRANCH  13  18
HETATM   18  O   UNL     1      18.192   6.918   7.733  1.00  0.00    -0.358 OA
HETATM   19  H   UNL     1      18.305   7.019   6.809  1.00  0.00     0.217 HD
ENDBRANCH  13  18
ENDBRANCH   9  10
ENDBRANCH   3   9
ENDBRANCH   1   3
TORSDOF 8
ENDMDL
MODEL 8
REMARK VINA RESULT:      -6.4      1.753      2.658
REMARK  8 active torsions:
REMARK  status: ('A' for Active; 'I' for Inactive)
REMARK    1  A    between atoms: O_1  and  C_2 
REMARK    2  A    between atoms: C_2  and  C_3 
REMARK    3  A    between atoms: C_2  and  C_8 
REMARK    4  A    between atoms: C_3  and  C_4 
REMARK    5  A    between atoms: C_4  and  C_5 
REMARK    6  A    between atoms: C_8  and  C_9 
REMARK    7  A    between atoms: C_11  and  O_16 
REMARK    8  A    between atoms: C_12  and  O_15 
ROOT
HETATM    1  O   UNL     1       9.564   7.227   9.222  1.00  0.00    -0.395 OA
HETATM    2  H   UNL     1       8.982   7.184   9.997  1.00  0.00     0.210 HD
ENDROOT
BRANCH   1   3
HETATM    3  C   UNL     1      10.925   7.166   9.647  1.00  0.00     0.122 C 
BRANCH   3   4
HETATM    4  C   UNL     1      11.848   7.076   8.421  1.00  0.00     0.042 C 
BRANCH   4   5
HETATM    5  C   UNL     1      11.103   7.198   7.090  1.00  0.00     0.116 C 
BRANCH   5   6
HETATM    6  C   UNL     1      10.749   5.898   6.414  1.00  0.00     0.172 C 
HETATM    7  O   UNL     1      10.072   5.010   6.905  1.00  0.00    -0.648 OA
HETATM    8  O   UNL     1      11.161   5.800   5.135  1.00  0.00    -0.648 OA
ENDBRANCH   5   6
ENDBRANCH   4   5
ENDBRANCH   3   4
BRANCH   3   9
HETATM    9  C   UNL     1      11.130   5.952  10.570  1.00  0.00     0.070 C 
BRANCH   9  10
HETATM   10  C   UNL     1      11.622   6.341  11.947  1.00  0.00    -0.053 A 
HETATM   11  C   UNL     1      10.903   7.260  12.726  1.00  0.00     0.046 A 
HETATM   12  C   UNL     1      11.378   7.619  13.979  1.00  0.00     0.099 A 
HETATM   13  C   UNL     1      12.545   7.055  14.485  1.00  0.00     0.098 A 
HETATM   14  C   UNL     1      13.280   6.159  13.723  1.00  0.00     0.040 A 
HETATM   15  C   UNL     1      12.820   5.804  12.451  1.00  0.00     0.010 A 
BRANCH  12  16
HETATM   16  O   UNL     1      10.703   8.562  14.700  1.00  0.00    -0.358 OA
HETATM   17  H   UNL     1      11.044   8.855  15.522  1.00  0.00     0.217 HD
ENDBRANCH  12  16
BRANCH  13  18
HETATM   18  O   UNL     1      12.968   7.351  15.748  1.00  0.00    -0.358 OA
HETATM   19  H   UNL     1      12.360   7.684  16.379  1.00  0.00     0.217 HD
ENDBRANCH  13  18
ENDBRANCH   9  10
ENDBRANCH   3   9
ENDBRANCH   1   3
TORSDOF 8
ENDMDL
MODEL 9
REMARK VINA RESULT:      -6.4      1.959      6.040
REMARK  8 active torsions:
REMARK  status: ('A' for Active; 'I' for Inactive)
REMARK    1  A    between atoms: O_1  and  C_2 
REMARK    2  A    between atoms: C_2  and  C_3 
REMARK    3  A    between atoms: C_2  and  C_8 
REMARK    4  A    between atoms: C_3  and  C_4 
REMARK    5  A    between atoms: C_4  and  C_5 
REMARK    6  A    between atoms: C_8  and  C_9 
REMARK    7  A    between atoms: C_11  and  O_16 
REMARK    8  A    between atoms: C_12  and  O_15 
ROOT
HETATM    1  O   UNL     1      12.893   8.050  13.306  1.00  0.00    -0.395 OA
HETATM    2  H   UNL     1      13.737   8.528  13.276  1.00  0.00     0.210 HD
ENDROOT
BRANCH   1   3
HETATM    3  C   UNL     1      12.273   8.100  12.022  1.00  0.00     0.122 C 
BRANCH   3   4
HETATM    4  C   UNL     1      10.902   8.786  12.133  1.00  0.00     0.042 C 
BRANCH   4   5
HETATM    5  C   UNL     1      10.841  10.140  11.421  1.00  0.00     0.116 C 
BRANCH   5   6
HETATM    6  C   UNL     1      11.492  11.292  12.142  1.00  0.00     0.172 C 
HETATM    7  O   UNL     1      12.466  11.206  12.873  1.00  0.00    -0.648 OA
HETATM    8  O   UNL     1      10.976  12.501  11.851  1.00  0.00    -0.648 OA
ENDBRANCH   5   6
ENDBRANCH   4   5
ENDBRANCH   3   4
BRANCH   3   9
HETATM    9  C   UNL     1      12.123   6.676  11.458  1.00  0.00     0.070 C 
BRANCH   9  10
HETATM   10  C   UNL     1      11.949   6.656   9.956  1.00  0.00    -0.053 A 
HETATM   11  C   UNL     1      13.040   6.909   9.110  1.00  0.00     0.046 A 
HETATM   12  C   UNL     1      12.859   6.904   7.735  1.00  0.00     0.099 A 
HETATM   13  C   UNL     1      11.613   6.622   7.183  1.00  0.00     0.098 A 
HETATM   14  C   UNL     1      10.519   6.389   8.002  1.00  0.00     0.040 A 
HETATM   15  C   UNL     1      10.686   6.409   9.390  1.00  0.00     0.010 A 
BRANCH  12  16
HETATM   16  O   UNL     1      13.914   7.214   6.925  1.00  0.00    -0.358 OA
HETATM   17  H   UNL     1      14.714   6.732   6.993  1.00  0.00     0.217 HD
ENDBRANCH  12  16
BRANCH  13  18
HETATM   18  O   UNL     1      11.456   6.542   5.830  1.00  0.00    -0.358 OA
HETATM   19  H   UNL     1      10.689   6.142   5.470  1.00  0.00     0.217 HD
ENDBRANCH  13  18
ENDBRANCH   9  10
ENDBRANCH   3   9
ENDBRANCH   1   3
TORSDOF 8
ENDMDL
