MODEL 1
REMARK VINA RESULT:      -6.6      0.000      0.000
REMARK  8 active torsions:
REMARK  status: ('A' for Active; 'I' for Inactive)
REMARK    1  A    between atoms: O_1  and  C_2 
REMARK    2  A    between atoms: C_2  and  C_3 
REMARK    3  A    between atoms: C_2  and  C_8 
REMARK    4  A    between atoms: C_3  and  C_4 
REMARK    5  A    between atoms: C_4  and  C_5 
REMARK    6  A    between atoms: C_8  and  C_9 
REMARK    7  A    between atoms: C_11  and  O_16 
REMARK    8  A    between atoms: C_12  and  O_15 
ROOT
HETATM    1  O   UNL     1      15.254   5.204  10.104  1.00  0.00    -0.395 OA
HETATM    2  H   UNL     1      14.806   5.465   9.284  1.00  0.00     0.210 HD
ENDROOT
BRANCH   1   3
HETATM    3  C   UNL     1      14.336   5.281  11.193  1.00  0.00     0.122 C 
BRANCH   3   4
HETATM    4  C   UNL     1      12.948   4.804  10.737  1.00  0.00     0.042 C 
BRANCH   4   5
HETATM    5  C   UNL     1      12.992   3.536   9.882  1.00  0.00     0.116 C 
BRANCH   5   6
HETATM    6  C   UNL     1      13.364   3.732   8.434  1.00  0.00     0.172 C 
HETATM    7  O   UNL     1      13.926   2.906   7.733  1.00  0.00    -0.648 OA
HETATM    8  O   UNL     1      12.940   4.892   7.897  1.00  0.00    -0.648 OA
ENDBRANCH   5   6
ENDBRANCH   4   5
ENDBRANCH   3   4
BRANCH   3   9
HETATM    9  C   UNL     1      14.269   6.726  11.718  1.00  0.00     0.070 C 
BRANCH   9  10
HETATM   10  C   UNL     1      13.443   6.853  12.979  1.00  0.00    -0.053 A 
HETATM   11  C   UNL     1      13.765   6.100  14.119  1.00  0.00     0.046 A 
HETATM   12  C   UNL     1      12.986   6.215  15.261  1.00  0.00     0.099 A 
HETATM   13  C   UNL     1      11.906   7.091  15.299  1.00  0.00     0.098 A 
HETATM   14  C   UNL     1      11.560   7.829  14.177  1.00  0.00     0.040 A 
HETATM   15  C   UNL     1      12.327   7.708  13.015  1.00  0.00     0.010 A 
BRANCH  12  16
HETATM   16  O   UNL     1      13.272   5.430  16.341  1.00  0.00    -0.358 OA
HETATM   17  H   UNL     1      12.826   4.614  16.459  1.00  0.00     0.217 HD
ENDBRANCH  12  16
BRANCH  13  18
HETATM   18  O   UNL     1      11.190   7.259  16.449  1.00  0.00    -0.358 OA
HETATM   19  H   UNL     1      10.270   7.082  16.458  1.00  0.00     0.217 HD
ENDBRANCH  13  18
ENDBRANCH   9  10
ENDBRANCH   3   9
ENDBRANCH   1   3
TORSDOF 8
ENDMDL
MODEL 2
REMARK VINA RESULT:      -6.5      2.675      5.699
REMARK  8 active torsions:
REMARK  status: ('A' for Active; 'I' for Inactive)
REMARK    1  A    between atoms: O_1  and  C_2 
REMARK    2  A    between atoms: C_2  and  C_3 
REMARK    3  A    between atoms: C_2  and  C_8 
REMARK    4  A    between atoms: C_3  and  C_4 
REMARK    5  A    between atoms: C_4  and  C_5 
REMARK    6  A    between atoms: C_8  and  C_9 
REMARK    7  A    between atoms: C_11  and  O_16 
REMARK    8  A    between atoms: C_12  and  O_15 
ROOT
HETATM    1  O   UNL     1      11.391   4.018  11.849  1.00  0.00    -0.395 OA
HETATM    2  H   UNL     1      10.528   4.436  11.994  1.00  0.00     0.210 HD
ENDROOT
BRANCH   1   3
HETATM    3  C   UNL     1      12.422   4.996  11.976  1.00  0.00     0.122 C 
BRANCH   3   4
HETATM    4  C   UNL     1      11.805   6.404  11.969  1.00  0.00     0.042 C 
BRANCH   4   5
HETATM    5  C   UNL     1      11.732   7.041  13.359  1.00  0.00     0.116 C 
BRANCH   5   6
HETATM    6  C   UNL     1      12.552   8.291  13.553  1.00  0.00     0.172 C 
HETATM    7  O   UNL     1      13.743   8.318  13.815  1.00  0.00    -0.648 OA
HETATM    8  O   UNL     1      11.889   9.440  13.318  1.00  0.00    -0.648 OA
ENDBRANCH   5   6
ENDBRANCH   4   5
ENDBRANCH   3   4
BRANCH   3   9
HETATM    9  C   UNL     1      13.434   4.841  10.827  1.00  0.00     0.070 C 
BRANCH   9  10
HETATM   10  C   UNL     1      14.842   5.219  11.232  1.00  0.00    -0.053 A 
HETATM   11  C   UNL     1      15.830   5.428  10.258  1.00  0.00     0.046 A 
HETATM   12  C   UNL     1      17.121   5.756  10.648  1.00  0.00     0.099 A 
HETATM   13  C   UNL     1      17.439   5.908  11.994  1.00  0.00     0.098 A 
HETATM   14  C   UNL     1      16.482   5.686  12.972  1.00  0.00     0.040 A 
HETATM   15  C   UNL     1      15.182   5.339  12.591  1.00  0.00     0.010 A 
BRANCH  12  16
HETATM   16  O   UNL     1      18.088   5.894   9.694  1.00  0.00    -0.358 OA
HETATM   17  H   UNL     1      17.902   6.362   8.904  1.00  0.00     0.217 HD
ENDBRANCH  12  16
BRANCH  13  18
HETATM   18  O   UNL     1      18.689   6.306  12.370  1.00  0.00    -0.358 OA
HETATM   19  H   UNL     1      19.397   5.692  12.367  1.00  0.00     0.217 HD
ENDBRANCH  13  18
ENDBRANCH   9  10
ENDBRANCH   3   9
ENDBRANCH   1   3
TORSDOF 8
ENDMDL
MODEL 3
REMARK VINA RESULT:      -6.5      2.681      6.534
REMARK  8 active torsions:
REMARK  status: ('A' for Active; 'I' for Inactive)
REMARK    1  A    between atoms: O_1  and  C_2 
REMARK    2  A    between atoms: C_2  and  C_3 
REMARK    3  A    between atoms: C_2  and  C_8 
REMARK    4  A    between atoms: C_3  and  C_4 
REMARK    5  A    between atoms: C_4  and  C_5 
REMARK    6  A    between atoms: C_8  and  C_9 
REMARK    7  A    between atoms: C_11  and  O_16 
REMARK    8  A    between atoms: C_12  and  O_15 
ROOT
HETATM    1  O   UNL     1      13.522   7.797  15.362  1.00  0.00    -0.395 OA
HETATM    2  H   UNL     1      14.255   7.210  15.607  1.00  0.00     0.210 HD
ENDROOT
BRANCH   1   3
HETATM    3  C   UNL     1      13.299   7.716  13.955  1.00  0.00     0.122 C 
BRANCH   3   4
HETATM    4  C   UNL     1      12.377   8.863  13.509  1.00  0.00     0.042 C 
BRANCH   4   5
HETATM    5  C   UNL     1      12.610  10.164  14.281  1.00  0.00     0.116 C 
BRANCH   5   6
HETATM    6  C   UNL     1      12.280  11.435  13.541  1.00  0.00     0.172 C 
HETATM    7  O   UNL     1      11.364  11.570  12.747  1.00  0.00    -0.648 OA
HETATM    8  O   UNL     1      13.031  12.497  13.888  1.00  0.00    -0.648 OA
ENDBRANCH   5   6
ENDBRANCH   4   5
ENDBRANCH   3   4
BRANCH   3   9
HETATM    9  C   UNL     1      12.678   6.352  13.602  1.00  0.00     0.070 C 
BRANCH   9  10
HETATM   10  C   UNL     1      13.264   5.751  12.344  1.00  0.00    -0.053 A 
HETATM   11  C   UNL     1      12.458   5.005  11.470  1.00  0.00     0.046 A 
HETATM   12  C   UNL     1      13.016   4.445  10.330  1.00  0.00     0.099 A 
HETATM   13  C   UNL     1      14.360   4.639  10.028  1.00  0.00     0.098 A 
HETATM   14  C   UNL     1      15.177   5.356  10.889  1.00  0.00     0.040 A 
HETATM   15  C   UNL     1      14.630   5.910  12.050  1.00  0.00     0.010 A 
BRANCH  12  16
HETATM   16  O   UNL     1      12.236   3.670   9.521  1.00  0.00    -0.358 OA
HETATM   17  H   UNL     1      11.637   3.055   9.898  1.00  0.00     0.217 HD
ENDBRANCH  12  16
BRANCH  13  18
HETATM   18  O   UNL     1      14.887   4.153   8.867  1.00  0.00    -0.358 OA
HETATM   19  H   UNL     1      15.815   4.150   8.738  1.00  0.00     0.217 HD
ENDBRANCH  13  18
ENDBRANCH   9  10
ENDBRANCH   3   9
ENDBRANCH   1   3
TORSDOF 8
ENDMDL
MODEL 4
REMARK VINA RESULT:      -6.5      2.654      6.525
REMARK  8 active torsions:
REMARK  status: ('A' for Active; 'I' for Inactive)
REMARK    1  A    between atoms: O_1  and  C_2 
REMARK    2  A    between atoms: C_2  and  C_3 
REMARK    3  A    between atoms: C_2  and  C_8 
REMARK    4  A    between atoms: C_3  and  C_4 
REMARK    5  A    between atoms: C_4  and  C_5 
REMARK    6  A    between atoms: C_8  and  C_9 
REMARK    7  A    between atoms: C_11  and  O_16 
REMARK    8  A    between atoms: C_12  and  O_15 
ROOT
HETATM    1  O   UNL     1      13.066   7.467  15.361  1.00  0.00    -0.395 OA
HETATM    2  H   UNL     1      12.872   6.543  15.584  1.00  0.00     0.210 HD
ENDROOT
BRANCH   1   3
HETATM    3  C   UNL     1      12.893   7.664  13.958  1.00  0.00     0.122 C 
BRANCH   3   4
HETATM    4  C   UNL     1      12.089   8.950  13.709  1.00  0.00     0.042 C 
BRANCH   4   5
HETATM    5  C   UNL     1      12.831  10.221  14.129  1.00  0.00     0.116 C 
BRANCH   5   6
HETATM    6  C   UNL     1      12.326  11.507  13.526  1.00  0.00     0.172 C 
HETATM    7  O   UNL     1      11.323  11.617  12.840  1.00  0.00    -0.648 OA
HETATM    8  O   UNL     1      13.023  12.604  13.878  1.00  0.00    -0.648 OA
ENDBRANCH   5   6
ENDBRANCH   4   5
ENDBRANCH   3   4
BRANCH   3   9
HETATM    9  C   UNL     1      12.177   6.448  13.344  1.00  0.00     0.070 C 
BRANCH   9  10
HETATM   10  C   UNL     1      12.915   5.872  12.157  1.00  0.00    -0.053 A 
HETATM   11  C   UNL     1      14.091   6.477  11.688  1.00  0.00     0.046 A 
HETATM   12  C   UNL     1      14.746   5.946  10.586  1.00  0.00     0.099 A 
HETATM   13  C   UNL     1      14.266   4.801   9.959  1.00  0.00     0.098 A 
HETATM   14  C   UNL     1      13.095   4.199  10.395  1.00  0.00     0.040 A 
HETATM   15  C   UNL     1      12.417   4.736  11.493  1.00  0.00     0.010 A 
BRANCH  12  16
HETATM   16  O   UNL     1      15.853   6.581  10.102  1.00  0.00    -0.358 OA
HETATM   17  H   UNL     1      16.635   6.094   9.929  1.00  0.00     0.217 HD
ENDBRANCH  12  16
BRANCH  13  18
HETATM   18  O   UNL     1      14.955   4.236   8.924  1.00  0.00    -0.358 OA
HETATM   19  H   UNL     1      15.546   4.756   8.416  1.00  0.00     0.217 HD
ENDBRANCH  13  18
ENDBRANCH   9  10
ENDBRANCH   3   9
ENDBRANCH   1   3
TORSDOF 8
ENDMDL
MODEL 5
REMARK VINA RESULT:      -6.5      1.165      1.760
REMARK  8 active torsions:
REMARK  status: ('A' for Active; 'I' for Inactive)
REMARK    1  A    between atoms: O_1  and  C_2 
REMARK    2  A    between atoms: C_2  and  C_3 
REMARK    3  A    between atoms: C_2  and  C_8 
REMARK    4  A    between atoms: C_3  and  C_4 
REMARK    5  A    between atoms: C_4  and  C_5 
REMARK    6  A    between atoms: C_8  and  C_9 
REMARK    7  A    between atoms: C_11  and  O_16 
REMARK    8  A    between atoms: C_12  and  O_15 
ROOT
HETATM    1  O   UNL     1      14.932   6.410   9.813  1.00  0.00    -0.395 OA
HETATM    2  H   UNL     1      15.260   7.137  10.364  1.00  0.00     0.210 HD
ENDROOT
BRANCH   1   3
HETATM    3  C   UNL     1      14.834   5.224  10.601  1.00  0.00     0.122 C 
BRANCH   3   4
HETATM    4  C   UNL     1      13.360   4.808  10.733  1.00  0.00     0.042 C 
BRANCH   4   5
HETATM    5  C   UNL     1      12.978   3.630   9.834  1.00  0.00     0.116 C 
BRANCH   5   6
HETATM    6  C   UNL     1      13.351   3.765   8.380  1.00  0.00     0.172 C 
HETATM    7  O   UNL     1      13.929   2.917   7.719  1.00  0.00    -0.648 OA
HETATM    8  O   UNL     1      12.909   4.891   7.789  1.00  0.00    -0.648 OA
ENDBRANCH   5   6
ENDBRANCH   4   5
ENDBRANCH   3   4
BRANCH   3   9
HETATM    9  C   UNL     1      15.457   5.464  11.987  1.00  0.00     0.070 C 
BRANCH   9  10
HETATM   10  C   UNL     1      14.428   5.826  13.036  1.00  0.00    -0.053 A 
HETATM   11  C   UNL     1      14.056   7.164  13.235  1.00  0.00     0.046 A 
HETATM   12  C   UNL     1      13.125   7.480  14.214  1.00  0.00     0.099 A 
HETATM   13  C   UNL     1      12.533   6.481  14.980  1.00  0.00     0.098 A 
HETATM   14  C   UNL     1      12.902   5.155  14.812  1.00  0.00     0.040 A 
HETATM   15  C   UNL     1      13.853   4.827  13.841  1.00  0.00     0.010 A 
BRANCH  12  16
HETATM   16  O   UNL     1      12.818   8.791  14.440  1.00  0.00    -0.358 OA
HETATM   17  H   UNL     1      12.505   9.327  13.738  1.00  0.00     0.217 HD
ENDBRANCH  12  16
BRANCH  13  18
HETATM   18  O   UNL     1      11.561   6.787  15.888  1.00  0.00    -0.358 OA
HETATM   19  H   UNL     1      11.574   7.615  16.327  1.00  0.00     0.217 HD
ENDBRANCH  13  18
ENDBRANCH   9  10
ENDBRANCH   3   9
ENDBRANCH   1   3
TORSDOF 8
ENDMDL
MODEL 6
REMARK VINA RESULT:      -6.4      3.008      5.235
REMARK  8 active torsions:
REMARK  status: ('A' for Active; 'I' for Inactive)
REMARK    1  A    between atoms: O_1  and  C_2 
REMARK    2  A    between atoms: C_2  and  C_3 
REMARK    3  A    between atoms: C_2  and  C_8 
REMARK    4  A    between atoms: C_3  and  C_4 
REMARK    5  A    between atoms: C_4  and  C_5 
REMARK    6  A    between atoms: C_8  and  C_9 
REMARK    7  A    between atoms: C_11  and  O_16 
REMARK    8  A    between atoms: C_12  and  O_15 
ROOT
HETATM    1  O   UNL     1      13.463   7.515  12.683  1.00  0.00    -0.395 OA
HETATM    2  H   UNL     1      14.057   8.256  12.484  1.00  0.00     0.210 HD
ENDROOT
BRANCH   1   3
HETATM    3  C   UNL     1      13.901   6.352  11.981  1.00  0.00     0.122 C 
BRANCH   3   4
HETATM    4  C   UNL     1      12.686   5.499  11.581  1.00  0.00     0.042 C 
BRANCH   4   5
HETATM    5  C   UNL     1      13.066   4.203  10.861  1.00  0.00     0.116 C 
BRANCH   5   6
HETATM    6  C   UNL     1      13.469   4.349   9.416  1.00  0.00     0.172 C 
HETATM    7  O   UNL     1      14.574   4.097   8.964  1.00  0.00    -0.648 OA
HETATM    8  O   UNL     1      12.468   4.700   8.586  1.00  0.00    -0.648 OA
ENDBRANCH   5   6
ENDBRANCH   4   5
ENDBRANCH   3   4
BRANCH   3   9
HETATM    9  C   UNL     1      14.866   5.542  12.864  1.00  0.00     0.070 C 
BRANCH   9  10
HETATM   10  C   UNL     1      16.307   5.664  12.420  1.00  0.00    -0.053 A 
HETATM   11  C   UNL     1      16.622   5.816  11.061  1.00  0.00     0.046 A 
HETATM   12  C   UNL     1      17.950   5.908  10.669  1.00  0.00     0.099 A 
HETATM   13  C   UNL     1      18.972   5.881  11.612  1.00  0.00     0.098 A 
HETATM   14  C   UNL     1      18.683   5.713  12.958  1.00  0.00     0.040 A 
HETATM   15  C   UNL     1      17.349   5.601  13.362  1.00  0.00     0.010 A 
BRANCH  12  16
HETATM   16  O   UNL     1      18.245   5.992   9.339  1.00  0.00    -0.358 OA
HETATM   17  H   UNL     1      17.572   6.201   8.722  1.00  0.00     0.217 HD
ENDBRANCH  12  16
BRANCH  13  18
HETATM   18  O   UNL     1      20.272   6.050  11.231  1.00  0.00    -0.358 OA
HETATM   19  H   UNL     1      20.964   5.898  11.844  1.00  0.00     0.217 HD
ENDBRANCH  13  18
ENDBRANCH   9  10
ENDBRANCH   3   9
ENDBRANCH   1   3
TORSDOF 8
ENDMDL
MODEL 7
REMARK VINA RESULT:      -6.3      2.061      3.331
REMARK  8 active torsions:
REMARK  status: ('A' for Active; 'I' for Inactive)
REMARK    1  A    between atoms: O_1  and  C_2 
REMARK    2  A    between atoms: C_2  and  C_3 
REMARK    3  A    between atoms: C_2  and  C_8 
REMARK    4  A    between atoms: C_3  and  C_4 
REMARK    5  A    between atoms: C_4  and  C_5 
REMARK    6  A    between atoms: C_8  and  C_9 
REMARK    7  A    between atoms: C_11  and  O_16 
REMARK    8  A    between atoms: C_12  and  O_15 
ROOT
HETATM    1  O   UNL     1      15.073   6.705   9.767  1.00  0.00    -0.395 OA
HETATM    2  H   UNL     1      15.459   7.591   9.685  1.00  0.00     0.210 HD
ENDROOT
BRANCH   1   3
HETATM    3  C   UNL     1      14.892   6.391  11.147  1.00  0.00     0.122 C 
BRANCH   3   4
HETATM    4  C   UNL     1      15.954   5.372  11.591  1.00  0.00     0.042 C 
BRANCH   4   5
HETATM    5  C   UNL     1      17.187   6.018  12.226  1.00  0.00     0.116 C 
BRANCH   5   6
HETATM    6  C   UNL     1      18.455   5.949  11.414  1.00  0.00     0.172 C 
HETATM    7  O   UNL     1      19.524   5.515  11.812  1.00  0.00    -0.648 OA
HETATM    8  O   UNL     1      18.320   6.325  10.128  1.00  0.00    -0.648 OA
ENDBRANCH   5   6
ENDBRANCH   4   5
ENDBRANCH   3   4
BRANCH   3   9
HETATM    9  C   UNL     1      13.476   5.834  11.374  1.00  0.00     0.070 C 
BRANCH   9  10
HETATM   10  C   UNL     1      12.908   6.210  12.725  1.00  0.00    -0.053 A 
HETATM   11  C   UNL     1      13.300   5.515  13.879  1.00  0.00     0.046 A 
HETATM   12  C   UNL     1      12.756   5.861  15.108  1.00  0.00     0.099 A 
HETATM   13  C   UNL     1      11.848   6.910  15.213  1.00  0.00     0.098 A 
HETATM   14  C   UNL     1      11.434   7.596  14.081  1.00  0.00     0.040 A 
HETATM   15  C   UNL     1      11.962   7.244  12.836  1.00  0.00     0.010 A 
BRANCH  12  16
HETATM   16  O   UNL     1      13.098   5.136  16.213  1.00  0.00    -0.358 OA
HETATM   17  H   UNL     1      12.430   4.738  16.737  1.00  0.00     0.217 HD
ENDBRANCH  12  16
BRANCH  13  18
HETATM   18  O   UNL     1      11.375   7.298  16.432  1.00  0.00    -0.358 OA
HETATM   19  H   UNL     1      11.910   7.202  17.195  1.00  0.00     0.217 HD
ENDBRANCH  13  18
ENDBRANCH   9  10
ENDBRANCH   3   9
ENDBRANCH   1   3
TORSDOF 8
ENDMDL
MODEL 8
REMARK VINA RESULT:      -6.2      2.336      5.288
REMARK  8 active torsions:
REMARK  status: ('A' for Active; 'I' for Inactive)
REMARK    1  A    between atoms: O_1  and  C_2 
REMARK    2  A    between atoms: C_2  and  C_3 
REMARK    3  A    between atoms: C_2  and  C_8 
REMARK    4  A    between atoms: C_3  and  C_4 
REMARK    5  A    between atoms: C_4  and  C_5 
REMARK    6  A    between atoms: C_8  and  C_9 
REMARK    7  A    between atoms: C_11  and  O_16 
REMARK    8  A    between atoms: C_12  and  O_15 
ROOT
HETATM    1  O   UNL     1      16.607   7.262  15.336  1.00  0.00    -0.395 OA
HETATM    2  H   UNL     1      16.407   8.088  15.805  1.00  0.00     0.210 HD
ENDROOT
BRANCH   1   3
HETATM    3  C   UNL     1      15.549   6.965  14.425  1.00  0.00     0.122 C 
BRANCH   3   4
HETATM    4  C   UNL     1      14.236   7.581  14.935  1.00  0.00     0.042 C 
BRANCH   4   5
HETATM    5  C   UNL     1      13.422   8.269  13.836  1.00  0.00     0.116 C 
BRANCH   5   6
HETATM    6  C   UNL     1      11.983   7.838  13.718  1.00  0.00     0.172 C 
HETATM    7  O   UNL     1      11.146   7.924  14.603  1.00  0.00    -0.648 OA
HETATM    8  O   UNL     1      11.621   7.417  12.491  1.00  0.00    -0.648 OA
ENDBRANCH   5   6
ENDBRANCH   4   5
ENDBRANCH   3   4
BRANCH   3   9
HETATM    9  C   UNL     1      15.409   5.441  14.267  1.00  0.00     0.070 C 
BRANCH   9  10
HETATM   10  C   UNL     1      14.529   5.052  13.099  1.00  0.00    -0.053 A 
HETATM   11  C   UNL     1      13.304   4.404  13.317  1.00  0.00     0.046 A 
HETATM   12  C   UNL     1      12.518   4.039  12.233  1.00  0.00     0.099 A 
HETATM   13  C   UNL     1      12.918   4.333  10.934  1.00  0.00     0.098 A 
HETATM   14  C   UNL     1      14.135   4.955  10.697  1.00  0.00     0.040 A 
HETATM   15  C   UNL     1      14.943   5.313  11.781  1.00  0.00     0.010 A 
BRANCH  12  16
HETATM   16  O   UNL     1      11.358   3.353  12.456  1.00  0.00    -0.358 OA
HETATM   17  H   UNL     1      11.384   2.429  12.615  1.00  0.00     0.217 HD
ENDBRANCH  12  16
BRANCH  13  18
HETATM   18  O   UNL     1      12.107   4.042   9.876  1.00  0.00    -0.358 OA
HETATM   19  H   UNL     1      11.222   3.771  10.024  1.00  0.00     0.217 HD
ENDBRANCH  13  18
ENDBRANCH   9  10
ENDBRANCH   3   9
ENDBRANCH   1   3
TORSDOF 8
ENDMDL
MODEL 9
REMARK VINA RESULT:      -6.1      2.541      5.999
REMARK  8 active torsions:
REMARK  status: ('A' for Active; 'I' for Inactive)
REMARK    1  A    between atoms: O_1  and  C_2 
REMARK    2  A    between atoms: C_2  and  C_3 
REMARK    3  A    between atoms: C_2  and  C_8 
REMARK    4  A    between atoms: C_3  and  C_4 
REMARK    5  A    between atoms: C_4  and  C_5 
REMARK    6  A    between atoms: C_8  and  C_9 
REMARK    7  A    between atoms: C_11  and  O_16 
REMARK    8  A    between atoms: C_12  and  O_15 
ROOT
HETATM    1  O   UNL     1      11.785   5.341  14.811  1.00  0.00    -0.395 OA
HETATM    2  H   UNL     1      11.554   4.415  14.636  1.00  0.00     0.210 HD
ENDROOT
BRANCH   1   3
HETATM    3  C   UNL     1      12.683   5.806  13.805  1.00  0.00     0.122 C 
BRANCH   3   4
HETATM    4  C   UNL     1      11.942   6.751  12.844  1.00  0.00     0.042 C 
BRANCH   4   5
HETATM    5  C   UNL     1      12.498   8.177  12.847  1.00  0.00     0.116 C 
BRANCH   5   6
HETATM    6  C   UNL     1      11.973   9.084  13.929  1.00  0.00     0.172 C 
HETATM    7  O   UNL     1      11.987  10.304  13.895  1.00  0.00    -0.648 OA
HETATM    8  O   UNL     1      11.369   8.449  14.952  1.00  0.00    -0.648 OA
ENDBRANCH   5   6
ENDBRANCH   4   5
ENDBRANCH   3   4
BRANCH   3   9
HETATM    9  C   UNL     1      13.275   4.609  13.040  1.00  0.00     0.070 C 
BRANCH   9  10
HETATM   10  C   UNL     1      14.472   4.987  12.196  1.00  0.00    -0.053 A 
HETATM   11  C   UNL     1      15.664   5.410  12.803  1.00  0.00     0.046 A 
HETATM   12  C   UNL     1      16.747   5.770  12.014  1.00  0.00     0.099 A 
HETATM   13  C   UNL     1      16.673   5.689  10.628  1.00  0.00     0.098 A 
HETATM   14  C   UNL     1      15.498   5.293  10.008  1.00  0.00     0.040 A 
HETATM   15  C   UNL     1      14.395   4.944  10.793  1.00  0.00     0.010 A 
BRANCH  12  16
HETATM   16  O   UNL     1      17.880   6.239  12.615  1.00  0.00    -0.358 OA
HETATM   17  H   UNL     1      18.330   5.710  13.244  1.00  0.00     0.217 HD
ENDBRANCH  12  16
BRANCH  13  18
HETATM   18  O   UNL     1      17.765   5.970   9.857  1.00  0.00    -0.358 OA
HETATM   19  H   UNL     1      17.949   5.453   9.099  1.00  0.00     0.217 HD
ENDBRANCH  13  18
ENDBRANCH   9  10
ENDBRANCH   3   9
ENDBRANCH   1   3
TORSDOF 8
ENDMDL
