MODEL 1
REMARK VINA RESULT:      -6.4      0.000      0.000
REMARK  8 active torsions:
REMARK  status: ('A' for Active; 'I' for Inactive)
REMARK    1  A    between atoms: O_1  and  C_2 
REMARK    2  A    between atoms: C_2  and  C_3 
REMARK    3  A    between atoms: C_2  and  C_8 
REMARK    4  A    between atoms: C_3  and  C_4 
REMARK    5  A    between atoms: C_4  and  C_5 
REMARK    6  A    between atoms: C_8  and  C_9 
REMARK    7  A    between atoms: C_11  and  O_16 
REMARK    8  A    between atoms: C_12  and  O_15 
ROOT
HETATM    1  O   UNL     1      14.927   6.906   8.737  1.00  0.00    -0.395 OA
HETATM    2  H   UNL     1      15.115   6.013   9.067  1.00  0.00     0.210 HD
ENDROOT
BRANCH   1   3
HETATM    3  C   UNL     1      13.526   7.160   8.829  1.00  0.00     0.122 C 
BRANCH   3   4
HETATM    4  C   UNL     1      12.888   7.062   7.433  1.00  0.00     0.042 C 
BRANCH   4   5
HETATM    5  C   UNL     1      11.381   6.800   7.472  1.00  0.00     0.116 C 
BRANCH   5   6
HETATM    6  C   UNL     1      10.836   5.929   6.369  1.00  0.00     0.172 C 
HETATM    7  O   UNL     1      11.125   6.026   5.188  1.00  0.00    -0.648 OA
HETATM    8  O   UNL     1      10.043   4.924   6.787  1.00  0.00    -0.648 OA
ENDBRANCH   5   6
ENDBRANCH   4   5
ENDBRANCH   3   4
BRANCH   3   9
HETATM    9  C   UNL     1      13.287   8.553   9.437  1.00  0.00     0.070 C 
BRANCH   9  10
HETATM   10  C   UNL     1      12.463   8.505  10.705  1.00  0.00    -0.053 A 
HETATM   11  C   UNL     1      11.906   7.294  11.145  1.00  0.00     0.046 A 
HETATM   12  C   UNL     1      11.138   7.271  12.300  1.00  0.00     0.099 A 
HETATM   13  C   UNL     1      10.939   8.429  13.044  1.00  0.00     0.098 A 
HETATM   14  C   UNL     1      11.465   9.639  12.616  1.00  0.00     0.040 A 
HETATM   15  C   UNL     1      12.226   9.677  11.444  1.00  0.00     0.010 A 
BRANCH  12  16
HETATM   16  O   UNL     1      10.549   6.100  12.682  1.00  0.00    -0.358 OA
HETATM   17  H   UNL     1      10.230   5.503  12.034  1.00  0.00     0.217 HD
ENDBRANCH  12  16
BRANCH  13  18
HETATM   18  O   UNL     1      10.248   8.388  14.221  1.00  0.00    -0.358 OA
HETATM   19  H   UNL     1       9.435   7.925  14.271  1.00  0.00     0.217 HD
ENDBRANCH  13  18
ENDBRANCH   9  10
ENDBRANCH   3   9
ENDBRANCH   1   3
TORSDOF 8
ENDMDL
MODEL 2
REMARK VINA RESULT:      -6.4      1.101      1.254
REMARK  8 active torsions:
REMARK  status: ('A' for Active; 'I' for Inactive)
REMARK    1  A    between atoms: O_1  and  C_2 
REMARK    2  A    between atoms: C_2  and  C_3 
REMARK    3  A    between atoms: C_2  and  C_8 
REMARK    4  A    between atoms: C_3  and  C_4 
REMARK    5  A    between atoms: C_4  and  C_5 
REMARK    6  A    between atoms: C_8  and  C_9 
REMARK    7  A    between atoms: C_11  and  O_16 
REMARK    8  A    between atoms: C_12  and  O_15 
ROOT
HETATM    1  O   UNL     1      13.428   7.609   7.317  1.00  0.00    -0.395 OA
HETATM    2  H   UNL     1      13.218   6.855   6.743  1.00  0.00     0.210 HD
ENDROOT
BRANCH   1   3
HETATM    3  C   UNL     1      12.791   7.435   8.582  1.00  0.00     0.122 C 
BRANCH   3   4
HETATM    4  C   UNL     1      11.270   7.325   8.386  1.00  0.00     0.042 C 
BRANCH   4   5
HETATM    5  C   UNL     1      10.860   6.194   7.439  1.00  0.00     0.116 C 
BRANCH   5   6
HETATM    6  C   UNL     1      10.624   6.592   6.005  1.00  0.00     0.172 C 
HETATM    7  O   UNL     1      10.196   7.673   5.634  1.00  0.00    -0.648 OA
HETATM    8  O   UNL     1      11.019   5.679   5.097  1.00  0.00    -0.648 OA
ENDBRANCH   5   6
ENDBRANCH   4   5
ENDBRANCH   3   4
BRANCH   3   9
HETATM    9  C   UNL     1      13.135   8.616   9.506  1.00  0.00     0.070 C 
BRANCH   9  10
HETATM   10  C   UNL     1      12.415   8.549  10.835  1.00  0.00    -0.053 A 
HETATM   11  C   UNL     1      12.624   7.466  11.703  1.00  0.00     0.046 A 
HETATM   12  C   UNL     1      11.942   7.411  12.910  1.00  0.00     0.099 A 
HETATM   13  C   UNL     1      11.074   8.433  13.282  1.00  0.00     0.098 A 
HETATM   14  C   UNL     1      10.839   9.501  12.429  1.00  0.00     0.040 A 
HETATM   15  C   UNL     1      11.507   9.558  11.203  1.00  0.00     0.010 A 
BRANCH  12  16
HETATM   16  O   UNL     1      12.106   6.322  13.717  1.00  0.00    -0.358 OA
HETATM   17  H   UNL     1      12.828   5.741  13.578  1.00  0.00     0.217 HD
ENDBRANCH  12  16
BRANCH  13  18
HETATM   18  O   UNL     1      10.464   8.414  14.503  1.00  0.00    -0.358 OA
HETATM   19  H   UNL     1      10.897   8.780  15.249  1.00  0.00     0.217 HD
ENDBRANCH  13  18
ENDBRANCH   9  10
ENDBRANCH   3   9
ENDBRANCH   1   3
TORSDOF 8
ENDMDL
MODEL 3
REMARK VINA RESULT:      -6.3      2.309      5.785
REMARK  8 active torsions:
REMARK  status: ('A' for Active; 'I' for Inactive)
REMARK    1  A    between atoms: O_1  and  C_2 
REMARK    2  A    between atoms: C_2  and  C_3 
REMARK    3  A    between atoms: C_2  and  C_8 
REMARK    4  A    between atoms: C_3  and  C_4 
REMARK    5  A    between atoms: C_4  and  C_5 
REMARK    6  A    between atoms: C_8  and  C_9 
REMARK    7  A    between atoms: C_11  and  O_16 
REMARK    8  A    between atoms: C_12  and  O_15 
ROOT
HETATM    1  O   UNL     1       9.303   6.362   9.604  1.00  0.00    -0.395 OA
HETATM    2  H   UNL     1       8.719   6.647  10.324  1.00  0.00     0.210 HD
ENDROOT
BRANCH   1   3
HETATM    3  C   UNL     1      10.550   7.050   9.703  1.00  0.00     0.122 C 
BRANCH   3   4
HETATM    4  C   UNL     1      10.302   8.530  10.037  1.00  0.00     0.042 C 
BRANCH   4   5
HETATM    5  C   UNL     1      10.516   8.863  11.515  1.00  0.00     0.116 C 
BRANCH   5   6
HETATM    6  C   UNL     1      11.665   9.788  11.821  1.00  0.00     0.172 C 
HETATM    7  O   UNL     1      12.820   9.618  11.465  1.00  0.00    -0.648 OA
HETATM    8  O   UNL     1      11.319  10.921  12.461  1.00  0.00    -0.648 OA
ENDBRANCH   5   6
ENDBRANCH   4   5
ENDBRANCH   3   4
BRANCH   3   9
HETATM    9  C   UNL     1      11.328   6.913   8.383  1.00  0.00     0.070 C 
BRANCH   9  10
HETATM   10  C   UNL     1      12.827   6.946   8.580  1.00  0.00    -0.053 A 
HETATM   11  C   UNL     1      13.682   7.207   7.498  1.00  0.00     0.046 A 
HETATM   12  C   UNL     1      15.055   7.216   7.694  1.00  0.00     0.099 A 
HETATM   13  C   UNL     1      15.594   6.998   8.958  1.00  0.00     0.098 A 
HETATM   14  C   UNL     1      14.768   6.720  10.036  1.00  0.00     0.040 A 
HETATM   15  C   UNL     1      13.383   6.691   9.847  1.00  0.00     0.010 A 
BRANCH  12  16
HETATM   16  O   UNL     1      15.878   7.407   6.621  1.00  0.00    -0.358 OA
HETATM   17  H   UNL     1      15.572   7.888   5.877  1.00  0.00     0.217 HD
ENDBRANCH  12  16
BRANCH  13  18
HETATM   18  O   UNL     1      16.941   7.085   9.162  1.00  0.00    -0.358 OA
HETATM   19  H   UNL     1      17.324   6.709   9.930  1.00  0.00     0.217 HD
ENDBRANCH  13  18
ENDBRANCH   9  10
ENDBRANCH   3   9
ENDBRANCH   1   3
TORSDOF 8
ENDMDL
MODEL 4
REMARK VINA RESULT:      -6.2      1.366      2.182
REMARK  8 active torsions:
REMARK  status: ('A' for Active; 'I' for Inactive)
REMARK    1  A    between atoms: O_1  and  C_2 
REMARK    2  A    between atoms: C_2  and  C_3 
REMARK    3  A    between atoms: C_2  and  C_8 
REMARK    4  A    between atoms: C_3  and  C_4 
REMARK    5  A    between atoms: C_4  and  C_5 
REMARK    6  A    between atoms: C_8  and  C_9 
REMARK    7  A    between atoms: C_11  and  O_16 
REMARK    8  A    between atoms: C_12  and  O_15 
ROOT
HETATM    1  O   UNL     1      12.993   8.281   7.375  1.00  0.00    -0.395 OA
HETATM    2  H   UNL     1      12.542   8.295   6.516  1.00  0.00     0.210 HD
ENDROOT
BRANCH   1   3
HETATM    3  C   UNL     1      12.768   7.023   8.010  1.00  0.00     0.122 C 
BRANCH   3   4
HETATM    4  C   UNL     1      11.283   6.887   8.382  1.00  0.00     0.042 C 
BRANCH   4   5
HETATM    5  C   UNL     1      10.482   6.046   7.385  1.00  0.00     0.116 C 
BRANCH   5   6
HETATM    6  C   UNL     1      10.667   6.398   5.931  1.00  0.00     0.172 C 
HETATM    7  O   UNL     1      10.970   5.612   5.048  1.00  0.00    -0.648 OA
HETATM    8  O   UNL     1      10.373   7.675   5.621  1.00  0.00    -0.648 OA
ENDBRANCH   5   6
ENDBRANCH   4   5
ENDBRANCH   3   4
BRANCH   3   9
HETATM    9  C   UNL     1      13.654   6.905   9.263  1.00  0.00     0.070 C 
BRANCH   9  10
HETATM   10  C   UNL     1      12.919   7.262  10.536  1.00  0.00    -0.053 A 
HETATM   11  C   UNL     1      12.883   8.590  10.987  1.00  0.00     0.046 A 
HETATM   12  C   UNL     1      12.219   8.897  12.166  1.00  0.00     0.099 A 
HETATM   13  C   UNL     1      11.564   7.908  12.891  1.00  0.00     0.098 A 
HETATM   14  C   UNL     1      11.605   6.586  12.472  1.00  0.00     0.040 A 
HETATM   15  C   UNL     1      12.285   6.262  11.295  1.00  0.00     0.010 A 
BRANCH  12  16
HETATM   16  O   UNL     1      12.245  10.183  12.627  1.00  0.00    -0.358 OA
HETATM   17  H   UNL     1      13.060  10.639  12.696  1.00  0.00     0.217 HD
ENDBRANCH  12  16
BRANCH  13  18
HETATM   18  O   UNL     1      10.847   8.226  14.008  1.00  0.00    -0.358 OA
HETATM   19  H   UNL     1      11.186   8.019  14.857  1.00  0.00     0.217 HD
ENDBRANCH  13  18
ENDBRANCH   9  10
ENDBRANCH   3   9
ENDBRANCH   1   3
TORSDOF 8
ENDMDL
MODEL 5
REMARK VINA RESULT:      -6.1      2.540      5.168
REMARK  8 active torsions:
REMARK  status: ('A' for Active; 'I' for Inactive)
REMARK    1  A    between atoms: O_1  and  C_2 
REMARK    2  A    between atoms: C_2  and  C_3 
REMARK    3  A    between atoms: C_2  and  C_8 
REMARK    4  A    between atoms: C_3  and  C_4 
REMARK    5  A    between atoms: C_4  and  C_5 
REMARK    6  A    between atoms: C_8  and  C_9 
REMARK    7  A    between atoms: C_11  and  O_16 
REMARK    8  A    between atoms: C_12  and  O_15 
ROOT
HETATM    1  O   UNL     1      12.174   9.069  10.506  1.00  0.00    -0.395 OA
HETATM    2  H   UNL     1      12.655   9.813  10.111  1.00  0.00     0.210 HD
ENDROOT
BRANCH   1   3
HETATM    3  C   UNL     1      12.229   7.946   9.627  1.00  0.00     0.122 C 
BRANCH   3   4
HETATM    4  C   UNL     1      10.817   7.373   9.427  1.00  0.00     0.042 C 
BRANCH   4   5
HETATM    5  C   UNL     1      10.754   6.268   8.370  1.00  0.00     0.116 C 
BRANCH   5   6
HETATM    6  C   UNL     1      11.028   6.699   6.952  1.00  0.00     0.172 C 
HETATM    7  O   UNL     1      12.027   6.418   6.311  1.00  0.00    -0.648 OA
HETATM    8  O   UNL     1      10.018   7.367   6.363  1.00  0.00    -0.648 OA
ENDBRANCH   5   6
ENDBRANCH   4   5
ENDBRANCH   3   4
BRANCH   3   9
HETATM    9  C   UNL     1      13.173   6.876  10.204  1.00  0.00     0.070 C 
BRANCH   9  10
HETATM   10  C   UNL     1      14.527   6.866   9.531  1.00  0.00    -0.053 A 
HETATM   11  C   UNL     1      14.653   7.225   8.180  1.00  0.00     0.046 A 
HETATM   12  C   UNL     1      15.900   7.192   7.573  1.00  0.00     0.099 A 
HETATM   13  C   UNL     1      17.033   6.835   8.297  1.00  0.00     0.098 A 
HETATM   14  C   UNL     1      16.927   6.458   9.627  1.00  0.00     0.040 A 
HETATM   15  C   UNL     1      15.673   6.470  10.245  1.00  0.00     0.010 A 
BRANCH  12  16
HETATM   16  O   UNL     1      15.999   7.483   6.243  1.00  0.00    -0.358 OA
HETATM   17  H   UNL     1      16.842   7.553   5.840  1.00  0.00     0.217 HD
ENDBRANCH  12  16
BRANCH  13  18
HETATM   18  O   UNL     1      18.268   6.879   7.718  1.00  0.00    -0.358 OA
HETATM   19  H   UNL     1      19.033   6.968   8.252  1.00  0.00     0.217 HD
ENDBRANCH  13  18
ENDBRANCH   9  10
ENDBRANCH   3   9
ENDBRANCH   1   3
TORSDOF 8
ENDMDL
MODEL 6
REMARK VINA RESULT:      -6.1      2.075      3.296
REMARK  8 active torsions:
REMARK  status: ('A' for Active; 'I' for Inactive)
REMARK    1  A    between atoms: O_1  and  C_2 
REMARK    2  A    between atoms: C_2  and  C_3 
REMARK    3  A    between atoms: C_2  and  C_8 
REMARK    4  A    between atoms: C_3  and  C_4 
REMARK    5  A    between atoms: C_4  and  C_5 
REMARK    6  A    between atoms: C_8  and  C_9 
REMARK    7  A    between atoms: C_11  and  O_16 
REMARK    8  A    between atoms: C_12  and  O_15 
ROOT
HETATM    1  O   UNL     1      13.008   8.601   7.251  1.00  0.00    -0.395 OA
HETATM    2  H   UNL     1      12.555   7.992   6.647  1.00  0.00     0.210 HD
ENDROOT
BRANCH   1   3
HETATM    3  C   UNL     1      13.006   8.052   8.568  1.00  0.00     0.122 C 
BRANCH   3   4
HETATM    4  C   UNL     1      13.929   6.824   8.621  1.00  0.00     0.042 C 
BRANCH   4   5
HETATM    5  C   UNL     1      15.342   7.147   9.114  1.00  0.00     0.116 C 
BRANCH   5   6
HETATM    6  C   UNL     1      16.423   7.135   8.063  1.00  0.00     0.172 C 
HETATM    7  O   UNL     1      17.557   6.715   8.224  1.00  0.00    -0.648 OA
HETATM    8  O   UNL     1      16.026   7.549   6.844  1.00  0.00    -0.648 OA
ENDBRANCH   5   6
ENDBRANCH   4   5
ENDBRANCH   3   4
BRANCH   3   9
HETATM    9  C   UNL     1      11.572   7.671   8.973  1.00  0.00     0.070 C 
BRANCH   9  10
HETATM   10  C   UNL     1      11.306   7.872  10.449  1.00  0.00    -0.053 A 
HETATM   11  C   UNL     1      11.693   6.897  11.380  1.00  0.00     0.046 A 
HETATM   12  C   UNL     1      11.425   7.090  12.728  1.00  0.00     0.099 A 
HETATM   13  C   UNL     1      10.804   8.254  13.170  1.00  0.00     0.098 A 
HETATM   14  C   UNL     1      10.397   9.220  12.263  1.00  0.00     0.040 A 
HETATM   15  C   UNL     1      10.645   9.028  10.900  1.00  0.00     0.010 A 
BRANCH  12  16
HETATM   16  O   UNL     1      11.750   6.105  13.617  1.00  0.00    -0.358 OA
HETATM   17  H   UNL     1      12.375   6.273  14.295  1.00  0.00     0.217 HD
ENDBRANCH  12  16
BRANCH  13  18
HETATM   18  O   UNL     1      10.613   8.475  14.503  1.00  0.00    -0.358 OA
HETATM   19  H   UNL     1      10.469   9.346  14.817  1.00  0.00     0.217 HD
ENDBRANCH  13  18
ENDBRANCH   9  10
ENDBRANCH   3   9
ENDBRANCH   1   3
TORSDOF 8
ENDMDL
MODEL 7
REMARK VINA RESULT:      -6.1      1.942      6.060
REMARK  8 active torsions:
REMARK  status: ('A' for Active; 'I' for Inactive)
REMARK    1  A    between atoms: O_1  and  C_2 
REMARK    2  A    between atoms: C_2  and  C_3 
REMARK    3  A    between atoms: C_2  and  C_8 
REMARK    4  A    between atoms: C_3  and  C_4 
REMARK    5  A    between atoms: C_4  and  C_5 
REMARK    6  A    between atoms: C_8  and  C_9 
REMARK    7  A    between atoms: C_11  and  O_16 
REMARK    8  A    between atoms: C_12  and  O_15 
ROOT
HETATM    1  O   UNL     1      10.391   7.457  12.717  1.00  0.00    -0.395 OA
HETATM    2  H   UNL     1      10.368   6.541  13.038  1.00  0.00     0.210 HD
ENDROOT
BRANCH   1   3
HETATM    3  C   UNL     1      11.664   7.723  12.130  1.00  0.00     0.122 C 
BRANCH   3   4
HETATM    4  C   UNL     1      11.547   8.899  11.146  1.00  0.00     0.042 C 
BRANCH   4   5
HETATM    5  C   UNL     1      10.713  10.062  11.689  1.00  0.00     0.116 C 
BRANCH   5   6
HETATM    6  C   UNL     1      11.493  11.245  12.204  1.00  0.00     0.172 C 
HETATM    7  O   UNL     1      12.552  11.182  12.807  1.00  0.00    -0.648 OA
HETATM    8  O   UNL     1      10.983  12.444  11.866  1.00  0.00    -0.648 OA
ENDBRANCH   5   6
ENDBRANCH   4   5
ENDBRANCH   3   4
BRANCH   3   9
HETATM    9  C   UNL     1      12.181   6.464  11.411  1.00  0.00     0.070 C 
BRANCH   9  10
HETATM   10  C   UNL     1      11.968   6.515   9.915  1.00  0.00    -0.053 A 
HETATM   11  C   UNL     1      13.035   6.815   9.054  1.00  0.00     0.046 A 
HETATM   12  C   UNL     1      12.818   6.875   7.685  1.00  0.00     0.099 A 
HETATM   13  C   UNL     1      11.560   6.613   7.153  1.00  0.00     0.098 A 
HETATM   14  C   UNL     1      10.489   6.334   7.988  1.00  0.00     0.040 A 
HETATM   15  C   UNL     1      10.692   6.287   9.370  1.00  0.00     0.010 A 
BRANCH  12  16
HETATM   16  O   UNL     1      13.851   7.230   6.864  1.00  0.00    -0.358 OA
HETATM   17  H   UNL     1      14.009   8.135   6.676  1.00  0.00     0.217 HD
ENDBRANCH  12  16
BRANCH  13  18
HETATM   18  O   UNL     1      11.368   6.597   5.802  1.00  0.00    -0.358 OA
HETATM   19  H   UNL     1      10.583   6.953   5.436  1.00  0.00     0.217 HD
ENDBRANCH  13  18
ENDBRANCH   9  10
ENDBRANCH   3   9
ENDBRANCH   1   3
TORSDOF 8
ENDMDL
MODEL 8
REMARK VINA RESULT:      -6.1      1.930      6.068
REMARK  8 active torsions:
REMARK  status: ('A' for Active; 'I' for Inactive)
REMARK    1  A    between atoms: O_1  and  C_2 
REMARK    2  A    between atoms: C_2  and  C_3 
REMARK    3  A    between atoms: C_2  and  C_8 
REMARK    4  A    between atoms: C_3  and  C_4 
REMARK    5  A    between atoms: C_4  and  C_5 
REMARK    6  A    between atoms: C_8  and  C_9 
REMARK    7  A    between atoms: C_11  and  O_16 
REMARK    8  A    between atoms: C_12  and  O_15 
ROOT
HETATM    1  O   UNL     1      10.182   7.342  13.035  1.00  0.00    -0.395 OA
HETATM    2  H   UNL     1      10.252   6.430  13.357  1.00  0.00     0.210 HD
ENDROOT
BRANCH   1   3
HETATM    3  C   UNL     1      11.150   7.561  12.010  1.00  0.00     0.122 C 
BRANCH   3   4
HETATM    4  C   UNL     1      10.806   8.844  11.236  1.00  0.00     0.042 C 
BRANCH   4   5
HETATM    5  C   UNL     1      10.442  10.021  12.143  1.00  0.00     0.116 C 
BRANCH   5   6
HETATM    6  C   UNL     1      11.501  11.082  12.300  1.00  0.00     0.172 C 
HETATM    7  O   UNL     1      12.674  10.873  12.563  1.00  0.00    -0.648 OA
HETATM    8  O   UNL     1      11.086  12.335  12.030  1.00  0.00    -0.648 OA
ENDBRANCH   5   6
ENDBRANCH   4   5
ENDBRANCH   3   4
BRANCH   3   9
HETATM    9  C   UNL     1      11.192   6.349  11.063  1.00  0.00     0.070 C 
BRANCH   9  10
HETATM   10  C   UNL     1      12.097   6.569   9.871  1.00  0.00    -0.053 A 
HETATM   11  C   UNL     1      11.567   6.610   8.573  1.00  0.00     0.046 A 
HETATM   12  C   UNL     1      12.414   6.794   7.490  1.00  0.00     0.099 A 
HETATM   13  C   UNL     1      13.782   6.967   7.679  1.00  0.00     0.098 A 
HETATM   14  C   UNL     1      14.328   6.909   8.952  1.00  0.00     0.040 A 
HETATM   15  C   UNL     1      13.485   6.707  10.049  1.00  0.00     0.010 A 
BRANCH  12  16
HETATM   16  O   UNL     1      11.893   6.770   6.227  1.00  0.00    -0.358 OA
HETATM   17  H   UNL     1      11.813   5.957   5.770  1.00  0.00     0.217 HD
ENDBRANCH  12  16
BRANCH  13  18
HETATM   18  O   UNL     1      14.601   7.225   6.618  1.00  0.00    -0.358 OA
HETATM   19  H   UNL     1      15.494   7.469   6.765  1.00  0.00     0.217 HD
ENDBRANCH  13  18
ENDBRANCH   9  10
ENDBRANCH   3   9
ENDBRANCH   1   3
TORSDOF 8
ENDMDL
MODEL 9
REMARK VINA RESULT:      -6.1      1.247      1.724
REMARK  8 active torsions:
REMARK  status: ('A' for Active; 'I' for Inactive)
REMARK    1  A    between atoms: O_1  and  C_2 
REMARK    2  A    between atoms: C_2  and  C_3 
REMARK    3  A    between atoms: C_2  and  C_8 
REMARK    4  A    between atoms: C_3  and  C_4 
REMARK    5  A    between atoms: C_4  and  C_5 
REMARK    6  A    between atoms: C_8  and  C_9 
REMARK    7  A    between atoms: C_11  and  O_16 
REMARK    8  A    between atoms: C_12  and  O_15 
ROOT
HETATM    1  O   UNL     1      13.418   7.447   7.238  1.00  0.00    -0.395 OA
HETATM    2  H   UNL     1      13.001   8.157   6.725  1.00  0.00     0.210 HD
ENDROOT
BRANCH   1   3
HETATM    3  C   UNL     1      12.739   7.298   8.484  1.00  0.00     0.122 C 
BRANCH   3   4
HETATM    4  C   UNL     1      11.248   7.016   8.232  1.00  0.00     0.042 C 
BRANCH   4   5
HETATM    5  C   UNL     1      10.878   6.994   6.747  1.00  0.00     0.116 C 
BRANCH   5   6
HETATM    6  C   UNL     1      10.690   5.628   6.138  1.00  0.00     0.172 C 
HETATM    7  O   UNL     1      10.083   4.703   6.654  1.00  0.00    -0.648 OA
HETATM    8  O   UNL     1      11.170   5.501   4.886  1.00  0.00    -0.648 OA
ENDBRANCH   5   6
ENDBRANCH   4   5
ENDBRANCH   3   4
BRANCH   3   9
HETATM    9  C   UNL     1      12.915   8.570   9.331  1.00  0.00     0.070 C 
BRANCH   9  10
HETATM   10  C   UNL     1      12.483   8.381  10.769  1.00  0.00    -0.053 A 
HETATM   11  C   UNL     1      11.188   8.737  11.174  1.00  0.00     0.046 A 
HETATM   12  C   UNL     1      10.813   8.573  12.500  1.00  0.00     0.099 A 
HETATM   13  C   UNL     1      11.699   8.032  13.427  1.00  0.00     0.098 A 
HETATM   14  C   UNL     1      12.989   7.692  13.050  1.00  0.00     0.040 A 
HETATM   15  C   UNL     1      13.383   7.869  11.720  1.00  0.00     0.010 A 
BRANCH  12  16
HETATM   16  O   UNL     1       9.572   8.983  12.895  1.00  0.00    -0.358 OA
HETATM   17  H   UNL     1       9.229   9.799  12.589  1.00  0.00     0.217 HD
ENDBRANCH  12  16
BRANCH  13  18
HETATM   18  O   UNL     1      11.302   7.801  14.712  1.00  0.00    -0.358 OA
HETATM   19  H   UNL     1      10.920   6.977  14.943  1.00  0.00     0.217 HD
ENDBRANCH  13  18
ENDBRANCH   9  10
ENDBRANCH   3   9
ENDBRANCH   1   3
TORSDOF 8
ENDMDL
