MODEL 1
REMARK VINA RESULT:      -6.7      0.000      0.000
REMARK  8 active torsions:
REMARK  status: ('A' for Active; 'I' for Inactive)
REMARK    1  A    between atoms: O_1  and  C_2 
REMARK    2  A    between atoms: C_2  and  C_3 
REMARK    3  A    between atoms: C_2  and  C_8 
REMARK    4  A    between atoms: C_3  and  C_4 
REMARK    5  A    between atoms: C_4  and  C_5 
REMARK    6  A    between atoms: C_8  and  C_9 
REMARK    7  A    between atoms: C_11  and  O_16 
REMARK    8  A    between atoms: C_12  and  O_15 
ROOT
HETATM    1  O   UNL     1      12.955   7.134   7.230  1.00  0.00    -0.395 OA
HETATM    2  H   UNL     1      13.341   8.013   7.087  1.00  0.00     0.210 HD
ENDROOT
BRANCH   1   3
HETATM    3  C   UNL     1      12.348   7.087   8.521  1.00  0.00     0.122 C 
BRANCH   3   4
HETATM    4  C   UNL     1      10.830   6.895   8.373  1.00  0.00     0.042 C 
BRANCH   4   5
HETATM    5  C   UNL     1      10.448   5.879   7.294  1.00  0.00     0.116 C 
BRANCH   5   6
HETATM    6  C   UNL     1      10.689   6.312   5.870  1.00  0.00     0.172 C 
HETATM    7  O   UNL     1      11.101   5.592   4.975  1.00  0.00    -0.648 OA
HETATM    8  O   UNL     1      10.317   7.577   5.597  1.00  0.00    -0.648 OA
ENDBRANCH   5   6
ENDBRANCH   4   5
ENDBRANCH   3   4
BRANCH   3   9
HETATM    9  C   UNL     1      12.659   8.381   9.292  1.00  0.00     0.070 C 
BRANCH   9  10
HETATM   10  C   UNL     1      12.073   8.386  10.687  1.00  0.00    -0.053 A 
HETATM   11  C   UNL     1      12.396   7.369  11.598  1.00  0.00     0.046 A 
HETATM   12  C   UNL     1      11.836   7.379  12.867  1.00  0.00     0.099 A 
HETATM   13  C   UNL     1      10.979   8.404  13.257  1.00  0.00     0.098 A 
HETATM   14  C   UNL     1      10.633   9.408  12.365  1.00  0.00     0.040 A 
HETATM   15  C   UNL     1      11.178   9.398  11.078  1.00  0.00     0.010 A 
BRANCH  12  16
HETATM   16  O   UNL     1      12.108   6.350  13.722  1.00  0.00    -0.358 OA
HETATM   17  H   UNL     1      12.296   5.497  13.382  1.00  0.00     0.217 HD
ENDBRANCH  12  16
BRANCH  13  18
HETATM   18  O   UNL     1      10.492   8.453  14.531  1.00  0.00    -0.358 OA
HETATM   19  H   UNL     1      11.039   8.210  15.252  1.00  0.00     0.217 HD
ENDBRANCH  13  18
ENDBRANCH   9  10
ENDBRANCH   3   9
ENDBRANCH   1   3
TORSDOF 8
ENDMDL
MODEL 2
REMARK VINA RESULT:      -6.7      1.257      1.438
REMARK  8 active torsions:
REMARK  status: ('A' for Active; 'I' for Inactive)
REMARK    1  A    between atoms: O_1  and  C_2 
REMARK    2  A    between atoms: C_2  and  C_3 
REMARK    3  A    between atoms: C_2  and  C_8 
REMARK    4  A    between atoms: C_3  and  C_4 
REMARK    5  A    between atoms: C_4  and  C_5 
REMARK    6  A    between atoms: C_8  and  C_9 
REMARK    7  A    between atoms: C_11  and  O_16 
REMARK    8  A    between atoms: C_12  and  O_15 
ROOT
HETATM    1  O   UNL     1      14.982   6.898   8.904  1.00  0.00    -0.395 OA
HETATM    2  H   UNL     1      15.158   5.959   9.071  1.00  0.00     0.210 HD
ENDROOT
BRANCH   1   3
HETATM    3  C   UNL     1      13.573   7.119   8.868  1.00  0.00     0.122 C 
BRANCH   3   4
HETATM    4  C   UNL     1      13.059   6.968   7.427  1.00  0.00     0.042 C 
BRANCH   4   5
HETATM    5  C   UNL     1      11.533   7.000   7.321  1.00  0.00     0.116 C 
BRANCH   5   6
HETATM    6  C   UNL     1      10.923   6.039   6.333  1.00  0.00     0.172 C 
HETATM    7  O   UNL     1      11.192   5.984   5.144  1.00  0.00    -0.648 OA
HETATM    8  O   UNL     1      10.089   5.131   6.875  1.00  0.00    -0.648 OA
ENDBRANCH   5   6
ENDBRANCH   4   5
ENDBRANCH   3   4
BRANCH   3   9
HETATM    9  C   UNL     1      13.251   8.521   9.415  1.00  0.00     0.070 C 
BRANCH   9  10
HETATM   10  C   UNL     1      12.435   8.479  10.688  1.00  0.00    -0.053 A 
HETATM   11  C   UNL     1      11.863   7.275  11.128  1.00  0.00     0.046 A 
HETATM   12  C   UNL     1      11.103   7.259  12.288  1.00  0.00     0.099 A 
HETATM   13  C   UNL     1      10.925   8.417  13.038  1.00  0.00     0.098 A 
HETATM   14  C   UNL     1      11.466   9.621  12.610  1.00  0.00     0.040 A 
HETATM   15  C   UNL     1      12.219   9.653  11.433  1.00  0.00     0.010 A 
BRANCH  12  16
HETATM   16  O   UNL     1      10.500   6.095  12.670  1.00  0.00    -0.358 OA
HETATM   17  H   UNL     1      10.424   5.385  12.063  1.00  0.00     0.217 HD
ENDBRANCH  12  16
BRANCH  13  18
HETATM   18  O   UNL     1      10.243   8.381  14.219  1.00  0.00    -0.358 OA
HETATM   19  H   UNL     1       9.393   8.771  14.281  1.00  0.00     0.217 HD
ENDBRANCH  13  18
ENDBRANCH   9  10
ENDBRANCH   3   9
ENDBRANCH   1   3
TORSDOF 8
ENDMDL
MODEL 3
REMARK VINA RESULT:      -6.6      2.577      5.847
REMARK  8 active torsions:
REMARK  status: ('A' for Active; 'I' for Inactive)
REMARK    1  A    between atoms: O_1  and  C_2 
REMARK    2  A    between atoms: C_2  and  C_3 
REMARK    3  A    between atoms: C_2  and  C_8 
REMARK    4  A    between atoms: C_3  and  C_4 
REMARK    5  A    between atoms: C_4  and  C_5 
REMARK    6  A    between atoms: C_8  and  C_9 
REMARK    7  A    between atoms: C_11  and  O_16 
REMARK    8  A    between atoms: C_12  and  O_15 
ROOT
HETATM    1  O   UNL     1       9.682   6.001   9.968  1.00  0.00    -0.395 OA
HETATM    2  H   UNL     1       9.279   6.037  10.850  1.00  0.00     0.210 HD
ENDROOT
BRANCH   1   3
HETATM    3  C   UNL     1      10.790   6.899   9.915  1.00  0.00     0.122 C 
BRANCH   3   4
HETATM    4  C   UNL     1      10.303   8.340  10.139  1.00  0.00     0.042 C 
BRANCH   4   5
HETATM    5  C   UNL     1      11.319   9.217  10.874  1.00  0.00     0.116 C 
BRANCH   5   6
HETATM    6  C   UNL     1      10.868   9.775  12.199  1.00  0.00     0.172 C 
HETATM    7  O   UNL     1      10.237   9.162  13.044  1.00  0.00    -0.648 OA
HETATM    8  O   UNL     1      11.301  11.024  12.459  1.00  0.00    -0.648 OA
ENDBRANCH   5   6
ENDBRANCH   4   5
ENDBRANCH   3   4
BRANCH   3   9
HETATM    9  C   UNL     1      11.500   6.771   8.556  1.00  0.00     0.070 C 
BRANCH   9  10
HETATM   10  C   UNL     1      13.005   6.874   8.670  1.00  0.00    -0.053 A 
HETATM   11  C   UNL     1      13.788   7.140   7.536  1.00  0.00     0.046 A 
HETATM   12  C   UNL     1      15.168   7.213   7.656  1.00  0.00     0.099 A 
HETATM   13  C   UNL     1      15.784   7.056   8.894  1.00  0.00     0.098 A 
HETATM   14  C   UNL     1      15.029   6.774  10.022  1.00  0.00     0.040 A 
HETATM   15  C   UNL     1      13.639   6.680   9.911  1.00  0.00     0.010 A 
BRANCH  12  16
HETATM   16  O   UNL     1      15.922   7.409   6.534  1.00  0.00    -0.358 OA
HETATM   17  H   UNL     1      16.412   8.201   6.432  1.00  0.00     0.217 HD
ENDBRANCH  12  16
BRANCH  13  18
HETATM   18  O   UNL     1      17.134   7.207   9.021  1.00  0.00    -0.358 OA
HETATM   19  H   UNL     1      17.571   6.886   9.785  1.00  0.00     0.217 HD
ENDBRANCH  13  18
ENDBRANCH   9  10
ENDBRANCH   3   9
ENDBRANCH   1   3
TORSDOF 8
ENDMDL
MODEL 4
REMARK VINA RESULT:      -6.6      2.631      6.486
REMARK  8 active torsions:
REMARK  status: ('A' for Active; 'I' for Inactive)
REMARK    1  A    between atoms: O_1  and  C_2 
REMARK    2  A    between atoms: C_2  and  C_3 
REMARK    3  A    between atoms: C_2  and  C_8 
REMARK    4  A    between atoms: C_3  and  C_4 
REMARK    5  A    between atoms: C_4  and  C_5 
REMARK    6  A    between atoms: C_8  and  C_9 
REMARK    7  A    between atoms: C_11  and  O_16 
REMARK    8  A    between atoms: C_12  and  O_15 
ROOT
HETATM    1  O   UNL     1      13.027   8.977  12.747  1.00  0.00    -0.395 OA
HETATM    2  H   UNL     1      13.918   8.653  12.541  1.00  0.00     0.210 HD
ENDROOT
BRANCH   1   3
HETATM    3  C   UNL     1      12.313   9.206  11.533  1.00  0.00     0.122 C 
BRANCH   3   4
HETATM    4  C   UNL     1      11.490  10.499  11.650  1.00  0.00     0.042 C 
BRANCH   4   5
HETATM    5  C   UNL     1      11.981  11.432  12.760  1.00  0.00     0.116 C 
BRANCH   5   6
HETATM    6  C   UNL     1      11.992  12.902  12.427  1.00  0.00     0.172 C 
HETATM    7  O   UNL     1      12.903  13.674  12.675  1.00  0.00    -0.648 OA
HETATM    8  O   UNL     1      10.926  13.325  11.720  1.00  0.00    -0.648 OA
ENDBRANCH   5   6
ENDBRANCH   4   5
ENDBRANCH   3   4
BRANCH   3   9
HETATM    9  C   UNL     1      11.398   8.006  11.231  1.00  0.00     0.070 C 
BRANCH   9  10
HETATM   10  C   UNL     1      11.524   7.519   9.804  1.00  0.00    -0.053 A 
HETATM   11  C   UNL     1      12.723   7.692   9.097  1.00  0.00     0.046 A 
HETATM   12  C   UNL     1      12.815   7.255   7.783  1.00  0.00     0.099 A 
HETATM   13  C   UNL     1      11.741   6.620   7.169  1.00  0.00     0.098 A 
HETATM   14  C   UNL     1      10.541   6.456   7.845  1.00  0.00     0.040 A 
HETATM   15  C   UNL     1      10.431   6.908   9.163  1.00  0.00     0.010 A 
BRANCH  12  16
HETATM   16  O   UNL     1      13.966   7.487   7.085  1.00  0.00    -0.358 OA
HETATM   17  H   UNL     1      14.103   7.071   6.257  1.00  0.00     0.217 HD
ENDBRANCH  12  16
BRANCH  13  18
HETATM   18  O   UNL     1      11.861   6.122   5.903  1.00  0.00    -0.358 OA
HETATM   19  H   UNL     1      12.573   5.552   5.690  1.00  0.00     0.217 HD
ENDBRANCH  13  18
ENDBRANCH   9  10
ENDBRANCH   3   9
ENDBRANCH   1   3
TORSDOF 8
ENDMDL
MODEL 5
REMARK VINA RESULT:      -6.5      1.117      1.724
REMARK  8 active torsions:
REMARK  status: ('A' for Active; 'I' for Inactive)
REMARK    1  A    between atoms: O_1  and  C_2 
REMARK    2  A    between atoms: C_2  and  C_3 
REMARK    3  A    between atoms: C_2  and  C_8 
REMARK    4  A    between atoms: C_3  and  C_4 
REMARK    5  A    between atoms: C_4  and  C_5 
REMARK    6  A    between atoms: C_8  and  C_9 
REMARK    7  A    between atoms: C_11  and  O_16 
REMARK    8  A    between atoms: C_12  and  O_15 
ROOT
HETATM    1  O   UNL     1      12.927   8.309   7.402  1.00  0.00    -0.395 OA
HETATM    2  H   UNL     1      13.343   8.913   8.037  1.00  0.00     0.210 HD
ENDROOT
BRANCH   1   3
HETATM    3  C   UNL     1      12.720   7.040   8.020  1.00  0.00     0.122 C 
BRANCH   3   4
HETATM    4  C   UNL     1      11.228   6.858   8.346  1.00  0.00     0.042 C 
BRANCH   4   5
HETATM    5  C   UNL     1      10.488   5.981   7.334  1.00  0.00     0.116 C 
BRANCH   5   6
HETATM    6  C   UNL     1      10.677   6.349   5.884  1.00  0.00     0.172 C 
HETATM    7  O   UNL     1      10.980   5.571   4.994  1.00  0.00    -0.648 OA
HETATM    8  O   UNL     1      10.387   7.630   5.587  1.00  0.00    -0.648 OA
ENDBRANCH   5   6
ENDBRANCH   4   5
ENDBRANCH   3   4
BRANCH   3   9
HETATM    9  C   UNL     1      13.571   6.935   9.297  1.00  0.00     0.070 C 
BRANCH   9  10
HETATM   10  C   UNL     1      12.784   7.239  10.552  1.00  0.00    -0.053 A 
HETATM   11  C   UNL     1      12.702   8.552  11.039  1.00  0.00     0.046 A 
HETATM   12  C   UNL     1      11.991   8.811  12.202  1.00  0.00     0.099 A 
HETATM   13  C   UNL     1      11.333   7.787  12.875  1.00  0.00     0.098 A 
HETATM   14  C   UNL     1      11.418   6.479  12.421  1.00  0.00     0.040 A 
HETATM   15  C   UNL     1      12.147   6.204  11.260  1.00  0.00     0.010 A 
BRANCH  12  16
HETATM   16  O   UNL     1      11.971  10.083  12.700  1.00  0.00    -0.358 OA
HETATM   17  H   UNL     1      12.703  10.651  12.561  1.00  0.00     0.217 HD
ENDBRANCH  12  16
BRANCH  13  18
HETATM   18  O   UNL     1      10.570   8.057  13.975  1.00  0.00    -0.358 OA
HETATM   19  H   UNL     1       9.845   8.646  13.908  1.00  0.00     0.217 HD
ENDBRANCH  13  18
ENDBRANCH   9  10
ENDBRANCH   3   9
ENDBRANCH   1   3
TORSDOF 8
ENDMDL
MODEL 6
REMARK VINA RESULT:      -6.4      3.001      5.218
REMARK  8 active torsions:
REMARK  status: ('A' for Active; 'I' for Inactive)
REMARK    1  A    between atoms: O_1  and  C_2 
REMARK    2  A    between atoms: C_2  and  C_3 
REMARK    3  A    between atoms: C_2  and  C_8 
REMARK    4  A    between atoms: C_3  and  C_4 
REMARK    5  A    between atoms: C_4  and  C_5 
REMARK    6  A    between atoms: C_8  and  C_9 
REMARK    7  A    between atoms: C_11  and  O_16 
REMARK    8  A    between atoms: C_12  and  O_15 
ROOT
HETATM    1  O   UNL     1      12.128   9.082  10.512  1.00  0.00    -0.395 OA
HETATM    2  H   UNL     1      11.736   8.798  11.352  1.00  0.00     0.210 HD
ENDROOT
BRANCH   1   3
HETATM    3  C   UNL     1      12.217   7.967   9.626  1.00  0.00     0.122 C 
BRANCH   3   4
HETATM    4  C   UNL     1      10.817   7.377   9.391  1.00  0.00     0.042 C 
BRANCH   4   5
HETATM    5  C   UNL     1      10.797   6.259   8.347  1.00  0.00     0.116 C 
BRANCH   5   6
HETATM    6  C   UNL     1      10.861   6.703   6.908  1.00  0.00     0.172 C 
HETATM    7  O   UNL     1      10.013   7.370   6.337  1.00  0.00    -0.648 OA
HETATM    8  O   UNL     1      12.008   6.390   6.274  1.00  0.00    -0.648 OA
ENDBRANCH   5   6
ENDBRANCH   4   5
ENDBRANCH   3   4
BRANCH   3   9
HETATM    9  C   UNL     1      13.161   6.905  10.217  1.00  0.00     0.070 C 
BRANCH   9  10
HETATM   10  C   UNL     1      14.513   6.882   9.538  1.00  0.00    -0.053 A 
HETATM   11  C   UNL     1      14.634   7.222   8.183  1.00  0.00     0.046 A 
HETATM   12  C   UNL     1      15.879   7.178   7.572  1.00  0.00     0.099 A 
HETATM   13  C   UNL     1      17.014   6.827   8.296  1.00  0.00     0.098 A 
HETATM   14  C   UNL     1      16.912   6.468   9.631  1.00  0.00     0.040 A 
HETATM   15  C   UNL     1      15.660   6.492  10.253  1.00  0.00     0.010 A 
BRANCH  12  16
HETATM   16  O   UNL     1      15.973   7.450   6.237  1.00  0.00    -0.358 OA
HETATM   17  H   UNL     1      15.582   8.228   5.889  1.00  0.00     0.217 HD
ENDBRANCH  12  16
BRANCH  13  18
HETATM   18  O   UNL     1      18.247   6.860   7.711  1.00  0.00    -0.358 OA
HETATM   19  H   UNL     1      18.506   6.175   7.126  1.00  0.00     0.217 HD
ENDBRANCH  13  18
ENDBRANCH   9  10
ENDBRANCH   3   9
ENDBRANCH   1   3
TORSDOF 8
ENDMDL
MODEL 7
REMARK VINA RESULT:      -6.4      2.322      6.307
REMARK  8 active torsions:
REMARK  status: ('A' for Active; 'I' for Inactive)
REMARK    1  A    between atoms: O_1  and  C_2 
REMARK    2  A    between atoms: C_2  and  C_3 
REMARK    3  A    between atoms: C_2  and  C_8 
REMARK    4  A    between atoms: C_3  and  C_4 
REMARK    5  A    between atoms: C_4  and  C_5 
REMARK    6  A    between atoms: C_8  and  C_9 
REMARK    7  A    between atoms: C_11  and  O_16 
REMARK    8  A    between atoms: C_12  and  O_15 
ROOT
HETATM    1  O   UNL     1      10.630   8.777  14.265  1.00  0.00    -0.395 OA
HETATM    2  H   UNL     1       9.706   8.487  14.217  1.00  0.00     0.210 HD
ENDROOT
BRANCH   1   3
HETATM    3  C   UNL     1      11.237   8.645  12.980  1.00  0.00     0.122 C 
BRANCH   3   4
HETATM    4  C   UNL     1      11.046   9.944  12.180  1.00  0.00     0.042 C 
BRANCH   4   5
HETATM    5  C   UNL     1      12.193  10.941  12.359  1.00  0.00     0.116 C 
BRANCH   5   6
HETATM    6  C   UNL     1      11.820  12.397  12.249  1.00  0.00     0.172 C 
HETATM    7  O   UNL     1      10.720  12.821  11.935  1.00  0.00    -0.648 OA
HETATM    8  O   UNL     1      12.788  13.255  12.624  1.00  0.00    -0.648 OA
ENDBRANCH   5   6
ENDBRANCH   4   5
ENDBRANCH   3   4
BRANCH   3   9
HETATM    9  C   UNL     1      10.620   7.450  12.232  1.00  0.00     0.070 C 
BRANCH   9  10
HETATM   10  C   UNL     1      11.192   7.271  10.843  1.00  0.00    -0.053 A 
HETATM   11  C   UNL     1      10.343   7.214   9.726  1.00  0.00     0.046 A 
HETATM   12  C   UNL     1      10.883   7.032   8.461  1.00  0.00     0.099 A 
HETATM   13  C   UNL     1      12.260   6.934   8.284  1.00  0.00     0.098 A 
HETATM   14  C   UNL     1      13.113   6.969   9.376  1.00  0.00     0.040 A 
HETATM   15  C   UNL     1      12.579   7.135  10.657  1.00  0.00     0.010 A 
BRANCH  12  16
HETATM   16  O   UNL     1      10.043   6.915   7.391  1.00  0.00    -0.358 OA
HETATM   17  H   UNL     1       9.188   7.297   7.424  1.00  0.00     0.217 HD
ENDBRANCH  12  16
BRANCH  13  18
HETATM   18  O   UNL     1      12.792   6.833   7.031  1.00  0.00    -0.358 OA
HETATM   19  H   UNL     1      12.459   7.366   6.336  1.00  0.00     0.217 HD
ENDBRANCH  13  18
ENDBRANCH   9  10
ENDBRANCH   3   9
ENDBRANCH   1   3
TORSDOF 8
ENDMDL
MODEL 8
REMARK VINA RESULT:      -6.4      1.919      3.157
REMARK  8 active torsions:
REMARK  status: ('A' for Active; 'I' for Inactive)
REMARK    1  A    between atoms: O_1  and  C_2 
REMARK    2  A    between atoms: C_2  and  C_3 
REMARK    3  A    between atoms: C_2  and  C_8 
REMARK    4  A    between atoms: C_3  and  C_4 
REMARK    5  A    between atoms: C_4  and  C_5 
REMARK    6  A    between atoms: C_8  and  C_9 
REMARK    7  A    between atoms: C_11  and  O_16 
REMARK    8  A    between atoms: C_12  and  O_15 
ROOT
HETATM    1  O   UNL     1      12.706   7.940   6.986  1.00  0.00    -0.395 OA
HETATM    2  H   UNL     1      11.952   7.435   6.641  1.00  0.00     0.210 HD
ENDROOT
BRANCH   1   3
HETATM    3  C   UNL     1      12.749   7.820   8.407  1.00  0.00     0.122 C 
BRANCH   3   4
HETATM    4  C   UNL     1      13.853   6.831   8.812  1.00  0.00     0.042 C 
BRANCH   4   5
HETATM    5  C   UNL     1      15.234   7.480   8.935  1.00  0.00     0.116 C 
BRANCH   5   6
HETATM    6  C   UNL     1      16.161   7.279   7.763  1.00  0.00     0.172 C 
HETATM    7  O   UNL     1      17.379   7.229   7.829  1.00  0.00    -0.648 OA
HETATM    8  O   UNL     1      15.542   7.052   6.589  1.00  0.00    -0.648 OA
ENDBRANCH   5   6
ENDBRANCH   4   5
ENDBRANCH   3   4
BRANCH   3   9
HETATM    9  C   UNL     1      11.381   7.351   8.933  1.00  0.00     0.070 C 
BRANCH   9  10
HETATM   10  C   UNL     1      11.200   7.616  10.411  1.00  0.00    -0.053 A 
HETATM   11  C   UNL     1      11.603   6.662  11.359  1.00  0.00     0.046 A 
HETATM   12  C   UNL     1      11.413   6.913  12.710  1.00  0.00     0.099 A 
HETATM   13  C   UNL     1      10.855   8.113  13.138  1.00  0.00     0.098 A 
HETATM   14  C   UNL     1      10.433   9.060  12.217  1.00  0.00     0.040 A 
HETATM   15  C   UNL     1      10.603   8.810  10.852  1.00  0.00     0.010 A 
BRANCH  12  16
HETATM   16  O   UNL     1      11.751   5.951  13.618  1.00  0.00    -0.358 OA
HETATM   17  H   UNL     1      11.513   5.058  13.464  1.00  0.00     0.217 HD
ENDBRANCH  12  16
BRANCH  13  18
HETATM   18  O   UNL     1      10.742   8.389  14.470  1.00  0.00    -0.358 OA
HETATM   19  H   UNL     1      10.019   8.897  14.783  1.00  0.00     0.217 HD
ENDBRANCH  13  18
ENDBRANCH   9  10
ENDBRANCH   3   9
ENDBRANCH   1   3
TORSDOF 8
ENDMDL
MODEL 9
REMARK VINA RESULT:      -6.3      2.222      5.432
REMARK  8 active torsions:
REMARK  status: ('A' for Active; 'I' for Inactive)
REMARK    1  A    between atoms: O_1  and  C_2 
REMARK    2  A    between atoms: C_2  and  C_3 
REMARK    3  A    between atoms: C_2  and  C_8 
REMARK    4  A    between atoms: C_3  and  C_4 
REMARK    5  A    between atoms: C_4  and  C_5 
REMARK    6  A    between atoms: C_8  and  C_9 
REMARK    7  A    between atoms: C_11  and  O_16 
REMARK    8  A    between atoms: C_12  and  O_15 
ROOT
HETATM    1  O   UNL     1      15.841   7.909  11.882  1.00  0.00    -0.395 OA
HETATM    2  H   UNL     1      16.051   8.745  12.327  1.00  0.00     0.210 HD
ENDROOT
BRANCH   1   3
HETATM    3  C   UNL     1      14.529   7.985  11.324  1.00  0.00     0.122 C 
BRANCH   3   4
HETATM    4  C   UNL     1      13.542   8.494  12.386  1.00  0.00     0.042 C 
BRANCH   4   5
HETATM    5  C   UNL     1      12.661   9.645  11.893  1.00  0.00     0.116 C 
BRANCH   5   6
HETATM    6  C   UNL     1      11.174   9.399  11.936  1.00  0.00     0.172 C 
HETATM    7  O   UNL     1      10.413   9.518  10.990  1.00  0.00    -0.648 OA
HETATM    8  O   UNL     1      10.717   8.924  13.111  1.00  0.00    -0.648 OA
ENDBRANCH   5   6
ENDBRANCH   4   5
ENDBRANCH   3   4
BRANCH   3   9
HETATM    9  C   UNL     1      14.102   6.600  10.805  1.00  0.00     0.070 C 
BRANCH   9  10
HETATM   10  C   UNL     1      13.034   6.679   9.737  1.00  0.00    -0.053 A 
HETATM   11  C   UNL     1      11.688   6.446  10.058  1.00  0.00     0.046 A 
HETATM   12  C   UNL     1      10.724   6.505   9.062  1.00  0.00     0.099 A 
HETATM   13  C   UNL     1      11.073   6.822   7.753  1.00  0.00     0.098 A 
HETATM   14  C   UNL     1      12.400   7.036   7.412  1.00  0.00     0.040 A 
HETATM   15  C   UNL     1      13.382   6.962   8.404  1.00  0.00     0.010 A 
BRANCH  12  16
HETATM   16  O   UNL     1       9.427   6.214   9.376  1.00  0.00    -0.358 OA
HETATM   17  H   UNL     1       9.172   6.120  10.272  1.00  0.00     0.217 HD
ENDBRANCH  12  16
BRANCH  13  18
HETATM   18  O   UNL     1      10.113   6.955   6.792  1.00  0.00    -0.358 OA
HETATM   19  H   UNL     1       9.465   7.628   6.868  1.00  0.00     0.217 HD
ENDBRANCH  13  18
ENDBRANCH   9  10
ENDBRANCH   3   9
ENDBRANCH   1   3
TORSDOF 8
ENDMDL
