MODEL 1
REMARK VINA RESULT:     -11.2      0.000      0.000
REMARK  2 active torsions:
REMARK  status: ('A' for Active; 'I' for Inactive)
REMARK    1  A    between atoms: C_3  and  C_4 
REMARK    2  A    between atoms: C_4  and  C_6 
ROOT
ATOM      1  O   UNL A   1     -53.631  52.085  12.629  1.00  0.00    -0.648 OA
ATOM      2  O   UNL A   1     -53.597  50.464  14.238  1.00  0.00    -0.648 OA
ATOM      3  C   UNL A   1     -53.622  50.895  13.049  1.00  0.00     0.172 C 
ENDROOT
BRANCH   3   4
ATOM      4  C   UNL A   1     -53.666  49.795  11.982  1.00  0.00     0.113 C 
BRANCH   4   5
ATOM      5  C   UNL A   1     -54.008  50.237  10.564  1.00  0.00     0.006 C 
ATOM      6  C   UNL A   1     -54.901  49.238   9.842  1.00  0.00     0.005 C 
ENDBRANCH   4   5
ENDBRANCH   3   4
TORSDOF 2
ENDMDL
MODEL 2
REMARK VINA RESULT:     -10.6      2.466      3.524
REMARK  2 active torsions:
REMARK  status: ('A' for Active; 'I' for Inactive)
REMARK    1  A    between atoms: C_3  and  C_4 
REMARK    2  A    between atoms: C_4  and  C_6 
ROOT
ATOM      1  O   UNL A   1     -54.495  50.369   8.777  1.00  0.00    -0.648 OA
ATOM      2  O   UNL A   1     -53.860  52.294   9.831  1.00  0.00    -0.648 OA
ATOM      3  C   UNL A   1     -54.082  51.051   9.756  1.00  0.00     0.172 C 
ENDROOT
BRANCH   3   4
ATOM      4  C   UNL A   1     -53.824  50.285  11.058  1.00  0.00     0.113 C 
BRANCH   4   5
ATOM      5  C   UNL A   1     -53.709  51.121  12.328  1.00  0.00     0.006 C 
ATOM      6  C   UNL A   1     -53.486  50.268  13.568  1.00  0.00     0.005 C 
ENDBRANCH   4   5
ENDBRANCH   3   4
TORSDOF 2
ENDMDL
MODEL 3
REMARK VINA RESULT:     -10.5      1.306      1.748
REMARK  2 active torsions:
REMARK  status: ('A' for Active; 'I' for Inactive)
REMARK    1  A    between atoms: C_3  and  C_4 
REMARK    2  A    between atoms: C_4  and  C_6 
ROOT
ATOM      1  O   UNL A   1     -53.038  48.651  13.059  1.00  0.00    -0.648 OA
ATOM      2  O   UNL A   1     -53.385  50.452  14.421  1.00  0.00    -0.648 OA
ATOM      3  C   UNL A   1     -53.346  49.849  13.309  1.00  0.00     0.172 C 
ENDROOT
BRANCH   3   4
ATOM      4  C   UNL A   1     -53.713  50.724  12.106  1.00  0.00     0.113 C 
BRANCH   4   5
ATOM      5  C   UNL A   1     -53.993  49.996  10.796  1.00  0.00     0.006 C 
ATOM      6  C   UNL A   1     -54.039  50.940   9.603  1.00  0.00     0.005 C 
ENDBRANCH   4   5
ENDBRANCH   3   4
TORSDOF 2
ENDMDL
MODEL 4
REMARK VINA RESULT:     -10.4      1.400      1.779
REMARK  2 active torsions:
REMARK  status: ('A' for Active; 'I' for Inactive)
REMARK    1  A    between atoms: C_3  and  C_4 
REMARK    2  A    between atoms: C_4  and  C_6 
ROOT
ATOM      1  O   UNL A   1     -53.821  50.117  14.513  1.00  0.00    -0.648 OA
ATOM      2  O   UNL A   1     -52.947  48.569  13.079  1.00  0.00    -0.648 OA
ATOM      3  C   UNL A   1     -53.460  49.685  13.384  1.00  0.00     0.172 C 
ENDROOT
BRANCH   3   4
ATOM      4  C   UNL A   1     -53.681  50.622  12.192  1.00  0.00     0.113 C 
BRANCH   4   5
ATOM      5  C   UNL A   1     -54.008  49.962  10.858  1.00  0.00     0.006 C 
ATOM      6  C   UNL A   1     -54.063  50.961   9.711  1.00  0.00     0.005 C 
ENDBRANCH   4   5
ENDBRANCH   3   4
TORSDOF 2
ENDMDL
MODEL 5
REMARK VINA RESULT:     -10.4      2.627      3.578
REMARK  2 active torsions:
REMARK  status: ('A' for Active; 'I' for Inactive)
REMARK    1  A    between atoms: C_3  and  C_4 
REMARK    2  A    between atoms: C_4  and  C_6 
ROOT
ATOM      1  O   UNL A   1     -54.121  51.704   9.319  1.00  0.00    -0.648 OA
ATOM      2  O   UNL A   1     -54.473  49.553   8.637  1.00  0.00    -0.648 OA
ATOM      3  C   UNL A   1     -54.178  50.453   9.476  1.00  0.00     0.172 C 
ENDROOT
BRANCH   3   4
ATOM      4  C   UNL A   1     -53.827  49.924  10.870  1.00  0.00     0.113 C 
BRANCH   4   5
ATOM      5  C   UNL A   1     -53.761  50.954  11.992  1.00  0.00     0.006 C 
ATOM      6  C   UNL A   1     -53.548  50.315  13.357  1.00  0.00     0.005 C 
ENDBRANCH   4   5
ENDBRANCH   3   4
TORSDOF 2
ENDMDL
MODEL 6
REMARK VINA RESULT:     -10.3      1.154      1.445
REMARK  2 active torsions:
REMARK  status: ('A' for Active; 'I' for Inactive)
REMARK    1  A    between atoms: C_3  and  C_4 
REMARK    2  A    between atoms: C_4  and  C_6 
ROOT
ATOM      1  O   UNL A   1     -53.876  52.290  12.629  1.00  0.00    -0.648 OA
ATOM      2  O   UNL A   1     -53.404  50.585  14.074  1.00  0.00    -0.648 OA
ATOM      3  C   UNL A   1     -53.646  51.088  12.939  1.00  0.00     0.172 C 
ENDROOT
BRANCH   3   4
ATOM      4  C   UNL A   1     -53.677  50.071  11.793  1.00  0.00     0.113 C 
BRANCH   4   5
ATOM      5  C   UNL A   1     -53.286  48.640  12.143  1.00  0.00     0.006 C 
ATOM      6  C   UNL A   1     -53.070  47.777  10.909  1.00  0.00     0.005 C 
ENDBRANCH   4   5
ENDBRANCH   3   4
TORSDOF 2
ENDMDL
MODEL 7
REMARK VINA RESULT:     -10.1      1.956      2.426
REMARK  2 active torsions:
REMARK  status: ('A' for Active; 'I' for Inactive)
REMARK    1  A    between atoms: C_3  and  C_4 
REMARK    2  A    between atoms: C_4  and  C_6 
ROOT
ATOM      1  O   UNL A   1     -54.414  49.472  15.326  1.00  0.00    -0.648 OA
ATOM      2  O   UNL A   1     -52.162  49.089  15.277  1.00  0.00    -0.648 OA
ATOM      3  C   UNL A   1     -53.302  49.278  14.760  1.00  0.00     0.172 C 
ENDROOT
BRANCH   3   4
ATOM      4  C   UNL A   1     -53.313  49.243  13.229  1.00  0.00     0.113 C 
BRANCH   4   5
ATOM      5  C   UNL A   1     -53.653  50.550  12.521  1.00  0.00     0.006 C 
ATOM      6  C   UNL A   1     -53.797  50.376  11.016  1.00  0.00     0.005 C 
ENDBRANCH   4   5
ENDBRANCH   3   4
TORSDOF 2
ENDMDL
MODEL 8
REMARK VINA RESULT:     -10.0      1.837      3.140
REMARK  2 active torsions:
REMARK  status: ('A' for Active; 'I' for Inactive)
REMARK    1  A    between atoms: C_3  and  C_4 
REMARK    2  A    between atoms: C_4  and  C_6 
ROOT
ATOM      1  O   UNL A   1     -53.723  50.700  10.749  1.00  0.00    -0.648 OA
ATOM      2  O   UNL A   1     -53.664  51.966  12.649  1.00  0.00    -0.648 OA
ATOM      3  C   UNL A   1     -53.660  50.883  11.996  1.00  0.00     0.172 C 
ENDROOT
BRANCH   3   4
ATOM      4  C   UNL A   1     -53.586  49.624  12.866  1.00  0.00     0.113 C 
BRANCH   4   5
ATOM      5  C   UNL A   1     -53.199  49.828  14.327  1.00  0.00     0.006 C 
ATOM      6  C   UNL A   1     -52.427  48.646  14.895  1.00  0.00     0.005 C 
ENDBRANCH   4   5
ENDBRANCH   3   4
TORSDOF 2
ENDMDL
MODEL 9
REMARK VINA RESULT:      -9.5      2.578      3.210
REMARK  2 active torsions:
REMARK  status: ('A' for Active; 'I' for Inactive)
REMARK    1  A    between atoms: C_3  and  C_4 
REMARK    2  A    between atoms: C_4  and  C_6 
ROOT
ATOM      1  O   UNL A   1     -52.020  48.035  15.450  1.00  0.00    -0.648 OA
ATOM      2  O   UNL A   1     -54.103  48.768  16.036  1.00  0.00    -0.648 OA
ATOM      3  C   UNL A   1     -53.051  48.754  15.333  1.00  0.00     0.172 C 
ENDROOT
BRANCH   3   4
ATOM      4  C   UNL A   1     -53.041  49.779  14.194  1.00  0.00     0.113 C 
BRANCH   4   5
ATOM      5  C   UNL A   1     -53.464  49.273  12.820  1.00  0.00     0.006 C 
ATOM      6  C   UNL A   1     -53.666  50.402  11.820  1.00  0.00     0.005 C 
ENDBRANCH   4   5
ENDBRANCH   3   4
TORSDOF 2
ENDMDL
