MODEL 1
REMARK VINA RESULT:     -11.2      0.000      0.000
REMARK  2 active torsions:
REMARK  status: ('A' for Active; 'I' for Inactive)
REMARK    1  A    between atoms: C_3  and  C_4 
REMARK    2  A    between atoms: C_4  and  C_6 
ROOT
ATOM      1  O   UNL A   1     -53.589  50.416  14.320  1.00  0.00    -0.648 OA
ATOM      2  O   UNL A   1     -53.631  52.008  12.682  1.00  0.00    -0.648 OA
ATOM      3  C   UNL A   1     -53.617  50.823  13.126  1.00  0.00     0.172 C 
ENDROOT
BRANCH   3   4
ATOM      4  C   UNL A   1     -53.616  49.744  12.038  1.00  0.00     0.113 C 
BRANCH   4   5
ATOM      5  C   UNL A   1     -53.926  50.208  10.619  1.00  0.00     0.006 C 
ATOM      6  C   UNL A   1     -54.863  49.257   9.887  1.00  0.00     0.005 C 
ENDBRANCH   4   5
ENDBRANCH   3   4
TORSDOF 2
ENDMDL
MODEL 2
REMARK VINA RESULT:     -10.6      1.413      1.764
REMARK  2 active torsions:
REMARK  status: ('A' for Active; 'I' for Inactive)
REMARK    1  A    between atoms: C_3  and  C_4 
REMARK    2  A    between atoms: C_4  and  C_6 
ROOT
ATOM      1  O   UNL A   1     -53.068  50.524  14.756  1.00  0.00    -0.648 OA
ATOM      2  O   UNL A   1     -53.173  48.613  13.509  1.00  0.00    -0.648 OA
ATOM      3  C   UNL A   1     -53.262  49.861  13.700  1.00  0.00     0.172 C 
ENDROOT
BRANCH   3   4
ATOM      4  C   UNL A   1     -53.685  50.659  12.462  1.00  0.00     0.113 C 
BRANCH   4   5
ATOM      5  C   UNL A   1     -53.736  49.895  11.144  1.00  0.00     0.006 C 
ATOM      6  C   UNL A   1     -54.082  50.791   9.964  1.00  0.00     0.005 C 
ENDBRANCH   4   5
ENDBRANCH   3   4
TORSDOF 2
ENDMDL
MODEL 3
REMARK VINA RESULT:     -10.6      1.339      1.671
REMARK  2 active torsions:
REMARK  status: ('A' for Active; 'I' for Inactive)
REMARK    1  A    between atoms: C_3  and  C_4 
REMARK    2  A    between atoms: C_4  and  C_6 
ROOT
ATOM      1  O   UNL A   1     -53.044  48.572  13.229  1.00  0.00    -0.648 OA
ATOM      2  O   UNL A   1     -53.281  50.406  14.569  1.00  0.00    -0.648 OA
ATOM      3  C   UNL A   1     -53.305  49.783  13.468  1.00  0.00     0.172 C 
ENDROOT
BRANCH   3   4
ATOM      4  C   UNL A   1     -53.691  50.648  12.264  1.00  0.00     0.113 C 
BRANCH   4   5
ATOM      5  C   UNL A   1     -53.879  49.922  10.937  1.00  0.00     0.006 C 
ATOM      6  C   UNL A   1     -54.082  50.880   9.772  1.00  0.00     0.005 C 
ENDBRANCH   4   5
ENDBRANCH   3   4
TORSDOF 2
ENDMDL
MODEL 4
REMARK VINA RESULT:     -10.6      2.482      3.525
REMARK  2 active torsions:
REMARK  status: ('A' for Active; 'I' for Inactive)
REMARK    1  A    between atoms: C_3  and  C_4 
REMARK    2  A    between atoms: C_4  and  C_6 
ROOT
ATOM      1  O   UNL A   1     -53.864  52.245   9.846  1.00  0.00    -0.648 OA
ATOM      2  O   UNL A   1     -54.380  50.306   8.755  1.00  0.00    -0.648 OA
ATOM      3  C   UNL A   1     -54.045  50.999   9.759  1.00  0.00     0.172 C 
ENDROOT
BRANCH   3   4
ATOM      4  C   UNL A   1     -53.816  50.186  11.037  1.00  0.00     0.113 C 
BRANCH   4   5
ATOM      5  C   UNL A   1     -53.713  50.975  12.337  1.00  0.00     0.006 C 
ATOM      6  C   UNL A   1     -53.534  50.076  13.552  1.00  0.00     0.005 C 
ENDBRANCH   4   5
ENDBRANCH   3   4
TORSDOF 2
ENDMDL
MODEL 5
REMARK VINA RESULT:     -10.3      2.641      3.607
REMARK  2 active torsions:
REMARK  status: ('A' for Active; 'I' for Inactive)
REMARK    1  A    between atoms: C_3  and  C_4 
REMARK    2  A    between atoms: C_4  and  C_6 
ROOT
ATOM      1  O   UNL A   1     -54.434  49.475   8.635  1.00  0.00    -0.648 OA
ATOM      2  O   UNL A   1     -54.158  51.628   9.345  1.00  0.00    -0.648 OA
ATOM      3  C   UNL A   1     -54.161  50.370   9.481  1.00  0.00     0.172 C 
ENDROOT
BRANCH   3   4
ATOM      4  C   UNL A   1     -53.793  49.889  10.888  1.00  0.00     0.113 C 
BRANCH   4   5
ATOM      5  C   UNL A   1     -53.713  50.957  11.974  1.00  0.00     0.006 C 
ATOM      6  C   UNL A   1     -53.586  50.361  13.368  1.00  0.00     0.005 C 
ENDBRANCH   4   5
ENDBRANCH   3   4
TORSDOF 2
ENDMDL
MODEL 6
REMARK VINA RESULT:     -10.1      1.890      3.181
REMARK  2 active torsions:
REMARK  status: ('A' for Active; 'I' for Inactive)
REMARK    1  A    between atoms: C_3  and  C_4 
REMARK    2  A    between atoms: C_4  and  C_6 
ROOT
ATOM      1  O   UNL A   1     -53.781  50.724  10.951  1.00  0.00    -0.648 OA
ATOM      2  O   UNL A   1     -53.701  51.795  12.967  1.00  0.00    -0.648 OA
ATOM      3  C   UNL A   1     -53.654  50.786  12.205  1.00  0.00     0.172 C 
ENDROOT
BRANCH   3   4
ATOM      4  C   UNL A   1     -53.426  49.458  12.934  1.00  0.00     0.113 C 
BRANCH   4   5
ATOM      5  C   UNL A   1     -53.048  49.546  14.408  1.00  0.00     0.006 C 
ATOM      6  C   UNL A   1     -52.861  48.176  15.044  1.00  0.00     0.005 C 
ENDBRANCH   4   5
ENDBRANCH   3   4
TORSDOF 2
ENDMDL
MODEL 7
REMARK VINA RESULT:     -10.0      1.649      2.211
REMARK  2 active torsions:
REMARK  status: ('A' for Active; 'I' for Inactive)
REMARK    1  A    between atoms: C_3  and  C_4 
REMARK    2  A    between atoms: C_4  and  C_6 
ROOT
ATOM      1  O   UNL A   1     -52.277  48.295  15.285  1.00  0.00    -0.648 OA
ATOM      2  O   UNL A   1     -52.968  50.463  15.090  1.00  0.00    -0.648 OA
ATOM      3  C   UNL A   1     -52.779  49.281  14.679  1.00  0.00     0.172 C 
ENDROOT
BRANCH   3   4
ATOM      4  C   UNL A   1     -53.213  49.042  13.229  1.00  0.00     0.113 C 
BRANCH   4   5
ATOM      5  C   UNL A   1     -53.641  50.271  12.435  1.00  0.00     0.006 C 
ATOM      6  C   UNL A   1     -53.882  49.960  10.965  1.00  0.00     0.005 C 
ENDBRANCH   4   5
ENDBRANCH   3   4
TORSDOF 2
ENDMDL
MODEL 8
REMARK VINA RESULT:     -10.0      2.184      2.791
REMARK  2 active torsions:
REMARK  status: ('A' for Active; 'I' for Inactive)
REMARK    1  A    between atoms: C_3  and  C_4 
REMARK    2  A    between atoms: C_4  and  C_6 
ROOT
ATOM      1  O   UNL A   1     -53.716  53.133  12.131  1.00  0.00    -0.648 OA
ATOM      2  O   UNL A   1     -53.802  51.327  10.733  1.00  0.00    -0.648 OA
ATOM      3  C   UNL A   1     -53.736  51.900  11.860  1.00  0.00     0.172 C 
ENDROOT
BRANCH   3   4
ATOM      4  C   UNL A   1     -53.651  50.939  13.050  1.00  0.00     0.113 C 
BRANCH   4   5
ATOM      5  C   UNL A   1     -53.537  49.455  12.721  1.00  0.00     0.006 C 
ATOM      6  C   UNL A   1     -52.881  48.659  13.839  1.00  0.00     0.005 C 
ENDBRANCH   4   5
ENDBRANCH   3   4
TORSDOF 2
ENDMDL
MODEL 9
REMARK VINA RESULT:      -9.6      0.900      1.568
REMARK  2 active torsions:
REMARK  status: ('A' for Active; 'I' for Inactive)
REMARK    1  A    between atoms: C_3  and  C_4 
REMARK    2  A    between atoms: C_4  and  C_6 
ROOT
ATOM      1  O   UNL A   1     -53.740  51.116  13.574  1.00  0.00    -0.648 OA
ATOM      2  O   UNL A   1     -53.299  49.029  14.391  1.00  0.00    -0.648 OA
ATOM      3  C   UNL A   1     -53.498  49.881  13.478  1.00  0.00     0.172 C 
ENDROOT
BRANCH   3   4
ATOM      4  C   UNL A   1     -53.453  49.305  12.059  1.00  0.00     0.113 C 
BRANCH   4   5
ATOM      5  C   UNL A   1     -54.184  50.095  10.979  1.00  0.00     0.006 C 
ATOM      6  C   UNL A   1     -54.335  49.310   9.684  1.00  0.00     0.005 C 
ENDBRANCH   4   5
ENDBRANCH   3   4
TORSDOF 2
ENDMDL
