MODEL 1
REMARK VINA RESULT:     -11.2      0.000      0.000
REMARK  2 active torsions:
REMARK  status: ('A' for Active; 'I' for Inactive)
REMARK    1  A    between atoms: C_3  and  C_4 
REMARK    2  A    between atoms: C_4  and  C_6 
ROOT
ATOM      1  O   UNL A   1     -53.583  50.408  14.314  1.00  0.00    -0.648 OA
ATOM      2  O   UNL A   1     -53.643  51.991  12.668  1.00  0.00    -0.648 OA
ATOM      3  C   UNL A   1     -53.621  50.809  13.117  1.00  0.00     0.172 C 
ENDROOT
BRANCH   3   4
ATOM      4  C   UNL A   1     -53.624  49.724  12.035  1.00  0.00     0.113 C 
BRANCH   4   5
ATOM      5  C   UNL A   1     -53.948  50.179  10.617  1.00  0.00     0.006 C 
ATOM      6  C   UNL A   1     -54.889  49.222   9.898  1.00  0.00     0.005 C 
ENDBRANCH   4   5
ENDBRANCH   3   4
TORSDOF 2
ENDMDL
MODEL 2
REMARK VINA RESULT:     -10.6      1.326      1.698
REMARK  2 active torsions:
REMARK  status: ('A' for Active; 'I' for Inactive)
REMARK    1  A    between atoms: C_3  and  C_4 
REMARK    2  A    between atoms: C_4  and  C_6 
ROOT
ATOM      1  O   UNL A   1     -53.308  50.489  14.529  1.00  0.00    -0.648 OA
ATOM      2  O   UNL A   1     -53.110  48.648  13.191  1.00  0.00    -0.648 OA
ATOM      3  C   UNL A   1     -53.336  49.870  13.429  1.00  0.00     0.172 C 
ENDROOT
BRANCH   3   4
ATOM      4  C   UNL A   1     -53.713  50.693  12.193  1.00  0.00     0.113 C 
BRANCH   4   5
ATOM      5  C   UNL A   1     -53.821  49.933  10.876  1.00  0.00     0.006 C 
ATOM      6  C   UNL A   1     -54.123  50.848   9.699  1.00  0.00     0.005 C 
ENDBRANCH   4   5
ENDBRANCH   3   4
TORSDOF 2
ENDMDL
MODEL 3
REMARK VINA RESULT:     -10.5      1.348      1.699
REMARK  2 active torsions:
REMARK  status: ('A' for Active; 'I' for Inactive)
REMARK    1  A    between atoms: C_3  and  C_4 
REMARK    2  A    between atoms: C_4  and  C_6 
ROOT
ATOM      1  O   UNL A   1     -52.996  48.548  13.182  1.00  0.00    -0.648 OA
ATOM      2  O   UNL A   1     -53.332  50.338  14.560  1.00  0.00    -0.648 OA
ATOM      3  C   UNL A   1     -53.308  49.742  13.445  1.00  0.00     0.172 C 
ENDROOT
BRANCH   3   4
ATOM      4  C   UNL A   1     -53.702  50.621  12.253  1.00  0.00     0.113 C 
BRANCH   4   5
ATOM      5  C   UNL A   1     -53.865  49.916  10.911  1.00  0.00     0.006 C 
ATOM      6  C   UNL A   1     -54.080  50.891   9.763  1.00  0.00     0.005 C 
ENDBRANCH   4   5
ENDBRANCH   3   4
TORSDOF 2
ENDMDL
MODEL 4
REMARK VINA RESULT:     -10.4      2.733      3.771
REMARK  2 active torsions:
REMARK  status: ('A' for Active; 'I' for Inactive)
REMARK    1  A    between atoms: C_3  and  C_4 
REMARK    2  A    between atoms: C_4  and  C_6 
ROOT
ATOM      1  O   UNL A   1     -54.125  51.589   9.164  1.00  0.00    -0.648 OA
ATOM      2  O   UNL A   1     -54.097  49.408   8.484  1.00  0.00    -0.648 OA
ATOM      3  C   UNL A   1     -54.080  50.340   9.340  1.00  0.00     0.172 C 
ENDROOT
BRANCH   3   4
ATOM      4  C   UNL A   1     -53.970  49.859  10.791  1.00  0.00     0.113 C 
BRANCH   4   5
ATOM      5  C   UNL A   1     -53.751  50.934  11.849  1.00  0.00     0.006 C 
ATOM      6  C   UNL A   1     -53.560  50.351  13.241  1.00  0.00     0.005 C 
ENDBRANCH   4   5
ENDBRANCH   3   4
TORSDOF 2
ENDMDL
MODEL 5
REMARK VINA RESULT:     -10.2      1.596      2.189
REMARK  2 active torsions:
REMARK  status: ('A' for Active; 'I' for Inactive)
REMARK    1  A    between atoms: C_3  and  C_4 
REMARK    2  A    between atoms: C_4  and  C_6 
ROOT
ATOM      1  O   UNL A   1     -53.086  48.147  15.367  1.00  0.00    -0.648 OA
ATOM      2  O   UNL A   1     -52.958  50.412  15.092  1.00  0.00    -0.648 OA
ATOM      3  C   UNL A   1     -53.089  49.217  14.697  1.00  0.00     0.172 C 
ENDROOT
BRANCH   3   4
ATOM      4  C   UNL A   1     -53.257  49.071  13.181  1.00  0.00     0.113 C 
BRANCH   4   5
ATOM      5  C   UNL A   1     -53.661  50.327  12.416  1.00  0.00     0.006 C 
ATOM      6  C   UNL A   1     -53.819  50.075  10.924  1.00  0.00     0.005 C 
ENDBRANCH   4   5
ENDBRANCH   3   4
TORSDOF 2
ENDMDL
MODEL 6
REMARK VINA RESULT:     -10.0      2.066      2.864
REMARK  2 active torsions:
REMARK  status: ('A' for Active; 'I' for Inactive)
REMARK    1  A    between atoms: C_3  and  C_4 
REMARK    2  A    between atoms: C_4  and  C_6 
ROOT
ATOM      1  O   UNL A   1     -53.701  50.779  10.960  1.00  0.00    -0.648 OA
ATOM      2  O   UNL A   1     -53.745  52.609  12.327  1.00  0.00    -0.648 OA
ATOM      3  C   UNL A   1     -53.712  51.369  12.076  1.00  0.00     0.172 C 
ENDROOT
BRANCH   3   4
ATOM      4  C   UNL A   1     -53.704  50.475  13.320  1.00  0.00     0.113 C 
BRANCH   4   5
ATOM      5  C   UNL A   1     -53.273  49.027  13.114  1.00  0.00     0.006 C 
ATOM      6  C   UNL A   1     -52.584  48.445  14.340  1.00  0.00     0.005 C 
ENDBRANCH   4   5
ENDBRANCH   3   4
TORSDOF 2
ENDMDL
MODEL 7
REMARK VINA RESULT:      -9.5      2.952      3.931
REMARK  2 active torsions:
REMARK  status: ('A' for Active; 'I' for Inactive)
REMARK    1  A    between atoms: C_3  and  C_4 
REMARK    2  A    between atoms: C_4  and  C_6 
ROOT
ATOM      1  O   UNL A   1     -53.328  48.845   8.681  1.00  0.00    -0.648 OA
ATOM      2  O   UNL A   1     -55.320  48.469   9.734  1.00  0.00    -0.648 OA
ATOM      3  C   UNL A   1     -54.222  49.068   9.544  1.00  0.00     0.172 C 
ENDROOT
BRANCH   3   4
ATOM      4  C   UNL A   1     -53.951  50.213  10.525  1.00  0.00     0.113 C 
BRANCH   4   5
ATOM      5  C   UNL A   1     -53.645  49.817  11.965  1.00  0.00     0.006 C 
ATOM      6  C   UNL A   1     -53.640  51.011  12.909  1.00  0.00     0.005 C 
ENDBRANCH   4   5
ENDBRANCH   3   4
TORSDOF 2
ENDMDL
MODEL 8
REMARK VINA RESULT:      -9.5      1.420      1.783
REMARK  2 active torsions:
REMARK  status: ('A' for Active; 'I' for Inactive)
REMARK    1  A    between atoms: C_3  and  C_4 
REMARK    2  A    between atoms: C_4  and  C_6 
ROOT
ATOM      1  O   UNL A   1     -53.673  49.712  14.538  1.00  0.00    -0.648 OA
ATOM      2  O   UNL A   1     -53.696  51.577  13.221  1.00  0.00    -0.648 OA
ATOM      3  C   UNL A   1     -53.651  50.332  13.439  1.00  0.00     0.172 C 
ENDROOT
BRANCH   3   4
ATOM      4  C   UNL A   1     -53.535  49.475  12.175  1.00  0.00     0.113 C 
BRANCH   4   5
ATOM      5  C   UNL A   1     -53.003  48.058  12.360  1.00  0.00     0.006 C 
ATOM      6  C   UNL A   1     -52.808  47.332  11.037  1.00  0.00     0.005 C 
ENDBRANCH   4   5
ENDBRANCH   3   4
TORSDOF 2
ENDMDL
MODEL 9
REMARK VINA RESULT:      -9.1      3.473      4.388
REMARK  2 active torsions:
REMARK  status: ('A' for Active; 'I' for Inactive)
REMARK    1  A    between atoms: C_3  and  C_4 
REMARK    2  A    between atoms: C_4  and  C_6 
ROOT
ATOM      1  O   UNL A   1     -52.996  48.568   8.553  1.00  0.00    -0.648 OA
ATOM      2  O   UNL A   1     -55.079  47.735   8.123  1.00  0.00    -0.648 OA
ATOM      3  C   UNL A   1     -54.230  48.414   8.770  1.00  0.00     0.172 C 
ENDROOT
BRANCH   3   4
ATOM      4  C   UNL A   1     -54.800  49.130   9.999  1.00  0.00     0.113 C 
BRANCH   4   5
ATOM      5  C   UNL A   1     -53.945  50.241  10.598  1.00  0.00     0.006 C 
ATOM      6  C   UNL A   1     -53.669  50.030  12.079  1.00  0.00     0.005 C 
ENDBRANCH   4   5
ENDBRANCH   3   4
TORSDOF 2
ENDMDL
