MODEL 1
REMARK VINA RESULT:     -21.1      0.000      0.000
REMARK  4 active torsions:
REMARK  status: ('A' for Active; 'I' for Inactive)
REMARK    1  A    between atoms: O_1  and  C_5 
REMARK    2  A    between atoms: O_1  and  C_14 
REMARK    3  A    between atoms: O_2  and  C_18 
REMARK    4  A    between atoms: C_10  and  C_13 
ROOT
HETATM    1  O   UNL     1     -53.636  48.189   9.286  1.00  0.00    -0.343 OA
ENDROOT
BRANCH   1   2
HETATM    2  C   UNL     1     -52.359  47.870   8.747  1.00  0.00     0.129 C 
HETATM    3  C   UNL     1     -52.181  48.577   7.413  1.00  0.00     0.032 C 
HETATM    4  C   UNL     1     -52.953  47.714   6.416  1.00  0.00     0.002 C 
HETATM    5  C   UNL     1     -53.054  46.323   7.042  1.00  0.00     0.002 C 
HETATM    6  C   UNL     1     -52.298  46.399   8.367  1.00  0.00     0.032 C 
ENDBRANCH   1   2
BRANCH   1   7
HETATM    7  C   UNL     1     -53.653  48.931  10.438  1.00  0.00     0.103 A 
HETATM    8  C   UNL     1     -53.302  48.325  11.640  1.00  0.00     0.047 A 
HETATM    9  C   UNL     1     -53.316  49.069  12.819  1.00  0.00    -0.049 A 
HETATM   10  C   UNL     1     -53.681  50.415  12.791  1.00  0.00     0.010 A 
HETATM   11  C   UNL     1     -54.031  51.017  11.582  1.00  0.00     0.040 A 
HETATM   12  C   UNL     1     -54.018  50.272  10.402  1.00  0.00     0.101 A 
BRANCH   9  13
HETATM   13  C   UNL     1     -52.935  48.417  14.130  1.00  0.00     0.045 C 
HETATM   14  C   UNL     1     -52.545  49.370  15.261  1.00  0.00     0.132 C 
HETATM   15  N   UNL     1     -51.757  48.554  16.141  1.00  0.00    -0.360 N 
HETATM   16  C   UNL     1     -51.241  47.431  15.507  1.00  0.00     0.218 C 
HETATM   17  H   UNL     1     -51.599  48.767  17.089  1.00  0.00     0.162 HD
HETATM   18  O   UNL     1     -50.503  46.583  15.984  1.00  0.00    -0.274 OA
HETATM   19  C   UNL     1     -51.721  47.468  14.078  1.00  0.00     0.113 C 
ENDBRANCH   9  13
BRANCH  12  20
HETATM   20  O   UNL     1     -54.363  50.871   9.228  1.00  0.00    -0.353 OA
HETATM   21  C   UNL     1     -54.056  52.257   9.093  1.00  0.00     0.210 C 
ENDBRANCH  12  20
ENDBRANCH   1   7
TORSDOF 4
ENDMDL
MODEL 2
REMARK VINA RESULT:     -21.0      1.164      1.397
REMARK  4 active torsions:
REMARK  status: ('A' for Active; 'I' for Inactive)
REMARK    1  A    between atoms: O_1  and  C_5 
REMARK    2  A    between atoms: O_1  and  C_14 
REMARK    3  A    between atoms: O_2  and  C_18 
REMARK    4  A    between atoms: C_10  and  C_13 
ROOT
HETATM    1  O   UNL     1     -53.920  48.262   9.337  1.00  0.00    -0.343 OA
ENDROOT
BRANCH   1   2
HETATM    2  C   UNL     1     -52.942  47.286   9.002  1.00  0.00     0.129 C 
HETATM    3  C   UNL     1     -51.816  47.944   8.220  1.00  0.00     0.032 C 
HETATM    4  C   UNL     1     -52.358  48.064   6.797  1.00  0.00     0.002 C 
HETATM    5  C   UNL     1     -53.467  47.019   6.671  1.00  0.00     0.002 C 
HETATM    6  C   UNL     1     -53.510  46.285   8.009  1.00  0.00     0.032 C 
ENDBRANCH   1   2
BRANCH   1   7
HETATM    7  C   UNL     1     -53.734  48.946  10.509  1.00  0.00     0.103 A 
HETATM    8  C   UNL     1     -53.251  48.265  11.622  1.00  0.00     0.047 A 
HETATM    9  C   UNL     1     -53.060  48.949  12.822  1.00  0.00    -0.049 A 
HETATM   10  C   UNL     1     -53.352  50.311  12.903  1.00  0.00     0.010 A 
HETATM   11  C   UNL     1     -53.835  50.988  11.784  1.00  0.00     0.040 A 
HETATM   12  C   UNL     1     -54.028  50.303  10.584  1.00  0.00     0.101 A 
BRANCH   9  13
HETATM   13  C   UNL     1     -52.534  48.215  14.036  1.00  0.00     0.045 C 
HETATM   14  C   UNL     1     -52.430  46.695  13.903  1.00  0.00     0.132 C 
HETATM   15  N   UNL     1     -52.438  46.230  15.261  1.00  0.00    -0.360 N 
HETATM   16  C   UNL     1     -52.980  47.159  16.140  1.00  0.00     0.218 C 
HETATM   17  H   UNL     1     -52.097  45.350  15.540  1.00  0.00     0.162 HD
HETATM   18  O   UNL     1     -53.158  47.030  17.341  1.00  0.00    -0.274 OA
HETATM   19  C   UNL     1     -53.367  48.368  15.323  1.00  0.00     0.113 C 
ENDBRANCH   9  13
BRANCH  12  20
HETATM   20  O   UNL     1     -54.503  50.975   9.498  1.00  0.00    -0.353 OA
HETATM   21  C   UNL     1     -54.033  52.308   9.305  1.00  0.00     0.210 C 
ENDBRANCH  12  20
ENDBRANCH   1   7
TORSDOF 4
ENDMDL
MODEL 3
REMARK VINA RESULT:     -20.7      2.468      3.978
REMARK  4 active torsions:
REMARK  status: ('A' for Active; 'I' for Inactive)
REMARK    1  A    between atoms: O_1  and  C_5 
REMARK    2  A    between atoms: O_1  and  C_14 
REMARK    3  A    between atoms: O_2  and  C_18 
REMARK    4  A    between atoms: C_10  and  C_13 
ROOT
HETATM    1  O   UNL     1     -52.403  45.767   9.059  1.00  0.00    -0.343 OA
ENDROOT
BRANCH   1   2
HETATM    2  C   UNL     1     -53.325  44.786   8.603  1.00  0.00     0.129 C 
HETATM    3  C   UNL     1     -54.384  44.550   9.669  1.00  0.00     0.032 C 
HETATM    4  C   UNL     1     -53.710  43.623  10.679  1.00  0.00     0.002 C 
HETATM    5  C   UNL     1     -52.574  42.927   9.931  1.00  0.00     0.002 C 
HETATM    6  C   UNL     1     -52.644  43.431   8.491  1.00  0.00     0.032 C 
ENDBRANCH   1   2
BRANCH   1   7
HETATM    7  C   UNL     1     -52.839  47.066   9.069  1.00  0.00     0.103 A 
HETATM    8  C   UNL     1     -53.167  47.663  10.282  1.00  0.00     0.047 A 
HETATM    9  C   UNL     1     -53.612  48.984  10.305  1.00  0.00    -0.049 A 
HETATM   10  C   UNL     1     -53.728  49.702   9.115  1.00  0.00     0.010 A 
HETATM   11  C   UNL     1     -53.396  49.099   7.902  1.00  0.00     0.040 A 
HETATM   12  C   UNL     1     -52.952  47.777   7.879  1.00  0.00     0.101 A 
BRANCH   9  13
HETATM   13  C   UNL     1     -53.970  49.639  11.622  1.00  0.00     0.045 C 
HETATM   14  C   UNL     1     -53.731  51.148  11.703  1.00  0.00     0.132 C 
HETATM   15  N   UNL     1     -53.630  51.404  13.112  1.00  0.00    -0.360 N 
HETATM   16  C   UNL     1     -53.316  50.263  13.840  1.00  0.00     0.218 C 
HETATM   17  H   UNL     1     -53.768  52.290  13.517  1.00  0.00     0.162 HD
HETATM   18  O   UNL     1     -53.122  50.181  15.042  1.00  0.00    -0.274 OA
HETATM   19  C   UNL     1     -53.201  49.126  12.855  1.00  0.00     0.113 C 
ENDBRANCH   9  13
BRANCH  12  20
HETATM   20  O   UNL     1     -52.633  47.198   6.687  1.00  0.00    -0.353 OA
HETATM   21  C   UNL     1     -53.521  47.432   5.596  1.00  0.00     0.210 C 
ENDBRANCH  12  20
ENDBRANCH   1   7
TORSDOF 4
ENDMDL
MODEL 4
REMARK VINA RESULT:     -20.5      2.952      4.654
REMARK  4 active torsions:
REMARK  status: ('A' for Active; 'I' for Inactive)
REMARK    1  A    between atoms: O_1  and  C_5 
REMARK    2  A    between atoms: O_1  and  C_14 
REMARK    3  A    between atoms: O_2  and  C_18 
REMARK    4  A    between atoms: C_10  and  C_13 
ROOT
HETATM    1  O   UNL     1     -53.005  44.855   9.579  1.00  0.00    -0.343 OA
ENDROOT
BRANCH   1   2
HETATM    2  C   UNL     1     -51.851  44.837   8.748  1.00  0.00     0.129 C 
HETATM    3  C   UNL     1     -52.181  44.140   7.438  1.00  0.00     0.032 C 
HETATM    4  C   UNL     1     -52.114  42.650   7.770  1.00  0.00     0.002 C 
HETATM    5  C   UNL     1     -51.238  42.528   9.016  1.00  0.00     0.002 C 
HETATM    6  C   UNL     1     -50.777  43.945   9.351  1.00  0.00     0.032 C 
ENDBRANCH   1   2
BRANCH   1   7
HETATM    7  C   UNL     1     -53.703  46.032   9.642  1.00  0.00     0.103 A 
HETATM    8  C   UNL     1     -53.206  47.075  10.418  1.00  0.00     0.047 A 
HETATM    9  C   UNL     1     -53.907  48.277  10.491  1.00  0.00    -0.049 A 
HETATM   10  C   UNL     1     -55.102  48.432   9.789  1.00  0.00     0.010 A 
HETATM   11  C   UNL     1     -55.595  47.384   9.012  1.00  0.00     0.040 A 
HETATM   12  C   UNL     1     -54.893  46.180   8.939  1.00  0.00     0.101 A 
BRANCH   9  13
HETATM   13  C   UNL     1     -53.372  49.416  11.333  1.00  0.00     0.045 C 
HETATM   14  C   UNL     1     -53.646  49.321  12.835  1.00  0.00     0.132 C 
HETATM   15  N   UNL     1     -53.537  50.678  13.290  1.00  0.00    -0.360 N 
HETATM   16  C   UNL     1     -53.696  51.599  12.263  1.00  0.00     0.218 C 
HETATM   17  H   UNL     1     -53.367  50.928  14.227  1.00  0.00     0.162 HD
HETATM   18  O   UNL     1     -53.699  52.817  12.353  1.00  0.00    -0.274 OA
HETATM   19  C   UNL     1     -53.923  50.815  10.995  1.00  0.00     0.113 C 
ENDBRANCH   9  13
BRANCH  12  20
HETATM   20  O   UNL     1     -55.386  45.163   8.179  1.00  0.00    -0.353 OA
HETATM   21  C   UNL     1     -56.200  44.196   8.839  1.00  0.00     0.210 C 
ENDBRANCH  12  20
ENDBRANCH   1   7
TORSDOF 4
ENDMDL
MODEL 5
REMARK VINA RESULT:     -19.7      1.801      2.640
REMARK  4 active torsions:
REMARK  status: ('A' for Active; 'I' for Inactive)
REMARK    1  A    between atoms: O_1  and  C_5 
REMARK    2  A    between atoms: O_1  and  C_14 
REMARK    3  A    between atoms: O_2  and  C_18 
REMARK    4  A    between atoms: C_10  and  C_13 
ROOT
HETATM    1  O   UNL     1     -52.591  46.329   9.398  1.00  0.00    -0.343 OA
ENDROOT
BRANCH   1   2
HETATM    2  C   UNL     1     -52.680  45.139  10.171  1.00  0.00     0.129 C 
HETATM    3  C   UNL     1     -51.872  44.038   9.501  1.00  0.00     0.032 C 
HETATM    4  C   UNL     1     -52.779  43.525   8.384  1.00  0.00     0.002 C 
HETATM    5  C   UNL     1     -54.205  43.907   8.779  1.00  0.00     0.002 C 
HETATM    6  C   UNL     1     -54.098  44.592  10.140  1.00  0.00     0.032 C 
ENDBRANCH   1   2
BRANCH   1   7
HETATM    7  C   UNL     1     -52.979  47.493  10.008  1.00  0.00     0.103 A 
HETATM    8  C   UNL     1     -52.947  47.574  11.397  1.00  0.00     0.047 A 
HETATM    9  C   UNL     1     -53.341  48.752  12.029  1.00  0.00    -0.049 A 
HETATM   10  C   UNL     1     -53.767  49.843  11.272  1.00  0.00     0.010 A 
HETATM   11  C   UNL     1     -53.797  49.755   9.880  1.00  0.00     0.040 A 
HETATM   12  C   UNL     1     -53.403  48.576   9.247  1.00  0.00     0.101 A 
BRANCH   9  13
HETATM   13  C   UNL     1     -53.307  48.847  13.540  1.00  0.00     0.045 C 
HETATM   14  C   UNL     1     -53.121  50.253  14.115  1.00  0.00     0.132 C 
HETATM   15  N   UNL     1     -52.606  50.018  15.434  1.00  0.00    -0.360 N 
HETATM   16  C   UNL     1     -52.034  48.759  15.566  1.00  0.00     0.218 C 
HETATM   17  H   UNL     1     -52.652  50.676  16.164  1.00  0.00     0.162 HD
HETATM   18  O   UNL     1     -51.478  48.296  16.550  1.00  0.00    -0.274 OA
HETATM   19  C   UNL     1     -52.176  48.065  14.235  1.00  0.00     0.113 C 
ENDBRANCH   9  13
BRANCH  12  20
HETATM   20  O   UNL     1     -53.438  48.502   7.887  1.00  0.00    -0.353 OA
HETATM   21  C   UNL     1     -52.186  48.524   7.204  1.00  0.00     0.210 C 
ENDBRANCH  12  20
ENDBRANCH   1   7
TORSDOF 4
ENDMDL
MODEL 6
REMARK VINA RESULT:     -19.6      2.801      6.547
REMARK  4 active torsions:
REMARK  status: ('A' for Active; 'I' for Inactive)
REMARK    1  A    between atoms: O_1  and  C_5 
REMARK    2  A    between atoms: O_1  and  C_14 
REMARK    3  A    between atoms: O_2  and  C_18 
REMARK    4  A    between atoms: C_10  and  C_13 
ROOT
HETATM    1  O   UNL     1     -52.592  47.316  14.360  1.00  0.00    -0.343 OA
ENDROOT
BRANCH   1   2
HETATM    2  C   UNL     1     -51.198  47.093  14.535  1.00  0.00     0.129 C 
HETATM    3  C   UNL     1     -50.959  45.632  14.885  1.00  0.00     0.032 C 
HETATM    4  C   UNL     1     -51.284  45.538  16.375  1.00  0.00     0.002 C 
HETATM    5  C   UNL     1     -51.144  46.953  16.935  1.00  0.00     0.002 C 
HETATM    6  C   UNL     1     -50.695  47.828  15.767  1.00  0.00     0.032 C 
ENDBRANCH   1   2
BRANCH   1   7
HETATM    7  C   UNL     1     -52.956  48.268  13.445  1.00  0.00     0.103 A 
HETATM    8  C   UNL     1     -52.954  47.945  12.092  1.00  0.00     0.047 A 
HETATM    9  C   UNL     1     -53.321  48.906  11.151  1.00  0.00    -0.049 A 
HETATM   10  C   UNL     1     -53.687  50.186  11.567  1.00  0.00     0.010 A 
HETATM   11  C   UNL     1     -53.687  50.504  12.925  1.00  0.00     0.040 A 
HETATM   12  C   UNL     1     -53.319  49.543  13.867  1.00  0.00     0.101 A 
BRANCH   9  13
HETATM   13  C   UNL     1     -53.322  48.560   9.678  1.00  0.00     0.045 C 
HETATM   14  C   UNL     1     -54.172  49.462   8.782  1.00  0.00     0.132 C 
HETATM   15  N   UNL     1     -54.427  48.653   7.623  1.00  0.00    -0.360 N 
HETATM   16  C   UNL     1     -54.265  47.297   7.874  1.00  0.00     0.218 C 
HETATM   17  H   UNL     1     -54.688  49.019   6.748  1.00  0.00     0.162 HD
HETATM   18  O   UNL     1     -54.454  46.371   7.100  1.00  0.00    -0.274 OA
HETATM   19  C   UNL     1     -53.854  47.159   9.319  1.00  0.00     0.113 C 
ENDBRANCH   9  13
BRANCH  12  20
HETATM   20  O   UNL     1     -53.322  49.866  15.190  1.00  0.00    -0.353 OA
HETATM   21  C   UNL     1     -54.086  49.032  16.059  1.00  0.00     0.210 C 
ENDBRANCH  12  20
ENDBRANCH   1   7
TORSDOF 4
ENDMDL
MODEL 7
REMARK VINA RESULT:     -19.6      2.800      6.267
REMARK  4 active torsions:
REMARK  status: ('A' for Active; 'I' for Inactive)
REMARK    1  A    between atoms: O_1  and  C_5 
REMARK    2  A    between atoms: O_1  and  C_14 
REMARK    3  A    between atoms: O_2  and  C_18 
REMARK    4  A    between atoms: C_10  and  C_13 
ROOT
HETATM    1  O   UNL     1     -53.638  48.998  13.391  1.00  0.00    -0.343 OA
ENDROOT
BRANCH   1   2
HETATM    2  C   UNL     1     -52.339  48.734  13.904  1.00  0.00     0.129 C 
HETATM    3  C   UNL     1     -52.037  47.248  13.782  1.00  0.00     0.032 C 
HETATM    4  C   UNL     1     -52.765  46.612  14.965  1.00  0.00     0.002 C 
HETATM    5  C   UNL     1     -52.964  47.723  15.995  1.00  0.00     0.002 C 
HETATM    6  C   UNL     1     -52.304  48.969  15.406  1.00  0.00     0.032 C 
ENDBRANCH   1   2
BRANCH   1   7
HETATM    7  C   UNL     1     -53.722  49.340  12.068  1.00  0.00     0.103 A 
HETATM    8  C   UNL     1     -53.761  48.334  11.107  1.00  0.00     0.047 A 
HETATM    9  C   UNL     1     -53.845  48.670   9.757  1.00  0.00    -0.049 A 
HETATM   10  C   UNL     1     -53.890  50.010   9.372  1.00  0.00     0.010 A 
HETATM   11  C   UNL     1     -53.851  51.014  10.340  1.00  0.00     0.040 A 
HETATM   12  C   UNL     1     -53.767  50.678  11.691  1.00  0.00     0.101 A 
BRANCH   9  13
HETATM   13  C   UNL     1     -53.887  47.580   8.708  1.00  0.00     0.045 C 
HETATM   14  C   UNL     1     -52.627  46.722   8.585  1.00  0.00     0.132 C 
HETATM   15  N   UNL     1     -52.708  46.180   7.259  1.00  0.00    -0.360 N 
HETATM   16  C   UNL     1     -53.544  46.919   6.431  1.00  0.00     0.218 C 
HETATM   17  H   UNL     1     -52.225  45.374   6.967  1.00  0.00     0.162 HD
HETATM   18  O   UNL     1     -53.773  46.729   5.247  1.00  0.00    -0.274 OA
HETATM   19  C   UNL     1     -54.092  48.056   7.256  1.00  0.00     0.113 C 
ENDBRANCH   9  13
BRANCH  12  20
HETATM   20  O   UNL     1     -53.728  51.668  12.626  1.00  0.00    -0.353 OA
HETATM   21  C   UNL     1     -53.632  53.008  12.147  1.00  0.00     0.210 C 
ENDBRANCH  12  20
ENDBRANCH   1   7
TORSDOF 4
ENDMDL
MODEL 8
REMARK VINA RESULT:     -19.6      2.638      6.287
REMARK  4 active torsions:
REMARK  status: ('A' for Active; 'I' for Inactive)
REMARK    1  A    between atoms: O_1  and  C_5 
REMARK    2  A    between atoms: O_1  and  C_14 
REMARK    3  A    between atoms: O_2  and  C_18 
REMARK    4  A    between atoms: C_10  and  C_13 
ROOT
HETATM    1  O   UNL     1     -51.882  46.321  14.413  1.00  0.00    -0.343 OA
ENDROOT
BRANCH   1   2
HETATM    2  C   UNL     1     -51.010  45.779  13.430  1.00  0.00     0.129 C 
HETATM    3  C   UNL     1     -51.527  44.419  12.987  1.00  0.00     0.032 C 
HETATM    4  C   UNL     1     -51.076  43.462  14.089  1.00  0.00     0.002 C 
HETATM    5  C   UNL     1     -49.896  44.136  14.787  1.00  0.00     0.002 C 
HETATM    6  C   UNL     1     -49.658  45.449  14.043  1.00  0.00     0.032 C 
ENDBRANCH   1   2
BRANCH   1   7
HETATM    7  C   UNL     1     -52.368  47.580  14.182  1.00  0.00     0.103 A 
HETATM    8  C   UNL     1     -52.914  47.879  12.937  1.00  0.00     0.047 A 
HETATM    9  C   UNL     1     -53.411  49.157  12.689  1.00  0.00    -0.049 A 
HETATM   10  C   UNL     1     -53.359  50.132  13.685  1.00  0.00     0.010 A 
HETATM   11  C   UNL     1     -52.811  49.826  14.931  1.00  0.00     0.040 A 
HETATM   12  C   UNL     1     -52.313  48.547  15.179  1.00  0.00     0.101 A 
BRANCH   9  13
HETATM   13  C   UNL     1     -54.007  49.488  11.338  1.00  0.00     0.045 C 
HETATM   14  C   UNL     1     -53.410  48.739  10.144  1.00  0.00     0.132 C 
HETATM   15  N   UNL     1     -53.733  49.572   9.021  1.00  0.00    -0.360 N 
HETATM   16  C   UNL     1     -54.009  50.882   9.390  1.00  0.00     0.218 C 
HETATM   17  H   UNL     1     -53.756  49.250   8.091  1.00  0.00     0.162 HD
HETATM   18  O   UNL     1     -54.270  51.821   8.654  1.00  0.00    -0.274 OA
HETATM   19  C   UNL     1     -53.877  50.957  10.891  1.00  0.00     0.113 C 
ENDBRANCH   9  13
BRANCH  12  20
HETATM   20  O   UNL     1     -51.779  48.262  16.400  1.00  0.00    -0.353 OA
HETATM   21  C   UNL     1     -50.357  48.187  16.483  1.00  0.00     0.210 C 
ENDBRANCH  12  20
ENDBRANCH   1   7
TORSDOF 4
ENDMDL
MODEL 9
REMARK VINA RESULT:     -19.6      2.881      6.650
REMARK  4 active torsions:
REMARK  status: ('A' for Active; 'I' for Inactive)
REMARK    1  A    between atoms: O_1  and  C_5 
REMARK    2  A    between atoms: O_1  and  C_14 
REMARK    3  A    between atoms: O_2  and  C_18 
REMARK    4  A    between atoms: C_10  and  C_13 
ROOT
HETATM    1  O   UNL     1     -52.023  47.124  14.358  1.00  0.00    -0.343 OA
ENDROOT
BRANCH   1   2
HETATM    2  C   UNL     1     -52.294  48.078  15.378  1.00  0.00     0.129 C 
HETATM    3  C   UNL     1     -51.044  48.291  16.218  1.00  0.00     0.032 C 
HETATM    4  C   UNL     1     -51.017  47.099  17.172  1.00  0.00     0.002 C 
HETATM    5  C   UNL     1     -52.453  46.581  17.253  1.00  0.00     0.002 C 
HETATM    6  C   UNL     1     -53.289  47.514  16.380  1.00  0.00     0.032 C 
ENDBRANCH   1   2
BRANCH   1   7
HETATM    7  C   UNL     1     -52.484  47.414  13.102  1.00  0.00     0.103 A 
HETATM    8  C   UNL     1     -53.017  48.674  12.849  1.00  0.00     0.047 A 
HETATM    9  C   UNL     1     -53.491  48.982  11.575  1.00  0.00    -0.049 A 
HETATM   10  C   UNL     1     -53.430  48.028  10.558  1.00  0.00     0.010 A 
HETATM   11  C   UNL     1     -52.894  46.767  10.818  1.00  0.00     0.040 A 
HETATM   12  C   UNL     1     -52.420  46.459  12.093  1.00  0.00     0.101 A 
BRANCH   9  13
HETATM   13  C   UNL     1     -54.072  50.351  11.293  1.00  0.00     0.045 C 
HETATM   14  C   UNL     1     -53.754  50.940   9.918  1.00  0.00     0.132 C 
HETATM   15  N   UNL     1     -53.933  52.353  10.100  1.00  0.00    -0.360 N 
HETATM   16  C   UNL     1     -53.856  52.732  11.434  1.00  0.00     0.218 C 
HETATM   17  H   UNL     1     -54.093  52.983   9.362  1.00  0.00     0.162 HD
HETATM   18  O   UNL     1     -53.924  53.863  11.889  1.00  0.00    -0.274 OA
HETATM   19  C   UNL     1     -53.615  51.479  12.238  1.00  0.00     0.113 C 
ENDBRANCH   9  13
BRANCH  12  20
HETATM   20  O   UNL     1     -51.901  45.223  12.334  1.00  0.00    -0.353 OA
HETATM   21  C   UNL     1     -51.212  44.589  11.258  1.00  0.00     0.210 C 
ENDBRANCH  12  20
ENDBRANCH   1   7
TORSDOF 4
ENDMDL
