MODEL 1
REMARK VINA RESULT:     -21.3      0.000      0.000
REMARK  4 active torsions:
REMARK  status: ('A' for Active; 'I' for Inactive)
REMARK    1  A    between atoms: O_1  and  C_5 
REMARK    2  A    between atoms: O_1  and  C_14 
REMARK    3  A    between atoms: O_2  and  C_18 
REMARK    4  A    between atoms: C_10  and  C_13 
ROOT
HETATM    1  O   UNL     1     -53.582  48.111   9.329  1.00  0.00    -0.343 OA
ENDROOT
BRANCH   1   2
HETATM    2  C   UNL     1     -52.312  47.747   8.802  1.00  0.00     0.129 C 
HETATM    3  C   UNL     1     -52.108  48.426   7.457  1.00  0.00     0.032 C 
HETATM    4  C   UNL     1     -52.899  47.568   6.471  1.00  0.00     0.002 C 
HETATM    5  C   UNL     1     -53.042  46.191   7.120  1.00  0.00     0.002 C 
HETATM    6  C   UNL     1     -52.291  46.268   8.447  1.00  0.00     0.032 C 
ENDBRANCH   1   2
BRANCH   1   7
HETATM    7  C   UNL     1     -53.583  48.867  10.472  1.00  0.00     0.103 A 
HETATM    8  C   UNL     1     -53.254  48.266  11.683  1.00  0.00     0.047 A 
HETATM    9  C   UNL     1     -53.252  49.024  12.852  1.00  0.00    -0.049 A 
HETATM   10  C   UNL     1     -53.580  50.379  12.807  1.00  0.00     0.010 A 
HETATM   11  C   UNL     1     -53.908  50.976  11.590  1.00  0.00     0.040 A 
HETATM   12  C   UNL     1     -53.910  50.217  10.419  1.00  0.00     0.101 A 
BRANCH   9  13
HETATM   13  C   UNL     1     -52.895  48.377  14.173  1.00  0.00     0.045 C 
HETATM   14  C   UNL     1     -52.456  49.330  15.286  1.00  0.00     0.132 C 
HETATM   15  N   UNL     1     -51.702  48.493  16.176  1.00  0.00    -0.360 N 
HETATM   16  C   UNL     1     -51.242  47.337  15.560  1.00  0.00     0.218 C 
HETATM   17  H   UNL     1     -51.530  48.715  17.120  1.00  0.00     0.162 HD
HETATM   18  O   UNL     1     -50.541  46.465  16.048  1.00  0.00    -0.274 OA
HETATM   19  C   UNL     1     -51.727  47.373  14.132  1.00  0.00     0.113 C 
ENDBRANCH   9  13
BRANCH  12  20
HETATM   20  O   UNL     1     -54.234  50.811   9.237  1.00  0.00    -0.353 OA
HETATM   21  C   UNL     1     -53.907  52.192   9.094  1.00  0.00     0.210 C 
ENDBRANCH  12  20
ENDBRANCH   1   7
TORSDOF 4
ENDMDL
MODEL 2
REMARK VINA RESULT:     -20.9      1.149      1.385
REMARK  4 active torsions:
REMARK  status: ('A' for Active; 'I' for Inactive)
REMARK    1  A    between atoms: O_1  and  C_5 
REMARK    2  A    between atoms: O_1  and  C_14 
REMARK    3  A    between atoms: O_2  and  C_18 
REMARK    4  A    between atoms: C_10  and  C_13 
ROOT
HETATM    1  O   UNL     1     -53.930  48.188   9.296  1.00  0.00    -0.343 OA
ENDROOT
BRANCH   1   2
HETATM    2  C   UNL     1     -52.930  47.245   8.933  1.00  0.00     0.129 C 
HETATM    3  C   UNL     1     -51.816  47.953   8.177  1.00  0.00     0.032 C 
HETATM    4  C   UNL     1     -52.357  48.109   6.757  1.00  0.00     0.002 C 
HETATM    5  C   UNL     1     -53.442  47.045   6.592  1.00  0.00     0.002 C 
HETATM    6  C   UNL     1     -53.473  46.265   7.905  1.00  0.00     0.032 C 
ENDBRANCH   1   2
BRANCH   1   7
HETATM    7  C   UNL     1     -53.736  48.876  10.465  1.00  0.00     0.103 A 
HETATM    8  C   UNL     1     -53.246  48.198  11.577  1.00  0.00     0.047 A 
HETATM    9  C   UNL     1     -53.045  48.886  12.772  1.00  0.00    -0.049 A 
HETATM   10  C   UNL     1     -53.335  50.248  12.851  1.00  0.00     0.010 A 
HETATM   11  C   UNL     1     -53.825  50.922  11.733  1.00  0.00     0.040 A 
HETATM   12  C   UNL     1     -54.027  50.234  10.536  1.00  0.00     0.101 A 
BRANCH   9  13
HETATM   13  C   UNL     1     -52.512  48.155  13.986  1.00  0.00     0.045 C 
HETATM   14  C   UNL     1     -52.432  46.633  13.865  1.00  0.00     0.132 C 
HETATM   15  N   UNL     1     -52.427  46.180  15.228  1.00  0.00    -0.360 N 
HETATM   16  C   UNL     1     -52.943  47.125  16.105  1.00  0.00     0.218 C 
HETATM   17  H   UNL     1     -52.094  45.298  15.509  1.00  0.00     0.162 HD
HETATM   18  O   UNL     1     -53.106  47.008  17.309  1.00  0.00    -0.274 OA
HETATM   19  C   UNL     1     -53.325  48.331  15.284  1.00  0.00     0.113 C 
ENDBRANCH   9  13
BRANCH  12  20
HETATM   20  O   UNL     1     -54.508  50.903   9.451  1.00  0.00    -0.353 OA
HETATM   21  C   UNL     1     -54.054  52.242   9.263  1.00  0.00     0.210 C 
ENDBRANCH  12  20
ENDBRANCH   1   7
TORSDOF 4
ENDMDL
MODEL 3
REMARK VINA RESULT:     -20.9      0.999      1.396
REMARK  4 active torsions:
REMARK  status: ('A' for Active; 'I' for Inactive)
REMARK    1  A    between atoms: O_1  and  C_5 
REMARK    2  A    between atoms: O_1  and  C_14 
REMARK    3  A    between atoms: O_2  and  C_18 
REMARK    4  A    between atoms: C_10  and  C_13 
ROOT
HETATM    1  O   UNL     1     -53.387  48.229   9.601  1.00  0.00    -0.343 OA
ENDROOT
BRANCH   1   2
HETATM    2  C   UNL     1     -54.624  47.848   9.012  1.00  0.00     0.129 C 
HETATM    3  C   UNL     1     -54.810  46.344   9.152  1.00  0.00     0.032 C 
HETATM    4  C   UNL     1     -53.956  45.748   8.035  1.00  0.00     0.002 C 
HETATM    5  C   UNL     1     -53.782  46.852   6.992  1.00  0.00     0.002 C 
HETATM    6  C   UNL     1     -54.579  48.050   7.506  1.00  0.00     0.032 C 
ENDBRANCH   1   2
BRANCH   1   7
HETATM    7  C   UNL     1     -53.452  48.940  10.770  1.00  0.00     0.103 A 
HETATM    8  C   UNL     1     -53.128  48.308  11.967  1.00  0.00     0.047 A 
HETATM    9  C   UNL     1     -53.192  49.021  13.163  1.00  0.00    -0.049 A 
HETATM   10  C   UNL     1     -53.578  50.361  13.158  1.00  0.00     0.010 A 
HETATM   11  C   UNL     1     -53.900  50.988  11.955  1.00  0.00     0.040 A 
HETATM   12  C   UNL     1     -53.838  50.276  10.758  1.00  0.00     0.101 A 
BRANCH   9  13
HETATM   13  C   UNL     1     -52.841  48.340  14.469  1.00  0.00     0.045 C 
HETATM   14  C   UNL     1     -52.179  49.225  15.526  1.00  0.00     0.132 C 
HETATM   15  N   UNL     1     -51.498  48.292  16.378  1.00  0.00    -0.360 N 
HETATM   16  C   UNL     1     -51.268  47.072  15.756  1.00  0.00     0.218 C 
HETATM   17  H   UNL     1     -51.225  48.495  17.302  1.00  0.00     0.162 HD
HETATM   18  O   UNL     1     -50.675  46.107  16.211  1.00  0.00    -0.274 OA
HETATM   19  C   UNL     1     -51.846  47.167  14.366  1.00  0.00     0.113 C 
ENDBRANCH   9  13
BRANCH  12  20
HETATM   20  O   UNL     1     -54.157  50.899   9.589  1.00  0.00    -0.353 OA
HETATM   21  C   UNL     1     -53.866  52.293   9.499  1.00  0.00     0.210 C 
ENDBRANCH  12  20
ENDBRANCH   1   7
TORSDOF 4
ENDMDL
MODEL 4
REMARK VINA RESULT:     -20.5      2.482      3.978
REMARK  4 active torsions:
REMARK  status: ('A' for Active; 'I' for Inactive)
REMARK    1  A    between atoms: O_1  and  C_5 
REMARK    2  A    between atoms: O_1  and  C_14 
REMARK    3  A    between atoms: O_2  and  C_18 
REMARK    4  A    between atoms: C_10  and  C_13 
ROOT
HETATM    1  O   UNL     1     -52.505  45.708   9.220  1.00  0.00    -0.343 OA
ENDROOT
BRANCH   1   2
HETATM    2  C   UNL     1     -53.374  44.680   8.762  1.00  0.00     0.129 C 
HETATM    3  C   UNL     1     -54.230  44.187   9.919  1.00  0.00     0.032 C 
HETATM    4  C   UNL     1     -53.317  43.239  10.694  1.00  0.00     0.002 C 
HETATM    5  C   UNL     1     -52.238  42.785   9.712  1.00  0.00     0.002 C 
HETATM    6  C   UNL     1     -52.576  43.444   8.376  1.00  0.00     0.032 C 
ENDBRANCH   1   2
BRANCH   1   7
HETATM    7  C   UNL     1     -52.995  46.987   9.195  1.00  0.00     0.103 A 
HETATM    8  C   UNL     1     -53.258  47.637  10.397  1.00  0.00     0.047 A 
HETATM    9  C   UNL     1     -53.757  48.938  10.384  1.00  0.00    -0.049 A 
HETATM   10  C   UNL     1     -53.992  49.584   9.171  1.00  0.00     0.010 A 
HETATM   11  C   UNL     1     -53.725  48.928   7.969  1.00  0.00     0.040 A 
HETATM   12  C   UNL     1     -53.226  47.626   7.981  1.00  0.00     0.101 A 
BRANCH   9  13
HETATM   13  C   UNL     1     -54.046  49.650  11.688  1.00  0.00     0.045 C 
HETATM   14  C   UNL     1     -53.768  51.154  11.703  1.00  0.00     0.132 C 
HETATM   15  N   UNL     1     -53.603  51.460  13.095  1.00  0.00    -0.360 N 
HETATM   16  C   UNL     1     -53.286  50.340  13.853  1.00  0.00     0.218 C 
HETATM   17  H   UNL     1     -53.703  52.364  13.472  1.00  0.00     0.162 HD
HETATM   18  O   UNL     1     -53.046  50.297  15.049  1.00  0.00    -0.274 OA
HETATM   19  C   UNL     1     -53.240  49.164  12.909  1.00  0.00     0.113 C 
ENDBRANCH   9  13
BRANCH  12  20
HETATM   20  O   UNL     1     -52.971  46.995   6.801  1.00  0.00    -0.353 OA
HETATM   21  C   UNL     1     -52.727  47.821   5.665  1.00  0.00     0.210 C 
ENDBRANCH  12  20
ENDBRANCH   1   7
TORSDOF 4
ENDMDL
MODEL 5
REMARK VINA RESULT:     -20.4      2.965      4.679
REMARK  4 active torsions:
REMARK  status: ('A' for Active; 'I' for Inactive)
REMARK    1  A    between atoms: O_1  and  C_5 
REMARK    2  A    between atoms: O_1  and  C_14 
REMARK    3  A    between atoms: O_2  and  C_18 
REMARK    4  A    between atoms: C_10  and  C_13 
ROOT
HETATM    1  O   UNL     1     -53.160  44.803   9.721  1.00  0.00    -0.343 OA
ENDROOT
BRANCH   1   2
HETATM    2  C   UNL     1     -51.962  44.719   8.958  1.00  0.00     0.129 C 
HETATM    3  C   UNL     1     -52.242  43.989   7.654  1.00  0.00     0.032 C 
HETATM    4  C   UNL     1     -52.247  42.510   8.036  1.00  0.00     0.002 C 
HETATM    5  C   UNL     1     -51.447  42.400   9.334  1.00  0.00     0.002 C 
HETATM    6  C   UNL     1     -50.957  43.812   9.650  1.00  0.00     0.032 C 
ENDBRANCH   1   2
BRANCH   1   7
HETATM    7  C   UNL     1     -53.807  46.010   9.722  1.00  0.00     0.103 A 
HETATM    8  C   UNL     1     -53.294  47.054  10.485  1.00  0.00     0.047 A 
HETATM    9  C   UNL     1     -53.944  48.287  10.496  1.00  0.00    -0.049 A 
HETATM   10  C   UNL     1     -55.105  48.471   9.745  1.00  0.00     0.010 A 
HETATM   11  C   UNL     1     -55.615  47.420   8.982  1.00  0.00     0.040 A 
HETATM   12  C   UNL     1     -54.964  46.186   8.971  1.00  0.00     0.101 A 
BRANCH   9  13
HETATM   13  C   UNL     1     -53.391  49.427  11.323  1.00  0.00     0.045 C 
HETATM   14  C   UNL     1     -53.620  49.329  12.833  1.00  0.00     0.132 C 
HETATM   15  N   UNL     1     -53.504  50.686  13.287  1.00  0.00    -0.360 N 
HETATM   16  C   UNL     1     -53.699  51.608  12.266  1.00  0.00     0.218 C 
HETATM   17  H   UNL     1     -53.309  50.936  14.218  1.00  0.00     0.162 HD
HETATM   18  O   UNL     1     -53.706  52.825  12.358  1.00  0.00    -0.274 OA
HETATM   19  C   UNL     1     -53.959  50.824  11.004  1.00  0.00     0.113 C 
ENDBRANCH   9  13
BRANCH  12  20
HETATM   20  O   UNL     1     -55.473  45.168   8.223  1.00  0.00    -0.353 OA
HETATM   21  C   UNL     1     -56.347  44.254   8.882  1.00  0.00     0.210 C 
ENDBRANCH  12  20
ENDBRANCH   1   7
TORSDOF 4
ENDMDL
MODEL 6
REMARK VINA RESULT:     -20.4      1.521      1.871
REMARK  4 active torsions:
REMARK  status: ('A' for Active; 'I' for Inactive)
REMARK    1  A    between atoms: O_1  and  C_5 
REMARK    2  A    between atoms: O_1  and  C_14 
REMARK    3  A    between atoms: O_2  and  C_18 
REMARK    4  A    between atoms: C_10  and  C_13 
ROOT
HETATM    1  O   UNL     1     -53.240  47.616  10.691  1.00  0.00    -0.343 OA
ENDROOT
BRANCH   1   2
HETATM    2  C   UNL     1     -52.275  46.583  10.844  1.00  0.00     0.129 C 
HETATM    3  C   UNL     1     -51.350  46.570   9.637  1.00  0.00     0.032 C 
HETATM    4  C   UNL     1     -52.142  45.838   8.556  1.00  0.00     0.002 C 
HETATM    5  C   UNL     1     -53.185  44.993   9.286  1.00  0.00     0.002 C 
HETATM    6  C   UNL     1     -52.944  45.219  10.777  1.00  0.00     0.032 C 
ENDBRANCH   1   2
BRANCH   1   7
HETATM    7  C   UNL     1     -53.293  48.563  11.680  1.00  0.00     0.103 A 
HETATM    8  C   UNL     1     -52.944  48.207  12.979  1.00  0.00     0.047 A 
HETATM    9  C   UNL     1     -52.996  49.161  13.994  1.00  0.00    -0.049 A 
HETATM   10  C   UNL     1     -53.397  50.465  13.707  1.00  0.00     0.010 A 
HETATM   11  C   UNL     1     -53.744  50.816  12.403  1.00  0.00     0.040 A 
HETATM   12  C   UNL     1     -53.694  49.862  11.387  1.00  0.00     0.101 A 
BRANCH   9  13
HETATM   13  C   UNL     1     -52.617  48.780  15.409  1.00  0.00     0.045 C 
HETATM   14  C   UNL     1     -51.132  48.504  15.651  1.00  0.00     0.132 C 
HETATM   15  N   UNL     1     -51.122  47.690  16.834  1.00  0.00    -0.360 N 
HETATM   16  C   UNL     1     -52.343  47.070  17.064  1.00  0.00     0.218 C 
HETATM   17  H   UNL     1     -50.337  47.584  17.417  1.00  0.00     0.162 HD
HETATM   18  O   UNL     1     -52.621  46.288  17.960  1.00  0.00    -0.274 OA
HETATM   19  C   UNL     1     -53.274  47.498  15.957  1.00  0.00     0.113 C 
ENDBRANCH   9  13
BRANCH  12  20
HETATM   20  O   UNL     1     -54.038  50.216  10.117  1.00  0.00    -0.353 OA
HETATM   21  C   UNL     1     -53.934  51.598   9.780  1.00  0.00     0.210 C 
ENDBRANCH  12  20
ENDBRANCH   1   7
TORSDOF 4
ENDMDL
MODEL 7
REMARK VINA RESULT:     -19.9      1.697      2.550
REMARK  4 active torsions:
REMARK  status: ('A' for Active; 'I' for Inactive)
REMARK    1  A    between atoms: O_1  and  C_5 
REMARK    2  A    between atoms: O_1  and  C_14 
REMARK    3  A    between atoms: O_2  and  C_18 
REMARK    4  A    between atoms: C_10  and  C_13 
ROOT
HETATM    1  O   UNL     1     -52.625  46.463   9.231  1.00  0.00    -0.343 OA
ENDROOT
BRANCH   1   2
HETATM    2  C   UNL     1     -52.520  45.304  10.049  1.00  0.00     0.129 C 
HETATM    3  C   UNL     1     -51.733  44.232   9.310  1.00  0.00     0.032 C 
HETATM    4  C   UNL     1     -52.744  43.611   8.348  1.00  0.00     0.002 C 
HETATM    5  C   UNL     1     -54.126  43.912   8.925  1.00  0.00     0.002 C 
HETATM    6  C   UNL     1     -53.885  44.661  10.234  1.00  0.00     0.032 C 
ENDBRANCH   1   2
BRANCH   1   7
HETATM    7  C   UNL     1     -53.022  47.620   9.848  1.00  0.00     0.103 A 
HETATM    8  C   UNL     1     -53.012  47.686  11.238  1.00  0.00     0.047 A 
HETATM    9  C   UNL     1     -53.416  48.857  11.877  1.00  0.00    -0.049 A 
HETATM   10  C   UNL     1     -53.827  49.957  11.125  1.00  0.00     0.010 A 
HETATM   11  C   UNL     1     -53.833  49.885   9.732  1.00  0.00     0.040 A 
HETATM   12  C   UNL     1     -53.431  48.713   9.092  1.00  0.00     0.101 A 
BRANCH   9  13
HETATM   13  C   UNL     1     -53.407  48.935  13.388  1.00  0.00     0.045 C 
HETATM   14  C   UNL     1     -53.197  50.329  13.983  1.00  0.00     0.132 C 
HETATM   15  N   UNL     1     -52.711  50.067  15.308  1.00  0.00    -0.360 N 
HETATM   16  C   UNL     1     -52.173  48.793  15.437  1.00  0.00     0.218 C 
HETATM   17  H   UNL     1     -52.754  50.719  16.045  1.00  0.00     0.162 HD
HETATM   18  O   UNL     1     -51.647  48.306  16.425  1.00  0.00    -0.274 OA
HETATM   19  C   UNL     1     -52.309  48.117  14.095  1.00  0.00     0.113 C 
ENDBRANCH   9  13
BRANCH  12  20
HETATM   20  O   UNL     1     -53.443  48.654   7.731  1.00  0.00    -0.353 OA
HETATM   21  C   UNL     1     -52.179  48.622   7.072  1.00  0.00     0.210 C 
ENDBRANCH  12  20
ENDBRANCH   1   7
TORSDOF 4
ENDMDL
MODEL 8
REMARK VINA RESULT:     -19.7      2.858      6.620
REMARK  4 active torsions:
REMARK  status: ('A' for Active; 'I' for Inactive)
REMARK    1  A    between atoms: O_1  and  C_5 
REMARK    2  A    between atoms: O_1  and  C_14 
REMARK    3  A    between atoms: O_2  and  C_18 
REMARK    4  A    between atoms: C_10  and  C_13 
ROOT
HETATM    1  O   UNL     1     -52.176  47.094  14.310  1.00  0.00    -0.343 OA
ENDROOT
BRANCH   1   2
HETATM    2  C   UNL     1     -52.465  48.032  15.338  1.00  0.00     0.129 C 
HETATM    3  C   UNL     1     -51.182  48.392  16.072  1.00  0.00     0.032 C 
HETATM    4  C   UNL     1     -50.951  47.227  17.033  1.00  0.00     0.002 C 
HETATM    5  C   UNL     1     -52.312  46.562  17.235  1.00  0.00     0.002 C 
HETATM    6  C   UNL     1     -53.311  47.385  16.424  1.00  0.00     0.032 C 
ENDBRANCH   1   2
BRANCH   1   7
HETATM    7  C   UNL     1     -52.564  47.429  13.040  1.00  0.00     0.103 A 
HETATM    8  C   UNL     1     -53.106  48.689  12.807  1.00  0.00     0.047 A 
HETATM    9  C   UNL     1     -53.507  49.042  11.519  1.00  0.00    -0.049 A 
HETATM   10  C   UNL     1     -53.364  48.134  10.470  1.00  0.00     0.010 A 
HETATM   11  C   UNL     1     -52.819  46.873  10.710  1.00  0.00     0.040 A 
HETATM   12  C   UNL     1     -52.419  46.519  11.999  1.00  0.00     0.101 A 
BRANCH   9  13
HETATM   13  C   UNL     1     -54.096  50.411  11.259  1.00  0.00     0.045 C 
HETATM   14  C   UNL     1     -53.806  51.012   9.882  1.00  0.00     0.132 C 
HETATM   15  N   UNL     1     -53.986  52.423  10.078  1.00  0.00    -0.360 N 
HETATM   16  C   UNL     1     -53.884  52.792  11.413  1.00  0.00     0.218 C 
HETATM   17  H   UNL     1     -54.161  53.058   9.347  1.00  0.00     0.162 HD
HETATM   18  O   UNL     1     -53.947  53.920  11.878  1.00  0.00    -0.274 OA
HETATM   19  C   UNL     1     -53.625  51.534  12.203  1.00  0.00     0.113 C 
ENDBRANCH   9  13
BRANCH  12  20
HETATM   20  O   UNL     1     -51.891  45.283  12.221  1.00  0.00    -0.353 OA
HETATM   21  C   UNL     1     -52.472  44.192  11.509  1.00  0.00     0.210 C 
ENDBRANCH  12  20
ENDBRANCH   1   7
TORSDOF 4
ENDMDL
MODEL 9
REMARK VINA RESULT:     -19.7      2.810      6.273
REMARK  4 active torsions:
REMARK  status: ('A' for Active; 'I' for Inactive)
REMARK    1  A    between atoms: O_1  and  C_5 
REMARK    2  A    between atoms: O_1  and  C_14 
REMARK    3  A    between atoms: O_2  and  C_18 
REMARK    4  A    between atoms: C_10  and  C_13 
ROOT
HETATM    1  O   UNL     1     -53.658  49.009  13.379  1.00  0.00    -0.343 OA
ENDROOT
BRANCH   1   2
HETATM    2  C   UNL     1     -52.363  48.762  13.911  1.00  0.00     0.129 C 
HETATM    3  C   UNL     1     -52.043  47.279  13.800  1.00  0.00     0.032 C 
HETATM    4  C   UNL     1     -52.780  46.641  14.976  1.00  0.00     0.002 C 
HETATM    5  C   UNL     1     -53.004  47.755  15.998  1.00  0.00     0.002 C 
HETATM    6  C   UNL     1     -52.351  49.005  15.412  1.00  0.00     0.032 C 
ENDBRANCH   1   2
BRANCH   1   7
HETATM    7  C   UNL     1     -53.728  49.346  12.053  1.00  0.00     0.103 A 
HETATM    8  C   UNL     1     -53.753  48.336  11.097  1.00  0.00     0.047 A 
HETATM    9  C   UNL     1     -53.823  48.667   9.744  1.00  0.00    -0.049 A 
HETATM   10  C   UNL     1     -53.867  50.005   9.354  1.00  0.00     0.010 A 
HETATM   11  C   UNL     1     -53.843  51.013  10.318  1.00  0.00     0.040 A 
HETATM   12  C   UNL     1     -53.772  50.682  11.671  1.00  0.00     0.101 A 
BRANCH   9  13
HETATM   13  C   UNL     1     -53.851  47.573   8.698  1.00  0.00     0.045 C 
HETATM   14  C   UNL     1     -52.566  46.754   8.555  1.00  0.00     0.132 C 
HETATM   15  N   UNL     1     -52.655  46.206   7.231  1.00  0.00    -0.360 N 
HETATM   16  C   UNL     1     -53.529  46.915   6.418  1.00  0.00     0.218 C 
HETATM   17  H   UNL     1     -52.152  45.414   6.933  1.00  0.00     0.162 HD
HETATM   18  O   UNL     1     -53.774  46.714   5.238  1.00  0.00    -0.274 OA
HETATM   19  C   UNL     1     -54.098  48.038   7.250  1.00  0.00     0.113 C 
ENDBRANCH   9  13
BRANCH  12  20
HETATM   20  O   UNL     1     -53.747  51.676  12.603  1.00  0.00    -0.353 OA
HETATM   21  C   UNL     1     -53.639  53.014  12.120  1.00  0.00     0.210 C 
ENDBRANCH  12  20
ENDBRANCH   1   7
TORSDOF 4
ENDMDL
