MODEL 1
REMARK VINA RESULT:      -6.7      0.000      0.000
REMARK  4 active torsions:
REMARK  status: ('A' for Active; 'I' for Inactive)
REMARK    1  A    between atoms: O_1  and  C_9 
REMARK    2  A    between atoms: O_2  and  C_10 
REMARK    3  A    between atoms: C_3  and  C_5 
REMARK    4  A    between atoms: C_4  and  C_8 
ROOT
HETATM    1  O   UNL     1      10.219   7.000   6.936  1.00  0.00    -0.358 OA
HETATM    2  H   UNL     1      10.375   6.465   6.182  1.00  0.00     0.217 HD
ENDROOT
BRANCH   1   3
HETATM    3  C   UNL     1      11.036   6.900   8.022  1.00  0.00     0.099 A 
HETATM    4  C   UNL     1      12.419   6.949   7.846  1.00  0.00     0.050 A 
HETATM    5  C   UNL     1      13.247   6.846   8.952  1.00  0.00    -0.033 A 
HETATM    6  C   UNL     1      12.731   6.696  10.228  1.00  0.00     0.014 A 
HETATM    7  C   UNL     1      11.347   6.647  10.404  1.00  0.00     0.040 A 
HETATM    8  C   UNL     1      10.501   6.749   9.301  1.00  0.00     0.098 A 
BRANCH   5   9
HETATM    9  C   UNL     1      14.708   6.898   8.767  1.00  0.00     0.012 C 
HETATM   10  C   UNL     1      15.623   6.859   9.765  1.00  0.00     0.012 C 
BRANCH  10  11
HETATM   11  C   UNL     1      17.066   6.891   9.581  1.00  0.00    -0.036 A 
HETATM   12  C   UNL     1      17.906   7.043  10.683  1.00  0.00     0.011 A 
HETATM   13  C   UNL     1      19.290   7.073  10.506  1.00  0.00     0.001 A 
HETATM   14  C   UNL     1      19.832   6.950   9.227  1.00  0.00     0.000 A 
HETATM   15  C   UNL     1      18.991   6.798   8.124  1.00  0.00     0.001 A 
HETATM   16  C   UNL     1      17.608   6.768   8.301  1.00  0.00     0.011 A 
ENDBRANCH  10  11
ENDBRANCH   5   9
BRANCH   8  17
HETATM   17  O   UNL     1       9.152   6.699   9.485  1.00  0.00    -0.358 OA
HETATM   18  H   UNL     1       8.688   7.464   9.765  1.00  0.00     0.217 HD
ENDBRANCH   8  17
ENDBRANCH   1   3
TORSDOF 4
ENDMDL
MODEL 2
REMARK VINA RESULT:      -6.6      0.961      2.065
REMARK  4 active torsions:
REMARK  status: ('A' for Active; 'I' for Inactive)
REMARK    1  A    between atoms: O_1  and  C_9 
REMARK    2  A    between atoms: O_2  and  C_10 
REMARK    3  A    between atoms: C_3  and  C_5 
REMARK    4  A    between atoms: C_4  and  C_8 
ROOT
HETATM    1  O   UNL     1       9.542   6.466   9.600  1.00  0.00    -0.358 OA
HETATM    2  H   UNL     1       9.115   5.631   9.626  1.00  0.00     0.217 HD
ENDROOT
BRANCH   1   3
HETATM    3  C   UNL     1      10.745   6.596   8.975  1.00  0.00     0.099 A 
HETATM    4  C   UNL     1      11.905   6.723   9.739  1.00  0.00     0.050 A 
HETATM    5  C   UNL     1      13.127   6.856   9.100  1.00  0.00    -0.033 A 
HETATM    6  C   UNL     1      13.221   6.867   7.718  1.00  0.00     0.014 A 
HETATM    7  C   UNL     1      12.060   6.741   6.953  1.00  0.00     0.040 A 
HETATM    8  C   UNL     1      10.823   6.606   7.582  1.00  0.00     0.098 A 
BRANCH   5   9
HETATM    9  C   UNL     1      14.353   6.988   9.907  1.00  0.00     0.012 C 
HETATM   10  C   UNL     1      15.604   7.125   9.408  1.00  0.00     0.012 C 
BRANCH  10  11
HETATM   11  C   UNL     1      16.813   7.275  10.205  1.00  0.00    -0.036 A 
HETATM   12  C   UNL     1      16.768   7.961  11.418  1.00  0.00     0.011 A 
HETATM   13  C   UNL     1      17.926   8.105  12.182  1.00  0.00     0.001 A 
HETATM   14  C   UNL     1      19.129   7.562  11.731  1.00  0.00     0.000 A 
HETATM   15  C   UNL     1      19.174   6.875  10.518  1.00  0.00     0.001 A 
HETATM   16  C   UNL     1      18.016   6.731   9.755  1.00  0.00     0.011 A 
ENDBRANCH  10  11
ENDBRANCH   5   9
BRANCH   8  17
HETATM   17  O   UNL     1       9.697   6.485   6.825  1.00  0.00    -0.358 OA
HETATM   18  H   UNL     1       9.296   7.249   6.457  1.00  0.00     0.217 HD
ENDBRANCH   8  17
ENDBRANCH   1   3
TORSDOF 4
ENDMDL
MODEL 3
REMARK VINA RESULT:      -6.6      1.978      3.052
REMARK  4 active torsions:
REMARK  status: ('A' for Active; 'I' for Inactive)
REMARK    1  A    between atoms: O_1  and  C_9 
REMARK    2  A    between atoms: O_2  and  C_10 
REMARK    3  A    between atoms: C_3  and  C_5 
REMARK    4  A    between atoms: C_4  and  C_8 
ROOT
HETATM    1  O   UNL     1       9.470   6.344   9.600  1.00  0.00    -0.358 OA
HETATM    2  H   UNL     1       9.224   6.896  10.317  1.00  0.00     0.217 HD
ENDROOT
BRANCH   1   3
HETATM    3  C   UNL     1      10.674   6.519   8.989  1.00  0.00     0.099 A 
HETATM    4  C   UNL     1      11.818   6.700   9.766  1.00  0.00     0.050 A 
HETATM    5  C   UNL     1      13.041   6.879   9.140  1.00  0.00    -0.033 A 
HETATM    6  C   UNL     1      13.152   6.881   7.760  1.00  0.00     0.014 A 
HETATM    7  C   UNL     1      12.008   6.699   6.982  1.00  0.00     0.040 A 
HETATM    8  C   UNL     1      10.770   6.519   7.597  1.00  0.00     0.098 A 
BRANCH   5   9
HETATM    9  C   UNL     1      14.251   7.069   9.961  1.00  0.00     0.012 C 
HETATM   10  C   UNL     1      14.301   7.752  11.129  1.00  0.00     0.012 C 
BRANCH  10  11
HETATM   11  C   UNL     1      15.491   7.923  11.950  1.00  0.00    -0.036 A 
HETATM   12  C   UNL     1      15.376   8.004  13.336  1.00  0.00     0.011 A 
HETATM   13  C   UNL     1      16.517   8.168  14.123  1.00  0.00     0.001 A 
HETATM   14  C   UNL     1      17.772   8.250  13.520  1.00  0.00     0.000 A 
HETATM   15  C   UNL     1      17.887   8.168  12.132  1.00  0.00     0.001 A 
HETATM   16  C   UNL     1      16.746   8.004  11.347  1.00  0.00     0.011 A 
ENDBRANCH  10  11
ENDBRANCH   5   9
BRANCH   8  17
HETATM   17  O   UNL     1       9.659   6.345   6.827  1.00  0.00    -0.358 OA
HETATM   18  H   UNL     1       9.278   7.077   6.383  1.00  0.00     0.217 HD
ENDBRANCH   8  17
ENDBRANCH   1   3
TORSDOF 4
ENDMDL
MODEL 4
REMARK VINA RESULT:      -6.5      3.841      7.100
REMARK  4 active torsions:
REMARK  status: ('A' for Active; 'I' for Inactive)
REMARK    1  A    between atoms: O_1  and  C_9 
REMARK    2  A    between atoms: O_2  and  C_10 
REMARK    3  A    between atoms: C_3  and  C_5 
REMARK    4  A    between atoms: C_4  and  C_8 
ROOT
HETATM    1  O   UNL     1      20.288   6.748   7.717  1.00  0.00    -0.358 OA
HETATM    2  H   UNL     1      20.709   5.915   7.633  1.00  0.00     0.217 HD
ENDROOT
BRANCH   1   3
HETATM    3  C   UNL     1      19.253   6.904   8.590  1.00  0.00     0.099 A 
HETATM    4  C   UNL     1      17.942   6.815   8.122  1.00  0.00     0.050 A 
HETATM    5  C   UNL     1      16.893   6.974   9.012  1.00  0.00    -0.033 A 
HETATM    6  C   UNL     1      17.118   7.220  10.357  1.00  0.00     0.014 A 
HETATM    7  C   UNL     1      18.429   7.309  10.825  1.00  0.00     0.040 A 
HETATM    8  C   UNL     1      19.496   7.151   9.941  1.00  0.00     0.098 A 
BRANCH   5   9
HETATM    9  C   UNL     1      15.507   6.879   8.519  1.00  0.00     0.012 C 
HETATM   10  C   UNL     1      14.400   6.879   9.298  1.00  0.00     0.012 C 
BRANCH  10  11
HETATM   11  C   UNL     1      13.031   6.805   8.810  1.00  0.00    -0.036 A 
HETATM   12  C   UNL     1      11.983   6.581   9.701  1.00  0.00     0.011 A 
HETATM   13  C   UNL     1      10.671   6.510   9.233  1.00  0.00     0.001 A 
HETATM   14  C   UNL     1      10.408   6.665   7.872  1.00  0.00     0.000 A 
HETATM   15  C   UNL     1      11.457   6.890   6.979  1.00  0.00     0.001 A 
HETATM   16  C   UNL     1      12.768   6.961   7.448  1.00  0.00     0.011 A 
ENDBRANCH  10  11
ENDBRANCH   5   9
BRANCH   8  17
HETATM   17  O   UNL     1      20.772   7.242  10.410  1.00  0.00    -0.358 OA
HETATM   18  H   UNL     1      21.194   8.078  10.462  1.00  0.00     0.217 HD
ENDBRANCH   8  17
ENDBRANCH   1   3
TORSDOF 4
ENDMDL
MODEL 5
REMARK VINA RESULT:      -6.5      0.694      2.089
REMARK  4 active torsions:
REMARK  status: ('A' for Active; 'I' for Inactive)
REMARK    1  A    between atoms: O_1  and  C_9 
REMARK    2  A    between atoms: O_2  and  C_10 
REMARK    3  A    between atoms: C_3  and  C_5 
REMARK    4  A    between atoms: C_4  and  C_8 
ROOT
HETATM    1  O   UNL     1      10.814   6.501  11.672  1.00  0.00    -0.358 OA
HETATM    2  H   UNL     1      10.179   7.116  11.985  1.00  0.00     0.217 HD
ENDROOT
BRANCH   1   3
HETATM    3  C   UNL     1      11.343   6.645  10.424  1.00  0.00     0.099 A 
HETATM    4  C   UNL     1      12.728   6.678  10.267  1.00  0.00     0.050 A 
HETATM    5  C   UNL     1      13.263   6.826   8.998  1.00  0.00    -0.033 A 
HETATM    6  C   UNL     1      12.451   6.942   7.882  1.00  0.00     0.014 A 
HETATM    7  C   UNL     1      11.065   6.909   8.039  1.00  0.00     0.040 A 
HETATM    8  C   UNL     1      10.512   6.761   9.310  1.00  0.00     0.098 A 
BRANCH   5   9
HETATM    9  C   UNL     1      14.727   6.860   8.831  1.00  0.00     0.012 C 
HETATM   10  C   UNL     1      15.626   6.923   9.841  1.00  0.00     0.012 C 
BRANCH  10  11
HETATM   11  C   UNL     1      17.072   6.936   9.677  1.00  0.00    -0.036 A 
HETATM   12  C   UNL     1      17.632   6.790   8.409  1.00  0.00     0.011 A 
HETATM   13  C   UNL     1      19.018   6.803   8.252  1.00  0.00     0.001 A 
HETATM   14  C   UNL     1      19.843   6.963   9.364  1.00  0.00     0.000 A 
HETATM   15  C   UNL     1      19.284   7.109  10.634  1.00  0.00     0.001 A 
HETATM   16  C   UNL     1      17.898   7.097  10.790  1.00  0.00     0.011 A 
ENDBRANCH  10  11
ENDBRANCH   5   9
BRANCH   8  17
HETATM   17  O   UNL     1       9.157   6.732   9.451  1.00  0.00    -0.358 OA
HETATM   18  H   UNL     1       8.777   6.588  10.296  1.00  0.00     0.217 HD
ENDBRANCH   8  17
ENDBRANCH   1   3
TORSDOF 4
ENDMDL
MODEL 6
REMARK VINA RESULT:      -6.5      4.664      6.538
REMARK  4 active torsions:
REMARK  status: ('A' for Active; 'I' for Inactive)
REMARK    1  A    between atoms: O_1  and  C_9 
REMARK    2  A    between atoms: O_2  and  C_10 
REMARK    3  A    between atoms: C_3  and  C_5 
REMARK    4  A    between atoms: C_4  and  C_8 
ROOT
HETATM    1  O   UNL     1      11.898   6.462  16.647  1.00  0.00    -0.358 OA
HETATM    2  H   UNL     1      11.866   5.618  17.054  1.00  0.00     0.217 HD
ENDROOT
BRANCH   1   3
HETATM    3  C   UNL     1      13.037   6.874  16.022  1.00  0.00     0.099 A 
HETATM    4  C   UNL     1      13.080   6.908  14.629  1.00  0.00     0.050 A 
HETATM    5  C   UNL     1      14.240   7.327  13.997  1.00  0.00    -0.033 A 
HETATM    6  C   UNL     1      15.357   7.712  14.720  1.00  0.00     0.014 A 
HETATM    7  C   UNL     1      15.313   7.678  16.115  1.00  0.00     0.040 A 
HETATM    8  C   UNL     1      14.153   7.258  16.765  1.00  0.00     0.098 A 
BRANCH   5   9
HETATM    9  C   UNL     1      14.286   7.365  12.524  1.00  0.00     0.012 C 
HETATM   10  C   UNL     1      13.373   6.799  11.701  1.00  0.00     0.012 C 
BRANCH  10  11
HETATM   11  C   UNL     1      13.407   6.853  10.247  1.00  0.00    -0.036 A 
HETATM   12  C   UNL     1      12.220   6.815   9.519  1.00  0.00     0.011 A 
HETATM   13  C   UNL     1      12.253   6.867   8.125  1.00  0.00     0.001 A 
HETATM   14  C   UNL     1      13.476   6.958   7.461  1.00  0.00     0.000 A 
HETATM   15  C   UNL     1      14.665   6.998   8.189  1.00  0.00     0.001 A 
HETATM   16  C   UNL     1      14.631   6.945   9.583  1.00  0.00     0.011 A 
ENDBRANCH  10  11
ENDBRANCH   5   9
BRANCH   8  17
HETATM   17  O   UNL     1      14.124   7.227  18.126  1.00  0.00    -0.358 OA
HETATM   18  H   UNL     1      14.103   6.404  18.576  1.00  0.00     0.217 HD
ENDBRANCH   8  17
ENDBRANCH   1   3
TORSDOF 4
ENDMDL
MODEL 7
REMARK VINA RESULT:      -6.5      3.106      4.655
REMARK  4 active torsions:
REMARK  status: ('A' for Active; 'I' for Inactive)
REMARK    1  A    between atoms: O_1  and  C_9 
REMARK    2  A    between atoms: O_2  and  C_10 
REMARK    3  A    between atoms: C_3  and  C_5 
REMARK    4  A    between atoms: C_4  and  C_8 
ROOT
HETATM    1  O   UNL     1       9.700   6.466   8.333  1.00  0.00    -0.358 OA
HETATM    2  H   UNL     1       9.265   6.533   7.506  1.00  0.00     0.217 HD
ENDROOT
BRANCH   1   3
HETATM    3  C   UNL     1      11.051   6.626   8.408  1.00  0.00     0.099 A 
HETATM    4  C   UNL     1      11.688   6.507   9.643  1.00  0.00     0.050 A 
HETATM    5  C   UNL     1      13.062   6.671   9.715  1.00  0.00    -0.033 A 
HETATM    6  C   UNL     1      13.816   6.950   8.587  1.00  0.00     0.014 A 
HETATM    7  C   UNL     1      13.178   7.069   7.351  1.00  0.00     0.040 A 
HETATM    8  C   UNL     1      11.796   6.907   7.263  1.00  0.00     0.098 A 
BRANCH   5   9
HETATM    9  C   UNL     1      13.737   6.544  11.019  1.00  0.00     0.012 C 
HETATM   10  C   UNL     1      13.172   6.046  12.144  1.00  0.00     0.012 C 
BRANCH  10  11
HETATM   11  C   UNL     1      13.844   5.902  13.427  1.00  0.00    -0.036 A 
HETATM   12  C   UNL     1      13.206   6.308  14.598  1.00  0.00     0.011 A 
HETATM   13  C   UNL     1      13.851   6.170  15.828  1.00  0.00     0.001 A 
HETATM   14  C   UNL     1      15.133   5.626  15.884  1.00  0.00     0.000 A 
HETATM   15  C   UNL     1      15.772   5.219  14.713  1.00  0.00     0.001 A 
HETATM   16  C   UNL     1      15.127   5.357  13.484  1.00  0.00     0.011 A 
ENDBRANCH  10  11
ENDBRANCH   5   9
BRANCH   8  17
HETATM   17  O   UNL     1      11.184   7.027   6.051  1.00  0.00    -0.358 OA
HETATM   18  H   UNL     1      11.015   6.264   5.534  1.00  0.00     0.217 HD
ENDBRANCH   8  17
ENDBRANCH   1   3
TORSDOF 4
ENDMDL
MODEL 8
REMARK VINA RESULT:      -6.4      3.141      4.718
REMARK  4 active torsions:
REMARK  status: ('A' for Active; 'I' for Inactive)
REMARK    1  A    between atoms: O_1  and  C_9 
REMARK    2  A    between atoms: O_2  and  C_10 
REMARK    3  A    between atoms: C_3  and  C_5 
REMARK    4  A    between atoms: C_4  and  C_8 
ROOT
HETATM    1  O   UNL     1       9.730   6.581   8.465  1.00  0.00    -0.358 OA
HETATM    2  H   UNL     1       9.265   6.847   7.696  1.00  0.00     0.217 HD
ENDROOT
BRANCH   1   3
HETATM    3  C   UNL     1      11.086   6.707   8.518  1.00  0.00     0.099 A 
HETATM    4  C   UNL     1      11.746   6.502   9.730  1.00  0.00     0.050 A 
HETATM    5  C   UNL     1      13.125   6.632   9.780  1.00  0.00    -0.033 A 
HETATM    6  C   UNL     1      13.860   6.961   8.654  1.00  0.00     0.014 A 
HETATM    7  C   UNL     1      13.200   7.166   7.442  1.00  0.00     0.040 A 
HETATM    8  C   UNL     1      11.813   7.039   7.375  1.00  0.00     0.098 A 
BRANCH   5   9
HETATM    9  C   UNL     1      13.823   6.415  11.060  1.00  0.00     0.012 C 
HETATM   10  C   UNL     1      13.218   6.227  12.257  1.00  0.00     0.012 C 
BRANCH  10  11
HETATM   11  C   UNL     1      13.908   5.993  13.517  1.00  0.00    -0.036 A 
HETATM   12  C   UNL     1      15.172   5.405  13.521  1.00  0.00     0.011 A 
HETATM   13  C   UNL     1      15.833   5.180  14.729  1.00  0.00     0.001 A 
HETATM   14  C   UNL     1      15.229   5.545  15.932  1.00  0.00     0.000 A 
HETATM   15  C   UNL     1      13.964   6.134  15.928  1.00  0.00     0.001 A 
HETATM   16  C   UNL     1      13.304   6.358  14.720  1.00  0.00     0.011 A 
ENDBRANCH  10  11
ENDBRANCH   5   9
BRANCH   8  17
HETATM   17  O   UNL     1      11.179   7.243   6.187  1.00  0.00    -0.358 OA
HETATM   18  H   UNL     1      10.849   8.094   5.972  1.00  0.00     0.217 HD
ENDBRANCH   8  17
ENDBRANCH   1   3
TORSDOF 4
ENDMDL
MODEL 9
REMARK VINA RESULT:      -6.3      4.511      6.740
REMARK  4 active torsions:
REMARK  status: ('A' for Active; 'I' for Inactive)
REMARK    1  A    between atoms: O_1  and  C_9 
REMARK    2  A    between atoms: O_2  and  C_10 
REMARK    3  A    between atoms: C_3  and  C_5 
REMARK    4  A    between atoms: C_4  and  C_8 
ROOT
HETATM    1  O   UNL     1      11.916   6.866  16.313  1.00  0.00    -0.358 OA
HETATM    2  H   UNL     1      11.950   6.575  17.203  1.00  0.00     0.217 HD
ENDROOT
BRANCH   1   3
HETATM    3  C   UNL     1      12.905   6.513  15.444  1.00  0.00     0.099 A 
HETATM    4  C   UNL     1      12.631   6.465  14.077  1.00  0.00     0.050 A 
HETATM    5  C   UNL     1      13.638   6.105  13.197  1.00  0.00    -0.033 A 
HETATM    6  C   UNL     1      14.910   5.791  13.645  1.00  0.00     0.014 A 
HETATM    7  C   UNL     1      15.184   5.839  15.012  1.00  0.00     0.040 A 
HETATM    8  C   UNL     1      14.181   6.200  15.911  1.00  0.00     0.098 A 
BRANCH   5   9
HETATM    9  C   UNL     1      13.350   6.056  11.752  1.00  0.00     0.012 C 
HETATM   10  C   UNL     1      12.352   6.729  11.132  1.00  0.00     0.012 C 
BRANCH  10  11
HETATM   11  C   UNL     1      12.080   6.696   9.703  1.00  0.00    -0.036 A 
HETATM   12  C   UNL     1      13.092   6.997   8.793  1.00  0.00     0.011 A 
HETATM   13  C   UNL     1      12.831   6.965   7.423  1.00  0.00     0.001 A 
HETATM   14  C   UNL     1      11.557   6.631   6.964  1.00  0.00     0.000 A 
HETATM   15  C   UNL     1      10.544   6.328   7.874  1.00  0.00     0.001 A 
HETATM   16  C   UNL     1      10.806   6.360   9.244  1.00  0.00     0.011 A 
ENDBRANCH  10  11
ENDBRANCH   5   9
BRANCH   8  17
HETATM   17  O   UNL     1      14.460   6.241  17.244  1.00  0.00    -0.358 OA
HETATM   18  H   UNL     1      15.163   6.775  17.559  1.00  0.00     0.217 HD
ENDBRANCH   8  17
ENDBRANCH   1   3
TORSDOF 4
ENDMDL
