MODEL 1
REMARK VINA RESULT:      -6.7      0.000      0.000
REMARK  4 active torsions:
REMARK  status: ('A' for Active; 'I' for Inactive)
REMARK    1  A    between atoms: O_1  and  C_9 
REMARK    2  A    between atoms: O_2  and  C_10 
REMARK    3  A    between atoms: C_3  and  C_5 
REMARK    4  A    between atoms: C_4  and  C_8 
ROOT
HETATM    1  O   UNL     1      12.697   4.538   9.195  1.00  0.00    -0.358 OA
HETATM    2  H   UNL     1      12.644   3.665   8.857  1.00  0.00     0.217 HD
ENDROOT
BRANCH   1   3
HETATM    3  C   UNL     1      13.303   4.767  10.394  1.00  0.00     0.099 A 
HETATM    4  C   UNL     1      14.654   5.113  10.425  1.00  0.00     0.050 A 
HETATM    5  C   UNL     1      15.266   5.344  11.646  1.00  0.00    -0.033 A 
HETATM    6  C   UNL     1      14.565   5.240  12.836  1.00  0.00     0.014 A 
HETATM    7  C   UNL     1      13.214   4.895  12.805  1.00  0.00     0.040 A 
HETATM    8  C   UNL     1      12.583   4.658  11.584  1.00  0.00     0.098 A 
BRANCH   5   9
HETATM    9  C   UNL     1      16.694   5.710  11.680  1.00  0.00     0.012 C 
HETATM   10  C   UNL     1      17.461   5.756  12.794  1.00  0.00     0.012 C 
BRANCH  10  11
HETATM   11  C   UNL     1      18.875   6.098  12.825  1.00  0.00    -0.036 A 
HETATM   12  C   UNL     1      19.660   5.921  11.687  1.00  0.00     0.011 A 
HETATM   13  C   UNL     1      21.016   6.250  11.716  1.00  0.00     0.001 A 
HETATM   14  C   UNL     1      21.585   6.755  12.885  1.00  0.00     0.000 A 
HETATM   15  C   UNL     1      20.799   6.933  14.024  1.00  0.00     0.001 A 
HETATM   16  C   UNL     1      19.444   6.605  13.994  1.00  0.00     0.011 A 
ENDBRANCH  10  11
ENDBRANCH   5   9
BRANCH   8  17
HETATM   17  O   UNL     1      11.264   4.320  11.567  1.00  0.00    -0.358 OA
HETATM   18  H   UNL     1      10.982   3.556  11.102  1.00  0.00     0.217 HD
ENDBRANCH   8  17
ENDBRANCH   1   3
TORSDOF 4
ENDMDL
MODEL 2
REMARK VINA RESULT:      -6.6      2.253      3.334
REMARK  4 active torsions:
REMARK  status: ('A' for Active; 'I' for Inactive)
REMARK    1  A    between atoms: O_1  and  C_9 
REMARK    2  A    between atoms: O_2  and  C_10 
REMARK    3  A    between atoms: C_3  and  C_5 
REMARK    4  A    between atoms: C_4  and  C_8 
ROOT
HETATM    1  O   UNL     1      11.476   4.072  11.855  1.00  0.00    -0.358 OA
HETATM    2  H   UNL     1      11.267   3.165  11.972  1.00  0.00     0.217 HD
ENDROOT
BRANCH   1   3
HETATM    3  C   UNL     1      12.724   4.435  11.447  1.00  0.00     0.099 A 
HETATM    4  C   UNL     1      13.605   5.009  12.363  1.00  0.00     0.050 A 
HETATM    5  C   UNL     1      14.873   5.379  11.943  1.00  0.00    -0.033 A 
HETATM    6  C   UNL     1      15.284   5.189  10.634  1.00  0.00     0.014 A 
HETATM    7  C   UNL     1      14.403   4.615   9.718  1.00  0.00     0.040 A 
HETATM    8  C   UNL     1      13.123   4.238  10.125  1.00  0.00     0.098 A 
BRANCH   5   9
HETATM    9  C   UNL     1      15.805   5.985  12.911  1.00  0.00     0.012 C 
HETATM   10  C   UNL     1      15.442   6.646  14.035  1.00  0.00     0.012 C 
BRANCH  10  11
HETATM   11  C   UNL     1      16.362   7.227  15.001  1.00  0.00    -0.036 A 
HETATM   12  C   UNL     1      17.708   7.383  14.675  1.00  0.00     0.011 A 
HETATM   13  C   UNL     1      18.591   7.940  15.600  1.00  0.00     0.001 A 
HETATM   14  C   UNL     1      18.125   8.342  16.852  1.00  0.00     0.000 A 
HETATM   15  C   UNL     1      16.778   8.186  17.179  1.00  0.00     0.001 A 
HETATM   16  C   UNL     1      15.896   7.629  16.253  1.00  0.00     0.011 A 
ENDBRANCH  10  11
ENDBRANCH   5   9
BRANCH   8  17
HETATM   17  O   UNL     1      12.271   3.680   9.220  1.00  0.00    -0.358 OA
HETATM   18  H   UNL     1      12.097   4.116   8.409  1.00  0.00     0.217 HD
ENDBRANCH   8  17
ENDBRANCH   1   3
TORSDOF 4
ENDMDL
MODEL 3
REMARK VINA RESULT:      -6.6      0.977      2.067
REMARK  4 active torsions:
REMARK  status: ('A' for Active; 'I' for Inactive)
REMARK    1  A    between atoms: O_1  and  C_9 
REMARK    2  A    between atoms: O_2  and  C_10 
REMARK    3  A    between atoms: C_3  and  C_5 
REMARK    4  A    between atoms: C_4  and  C_8 
ROOT
HETATM    1  O   UNL     1      11.525   4.308  11.799  1.00  0.00    -0.358 OA
HETATM    2  H   UNL     1      11.176   4.809  12.510  1.00  0.00     0.217 HD
ENDROOT
BRANCH   1   3
HETATM    3  C   UNL     1      12.785   4.557  11.345  1.00  0.00     0.099 A 
HETATM    4  C   UNL     1      13.741   5.067  12.223  1.00  0.00     0.050 A 
HETATM    5  C   UNL     1      15.022   5.320  11.757  1.00  0.00    -0.033 A 
HETATM    6  C   UNL     1      15.372   5.077  10.439  1.00  0.00     0.014 A 
HETATM    7  C   UNL     1      14.415   4.566   9.561  1.00  0.00     0.040 A 
HETATM    8  C   UNL     1      13.122   4.307  10.015  1.00  0.00     0.098 A 
BRANCH   5   9
HETATM    9  C   UNL     1      16.033   5.858  12.684  1.00  0.00     0.012 C 
HETATM   10  C   UNL     1      17.351   5.995  12.406  1.00  0.00     0.012 C 
BRANCH  10  11
HETATM   11  C   UNL     1      18.347   6.545  13.315  1.00  0.00    -0.036 A 
HETATM   12  C   UNL     1      19.695   6.240  13.139  1.00  0.00     0.011 A 
HETATM   13  C   UNL     1      20.650   6.768  14.009  1.00  0.00     0.001 A 
HETATM   14  C   UNL     1      20.253   7.600  15.056  1.00  0.00     0.000 A 
HETATM   15  C   UNL     1      18.903   7.906  15.232  1.00  0.00     0.001 A 
HETATM   16  C   UNL     1      17.950   7.378  14.361  1.00  0.00     0.011 A 
ENDBRANCH  10  11
ENDBRANCH   5   9
BRANCH   8  17
HETATM   17  O   UNL     1      12.196   3.810   9.148  1.00  0.00    -0.358 OA
HETATM   18  H   UNL     1      11.742   3.015   9.351  1.00  0.00     0.217 HD
ENDBRANCH   8  17
ENDBRANCH   1   3
TORSDOF 4
ENDMDL
MODEL 4
REMARK VINA RESULT:      -6.5      3.812      7.091
REMARK  4 active torsions:
REMARK  status: ('A' for Active; 'I' for Inactive)
REMARK    1  A    between atoms: O_1  and  C_9 
REMARK    2  A    between atoms: O_2  and  C_10 
REMARK    3  A    between atoms: C_3  and  C_5 
REMARK    4  A    between atoms: C_4  and  C_8 
ROOT
HETATM    1  O   UNL     1      22.280   6.281  11.708  1.00  0.00    -0.358 OA
HETATM    2  H   UNL     1      22.323   5.802  10.903  1.00  0.00     0.217 HD
ENDROOT
BRANCH   1   3
HETATM    3  C   UNL     1      21.086   6.434  12.347  1.00  0.00     0.099 A 
HETATM    4  C   UNL     1      19.910   6.047  11.704  1.00  0.00     0.050 A 
HETATM    5  C   UNL     1      18.698   6.204  12.357  1.00  0.00    -0.033 A 
HETATM    6  C   UNL     1      18.630   6.737  13.633  1.00  0.00     0.014 A 
HETATM    7  C   UNL     1      19.806   7.124  14.277  1.00  0.00     0.040 A 
HETATM    8  C   UNL     1      21.034   6.972  13.633  1.00  0.00     0.098 A 
BRANCH   5   9
HETATM    9  C   UNL     1      17.455   5.795  11.679  1.00  0.00     0.012 C 
HETATM   10  C   UNL     1      16.267   5.580  12.292  1.00  0.00     0.012 C 
BRANCH  10  11
HETATM   11  C   UNL     1      15.035   5.195  11.619  1.00  0.00    -0.036 A 
HETATM   12  C   UNL     1      15.000   5.097  10.230  1.00  0.00     0.011 A 
HETATM   13  C   UNL     1      13.819   4.728   9.585  1.00  0.00     0.001 A 
HETATM   14  C   UNL     1      12.673   4.457  10.333  1.00  0.00     0.000 A 
HETATM   15  C   UNL     1      12.708   4.555  11.724  1.00  0.00     0.001 A 
HETATM   16  C   UNL     1      13.889   4.924  12.368  1.00  0.00     0.011 A 
ENDBRANCH  10  11
ENDBRANCH   5   9
BRANCH   8  17
HETATM   17  O   UNL     1      22.175   7.355  14.270  1.00  0.00    -0.358 OA
HETATM   18  H   UNL     1      22.133   7.697  15.142  1.00  0.00     0.217 HD
ENDBRANCH   8  17
ENDBRANCH   1   3
TORSDOF 4
ENDMDL
MODEL 5
REMARK VINA RESULT:      -6.5      4.651      6.474
REMARK  4 active torsions:
REMARK  status: ('A' for Active; 'I' for Inactive)
REMARK    1  A    between atoms: O_1  and  C_9 
REMARK    2  A    between atoms: O_2  and  C_10 
REMARK    3  A    between atoms: C_3  and  C_5 
REMARK    4  A    between atoms: C_4  and  C_8 
ROOT
HETATM    1  O   UNL     1      12.288   6.102  18.854  1.00  0.00    -0.358 OA
HETATM    2  H   UNL     1      11.627   6.173  18.193  1.00  0.00     0.217 HD
ENDROOT
BRANCH   1   3
HETATM    3  C   UNL     1      13.600   6.014  18.496  1.00  0.00     0.099 A 
HETATM    4  C   UNL     1      13.940   5.958  17.145  1.00  0.00     0.050 A 
HETATM    5  C   UNL     1      15.276   5.868  16.785  1.00  0.00    -0.033 A 
HETATM    6  C   UNL     1      16.279   5.833  17.739  1.00  0.00     0.014 A 
HETATM    7  C   UNL     1      15.939   5.889  19.091  1.00  0.00     0.040 A 
HETATM    8  C   UNL     1      14.599   5.979  19.469  1.00  0.00     0.098 A 
BRANCH   5   9
HETATM    9  C   UNL     1      15.636   5.810  15.357  1.00  0.00     0.012 C 
HETATM   10  C   UNL     1      14.806   5.427  14.358  1.00  0.00     0.012 C 
BRANCH  10  11
HETATM   11  C   UNL     1      15.156   5.388  12.946  1.00  0.00    -0.036 A 
HETATM   12  C   UNL     1      14.187   5.073  11.996  1.00  0.00     0.011 A 
HETATM   13  C   UNL     1      14.522   5.037  10.642  1.00  0.00     0.001 A 
HETATM   14  C   UNL     1      15.828   5.316  10.240  1.00  0.00     0.000 A 
HETATM   15  C   UNL     1      16.798   5.633  11.191  1.00  0.00     0.001 A 
HETATM   16  C   UNL     1      16.462   5.669  12.545  1.00  0.00     0.011 A 
ENDBRANCH  10  11
ENDBRANCH   5   9
BRANCH   8  17
HETATM   17  O   UNL     1      14.279   6.031  20.792  1.00  0.00    -0.358 OA
HETATM   18  H   UNL     1      14.182   5.238  21.282  1.00  0.00     0.217 HD
ENDBRANCH   8  17
ENDBRANCH   1   3
TORSDOF 4
ENDMDL
MODEL 6
REMARK VINA RESULT:      -6.5      4.810      6.639
REMARK  4 active torsions:
REMARK  status: ('A' for Active; 'I' for Inactive)
REMARK    1  A    between atoms: O_1  and  C_9 
REMARK    2  A    between atoms: O_2  and  C_10 
REMARK    3  A    between atoms: C_3  and  C_5 
REMARK    4  A    between atoms: C_4  and  C_8 
ROOT
HETATM    1  O   UNL     1      12.288   6.088  19.122  1.00  0.00    -0.358 OA
HETATM    2  H   UNL     1      12.053   6.039  20.028  1.00  0.00     0.217 HD
ENDROOT
BRANCH   1   3
HETATM    3  C   UNL     1      13.590   5.944  18.748  1.00  0.00     0.099 A 
HETATM    4  C   UNL     1      13.916   5.931  17.392  1.00  0.00     0.050 A 
HETATM    5  C   UNL     1      15.242   5.784  17.015  1.00  0.00    -0.033 A 
HETATM    6  C   UNL     1      16.249   5.649  17.956  1.00  0.00     0.014 A 
HETATM    7  C   UNL     1      15.922   5.661  19.313  1.00  0.00     0.040 A 
HETATM    8  C   UNL     1      14.593   5.809  19.708  1.00  0.00     0.098 A 
BRANCH   5   9
HETATM    9  C   UNL     1      15.587   5.772  15.582  1.00  0.00     0.012 C 
HETATM   10  C   UNL     1      14.771   5.352  14.586  1.00  0.00     0.012 C 
BRANCH  10  11
HETATM   11  C   UNL     1      15.105   5.359  13.170  1.00  0.00    -0.036 A 
HETATM   12  C   UNL     1      16.397   5.683  12.760  1.00  0.00     0.011 A 
HETATM   13  C   UNL     1      16.718   5.689  11.402  1.00  0.00     0.001 A 
HETATM   14  C   UNL     1      15.744   5.370  10.455  1.00  0.00     0.000 A 
HETATM   15  C   UNL     1      14.451   5.045  10.866  1.00  0.00     0.001 A 
HETATM   16  C   UNL     1      14.131   5.039  12.223  1.00  0.00     0.011 A 
ENDBRANCH  10  11
ENDBRANCH   5   9
BRANCH   8  17
HETATM   17  O   UNL     1      14.286   5.818  21.035  1.00  0.00    -0.358 OA
HETATM   18  H   UNL     1      14.346   6.615  21.524  1.00  0.00     0.217 HD
ENDBRANCH   8  17
ENDBRANCH   1   3
TORSDOF 4
ENDMDL
MODEL 7
REMARK VINA RESULT:      -6.5      3.117      4.754
REMARK  4 active torsions:
REMARK  status: ('A' for Active; 'I' for Inactive)
REMARK    1  A    between atoms: O_1  and  C_9 
REMARK    2  A    between atoms: O_2  and  C_10 
REMARK    3  A    between atoms: C_3  and  C_5 
REMARK    4  A    between atoms: C_4  and  C_8 
ROOT
HETATM    1  O   UNL     1      11.920   4.251  10.558  1.00  0.00    -0.358 OA
HETATM    2  H   UNL     1      11.607   4.249   9.674  1.00  0.00     0.217 HD
ENDROOT
BRANCH   1   3
HETATM    3  C   UNL     1      13.199   4.635  10.827  1.00  0.00     0.099 A 
HETATM    4  C   UNL     1      13.581   4.873  12.147  1.00  0.00     0.050 A 
HETATM    5  C   UNL     1      14.882   5.264  12.416  1.00  0.00    -0.033 A 
HETATM    6  C   UNL     1      15.812   5.424  11.402  1.00  0.00     0.014 A 
HETATM    7  C   UNL     1      15.430   5.186  10.081  1.00  0.00     0.040 A 
HETATM    8  C   UNL     1      14.124   4.791   9.794  1.00  0.00     0.098 A 
BRANCH   5   9
HETATM    9  C   UNL     1      15.287   5.514  13.811  1.00  0.00     0.012 C 
HETATM   10  C   UNL     1      14.727   4.938  14.901  1.00  0.00     0.012 C 
BRANCH  10  11
HETATM   11  C   UNL     1      15.139   5.170  16.277  1.00  0.00    -0.036 A 
HETATM   12  C   UNL     1      14.227   5.671  17.204  1.00  0.00     0.011 A 
HETATM   13  C   UNL     1      14.622   5.893  18.523  1.00  0.00     0.001 A 
HETATM   14  C   UNL     1      15.931   5.614  18.914  1.00  0.00     0.000 A 
HETATM   15  C   UNL     1      16.845   5.112  17.987  1.00  0.00     0.001 A 
HETATM   16  C   UNL     1      16.449   4.890  16.668  1.00  0.00     0.011 A 
ENDBRANCH  10  11
ENDBRANCH   5   9
BRANCH   8  17
HETATM   17  O   UNL     1      13.763   4.564   8.501  1.00  0.00    -0.358 OA
HETATM   18  H   UNL     1      13.832   5.251   7.867  1.00  0.00     0.217 HD
ENDBRANCH   8  17
ENDBRANCH   1   3
TORSDOF 4
ENDMDL
MODEL 8
REMARK VINA RESULT:      -6.4      0.818      1.721
REMARK  4 active torsions:
REMARK  status: ('A' for Active; 'I' for Inactive)
REMARK    1  A    between atoms: O_1  and  C_9 
REMARK    2  A    between atoms: O_2  and  C_10 
REMARK    3  A    between atoms: C_3  and  C_5 
REMARK    4  A    between atoms: C_4  and  C_8 
ROOT
HETATM    1  O   UNL     1      12.204   4.356  13.137  1.00  0.00    -0.358 OA
HETATM    2  H   UNL     1      11.463   4.927  13.186  1.00  0.00     0.217 HD
ENDROOT
BRANCH   1   3
HETATM    3  C   UNL     1      13.253   4.670  12.326  1.00  0.00     0.099 A 
HETATM    4  C   UNL     1      14.457   5.087  12.893  1.00  0.00     0.050 A 
HETATM    5  C   UNL     1      15.521   5.407  12.066  1.00  0.00    -0.033 A 
HETATM    6  C   UNL     1      15.415   5.321  10.687  1.00  0.00     0.014 A 
HETATM    7  C   UNL     1      14.210   4.904  10.120  1.00  0.00     0.040 A 
HETATM    8  C   UNL     1      13.130   4.579  10.940  1.00  0.00     0.098 A 
BRANCH   5   9
HETATM    9  C   UNL     1      16.794   5.847  12.664  1.00  0.00     0.012 C 
HETATM   10  C   UNL     1      18.004   5.781  12.059  1.00  0.00     0.012 C 
BRANCH  10  11
HETATM   11  C   UNL     1      19.258   6.234  12.643  1.00  0.00    -0.036 A 
HETATM   12  C   UNL     1      20.453   6.067  11.944  1.00  0.00     0.011 A 
HETATM   13  C   UNL     1      21.655   6.502  12.503  1.00  0.00     0.001 A 
HETATM   14  C   UNL     1      21.661   7.103  13.762  1.00  0.00     0.000 A 
HETATM   15  C   UNL     1      20.465   7.270  14.461  1.00  0.00     0.001 A 
HETATM   16  C   UNL     1      19.264   6.836  13.901  1.00  0.00     0.011 A 
ENDBRANCH  10  11
ENDBRANCH   5   9
BRANCH   8  17
HETATM   17  O   UNL     1      11.958   4.174  10.374  1.00  0.00    -0.358 OA
HETATM   18  H   UNL     1      11.693   4.524   9.546  1.00  0.00     0.217 HD
ENDBRANCH   8  17
ENDBRANCH   1   3
TORSDOF 4
ENDMDL
MODEL 9
REMARK VINA RESULT:      -6.3      3.540      4.870
REMARK  4 active torsions:
REMARK  status: ('A' for Active; 'I' for Inactive)
REMARK    1  A    between atoms: O_1  and  C_9 
REMARK    2  A    between atoms: O_2  and  C_10 
REMARK    3  A    between atoms: C_3  and  C_5 
REMARK    4  A    between atoms: C_4  and  C_8 
ROOT
HETATM    1  O   UNL     1      16.103   5.344   9.620  1.00  0.00    -0.358 OA
HETATM    2  H   UNL     1      16.134   5.075   8.723  1.00  0.00     0.217 HD
ENDROOT
BRANCH   1   3
HETATM    3  C   UNL     1      15.015   5.044  10.384  1.00  0.00     0.099 A 
HETATM    4  C   UNL     1      15.067   5.251  11.762  1.00  0.00     0.050 A 
HETATM    5  C   UNL     1      13.959   4.943  12.536  1.00  0.00    -0.033 A 
HETATM    6  C   UNL     1      12.802   4.434  11.970  1.00  0.00     0.014 A 
HETATM    7  C   UNL     1      12.751   4.227  10.590  1.00  0.00     0.040 A 
HETATM    8  C   UNL     1      13.857   4.532   9.799  1.00  0.00     0.098 A 
BRANCH   5   9
HETATM    9  C   UNL     1      14.013   5.163  13.992  1.00  0.00     0.012 C 
HETATM   10  C   UNL     1      15.139   5.137  14.744  1.00  0.00     0.012 C 
BRANCH  10  11
HETATM   11  C   UNL     1      15.194   5.374  16.179  1.00  0.00    -0.036 A 
HETATM   12  C   UNL     1      16.381   5.159  16.876  1.00  0.00     0.011 A 
HETATM   13  C   UNL     1      16.434   5.387  18.252  1.00  0.00     0.001 A 
HETATM   14  C   UNL     1      15.298   5.829  18.929  1.00  0.00     0.000 A 
HETATM   15  C   UNL     1      14.109   6.045  18.231  1.00  0.00     0.001 A 
HETATM   16  C   UNL     1      14.057   5.817  16.856  1.00  0.00     0.011 A 
ENDBRANCH  10  11
ENDBRANCH   5   9
BRANCH   8  17
HETATM   17  O   UNL     1      13.796   4.323   8.454  1.00  0.00    -0.358 OA
HETATM   18  H   UNL     1      13.150   4.767   7.940  1.00  0.00     0.217 HD
ENDBRANCH   8  17
ENDBRANCH   1   3
TORSDOF 4
ENDMDL
