MODEL 1
REMARK VINA RESULT:      -6.7      0.000      0.000
REMARK  4 active torsions:
REMARK  status: ('A' for Active; 'I' for Inactive)
REMARK    1  A    between atoms: O_1  and  C_9 
REMARK    2  A    between atoms: O_2  and  C_10 
REMARK    3  A    between atoms: C_3  and  C_5 
REMARK    4  A    between atoms: C_4  and  C_8 
ROOT
HETATM    1  O   UNL     1      10.228   7.082   6.944  1.00  0.00    -0.358 OA
HETATM    2  H   UNL     1       9.304   6.955   7.036  1.00  0.00     0.217 HD
ENDROOT
BRANCH   1   3
HETATM    3  C   UNL     1      11.046   6.933   8.024  1.00  0.00     0.099 A 
HETATM    4  C   UNL     1      12.429   6.975   7.847  1.00  0.00     0.050 A 
HETATM    5  C   UNL     1      13.257   6.823   8.947  1.00  0.00    -0.033 A 
HETATM    6  C   UNL     1      12.742   6.628  10.217  1.00  0.00     0.014 A 
HETATM    7  C   UNL     1      11.358   6.586  10.394  1.00  0.00     0.040 A 
HETATM    8  C   UNL     1      10.511   6.738   9.297  1.00  0.00     0.098 A 
BRANCH   5   9
HETATM    9  C   UNL     1      14.719   6.868   8.761  1.00  0.00     0.012 C 
HETATM   10  C   UNL     1      15.631   6.931   9.760  1.00  0.00     0.012 C 
BRANCH  10  11
HETATM   11  C   UNL     1      17.074   6.956   9.577  1.00  0.00    -0.036 A 
HETATM   12  C   UNL     1      17.913   7.142  10.675  1.00  0.00     0.011 A 
HETATM   13  C   UNL     1      19.297   7.165  10.500  1.00  0.00     0.001 A 
HETATM   14  C   UNL     1      19.840   7.003   9.225  1.00  0.00     0.000 A 
HETATM   15  C   UNL     1      19.001   6.816   8.127  1.00  0.00     0.001 A 
HETATM   16  C   UNL     1      17.618   6.792   8.303  1.00  0.00     0.011 A 
ENDBRANCH  10  11
ENDBRANCH   5   9
BRANCH   8  17
HETATM   17  O   UNL     1       9.162   6.693   9.482  1.00  0.00    -0.358 OA
HETATM   18  H   UNL     1       8.609   6.343   8.811  1.00  0.00     0.217 HD
ENDBRANCH   8  17
ENDBRANCH   1   3
TORSDOF 4
ENDMDL
MODEL 2
REMARK VINA RESULT:      -6.6      0.940      2.038
REMARK  4 active torsions:
REMARK  status: ('A' for Active; 'I' for Inactive)
REMARK    1  A    between atoms: O_1  and  C_9 
REMARK    2  A    between atoms: O_2  and  C_10 
REMARK    3  A    between atoms: C_3  and  C_5 
REMARK    4  A    between atoms: C_4  and  C_8 
ROOT
HETATM    1  O   UNL     1       9.528   6.492   9.604  1.00  0.00    -0.358 OA
HETATM    2  H   UNL     1       9.470   5.997  10.397  1.00  0.00     0.217 HD
ENDROOT
BRANCH   1   3
HETATM    3  C   UNL     1      10.726   6.618   8.966  1.00  0.00     0.099 A 
HETATM    4  C   UNL     1      11.892   6.754   9.719  1.00  0.00     0.050 A 
HETATM    5  C   UNL     1      13.108   6.882   9.068  1.00  0.00    -0.033 A 
HETATM    6  C   UNL     1      13.190   6.879   7.685  1.00  0.00     0.014 A 
HETATM    7  C   UNL     1      12.023   6.743   6.932  1.00  0.00     0.040 A 
HETATM    8  C   UNL     1      10.792   6.613   7.573  1.00  0.00     0.098 A 
BRANCH   5   9
HETATM    9  C   UNL     1      14.341   7.025   9.862  1.00  0.00     0.012 C 
HETATM   10  C   UNL     1      15.588   7.161   9.351  1.00  0.00     0.012 C 
BRANCH  10  11
HETATM   11  C   UNL     1      16.803   7.322  10.135  1.00  0.00    -0.036 A 
HETATM   12  C   UNL     1      16.759   7.980  11.363  1.00  0.00     0.011 A 
HETATM   13  C   UNL     1      17.923   8.134  12.115  1.00  0.00     0.001 A 
HETATM   14  C   UNL     1      19.132   7.628  11.638  1.00  0.00     0.000 A 
HETATM   15  C   UNL     1      19.177   6.968  10.409  1.00  0.00     0.001 A 
HETATM   16  C   UNL     1      18.012   6.814   9.658  1.00  0.00     0.011 A 
ENDBRANCH  10  11
ENDBRANCH   5   9
BRANCH   8  17
HETATM   17  O   UNL     1       9.659   6.483   6.827  1.00  0.00    -0.358 OA
HETATM   18  H   UNL     1       8.838   6.314   7.247  1.00  0.00     0.217 HD
ENDBRANCH   8  17
ENDBRANCH   1   3
TORSDOF 4
ENDMDL
MODEL 3
REMARK VINA RESULT:      -6.6      1.977      3.050
REMARK  4 active torsions:
REMARK  status: ('A' for Active; 'I' for Inactive)
REMARK    1  A    between atoms: O_1  and  C_9 
REMARK    2  A    between atoms: O_2  and  C_10 
REMARK    3  A    between atoms: C_3  and  C_5 
REMARK    4  A    between atoms: C_4  and  C_8 
ROOT
HETATM    1  O   UNL     1       9.475   6.330   9.604  1.00  0.00    -0.358 OA
HETATM    2  H   UNL     1       8.844   7.023   9.610  1.00  0.00     0.217 HD
ENDROOT
BRANCH   1   3
HETATM    3  C   UNL     1      10.677   6.509   8.989  1.00  0.00     0.099 A 
HETATM    4  C   UNL     1      11.821   6.701   9.763  1.00  0.00     0.050 A 
HETATM    5  C   UNL     1      13.042   6.883   9.134  1.00  0.00    -0.033 A 
HETATM    6  C   UNL     1      13.151   6.879   7.754  1.00  0.00     0.014 A 
HETATM    7  C   UNL     1      12.006   6.687   6.979  1.00  0.00     0.040 A 
HETATM    8  C   UNL     1      10.770   6.502   7.597  1.00  0.00     0.098 A 
BRANCH   5   9
HETATM    9  C   UNL     1      14.252   7.085   9.952  1.00  0.00     0.012 C 
HETATM   10  C   UNL     1      14.292   7.736  11.139  1.00  0.00     0.012 C 
BRANCH  10  11
HETATM   11  C   UNL     1      15.483   7.918  11.955  1.00  0.00    -0.036 A 
HETATM   12  C   UNL     1      15.371   8.004  13.342  1.00  0.00     0.011 A 
HETATM   13  C   UNL     1      16.512   8.178  14.125  1.00  0.00     0.001 A 
HETATM   14  C   UNL     1      17.766   8.266  13.519  1.00  0.00     0.000 A 
HETATM   15  C   UNL     1      17.878   8.179  12.131  1.00  0.00     0.001 A 
HETATM   16  C   UNL     1      16.736   8.004  11.349  1.00  0.00     0.011 A 
ENDBRANCH  10  11
ENDBRANCH   5   9
BRANCH   8  17
HETATM   17  O   UNL     1       9.659   6.317   6.830  1.00  0.00    -0.358 OA
HETATM   18  H   UNL     1       8.985   5.732   7.116  1.00  0.00     0.217 HD
ENDBRANCH   8  17
ENDBRANCH   1   3
TORSDOF 4
ENDMDL
MODEL 4
REMARK VINA RESULT:      -6.5      3.833      7.186
REMARK  4 active torsions:
REMARK  status: ('A' for Active; 'I' for Inactive)
REMARK    1  A    between atoms: O_1  and  C_9 
REMARK    2  A    between atoms: O_2  and  C_10 
REMARK    3  A    between atoms: C_3  and  C_5 
REMARK    4  A    between atoms: C_4  and  C_8 
ROOT
HETATM    1  O   UNL     1      20.278   6.738   7.729  1.00  0.00    -0.358 OA
HETATM    2  H   UNL     1      20.932   7.403   7.637  1.00  0.00     0.217 HD
ENDROOT
BRANCH   1   3
HETATM    3  C   UNL     1      19.242   6.916   8.596  1.00  0.00     0.099 A 
HETATM    4  C   UNL     1      17.932   6.810   8.129  1.00  0.00     0.050 A 
HETATM    5  C   UNL     1      16.881   6.992   9.013  1.00  0.00    -0.033 A 
HETATM    6  C   UNL     1      17.103   7.278  10.350  1.00  0.00     0.014 A 
HETATM    7  C   UNL     1      18.414   7.384  10.817  1.00  0.00     0.040 A 
HETATM    8  C   UNL     1      19.483   7.203   9.939  1.00  0.00     0.098 A 
BRANCH   5   9
HETATM    9  C   UNL     1      15.496   6.879   8.521  1.00  0.00     0.012 C 
HETATM   10  C   UNL     1      14.387   6.911   9.298  1.00  0.00     0.012 C 
BRANCH  10  11
HETATM   11  C   UNL     1      13.019   6.820   8.810  1.00  0.00    -0.036 A 
HETATM   12  C   UNL     1      12.753   6.964   7.450  1.00  0.00     0.011 A 
HETATM   13  C   UNL     1      11.441   6.876   6.982  1.00  0.00     0.001 A 
HETATM   14  C   UNL     1      10.397   6.643   7.877  1.00  0.00     0.000 A 
HETATM   15  C   UNL     1      10.663   6.498   9.238  1.00  0.00     0.001 A 
HETATM   16  C   UNL     1      11.975   6.586   9.705  1.00  0.00     0.011 A 
ENDBRANCH  10  11
ENDBRANCH   5   9
BRANCH   8  17
HETATM   17  O   UNL     1      20.758   7.311  10.406  1.00  0.00    -0.358 OA
HETATM   18  H   UNL     1      21.468   6.941   9.919  1.00  0.00     0.217 HD
ENDBRANCH   8  17
ENDBRANCH   1   3
TORSDOF 4
ENDMDL
MODEL 5
REMARK VINA RESULT:      -6.5      3.115      4.723
REMARK  4 active torsions:
REMARK  status: ('A' for Active; 'I' for Inactive)
REMARK    1  A    between atoms: O_1  and  C_9 
REMARK    2  A    between atoms: O_2  and  C_10 
REMARK    3  A    between atoms: C_3  and  C_5 
REMARK    4  A    between atoms: C_4  and  C_8 
ROOT
HETATM    1  O   UNL     1       9.680   6.509   8.366  1.00  0.00    -0.358 OA
HETATM    2  H   UNL     1       9.122   7.153   8.757  1.00  0.00     0.217 HD
ENDROOT
BRANCH   1   3
HETATM    3  C   UNL     1      11.034   6.650   8.432  1.00  0.00     0.099 A 
HETATM    4  C   UNL     1      11.675   6.533   9.665  1.00  0.00     0.050 A 
HETATM    5  C   UNL     1      13.052   6.679   9.729  1.00  0.00    -0.033 A 
HETATM    6  C   UNL     1      13.804   6.938   8.595  1.00  0.00     0.014 A 
HETATM    7  C   UNL     1      13.161   7.055   7.362  1.00  0.00     0.040 A 
HETATM    8  C   UNL     1      11.777   6.911   7.281  1.00  0.00     0.098 A 
BRANCH   5   9
HETATM    9  C   UNL     1      13.731   6.554  11.031  1.00  0.00     0.012 C 
HETATM   10  C   UNL     1      13.182   6.024  12.150  1.00  0.00     0.012 C 
BRANCH  10  11
HETATM   11  C   UNL     1      13.859   5.883  13.430  1.00  0.00    -0.036 A 
HETATM   12  C   UNL     1      15.141   5.339  13.485  1.00  0.00     0.011 A 
HETATM   13  C   UNL     1      15.790   5.203  14.712  1.00  0.00     0.001 A 
HETATM   14  C   UNL     1      15.156   5.613  15.884  1.00  0.00     0.000 A 
HETATM   15  C   UNL     1      13.873   6.159  15.830  1.00  0.00     0.001 A 
HETATM   16  C   UNL     1      13.224   6.294  14.603  1.00  0.00     0.011 A 
ENDBRANCH  10  11
ENDBRANCH   5   9
BRANCH   8  17
HETATM   17  O   UNL     1      11.161   7.030   6.072  1.00  0.00    -0.358 OA
HETATM   18  H   UNL     1      11.504   7.617   5.427  1.00  0.00     0.217 HD
ENDBRANCH   8  17
ENDBRANCH   1   3
TORSDOF 4
ENDMDL
MODEL 6
REMARK VINA RESULT:      -6.4      4.489      6.713
REMARK  4 active torsions:
REMARK  status: ('A' for Active; 'I' for Inactive)
REMARK    1  A    between atoms: O_1  and  C_9 
REMARK    2  A    between atoms: O_2  and  C_10 
REMARK    3  A    between atoms: C_3  and  C_5 
REMARK    4  A    between atoms: C_4  and  C_8 
ROOT
HETATM    1  O   UNL     1      11.939   6.879  16.291  1.00  0.00    -0.358 OA
HETATM    2  H   UNL     1      11.127   7.195  15.946  1.00  0.00     0.217 HD
ENDROOT
BRANCH   1   3
HETATM    3  C   UNL     1      12.935   6.496  15.443  1.00  0.00     0.099 A 
HETATM    4  C   UNL     1      12.716   6.532  14.067  1.00  0.00     0.050 A 
HETATM    5  C   UNL     1      13.731   6.141  13.208  1.00  0.00    -0.033 A 
HETATM    6  C   UNL     1      14.958   5.716  13.688  1.00  0.00     0.014 A 
HETATM    7  C   UNL     1      15.178   5.680  15.066  1.00  0.00     0.040 A 
HETATM    8  C   UNL     1      14.166   6.070  15.943  1.00  0.00     0.098 A 
BRANCH   5   9
HETATM    9  C   UNL     1      13.500   6.180  11.753  1.00  0.00     0.012 C 
HETATM   10  C   UNL     1      12.340   6.543  11.157  1.00  0.00     0.012 C 
BRANCH  10  11
HETATM   11  C   UNL     1      12.118   6.600   9.719  1.00  0.00    -0.036 A 
HETATM   12  C   UNL     1      10.853   6.337   9.198  1.00  0.00     0.011 A 
HETATM   13  C   UNL     1      10.640   6.392   7.820  1.00  0.00     0.001 A 
HETATM   14  C   UNL     1      11.695   6.711   6.965  1.00  0.00     0.000 A 
HETATM   15  C   UNL     1      12.962   6.975   7.487  1.00  0.00     0.001 A 
HETATM   16  C   UNL     1      13.173   6.920   8.865  1.00  0.00     0.011 A 
ENDBRANCH  10  11
ENDBRANCH   5   9
BRANCH   8  17
HETATM   17  O   UNL     1      14.392   6.029  17.286  1.00  0.00    -0.358 OA
HETATM   18  H   UNL     1      14.036   5.331  17.800  1.00  0.00     0.217 HD
ENDBRANCH   8  17
ENDBRANCH   1   3
TORSDOF 4
ENDMDL
MODEL 7
REMARK VINA RESULT:      -6.4      4.807      6.661
REMARK  4 active torsions:
REMARK  status: ('A' for Active; 'I' for Inactive)
REMARK    1  A    between atoms: O_1  and  C_9 
REMARK    2  A    between atoms: O_2  and  C_10 
REMARK    3  A    between atoms: C_3  and  C_5 
REMARK    4  A    between atoms: C_4  and  C_8 
ROOT
HETATM    1  O   UNL     1      11.749   6.498  16.910  1.00  0.00    -0.358 OA
HETATM    2  H   UNL     1      11.045   6.959  16.496  1.00  0.00     0.217 HD
ENDROOT
BRANCH   1   3
HETATM    3  C   UNL     1      12.932   6.333  16.255  1.00  0.00     0.099 A 
HETATM    4  C   UNL     1      12.994   6.567  14.882  1.00  0.00     0.050 A 
HETATM    5  C   UNL     1      14.199   6.397  14.220  1.00  0.00    -0.033 A 
HETATM    6  C   UNL     1      15.343   5.999  14.892  1.00  0.00     0.014 A 
HETATM    7  C   UNL     1      15.280   5.764  16.266  1.00  0.00     0.040 A 
HETATM    8  C   UNL     1      14.075   5.932  16.947  1.00  0.00     0.098 A 
BRANCH   5   9
HETATM    9  C   UNL     1      14.266   6.645  12.768  1.00  0.00     0.012 C 
HETATM   10  C   UNL     1      13.293   6.337  11.878  1.00  0.00     0.012 C 
BRANCH  10  11
HETATM   11  C   UNL     1      13.351   6.600  10.448  1.00  0.00    -0.036 A 
HETATM   12  C   UNL     1      12.175   6.675   9.705  1.00  0.00     0.011 A 
HETATM   13  C   UNL     1      12.230   6.928   8.334  1.00  0.00     0.001 A 
HETATM   14  C   UNL     1      13.464   7.105   7.708  1.00  0.00     0.000 A 
HETATM   15  C   UNL     1      14.641   7.030   8.452  1.00  0.00     0.001 A 
HETATM   16  C   UNL     1      14.585   6.778   9.823  1.00  0.00     0.011 A 
ENDBRANCH  10  11
ENDBRANCH   5   9
BRANCH   8  17
HETATM   17  O   UNL     1      14.026   5.698  18.288  1.00  0.00    -0.358 OA
HETATM   18  H   UNL     1      14.821   5.595  18.775  1.00  0.00     0.217 HD
ENDBRANCH   8  17
ENDBRANCH   1   3
TORSDOF 4
ENDMDL
MODEL 8
REMARK VINA RESULT:      -6.4      4.677      6.567
REMARK  4 active torsions:
REMARK  status: ('A' for Active; 'I' for Inactive)
REMARK    1  A    between atoms: O_1  and  C_9 
REMARK    2  A    between atoms: O_2  and  C_10 
REMARK    3  A    between atoms: C_3  and  C_5 
REMARK    4  A    between atoms: C_4  and  C_8 
ROOT
HETATM    1  O   UNL     1      11.923   6.358  16.713  1.00  0.00    -0.358 OA
HETATM    2  H   UNL     1      11.079   6.607  16.391  1.00  0.00     0.217 HD
ENDROOT
BRANCH   1   3
HETATM    3  C   UNL     1      13.048   6.767  16.060  1.00  0.00     0.099 A 
HETATM    4  C   UNL     1      13.098   6.690  14.668  1.00  0.00     0.050 A 
HETATM    5  C   UNL     1      14.244   7.105  14.008  1.00  0.00    -0.033 A 
HETATM    6  C   UNL     1      15.339   7.594  14.701  1.00  0.00     0.014 A 
HETATM    7  C   UNL     1      15.288   7.671  16.093  1.00  0.00     0.040 A 
HETATM    8  C   UNL     1      14.142   7.257  16.772  1.00  0.00     0.098 A 
BRANCH   5   9
HETATM    9  C   UNL     1      14.298   7.025  12.537  1.00  0.00     0.012 C 
HETATM   10  C   UNL     1      13.224   7.076  11.714  1.00  0.00     0.012 C 
BRANCH  10  11
HETATM   11  C   UNL     1      13.279   7.017  10.260  1.00  0.00    -0.036 A 
HETATM   12  C   UNL     1      14.510   7.055   9.607  1.00  0.00     0.011 A 
HETATM   13  C   UNL     1      14.563   6.999   8.214  1.00  0.00     0.001 A 
HETATM   14  C   UNL     1      13.383   6.904   7.476  1.00  0.00     0.000 A 
HETATM   15  C   UNL     1      12.152   6.866   8.129  1.00  0.00     0.001 A 
HETATM   16  C   UNL     1      12.099   6.922   9.522  1.00  0.00     0.011 A 
ENDBRANCH  10  11
ENDBRANCH   5   9
BRANCH   8  17
HETATM   17  O   UNL     1      14.105   7.335  18.132  1.00  0.00    -0.358 OA
HETATM   18  H   UNL     1      14.800   7.760  18.596  1.00  0.00     0.217 HD
ENDBRANCH   8  17
ENDBRANCH   1   3
TORSDOF 4
ENDMDL
MODEL 9
REMARK VINA RESULT:      -6.3      3.499      4.779
REMARK  4 active torsions:
REMARK  status: ('A' for Active; 'I' for Inactive)
REMARK    1  A    between atoms: O_1  and  C_9 
REMARK    2  A    between atoms: O_2  and  C_10 
REMARK    3  A    between atoms: C_3  and  C_5 
REMARK    4  A    between atoms: C_4  and  C_8 
ROOT
HETATM    1  O   UNL     1      13.789   7.070   6.633  1.00  0.00    -0.358 OA
HETATM    2  H   UNL     1      14.641   6.704   6.769  1.00  0.00     0.217 HD
ENDROOT
BRANCH   1   3
HETATM    3  C   UNL     1      12.796   6.837   7.538  1.00  0.00     0.099 A 
HETATM    4  C   UNL     1      13.106   6.787   8.897  1.00  0.00     0.050 A 
HETATM    5  C   UNL     1      12.094   6.548   9.813  1.00  0.00    -0.033 A 
HETATM    6  C   UNL     1      10.783   6.359   9.408  1.00  0.00     0.014 A 
HETATM    7  C   UNL     1      10.474   6.409   8.048  1.00  0.00     0.040 A 
HETATM    8  C   UNL     1      11.481   6.648   7.114  1.00  0.00     0.098 A 
BRANCH   5   9
HETATM    9  C   UNL     1      12.420   6.496  11.250  1.00  0.00     0.012 C 
HETATM   10  C   UNL     1      13.601   6.084  11.767  1.00  0.00     0.012 C 
BRANCH  10  11
HETATM   11  C   UNL     1      13.930   6.052  13.185  1.00  0.00    -0.036 A 
HETATM   12  C   UNL     1      13.014   6.523  14.124  1.00  0.00     0.011 A 
HETATM   13  C   UNL     1      13.329   6.492  15.483  1.00  0.00     0.001 A 
HETATM   14  C   UNL     1      14.560   5.988  15.901  1.00  0.00     0.000 A 
HETATM   15  C   UNL     1      15.477   5.516  14.961  1.00  0.00     0.001 A 
HETATM   16  C   UNL     1      15.162   5.547  13.603  1.00  0.00     0.011 A 
ENDBRANCH  10  11
ENDBRANCH   5   9
BRANCH   8  17
HETATM   17  O   UNL     1      11.167   6.693   5.789  1.00  0.00    -0.358 OA
HETATM   18  H   UNL     1      10.489   7.265   5.487  1.00  0.00     0.217 HD
ENDBRANCH   8  17
ENDBRANCH   1   3
TORSDOF 4
ENDMDL
