MODEL 1
REMARK VINA RESULT:      -6.6      0.000      0.000
REMARK  4 active torsions:
REMARK  status: ('A' for Active; 'I' for Inactive)
REMARK    1  A    between atoms: O_1  and  C_9 
REMARK    2  A    between atoms: O_2  and  C_10 
REMARK    3  A    between atoms: C_3  and  C_5 
REMARK    4  A    between atoms: C_4  and  C_8 
ROOT
HETATM    1  O   UNL     1      11.549   4.240  11.825  1.00  0.00    -0.358 OA
HETATM    2  H   UNL     1      10.803   4.402  11.280  1.00  0.00     0.217 HD
ENDROOT
BRANCH   1   3
HETATM    3  C   UNL     1      12.801   4.518  11.366  1.00  0.00     0.099 A 
HETATM    4  C   UNL     1      13.761   5.012  12.249  1.00  0.00     0.050 A 
HETATM    5  C   UNL     1      15.033   5.295  11.778  1.00  0.00    -0.033 A 
HETATM    6  C   UNL     1      15.371   5.098  10.449  1.00  0.00     0.014 A 
HETATM    7  C   UNL     1      14.410   4.604   9.566  1.00  0.00     0.040 A 
HETATM    8  C   UNL     1      13.126   4.314  10.025  1.00  0.00     0.098 A 
BRANCH   5   9
HETATM    9  C   UNL     1      16.048   5.816  12.711  1.00  0.00     0.012 C 
HETATM   10  C   UNL     1      17.347   6.044  12.401  1.00  0.00     0.012 C 
BRANCH  10  11
HETATM   11  C   UNL     1      18.345   6.577  13.317  1.00  0.00    -0.036 A 
HETATM   12  C   UNL     1      19.691   6.260  13.143  1.00  0.00     0.011 A 
HETATM   13  C   UNL     1      20.648   6.771  14.021  1.00  0.00     0.001 A 
HETATM   14  C   UNL     1      20.256   7.600  15.072  1.00  0.00     0.000 A 
HETATM   15  C   UNL     1      18.909   7.919  15.245  1.00  0.00     0.001 A 
HETATM   16  C   UNL     1      17.953   7.408  14.367  1.00  0.00     0.011 A 
ENDBRANCH  10  11
ENDBRANCH   5   9
BRANCH   8  17
HETATM   17  O   UNL     1      12.196   3.834   9.152  1.00  0.00    -0.358 OA
HETATM   18  H   UNL     1      11.285   3.866   9.373  1.00  0.00     0.217 HD
ENDBRANCH   8  17
ENDBRANCH   1   3
TORSDOF 4
ENDMDL
MODEL 2
REMARK VINA RESULT:      -6.6      0.970      2.301
REMARK  4 active torsions:
REMARK  status: ('A' for Active; 'I' for Inactive)
REMARK    1  A    between atoms: O_1  and  C_9 
REMARK    2  A    between atoms: O_2  and  C_10 
REMARK    3  A    between atoms: C_3  and  C_5 
REMARK    4  A    between atoms: C_4  and  C_8 
ROOT
HETATM    1  O   UNL     1      12.670   4.552   9.264  1.00  0.00    -0.358 OA
HETATM    2  H   UNL     1      13.184   4.394   8.496  1.00  0.00     0.217 HD
ENDROOT
BRANCH   1   3
HETATM    3  C   UNL     1      13.284   4.767  10.461  1.00  0.00     0.099 A 
HETATM    4  C   UNL     1      14.631   5.128  10.486  1.00  0.00     0.050 A 
HETATM    5  C   UNL     1      15.252   5.345  11.706  1.00  0.00    -0.033 A 
HETATM    6  C   UNL     1      14.563   5.211  12.900  1.00  0.00     0.014 A 
HETATM    7  C   UNL     1      13.216   4.850  12.875  1.00  0.00     0.040 A 
HETATM    8  C   UNL     1      12.577   4.628  11.656  1.00  0.00     0.098 A 
BRANCH   5   9
HETATM    9  C   UNL     1      16.675   5.728  11.733  1.00  0.00     0.012 C 
HETATM   10  C   UNL     1      17.459   5.738  12.837  1.00  0.00     0.012 C 
BRANCH  10  11
HETATM   11  C   UNL     1      18.869   6.097  12.860  1.00  0.00    -0.036 A 
HETATM   12  C   UNL     1      19.422   6.678  14.000  1.00  0.00     0.011 A 
HETATM   13  C   UNL     1      20.774   7.022  14.022  1.00  0.00     0.001 A 
HETATM   14  C   UNL     1      21.572   6.784  12.903  1.00  0.00     0.000 A 
HETATM   15  C   UNL     1      21.019   6.202  11.762  1.00  0.00     0.001 A 
HETATM   16  C   UNL     1      19.667   5.858  11.741  1.00  0.00     0.011 A 
ENDBRANCH  10  11
ENDBRANCH   5   9
BRANCH   8  17
HETATM   17  O   UNL     1      11.261   4.274  11.644  1.00  0.00    -0.358 OA
HETATM   18  H   UNL     1      10.651   4.756  11.121  1.00  0.00     0.217 HD
ENDBRANCH   8  17
ENDBRANCH   1   3
TORSDOF 4
ENDMDL
MODEL 3
REMARK VINA RESULT:      -6.6      0.030      1.208
REMARK  4 active torsions:
REMARK  status: ('A' for Active; 'I' for Inactive)
REMARK    1  A    between atoms: O_1  and  C_9 
REMARK    2  A    between atoms: O_2  and  C_10 
REMARK    3  A    between atoms: C_3  and  C_5 
REMARK    4  A    between atoms: C_4  and  C_8 
ROOT
HETATM    1  O   UNL     1      11.547   4.261  11.793  1.00  0.00    -0.358 OA
HETATM    2  H   UNL     1      11.152   3.432  11.602  1.00  0.00     0.217 HD
ENDROOT
BRANCH   1   3
HETATM    3  C   UNL     1      12.802   4.536  11.339  1.00  0.00     0.099 A 
HETATM    4  C   UNL     1      13.756   5.041  12.223  1.00  0.00     0.050 A 
HETATM    5  C   UNL     1      15.030   5.320  11.757  1.00  0.00    -0.033 A 
HETATM    6  C   UNL     1      15.378   5.110  10.433  1.00  0.00     0.014 A 
HETATM    7  C   UNL     1      14.423   4.605   9.548  1.00  0.00     0.040 A 
HETATM    8  C   UNL     1      13.136   4.318  10.002  1.00  0.00     0.098 A 
BRANCH   5   9
HETATM    9  C   UNL     1      16.039   5.853  12.691  1.00  0.00     0.012 C 
HETATM   10  C   UNL     1      17.355   6.006  12.413  1.00  0.00     0.012 C 
BRANCH  10  11
HETATM   11  C   UNL     1      18.348   6.550  13.328  1.00  0.00    -0.036 A 
HETATM   12  C   UNL     1      17.950   7.378  14.376  1.00  0.00     0.011 A 
HETATM   13  C   UNL     1      18.901   7.900  15.253  1.00  0.00     0.001 A 
HETATM   14  C   UNL     1      20.250   7.591  15.081  1.00  0.00     0.000 A 
HETATM   15  C   UNL     1      20.649   6.761  14.033  1.00  0.00     0.001 A 
HETATM   16  C   UNL     1      19.697   6.240  13.156  1.00  0.00     0.011 A 
ENDBRANCH  10  11
ENDBRANCH   5   9
BRANCH   8  17
HETATM   17  O   UNL     1      12.213   3.828   9.129  1.00  0.00    -0.358 OA
HETATM   18  H   UNL     1      12.492   3.410   8.337  1.00  0.00     0.217 HD
ENDBRANCH   8  17
ENDBRANCH   1   3
TORSDOF 4
ENDMDL
MODEL 4
REMARK VINA RESULT:      -6.6      1.258      1.821
REMARK  4 active torsions:
REMARK  status: ('A' for Active; 'I' for Inactive)
REMARK    1  A    between atoms: O_1  and  C_9 
REMARK    2  A    between atoms: O_2  and  C_10 
REMARK    3  A    between atoms: C_3  and  C_5 
REMARK    4  A    between atoms: C_4  and  C_8 
ROOT
HETATM    1  O   UNL     1      11.511   4.044  11.857  1.00  0.00    -0.358 OA
HETATM    2  H   UNL     1      11.031   3.399  11.375  1.00  0.00     0.217 HD
ENDROOT
BRANCH   1   3
HETATM    3  C   UNL     1      12.756   4.414  11.445  1.00  0.00     0.099 A 
HETATM    4  C   UNL     1      13.637   4.990  12.360  1.00  0.00     0.050 A 
HETATM    5  C   UNL     1      14.903   5.365  11.938  1.00  0.00    -0.033 A 
HETATM    6  C   UNL     1      15.310   5.180  10.627  1.00  0.00     0.014 A 
HETATM    7  C   UNL     1      14.428   4.604   9.712  1.00  0.00     0.040 A 
HETATM    8  C   UNL     1      13.152   4.221  10.122  1.00  0.00     0.098 A 
BRANCH   5   9
HETATM    9  C   UNL     1      15.835   5.973  12.904  1.00  0.00     0.012 C 
HETATM   10  C   UNL     1      15.471   6.659  14.013  1.00  0.00     0.012 C 
BRANCH  10  11
HETATM   11  C   UNL     1      16.392   7.242  14.978  1.00  0.00    -0.036 A 
HETATM   12  C   UNL     1      17.737   7.405  14.649  1.00  0.00     0.011 A 
HETATM   13  C   UNL     1      18.619   7.964  15.573  1.00  0.00     0.001 A 
HETATM   14  C   UNL     1      18.155   8.360  16.827  1.00  0.00     0.000 A 
HETATM   15  C   UNL     1      16.809   8.198  17.157  1.00  0.00     0.001 A 
HETATM   16  C   UNL     1      15.927   7.639  16.232  1.00  0.00     0.011 A 
ENDBRANCH  10  11
ENDBRANCH   5   9
BRANCH   8  17
HETATM   17  O   UNL     1      12.299   3.662   9.219  1.00  0.00    -0.358 OA
HETATM   18  H   UNL     1      12.034   4.147   8.461  1.00  0.00     0.217 HD
ENDBRANCH   8  17
ENDBRANCH   1   3
TORSDOF 4
ENDMDL
MODEL 5
REMARK VINA RESULT:      -6.5      4.569      6.853
REMARK  4 active torsions:
REMARK  status: ('A' for Active; 'I' for Inactive)
REMARK    1  A    between atoms: O_1  and  C_9 
REMARK    2  A    between atoms: O_2  and  C_10 
REMARK    3  A    between atoms: C_3  and  C_5 
REMARK    4  A    between atoms: C_4  and  C_8 
ROOT
HETATM    1  O   UNL     1      12.291   6.123  18.963  1.00  0.00    -0.358 OA
HETATM    2  H   UNL     1      11.707   6.588  18.396  1.00  0.00     0.217 HD
ENDROOT
BRANCH   1   3
HETATM    3  C   UNL     1      13.598   5.966  18.612  1.00  0.00     0.099 A 
HETATM    4  C   UNL     1      13.947   5.931  17.262  1.00  0.00     0.050 A 
HETATM    5  C   UNL     1      15.277   5.771  16.910  1.00  0.00    -0.033 A 
HETATM    6  C   UNL     1      16.268   5.645  17.869  1.00  0.00     0.014 A 
HETATM    7  C   UNL     1      15.919   5.680  19.220  1.00  0.00     0.040 A 
HETATM    8  C   UNL     1      14.584   5.841  19.590  1.00  0.00     0.098 A 
BRANCH   5   9
HETATM    9  C   UNL     1      15.646   5.735  15.483  1.00  0.00     0.012 C 
HETATM   10  C   UNL     1      14.809   5.412  14.469  1.00  0.00     0.012 C 
BRANCH  10  11
HETATM   11  C   UNL     1      15.169   5.396  13.059  1.00  0.00    -0.036 A 
HETATM   12  C   UNL     1      14.215   5.060  12.100  1.00  0.00     0.011 A 
HETATM   13  C   UNL     1      14.559   5.045  10.748  1.00  0.00     0.001 A 
HETATM   14  C   UNL     1      15.859   5.366  10.357  1.00  0.00     0.000 A 
HETATM   15  C   UNL     1      16.814   5.703  11.316  1.00  0.00     0.001 A 
HETATM   16  C   UNL     1      16.469   5.718  12.668  1.00  0.00     0.011 A 
ENDBRANCH  10  11
ENDBRANCH   5   9
BRANCH   8  17
HETATM   17  O   UNL     1      14.256   5.871  20.912  1.00  0.00    -0.358 OA
HETATM   18  H   UNL     1      14.145   6.694  21.349  1.00  0.00     0.217 HD
ENDBRANCH   8  17
ENDBRANCH   1   3
TORSDOF 4
ENDMDL
MODEL 6
REMARK VINA RESULT:      -6.5      3.962      7.287
REMARK  4 active torsions:
REMARK  status: ('A' for Active; 'I' for Inactive)
REMARK    1  A    between atoms: O_1  and  C_9 
REMARK    2  A    between atoms: O_2  and  C_10 
REMARK    3  A    between atoms: C_3  and  C_5 
REMARK    4  A    between atoms: C_4  and  C_8 
ROOT
HETATM    1  O   UNL     1      22.271   6.267  11.784  1.00  0.00    -0.358 OA
HETATM    2  H   UNL     1      23.055   6.223  12.296  1.00  0.00     0.217 HD
ENDROOT
BRANCH   1   3
HETATM    3  C   UNL     1      21.065   6.422  12.400  1.00  0.00     0.099 A 
HETATM    4  C   UNL     1      19.905   6.002  11.750  1.00  0.00     0.050 A 
HETATM    5  C   UNL     1      18.680   6.162  12.378  1.00  0.00    -0.033 A 
HETATM    6  C   UNL     1      18.584   6.731  13.637  1.00  0.00     0.014 A 
HETATM    7  C   UNL     1      19.745   7.152  14.287  1.00  0.00     0.040 A 
HETATM    8  C   UNL     1      20.985   6.998  13.668  1.00  0.00     0.098 A 
BRANCH   5   9
HETATM    9  C   UNL     1      17.454   5.717  11.693  1.00  0.00     0.012 C 
HETATM   10  C   UNL     1      16.231   5.621  12.266  1.00  0.00     0.012 C 
BRANCH  10  11
HETATM   11  C   UNL     1      15.016   5.200  11.584  1.00  0.00    -0.036 A 
HETATM   12  C   UNL     1      15.007   5.062  10.197  1.00  0.00     0.011 A 
HETATM   13  C   UNL     1      13.842   4.658   9.544  1.00  0.00     0.001 A 
HETATM   14  C   UNL     1      12.687   4.393  10.279  1.00  0.00     0.000 A 
HETATM   15  C   UNL     1      12.696   4.531  11.667  1.00  0.00     0.001 A 
HETATM   16  C   UNL     1      13.861   4.934  12.320  1.00  0.00     0.011 A 
ENDBRANCH  10  11
ENDBRANCH   5   9
BRANCH   8  17
HETATM   17  O   UNL     1      22.111   7.414  14.311  1.00  0.00    -0.358 OA
HETATM   18  H   UNL     1      22.559   6.833  14.895  1.00  0.00     0.217 HD
ENDBRANCH   8  17
ENDBRANCH   1   3
TORSDOF 4
ENDMDL
MODEL 7
REMARK VINA RESULT:      -6.5      1.156      1.729
REMARK  4 active torsions:
REMARK  status: ('A' for Active; 'I' for Inactive)
REMARK    1  A    between atoms: O_1  and  C_9 
REMARK    2  A    between atoms: O_2  and  C_10 
REMARK    3  A    between atoms: C_3  and  C_5 
REMARK    4  A    between atoms: C_4  and  C_8 
ROOT
HETATM    1  O   UNL     1      12.381   5.109  14.025  1.00  0.00    -0.358 OA
HETATM    2  H   UNL     1      12.690   5.607  14.757  1.00  0.00     0.217 HD
ENDROOT
BRANCH   1   3
HETATM    3  C   UNL     1      13.101   5.080  12.868  1.00  0.00     0.099 A 
HETATM    4  C   UNL     1      14.470   5.344  12.906  1.00  0.00     0.050 A 
HETATM    5  C   UNL     1      15.198   5.314  11.727  1.00  0.00    -0.033 A 
HETATM    6  C   UNL     1      14.595   5.029  10.513  1.00  0.00     0.014 A 
HETATM    7  C   UNL     1      13.225   4.766  10.476  1.00  0.00     0.040 A 
HETATM    8  C   UNL     1      12.479   4.792  11.654  1.00  0.00     0.098 A 
BRANCH   5   9
HETATM    9  C   UNL     1      16.645   5.592  11.766  1.00  0.00     0.012 C 
HETATM   10  C   UNL     1      17.341   5.953  12.871  1.00  0.00     0.012 C 
BRANCH  10  11
HETATM   11  C   UNL     1      18.773   6.207  12.913  1.00  0.00    -0.036 A 
HETATM   12  C   UNL     1      19.556   5.978  11.783  1.00  0.00     0.011 A 
HETATM   13  C   UNL     1      20.929   6.222  11.823  1.00  0.00     0.001 A 
HETATM   14  C   UNL     1      21.517   6.695  12.996  1.00  0.00     0.000 A 
HETATM   15  C   UNL     1      20.734   6.925  14.127  1.00  0.00     0.001 A 
HETATM   16  C   UNL     1      19.361   6.682  14.085  1.00  0.00     0.011 A 
ENDBRANCH  10  11
ENDBRANCH   5   9
BRANCH   8  17
HETATM   17  O   UNL     1      11.142   4.535  11.604  1.00  0.00    -0.358 OA
HETATM   18  H   UNL     1      10.824   3.801  11.115  1.00  0.00     0.217 HD
ENDBRANCH   8  17
ENDBRANCH   1   3
TORSDOF 4
ENDMDL
MODEL 8
REMARK VINA RESULT:      -6.5      4.532      6.864
REMARK  4 active torsions:
REMARK  status: ('A' for Active; 'I' for Inactive)
REMARK    1  A    between atoms: O_1  and  C_9 
REMARK    2  A    between atoms: O_2  and  C_10 
REMARK    3  A    between atoms: C_3  and  C_5 
REMARK    4  A    between atoms: C_4  and  C_8 
ROOT
HETATM    1  O   UNL     1      12.291   5.868  19.204  1.00  0.00    -0.358 OA
HETATM    2  H   UNL     1      11.868   6.481  19.773  1.00  0.00     0.217 HD
ENDROOT
BRANCH   1   3
HETATM    3  C   UNL     1      13.504   6.168  18.660  1.00  0.00     0.099 A 
HETATM    4  C   UNL     1      13.655   6.159  17.274  1.00  0.00     0.050 A 
HETATM    5  C   UNL     1      14.890   6.463  16.725  1.00  0.00    -0.033 A 
HETATM    6  C   UNL     1      15.978   6.776  17.524  1.00  0.00     0.014 A 
HETATM    7  C   UNL     1      15.826   6.784  18.911  1.00  0.00     0.040 A 
HETATM    8  C   UNL     1      14.589   6.480  19.478  1.00  0.00     0.098 A 
BRANCH   5   9
HETATM    9  C   UNL     1      15.050   6.456  15.260  1.00  0.00     0.012 C 
HETATM   10  C   UNL     1      15.036   5.349  14.479  1.00  0.00     0.012 C 
BRANCH  10  11
HETATM   11  C   UNL     1      15.174   5.343  13.031  1.00  0.00    -0.036 A 
HETATM   12  C   UNL     1      16.396   5.671  12.445  1.00  0.00     0.011 A 
HETATM   13  C   UNL     1      16.529   5.665  11.057  1.00  0.00     0.001 A 
HETATM   14  C   UNL     1      15.438   5.331  10.254  1.00  0.00     0.000 A 
HETATM   15  C   UNL     1      14.215   5.003  10.840  1.00  0.00     0.001 A 
HETATM   16  C   UNL     1      14.083   5.008  12.229  1.00  0.00     0.011 A 
ENDBRANCH  10  11
ENDBRANCH   5   9
BRANCH   8  17
HETATM   17  O   UNL     1      14.455   6.490  20.834  1.00  0.00    -0.358 OA
HETATM   18  H   UNL     1      15.069   6.026  21.369  1.00  0.00     0.217 HD
ENDBRANCH   8  17
ENDBRANCH   1   3
TORSDOF 4
ENDMDL
MODEL 9
REMARK VINA RESULT:      -6.5      2.961      3.614
REMARK  4 active torsions:
REMARK  status: ('A' for Active; 'I' for Inactive)
REMARK    1  A    between atoms: O_1  and  C_9 
REMARK    2  A    between atoms: O_2  and  C_10 
REMARK    3  A    between atoms: C_3  and  C_5 
REMARK    4  A    between atoms: C_4  and  C_8 
ROOT
HETATM    1  O   UNL     1      11.923   4.315  10.749  1.00  0.00    -0.358 OA
HETATM    2  H   UNL     1      11.735   3.478  10.373  1.00  0.00     0.217 HD
ENDROOT
BRANCH   1   3
HETATM    3  C   UNL     1      13.215   4.692  10.960  1.00  0.00     0.099 A 
HETATM    4  C   UNL     1      13.667   4.892  12.265  1.00  0.00     0.050 A 
HETATM    5  C   UNL     1      14.981   5.276  12.475  1.00  0.00    -0.033 A 
HETATM    6  C   UNL     1      15.856   5.465  11.418  1.00  0.00     0.014 A 
HETATM    7  C   UNL     1      15.404   5.264  10.113  1.00  0.00     0.040 A 
HETATM    8  C   UNL     1      14.084   4.878   9.885  1.00  0.00     0.098 A 
BRANCH   5   9
HETATM    9  C   UNL     1      15.460   5.487  13.853  1.00  0.00     0.012 C 
HETATM   10  C   UNL     1      14.949   4.890  14.956  1.00  0.00     0.012 C 
BRANCH  10  11
HETATM   11  C   UNL     1      15.434   5.083  16.315  1.00  0.00    -0.036 A 
HETATM   12  C   UNL     1      14.619   5.694  17.266  1.00  0.00     0.011 A 
HETATM   13  C   UNL     1      15.084   5.879  18.568  1.00  0.00     0.001 A 
HETATM   14  C   UNL     1      16.365   5.452  18.917  1.00  0.00     0.000 A 
HETATM   15  C   UNL     1      17.181   4.840  17.965  1.00  0.00     0.001 A 
HETATM   16  C   UNL     1      16.715   4.656  16.664  1.00  0.00     0.011 A 
ENDBRANCH  10  11
ENDBRANCH   5   9
BRANCH   8  17
HETATM   17  O   UNL     1      13.654   4.687   8.607  1.00  0.00    -0.358 OA
HETATM   18  H   UNL     1      13.305   5.406   8.117  1.00  0.00     0.217 HD
ENDBRANCH   8  17
ENDBRANCH   1   3
TORSDOF 4
ENDMDL
