MODEL 1
REMARK VINA RESULT:      -6.6      0.000      0.000
REMARK  4 active torsions:
REMARK  status: ('A' for Active; 'I' for Inactive)
REMARK    1  A    between atoms: O_1  and  C_9 
REMARK    2  A    between atoms: O_2  and  C_10 
REMARK    3  A    between atoms: C_3  and  C_5 
REMARK    4  A    between atoms: C_4  and  C_8 
ROOT
HETATM    1  O   UNL     1      10.316   7.103   6.958  1.00  0.00    -0.358 OA
HETATM    2  H   UNL     1       9.387   7.155   7.071  1.00  0.00     0.217 HD
ENDROOT
BRANCH   1   3
HETATM    3  C   UNL     1      11.126   6.935   8.041  1.00  0.00     0.099 A 
HETATM    4  C   UNL     1      12.510   7.002   7.880  1.00  0.00     0.050 A 
HETATM    5  C   UNL     1      13.330   6.830   8.983  1.00  0.00    -0.033 A 
HETATM    6  C   UNL     1      12.805   6.592  10.243  1.00  0.00     0.014 A 
HETATM    7  C   UNL     1      11.420   6.525  10.404  1.00  0.00     0.040 A 
HETATM    8  C   UNL     1      10.582   6.696   9.303  1.00  0.00     0.098 A 
BRANCH   5   9
HETATM    9  C   UNL     1      14.792   6.901   8.814  1.00  0.00     0.012 C 
HETATM   10  C   UNL     1      15.700   6.767   9.809  1.00  0.00     0.012 C 
BRANCH  10  11
HETATM   11  C   UNL     1      17.145   6.818   9.639  1.00  0.00    -0.036 A 
HETATM   12  C   UNL     1      17.696   6.827   8.359  1.00  0.00     0.011 A 
HETATM   13  C   UNL     1      19.081   6.876   8.195  1.00  0.00     0.001 A 
HETATM   14  C   UNL     1      19.913   6.917   9.314  1.00  0.00     0.000 A 
HETATM   15  C   UNL     1      19.361   6.908  10.595  1.00  0.00     0.001 A 
HETATM   16  C   UNL     1      17.977   6.859  10.758  1.00  0.00     0.011 A 
ENDBRANCH  10  11
ENDBRANCH   5   9
BRANCH   8  17
HETATM   17  O   UNL     1       9.232   6.627   9.473  1.00  0.00    -0.358 OA
HETATM   18  H   UNL     1       8.870   6.578  10.336  1.00  0.00     0.217 HD
ENDBRANCH   8  17
ENDBRANCH   1   3
TORSDOF 4
ENDMDL
MODEL 2
REMARK VINA RESULT:      -6.6      0.979      2.053
REMARK  4 active torsions:
REMARK  status: ('A' for Active; 'I' for Inactive)
REMARK    1  A    between atoms: O_1  and  C_9 
REMARK    2  A    between atoms: O_2  and  C_10 
REMARK    3  A    between atoms: C_3  and  C_5 
REMARK    4  A    between atoms: C_4  and  C_8 
ROOT
HETATM    1  O   UNL     1       9.547   6.372   9.603  1.00  0.00    -0.358 OA
HETATM    2  H   UNL     1       9.457   6.614  10.505  1.00  0.00     0.217 HD
ENDROOT
BRANCH   1   3
HETATM    3  C   UNL     1      10.742   6.541   8.970  1.00  0.00     0.099 A 
HETATM    4  C   UNL     1      11.901   6.710   9.728  1.00  0.00     0.050 A 
HETATM    5  C   UNL     1      13.114   6.882   9.080  1.00  0.00    -0.033 A 
HETATM    6  C   UNL     1      13.200   6.890   7.698  1.00  0.00     0.014 A 
HETATM    7  C   UNL     1      12.040   6.721   6.941  1.00  0.00     0.040 A 
HETATM    8  C   UNL     1      10.812   6.547   7.578  1.00  0.00     0.098 A 
BRANCH   5   9
HETATM    9  C   UNL     1      14.340   7.060   9.880  1.00  0.00     0.012 C 
HETATM   10  C   UNL     1      15.602   7.022   9.391  1.00  0.00     0.012 C 
BRANCH  10  11
HETATM   11  C   UNL     1      16.811   7.217  10.177  1.00  0.00    -0.036 A 
HETATM   12  C   UNL     1      18.035   6.750   9.701  1.00  0.00     0.011 A 
HETATM   13  C   UNL     1      19.195   6.937  10.454  1.00  0.00     0.001 A 
HETATM   14  C   UNL     1      19.128   7.592  11.684  1.00  0.00     0.000 A 
HETATM   15  C   UNL     1      17.903   8.060  12.160  1.00  0.00     0.001 A 
HETATM   16  C   UNL     1      16.744   7.873  11.406  1.00  0.00     0.011 A 
ENDBRANCH  10  11
ENDBRANCH   5   9
BRANCH   8  17
HETATM   17  O   UNL     1       9.686   6.385   6.827  1.00  0.00    -0.358 OA
HETATM   18  H   UNL     1       9.708   6.560   5.906  1.00  0.00     0.217 HD
ENDBRANCH   8  17
ENDBRANCH   1   3
TORSDOF 4
ENDMDL
MODEL 3
REMARK VINA RESULT:      -6.6      2.085      3.315
REMARK  4 active torsions:
REMARK  status: ('A' for Active; 'I' for Inactive)
REMARK    1  A    between atoms: O_1  and  C_9 
REMARK    2  A    between atoms: O_2  and  C_10 
REMARK    3  A    between atoms: C_3  and  C_5 
REMARK    4  A    between atoms: C_4  and  C_8 
ROOT
HETATM    1  O   UNL     1       9.479   6.313   9.603  1.00  0.00    -0.358 OA
HETATM    2  H   UNL     1       8.722   6.179   9.067  1.00  0.00     0.217 HD
ENDROOT
BRANCH   1   3
HETATM    3  C   UNL     1      10.698   6.504   9.024  1.00  0.00     0.099 A 
HETATM    4  C   UNL     1      11.821   6.681   9.832  1.00  0.00     0.050 A 
HETATM    5  C   UNL     1      13.058   6.875   9.240  1.00  0.00    -0.033 A 
HETATM    6  C   UNL     1      13.204   6.898   7.863  1.00  0.00     0.014 A 
HETATM    7  C   UNL     1      12.080   6.721   7.054  1.00  0.00     0.040 A 
HETATM    8  C   UNL     1      10.828   6.524   7.635  1.00  0.00     0.098 A 
BRANCH   5   9
HETATM    9  C   UNL     1      14.245   7.061  10.093  1.00  0.00     0.012 C 
HETATM   10  C   UNL     1      14.271   7.761  11.253  1.00  0.00     0.012 C 
BRANCH  10  11
HETATM   11  C   UNL     1      15.438   7.927  12.106  1.00  0.00    -0.036 A 
HETATM   12  C   UNL     1      15.286   8.008  13.489  1.00  0.00     0.011 A 
HETATM   13  C   UNL     1      16.405   8.168  14.306  1.00  0.00     0.001 A 
HETATM   14  C   UNL     1      17.676   8.246  13.738  1.00  0.00     0.000 A 
HETATM   15  C   UNL     1      17.829   8.165  12.354  1.00  0.00     0.001 A 
HETATM   16  C   UNL     1      16.710   8.005  11.537  1.00  0.00     0.011 A 
ENDBRANCH  10  11
ENDBRANCH   5   9
BRANCH   8  17
HETATM   17  O   UNL     1       9.738   6.355   6.835  1.00  0.00    -0.358 OA
HETATM   18  H   UNL     1       9.725   5.663   6.202  1.00  0.00     0.217 HD
ENDBRANCH   8  17
ENDBRANCH   1   3
TORSDOF 4
ENDMDL
MODEL 4
REMARK VINA RESULT:      -6.5      3.812      7.181
REMARK  4 active torsions:
REMARK  status: ('A' for Active; 'I' for Inactive)
REMARK    1  A    between atoms: O_1  and  C_9 
REMARK    2  A    between atoms: O_2  and  C_10 
REMARK    3  A    between atoms: C_3  and  C_5 
REMARK    4  A    between atoms: C_4  and  C_8 
ROOT
HETATM    1  O   UNL     1      20.294   6.814   7.725  1.00  0.00    -0.358 OA
HETATM    2  H   UNL     1      20.550   5.966   7.420  1.00  0.00     0.217 HD
ENDROOT
BRANCH   1   3
HETATM    3  C   UNL     1      19.265   6.938   8.610  1.00  0.00     0.099 A 
HETATM    4  C   UNL     1      17.951   6.851   8.149  1.00  0.00     0.050 A 
HETATM    5  C   UNL     1      16.907   6.978   9.051  1.00  0.00    -0.033 A 
HETATM    6  C   UNL     1      17.140   7.190  10.399  1.00  0.00     0.014 A 
HETATM    7  C   UNL     1      18.455   7.278  10.860  1.00  0.00     0.040 A 
HETATM    8  C   UNL     1      19.516   7.152   9.965  1.00  0.00     0.098 A 
BRANCH   5   9
HETATM    9  C   UNL     1      15.519   6.884   8.565  1.00  0.00     0.012 C 
HETATM   10  C   UNL     1      14.415   6.900   9.350  1.00  0.00     0.012 C 
BRANCH  10  11
HETATM   11  C   UNL     1      13.044   6.827   8.869  1.00  0.00    -0.036 A 
HETATM   12  C   UNL     1      12.003   6.577   9.762  1.00  0.00     0.011 A 
HETATM   13  C   UNL     1      10.688   6.508   9.301  1.00  0.00     0.001 A 
HETATM   14  C   UNL     1      10.416   6.690   7.945  1.00  0.00     0.000 A 
HETATM   15  C   UNL     1      11.457   6.941   7.051  1.00  0.00     0.001 A 
HETATM   16  C   UNL     1      12.771   7.010   7.513  1.00  0.00     0.011 A 
ENDBRANCH  10  11
ENDBRANCH   5   9
BRANCH   8  17
HETATM   17  O   UNL     1      20.795   7.241  10.426  1.00  0.00    -0.358 OA
HETATM   18  H   UNL     1      21.137   8.070  10.700  1.00  0.00     0.217 HD
ENDBRANCH   8  17
ENDBRANCH   1   3
TORSDOF 4
ENDMDL
MODEL 5
REMARK VINA RESULT:      -6.5      3.088      4.664
REMARK  4 active torsions:
REMARK  status: ('A' for Active; 'I' for Inactive)
REMARK    1  A    between atoms: O_1  and  C_9 
REMARK    2  A    between atoms: O_2  and  C_10 
REMARK    3  A    between atoms: C_3  and  C_5 
REMARK    4  A    between atoms: C_4  and  C_8 
ROOT
HETATM    1  O   UNL     1       9.671   6.501   8.395  1.00  0.00    -0.358 OA
HETATM    2  H   UNL     1       9.139   7.201   8.069  1.00  0.00     0.217 HD
ENDROOT
BRANCH   1   3
HETATM    3  C   UNL     1      11.024   6.649   8.461  1.00  0.00     0.099 A 
HETATM    4  C   UNL     1      11.669   6.510   9.689  1.00  0.00     0.050 A 
HETATM    5  C   UNL     1      13.045   6.661   9.752  1.00  0.00    -0.033 A 
HETATM    6  C   UNL     1      13.793   6.947   8.622  1.00  0.00     0.014 A 
HETATM    7  C   UNL     1      13.146   7.086   7.393  1.00  0.00     0.040 A 
HETATM    8  C   UNL     1      11.762   6.937   7.313  1.00  0.00     0.098 A 
BRANCH   5   9
HETATM    9  C   UNL     1      13.729   6.514  11.050  1.00  0.00     0.012 C 
HETATM   10  C   UNL     1      13.140   6.108  12.200  1.00  0.00     0.012 C 
BRANCH  10  11
HETATM   11  C   UNL     1      13.819   5.943  13.476  1.00  0.00    -0.036 A 
HETATM   12  C   UNL     1      15.102   5.401  13.519  1.00  0.00     0.011 A 
HETATM   13  C   UNL     1      15.754   5.244  14.743  1.00  0.00     0.001 A 
HETATM   14  C   UNL     1      15.119   5.629  15.923  1.00  0.00     0.000 A 
HETATM   15  C   UNL     1      13.835   6.172  15.881  1.00  0.00     0.001 A 
HETATM   16  C   UNL     1      13.185   6.330  14.657  1.00  0.00     0.011 A 
ENDBRANCH  10  11
ENDBRANCH   5   9
BRANCH   8  17
HETATM   17  O   UNL     1      11.142   7.076   6.108  1.00  0.00    -0.358 OA
HETATM   18  H   UNL     1      10.499   7.747   5.987  1.00  0.00     0.217 HD
ENDBRANCH   8  17
ENDBRANCH   1   3
TORSDOF 4
ENDMDL
MODEL 6
REMARK VINA RESULT:      -6.5      4.632      6.509
REMARK  4 active torsions:
REMARK  status: ('A' for Active; 'I' for Inactive)
REMARK    1  A    between atoms: O_1  and  C_9 
REMARK    2  A    between atoms: O_2  and  C_10 
REMARK    3  A    between atoms: C_3  and  C_5 
REMARK    4  A    between atoms: C_4  and  C_8 
ROOT
HETATM    1  O   UNL     1      11.925   6.313  16.634  1.00  0.00    -0.358 OA
HETATM    2  H   UNL     1      11.912   5.489  17.081  1.00  0.00     0.217 HD
ENDROOT
BRANCH   1   3
HETATM    3  C   UNL     1      13.059   6.727  16.002  1.00  0.00     0.099 A 
HETATM    4  C   UNL     1      13.062   6.858  14.614  1.00  0.00     0.050 A 
HETATM    5  C   UNL     1      14.217   7.279  13.975  1.00  0.00    -0.033 A 
HETATM    6  C   UNL     1      15.369   7.571  14.686  1.00  0.00     0.014 A 
HETATM    7  C   UNL     1      15.367   7.440  16.075  1.00  0.00     0.040 A 
HETATM    8  C   UNL     1      14.212   7.018  16.732  1.00  0.00     0.098 A 
BRANCH   5   9
HETATM    9  C   UNL     1      14.220   7.419  12.508  1.00  0.00     0.012 C 
HETATM   10  C   UNL     1      13.549   6.619  11.646  1.00  0.00     0.012 C 
BRANCH  10  11
HETATM   11  C   UNL     1      13.536   6.769  10.199  1.00  0.00    -0.036 A 
HETATM   12  C   UNL     1      14.733   6.933   9.504  1.00  0.00     0.011 A 
HETATM   13  C   UNL     1      14.720   7.078   8.116  1.00  0.00     0.001 A 
HETATM   14  C   UNL     1      13.509   7.057   7.425  1.00  0.00     0.000 A 
HETATM   15  C   UNL     1      12.311   6.893   8.120  1.00  0.00     0.001 A 
HETATM   16  C   UNL     1      12.324   6.748   9.508  1.00  0.00     0.011 A 
ENDBRANCH  10  11
ENDBRANCH   5   9
BRANCH   8  17
HETATM   17  O   UNL     1      14.222   6.891  18.089  1.00  0.00    -0.358 OA
HETATM   18  H   UNL     1      14.349   6.048  18.480  1.00  0.00     0.217 HD
ENDBRANCH   8  17
ENDBRANCH   1   3
TORSDOF 4
ENDMDL
MODEL 7
REMARK VINA RESULT:      -6.5      0.737      1.722
REMARK  4 active torsions:
REMARK  status: ('A' for Active; 'I' for Inactive)
REMARK    1  A    between atoms: O_1  and  C_9 
REMARK    2  A    between atoms: O_2  and  C_10 
REMARK    3  A    between atoms: C_3  and  C_5 
REMARK    4  A    between atoms: C_4  and  C_8 
ROOT
HETATM    1  O   UNL     1      10.809   6.547  11.750  1.00  0.00    -0.358 OA
HETATM    2  H   UNL     1      10.535   5.708  12.064  1.00  0.00     0.217 HD
ENDROOT
BRANCH   1   3
HETATM    3  C   UNL     1      11.351   6.665  10.505  1.00  0.00     0.099 A 
HETATM    4  C   UNL     1      12.736   6.743  10.365  1.00  0.00     0.050 A 
HETATM    5  C   UNL     1      13.283   6.864   9.098  1.00  0.00    -0.033 A 
HETATM    6  C   UNL     1      12.483   6.908   7.968  1.00  0.00     0.014 A 
HETATM    7  C   UNL     1      11.097   6.830   8.108  1.00  0.00     0.040 A 
HETATM    8  C   UNL     1      10.532   6.708   9.377  1.00  0.00     0.098 A 
BRANCH   5   9
HETATM    9  C   UNL     1      14.747   6.945   8.948  1.00  0.00     0.012 C 
HETATM   10  C   UNL     1      15.643   6.797   9.953  1.00  0.00     0.012 C 
BRANCH  10  11
HETATM   11  C   UNL     1      17.089   6.858   9.801  1.00  0.00    -0.036 A 
HETATM   12  C   UNL     1      17.672   6.610   8.560  1.00  0.00     0.011 A 
HETATM   13  C   UNL     1      19.058   6.669   8.415  1.00  0.00     0.001 A 
HETATM   14  C   UNL     1      19.861   6.975   9.513  1.00  0.00     0.000 A 
HETATM   15  C   UNL     1      19.278   7.223  10.756  1.00  0.00     0.001 A 
HETATM   16  C   UNL     1      17.892   7.165  10.901  1.00  0.00     0.011 A 
ENDBRANCH  10  11
ENDBRANCH   5   9
BRANCH   8  17
HETATM   17  O   UNL     1       9.177   6.635   9.502  1.00  0.00    -0.358 OA
HETATM   18  H   UNL     1       8.662   6.270   8.809  1.00  0.00     0.217 HD
ENDBRANCH   8  17
ENDBRANCH   1   3
TORSDOF 4
ENDMDL
MODEL 8
REMARK VINA RESULT:      -6.3      4.502      6.673
REMARK  4 active torsions:
REMARK  status: ('A' for Active; 'I' for Inactive)
REMARK    1  A    between atoms: O_1  and  C_9 
REMARK    2  A    between atoms: O_2  and  C_10 
REMARK    3  A    between atoms: C_3  and  C_5 
REMARK    4  A    between atoms: C_4  and  C_8 
ROOT
HETATM    1  O   UNL     1      11.904   7.216  16.054  1.00  0.00    -0.358 OA
HETATM    2  H   UNL     1      11.062   6.809  16.113  1.00  0.00     0.217 HD
ENDROOT
BRANCH   1   3
HETATM    3  C   UNL     1      12.847   6.709  15.211  1.00  0.00     0.099 A 
HETATM    4  C   UNL     1      12.574   6.629  13.846  1.00  0.00     0.050 A 
HETATM    5  C   UNL     1      13.535   6.111  12.992  1.00  0.00    -0.033 A 
HETATM    6  C   UNL     1      14.760   5.672  13.465  1.00  0.00     0.014 A 
HETATM    7  C   UNL     1      15.033   5.752  14.832  1.00  0.00     0.040 A 
HETATM    8  C   UNL     1      14.076   6.270  15.703  1.00  0.00     0.098 A 
BRANCH   5   9
HETATM    9  C   UNL     1      13.248   6.028  11.548  1.00  0.00     0.012 C 
HETATM   10  C   UNL     1      12.287   6.730  10.902  1.00  0.00     0.012 C 
BRANCH  10  11
HETATM   11  C   UNL     1      12.017   6.662   9.474  1.00  0.00    -0.036 A 
HETATM   12  C   UNL     1      10.754   6.285   9.020  1.00  0.00     0.011 A 
HETATM   13  C   UNL     1      10.495   6.221   7.651  1.00  0.00     0.001 A 
HETATM   14  C   UNL     1      11.501   6.533   6.736  1.00  0.00     0.000 A 
HETATM   15  C   UNL     1      12.765   6.910   7.190  1.00  0.00     0.001 A 
HETATM   16  C   UNL     1      13.023   6.975   8.559  1.00  0.00     0.011 A 
ENDBRANCH  10  11
ENDBRANCH   5   9
BRANCH   8  17
HETATM   17  O   UNL     1      14.353   6.341  17.036  1.00  0.00    -0.358 OA
HETATM   18  H   UNL     1      13.889   6.948  17.579  1.00  0.00     0.217 HD
ENDBRANCH   8  17
ENDBRANCH   1   3
TORSDOF 4
ENDMDL
MODEL 9
REMARK VINA RESULT:      -6.3      3.517      4.843
REMARK  4 active torsions:
REMARK  status: ('A' for Active; 'I' for Inactive)
REMARK    1  A    between atoms: O_1  and  C_9 
REMARK    2  A    between atoms: O_2  and  C_10 
REMARK    3  A    between atoms: C_3  and  C_5 
REMARK    4  A    between atoms: C_4  and  C_8 
ROOT
HETATM    1  O   UNL     1      13.880   7.017   6.710  1.00  0.00    -0.358 OA
HETATM    2  H   UNL     1      13.845   6.591   5.876  1.00  0.00     0.217 HD
ENDROOT
BRANCH   1   3
HETATM    3  C   UNL     1      12.879   6.828   7.615  1.00  0.00     0.099 A 
HETATM    4  C   UNL     1      13.179   6.809   8.976  1.00  0.00     0.050 A 
HETATM    5  C   UNL     1      12.158   6.616   9.893  1.00  0.00    -0.033 A 
HETATM    6  C   UNL     1      10.846   6.440   9.485  1.00  0.00     0.014 A 
HETATM    7  C   UNL     1      10.546   6.459   8.123  1.00  0.00     0.040 A 
HETATM    8  C   UNL     1      11.562   6.653   7.188  1.00  0.00     0.098 A 
BRANCH   5   9
HETATM    9  C   UNL     1      12.475   6.597  11.332  1.00  0.00     0.012 C 
HETATM   10  C   UNL     1      13.545   5.981  11.888  1.00  0.00     0.012 C 
BRANCH  10  11
HETATM   11  C   UNL     1      13.868   5.979  13.307  1.00  0.00    -0.036 A 
HETATM   12  C   UNL     1      15.096   5.485  13.742  1.00  0.00     0.011 A 
HETATM   13  C   UNL     1      15.406   5.483  15.102  1.00  0.00     0.001 A 
HETATM   14  C   UNL     1      14.486   5.978  16.026  1.00  0.00     0.000 A 
HETATM   15  C   UNL     1      13.257   6.473  15.591  1.00  0.00     0.001 A 
HETATM   16  C   UNL     1      12.948   6.475  14.231  1.00  0.00     0.011 A 
ENDBRANCH  10  11
ENDBRANCH   5   9
BRANCH   8  17
HETATM   17  O   UNL     1      11.257   6.667   5.860  1.00  0.00    -0.358 OA
HETATM   18  H   UNL     1      11.902   6.933   5.234  1.00  0.00     0.217 HD
ENDBRANCH   8  17
ENDBRANCH   1   3
TORSDOF 4
ENDMDL
