MODEL 1
REMARK VINA RESULT:      -6.7      0.000      0.000
REMARK  4 active torsions:
REMARK  status: ('A' for Active; 'I' for Inactive)
REMARK    1  A    between atoms: O_1  and  C_9 
REMARK    2  A    between atoms: O_2  and  C_10 
REMARK    3  A    between atoms: C_3  and  C_5 
REMARK    4  A    between atoms: C_4  and  C_8 
ROOT
HETATM    1  O   UNL     1      12.664   4.605   9.191  1.00  0.00    -0.358 OA
HETATM    2  H   UNL     1      12.794   5.217   8.493  1.00  0.00     0.217 HD
ENDROOT
BRANCH   1   3
HETATM    3  C   UNL     1      13.274   4.802  10.393  1.00  0.00     0.099 A 
HETATM    4  C   UNL     1      14.633   5.112  10.428  1.00  0.00     0.050 A 
HETATM    5  C   UNL     1      15.251   5.312  11.652  1.00  0.00    -0.033 A 
HETATM    6  C   UNL     1      14.548   5.210  12.841  1.00  0.00     0.014 A 
HETATM    7  C   UNL     1      13.187   4.899  12.805  1.00  0.00     0.040 A 
HETATM    8  C   UNL     1      12.552   4.696  11.581  1.00  0.00     0.098 A 
BRANCH   5   9
HETATM    9  C   UNL     1      16.688   5.641  11.691  1.00  0.00     0.012 C 
HETATM   10  C   UNL     1      17.412   5.838  12.817  1.00  0.00     0.012 C 
BRANCH  10  11
HETATM   11  C   UNL     1      18.835   6.143  12.856  1.00  0.00    -0.036 A 
HETATM   12  C   UNL     1      19.418   6.603  14.035  1.00  0.00     0.011 A 
HETATM   13  C   UNL     1      20.782   6.895  14.072  1.00  0.00     0.001 A 
HETATM   14  C   UNL     1      21.561   6.727  12.928  1.00  0.00     0.000 A 
HETATM   15  C   UNL     1      20.978   6.266  11.747  1.00  0.00     0.001 A 
HETATM   16  C   UNL     1      19.615   5.974  11.711  1.00  0.00     0.011 A 
ENDBRANCH  10  11
ENDBRANCH   5   9
BRANCH   8  17
HETATM   17  O   UNL     1      11.224   4.392  11.559  1.00  0.00    -0.358 OA
HETATM   18  H   UNL     1      10.714   4.462  12.342  1.00  0.00     0.217 HD
ENDBRANCH   8  17
ENDBRANCH   1   3
TORSDOF 4
ENDMDL
MODEL 2
REMARK VINA RESULT:      -6.6      0.977      2.289
REMARK  4 active torsions:
REMARK  status: ('A' for Active; 'I' for Inactive)
REMARK    1  A    between atoms: O_1  and  C_9 
REMARK    2  A    between atoms: O_2  and  C_10 
REMARK    3  A    between atoms: C_3  and  C_5 
REMARK    4  A    between atoms: C_4  and  C_8 
ROOT
HETATM    1  O   UNL     1      11.545   4.243  11.818  1.00  0.00    -0.358 OA
HETATM    2  H   UNL     1      11.297   4.495  12.687  1.00  0.00     0.217 HD
ENDROOT
BRANCH   1   3
HETATM    3  C   UNL     1      12.798   4.521  11.360  1.00  0.00     0.099 A 
HETATM    4  C   UNL     1      13.757   5.015  12.244  1.00  0.00     0.050 A 
HETATM    5  C   UNL     1      15.030   5.297  11.775  1.00  0.00    -0.033 A 
HETATM    6  C   UNL     1      15.369   5.099  10.447  1.00  0.00     0.014 A 
HETATM    7  C   UNL     1      14.410   4.605   9.562  1.00  0.00     0.040 A 
HETATM    8  C   UNL     1      13.125   4.316  10.020  1.00  0.00     0.098 A 
BRANCH   5   9
HETATM    9  C   UNL     1      16.044   5.818  12.708  1.00  0.00     0.012 C 
HETATM   10  C   UNL     1      17.343   6.048  12.400  1.00  0.00     0.012 C 
BRANCH  10  11
HETATM   11  C   UNL     1      18.340   6.581  13.316  1.00  0.00    -0.036 A 
HETATM   12  C   UNL     1      19.686   6.263  13.145  1.00  0.00     0.011 A 
HETATM   13  C   UNL     1      20.642   6.774  14.023  1.00  0.00     0.001 A 
HETATM   14  C   UNL     1      20.249   7.605  15.073  1.00  0.00     0.000 A 
HETATM   15  C   UNL     1      18.902   7.924  15.244  1.00  0.00     0.001 A 
HETATM   16  C   UNL     1      17.947   7.413  14.365  1.00  0.00     0.011 A 
ENDBRANCH  10  11
ENDBRANCH   5   9
BRANCH   8  17
HETATM   17  O   UNL     1      12.196   3.836   9.147  1.00  0.00    -0.358 OA
HETATM   18  H   UNL     1      11.356   4.248   9.081  1.00  0.00     0.217 HD
ENDBRANCH   8  17
ENDBRANCH   1   3
TORSDOF 4
ENDMDL
MODEL 3
REMARK VINA RESULT:      -6.6      2.211      3.292
REMARK  4 active torsions:
REMARK  status: ('A' for Active; 'I' for Inactive)
REMARK    1  A    between atoms: O_1  and  C_9 
REMARK    2  A    between atoms: O_2  and  C_10 
REMARK    3  A    between atoms: C_3  and  C_5 
REMARK    4  A    between atoms: C_4  and  C_8 
ROOT
HETATM    1  O   UNL     1      11.513   4.058  11.857  1.00  0.00    -0.358 OA
HETATM    2  H   UNL     1      11.341   3.169  12.098  1.00  0.00     0.217 HD
ENDROOT
BRANCH   1   3
HETATM    3  C   UNL     1      12.761   4.423  11.448  1.00  0.00     0.099 A 
HETATM    4  C   UNL     1      13.642   4.996  12.365  1.00  0.00     0.050 A 
HETATM    5  C   UNL     1      14.909   5.366  11.946  1.00  0.00    -0.033 A 
HETATM    6  C   UNL     1      15.319   5.181  10.636  1.00  0.00     0.014 A 
HETATM    7  C   UNL     1      14.437   4.608   9.718  1.00  0.00     0.040 A 
HETATM    8  C   UNL     1      13.158   4.230  10.125  1.00  0.00     0.098 A 
BRANCH   5   9
HETATM    9  C   UNL     1      15.842   5.970  12.914  1.00  0.00     0.012 C 
HETATM   10  C   UNL     1      15.478   6.656  14.024  1.00  0.00     0.012 C 
BRANCH  10  11
HETATM   11  C   UNL     1      16.399   7.235  14.991  1.00  0.00    -0.036 A 
HETATM   12  C   UNL     1      15.937   7.628  16.245  1.00  0.00     0.011 A 
HETATM   13  C   UNL     1      16.820   8.183  17.172  1.00  0.00     0.001 A 
HETATM   14  C   UNL     1      18.165   8.344  16.842  1.00  0.00     0.000 A 
HETATM   15  C   UNL     1      18.628   7.950  15.587  1.00  0.00     0.001 A 
HETATM   16  C   UNL     1      17.745   7.395  14.661  1.00  0.00     0.011 A 
ENDBRANCH  10  11
ENDBRANCH   5   9
BRANCH   8  17
HETATM   17  O   UNL     1      12.306   3.674   9.220  1.00  0.00    -0.358 OA
HETATM   18  H   UNL     1      12.291   3.986   8.336  1.00  0.00     0.217 HD
ENDBRANCH   8  17
ENDBRANCH   1   3
TORSDOF 4
ENDMDL
MODEL 4
REMARK VINA RESULT:      -6.5      4.718      6.552
REMARK  4 active torsions:
REMARK  status: ('A' for Active; 'I' for Inactive)
REMARK    1  A    between atoms: O_1  and  C_9 
REMARK    2  A    between atoms: O_2  and  C_10 
REMARK    3  A    between atoms: C_3  and  C_5 
REMARK    4  A    between atoms: C_4  and  C_8 
ROOT
HETATM    1  O   UNL     1      12.285   6.117  19.011  1.00  0.00    -0.358 OA
HETATM    2  H   UNL     1      12.071   6.501  19.838  1.00  0.00     0.217 HD
ENDROOT
BRANCH   1   3
HETATM    3  C   UNL     1      13.588   6.014  18.624  1.00  0.00     0.099 A 
HETATM    4  C   UNL     1      13.901   6.001  17.265  1.00  0.00     0.050 A 
HETATM    5  C   UNL     1      15.226   5.896  16.876  1.00  0.00    -0.033 A 
HETATM    6  C   UNL     1      16.247   5.804  17.807  1.00  0.00     0.014 A 
HETATM    7  C   UNL     1      15.934   5.817  19.167  1.00  0.00     0.040 A 
HETATM    8  C   UNL     1      14.604   5.922  19.575  1.00  0.00     0.098 A 
BRANCH   5   9
HETATM    9  C   UNL     1      15.558   5.883  15.440  1.00  0.00     0.012 C 
HETATM   10  C   UNL     1      14.792   5.334  14.467  1.00  0.00     0.012 C 
BRANCH  10  11
HETATM   11  C   UNL     1      15.110   5.339  13.047  1.00  0.00    -0.036 A 
HETATM   12  C   UNL     1      16.402   5.644  12.622  1.00  0.00     0.011 A 
HETATM   13  C   UNL     1      16.707   5.649  11.261  1.00  0.00     0.001 A 
HETATM   14  C   UNL     1      15.717   5.347  10.325  1.00  0.00     0.000 A 
HETATM   15  C   UNL     1      14.424   5.041  10.750  1.00  0.00     0.001 A 
HETATM   16  C   UNL     1      14.120   5.037  12.111  1.00  0.00     0.011 A 
ENDBRANCH  10  11
ENDBRANCH   5   9
BRANCH   8  17
HETATM   17  O   UNL     1      14.311   5.932  20.905  1.00  0.00    -0.358 OA
HETATM   18  H   UNL     1      13.423   5.840  21.190  1.00  0.00     0.217 HD
ENDBRANCH   8  17
ENDBRANCH   1   3
TORSDOF 4
ENDMDL
MODEL 5
REMARK VINA RESULT:      -6.5      4.731      6.556
REMARK  4 active torsions:
REMARK  status: ('A' for Active; 'I' for Inactive)
REMARK    1  A    between atoms: O_1  and  C_9 
REMARK    2  A    between atoms: O_2  and  C_10 
REMARK    3  A    between atoms: C_3  and  C_5 
REMARK    4  A    between atoms: C_4  and  C_8 
ROOT
HETATM    1  O   UNL     1      12.296   6.120  18.968  1.00  0.00    -0.358 OA
HETATM    2  H   UNL     1      11.722   6.598  18.402  1.00  0.00     0.217 HD
ENDROOT
BRANCH   1   3
HETATM    3  C   UNL     1      13.601   5.940  18.621  1.00  0.00     0.099 A 
HETATM    4  C   UNL     1      13.947   5.860  17.273  1.00  0.00     0.050 A 
HETATM    5  C   UNL     1      15.275   5.677  16.924  1.00  0.00    -0.033 A 
HETATM    6  C   UNL     1      16.266   5.572  17.886  1.00  0.00     0.014 A 
HETATM    7  C   UNL     1      15.920   5.652  19.235  1.00  0.00     0.040 A 
HETATM    8  C   UNL     1      14.587   5.837  19.602  1.00  0.00     0.098 A 
BRANCH   5   9
HETATM    9  C   UNL     1      15.642   5.593  15.499  1.00  0.00     0.012 C 
HETATM   10  C   UNL     1      14.764   5.501  14.471  1.00  0.00     0.012 C 
BRANCH  10  11
HETATM   11  C   UNL     1      15.126   5.438  13.063  1.00  0.00    -0.036 A 
HETATM   12  C   UNL     1      14.170   5.085  12.113  1.00  0.00     0.011 A 
HETATM   13  C   UNL     1      14.516   5.025  10.762  1.00  0.00     0.001 A 
HETATM   14  C   UNL     1      15.820   5.318  10.365  1.00  0.00     0.000 A 
HETATM   15  C   UNL     1      16.778   5.672  11.316  1.00  0.00     0.001 A 
HETATM   16  C   UNL     1      16.431   5.732  12.666  1.00  0.00     0.011 A 
ENDBRANCH  10  11
ENDBRANCH   5   9
BRANCH   8  17
HETATM   17  O   UNL     1      14.261   5.912  20.923  1.00  0.00    -0.358 OA
HETATM   18  H   UNL     1      14.658   5.325  21.537  1.00  0.00     0.217 HD
ENDBRANCH   8  17
ENDBRANCH   1   3
TORSDOF 4
ENDMDL
MODEL 6
REMARK VINA RESULT:      -6.5      3.836      7.198
REMARK  4 active torsions:
REMARK  status: ('A' for Active; 'I' for Inactive)
REMARK    1  A    between atoms: O_1  and  C_9 
REMARK    2  A    between atoms: O_2  and  C_10 
REMARK    3  A    between atoms: C_3  and  C_5 
REMARK    4  A    between atoms: C_4  and  C_8 
ROOT
HETATM    1  O   UNL     1      22.318   6.491  11.459  1.00  0.00    -0.358 OA
HETATM    2  H   UNL     1      22.904   5.763  11.532  1.00  0.00     0.217 HD
ENDROOT
BRANCH   1   3
HETATM    3  C   UNL     1      21.164   6.511  12.184  1.00  0.00     0.099 A 
HETATM    4  C   UNL     1      19.973   6.100  11.587  1.00  0.00     0.050 A 
HETATM    5  C   UNL     1      18.801   6.123  12.327  1.00  0.00    -0.033 A 
HETATM    6  C   UNL     1      18.789   6.544  13.646  1.00  0.00     0.014 A 
HETATM    7  C   UNL     1      19.982   6.955  14.244  1.00  0.00     0.040 A 
HETATM    8  C   UNL     1      21.169   6.938  13.512  1.00  0.00     0.098 A 
BRANCH   5   9
HETATM    9  C   UNL     1      17.541   5.688  11.697  1.00  0.00     0.012 C 
HETATM   10  C   UNL     1      16.333   5.664  12.307  1.00  0.00     0.012 C 
BRANCH  10  11
HETATM   11  C   UNL     1      15.085   5.254  11.680  1.00  0.00    -0.036 A 
HETATM   12  C   UNL     1      14.997   5.174  10.291  1.00  0.00     0.011 A 
HETATM   13  C   UNL     1      13.801   4.781   9.689  1.00  0.00     0.001 A 
HETATM   14  C   UNL     1      12.695   4.467  10.478  1.00  0.00     0.000 A 
HETATM   15  C   UNL     1      12.783   4.546  11.868  1.00  0.00     0.001 A 
HETATM   16  C   UNL     1      13.979   4.939  12.469  1.00  0.00     0.011 A 
ENDBRANCH  10  11
ENDBRANCH   5   9
BRANCH   8  17
HETATM   17  O   UNL     1      22.326   7.343  14.105  1.00  0.00    -0.358 OA
HETATM   18  H   UNL     1      23.109   6.839  13.997  1.00  0.00     0.217 HD
ENDBRANCH   8  17
ENDBRANCH   1   3
TORSDOF 4
ENDMDL
MODEL 7
REMARK VINA RESULT:      -6.5      3.101      4.625
REMARK  4 active torsions:
REMARK  status: ('A' for Active; 'I' for Inactive)
REMARK    1  A    between atoms: O_1  and  C_9 
REMARK    2  A    between atoms: O_2  and  C_10 
REMARK    3  A    between atoms: C_3  and  C_5 
REMARK    4  A    between atoms: C_4  and  C_8 
ROOT
HETATM    1  O   UNL     1      11.930   4.253  10.736  1.00  0.00    -0.358 OA
HETATM    2  H   UNL     1      11.750   3.529  10.168  1.00  0.00     0.217 HD
ENDROOT
BRANCH   1   3
HETATM    3  C   UNL     1      13.217   4.645  10.952  1.00  0.00     0.099 A 
HETATM    4  C   UNL     1      13.660   4.854  12.257  1.00  0.00     0.050 A 
HETATM    5  C   UNL     1      14.969   5.253  12.473  1.00  0.00    -0.033 A 
HETATM    6  C   UNL     1      15.847   5.449  11.419  1.00  0.00     0.014 A 
HETATM    7  C   UNL     1      15.403   5.240  10.113  1.00  0.00     0.040 A 
HETATM    8  C   UNL     1      14.088   4.838   9.880  1.00  0.00     0.098 A 
BRANCH   5   9
HETATM    9  C   UNL     1      15.439   5.474  13.853  1.00  0.00     0.012 C 
HETATM   10  C   UNL     1      14.912   4.894  14.957  1.00  0.00     0.012 C 
BRANCH  10  11
HETATM   11  C   UNL     1      15.388   5.096  16.318  1.00  0.00    -0.036 A 
HETATM   12  C   UNL     1      16.662   4.662  16.682  1.00  0.00     0.011 A 
HETATM   13  C   UNL     1      17.119   4.856  17.986  1.00  0.00     0.001 A 
HETATM   14  C   UNL     1      16.300   5.485  18.925  1.00  0.00     0.000 A 
HETATM   15  C   UNL     1      15.026   5.919  18.560  1.00  0.00     0.001 A 
HETATM   16  C   UNL     1      14.570   5.726  17.256  1.00  0.00     0.011 A 
ENDBRANCH  10  11
ENDBRANCH   5   9
BRANCH   8  17
HETATM   17  O   UNL     1      13.666   4.639   8.600  1.00  0.00    -0.358 OA
HETATM   18  H   UNL     1      13.052   3.957   8.410  1.00  0.00     0.217 HD
ENDBRANCH   8  17
ENDBRANCH   1   3
TORSDOF 4
ENDMDL
MODEL 8
REMARK VINA RESULT:      -6.3      3.140      4.713
REMARK  4 active torsions:
REMARK  status: ('A' for Active; 'I' for Inactive)
REMARK    1  A    between atoms: O_1  and  C_9 
REMARK    2  A    between atoms: O_2  and  C_10 
REMARK    3  A    between atoms: C_3  and  C_5 
REMARK    4  A    between atoms: C_4  and  C_8 
ROOT
HETATM    1  O   UNL     1      11.934   4.271  10.666  1.00  0.00    -0.358 OA
HETATM    2  H   UNL     1      11.530   4.496   9.850  1.00  0.00     0.217 HD
ENDROOT
BRANCH   1   3
HETATM    3  C   UNL     1      13.218   4.652  10.918  1.00  0.00     0.099 A 
HETATM    4  C   UNL     1      13.592   4.977  12.221  1.00  0.00     0.050 A 
HETATM    5  C   UNL     1      14.898   5.365  12.474  1.00  0.00    -0.033 A 
HETATM    6  C   UNL     1      15.839   5.437  11.460  1.00  0.00     0.014 A 
HETATM    7  C   UNL     1      15.464   5.112  10.156  1.00  0.00     0.040 A 
HETATM    8  C   UNL     1      14.153   4.720   9.886  1.00  0.00     0.098 A 
BRANCH   5   9
HETATM    9  C   UNL     1      15.296   5.707  13.852  1.00  0.00     0.012 C 
HETATM   10  C   UNL     1      14.533   6.393  14.736  1.00  0.00     0.012 C 
BRANCH  10  11
HETATM   11  C   UNL     1      14.918   6.714  16.102  1.00  0.00    -0.036 A 
HETATM   12  C   UNL     1      15.933   7.638  16.342  1.00  0.00     0.011 A 
HETATM   13  C   UNL     1      16.301   7.946  17.652  1.00  0.00     0.001 A 
HETATM   14  C   UNL     1      15.653   7.328  18.721  1.00  0.00     0.000 A 
HETATM   15  C   UNL     1      14.636   6.403  18.481  1.00  0.00     0.001 A 
HETATM   16  C   UNL     1      14.268   6.096  17.171  1.00  0.00     0.011 A 
ENDBRANCH  10  11
ENDBRANCH   5   9
BRANCH   8  17
HETATM   17  O   UNL     1      13.798   4.407   8.608  1.00  0.00    -0.358 OA
HETATM   18  H   UNL     1      12.948   4.639   8.288  1.00  0.00     0.217 HD
ENDBRANCH   8  17
ENDBRANCH   1   3
TORSDOF 4
ENDMDL
MODEL 9
REMARK VINA RESULT:      -6.2      3.358      4.946
REMARK  4 active torsions:
REMARK  status: ('A' for Active; 'I' for Inactive)
REMARK    1  A    between atoms: O_1  and  C_9 
REMARK    2  A    between atoms: O_2  and  C_10 
REMARK    3  A    between atoms: C_3  and  C_5 
REMARK    4  A    between atoms: C_4  and  C_8 
ROOT
HETATM    1  O   UNL     1      16.223   5.357   9.546  1.00  0.00    -0.358 OA
HETATM    2  H   UNL     1      17.099   5.091   9.744  1.00  0.00     0.217 HD
ENDROOT
BRANCH   1   3
HETATM    3  C   UNL     1      15.219   5.112  10.434  1.00  0.00     0.099 A 
HETATM    4  C   UNL     1      15.444   5.312  11.795  1.00  0.00     0.050 A 
HETATM    5  C   UNL     1      14.422   5.060  12.696  1.00  0.00    -0.033 A 
HETATM    6  C   UNL     1      13.181   4.614  12.272  1.00  0.00     0.014 A 
HETATM    7  C   UNL     1      12.955   4.413  10.910  1.00  0.00     0.040 A 
HETATM    8  C   UNL     1      13.975   4.663   9.991  1.00  0.00     0.098 A 
BRANCH   5   9
HETATM    9  C   UNL     1      14.659   5.273  14.135  1.00  0.00     0.012 C 
HETATM   10  C   UNL     1      14.476   6.443  14.791  1.00  0.00     0.012 C 
BRANCH  10  11
HETATM   11  C   UNL     1      14.691   6.647  16.216  1.00  0.00    -0.036 A 
HETATM   12  C   UNL     1      13.772   6.150  17.139  1.00  0.00     0.011 A 
HETATM   13  C   UNL     1      13.978   6.346  18.504  1.00  0.00     0.001 A 
HETATM   14  C   UNL     1      15.104   7.040  18.946  1.00  0.00     0.000 A 
HETATM   15  C   UNL     1      16.025   7.537  18.023  1.00  0.00     0.001 A 
HETATM   16  C   UNL     1      15.818   7.341  16.657  1.00  0.00     0.011 A 
ENDBRANCH  10  11
ENDBRANCH   5   9
BRANCH   8  17
HETATM   17  O   UNL     1      13.743   4.461   8.664  1.00  0.00    -0.358 OA
HETATM   18  H   UNL     1      13.516   3.607   8.352  1.00  0.00     0.217 HD
ENDBRANCH   8  17
ENDBRANCH   1   3
TORSDOF 4
ENDMDL
