MODEL 1
REMARK VINA RESULT:      -6.7      0.000      0.000
REMARK  6 active torsions:
REMARK  status: ('A' for Active; 'I' for Inactive)
REMARK    1  A    between atoms: O_1  and  C_8 
REMARK    2  A    between atoms: O_2  and  C_11 
REMARK    3  A    between atoms: O_3  and  C_13 
REMARK    4  A    between atoms: C_6  and  C_7 
REMARK    5  A    between atoms: C_6  and  C_8 
REMARK    6  A    between atoms: C_8  and  C_14 
ROOT
HETATM    1  O   UNL     1      23.413  -7.590  31.863  1.00  0.00    -0.385 OA
HETATM    2  H   UNL     1      24.302  -7.266  31.651  1.00  0.00     0.210 HD
ENDROOT
BRANCH   1   3
HETATM    3  C   UNL     1      22.807  -6.726  32.816  1.00  0.00     0.223 C 
BRANCH   3   4
HETATM    4  C   UNL     1      21.515  -6.155  32.206  1.00  0.00     0.081 C 
BRANCH   4   5
HETATM    5  C   UNL     1      21.538  -4.669  32.097  1.00  0.00    -0.052 A 
HETATM    6  C   UNL     1      21.381  -4.058  30.853  1.00  0.00     0.046 A 
HETATM    7  C   UNL     1      21.403  -2.667  30.751  1.00  0.00     0.099 A 
HETATM    8  C   UNL     1      21.583  -1.887  31.893  1.00  0.00     0.098 A 
HETATM    9  C   UNL     1      21.742  -2.498  33.138  1.00  0.00     0.040 A 
HETATM   10  C   UNL     1      21.719  -3.889  33.239  1.00  0.00     0.010 A 
BRANCH   7  11
HETATM   11  O   UNL     1      21.247  -2.083  29.532  1.00  0.00    -0.358 OA
HETATM   12  H   UNL     1      21.751  -1.326  29.307  1.00  0.00     0.217 HD
ENDBRANCH   7  11
BRANCH   8  13
HETATM   13  O   UNL     1      21.605  -0.528  31.806  1.00  0.00    -0.358 OA
HETATM   14  H   UNL     1      22.116  -0.027  32.413  1.00  0.00     0.217 HD
ENDBRANCH   8  13
ENDBRANCH   4   5
ENDBRANCH   3   4
BRANCH   3  15
HETATM   15  C   UNL     1      22.517  -7.545  34.057  1.00  0.00     0.203 C 
HETATM   16  O   UNL     1      23.587  -7.605  34.891  1.00  0.00    -0.646 OA
HETATM   17  O   UNL     1      21.457  -8.109  34.291  1.00  0.00    -0.646 OA
ENDBRANCH   3  15
ENDBRANCH   1   3
TORSDOF 6
ENDMDL
MODEL 2
REMARK VINA RESULT:      -6.7      1.170      2.156
REMARK  6 active torsions:
REMARK  status: ('A' for Active; 'I' for Inactive)
REMARK    1  A    between atoms: O_1  and  C_8 
REMARK    2  A    between atoms: O_2  and  C_11 
REMARK    3  A    between atoms: O_3  and  C_13 
REMARK    4  A    between atoms: C_6  and  C_7 
REMARK    5  A    between atoms: C_6  and  C_8 
REMARK    6  A    between atoms: C_8  and  C_14 
ROOT
HETATM    1  O   UNL     1      21.931  -7.627  31.699  1.00  0.00    -0.385 OA
HETATM    2  H   UNL     1      21.378  -8.186  32.266  1.00  0.00     0.210 HD
ENDROOT
BRANCH   1   3
HETATM    3  C   UNL     1      22.680  -6.727  32.506  1.00  0.00     0.223 C 
BRANCH   3   4
HETATM    4  C   UNL     1      21.698  -5.871  33.324  1.00  0.00     0.081 C 
BRANCH   4   5
HETATM    5  C   UNL     1      21.669  -4.449  32.880  1.00  0.00    -0.052 A 
HETATM    6  C   UNL     1      21.975  -3.430  33.783  1.00  0.00     0.046 A 
HETATM    7  C   UNL     1      21.948  -2.098  33.367  1.00  0.00     0.099 A 
HETATM    8  C   UNL     1      21.614  -1.786  32.050  1.00  0.00     0.098 A 
HETATM    9  C   UNL     1      21.307  -2.804  31.147  1.00  0.00     0.040 A 
HETATM   10  C   UNL     1      21.335  -4.135  31.562  1.00  0.00     0.010 A 
BRANCH   7  11
HETATM   11  O   UNL     1      22.249  -1.113  34.257  1.00  0.00    -0.358 OA
HETATM   12  H   UNL     1      21.889  -1.137  35.122  1.00  0.00     0.217 HD
ENDBRANCH   7  11
BRANCH   8  13
HETATM   13  O   UNL     1      21.585  -0.489  31.633  1.00  0.00    -0.358 OA
HETATM   14  H   UNL     1      22.294   0.087  31.841  1.00  0.00     0.217 HD
ENDBRANCH   8  13
ENDBRANCH   4   5
ENDBRANCH   3   4
BRANCH   3  15
HETATM   15  C   UNL     1      23.572  -7.557  33.407  1.00  0.00     0.203 C 
HETATM   16  O   UNL     1      24.430  -8.337  32.701  1.00  0.00    -0.646 OA
HETATM   17  O   UNL     1      23.529  -7.552  34.630  1.00  0.00    -0.646 OA
ENDBRANCH   3  15
ENDBRANCH   1   3
TORSDOF 6
ENDMDL
MODEL 3
REMARK VINA RESULT:      -6.6      3.078      4.494
REMARK  6 active torsions:
REMARK  status: ('A' for Active; 'I' for Inactive)
REMARK    1  A    between atoms: O_1  and  C_8 
REMARK    2  A    between atoms: O_2  and  C_11 
REMARK    3  A    between atoms: O_3  and  C_13 
REMARK    4  A    between atoms: C_6  and  C_7 
REMARK    5  A    between atoms: C_6  and  C_8 
REMARK    6  A    between atoms: C_8  and  C_14 
ROOT
HETATM    1  O   UNL     1      22.869  -0.831  33.665  1.00  0.00    -0.385 OA
HETATM    2  H   UNL     1      23.257  -1.312  32.917  1.00  0.00     0.210 HD
ENDROOT
BRANCH   1   3
HETATM    3  C   UNL     1      21.925  -1.664  34.325  1.00  0.00     0.223 C 
BRANCH   3   4
HETATM    4  C   UNL     1      22.157  -3.117  33.877  1.00  0.00     0.081 C 
BRANCH   4   5
HETATM    5  C   UNL     1      21.578  -3.403  32.534  1.00  0.00    -0.052 A 
HETATM    6  C   UNL     1      20.772  -2.454  31.905  1.00  0.00     0.046 A 
HETATM    7  C   UNL     1      20.230  -2.723  30.647  1.00  0.00     0.099 A 
HETATM    8  C   UNL     1      20.495  -3.940  30.020  1.00  0.00     0.098 A 
HETATM    9  C   UNL     1      21.300  -4.889  30.650  1.00  0.00     0.040 A 
HETATM   10  C   UNL     1      21.842  -4.621  31.906  1.00  0.00     0.010 A 
BRANCH   7  11
HETATM   11  O   UNL     1      19.446  -1.789  30.043  1.00  0.00    -0.358 OA
HETATM   12  H   UNL     1      18.837  -1.290  30.550  1.00  0.00     0.217 HD
ENDBRANCH   7  11
BRANCH   8  13
HETATM   13  O   UNL     1      19.972  -4.213  28.792  1.00  0.00    -0.358 OA
HETATM   14  H   UNL     1      20.422  -3.934  28.018  1.00  0.00     0.217 HD
ENDBRANCH   8  13
ENDBRANCH   4   5
ENDBRANCH   3   4
BRANCH   3  15
HETATM   15  C   UNL     1      22.140  -1.505  35.817  1.00  0.00     0.203 C 
HETATM   16  O   UNL     1      22.023  -2.684  36.480  1.00  0.00    -0.646 OA
HETATM   17  O   UNL     1      22.375  -0.444  36.380  1.00  0.00    -0.646 OA
ENDBRANCH   3  15
ENDBRANCH   1   3
TORSDOF 6
ENDMDL
MODEL 4
REMARK VINA RESULT:      -6.5      2.851      5.274
REMARK  6 active torsions:
REMARK  status: ('A' for Active; 'I' for Inactive)
REMARK    1  A    between atoms: O_1  and  C_8 
REMARK    2  A    between atoms: O_2  and  C_11 
REMARK    3  A    between atoms: O_3  and  C_13 
REMARK    4  A    between atoms: C_6  and  C_7 
REMARK    5  A    between atoms: C_6  and  C_8 
REMARK    6  A    between atoms: C_8  and  C_14 
ROOT
HETATM    1  O   UNL     1      18.272  -4.339  29.027  1.00  0.00    -0.385 OA
HETATM    2  H   UNL     1      18.012  -4.848  29.810  1.00  0.00     0.210 HD
ENDROOT
BRANCH   1   3
HETATM    3  C   UNL     1      19.350  -3.473  29.362  1.00  0.00     0.223 C 
BRANCH   3   4
HETATM    4  C   UNL     1      20.538  -4.330  29.830  1.00  0.00     0.081 C 
BRANCH   4   5
HETATM    5  C   UNL     1      21.070  -3.901  31.154  1.00  0.00    -0.052 A 
HETATM    6  C   UNL     1      21.104  -2.547  31.488  1.00  0.00     0.046 A 
HETATM    7  C   UNL     1      21.603  -2.146  32.728  1.00  0.00     0.099 A 
HETATM    8  C   UNL     1      22.066  -3.100  33.634  1.00  0.00     0.098 A 
HETATM    9  C   UNL     1      22.033  -4.454  33.300  1.00  0.00     0.040 A 
HETATM   10  C   UNL     1      21.535  -4.854  32.061  1.00  0.00     0.010 A 
BRANCH   7  11
HETATM   11  O   UNL     1      21.630  -0.822  33.042  1.00  0.00    -0.358 OA
HETATM   12  H   UNL     1      22.032  -0.210  32.457  1.00  0.00     0.217 HD
ENDBRANCH   7  11
BRANCH   8  13
HETATM   13  O   UNL     1      22.554  -2.720  34.848  1.00  0.00    -0.358 OA
HETATM   14  H   UNL     1      23.154  -2.002  34.909  1.00  0.00     0.217 HD
ENDBRANCH   8  13
ENDBRANCH   4   5
ENDBRANCH   3   4
BRANCH   3  15
HETATM   15  C   UNL     1      19.698  -2.675  28.122  1.00  0.00     0.203 C 
HETATM   16  O   UNL     1      18.606  -2.411  27.360  1.00  0.00    -0.646 OA
HETATM   17  O   UNL     1      20.827  -2.317  27.815  1.00  0.00    -0.646 OA
ENDBRANCH   3  15
ENDBRANCH   1   3
TORSDOF 6
ENDMDL
MODEL 5
REMARK VINA RESULT:      -6.5      0.818      2.206
REMARK  6 active torsions:
REMARK  status: ('A' for Active; 'I' for Inactive)
REMARK    1  A    between atoms: O_1  and  C_8 
REMARK    2  A    between atoms: O_2  and  C_11 
REMARK    3  A    between atoms: O_3  and  C_13 
REMARK    4  A    between atoms: C_6  and  C_7 
REMARK    5  A    between atoms: C_6  and  C_8 
REMARK    6  A    between atoms: C_8  and  C_14 
ROOT
HETATM    1  O   UNL     1      20.922  -7.338  34.053  1.00  0.00    -0.385 OA
HETATM    2  H   UNL     1      21.359  -8.063  34.526  1.00  0.00     0.210 HD
ENDROOT
BRANCH   1   3
HETATM    3  C   UNL     1      21.850  -6.722  33.168  1.00  0.00     0.223 C 
BRANCH   3   4
HETATM    4  C   UNL     1      21.942  -5.228  33.520  1.00  0.00     0.081 C 
BRANCH   4   5
HETATM    5  C   UNL     1      21.779  -4.346  32.330  1.00  0.00    -0.052 A 
HETATM    6  C   UNL     1      21.659  -2.966  32.495  1.00  0.00     0.046 A 
HETATM    7  C   UNL     1      21.505  -2.140  31.381  1.00  0.00     0.099 A 
HETATM    8  C   UNL     1      21.471  -2.696  30.102  1.00  0.00     0.098 A 
HETATM    9  C   UNL     1      21.590  -4.076  29.936  1.00  0.00     0.040 A 
HETATM   10  C   UNL     1      21.744  -4.900  31.050  1.00  0.00     0.010 A 
BRANCH   7  11
HETATM   11  O   UNL     1      21.390  -0.795  31.555  1.00  0.00    -0.358 OA
HETATM   12  H   UNL     1      20.804  -0.302  31.017  1.00  0.00     0.217 HD
ENDBRANCH   7  11
BRANCH   8  13
HETATM   13  O   UNL     1      21.323  -1.899  29.006  1.00  0.00    -0.358 OA
HETATM   14  H   UNL     1      20.526  -1.922  28.515  1.00  0.00     0.217 HD
ENDBRANCH   8  13
ENDBRANCH   4   5
ENDBRANCH   3   4
BRANCH   3  15
HETATM   15  C   UNL     1      23.184  -7.416  33.350  1.00  0.00     0.203 C 
HETATM   16  O   UNL     1      23.554  -7.480  34.655  1.00  0.00    -0.646 OA
HETATM   17  O   UNL     1      23.872  -7.858  32.440  1.00  0.00    -0.646 OA
ENDBRANCH   3  15
ENDBRANCH   1   3
TORSDOF 6
ENDMDL
MODEL 6
REMARK VINA RESULT:      -6.4      2.544      5.931
REMARK  6 active torsions:
REMARK  status: ('A' for Active; 'I' for Inactive)
REMARK    1  A    between atoms: O_1  and  C_8 
REMARK    2  A    between atoms: O_2  and  C_11 
REMARK    3  A    between atoms: O_3  and  C_13 
REMARK    4  A    between atoms: C_6  and  C_7 
REMARK    5  A    between atoms: C_6  and  C_8 
REMARK    6  A    between atoms: C_8  and  C_14 
ROOT
HETATM    1  O   UNL     1      21.328  -1.646  28.376  1.00  0.00    -0.385 OA
HETATM    2  H   UNL     1      21.539  -1.516  29.314  1.00  0.00     0.210 HD
ENDROOT
BRANCH   1   3
HETATM    3  C   UNL     1      20.328  -2.650  28.250  1.00  0.00     0.223 C 
BRANCH   3   4
HETATM    4  C   UNL     1      19.470  -2.648  29.525  1.00  0.00     0.081 C 
BRANCH   4   5
HETATM    5  C   UNL     1      20.262  -2.942  30.752  1.00  0.00    -0.052 A 
HETATM    6  C   UNL     1      20.467  -1.946  31.707  1.00  0.00     0.046 A 
HETATM    7  C   UNL     1      21.209  -2.222  32.856  1.00  0.00     0.099 A 
HETATM    8  C   UNL     1      21.747  -3.494  33.049  1.00  0.00     0.098 A 
HETATM    9  C   UNL     1      21.543  -4.490  32.093  1.00  0.00     0.040 A 
HETATM   10  C   UNL     1      20.801  -4.214  30.946  1.00  0.00     0.010 A 
BRANCH   7  11
HETATM   11  O   UNL     1      21.401  -1.242  33.780  1.00  0.00    -0.358 OA
HETATM   12  H   UNL     1      20.700  -0.989  34.347  1.00  0.00     0.217 HD
ENDBRANCH   7  11
BRANCH   8  13
HETATM   13  O   UNL     1      22.473  -3.776  34.167  1.00  0.00    -0.358 OA
HETATM   14  H   UNL     1      23.324  -3.400  34.280  1.00  0.00     0.217 HD
ENDBRANCH   8  13
ENDBRANCH   4   5
ENDBRANCH   3   4
BRANCH   3  15
HETATM   15  C   UNL     1      19.500  -2.317  27.025  1.00  0.00     0.203 C 
HETATM   16  O   UNL     1      20.241  -1.730  26.050  1.00  0.00    -0.646 OA
HETATM   17  O   UNL     1      18.300  -2.528  26.914  1.00  0.00    -0.646 OA
ENDBRANCH   3  15
ENDBRANCH   1   3
TORSDOF 6
ENDMDL
MODEL 7
REMARK VINA RESULT:      -6.4      1.461      2.204
REMARK  6 active torsions:
REMARK  status: ('A' for Active; 'I' for Inactive)
REMARK    1  A    between atoms: O_1  and  C_8 
REMARK    2  A    between atoms: O_2  and  C_11 
REMARK    3  A    between atoms: O_3  and  C_13 
REMARK    4  A    between atoms: C_6  and  C_7 
REMARK    5  A    between atoms: C_6  and  C_8 
REMARK    6  A    between atoms: C_8  and  C_14 
ROOT
HETATM    1  O   UNL     1      21.364  -6.436  34.647  1.00  0.00    -0.385 OA
HETATM    2  H   UNL     1      21.822  -5.890  35.304  1.00  0.00     0.210 HD
ENDROOT
BRANCH   1   3
HETATM    3  C   UNL     1      21.980  -6.266  33.376  1.00  0.00     0.223 C 
BRANCH   3   4
HETATM    4  C   UNL     1      22.396  -4.793  33.228  1.00  0.00     0.081 C 
BRANCH   4   5
HETATM    5  C   UNL     1      21.533  -4.046  32.269  1.00  0.00    -0.052 A 
HETATM    6  C   UNL     1      20.939  -4.714  31.198  1.00  0.00     0.046 A 
HETATM    7  C   UNL     1      20.132  -4.015  30.301  1.00  0.00     0.099 A 
HETATM    8  C   UNL     1      19.919  -2.648  30.475  1.00  0.00     0.098 A 
HETATM    9  C   UNL     1      20.513  -1.979  31.545  1.00  0.00     0.040 A 
HETATM   10  C   UNL     1      21.320  -2.679  32.442  1.00  0.00     0.010 A 
BRANCH   7  11
HETATM   11  O   UNL     1      19.557  -4.679  29.260  1.00  0.00    -0.358 OA
HETATM   12  H   UNL     1      19.050  -4.209  28.628  1.00  0.00     0.217 HD
ENDBRANCH   7  11
BRANCH   8  13
HETATM   13  O   UNL     1      19.131  -1.954  29.605  1.00  0.00    -0.358 OA
HETATM   14  H   UNL     1      19.472  -1.202  29.162  1.00  0.00     0.217 HD
ENDBRANCH   8  13
ENDBRANCH   4   5
ENDBRANCH   3   4
BRANCH   3  15
HETATM   15  C   UNL     1      23.182  -7.187  33.325  1.00  0.00     0.203 C 
HETATM   16  O   UNL     1      23.665  -7.468  34.563  1.00  0.00    -0.646 OA
HETATM   17  O   UNL     1      23.686  -7.624  32.299  1.00  0.00    -0.646 OA
ENDBRANCH   3  15
ENDBRANCH   1   3
TORSDOF 6
ENDMDL
MODEL 8
REMARK VINA RESULT:      -6.4      2.287      5.547
REMARK  6 active torsions:
REMARK  status: ('A' for Active; 'I' for Inactive)
REMARK    1  A    between atoms: O_1  and  C_8 
REMARK    2  A    between atoms: O_2  and  C_11 
REMARK    3  A    between atoms: O_3  and  C_13 
REMARK    4  A    between atoms: C_6  and  C_7 
REMARK    5  A    between atoms: C_6  and  C_8 
REMARK    6  A    between atoms: C_8  and  C_14 
ROOT
HETATM    1  O   UNL     1      18.522  -3.892  29.118  1.00  0.00    -0.385 OA
HETATM    2  H   UNL     1      18.925  -4.770  29.194  1.00  0.00     0.210 HD
ENDROOT
BRANCH   1   3
HETATM    3  C   UNL     1      19.529  -2.895  29.251  1.00  0.00     0.223 C 
BRANCH   3   4
HETATM    4  C   UNL     1      20.847  -3.583  29.642  1.00  0.00     0.081 C 
BRANCH   4   5
HETATM    5  C   UNL     1      21.224  -3.337  31.063  1.00  0.00    -0.052 A 
HETATM    6  C   UNL     1      21.707  -4.385  31.848  1.00  0.00     0.046 A 
HETATM    7  C   UNL     1      22.058  -4.155  33.179  1.00  0.00     0.099 A 
HETATM    8  C   UNL     1      21.927  -2.878  33.724  1.00  0.00     0.098 A 
HETATM    9  C   UNL     1      21.443  -1.831  32.939  1.00  0.00     0.040 A 
HETATM   10  C   UNL     1      21.091  -2.060  31.610  1.00  0.00     0.010 A 
BRANCH   7  11
HETATM   11  O   UNL     1      22.529  -5.185  33.934  1.00  0.00    -0.358 OA
HETATM   12  H   UNL     1      23.439  -5.408  33.908  1.00  0.00     0.217 HD
ENDBRANCH   7  11
BRANCH   8  13
HETATM   13  O   UNL     1      22.268  -2.641  35.022  1.00  0.00    -0.358 OA
HETATM   14  H   UNL     1      21.784  -3.046  35.715  1.00  0.00     0.217 HD
ENDBRANCH   8  13
ENDBRANCH   4   5
ENDBRANCH   3   4
BRANCH   3  15
HETATM   15  C   UNL     1      19.649  -2.187  27.917  1.00  0.00     0.203 C 
HETATM   16  O   UNL     1      20.943  -1.969  27.569  1.00  0.00    -0.646 OA
HETATM   17  O   UNL     1      18.704  -1.829  27.227  1.00  0.00    -0.646 OA
ENDBRANCH   3  15
ENDBRANCH   1   3
TORSDOF 6
ENDMDL
MODEL 9
REMARK VINA RESULT:      -6.3      1.024      1.387
REMARK  6 active torsions:
REMARK  status: ('A' for Active; 'I' for Inactive)
REMARK    1  A    between atoms: O_1  and  C_8 
REMARK    2  A    between atoms: O_2  and  C_11 
REMARK    3  A    between atoms: O_3  and  C_13 
REMARK    4  A    between atoms: C_6  and  C_7 
REMARK    5  A    between atoms: C_6  and  C_8 
REMARK    6  A    between atoms: C_8  and  C_14 
ROOT
HETATM    1  O   UNL     1      22.025  -7.686  30.594  1.00  0.00    -0.385 OA
HETATM    2  H   UNL     1      21.085  -7.778  30.816  1.00  0.00     0.210 HD
ENDROOT
BRANCH   1   3
HETATM    3  C   UNL     1      22.647  -6.807  31.523  1.00  0.00     0.223 C 
BRANCH   3   4
HETATM    4  C   UNL     1      21.554  -6.146  32.379  1.00  0.00     0.081 C 
BRANCH   4   5
HETATM    5  C   UNL     1      21.563  -4.660  32.276  1.00  0.00    -0.052 A 
HETATM    6  C   UNL     1      21.283  -4.042  31.057  1.00  0.00     0.046 A 
HETATM    7  C   UNL     1      21.293  -2.650  30.961  1.00  0.00     0.099 A 
HETATM    8  C   UNL     1      21.582  -1.876  32.084  1.00  0.00     0.098 A 
HETATM    9  C   UNL     1      21.863  -2.493  33.303  1.00  0.00     0.040 A 
HETATM   10  C   UNL     1      21.854  -3.885  33.399  1.00  0.00     0.010 A 
BRANCH   7  11
HETATM   11  O   UNL     1      21.017  -2.060  29.765  1.00  0.00    -0.358 OA
HETATM   12  H   UNL     1      20.362  -2.424  29.203  1.00  0.00     0.217 HD
ENDBRANCH   7  11
BRANCH   8  13
HETATM   13  O   UNL     1      21.593  -0.516  32.003  1.00  0.00    -0.358 OA
HETATM   14  H   UNL     1      20.817  -0.029  32.199  1.00  0.00     0.217 HD
ENDBRANCH   8  13
ENDBRANCH   4   5
ENDBRANCH   3   4
BRANCH   3  15
HETATM   15  C   UNL     1      23.590  -7.634  32.373  1.00  0.00     0.203 C 
HETATM   16  O   UNL     1      24.448  -8.368  31.619  1.00  0.00    -0.646 OA
HETATM   17  O   UNL     1      23.583  -7.665  33.596  1.00  0.00    -0.646 OA
ENDBRANCH   3  15
ENDBRANCH   1   3
TORSDOF 6
ENDMDL
