MODEL 1
REMARK VINA RESULT:      -6.7      0.000      0.000
REMARK  6 active torsions:
REMARK  status: ('A' for Active; 'I' for Inactive)
REMARK    1  A    between atoms: O_1  and  C_8 
REMARK    2  A    between atoms: O_2  and  C_11 
REMARK    3  A    between atoms: O_3  and  C_13 
REMARK    4  A    between atoms: C_6  and  C_7 
REMARK    5  A    between atoms: C_6  and  C_8 
REMARK    6  A    between atoms: C_8  and  C_14 
ROOT
HETATM    1  O   UNL     1      20.581  -1.020  34.887  1.00  0.00    -0.385 OA
HETATM    2  H   UNL     1      20.357  -0.403  34.174  1.00  0.00     0.210 HD
ENDROOT
BRANCH   1   3
HETATM    3  C   UNL     1      21.619  -1.890  34.453  1.00  0.00     0.223 C 
BRANCH   3   4
HETATM    4  C   UNL     1      21.987  -1.526  33.005  1.00  0.00     0.081 C 
BRANCH   4   5
HETATM    5  C   UNL     1      21.302  -2.391  32.003  1.00  0.00    -0.052 A 
HETATM    6  C   UNL     1      20.429  -1.825  31.074  1.00  0.00     0.046 A 
HETATM    7  C   UNL     1      19.787  -2.635  30.137  1.00  0.00     0.099 A 
HETATM    8  C   UNL     1      20.019  -4.010  30.129  1.00  0.00     0.098 A 
HETATM    9  C   UNL     1      20.892  -4.576  31.059  1.00  0.00     0.040 A 
HETATM   10  C   UNL     1      21.533  -3.767  31.995  1.00  0.00     0.010 A 
BRANCH   7  11
HETATM   11  O   UNL     1      18.938  -2.071  29.235  1.00  0.00    -0.358 OA
HETATM   12  H   UNL     1      18.503  -1.267  29.440  1.00  0.00     0.217 HD
ENDBRANCH   7  11
BRANCH   8  13
HETATM   13  O   UNL     1      19.399  -4.811  29.218  1.00  0.00    -0.358 OA
HETATM   14  H   UNL     1      19.393  -5.741  29.337  1.00  0.00     0.217 HD
ENDBRANCH   8  13
ENDBRANCH   4   5
ENDBRANCH   3   4
BRANCH   3  15
HETATM   15  C   UNL     1      22.796  -1.698  35.387  1.00  0.00     0.203 C 
HETATM   16  O   UNL     1      22.497  -2.043  36.666  1.00  0.00    -0.646 OA
HETATM   17  O   UNL     1      23.892  -1.266  35.053  1.00  0.00    -0.646 OA
ENDBRANCH   3  15
ENDBRANCH   1   3
TORSDOF 6
ENDMDL
MODEL 2
REMARK VINA RESULT:      -6.7      3.384      4.659
REMARK  6 active torsions:
REMARK  status: ('A' for Active; 'I' for Inactive)
REMARK    1  A    between atoms: O_1  and  C_8 
REMARK    2  A    between atoms: O_2  and  C_11 
REMARK    3  A    between atoms: O_3  and  C_13 
REMARK    4  A    between atoms: C_6  and  C_7 
REMARK    5  A    between atoms: C_6  and  C_8 
REMARK    6  A    between atoms: C_8  and  C_14 
ROOT
HETATM    1  O   UNL     1      23.309  -7.669  31.707  1.00  0.00    -0.385 OA
HETATM    2  H   UNL     1      24.117  -7.325  31.295  1.00  0.00     0.210 HD
ENDROOT
BRANCH   1   3
HETATM    3  C   UNL     1      22.850  -6.750  32.690  1.00  0.00     0.223 C 
BRANCH   3   4
HETATM    4  C   UNL     1      21.510  -6.160  32.220  1.00  0.00     0.081 C 
BRANCH   4   5
HETATM    5  C   UNL     1      21.536  -4.673  32.134  1.00  0.00    -0.052 A 
HETATM    6  C   UNL     1      21.358  -4.042  30.903  1.00  0.00     0.046 A 
HETATM    7  C   UNL     1      21.382  -2.649  30.822  1.00  0.00     0.099 A 
HETATM    8  C   UNL     1      21.585  -1.888  31.973  1.00  0.00     0.098 A 
HETATM    9  C   UNL     1      21.764  -2.519  33.204  1.00  0.00     0.040 A 
HETATM   10  C   UNL     1      21.739  -3.910  33.285  1.00  0.00     0.010 A 
BRANCH   7  11
HETATM   11  O   UNL     1      21.206  -2.045  29.615  1.00  0.00    -0.358 OA
HETATM   12  H   UNL     1      20.359  -2.031  29.217  1.00  0.00     0.217 HD
ENDBRANCH   7  11
BRANCH   8  13
HETATM   13  O   UNL     1      21.610  -0.527  31.907  1.00  0.00    -0.358 OA
HETATM   14  H   UNL     1      21.245  -0.017  32.603  1.00  0.00     0.217 HD
ENDBRANCH   8  13
ENDBRANCH   4   5
ENDBRANCH   3   4
BRANCH   3  15
HETATM   15  C   UNL     1      22.693  -7.513  33.990  1.00  0.00     0.203 C 
HETATM   16  O   UNL     1      21.447  -8.033  34.130  1.00  0.00    -0.646 OA
HETATM   17  O   UNL     1      23.568  -7.641  34.836  1.00  0.00    -0.646 OA
ENDBRANCH   3  15
ENDBRANCH   1   3
TORSDOF 6
ENDMDL
MODEL 3
REMARK VINA RESULT:      -6.7      3.463      5.053
REMARK  6 active torsions:
REMARK  status: ('A' for Active; 'I' for Inactive)
REMARK    1  A    between atoms: O_1  and  C_8 
REMARK    2  A    between atoms: O_2  and  C_11 
REMARK    3  A    between atoms: O_3  and  C_13 
REMARK    4  A    between atoms: C_6  and  C_7 
REMARK    5  A    between atoms: C_6  and  C_8 
REMARK    6  A    between atoms: C_8  and  C_14 
ROOT
HETATM    1  O   UNL     1      22.279  -7.542  31.533  1.00  0.00    -0.385 OA
HETATM    2  H   UNL     1      22.037  -7.004  30.763  1.00  0.00     0.210 HD
ENDROOT
BRANCH   1   3
HETATM    3  C   UNL     1      22.856  -6.708  32.530  1.00  0.00     0.223 C 
BRANCH   3   4
HETATM    4  C   UNL     1      21.729  -5.925  33.224  1.00  0.00     0.081 C 
BRANCH   4   5
HETATM    5  C   UNL     1      21.691  -4.492  32.818  1.00  0.00    -0.052 A 
HETATM    6  C   UNL     1      21.983  -3.495  33.749  1.00  0.00     0.046 A 
HETATM    7  C   UNL     1      21.946  -2.152  33.369  1.00  0.00     0.099 A 
HETATM    8  C   UNL     1      21.617  -1.808  32.058  1.00  0.00     0.098 A 
HETATM    9  C   UNL     1      21.324  -2.805  31.128  1.00  0.00     0.040 A 
HETATM   10  C   UNL     1      21.361  -4.146  31.507  1.00  0.00     0.010 A 
BRANCH   7  11
HETATM   11  O   UNL     1      22.235  -1.189  34.287  1.00  0.00    -0.358 OA
HETATM   12  H   UNL     1      22.238  -0.287  34.034  1.00  0.00     0.217 HD
ENDBRANCH   7  11
BRANCH   8  13
HETATM   13  O   UNL     1      21.580  -0.501  31.675  1.00  0.00    -0.358 OA
HETATM   14  H   UNL     1      20.788  -0.008  31.768  1.00  0.00     0.217 HD
ENDBRANCH   8  13
ENDBRANCH   4   5
ENDBRANCH   3   4
BRANCH   3  15
HETATM   15  C   UNL     1      23.588  -7.604  33.508  1.00  0.00     0.203 C 
HETATM   16  O   UNL     1      24.419  -8.476  32.879  1.00  0.00    -0.646 OA
HETATM   17  O   UNL     1      23.449  -7.575  34.723  1.00  0.00    -0.646 OA
ENDBRANCH   3  15
ENDBRANCH   1   3
TORSDOF 6
ENDMDL
MODEL 4
REMARK VINA RESULT:      -6.5      2.222      2.996
REMARK  6 active torsions:
REMARK  status: ('A' for Active; 'I' for Inactive)
REMARK    1  A    between atoms: O_1  and  C_8 
REMARK    2  A    between atoms: O_2  and  C_11 
REMARK    3  A    between atoms: O_3  and  C_13 
REMARK    4  A    between atoms: C_6  and  C_7 
REMARK    5  A    between atoms: C_6  and  C_8 
REMARK    6  A    between atoms: C_8  and  C_14 
ROOT
HETATM    1  O   UNL     1      20.454  -0.879  34.983  1.00  0.00    -0.385 OA
HETATM    2  H   UNL     1      19.986  -1.121  35.797  1.00  0.00     0.210 HD
ENDROOT
BRANCH   1   3
HETATM    3  C   UNL     1      21.467  -1.841  34.715  1.00  0.00     0.223 C 
BRANCH   3   4
HETATM    4  C   UNL     1      21.667  -1.930  33.193  1.00  0.00     0.081 C 
BRANCH   4   5
HETATM    5  C   UNL     1      21.712  -3.335  32.700  1.00  0.00    -0.052 A 
HETATM    6  C   UNL     1      22.171  -4.353  33.536  1.00  0.00     0.046 A 
HETATM    7  C   UNL     1      22.214  -5.669  33.074  1.00  0.00     0.099 A 
HETATM    8  C   UNL     1      21.798  -5.966  31.777  1.00  0.00     0.098 A 
HETATM    9  C   UNL     1      21.340  -4.948  30.941  1.00  0.00     0.040 A 
HETATM   10  C   UNL     1      21.297  -3.633  31.402  1.00  0.00     0.010 A 
BRANCH   7  11
HETATM   11  O   UNL     1      22.664  -6.654  33.900  1.00  0.00    -0.358 OA
HETATM   12  H   UNL     1      23.456  -6.533  34.385  1.00  0.00     0.217 HD
ENDBRANCH   7  11
BRANCH   8  13
HETATM   13  O   UNL     1      21.835  -7.248  31.315  1.00  0.00    -0.358 OA
HETATM   14  H   UNL     1      21.984  -7.956  31.910  1.00  0.00     0.217 HD
ENDBRANCH   8  13
ENDBRANCH   4   5
ENDBRANCH   3   4
BRANCH   3  15
HETATM   15  C   UNL     1      22.731  -1.380  35.412  1.00  0.00     0.203 C 
HETATM   16  O   UNL     1      22.520  -1.105  36.725  1.00  0.00    -0.646 OA
HETATM   17  O   UNL     1      23.820  -1.247  34.870  1.00  0.00    -0.646 OA
ENDBRANCH   3  15
ENDBRANCH   1   3
TORSDOF 6
ENDMDL
MODEL 5
REMARK VINA RESULT:      -6.5      1.545      5.641
REMARK  6 active torsions:
REMARK  status: ('A' for Active; 'I' for Inactive)
REMARK    1  A    between atoms: O_1  and  C_8 
REMARK    2  A    between atoms: O_2  and  C_11 
REMARK    3  A    between atoms: O_3  and  C_13 
REMARK    4  A    between atoms: C_6  and  C_7 
REMARK    5  A    between atoms: C_6  and  C_8 
REMARK    6  A    between atoms: C_8  and  C_14 
ROOT
HETATM    1  O   UNL     1      18.232  -4.345  29.085  1.00  0.00    -0.385 OA
HETATM    2  H   UNL     1      17.570  -3.883  28.547  1.00  0.00     0.210 HD
ENDROOT
BRANCH   1   3
HETATM    3  C   UNL     1      19.326  -3.472  29.341  1.00  0.00     0.223 C 
BRANCH   3   4
HETATM    4  C   UNL     1      20.525  -4.315  29.806  1.00  0.00     0.081 C 
BRANCH   4   5
HETATM    5  C   UNL     1      21.050  -3.886  31.133  1.00  0.00    -0.052 A 
HETATM    6  C   UNL     1      21.100  -2.530  31.458  1.00  0.00     0.046 A 
HETATM    7  C   UNL     1      21.592  -2.129  32.701  1.00  0.00     0.099 A 
HETATM    8  C   UNL     1      22.034  -3.083  33.616  1.00  0.00     0.098 A 
HETATM    9  C   UNL     1      21.985  -4.438  33.291  1.00  0.00     0.040 A 
HETATM   10  C   UNL     1      21.493  -4.840  32.049  1.00  0.00     0.010 A 
BRANCH   7  11
HETATM   11  O   UNL     1      21.635  -0.803  33.007  1.00  0.00    -0.358 OA
HETATM   12  H   UNL     1      20.951  -0.418  33.517  1.00  0.00     0.217 HD
ENDBRANCH   7  11
BRANCH   8  13
HETATM   13  O   UNL     1      22.516  -2.702  34.833  1.00  0.00    -0.358 OA
HETATM   14  H   UNL     1      22.344  -3.227  35.590  1.00  0.00     0.217 HD
ENDBRANCH   8  13
ENDBRANCH   4   5
ENDBRANCH   3   4
BRANCH   3  15
HETATM   15  C   UNL     1      19.634  -2.735  28.054  1.00  0.00     0.203 C 
HETATM   16  O   UNL     1      18.523  -2.536  27.299  1.00  0.00    -0.646 OA
HETATM   17  O   UNL     1      20.749  -2.369  27.708  1.00  0.00    -0.646 OA
ENDBRANCH   3  15
ENDBRANCH   1   3
TORSDOF 6
ENDMDL
MODEL 6
REMARK VINA RESULT:      -6.5      3.412      4.198
REMARK  6 active torsions:
REMARK  status: ('A' for Active; 'I' for Inactive)
REMARK    1  A    between atoms: O_1  and  C_8 
REMARK    2  A    between atoms: O_2  and  C_11 
REMARK    3  A    between atoms: O_3  and  C_13 
REMARK    4  A    between atoms: C_6  and  C_7 
REMARK    5  A    between atoms: C_6  and  C_8 
REMARK    6  A    between atoms: C_8  and  C_14 
ROOT
HETATM    1  O   UNL     1      20.929  -7.281  34.099  1.00  0.00    -0.385 OA
HETATM    2  H   UNL     1      21.308  -7.270  34.991  1.00  0.00     0.210 HD
ENDROOT
BRANCH   1   3
HETATM    3  C   UNL     1      21.845  -6.688  33.186  1.00  0.00     0.223 C 
BRANCH   3   4
HETATM    4  C   UNL     1      21.968  -5.192  33.522  1.00  0.00     0.081 C 
BRANCH   4   5
HETATM    5  C   UNL     1      21.786  -4.318  32.329  1.00  0.00    -0.052 A 
HETATM    6  C   UNL     1      21.675  -2.936  32.486  1.00  0.00     0.046 A 
HETATM    7  C   UNL     1      21.504  -2.118  31.369  1.00  0.00     0.099 A 
HETATM    8  C   UNL     1      21.442  -2.683  30.095  1.00  0.00     0.098 A 
HETATM    9  C   UNL     1      21.552  -4.065  29.938  1.00  0.00     0.040 A 
HETATM   10  C   UNL     1      21.723  -4.882  31.054  1.00  0.00     0.010 A 
BRANCH   7  11
HETATM   11  O   UNL     1      21.398  -0.771  31.535  1.00  0.00    -0.358 OA
HETATM   12  H   UNL     1      21.322  -0.212  30.788  1.00  0.00     0.217 HD
ENDBRANCH   7  11
BRANCH   8  13
HETATM   13  O   UNL     1      21.276  -1.894  28.996  1.00  0.00    -0.358 OA
HETATM   14  H   UNL     1      20.414  -1.697  28.687  1.00  0.00     0.217 HD
ENDBRANCH   8  13
ENDBRANCH   4   5
ENDBRANCH   3   4
BRANCH   3  15
HETATM   15  C   UNL     1      23.172  -7.401  33.343  1.00  0.00     0.203 C 
HETATM   16  O   UNL     1      23.563  -7.476  34.641  1.00  0.00    -0.646 OA
HETATM   17  O   UNL     1      23.839  -7.848  32.420  1.00  0.00    -0.646 OA
ENDBRANCH   3  15
ENDBRANCH   1   3
TORSDOF 6
ENDMDL
MODEL 7
REMARK VINA RESULT:      -6.4      3.007      3.966
REMARK  6 active torsions:
REMARK  status: ('A' for Active; 'I' for Inactive)
REMARK    1  A    between atoms: O_1  and  C_8 
REMARK    2  A    between atoms: O_2  and  C_11 
REMARK    3  A    between atoms: O_3  and  C_13 
REMARK    4  A    between atoms: C_6  and  C_7 
REMARK    5  A    between atoms: C_6  and  C_8 
REMARK    6  A    between atoms: C_8  and  C_14 
ROOT
HETATM    1  O   UNL     1      21.336  -6.441  34.584  1.00  0.00    -0.385 OA
HETATM    2  H   UNL     1      21.321  -7.378  34.834  1.00  0.00     0.210 HD
ENDROOT
BRANCH   1   3
HETATM    3  C   UNL     1      22.000  -6.296  33.334  1.00  0.00     0.223 C 
BRANCH   3   4
HETATM    4  C   UNL     1      22.431  -4.828  33.177  1.00  0.00     0.081 C 
BRANCH   4   5
HETATM    5  C   UNL     1      21.554  -4.068  32.241  1.00  0.00    -0.052 A 
HETATM    6  C   UNL     1      20.959  -4.718  31.160  1.00  0.00     0.046 A 
HETATM    7  C   UNL     1      20.139  -4.006  30.284  1.00  0.00     0.099 A 
HETATM    8  C   UNL     1      19.915  -2.645  30.489  1.00  0.00     0.098 A 
HETATM    9  C   UNL     1      20.511  -1.995  31.570  1.00  0.00     0.040 A 
HETATM   10  C   UNL     1      21.331  -2.706  32.446  1.00  0.00     0.010 A 
BRANCH   7  11
HETATM   11  O   UNL     1      19.562  -4.651  29.233  1.00  0.00    -0.358 OA
HETATM   12  H   UNL     1      20.095  -4.982  28.537  1.00  0.00     0.217 HD
ENDBRANCH   7  11
BRANCH   8  13
HETATM   13  O   UNL     1      19.115  -1.940  29.641  1.00  0.00    -0.358 OA
HETATM   14  H   UNL     1      18.792  -2.342  28.859  1.00  0.00     0.217 HD
ENDBRANCH   8  13
ENDBRANCH   4   5
ENDBRANCH   3   4
BRANCH   3  15
HETATM   15  C   UNL     1      23.196  -7.225  33.340  1.00  0.00     0.203 C 
HETATM   16  O   UNL     1      23.620  -7.505  34.599  1.00  0.00    -0.646 OA
HETATM   17  O   UNL     1      23.742  -7.669  32.339  1.00  0.00    -0.646 OA
ENDBRANCH   3  15
ENDBRANCH   1   3
TORSDOF 6
ENDMDL
MODEL 8
REMARK VINA RESULT:      -6.4      2.049      5.727
REMARK  6 active torsions:
REMARK  status: ('A' for Active; 'I' for Inactive)
REMARK    1  A    between atoms: O_1  and  C_8 
REMARK    2  A    between atoms: O_2  and  C_11 
REMARK    3  A    between atoms: O_3  and  C_13 
REMARK    4  A    between atoms: C_6  and  C_7 
REMARK    5  A    between atoms: C_6  and  C_8 
REMARK    6  A    between atoms: C_8  and  C_14 
ROOT
HETATM    1  O   UNL     1      18.996  -2.234  28.364  1.00  0.00    -0.385 OA
HETATM    2  H   UNL     1      19.175  -1.915  27.465  1.00  0.00     0.210 HD
ENDROOT
BRANCH   1   3
HETATM    3  C   UNL     1      20.227  -2.432  29.049  1.00  0.00     0.223 C 
BRANCH   3   4
HETATM    4  C   UNL     1      20.064  -3.620  30.012  1.00  0.00     0.081 C 
BRANCH   4   5
HETATM    5  C   UNL     1      20.750  -3.402  31.316  1.00  0.00    -0.052 A 
HETATM    6  C   UNL     1      21.426  -4.454  31.934  1.00  0.00     0.046 A 
HETATM    7  C   UNL     1      22.069  -4.249  33.156  1.00  0.00     0.099 A 
HETATM    8  C   UNL     1      22.035  -2.992  33.759  1.00  0.00     0.098 A 
HETATM    9  C   UNL     1      21.359  -1.940  33.142  1.00  0.00     0.040 A 
HETATM   10  C   UNL     1      20.717  -2.145  31.921  1.00  0.00     0.010 A 
BRANCH   7  11
HETATM   11  O   UNL     1      22.726  -5.284  33.748  1.00  0.00    -0.358 OA
HETATM   12  H   UNL     1      22.264  -5.868  34.316  1.00  0.00     0.217 HD
ENDBRANCH   7  11
BRANCH   8  13
HETATM   13  O   UNL     1      22.660  -2.780  34.951  1.00  0.00    -0.358 OA
HETATM   14  H   UNL     1      22.159  -2.547  35.708  1.00  0.00     0.217 HD
ENDBRANCH   8  13
ENDBRANCH   4   5
ENDBRANCH   3   4
BRANCH   3  15
HETATM   15  C   UNL     1      21.291  -2.708  28.007  1.00  0.00     0.203 C 
HETATM   16  O   UNL     1      21.204  -1.860  26.950  1.00  0.00    -0.646 OA
HETATM   17  O   UNL     1      22.129  -3.597  28.082  1.00  0.00    -0.646 OA
ENDBRANCH   3  15
ENDBRANCH   1   3
TORSDOF 6
ENDMDL
MODEL 9
REMARK VINA RESULT:      -6.4      1.159      2.116
REMARK  6 active torsions:
REMARK  status: ('A' for Active; 'I' for Inactive)
REMARK    1  A    between atoms: O_1  and  C_8 
REMARK    2  A    between atoms: O_2  and  C_11 
REMARK    3  A    between atoms: O_3  and  C_13 
REMARK    4  A    between atoms: C_6  and  C_7 
REMARK    5  A    between atoms: C_6  and  C_8 
REMARK    6  A    between atoms: C_8  and  C_14 
ROOT
HETATM    1  O   UNL     1      22.959  -0.775  33.811  1.00  0.00    -0.385 OA
HETATM    2  H   UNL     1      22.552  -0.084  33.265  1.00  0.00     0.210 HD
ENDROOT
BRANCH   1   3
HETATM    3  C   UNL     1      21.946  -1.636  34.317  1.00  0.00     0.223 C 
BRANCH   3   4
HETATM    4  C   UNL     1      22.120  -3.023  33.676  1.00  0.00     0.081 C 
BRANCH   4   5
HETATM    5  C   UNL     1      21.370  -3.162  32.395  1.00  0.00    -0.052 A 
HETATM    6  C   UNL     1      21.431  -4.356  31.677  1.00  0.00     0.046 A 
HETATM    7  C   UNL     1      20.729  -4.486  30.478  1.00  0.00     0.099 A 
HETATM    8  C   UNL     1      19.968  -3.421  29.997  1.00  0.00     0.098 A 
HETATM    9  C   UNL     1      19.908  -2.226  30.715  1.00  0.00     0.040 A 
HETATM   10  C   UNL     1      20.609  -2.097  31.913  1.00  0.00     0.010 A 
BRANCH   7  11
HETATM   11  O   UNL     1      20.796  -5.657  29.786  1.00  0.00    -0.358 OA
HETATM   12  H   UNL     1      20.344  -5.746  28.971  1.00  0.00     0.217 HD
ENDBRANCH   7  11
BRANCH   8  13
HETATM   13  O   UNL     1      19.278  -3.536  28.828  1.00  0.00    -0.358 OA
HETATM   14  H   UNL     1      19.662  -3.241  28.026  1.00  0.00     0.217 HD
ENDBRANCH   8  13
ENDBRANCH   4   5
ENDBRANCH   3   4
BRANCH   3  15
HETATM   15  C   UNL     1      22.109  -1.699  35.822  1.00  0.00     0.203 C 
HETATM   16  O   UNL     1      22.404  -0.486  36.356  1.00  0.00    -0.646 OA
HETATM   17  O   UNL     1      22.009  -2.717  36.494  1.00  0.00    -0.646 OA
ENDBRANCH   3  15
ENDBRANCH   1   3
TORSDOF 6
ENDMDL
