MODEL 1
REMARK VINA RESULT:      -7.3      0.000      0.000
REMARK  6 active torsions:
REMARK  status: ('A' for Active; 'I' for Inactive)
REMARK    1  A    between atoms: O_1  and  C_5 
REMARK    2  A    between atoms: O_2  and  C_7 
REMARK    3  A    between atoms: O_2  and  C_13 
REMARK    4  A    between atoms: C_4  and  C_5 
REMARK    5  A    between atoms: C_4  and  C_6 
REMARK    6  A    between atoms: C_5  and  C_7 
ROOT
HETATM    1  O   UNL     1     -54.398  44.175   9.767  1.00  0.00    -0.385 OA
HETATM    2  H   UNL     1     -53.568  44.082  10.260  1.00  0.00     0.210 HD
ENDROOT
BRANCH   1   3
HETATM    3  C   UNL     1     -54.216  45.105   8.706  1.00  0.00     0.221 C 
BRANCH   3   4
HETATM    4  C   UNL     1     -53.256  46.202   9.172  1.00  0.00     0.080 C 
BRANCH   4   5
HETATM    5  C   UNL     1     -53.939  47.543   9.283  1.00  0.00    -0.055 A 
HETATM    6  C   UNL     1     -55.322  47.608   9.225  1.00  0.00     0.007 A 
HETATM    7  C   UNL     1     -55.954  48.847   9.328  1.00  0.00     0.001 A 
HETATM    8  C   UNL     1     -55.193  50.006   9.487  1.00  0.00     0.000 A 
HETATM    9  C   UNL     1     -53.802  49.925   9.544  1.00  0.00     0.001 A 
HETATM   10  C   UNL     1     -53.171  48.686   9.441  1.00  0.00     0.007 A 
ENDBRANCH   4   5
ENDBRANCH   3   4
BRANCH   3  11
HETATM   11  C   UNL     1     -53.640  44.349   7.525  1.00  0.00     0.288 C 
HETATM   12  O   UNL     1     -52.959  44.853   6.642  1.00  0.00    -0.262 OA
BRANCH  11  13
HETATM   13  O   UNL     1     -53.975  43.028   7.619  1.00  0.00    -0.320 OA
BRANCH  13  14
HETATM   14  C   UNL     1     -53.600  42.216   6.501  1.00  0.00     0.174 C 
HETATM   15  C   UNL     1     -54.787  42.084   5.569  1.00  0.00     0.034 C 
ENDBRANCH  13  14
ENDBRANCH  11  13
ENDBRANCH   3  11
ENDBRANCH   1   3
TORSDOF 6
ENDMDL
MODEL 2
REMARK VINA RESULT:      -7.3      0.160      1.301
REMARK  6 active torsions:
REMARK  status: ('A' for Active; 'I' for Inactive)
REMARK    1  A    between atoms: O_1  and  C_5 
REMARK    2  A    between atoms: O_2  and  C_7 
REMARK    3  A    between atoms: O_2  and  C_13 
REMARK    4  A    between atoms: C_4  and  C_5 
REMARK    5  A    between atoms: C_4  and  C_6 
REMARK    6  A    between atoms: C_5  and  C_7 
ROOT
HETATM    1  O   UNL     1     -54.131  44.020   9.830  1.00  0.00    -0.385 OA
HETATM    2  H   UNL     1     -53.221  43.728   9.991  1.00  0.00     0.210 HD
ENDROOT
BRANCH   1   3
HETATM    3  C   UNL     1     -54.141  44.996   8.797  1.00  0.00     0.221 C 
BRANCH   3   4
HETATM    4  C   UNL     1     -53.196  46.135   9.187  1.00  0.00     0.080 C 
BRANCH   4   5
HETATM    5  C   UNL     1     -53.917  47.457   9.296  1.00  0.00    -0.055 A 
HETATM    6  C   UNL     1     -53.184  48.615   9.506  1.00  0.00     0.007 A 
HETATM    7  C   UNL     1     -53.849  49.837   9.608  1.00  0.00     0.001 A 
HETATM    8  C   UNL     1     -55.239  49.884   9.497  1.00  0.00     0.000 A 
HETATM    9  C   UNL     1     -55.963  48.712   9.285  1.00  0.00     0.001 A 
HETATM   10  C   UNL     1     -55.298  47.490   9.184  1.00  0.00     0.007 A 
ENDBRANCH   4   5
ENDBRANCH   3   4
BRANCH   3  11
HETATM   11  C   UNL     1     -53.674  44.321   7.521  1.00  0.00     0.288 C 
HETATM   12  O   UNL     1     -53.008  44.865   6.651  1.00  0.00    -0.262 OA
BRANCH  11  13
HETATM   13  O   UNL     1     -54.088  43.020   7.514  1.00  0.00    -0.320 OA
BRANCH  13  14
HETATM   14  C   UNL     1     -53.508  42.194   6.498  1.00  0.00     0.174 C 
HETATM   15  C   UNL     1     -54.545  41.934   5.425  1.00  0.00     0.034 C 
ENDBRANCH  13  14
ENDBRANCH  11  13
ENDBRANCH   3  11
ENDBRANCH   1   3
TORSDOF 6
ENDMDL
MODEL 3
REMARK VINA RESULT:      -7.1      1.023      1.490
REMARK  6 active torsions:
REMARK  status: ('A' for Active; 'I' for Inactive)
REMARK    1  A    between atoms: O_1  and  C_5 
REMARK    2  A    between atoms: O_2  and  C_7 
REMARK    3  A    between atoms: O_2  and  C_13 
REMARK    4  A    between atoms: C_4  and  C_5 
REMARK    5  A    between atoms: C_4  and  C_6 
REMARK    6  A    between atoms: C_5  and  C_7 
ROOT
HETATM    1  O   UNL     1     -54.075  43.994   9.698  1.00  0.00    -0.385 OA
HETATM    2  H   UNL     1     -53.137  43.787   9.833  1.00  0.00     0.210 HD
ENDROOT
BRANCH   1   3
HETATM    3  C   UNL     1     -54.205  44.936   8.640  1.00  0.00     0.221 C 
BRANCH   3   4
HETATM    4  C   UNL     1     -53.209  46.075   8.870  1.00  0.00     0.080 C 
BRANCH   4   5
HETATM    5  C   UNL     1     -53.902  47.389   9.136  1.00  0.00    -0.055 A 
HETATM    6  C   UNL     1     -55.287  47.436   9.149  1.00  0.00     0.007 A 
HETATM    7  C   UNL     1     -55.928  48.650   9.394  1.00  0.00     0.001 A 
HETATM    8  C   UNL     1     -55.175  49.802   9.624  1.00  0.00     0.000 A 
HETATM    9  C   UNL     1     -53.782  49.739   9.608  1.00  0.00     0.001 A 
HETATM   10  C   UNL     1     -53.141  48.525   9.362  1.00  0.00     0.007 A 
ENDBRANCH   4   5
ENDBRANCH   3   4
BRANCH   3  11
HETATM   11  C   UNL     1     -53.907  44.213   7.341  1.00  0.00     0.288 C 
HETATM   12  O   UNL     1     -54.494  43.212   6.951  1.00  0.00    -0.262 OA
BRANCH  11  13
HETATM   13  O   UNL     1     -52.910  44.864   6.673  1.00  0.00    -0.320 OA
BRANCH  13  14
HETATM   14  C   UNL     1     -52.435  44.215   5.488  1.00  0.00     0.174 C 
HETATM   15  C   UNL     1     -51.321  43.260   5.863  1.00  0.00     0.034 C 
ENDBRANCH  13  14
ENDBRANCH  11  13
ENDBRANCH   3  11
ENDBRANCH   1   3
TORSDOF 6
ENDMDL
MODEL 4
REMARK VINA RESULT:      -6.6      2.422      4.557
REMARK  6 active torsions:
REMARK  status: ('A' for Active; 'I' for Inactive)
REMARK    1  A    between atoms: O_1  and  C_5 
REMARK    2  A    between atoms: O_2  and  C_7 
REMARK    3  A    between atoms: O_2  and  C_13 
REMARK    4  A    between atoms: C_4  and  C_5 
REMARK    5  A    between atoms: C_4  and  C_6 
REMARK    6  A    between atoms: C_5  and  C_7 
ROOT
HETATM    1  O   UNL     1     -54.116  43.935   8.452  1.00  0.00    -0.385 OA
HETATM    2  H   UNL     1     -54.562  43.258   8.985  1.00  0.00     0.210 HD
ENDROOT
BRANCH   1   3
HETATM    3  C   UNL     1     -54.214  45.194   9.106  1.00  0.00     0.221 C 
BRANCH   3   4
HETATM    4  C   UNL     1     -52.958  46.010   8.794  1.00  0.00     0.080 C 
BRANCH   4   5
HETATM    5  C   UNL     1     -52.111  46.241  10.023  1.00  0.00    -0.055 A 
HETATM    6  C   UNL     1     -52.715  46.690  11.187  1.00  0.00     0.007 A 
HETATM    7  C   UNL     1     -51.933  46.904  12.323  1.00  0.00     0.001 A 
HETATM    8  C   UNL     1     -50.559  46.666  12.279  1.00  0.00     0.000 A 
HETATM    9  C   UNL     1     -49.967  46.214  11.100  1.00  0.00     0.001 A 
HETATM   10  C   UNL     1     -50.748  46.000   9.964  1.00  0.00     0.007 A 
ENDBRANCH   4   5
ENDBRANCH   3   4
BRANCH   3  11
HETATM   11  C   UNL     1     -55.454  45.890   8.580  1.00  0.00     0.288 C 
HETATM   12  O   UNL     1     -56.537  45.347   8.409  1.00  0.00    -0.262 OA
BRANCH  11  13
HETATM   13  O   UNL     1     -55.178  47.209   8.357  1.00  0.00    -0.320 OA
BRANCH  13  14
HETATM   14  C   UNL     1     -55.929  48.138   9.146  1.00  0.00     0.174 C 
HETATM   15  C   UNL     1     -55.066  49.350   9.432  1.00  0.00     0.034 C 
ENDBRANCH  13  14
ENDBRANCH  11  13
ENDBRANCH   3  11
ENDBRANCH   1   3
TORSDOF 6
ENDMDL
MODEL 5
REMARK VINA RESULT:      -6.3      1.589      2.673
REMARK  6 active torsions:
REMARK  status: ('A' for Active; 'I' for Inactive)
REMARK    1  A    between atoms: O_1  and  C_5 
REMARK    2  A    between atoms: O_2  and  C_7 
REMARK    3  A    between atoms: O_2  and  C_13 
REMARK    4  A    between atoms: C_4  and  C_5 
REMARK    5  A    between atoms: C_4  and  C_6 
REMARK    6  A    between atoms: C_5  and  C_7 
ROOT
HETATM    1  O   UNL     1     -54.458  42.642   7.038  1.00  0.00    -0.385 OA
HETATM    2  H   UNL     1     -55.194  42.498   6.423  1.00  0.00     0.210 HD
ENDROOT
BRANCH   1   3
HETATM    3  C   UNL     1     -54.043  44.000   6.972  1.00  0.00     0.221 C 
BRANCH   3   4
HETATM    4  C   UNL     1     -53.720  44.486   8.387  1.00  0.00     0.080 C 
BRANCH   4   5
HETATM    5  C   UNL     1     -54.391  45.801   8.702  1.00  0.00    -0.055 A 
HETATM    6  C   UNL     1     -53.628  46.855   9.180  1.00  0.00     0.007 A 
HETATM    7  C   UNL     1     -54.247  48.070   9.472  1.00  0.00     0.001 A 
HETATM    8  C   UNL     1     -55.622  48.215   9.281  1.00  0.00     0.000 A 
HETATM    9  C   UNL     1     -56.376  47.146   8.800  1.00  0.00     0.001 A 
HETATM   10  C   UNL     1     -55.757  45.931   8.508  1.00  0.00     0.007 A 
ENDBRANCH   4   5
ENDBRANCH   3   4
BRANCH   3  11
HETATM   11  C   UNL     1     -52.814  44.063   6.086  1.00  0.00     0.288 C 
HETATM   12  O   UNL     1     -52.343  45.093   5.623  1.00  0.00    -0.262 OA
BRANCH  11  13
HETATM   13  O   UNL     1     -52.309  42.806   5.914  1.00  0.00    -0.320 OA
BRANCH  13  14
HETATM   14  C   UNL     1     -50.895  42.678   6.103  1.00  0.00     0.174 C 
HETATM   15  C   UNL     1     -50.639  41.848   7.344  1.00  0.00     0.034 C 
ENDBRANCH  13  14
ENDBRANCH  11  13
ENDBRANCH   3  11
ENDBRANCH   1   3
TORSDOF 6
ENDMDL
MODEL 6
REMARK VINA RESULT:      -6.3      1.277      1.609
REMARK  6 active torsions:
REMARK  status: ('A' for Active; 'I' for Inactive)
REMARK    1  A    between atoms: O_1  and  C_5 
REMARK    2  A    between atoms: O_2  and  C_7 
REMARK    3  A    between atoms: O_2  and  C_13 
REMARK    4  A    between atoms: C_4  and  C_5 
REMARK    5  A    between atoms: C_4  and  C_6 
REMARK    6  A    between atoms: C_5  and  C_7 
ROOT
HETATM    1  O   UNL     1     -52.606  45.774   7.620  1.00  0.00    -0.385 OA
HETATM    2  H   UNL     1     -52.807  45.297   6.799  1.00  0.00     0.210 HD
ENDROOT
BRANCH   1   3
HETATM    3  C   UNL     1     -52.635  44.867   8.714  1.00  0.00     0.221 C 
BRANCH   3   4
HETATM    4  C   UNL     1     -53.913  45.109   9.520  1.00  0.00     0.080 C 
BRANCH   4   5
HETATM    5  C   UNL     1     -54.319  46.563   9.517  1.00  0.00    -0.055 A 
HETATM    6  C   UNL     1     -55.488  46.939   8.874  1.00  0.00     0.007 A 
HETATM    7  C   UNL     1     -55.864  48.283   8.870  1.00  0.00     0.001 A 
HETATM    8  C   UNL     1     -55.066  49.232   9.510  1.00  0.00     0.000 A 
HETATM    9  C   UNL     1     -53.893  48.838  10.153  1.00  0.00     0.001 A 
HETATM   10  C   UNL     1     -53.517  47.494  10.157  1.00  0.00     0.007 A 
ENDBRANCH   4   5
ENDBRANCH   3   4
BRANCH   3  11
HETATM   11  C   UNL     1     -52.613  43.461   8.147  1.00  0.00     0.288 C 
HETATM   12  O   UNL     1     -51.606  42.778   8.020  1.00  0.00    -0.262 OA
BRANCH  11  13
HETATM   13  O   UNL     1     -53.885  43.075   7.831  1.00  0.00    -0.320 OA
BRANCH  13  14
HETATM   14  C   UNL     1     -54.154  42.923   6.433  1.00  0.00     0.174 C 
HETATM   15  C   UNL     1     -55.150  43.981   6.006  1.00  0.00     0.034 C 
ENDBRANCH  13  14
ENDBRANCH  11  13
ENDBRANCH   3  11
ENDBRANCH   1   3
TORSDOF 6
ENDMDL
MODEL 7
REMARK VINA RESULT:      -6.2      3.233      5.627
REMARK  6 active torsions:
REMARK  status: ('A' for Active; 'I' for Inactive)
REMARK    1  A    between atoms: O_1  and  C_5 
REMARK    2  A    between atoms: O_2  and  C_7 
REMARK    3  A    between atoms: O_2  and  C_13 
REMARK    4  A    between atoms: C_4  and  C_5 
REMARK    5  A    between atoms: C_4  and  C_6 
REMARK    6  A    between atoms: C_5  and  C_7 
ROOT
HETATM    1  O   UNL     1     -52.514  48.240   8.098  1.00  0.00    -0.385 OA
HETATM    2  H   UNL     1     -53.016  48.265   7.268  1.00  0.00     0.210 HD
ENDROOT
BRANCH   1   3
HETATM    3  C   UNL     1     -53.230  47.478   9.062  1.00  0.00     0.221 C 
BRANCH   3   4
HETATM    4  C   UNL     1     -52.759  47.885  10.460  1.00  0.00     0.080 C 
BRANCH   4   5
HETATM    5  C   UNL     1     -52.400  46.689  11.308  1.00  0.00    -0.055 A 
HETATM    6  C   UNL     1     -52.017  45.509  10.689  1.00  0.00     0.007 A 
HETATM    7  C   UNL     1     -51.685  44.403  11.473  1.00  0.00     0.001 A 
HETATM    8  C   UNL     1     -51.741  44.492  12.864  1.00  0.00     0.000 A 
HETATM    9  C   UNL     1     -52.128  45.686  13.472  1.00  0.00     0.001 A 
HETATM   10  C   UNL     1     -52.459  46.792  12.688  1.00  0.00     0.007 A 
ENDBRANCH   4   5
ENDBRANCH   3   4
BRANCH   3  11
HETATM   11  C   UNL     1     -54.705  47.777   8.882  1.00  0.00     0.288 C 
HETATM   12  O   UNL     1     -55.613  47.029   9.220  1.00  0.00    -0.262 OA
BRANCH  11  13
HETATM   13  O   UNL     1     -54.857  49.010   8.314  1.00  0.00    -0.320 OA
BRANCH  13  14
HETATM   14  C   UNL     1     -55.260  50.055   9.206  1.00  0.00     0.174 C 
HETATM   15  C   UNL     1     -54.186  51.121   9.232  1.00  0.00     0.034 C 
ENDBRANCH  13  14
ENDBRANCH  11  13
ENDBRANCH   3  11
ENDBRANCH   1   3
TORSDOF 6
ENDMDL
MODEL 8
REMARK VINA RESULT:      -6.2      2.821      6.069
REMARK  6 active torsions:
REMARK  status: ('A' for Active; 'I' for Inactive)
REMARK    1  A    between atoms: O_1  and  C_5 
REMARK    2  A    between atoms: O_2  and  C_7 
REMARK    3  A    between atoms: O_2  and  C_13 
REMARK    4  A    between atoms: C_4  and  C_5 
REMARK    5  A    between atoms: C_4  and  C_6 
REMARK    6  A    between atoms: C_5  and  C_7 
ROOT
HETATM    1  O   UNL     1     -52.927  47.777  11.674  1.00  0.00    -0.385 OA
HETATM    2  H   UNL     1     -52.379  48.563  11.822  1.00  0.00     0.210 HD
ENDROOT
BRANCH   1   3
HETATM    3  C   UNL     1     -52.840  47.390  10.309  1.00  0.00     0.221 C 
BRANCH   3   4
HETATM    4  C   UNL     1     -53.800  46.223  10.065  1.00  0.00     0.080 C 
BRANCH   4   5
HETATM    5  C   UNL     1     -53.104  45.035   9.447  1.00  0.00    -0.055 A 
HETATM    6  C   UNL     1     -53.171  43.803  10.080  1.00  0.00     0.007 A 
HETATM    7  C   UNL     1     -52.528  42.705   9.509  1.00  0.00     0.001 A 
HETATM    8  C   UNL     1     -51.825  42.853   8.313  1.00  0.00     0.000 A 
HETATM    9  C   UNL     1     -51.767  44.098   7.688  1.00  0.00     0.001 A 
HETATM   10  C   UNL     1     -52.410  45.196   8.259  1.00  0.00     0.007 A 
ENDBRANCH   4   5
ENDBRANCH   3   4
BRANCH   3  11
HETATM   11  C   UNL     1     -53.225  48.589   9.464  1.00  0.00     0.288 C 
HETATM   12  O   UNL     1     -53.191  48.618   8.241  1.00  0.00    -0.262 OA
BRANCH  11  13
HETATM   13  O   UNL     1     -53.635  49.608  10.276  1.00  0.00    -0.320 OA
BRANCH  13  14
HETATM   14  C   UNL     1     -54.398  50.637   9.637  1.00  0.00     0.174 C 
HETATM   15  C   UNL     1     -53.916  51.985  10.129  1.00  0.00     0.034 C 
ENDBRANCH  13  14
ENDBRANCH  11  13
ENDBRANCH   3  11
ENDBRANCH   1   3
TORSDOF 6
ENDMDL
MODEL 9
REMARK VINA RESULT:      -6.1      3.243      5.477
REMARK  6 active torsions:
REMARK  status: ('A' for Active; 'I' for Inactive)
REMARK    1  A    between atoms: O_1  and  C_5 
REMARK    2  A    between atoms: O_2  and  C_7 
REMARK    3  A    between atoms: O_2  and  C_13 
REMARK    4  A    between atoms: C_4  and  C_5 
REMARK    5  A    between atoms: C_4  and  C_6 
REMARK    6  A    between atoms: C_5  and  C_7 
ROOT
HETATM    1  O   UNL     1     -52.531  45.697   7.809  1.00  0.00    -0.385 OA
HETATM    2  H   UNL     1     -53.445  45.373   7.805  1.00  0.00     0.210 HD
ENDROOT
BRANCH   1   3
HETATM    3  C   UNL     1     -52.378  46.668   8.836  1.00  0.00     0.221 C 
BRANCH   3   4
HETATM    4  C   UNL     1     -51.003  46.487   9.484  1.00  0.00     0.080 C 
BRANCH   4   5
HETATM    5  C   UNL     1     -51.073  46.552  10.991  1.00  0.00    -0.055 A 
HETATM    6  C   UNL     1     -49.900  46.498  11.727  1.00  0.00     0.007 A 
HETATM    7  C   UNL     1     -49.964  46.557  13.120  1.00  0.00     0.001 A 
HETATM    8  C   UNL     1     -51.200  46.669  13.756  1.00  0.00     0.000 A 
HETATM    9  C   UNL     1     -52.372  46.723  13.002  1.00  0.00     0.001 A 
HETATM   10  C   UNL     1     -52.308  46.663  11.610  1.00  0.00     0.007 A 
ENDBRANCH   4   5
ENDBRANCH   3   4
BRANCH   3  11
HETATM   11  C   UNL     1     -52.496  48.037   8.196  1.00  0.00     0.288 C 
HETATM   12  O   UNL     1     -51.639  48.551   7.488  1.00  0.00    -0.262 OA
BRANCH  11  13
HETATM   13  O   UNL     1     -53.706  48.587   8.509  1.00  0.00    -0.320 OA
BRANCH  13  14
HETATM   14  C   UNL     1     -53.734  49.377   9.703  1.00  0.00     0.174 C 
HETATM   15  C   UNL     1     -54.079  50.806   9.338  1.00  0.00     0.034 C 
ENDBRANCH  13  14
ENDBRANCH  11  13
ENDBRANCH   3  11
ENDBRANCH   1   3
TORSDOF 6
ENDMDL
