MODEL 1
REMARK VINA RESULT:      -7.3      0.000      0.000
REMARK  6 active torsions:
REMARK  status: ('A' for Active; 'I' for Inactive)
REMARK    1  A    between atoms: O_1  and  C_5 
REMARK    2  A    between atoms: O_2  and  C_7 
REMARK    3  A    between atoms: O_2  and  C_13 
REMARK    4  A    between atoms: C_4  and  C_5 
REMARK    5  A    between atoms: C_4  and  C_6 
REMARK    6  A    between atoms: C_5  and  C_7 
ROOT
HETATM    1  O   UNL     1     -54.406  44.162   9.699  1.00  0.00    -0.385 OA
HETATM    2  H   UNL     1     -54.820  44.618  10.448  1.00  0.00     0.210 HD
ENDROOT
BRANCH   1   3
HETATM    3  C   UNL     1     -54.207  45.082   8.635  1.00  0.00     0.221 C 
BRANCH   3   4
HETATM    4  C   UNL     1     -53.247  46.178   9.105  1.00  0.00     0.080 C 
BRANCH   4   5
HETATM    5  C   UNL     1     -53.935  47.514   9.244  1.00  0.00    -0.055 A 
HETATM    6  C   UNL     1     -55.320  47.570   9.213  1.00  0.00     0.007 A 
HETATM    7  C   UNL     1     -55.957  48.805   9.341  1.00  0.00     0.001 A 
HETATM    8  C   UNL     1     -55.201  49.966   9.500  1.00  0.00     0.000 A 
HETATM    9  C   UNL     1     -53.809  49.894   9.530  1.00  0.00     0.001 A 
HETATM   10  C   UNL     1     -53.172  48.659   9.401  1.00  0.00     0.007 A 
ENDBRANCH   4   5
ENDBRANCH   3   4
BRANCH   3  11
HETATM   11  C   UNL     1     -53.619  44.315   7.466  1.00  0.00     0.288 C 
HETATM   12  O   UNL     1     -52.909  44.806   6.598  1.00  0.00    -0.262 OA
BRANCH  11  13
HETATM   13  O   UNL     1     -53.981  43.002   7.552  1.00  0.00    -0.320 OA
BRANCH  13  14
HETATM   14  C   UNL     1     -53.535  42.167   6.478  1.00  0.00     0.174 C 
HETATM   15  C   UNL     1     -54.675  41.969   5.501  1.00  0.00     0.034 C 
ENDBRANCH  13  14
ENDBRANCH  11  13
ENDBRANCH   3  11
ENDBRANCH   1   3
TORSDOF 6
ENDMDL
MODEL 2
REMARK VINA RESULT:      -7.3      0.155      1.300
REMARK  6 active torsions:
REMARK  status: ('A' for Active; 'I' for Inactive)
REMARK    1  A    between atoms: O_1  and  C_5 
REMARK    2  A    between atoms: O_2  and  C_7 
REMARK    3  A    between atoms: O_2  and  C_13 
REMARK    4  A    between atoms: C_4  and  C_5 
REMARK    5  A    between atoms: C_4  and  C_6 
REMARK    6  A    between atoms: C_5  and  C_7 
ROOT
HETATM    1  O   UNL     1     -54.107  44.003   9.784  1.00  0.00    -0.385 OA
HETATM    2  H   UNL     1     -55.011  43.842  10.097  1.00  0.00     0.210 HD
ENDROOT
BRANCH   1   3
HETATM    3  C   UNL     1     -54.131  44.981   8.753  1.00  0.00     0.221 C 
BRANCH   3   4
HETATM    4  C   UNL     1     -53.186  46.123   9.134  1.00  0.00     0.080 C 
BRANCH   4   5
HETATM    5  C   UNL     1     -53.912  47.440   9.269  1.00  0.00    -0.055 A 
HETATM    6  C   UNL     1     -53.180  48.602   9.459  1.00  0.00     0.007 A 
HETATM    7  C   UNL     1     -53.850  49.819   9.584  1.00  0.00     0.001 A 
HETATM    8  C   UNL     1     -55.243  49.857   9.518  1.00  0.00     0.000 A 
HETATM    9  C   UNL     1     -55.966  48.680   9.327  1.00  0.00     0.001 A 
HETATM   10  C   UNL     1     -55.296  47.463   9.202  1.00  0.00     0.007 A 
ENDBRANCH   4   5
ENDBRANCH   3   4
BRANCH   3  11
HETATM   11  C   UNL     1     -53.677  44.311   7.471  1.00  0.00     0.288 C 
HETATM   12  O   UNL     1     -53.003  44.852   6.604  1.00  0.00    -0.262 OA
BRANCH  11  13
HETATM   13  O   UNL     1     -54.111  43.016   7.452  1.00  0.00    -0.320 OA
BRANCH  13  14
HETATM   14  C   UNL     1     -53.489  42.170   6.479  1.00  0.00     0.174 C 
HETATM   15  C   UNL     1     -54.469  41.910   5.355  1.00  0.00     0.034 C 
ENDBRANCH  13  14
ENDBRANCH  11  13
ENDBRANCH   3  11
ENDBRANCH   1   3
TORSDOF 6
ENDMDL
MODEL 3
REMARK VINA RESULT:      -7.0      1.116      1.925
REMARK  6 active torsions:
REMARK  status: ('A' for Active; 'I' for Inactive)
REMARK    1  A    between atoms: O_1  and  C_5 
REMARK    2  A    between atoms: O_2  and  C_7 
REMARK    3  A    between atoms: O_2  and  C_13 
REMARK    4  A    between atoms: C_4  and  C_5 
REMARK    5  A    between atoms: C_4  and  C_6 
REMARK    6  A    between atoms: C_5  and  C_7 
ROOT
HETATM    1  O   UNL     1     -54.270  44.140   9.844  1.00  0.00    -0.385 OA
HETATM    2  H   UNL     1     -54.171  43.252   9.466  1.00  0.00     0.210 HD
ENDROOT
BRANCH   1   3
HETATM    3  C   UNL     1     -54.331  45.097   8.794  1.00  0.00     0.221 C 
BRANCH   3   4
HETATM    4  C   UNL     1     -53.306  46.199   9.072  1.00  0.00     0.080 C 
BRANCH   4   5
HETATM    5  C   UNL     1     -53.955  47.553   9.221  1.00  0.00    -0.055 A 
HETATM    6  C   UNL     1     -53.156  48.684   9.292  1.00  0.00     0.007 A 
HETATM    7  C   UNL     1     -53.755  49.936   9.430  1.00  0.00     0.001 A 
HETATM    8  C   UNL     1     -55.145  50.041   9.495  1.00  0.00     0.000 A 
HETATM    9  C   UNL     1     -55.935  48.895   9.421  1.00  0.00     0.001 A 
HETATM   10  C   UNL     1     -55.336  47.642   9.284  1.00  0.00     0.007 A 
ENDBRANCH   4   5
ENDBRANCH   3   4
BRANCH   3  11
HETATM   11  C   UNL     1     -54.014  44.379   7.497  1.00  0.00     0.288 C 
HETATM   12  O   UNL     1     -54.683  43.469   7.024  1.00  0.00    -0.262 OA
BRANCH  11  13
HETATM   13  O   UNL     1     -52.893  44.921   6.936  1.00  0.00    -0.320 OA
BRANCH  13  14
HETATM   14  C   UNL     1     -51.955  43.981   6.402  1.00  0.00     0.174 C 
HETATM   15  C   UNL     1     -51.971  44.074   4.890  1.00  0.00     0.034 C 
ENDBRANCH  13  14
ENDBRANCH  11  13
ENDBRANCH   3  11
ENDBRANCH   1   3
TORSDOF 6
ENDMDL
MODEL 4
REMARK VINA RESULT:      -6.9      1.134      1.506
REMARK  6 active torsions:
REMARK  status: ('A' for Active; 'I' for Inactive)
REMARK    1  A    between atoms: O_1  and  C_5 
REMARK    2  A    between atoms: O_2  and  C_7 
REMARK    3  A    between atoms: O_2  and  C_13 
REMARK    4  A    between atoms: C_4  and  C_5 
REMARK    5  A    between atoms: C_4  and  C_6 
REMARK    6  A    between atoms: C_5  and  C_7 
ROOT
HETATM    1  O   UNL     1     -53.792  43.640   9.480  1.00  0.00    -0.385 OA
HETATM    2  H   UNL     1     -53.243  43.935  10.223  1.00  0.00     0.210 HD
ENDROOT
BRANCH   1   3
HETATM    3  C   UNL     1     -54.188  44.766   8.707  1.00  0.00     0.221 C 
BRANCH   3   4
HETATM    4  C   UNL     1     -53.199  45.908   8.957  1.00  0.00     0.080 C 
BRANCH   4   5
HETATM    5  C   UNL     1     -53.899  47.229   9.166  1.00  0.00    -0.055 A 
HETATM    6  C   UNL     1     -55.284  47.271   9.160  1.00  0.00     0.007 A 
HETATM    7  C   UNL     1     -55.932  48.492   9.354  1.00  0.00     0.001 A 
HETATM    8  C   UNL     1     -55.184  49.653   9.550  1.00  0.00     0.000 A 
HETATM    9  C   UNL     1     -53.791  49.595   9.554  1.00  0.00     0.001 A 
HETATM   10  C   UNL     1     -53.144  48.374   9.361  1.00  0.00     0.007 A 
ENDBRANCH   4   5
ENDBRANCH   3   4
BRANCH   3  11
HETATM   11  C   UNL     1     -54.175  44.351   7.249  1.00  0.00     0.288 C 
HETATM   12  O   UNL     1     -55.063  43.712   6.699  1.00  0.00    -0.262 OA
BRANCH  11  13
HETATM   13  O   UNL     1     -53.042  44.822   6.649  1.00  0.00    -0.320 OA
BRANCH  13  14
HETATM   14  C   UNL     1     -52.349  43.884   5.818  1.00  0.00     0.174 C 
HETATM   15  C   UNL     1     -51.282  43.192   6.641  1.00  0.00     0.034 C 
ENDBRANCH  13  14
ENDBRANCH  11  13
ENDBRANCH   3  11
ENDBRANCH   1   3
TORSDOF 6
ENDMDL
MODEL 5
REMARK VINA RESULT:      -6.7      1.255      1.814
REMARK  6 active torsions:
REMARK  status: ('A' for Active; 'I' for Inactive)
REMARK    1  A    between atoms: O_1  and  C_5 
REMARK    2  A    between atoms: O_2  and  C_7 
REMARK    3  A    between atoms: O_2  and  C_13 
REMARK    4  A    between atoms: C_4  and  C_5 
REMARK    5  A    between atoms: C_4  and  C_6 
REMARK    6  A    between atoms: C_5  and  C_7 
ROOT
HETATM    1  O   UNL     1     -52.241  46.443   7.743  1.00  0.00    -0.385 OA
HETATM    2  H   UNL     1     -52.374  47.244   8.273  1.00  0.00     0.210 HD
ENDROOT
BRANCH   1   3
HETATM    3  C   UNL     1     -52.441  45.296   8.559  1.00  0.00     0.221 C 
BRANCH   3   4
HETATM    4  C   UNL     1     -53.118  45.730   9.861  1.00  0.00     0.080 C 
BRANCH   4   5
HETATM    5  C   UNL     1     -53.900  47.010   9.695  1.00  0.00    -0.055 A 
HETATM    6  C   UNL     1     -55.141  46.971   9.079  1.00  0.00     0.007 A 
HETATM    7  C   UNL     1     -55.865  48.154   8.924  1.00  0.00     0.001 A 
HETATM    8  C   UNL     1     -55.337  49.359   9.388  1.00  0.00     0.000 A 
HETATM    9  C   UNL     1     -54.088  49.383  10.006  1.00  0.00     0.001 A 
HETATM   10  C   UNL     1     -53.364  48.200  10.160  1.00  0.00     0.007 A 
ENDBRANCH   4   5
ENDBRANCH   3   4
BRANCH   3  11
HETATM   11  C   UNL     1     -53.321  44.331   7.789  1.00  0.00     0.288 C 
HETATM   12  O   UNL     1     -53.888  43.364   8.280  1.00  0.00    -0.262 OA
BRANCH  11  13
HETATM   13  O   UNL     1     -53.399  44.724   6.484  1.00  0.00    -0.320 OA
BRANCH  13  14
HETATM   14  C   UNL     1     -53.248  43.680   5.515  1.00  0.00     0.174 C 
HETATM   15  C   UNL     1     -51.824  43.688   5.000  1.00  0.00     0.034 C 
ENDBRANCH  13  14
ENDBRANCH  11  13
ENDBRANCH   3  11
ENDBRANCH   1   3
TORSDOF 6
ENDMDL
MODEL 6
REMARK VINA RESULT:      -6.5      2.449      4.203
REMARK  6 active torsions:
REMARK  status: ('A' for Active; 'I' for Inactive)
REMARK    1  A    between atoms: O_1  and  C_5 
REMARK    2  A    between atoms: O_2  and  C_7 
REMARK    3  A    between atoms: O_2  and  C_13 
REMARK    4  A    between atoms: C_4  and  C_5 
REMARK    5  A    between atoms: C_4  and  C_6 
REMARK    6  A    between atoms: C_5  and  C_7 
ROOT
HETATM    1  O   UNL     1     -52.519  45.123   6.687  1.00  0.00    -0.385 OA
HETATM    2  H   UNL     1     -53.202  44.507   6.380  1.00  0.00     0.210 HD
ENDROOT
BRANCH   1   3
HETATM    3  C   UNL     1     -52.533  45.176   8.107  1.00  0.00     0.221 C 
BRANCH   3   4
HETATM    4  C   UNL     1     -52.135  46.585   8.552  1.00  0.00     0.080 C 
BRANCH   4   5
HETATM    5  C   UNL     1     -51.525  46.593   9.933  1.00  0.00    -0.055 A 
HETATM    6  C   UNL     1     -52.311  46.946  11.019  1.00  0.00     0.007 A 
HETATM    7  C   UNL     1     -51.748  46.954  12.296  1.00  0.00     0.001 A 
HETATM    8  C   UNL     1     -50.407  46.610  12.468  1.00  0.00     0.000 A 
HETATM    9  C   UNL     1     -49.629  46.258  11.366  1.00  0.00     0.001 A 
HETATM   10  C   UNL     1     -50.192  46.249  10.089  1.00  0.00     0.007 A 
ENDBRANCH   4   5
ENDBRANCH   3   4
BRANCH   3  11
HETATM   11  C   UNL     1     -53.939  44.842   8.567  1.00  0.00     0.288 C 
HETATM   12  O   UNL     1     -54.207  44.090   9.495  1.00  0.00    -0.262 OA
BRANCH  11  13
HETATM   13  O   UNL     1     -54.844  45.526   7.807  1.00  0.00    -0.320 OA
BRANCH  13  14
HETATM   14  C   UNL     1     -55.996  46.010   8.506  1.00  0.00     0.174 C 
HETATM   15  C   UNL     1     -55.781  47.467   8.858  1.00  0.00     0.034 C 
ENDBRANCH  13  14
ENDBRANCH  11  13
ENDBRANCH   3  11
ENDBRANCH   1   3
TORSDOF 6
ENDMDL
MODEL 7
REMARK VINA RESULT:      -6.4      3.185      5.730
REMARK  6 active torsions:
REMARK  status: ('A' for Active; 'I' for Inactive)
REMARK    1  A    between atoms: O_1  and  C_5 
REMARK    2  A    between atoms: O_2  and  C_7 
REMARK    3  A    between atoms: O_2  and  C_13 
REMARK    4  A    between atoms: C_4  and  C_5 
REMARK    5  A    between atoms: C_4  and  C_6 
REMARK    6  A    between atoms: C_5  and  C_7 
ROOT
HETATM    1  O   UNL     1     -51.817  48.344   7.453  1.00  0.00    -0.385 OA
HETATM    2  H   UNL     1     -50.900  48.108   7.241  1.00  0.00     0.210 HD
ENDROOT
BRANCH   1   3
HETATM    3  C   UNL     1     -52.271  47.552   8.542  1.00  0.00     0.221 C 
BRANCH   3   4
HETATM    4  C   UNL     1     -51.076  47.213   9.437  1.00  0.00     0.080 C 
BRANCH   4   5
HETATM    5  C   UNL     1     -50.691  45.757   9.340  1.00  0.00    -0.055 A 
HETATM    6  C   UNL     1     -51.463  44.900   8.572  1.00  0.00     0.007 A 
HETATM    7  C   UNL     1     -51.108  43.554   8.482  1.00  0.00     0.001 A 
HETATM    8  C   UNL     1     -49.984  43.083   9.163  1.00  0.00     0.000 A 
HETATM    9  C   UNL     1     -49.217  43.957   9.931  1.00  0.00     0.001 A 
HETATM   10  C   UNL     1     -49.572  45.303  10.021  1.00  0.00     0.007 A 
ENDBRANCH   4   5
ENDBRANCH   3   4
BRANCH   3  11
HETATM   11  C   UNL     1     -53.301  48.363   9.303  1.00  0.00     0.288 C 
HETATM   12  O   UNL     1     -53.212  48.668  10.485  1.00  0.00    -0.262 OA
BRANCH  11  13
HETATM   13  O   UNL     1     -54.318  48.717   8.463  1.00  0.00    -0.320 OA
BRANCH  13  14
HETATM   14  C   UNL     1     -55.639  48.456   8.948  1.00  0.00     0.174 C 
HETATM   15  C   UNL     1     -55.953  46.987   8.756  1.00  0.00     0.034 C 
ENDBRANCH  13  14
ENDBRANCH  11  13
ENDBRANCH   3  11
ENDBRANCH   1   3
TORSDOF 6
ENDMDL
MODEL 8
REMARK VINA RESULT:      -6.4      1.470      2.338
REMARK  6 active torsions:
REMARK  status: ('A' for Active; 'I' for Inactive)
REMARK    1  A    between atoms: O_1  and  C_5 
REMARK    2  A    between atoms: O_2  and  C_7 
REMARK    3  A    between atoms: O_2  and  C_13 
REMARK    4  A    between atoms: C_4  and  C_5 
REMARK    5  A    between atoms: C_4  and  C_6 
REMARK    6  A    between atoms: C_5  and  C_7 
ROOT
HETATM    1  O   UNL     1     -54.366  42.934   7.377  1.00  0.00    -0.385 OA
HETATM    2  H   UNL     1     -55.313  42.885   7.176  1.00  0.00     0.210 HD
ENDROOT
BRANCH   1   3
HETATM    3  C   UNL     1     -53.949  44.293   7.364  1.00  0.00     0.221 C 
BRANCH   3   4
HETATM    4  C   UNL     1     -53.838  44.789   8.807  1.00  0.00     0.080 C 
BRANCH   4   5
HETATM    5  C   UNL     1     -54.321  46.211   8.958  1.00  0.00    -0.055 A 
HETATM    6  C   UNL     1     -53.407  47.211   9.253  1.00  0.00     0.007 A 
HETATM    7  C   UNL     1     -53.852  48.525   9.392  1.00  0.00     0.001 A 
HETATM    8  C   UNL     1     -55.206  48.823   9.234  1.00  0.00     0.000 A 
HETATM    9  C   UNL     1     -56.114  47.807   8.937  1.00  0.00     0.001 A 
HETATM   10  C   UNL     1     -55.668  46.492   8.798  1.00  0.00     0.007 A 
ENDBRANCH   4   5
ENDBRANCH   3   4
BRANCH   3  11
HETATM   11  C   UNL     1     -52.604  44.356   6.667  1.00  0.00     0.288 C 
HETATM   12  O   UNL     1     -52.419  44.824   5.552  1.00  0.00    -0.262 OA
BRANCH  11  13
HETATM   13  O   UNL     1     -51.641  43.837   7.485  1.00  0.00    -0.320 OA
BRANCH  13  14
HETATM   14  C   UNL     1     -50.808  42.831   6.896  1.00  0.00     0.174 C 
HETATM   15  C   UNL     1     -51.320  41.466   7.307  1.00  0.00     0.034 C 
ENDBRANCH  13  14
ENDBRANCH  11  13
ENDBRANCH   3  11
ENDBRANCH   1   3
TORSDOF 6
ENDMDL
MODEL 9
REMARK VINA RESULT:      -6.3      3.147      5.741
REMARK  6 active torsions:
REMARK  status: ('A' for Active; 'I' for Inactive)
REMARK    1  A    between atoms: O_1  and  C_5 
REMARK    2  A    between atoms: O_2  and  C_7 
REMARK    3  A    between atoms: O_2  and  C_13 
REMARK    4  A    between atoms: C_4  and  C_5 
REMARK    5  A    between atoms: C_4  and  C_6 
REMARK    6  A    between atoms: C_5  and  C_7 
ROOT
HETATM    1  O   UNL     1     -55.269  47.273   8.511  1.00  0.00    -0.385 OA
HETATM    2  H   UNL     1     -56.143  47.508   8.859  1.00  0.00     0.210 HD
ENDROOT
BRANCH   1   3
HETATM    3  C   UNL     1     -54.288  47.467   9.522  1.00  0.00     0.221 C 
BRANCH   3   4
HETATM    4  C   UNL     1     -53.427  46.205   9.622  1.00  0.00     0.080 C 
BRANCH   4   5
HETATM    5  C   UNL     1     -52.326  46.350  10.644  1.00  0.00    -0.055 A 
HETATM    6  C   UNL     1     -52.645  46.739  11.935  1.00  0.00     0.007 A 
HETATM    7  C   UNL     1     -51.627  46.873  12.880  1.00  0.00     0.001 A 
HETATM    8  C   UNL     1     -50.304  46.615  12.520  1.00  0.00     0.000 A 
HETATM    9  C   UNL     1     -49.999  46.224  11.217  1.00  0.00     0.001 A 
HETATM   10  C   UNL     1     -51.016  46.090  10.273  1.00  0.00     0.007 A 
ENDBRANCH   4   5
ENDBRANCH   3   4
BRANCH   3  11
HETATM   11  C   UNL     1     -53.447  48.664   9.124  1.00  0.00     0.288 C 
HETATM   12  O   UNL     1     -52.745  48.718   8.123  1.00  0.00    -0.262 OA
BRANCH  11  13
HETATM   13  O   UNL     1     -53.616  49.666  10.036  1.00  0.00    -0.320 OA
BRANCH  13  14
HETATM   14  C   UNL     1     -54.389  50.785   9.586  1.00  0.00     0.174 C 
HETATM   15  C   UNL     1     -53.871  52.041  10.256  1.00  0.00     0.034 C 
ENDBRANCH  13  14
ENDBRANCH  11  13
ENDBRANCH   3  11
ENDBRANCH   1   3
TORSDOF 6
ENDMDL
