MODEL 1
REMARK VINA RESULT:      -7.3      0.000      0.000
REMARK  6 active torsions:
REMARK  status: ('A' for Active; 'I' for Inactive)
REMARK    1  A    between atoms: O_1  and  C_5 
REMARK    2  A    between atoms: O_2  and  C_7 
REMARK    3  A    between atoms: O_2  and  C_13 
REMARK    4  A    between atoms: C_4  and  C_5 
REMARK    5  A    between atoms: C_4  and  C_6 
REMARK    6  A    between atoms: C_5  and  C_7 
ROOT
HETATM    1  O   UNL     1     -54.323  44.139   9.789  1.00  0.00    -0.385 OA
HETATM    2  H   UNL     1     -54.701  44.586  10.563  1.00  0.00     0.210 HD
ENDROOT
BRANCH   1   3
HETATM    3  C   UNL     1     -54.180  45.073   8.727  1.00  0.00     0.221 C 
BRANCH   3   4
HETATM    4  C   UNL     1     -53.231  46.187   9.175  1.00  0.00     0.080 C 
BRANCH   4   5
HETATM    5  C   UNL     1     -53.932  47.519   9.286  1.00  0.00    -0.055 A 
HETATM    6  C   UNL     1     -53.179  48.671   9.454  1.00  0.00     0.007 A 
HETATM    7  C   UNL     1     -53.827  49.902   9.557  1.00  0.00     0.001 A 
HETATM    8  C   UNL     1     -55.219  49.965   9.491  1.00  0.00     0.000 A 
HETATM    9  C   UNL     1     -55.963  48.798   9.322  1.00  0.00     0.001 A 
HETATM   10  C   UNL     1     -55.315  47.567   9.219  1.00  0.00     0.007 A 
ENDBRANCH   4   5
ENDBRANCH   3   4
BRANCH   3  11
HETATM   11  C   UNL     1     -53.613  44.330   7.534  1.00  0.00     0.288 C 
HETATM   12  O   UNL     1     -52.939  44.843   6.650  1.00  0.00    -0.262 OA
BRANCH  11  13
HETATM   13  O   UNL     1     -53.948  43.008   7.616  1.00  0.00    -0.320 OA
BRANCH  13  14
HETATM   14  C   UNL     1     -53.668  42.227   6.449  1.00  0.00     0.174 C 
HETATM   15  C   UNL     1     -54.912  42.167   5.587  1.00  0.00     0.034 C 
ENDBRANCH  13  14
ENDBRANCH  11  13
ENDBRANCH   3  11
ENDBRANCH   1   3
TORSDOF 6
ENDMDL
MODEL 2
REMARK VINA RESULT:      -7.3      0.067      1.293
REMARK  6 active torsions:
REMARK  status: ('A' for Active; 'I' for Inactive)
REMARK    1  A    between atoms: O_1  and  C_5 
REMARK    2  A    between atoms: O_2  and  C_7 
REMARK    3  A    between atoms: O_2  and  C_13 
REMARK    4  A    between atoms: C_4  and  C_5 
REMARK    5  A    between atoms: C_4  and  C_6 
REMARK    6  A    between atoms: C_5  and  C_7 
ROOT
HETATM    1  O   UNL     1     -54.396  44.178   9.807  1.00  0.00    -0.385 OA
HETATM    2  H   UNL     1     -53.546  43.764  10.022  1.00  0.00     0.210 HD
ENDROOT
BRANCH   1   3
HETATM    3  C   UNL     1     -54.215  45.107   8.747  1.00  0.00     0.221 C 
BRANCH   3   4
HETATM    4  C   UNL     1     -53.263  46.210   9.215  1.00  0.00     0.080 C 
BRANCH   4   5
HETATM    5  C   UNL     1     -53.949  47.552   9.306  1.00  0.00    -0.055 A 
HETATM    6  C   UNL     1     -55.332  47.612   9.241  1.00  0.00     0.007 A 
HETATM    7  C   UNL     1     -55.967  48.852   9.324  1.00  0.00     0.001 A 
HETATM    8  C   UNL     1     -55.209  50.014   9.471  1.00  0.00     0.000 A 
HETATM    9  C   UNL     1     -53.819  49.937   9.535  1.00  0.00     0.001 A 
HETATM   10  C   UNL     1     -53.184  48.698   9.452  1.00  0.00     0.007 A 
ENDBRANCH   4   5
ENDBRANCH   3   4
BRANCH   3  11
HETATM   11  C   UNL     1     -53.629  44.353   7.569  1.00  0.00     0.288 C 
HETATM   12  O   UNL     1     -52.962  44.864   6.679  1.00  0.00    -0.262 OA
BRANCH  11  13
HETATM   13  O   UNL     1     -53.939  43.028   7.674  1.00  0.00    -0.320 OA
BRANCH  13  14
HETATM   14  C   UNL     1     -53.595  42.222   6.541  1.00  0.00     0.174 C 
HETATM   15  C   UNL     1     -54.794  42.129   5.621  1.00  0.00     0.034 C 
ENDBRANCH  13  14
ENDBRANCH  11  13
ENDBRANCH   3  11
ENDBRANCH   1   3
TORSDOF 6
ENDMDL
MODEL 3
REMARK VINA RESULT:      -7.0      1.078      1.942
REMARK  6 active torsions:
REMARK  status: ('A' for Active; 'I' for Inactive)
REMARK    1  A    between atoms: O_1  and  C_5 
REMARK    2  A    between atoms: O_2  and  C_7 
REMARK    3  A    between atoms: O_2  and  C_13 
REMARK    4  A    between atoms: C_4  and  C_5 
REMARK    5  A    between atoms: C_4  and  C_6 
REMARK    6  A    between atoms: C_5  and  C_7 
ROOT
HETATM    1  O   UNL     1     -53.973  43.878   9.646  1.00  0.00    -0.385 OA
HETATM    2  H   UNL     1     -54.747  43.297   9.702  1.00  0.00     0.210 HD
ENDROOT
BRANCH   1   3
HETATM    3  C   UNL     1     -54.227  44.917   8.710  1.00  0.00     0.221 C 
BRANCH   3   4
HETATM    4  C   UNL     1     -53.227  46.051   8.949  1.00  0.00     0.080 C 
BRANCH   4   5
HETATM    5  C   UNL     1     -53.913  47.377   9.166  1.00  0.00    -0.055 A 
HETATM    6  C   UNL     1     -55.299  47.428   9.191  1.00  0.00     0.007 A 
HETATM    7  C   UNL     1     -55.934  48.654   9.391  1.00  0.00     0.001 A 
HETATM    8  C   UNL     1     -55.176  49.812   9.565  1.00  0.00     0.000 A 
HETATM    9  C   UNL     1     -53.783  49.745   9.538  1.00  0.00     0.001 A 
HETATM   10  C   UNL     1     -53.148  48.519   9.337  1.00  0.00     0.007 A 
ENDBRANCH   4   5
ENDBRANCH   3   4
BRANCH   3  11
HETATM   11  C   UNL     1     -54.061  44.335   7.320  1.00  0.00     0.288 C 
HETATM   12  O   UNL     1     -54.839  43.549   6.797  1.00  0.00    -0.262 OA
BRANCH  11  13
HETATM   13  O   UNL     1     -52.932  44.843   6.743  1.00  0.00    -0.320 OA
BRANCH  13  14
HETATM   14  C   UNL     1     -51.933  43.880   6.388  1.00  0.00     0.174 C 
HETATM   15  C   UNL     1     -51.848  43.792   4.879  1.00  0.00     0.034 C 
ENDBRANCH  13  14
ENDBRANCH  11  13
ENDBRANCH   3  11
ENDBRANCH   1   3
TORSDOF 6
ENDMDL
MODEL 4
REMARK VINA RESULT:      -6.5      2.531      4.712
REMARK  6 active torsions:
REMARK  status: ('A' for Active; 'I' for Inactive)
REMARK    1  A    between atoms: O_1  and  C_5 
REMARK    2  A    between atoms: O_2  and  C_7 
REMARK    3  A    between atoms: O_2  and  C_13 
REMARK    4  A    between atoms: C_4  and  C_5 
REMARK    5  A    between atoms: C_4  and  C_6 
REMARK    6  A    between atoms: C_5  and  C_7 
ROOT
HETATM    1  O   UNL     1     -54.211  44.104   9.349  1.00  0.00    -0.385 OA
HETATM    2  H   UNL     1     -54.691  43.660  10.064  1.00  0.00     0.210 HD
ENDROOT
BRANCH   1   3
HETATM    3  C   UNL     1     -54.327  45.512   9.502  1.00  0.00     0.221 C 
BRANCH   3   4
HETATM    4  C   UNL     1     -53.007  46.165   9.084  1.00  0.00     0.080 C 
BRANCH   4   5
HETATM    5  C   UNL     1     -52.066  46.339  10.251  1.00  0.00    -0.055 A 
HETATM    6  C   UNL     1     -52.567  46.780  11.466  1.00  0.00     0.007 A 
HETATM    7  C   UNL     1     -51.698  46.943  12.545  1.00  0.00     0.001 A 
HETATM    8  C   UNL     1     -50.340  46.662  12.394  1.00  0.00     0.000 A 
HETATM    9  C   UNL     1     -49.851  46.219  11.166  1.00  0.00     0.001 A 
HETATM   10  C   UNL     1     -50.720  46.057  10.087  1.00  0.00     0.007 A 
ENDBRANCH   4   5
ENDBRANCH   3   4
BRANCH   3  11
HETATM   11  C   UNL     1     -55.465  45.979   8.614  1.00  0.00     0.288 C 
HETATM   12  O   UNL     1     -56.389  45.272   8.238  1.00  0.00    -0.262 OA
BRANCH  11  13
HETATM   13  O   UNL     1     -55.307  47.305   8.328  1.00  0.00    -0.320 OA
BRANCH  13  14
HETATM   14  C   UNL     1     -55.975  48.212   9.212  1.00  0.00     0.174 C 
HETATM   15  C   UNL     1     -55.082  49.411   9.453  1.00  0.00     0.034 C 
ENDBRANCH  13  14
ENDBRANCH  11  13
ENDBRANCH   3  11
ENDBRANCH   1   3
TORSDOF 6
ENDMDL
MODEL 5
REMARK VINA RESULT:      -6.5      1.554      1.914
REMARK  6 active torsions:
REMARK  status: ('A' for Active; 'I' for Inactive)
REMARK    1  A    between atoms: O_1  and  C_5 
REMARK    2  A    between atoms: O_2  and  C_7 
REMARK    3  A    between atoms: O_2  and  C_13 
REMARK    4  A    between atoms: C_4  and  C_5 
REMARK    5  A    between atoms: C_4  and  C_6 
REMARK    6  A    between atoms: C_5  and  C_7 
ROOT
HETATM    1  O   UNL     1     -56.919  44.877   7.740  1.00  0.00    -0.385 OA
HETATM    2  H   UNL     1     -57.015  44.312   8.523  1.00  0.00     0.210 HD
ENDROOT
BRANCH   1   3
HETATM    3  C   UNL     1     -55.614  45.441   7.721  1.00  0.00     0.221 C 
BRANCH   3   4
HETATM    4  C   UNL     1     -55.235  45.855   9.145  1.00  0.00     0.080 C 
BRANCH   4   5
HETATM    5  C   UNL     1     -54.876  47.318   9.235  1.00  0.00    -0.055 A 
HETATM    6  C   UNL     1     -53.540  47.688   9.261  1.00  0.00     0.007 A 
HETATM    7  C   UNL     1     -53.207  49.040   9.344  1.00  0.00     0.001 A 
HETATM    8  C   UNL     1     -54.214  50.004   9.400  1.00  0.00     0.000 A 
HETATM    9  C   UNL     1     -55.553  49.616   9.372  1.00  0.00     0.001 A 
HETATM   10  C   UNL     1     -55.886  48.264   9.289  1.00  0.00     0.007 A 
ENDBRANCH   4   5
ENDBRANCH   3   4
BRANCH   3  11
HETATM   11  C   UNL     1     -54.663  44.384   7.195  1.00  0.00     0.288 C 
HETATM   12  O   UNL     1     -54.080  43.564   7.892  1.00  0.00    -0.262 OA
BRANCH  11  13
HETATM   13  O   UNL     1     -54.582  44.476   5.835  1.00  0.00    -0.320 OA
BRANCH  13  14
HETATM   14  C   UNL     1     -53.626  43.610   5.214  1.00  0.00     0.174 C 
HETATM   15  C   UNL     1     -52.282  44.308   5.175  1.00  0.00     0.034 C 
ENDBRANCH  13  14
ENDBRANCH  11  13
ENDBRANCH   3  11
ENDBRANCH   1   3
TORSDOF 6
ENDMDL
MODEL 6
REMARK VINA RESULT:      -6.4      1.681      3.308
REMARK  6 active torsions:
REMARK  status: ('A' for Active; 'I' for Inactive)
REMARK    1  A    between atoms: O_1  and  C_5 
REMARK    2  A    between atoms: O_2  and  C_7 
REMARK    3  A    between atoms: O_2  and  C_13 
REMARK    4  A    between atoms: C_4  and  C_5 
REMARK    5  A    between atoms: C_4  and  C_6 
REMARK    6  A    between atoms: C_5  and  C_7 
ROOT
HETATM    1  O   UNL     1     -54.579  44.051   7.438  1.00  0.00    -0.385 OA
HETATM    2  H   UNL     1     -53.963  43.301   7.448  1.00  0.00     0.210 HD
ENDROOT
BRANCH   1   3
HETATM    3  C   UNL     1     -54.157  45.024   8.384  1.00  0.00     0.221 C 
BRANCH   3   4
HETATM    4  C   UNL     1     -55.363  45.877   8.786  1.00  0.00     0.080 C 
BRANCH   4   5
HETATM    5  C   UNL     1     -54.975  47.305   9.079  1.00  0.00    -0.055 A 
HETATM    6  C   UNL     1     -55.968  48.255   9.262  1.00  0.00     0.007 A 
HETATM    7  C   UNL     1     -55.610  49.575   9.533  1.00  0.00     0.001 A 
HETATM    8  C   UNL     1     -54.264  49.929   9.617  1.00  0.00     0.000 A 
HETATM    9  C   UNL     1     -53.275  48.964   9.430  1.00  0.00     0.001 A 
HETATM   10  C   UNL     1     -53.633  47.643   9.159  1.00  0.00     0.007 A 
ENDBRANCH   4   5
ENDBRANCH   3   4
BRANCH   3  11
HETATM   11  C   UNL     1     -53.595  44.286   9.584  1.00  0.00     0.288 C 
HETATM   12  O   UNL     1     -54.261  43.617  10.364  1.00  0.00    -0.262 OA
BRANCH  11  13
HETATM   13  O   UNL     1     -52.242  44.463   9.639  1.00  0.00    -0.320 OA
BRANCH  13  14
HETATM   14  C   UNL     1     -51.729  44.908  10.899  1.00  0.00     0.174 C 
HETATM   15  C   UNL     1     -50.698  45.990  10.656  1.00  0.00     0.034 C 
ENDBRANCH  13  14
ENDBRANCH  11  13
ENDBRANCH   3  11
ENDBRANCH   1   3
TORSDOF 6
ENDMDL
MODEL 7
REMARK VINA RESULT:      -6.3      3.167      6.295
REMARK  6 active torsions:
REMARK  status: ('A' for Active; 'I' for Inactive)
REMARK    1  A    between atoms: O_1  and  C_5 
REMARK    2  A    between atoms: O_2  and  C_7 
REMARK    3  A    between atoms: O_2  and  C_13 
REMARK    4  A    between atoms: C_4  and  C_5 
REMARK    5  A    between atoms: C_4  and  C_6 
REMARK    6  A    between atoms: C_5  and  C_7 
ROOT
HETATM    1  O   UNL     1     -51.853  48.309   7.420  1.00  0.00    -0.385 OA
HETATM    2  H   UNL     1     -52.505  49.014   7.285  1.00  0.00     0.210 HD
ENDROOT
BRANCH   1   3
HETATM    3  C   UNL     1     -52.240  47.513   8.532  1.00  0.00     0.221 C 
BRANCH   3   4
HETATM    4  C   UNL     1     -50.991  47.162   9.345  1.00  0.00     0.080 C 
BRANCH   4   5
HETATM    5  C   UNL     1     -50.680  45.686   9.297  1.00  0.00    -0.055 A 
HETATM    6  C   UNL     1     -51.477  44.848   8.532  1.00  0.00     0.007 A 
HETATM    7  C   UNL     1     -51.190  43.484   8.488  1.00  0.00     0.001 A 
HETATM    8  C   UNL     1     -50.109  42.975   9.208  1.00  0.00     0.000 A 
HETATM    9  C   UNL     1     -49.315  43.830   9.972  1.00  0.00     0.001 A 
HETATM   10  C   UNL     1     -49.603  45.195  10.017  1.00  0.00     0.007 A 
ENDBRANCH   4   5
ENDBRANCH   3   4
BRANCH   3  11
HETATM   11  C   UNL     1     -53.214  48.325   9.363  1.00  0.00     0.288 C 
HETATM   12  O   UNL     1     -53.147  48.461  10.578  1.00  0.00    -0.262 OA
BRANCH  11  13
HETATM   13  O   UNL     1     -54.149  48.895   8.547  1.00  0.00    -0.320 OA
BRANCH  13  14
HETATM   14  C   UNL     1     -55.034  49.826   9.179  1.00  0.00     0.174 C 
HETATM   15  C   UNL     1     -54.421  51.209   9.116  1.00  0.00     0.034 C 
ENDBRANCH  13  14
ENDBRANCH  11  13
ENDBRANCH   3  11
ENDBRANCH   1   3
TORSDOF 6
ENDMDL
MODEL 8
REMARK VINA RESULT:      -6.3      3.285      6.330
REMARK  6 active torsions:
REMARK  status: ('A' for Active; 'I' for Inactive)
REMARK    1  A    between atoms: O_1  and  C_5 
REMARK    2  A    between atoms: O_2  and  C_7 
REMARK    3  A    between atoms: O_2  and  C_13 
REMARK    4  A    between atoms: C_4  and  C_5 
REMARK    5  A    between atoms: C_4  and  C_6 
REMARK    6  A    between atoms: C_5  and  C_7 
ROOT
HETATM    1  O   UNL     1     -55.079  49.078   8.020  1.00  0.00    -0.385 OA
HETATM    2  H   UNL     1     -54.365  49.466   7.490  1.00  0.00     0.210 HD
ENDROOT
BRANCH   1   3
HETATM    3  C   UNL     1     -55.016  49.590   9.345  1.00  0.00     0.221 C 
BRANCH   3   4
HETATM    4  C   UNL     1     -54.563  48.471  10.285  1.00  0.00     0.080 C 
BRANCH   4   5
HETATM    5  C   UNL     1     -53.857  47.360   9.546  1.00  0.00    -0.055 A 
HETATM    6  C   UNL     1     -52.534  47.529   9.170  1.00  0.00     0.007 A 
HETATM    7  C   UNL     1     -51.881  46.503   8.487  1.00  0.00     0.001 A 
HETATM    8  C   UNL     1     -52.560  45.322   8.189  1.00  0.00     0.000 A 
HETATM    9  C   UNL     1     -53.891  45.166   8.574  1.00  0.00     0.001 A 
HETATM   10  C   UNL     1     -54.544  46.192   9.257  1.00  0.00     0.007 A 
ENDBRANCH   4   5
ENDBRANCH   3   4
BRANCH   3  11
HETATM   11  C   UNL     1     -54.022  50.735   9.350  1.00  0.00     0.288 C 
HETATM   12  O   UNL     1     -53.402  51.122   8.368  1.00  0.00    -0.262 OA
BRANCH  11  13
HETATM   13  O   UNL     1     -53.949  51.272  10.603  1.00  0.00    -0.320 OA
BRANCH  13  14
HETATM   14  C   UNL     1     -53.720  52.685  10.656  1.00  0.00     0.174 C 
HETATM   15  C   UNL     1     -54.677  53.375   9.707  1.00  0.00     0.034 C 
ENDBRANCH  13  14
ENDBRANCH  11  13
ENDBRANCH   3  11
ENDBRANCH   1   3
TORSDOF 6
ENDMDL
MODEL 9
REMARK VINA RESULT:      -6.3      2.381      4.155
REMARK  6 active torsions:
REMARK  status: ('A' for Active; 'I' for Inactive)
REMARK    1  A    between atoms: O_1  and  C_5 
REMARK    2  A    between atoms: O_2  and  C_7 
REMARK    3  A    between atoms: O_2  and  C_13 
REMARK    4  A    between atoms: C_4  and  C_5 
REMARK    5  A    between atoms: C_4  and  C_6 
REMARK    6  A    between atoms: C_5  and  C_7 
ROOT
HETATM    1  O   UNL     1     -52.362  45.340   6.495  1.00  0.00    -0.385 OA
HETATM    2  H   UNL     1     -52.781  44.552   6.115  1.00  0.00     0.210 HD
ENDROOT
BRANCH   1   3
HETATM    3  C   UNL     1     -52.389  45.252   7.914  1.00  0.00     0.221 C 
BRANCH   3   4
HETATM    4  C   UNL     1     -52.109  46.639   8.499  1.00  0.00     0.080 C 
BRANCH   4   5
HETATM    5  C   UNL     1     -51.575  46.563   9.908  1.00  0.00    -0.055 A 
HETATM    6  C   UNL     1     -50.310  46.038  10.127  1.00  0.00     0.007 A 
HETATM    7  C   UNL     1     -49.816  45.967  11.430  1.00  0.00     0.001 A 
HETATM    8  C   UNL     1     -50.593  46.422  12.496  1.00  0.00     0.000 A 
HETATM    9  C   UNL     1     -51.862  46.948  12.260  1.00  0.00     0.001 A 
HETATM   10  C   UNL     1     -52.357  47.018  10.957  1.00  0.00     0.007 A 
ENDBRANCH   4   5
ENDBRANCH   3   4
BRANCH   3  11
HETATM   11  C   UNL     1     -53.766  44.764   8.320  1.00  0.00     0.288 C 
HETATM   12  O   UNL     1     -53.977  43.784   9.022  1.00  0.00    -0.262 OA
BRANCH  11  13
HETATM   13  O   UNL     1     -54.717  45.597   7.805  1.00  0.00    -0.320 OA
BRANCH  13  14
HETATM   14  C   UNL     1     -55.795  45.923   8.689  1.00  0.00     0.174 C 
HETATM   15  C   UNL     1     -55.884  47.428   8.824  1.00  0.00     0.034 C 
ENDBRANCH  13  14
ENDBRANCH  11  13
ENDBRANCH   3  11
ENDBRANCH   1   3
TORSDOF 6
ENDMDL
