MODEL 1
REMARK VINA RESULT:      -6.7      0.000      0.000
REMARK  6 active torsions:
REMARK  status: ('A' for Active; 'I' for Inactive)
REMARK    1  A    between atoms: O_1  and  C_8 
REMARK    2  A    between atoms: O_2  and  C_11 
REMARK    3  A    between atoms: O_3  and  C_13 
REMARK    4  A    between atoms: C_6  and  C_7 
REMARK    5  A    between atoms: C_6  and  C_8 
REMARK    6  A    between atoms: C_8  and  C_14 
ROOT
HETATM    1  O   UNL     1      23.412  -7.602  31.863  1.00  0.00    -0.385 OA
HETATM    2  H   UNL     1      22.839  -7.691  31.086  1.00  0.00     0.210 HD
ENDROOT
BRANCH   1   3
HETATM    3  C   UNL     1      22.802  -6.728  32.805  1.00  0.00     0.223 C 
BRANCH   3   4
HETATM    4  C   UNL     1      21.520  -6.153  32.179  1.00  0.00     0.081 C 
BRANCH   4   5
HETATM    5  C   UNL     1      21.541  -4.666  32.090  1.00  0.00    -0.052 A 
HETATM    6  C   UNL     1      21.380  -4.038  30.855  1.00  0.00     0.046 A 
HETATM    7  C   UNL     1      21.400  -2.646  30.772  1.00  0.00     0.099 A 
HETATM    8  C   UNL     1      21.581  -1.881  31.924  1.00  0.00     0.098 A 
HETATM    9  C   UNL     1      21.743  -2.509  33.159  1.00  0.00     0.040 A 
HETATM   10  C   UNL     1      21.723  -3.901  33.242  1.00  0.00     0.010 A 
BRANCH   7  11
HETATM   11  O   UNL     1      21.240  -2.045  29.560  1.00  0.00    -0.358 OA
HETATM   12  H   UNL     1      20.472  -2.214  29.052  1.00  0.00     0.217 HD
ENDBRANCH   7  11
BRANCH   8  13
HETATM   13  O   UNL     1      21.601  -0.521  31.855  1.00  0.00    -0.358 OA
HETATM   14  H   UNL     1      22.082  -0.026  32.490  1.00  0.00     0.217 HD
ENDBRANCH   8  13
ENDBRANCH   4   5
ENDBRANCH   3   4
BRANCH   3  15
HETATM   15  C   UNL     1      22.495  -7.538  34.048  1.00  0.00     0.203 C 
HETATM   16  O   UNL     1      23.558  -7.604  34.891  1.00  0.00    -0.646 OA
HETATM   17  O   UNL     1      21.428  -8.091  34.276  1.00  0.00    -0.646 OA
ENDBRANCH   3  15
ENDBRANCH   1   3
TORSDOF 6
ENDMDL
MODEL 2
REMARK VINA RESULT:      -6.7      1.149      2.136
REMARK  6 active torsions:
REMARK  status: ('A' for Active; 'I' for Inactive)
REMARK    1  A    between atoms: O_1  and  C_8 
REMARK    2  A    between atoms: O_2  and  C_11 
REMARK    3  A    between atoms: O_3  and  C_13 
REMARK    4  A    between atoms: C_6  and  C_7 
REMARK    5  A    between atoms: C_6  and  C_8 
REMARK    6  A    between atoms: C_8  and  C_14 
ROOT
HETATM    1  O   UNL     1      21.969  -7.609  31.655  1.00  0.00    -0.385 OA
HETATM    2  H   UNL     1      21.824  -7.186  30.794  1.00  0.00     0.210 HD
ENDROOT
BRANCH   1   3
HETATM    3  C   UNL     1      22.694  -6.724  32.501  1.00  0.00     0.223 C 
BRANCH   3   4
HETATM    4  C   UNL     1      21.688  -5.874  33.296  1.00  0.00     0.081 C 
BRANCH   4   5
HETATM    5  C   UNL     1      21.658  -4.453  32.850  1.00  0.00    -0.052 A 
HETATM    6  C   UNL     1      21.955  -3.432  33.753  1.00  0.00     0.046 A 
HETATM    7  C   UNL     1      21.927  -2.101  33.336  1.00  0.00     0.099 A 
HETATM    8  C   UNL     1      21.601  -1.791  32.016  1.00  0.00     0.098 A 
HETATM    9  C   UNL     1      21.303  -2.812  31.113  1.00  0.00     0.040 A 
HETATM   10  C   UNL     1      21.332  -4.142  31.530  1.00  0.00     0.010 A 
BRANCH   7  11
HETATM   11  O   UNL     1      22.219  -1.114  34.227  1.00  0.00    -0.358 OA
HETATM   12  H   UNL     1      22.108  -1.263  35.145  1.00  0.00     0.217 HD
ENDBRANCH   7  11
BRANCH   8  13
HETATM   13  O   UNL     1      21.571  -0.495  31.597  1.00  0.00    -0.358 OA
HETATM   14  H   UNL     1      22.196  -0.191  30.968  1.00  0.00     0.217 HD
ENDBRANCH   8  13
ENDBRANCH   4   5
ENDBRANCH   3   4
BRANCH   3  15
HETATM   15  C   UNL     1      23.550  -7.570  33.421  1.00  0.00     0.203 C 
HETATM   16  O   UNL     1      24.402  -8.372  32.733  1.00  0.00    -0.646 OA
HETATM   17  O   UNL     1      23.484  -7.560  34.643  1.00  0.00    -0.646 OA
ENDBRANCH   3  15
ENDBRANCH   1   3
TORSDOF 6
ENDMDL
MODEL 3
REMARK VINA RESULT:      -6.6      3.440      4.713
REMARK  6 active torsions:
REMARK  status: ('A' for Active; 'I' for Inactive)
REMARK    1  A    between atoms: O_1  and  C_8 
REMARK    2  A    between atoms: O_2  and  C_11 
REMARK    3  A    between atoms: O_3  and  C_13 
REMARK    4  A    between atoms: C_6  and  C_7 
REMARK    5  A    between atoms: C_6  and  C_8 
REMARK    6  A    between atoms: C_8  and  C_14 
ROOT
HETATM    1  O   UNL     1      20.553  -1.057  34.887  1.00  0.00    -0.385 OA
HETATM    2  H   UNL     1      20.882  -0.331  35.440  1.00  0.00     0.210 HD
ENDROOT
BRANCH   1   3
HETATM    3  C   UNL     1      21.648  -1.858  34.457  1.00  0.00     0.223 C 
BRANCH   3   4
HETATM    4  C   UNL     1      21.986  -1.482  33.005  1.00  0.00     0.081 C 
BRANCH   4   5
HETATM    5  C   UNL     1      21.309  -2.362  32.011  1.00  0.00    -0.052 A 
HETATM    6  C   UNL     1      20.445  -1.811  31.065  1.00  0.00     0.046 A 
HETATM    7  C   UNL     1      19.811  -2.635  30.135  1.00  0.00     0.099 A 
HETATM    8  C   UNL     1      20.040  -4.010  30.152  1.00  0.00     0.098 A 
HETATM    9  C   UNL     1      20.903  -4.562  31.098  1.00  0.00     0.040 A 
HETATM   10  C   UNL     1      21.537  -3.738  32.028  1.00  0.00     0.010 A 
BRANCH   7  11
HETATM   11  O   UNL     1      18.971  -2.084  29.216  1.00  0.00    -0.358 OA
HETATM   12  H   UNL     1      19.223  -2.044  28.315  1.00  0.00     0.217 HD
ENDBRANCH   7  11
BRANCH   8  13
HETATM   13  O   UNL     1      19.427  -4.825  29.247  1.00  0.00    -0.358 OA
HETATM   14  H   UNL     1      18.575  -5.170  29.430  1.00  0.00     0.217 HD
ENDBRANCH   8  13
ENDBRANCH   4   5
ENDBRANCH   3   4
BRANCH   3  15
HETATM   15  C   UNL     1      22.811  -1.578  35.386  1.00  0.00     0.203 C 
HETATM   16  O   UNL     1      22.476  -1.742  36.691  1.00  0.00    -0.646 OA
HETATM   17  O   UNL     1      23.926  -1.226  35.024  1.00  0.00    -0.646 OA
ENDBRANCH   3  15
ENDBRANCH   1   3
TORSDOF 6
ENDMDL
MODEL 4
REMARK VINA RESULT:      -6.6      0.764      2.192
REMARK  6 active torsions:
REMARK  status: ('A' for Active; 'I' for Inactive)
REMARK    1  A    between atoms: O_1  and  C_8 
REMARK    2  A    between atoms: O_2  and  C_11 
REMARK    3  A    between atoms: O_3  and  C_13 
REMARK    4  A    between atoms: C_6  and  C_7 
REMARK    5  A    between atoms: C_6  and  C_8 
REMARK    6  A    between atoms: C_8  and  C_14 
ROOT
HETATM    1  O   UNL     1      20.921  -7.307  34.103  1.00  0.00    -0.385 OA
HETATM    2  H   UNL     1      21.172  -7.114  35.020  1.00  0.00     0.210 HD
ENDROOT
BRANCH   1   3
HETATM    3  C   UNL     1      21.833  -6.665  33.219  1.00  0.00     0.223 C 
BRANCH   3   4
HETATM    4  C   UNL     1      21.935  -5.183  33.614  1.00  0.00     0.081 C 
BRANCH   4   5
HETATM    5  C   UNL     1      21.773  -4.265  32.451  1.00  0.00    -0.052 A 
HETATM    6  C   UNL     1      21.682  -2.888  32.655  1.00  0.00     0.046 A 
HETATM    7  C   UNL     1      21.530  -2.030  31.566  1.00  0.00     0.099 A 
HETATM    8  C   UNL     1      21.469  -2.549  30.273  1.00  0.00     0.098 A 
HETATM    9  C   UNL     1      21.559  -3.926  30.068  1.00  0.00     0.040 A 
HETATM   10  C   UNL     1      21.711  -4.784  31.157  1.00  0.00     0.010 A 
BRANCH   7  11
HETATM   11  O   UNL     1      21.443  -0.688  31.778  1.00  0.00    -0.358 OA
HETATM   12  H   UNL     1      20.694  -0.213  31.477  1.00  0.00     0.217 HD
ENDBRANCH   7  11
BRANCH   8  13
HETATM   13  O   UNL     1      21.322  -1.720  29.201  1.00  0.00    -0.358 OA
HETATM   14  H   UNL     1      21.853  -0.952  29.126  1.00  0.00     0.217 HD
ENDBRANCH   8  13
ENDBRANCH   4   5
ENDBRANCH   3   4
BRANCH   3  15
HETATM   15  C   UNL     1      23.169  -7.366  33.352  1.00  0.00     0.203 C 
HETATM   16  O   UNL     1      23.567  -7.466  34.646  1.00  0.00    -0.646 OA
HETATM   17  O   UNL     1      23.836  -7.784  32.415  1.00  0.00    -0.646 OA
ENDBRANCH   3  15
ENDBRANCH   1   3
TORSDOF 6
ENDMDL
MODEL 5
REMARK VINA RESULT:      -6.5      2.256      5.319
REMARK  6 active torsions:
REMARK  status: ('A' for Active; 'I' for Inactive)
REMARK    1  A    between atoms: O_1  and  C_8 
REMARK    2  A    between atoms: O_2  and  C_11 
REMARK    3  A    between atoms: O_3  and  C_13 
REMARK    4  A    between atoms: C_6  and  C_7 
REMARK    5  A    between atoms: C_6  and  C_8 
REMARK    6  A    between atoms: C_8  and  C_14 
ROOT
HETATM    1  O   UNL     1      20.450  -0.877  34.976  1.00  0.00    -0.385 OA
HETATM    2  H   UNL     1      20.763  -0.251  35.647  1.00  0.00     0.210 HD
ENDROOT
BRANCH   1   3
HETATM    3  C   UNL     1      21.464  -1.840  34.717  1.00  0.00     0.223 C 
BRANCH   3   4
HETATM    4  C   UNL     1      21.671  -1.934  33.196  1.00  0.00     0.081 C 
BRANCH   4   5
HETATM    5  C   UNL     1      21.704  -3.341  32.706  1.00  0.00    -0.052 A 
HETATM    6  C   UNL     1      22.175  -4.358  33.537  1.00  0.00     0.046 A 
HETATM    7  C   UNL     1      22.206  -5.676  33.078  1.00  0.00     0.099 A 
HETATM    8  C   UNL     1      21.767  -5.975  31.789  1.00  0.00     0.098 A 
HETATM    9  C   UNL     1      21.297  -4.958  30.958  1.00  0.00     0.040 A 
HETATM   10  C   UNL     1      21.265  -3.642  31.417  1.00  0.00     0.010 A 
BRANCH   7  11
HETATM   11  O   UNL     1      22.667  -6.660  33.898  1.00  0.00    -0.358 OA
HETATM   12  H   UNL     1      23.169  -6.439  34.658  1.00  0.00     0.217 HD
ENDBRANCH   7  11
BRANCH   8  13
HETATM   13  O   UNL     1      21.791  -7.258  31.330  1.00  0.00    -0.358 OA
HETATM   14  H   UNL     1      22.605  -7.719  31.270  1.00  0.00     0.217 HD
ENDBRANCH   8  13
ENDBRANCH   4   5
ENDBRANCH   3   4
BRANCH   3  15
HETATM   15  C   UNL     1      22.724  -1.377  35.419  1.00  0.00     0.203 C 
HETATM   16  O   UNL     1      22.507  -1.095  36.729  1.00  0.00    -0.646 OA
HETATM   17  O   UNL     1      23.817  -1.248  34.882  1.00  0.00    -0.646 OA
ENDBRANCH   3  15
ENDBRANCH   1   3
TORSDOF 6
ENDMDL
MODEL 6
REMARK VINA RESULT:      -6.5      2.830      5.187
REMARK  6 active torsions:
REMARK  status: ('A' for Active; 'I' for Inactive)
REMARK    1  A    between atoms: O_1  and  C_8 
REMARK    2  A    between atoms: O_2  and  C_11 
REMARK    3  A    between atoms: O_3  and  C_13 
REMARK    4  A    between atoms: C_6  and  C_7 
REMARK    5  A    between atoms: C_6  and  C_8 
REMARK    6  A    between atoms: C_8  and  C_14 
ROOT
HETATM    1  O   UNL     1      18.193  -4.291  29.228  1.00  0.00    -0.385 OA
HETATM    2  H   UNL     1      18.517  -5.185  29.038  1.00  0.00     0.210 HD
ENDROOT
BRANCH   1   3
HETATM    3  C   UNL     1      19.299  -3.424  29.449  1.00  0.00     0.223 C 
BRANCH   3   4
HETATM    4  C   UNL     1      20.511  -4.274  29.864  1.00  0.00     0.081 C 
BRANCH   4   5
HETATM    5  C   UNL     1      21.065  -3.876  31.189  1.00  0.00    -0.052 A 
HETATM    6  C   UNL     1      21.112  -2.530  31.550  1.00  0.00     0.046 A 
HETATM    7  C   UNL     1      21.632  -2.158  32.790  1.00  0.00     0.099 A 
HETATM    8  C   UNL     1      22.104  -3.132  33.668  1.00  0.00     0.098 A 
HETATM    9  C   UNL     1      22.059  -4.479  33.307  1.00  0.00     0.040 A 
HETATM   10  C   UNL     1      21.539  -4.851  32.067  1.00  0.00     0.010 A 
BRANCH   7  11
HETATM   11  O   UNL     1      21.671  -0.840  33.132  1.00  0.00    -0.358 OA
HETATM   12  H   UNL     1      21.345  -0.562  33.964  1.00  0.00     0.217 HD
ENDBRANCH   7  11
BRANCH   8  13
HETATM   13  O   UNL     1      22.613  -2.781  34.883  1.00  0.00    -0.358 OA
HETATM   14  H   UNL     1      22.648  -3.411  35.576  1.00  0.00     0.217 HD
ENDBRANCH   8  13
ENDBRANCH   4   5
ENDBRANCH   3   4
BRANCH   3  15
HETATM   15  C   UNL     1      19.562  -2.681  28.155  1.00  0.00     0.203 C 
HETATM   16  O   UNL     1      20.886  -2.617  27.861  1.00  0.00    -0.646 OA
HETATM   17  O   UNL     1      18.698  -2.174  27.451  1.00  0.00    -0.646 OA
ENDBRANCH   3  15
ENDBRANCH   1   3
TORSDOF 6
ENDMDL
MODEL 7
REMARK VINA RESULT:      -6.4      2.282      5.567
REMARK  6 active torsions:
REMARK  status: ('A' for Active; 'I' for Inactive)
REMARK    1  A    between atoms: O_1  and  C_8 
REMARK    2  A    between atoms: O_2  and  C_11 
REMARK    3  A    between atoms: O_3  and  C_13 
REMARK    4  A    between atoms: C_6  and  C_7 
REMARK    5  A    between atoms: C_6  and  C_8 
REMARK    6  A    between atoms: C_8  and  C_14 
ROOT
HETATM    1  O   UNL     1      18.344  -3.638  29.194  1.00  0.00    -0.385 OA
HETATM    2  H   UNL     1      18.596  -4.457  28.740  1.00  0.00     0.210 HD
ENDROOT
BRANCH   1   3
HETATM    3  C   UNL     1      19.473  -2.776  29.279  1.00  0.00     0.223 C 
BRANCH   3   4
HETATM    4  C   UNL     1      20.696  -3.614  29.687  1.00  0.00     0.081 C 
BRANCH   4   5
HETATM    5  C   UNL     1      21.115  -3.370  31.097  1.00  0.00    -0.052 A 
HETATM    6  C   UNL     1      21.678  -4.402  31.846  1.00  0.00     0.046 A 
HETATM    7  C   UNL     1      22.070  -4.174  33.166  1.00  0.00     0.099 A 
HETATM    8  C   UNL     1      21.897  -2.913  33.735  1.00  0.00     0.098 A 
HETATM    9  C   UNL     1      21.333  -1.880  32.986  1.00  0.00     0.040 A 
HETATM   10  C   UNL     1      20.943  -2.108  31.667  1.00  0.00     0.010 A 
BRANCH   7  11
HETATM   11  O   UNL     1      22.619  -5.190  33.887  1.00  0.00    -0.358 OA
HETATM   12  H   UNL     1      23.002  -5.017  34.724  1.00  0.00     0.217 HD
ENDBRANCH   7  11
BRANCH   8  13
HETATM   13  O   UNL     1      22.277  -2.677  35.023  1.00  0.00    -0.358 OA
HETATM   14  H   UNL     1      22.181  -3.348  35.670  1.00  0.00     0.217 HD
ENDBRANCH   8  13
ENDBRANCH   4   5
ENDBRANCH   3   4
BRANCH   3  15
HETATM   15  C   UNL     1      19.668  -2.142  27.917  1.00  0.00     0.203 C 
HETATM   16  O   UNL     1      20.970  -2.143  27.533  1.00  0.00    -0.646 OA
HETATM   17  O   UNL     1      18.772  -1.663  27.234  1.00  0.00    -0.646 OA
ENDBRANCH   3  15
ENDBRANCH   1   3
TORSDOF 6
ENDMDL
MODEL 8
REMARK VINA RESULT:      -6.4      0.949      1.181
REMARK  6 active torsions:
REMARK  status: ('A' for Active; 'I' for Inactive)
REMARK    1  A    between atoms: O_1  and  C_8 
REMARK    2  A    between atoms: O_2  and  C_11 
REMARK    3  A    between atoms: O_3  and  C_13 
REMARK    4  A    between atoms: C_6  and  C_7 
REMARK    5  A    between atoms: C_6  and  C_8 
REMARK    6  A    between atoms: C_8  and  C_14 
ROOT
HETATM    1  O   UNL     1      21.927  -7.600  31.593  1.00  0.00    -0.385 OA
HETATM    2  H   UNL     1      21.712  -7.165  30.753  1.00  0.00     0.210 HD
ENDROOT
BRANCH   1   3
HETATM    3  C   UNL     1      22.674  -6.708  32.412  1.00  0.00     0.223 C 
BRANCH   3   4
HETATM    4  C   UNL     1      21.690  -5.877  33.252  1.00  0.00     0.081 C 
BRANCH   4   5
HETATM    5  C   UNL     1      21.669  -4.440  32.858  1.00  0.00    -0.052 A 
HETATM    6  C   UNL     1      21.388  -4.082  31.539  1.00  0.00     0.046 A 
HETATM    7  C   UNL     1      21.370  -2.736  31.170  1.00  0.00     0.099 A 
HETATM    8  C   UNL     1      21.632  -1.749  32.120  1.00  0.00     0.098 A 
HETATM    9  C   UNL     1      21.914  -2.107  33.439  1.00  0.00     0.040 A 
HETATM   10  C   UNL     1      21.933  -3.452  33.807  1.00  0.00     0.010 A 
BRANCH   7  11
HETATM   11  O   UNL     1      21.093  -2.399  29.880  1.00  0.00    -0.358 OA
HETATM   12  H   UNL     1      20.997  -1.499  29.642  1.00  0.00     0.217 HD
ENDBRANCH   7  11
BRANCH   8  13
HETATM   13  O   UNL     1      21.616  -0.432  31.772  1.00  0.00    -0.358 OA
HETATM   14  H   UNL     1      22.286  -0.086  31.216  1.00  0.00     0.217 HD
ENDBRANCH   8  13
ENDBRANCH   4   5
ENDBRANCH   3   4
BRANCH   3  15
HETATM   15  C   UNL     1      23.581  -7.545  33.291  1.00  0.00     0.203 C 
HETATM   16  O   UNL     1      24.416  -8.330  32.563  1.00  0.00    -0.646 OA
HETATM   17  O   UNL     1      23.565  -7.542  34.514  1.00  0.00    -0.646 OA
ENDBRANCH   3  15
ENDBRANCH   1   3
TORSDOF 6
ENDMDL
MODEL 9
REMARK VINA RESULT:      -6.4      1.465      2.206
REMARK  6 active torsions:
REMARK  status: ('A' for Active; 'I' for Inactive)
REMARK    1  A    between atoms: O_1  and  C_8 
REMARK    2  A    between atoms: O_2  and  C_11 
REMARK    3  A    between atoms: O_3  and  C_13 
REMARK    4  A    between atoms: C_6  and  C_7 
REMARK    5  A    between atoms: C_6  and  C_8 
REMARK    6  A    between atoms: C_8  and  C_14 
ROOT
HETATM    1  O   UNL     1      21.335  -6.434  34.604  1.00  0.00    -0.385 OA
HETATM    2  H   UNL     1      20.385  -6.567  34.461  1.00  0.00     0.210 HD
ENDROOT
BRANCH   1   3
HETATM    3  C   UNL     1      21.986  -6.283  33.349  1.00  0.00     0.223 C 
BRANCH   3   4
HETATM    4  C   UNL     1      22.413  -4.813  33.194  1.00  0.00     0.081 C 
BRANCH   4   5
HETATM    5  C   UNL     1      21.543  -4.058  32.249  1.00  0.00    -0.052 A 
HETATM    6  C   UNL     1      20.954  -4.714  31.167  1.00  0.00     0.046 A 
HETATM    7  C   UNL     1      20.140  -4.007  30.282  1.00  0.00     0.099 A 
HETATM    8  C   UNL     1      19.915  -2.645  30.478  1.00  0.00     0.098 A 
HETATM    9  C   UNL     1      20.505  -1.989  31.559  1.00  0.00     0.040 A 
HETATM   10  C   UNL     1      21.319  -2.695  32.444  1.00  0.00     0.010 A 
BRANCH   7  11
HETATM   11  O   UNL     1      19.570  -4.658  29.231  1.00  0.00    -0.358 OA
HETATM   12  H   UNL     1      20.005  -5.391  28.843  1.00  0.00     0.217 HD
ENDBRANCH   7  11
BRANCH   8  13
HETATM   13  O   UNL     1      19.121  -1.944  29.621  1.00  0.00    -0.358 OA
HETATM   14  H   UNL     1      19.181  -2.094  28.698  1.00  0.00     0.217 HD
ENDBRANCH   8  13
ENDBRANCH   4   5
ENDBRANCH   3   4
BRANCH   3  15
HETATM   15  C   UNL     1      23.185  -7.210  33.341  1.00  0.00     0.203 C 
HETATM   16  O   UNL     1      23.628  -7.484  34.595  1.00  0.00    -0.646 OA
HETATM   17  O   UNL     1      23.717  -7.656  32.334  1.00  0.00    -0.646 OA
ENDBRANCH   3  15
ENDBRANCH   1   3
TORSDOF 6
ENDMDL
