MODEL 1
REMARK VINA RESULT:      -6.8      0.000      0.000
REMARK  6 active torsions:
REMARK  status: ('A' for Active; 'I' for Inactive)
REMARK    1  A    between atoms: O_1  and  C_8 
REMARK    2  A    between atoms: O_2  and  C_11 
REMARK    3  A    between atoms: O_3  and  C_13 
REMARK    4  A    between atoms: C_6  and  C_7 
REMARK    5  A    between atoms: C_6  and  C_8 
REMARK    6  A    between atoms: C_8  and  C_14 
ROOT
HETATM    1  O   UNL     1      11.424   6.943   8.999  1.00  0.00    -0.385 OA
HETATM    2  H   UNL     1      11.457   7.683   9.625  1.00  0.00     0.210 HD
ENDROOT
BRANCH   1   3
HETATM    3  C   UNL     1      12.666   6.249   9.021  1.00  0.00     0.223 C 
BRANCH   3   4
HETATM    4  C   UNL     1      12.619   5.199  10.144  1.00  0.00     0.081 C 
BRANCH   4   5
HETATM    5  C   UNL     1      12.937   5.774  11.482  1.00  0.00    -0.052 A 
HETATM    6  C   UNL     1      11.914   6.019  12.398  1.00  0.00     0.046 A 
HETATM    7  C   UNL     1      12.212   6.558  13.650  1.00  0.00     0.099 A 
HETATM    8  C   UNL     1      13.533   6.852  13.985  1.00  0.00     0.098 A 
HETATM    9  C   UNL     1      14.557   6.608  13.069  1.00  0.00     0.040 A 
HETATM   10  C   UNL     1      14.259   6.069  11.818  1.00  0.00     0.010 A 
BRANCH   7  11
HETATM   11  O   UNL     1      11.204   6.792  14.535  1.00  0.00    -0.358 OA
HETATM   12  H   UNL     1      11.362   6.716  15.455  1.00  0.00     0.217 HD
ENDBRANCH   7  11
BRANCH   8  13
HETATM   13  O   UNL     1      13.836   7.377  15.205  1.00  0.00    -0.358 OA
HETATM   14  H   UNL     1      14.389   8.132  15.267  1.00  0.00     0.217 HD
ENDBRANCH   8  13
ENDBRANCH   4   5
ENDBRANCH   3   4
BRANCH   3  15
HETATM   15  C   UNL     1      12.850   5.599   7.665  1.00  0.00     0.203 C 
HETATM   16  O   UNL     1      12.631   4.259   7.705  1.00  0.00    -0.646 OA
HETATM   17  O   UNL     1      13.176   6.191   6.645  1.00  0.00    -0.646 OA
ENDBRANCH   3  15
ENDBRANCH   1   3
TORSDOF 6
ENDMDL
MODEL 2
REMARK VINA RESULT:      -6.7      3.423      4.558
REMARK  6 active torsions:
REMARK  status: ('A' for Active; 'I' for Inactive)
REMARK    1  A    between atoms: O_1  and  C_8 
REMARK    2  A    between atoms: O_2  and  C_11 
REMARK    3  A    between atoms: O_3  and  C_13 
REMARK    4  A    between atoms: C_6  and  C_7 
REMARK    5  A    between atoms: C_6  and  C_8 
REMARK    6  A    between atoms: C_8  and  C_14 
ROOT
HETATM    1  O   UNL     1      18.519   5.241  11.703  1.00  0.00    -0.385 OA
HETATM    2  H   UNL     1      19.109   5.967  11.961  1.00  0.00     0.210 HD
ENDROOT
BRANCH   1   3
HETATM    3  C   UNL     1      17.418   5.764  10.969  1.00  0.00     0.223 C 
BRANCH   3   4
HETATM    4  C   UNL     1      16.453   6.444  11.954  1.00  0.00     0.081 C 
BRANCH   4   5
HETATM    5  C   UNL     1      15.031   6.065  11.719  1.00  0.00    -0.052 A 
HETATM    6  C   UNL     1      14.256   5.579  12.772  1.00  0.00     0.046 A 
HETATM    7  C   UNL     1      12.924   5.223  12.552  1.00  0.00     0.099 A 
HETATM    8  C   UNL     1      12.370   5.353  11.279  1.00  0.00     0.098 A 
HETATM    9  C   UNL     1      13.145   5.838  10.226  1.00  0.00     0.040 A 
HETATM   10  C   UNL     1      14.475   6.194  10.446  1.00  0.00     0.010 A 
BRANCH   7  11
HETATM   11  O   UNL     1      12.178   4.751  13.588  1.00  0.00    -0.358 OA
HETATM   12  H   UNL     1      12.100   3.828  13.727  1.00  0.00     0.217 HD
ENDBRANCH   7  11
BRANCH   8  13
HETATM   13  O   UNL     1      11.070   5.010  11.053  1.00  0.00    -0.358 OA
HETATM   14  H   UNL     1      10.494   4.852  11.775  1.00  0.00     0.217 HD
ENDBRANCH   8  13
ENDBRANCH   4   5
ENDBRANCH   3   4
BRANCH   3  15
HETATM   15  C   UNL     1      17.969   6.754   9.963  1.00  0.00     0.203 C 
HETATM   16  O   UNL     1      18.550   6.136   8.902  1.00  0.00    -0.646 OA
HETATM   17  O   UNL     1      17.922   7.971  10.081  1.00  0.00    -0.646 OA
ENDBRANCH   3  15
ENDBRANCH   1   3
TORSDOF 6
ENDMDL
MODEL 3
REMARK VINA RESULT:      -6.7      3.468      4.939
REMARK  6 active torsions:
REMARK  status: ('A' for Active; 'I' for Inactive)
REMARK    1  A    between atoms: O_1  and  C_8 
REMARK    2  A    between atoms: O_2  and  C_11 
REMARK    3  A    between atoms: O_3  and  C_13 
REMARK    4  A    between atoms: C_6  and  C_7 
REMARK    5  A    between atoms: C_6  and  C_8 
REMARK    6  A    between atoms: C_8  and  C_14 
ROOT
HETATM    1  O   UNL     1      17.773   6.356  12.522  1.00  0.00    -0.385 OA
HETATM    2  H   UNL     1      18.212   5.648  13.018  1.00  0.00     0.210 HD
ENDROOT
BRANCH   1   3
HETATM    3  C   UNL     1      17.281   5.837  11.292  1.00  0.00     0.223 C 
BRANCH   3   4
HETATM    4  C   UNL     1      16.217   6.804  10.745  1.00  0.00     0.081 C 
BRANCH   4   5
HETATM    5  C   UNL     1      14.833   6.267  10.874  1.00  0.00    -0.052 A 
HETATM    6  C   UNL     1      14.037   6.107   9.739  1.00  0.00     0.046 A 
HETATM    7  C   UNL     1      12.741   5.605   9.861  1.00  0.00     0.099 A 
HETATM    8  C   UNL     1      12.241   5.264  11.117  1.00  0.00     0.098 A 
HETATM    9  C   UNL     1      13.036   5.425  12.252  1.00  0.00     0.040 A 
HETATM   10  C   UNL     1      14.331   5.926  12.131  1.00  0.00     0.010 A 
BRANCH   7  11
HETATM   11  O   UNL     1      11.975   5.453   8.746  1.00  0.00    -0.358 OA
HETATM   12  H   UNL     1      11.774   6.195   8.211  1.00  0.00     0.217 HD
ENDBRANCH   7  11
BRANCH   8  13
HETATM   13  O   UNL     1      10.977   4.772  11.248  1.00  0.00    -0.358 OA
HETATM   14  H   UNL     1      10.844   3.857  11.401  1.00  0.00     0.217 HD
ENDBRANCH   8  13
ENDBRANCH   4   5
ENDBRANCH   3   4
BRANCH   3  15
HETATM   15  C   UNL     1      18.457   5.717  10.344  1.00  0.00     0.203 C 
HETATM   16  O   UNL     1      19.465   4.976  10.871  1.00  0.00    -0.646 OA
HETATM   17  O   UNL     1      18.519   6.234   9.237  1.00  0.00    -0.646 OA
ENDBRANCH   3  15
ENDBRANCH   1   3
TORSDOF 6
ENDMDL
MODEL 4
REMARK VINA RESULT:      -6.6      3.405      5.038
REMARK  6 active torsions:
REMARK  status: ('A' for Active; 'I' for Inactive)
REMARK    1  A    between atoms: O_1  and  C_8 
REMARK    2  A    between atoms: O_2  and  C_11 
REMARK    3  A    between atoms: O_3  and  C_13 
REMARK    4  A    between atoms: C_6  and  C_7 
REMARK    5  A    between atoms: C_6  and  C_8 
REMARK    6  A    between atoms: C_8  and  C_14 
ROOT
HETATM    1  O   UNL     1      18.475   5.331  11.921  1.00  0.00    -0.385 OA
HETATM    2  H   UNL     1      18.182   4.526  12.376  1.00  0.00     0.210 HD
ENDROOT
BRANCH   1   3
HETATM    3  C   UNL     1      17.472   5.747  11.002  1.00  0.00     0.223 C 
BRANCH   3   4
HETATM    4  C   UNL     1      16.420   6.568  11.766  1.00  0.00     0.081 C 
BRANCH   4   5
HETATM    5  C   UNL     1      15.024   6.182  11.415  1.00  0.00    -0.052 A 
HETATM    6  C   UNL     1      14.603   6.220  10.086  1.00  0.00     0.046 A 
HETATM    7  C   UNL     1      13.295   5.859   9.758  1.00  0.00     0.099 A 
HETATM    8  C   UNL     1      12.410   5.462  10.759  1.00  0.00     0.098 A 
HETATM    9  C   UNL     1      12.831   5.425  12.089  1.00  0.00     0.040 A 
HETATM   10  C   UNL     1      14.137   5.785  12.416  1.00  0.00     0.010 A 
BRANCH   7  11
HETATM   11  O   UNL     1      12.897   5.899   8.457  1.00  0.00    -0.358 OA
HETATM   12  H   UNL     1      11.989   5.994   8.248  1.00  0.00     0.217 HD
ENDBRANCH   7  11
BRANCH   8  13
HETATM   13  O   UNL     1      11.131   5.106  10.450  1.00  0.00    -0.358 OA
HETATM   14  H   UNL     1      10.869   4.208  10.503  1.00  0.00     0.217 HD
ENDBRANCH   8  13
ENDBRANCH   4   5
ENDBRANCH   3   4
BRANCH   3  15
HETATM   15  C   UNL     1      18.150   6.577   9.931  1.00  0.00     0.203 C 
HETATM   16  O   UNL     1      18.203   7.893  10.261  1.00  0.00    -0.646 OA
HETATM   17  O   UNL     1      18.588   6.136   8.877  1.00  0.00    -0.646 OA
ENDBRANCH   3  15
ENDBRANCH   1   3
TORSDOF 6
ENDMDL
MODEL 5
REMARK VINA RESULT:      -6.6      2.963      3.926
REMARK  6 active torsions:
REMARK  status: ('A' for Active; 'I' for Inactive)
REMARK    1  A    between atoms: O_1  and  C_8 
REMARK    2  A    between atoms: O_2  and  C_11 
REMARK    3  A    between atoms: O_3  and  C_13 
REMARK    4  A    between atoms: C_6  and  C_7 
REMARK    5  A    between atoms: C_6  and  C_8 
REMARK    6  A    between atoms: C_8  and  C_14 
ROOT
HETATM    1  O   UNL     1      16.737   7.908   9.607  1.00  0.00    -0.385 OA
HETATM    2  H   UNL     1      17.457   8.499   9.877  1.00  0.00     0.210 HD
ENDROOT
BRANCH   1   3
HETATM    3  C   UNL     1      16.586   6.874  10.572  1.00  0.00     0.223 C 
BRANCH   3   4
HETATM    4  C   UNL     1      15.301   6.091  10.252  1.00  0.00     0.081 C 
BRANCH   4   5
HETATM    5  C   UNL     1      14.262   6.236  11.311  1.00  0.00    -0.052 A 
HETATM    6  C   UNL     1      14.635   6.548  12.618  1.00  0.00     0.046 A 
HETATM    7  C   UNL     1      13.662   6.683  13.609  1.00  0.00     0.099 A 
HETATM    8  C   UNL     1      12.316   6.505  13.291  1.00  0.00     0.098 A 
HETATM    9  C   UNL     1      11.942   6.191  11.984  1.00  0.00     0.040 A 
HETATM   10  C   UNL     1      12.915   6.057  10.994  1.00  0.00     0.010 A 
BRANCH   7  11
HETATM   11  O   UNL     1      14.039   6.989  14.880  1.00  0.00    -0.358 OA
HETATM   12  H   UNL     1      13.943   6.355  15.563  1.00  0.00     0.217 HD
ENDBRANCH   7  11
BRANCH   8  13
HETATM   13  O   UNL     1      11.356   6.635  14.250  1.00  0.00    -0.358 OA
HETATM   14  H   UNL     1      10.732   7.333  14.197  1.00  0.00     0.217 HD
ENDBRANCH   8  13
ENDBRANCH   4   5
ENDBRANCH   3   4
BRANCH   3  15
HETATM   15  C   UNL     1      17.810   5.986  10.485  1.00  0.00     0.203 C 
HETATM   16  O   UNL     1      18.301   5.912   9.221  1.00  0.00    -0.646 OA
HETATM   17  O   UNL     1      18.304   5.382  11.428  1.00  0.00    -0.646 OA
ENDBRANCH   3  15
ENDBRANCH   1   3
TORSDOF 6
ENDMDL
MODEL 6
REMARK VINA RESULT:      -6.5      3.388      4.041
REMARK  6 active torsions:
REMARK  status: ('A' for Active; 'I' for Inactive)
REMARK    1  A    between atoms: O_1  and  C_8 
REMARK    2  A    between atoms: O_2  and  C_11 
REMARK    3  A    between atoms: O_3  and  C_13 
REMARK    4  A    between atoms: C_6  and  C_7 
REMARK    5  A    between atoms: C_6  and  C_8 
REMARK    6  A    between atoms: C_8  and  C_14 
ROOT
HETATM    1  O   UNL     1      17.149   8.322   9.977  1.00  0.00    -0.385 OA
HETATM    2  H   UNL     1      16.978   8.993  10.655  1.00  0.00     0.210 HD
ENDROOT
BRANCH   1   3
HETATM    3  C   UNL     1      16.883   7.030  10.511  1.00  0.00     0.223 C 
BRANCH   3   4
HETATM    4  C   UNL     1      15.557   6.522   9.922  1.00  0.00     0.081 C 
BRANCH   4   5
HETATM    5  C   UNL     1      14.603   6.060  10.970  1.00  0.00    -0.052 A 
HETATM    6  C   UNL     1      13.301   5.701  10.620  1.00  0.00     0.046 A 
HETATM    7  C   UNL     1      12.408   5.270  11.601  1.00  0.00     0.099 A 
HETATM    8  C   UNL     1      12.817   5.197  12.932  1.00  0.00     0.098 A 
HETATM    9  C   UNL     1      14.119   5.556  13.283  1.00  0.00     0.040 A 
HETATM   10  C   UNL     1      15.011   5.988  12.302  1.00  0.00     0.010 A 
BRANCH   7  11
HETATM   11  O   UNL     1      11.141   4.922  11.246  1.00  0.00    -0.358 OA
HETATM   12  H   UNL     1      10.499   5.586  11.089  1.00  0.00     0.217 HD
ENDBRANCH   7  11
BRANCH   8  13
HETATM   13  O   UNL     1      11.954   4.776  13.899  1.00  0.00    -0.358 OA
HETATM   14  H   UNL     1      11.098   4.476  13.665  1.00  0.00     0.217 HD
ENDBRANCH   8  13
ENDBRANCH   4   5
ENDBRANCH   3   4
BRANCH   3  15
HETATM   15  C   UNL     1      18.040   6.130  10.126  1.00  0.00     0.203 C 
HETATM   16  O   UNL     1      18.427   5.328  11.150  1.00  0.00    -0.646 OA
HETATM   17  O   UNL     1      18.587   6.124   9.031  1.00  0.00    -0.646 OA
ENDBRANCH   3  15
ENDBRANCH   1   3
TORSDOF 6
ENDMDL
MODEL 7
REMARK VINA RESULT:      -6.5      1.150      2.024
REMARK  6 active torsions:
REMARK  status: ('A' for Active; 'I' for Inactive)
REMARK    1  A    between atoms: O_1  and  C_8 
REMARK    2  A    between atoms: O_2  and  C_11 
REMARK    3  A    between atoms: O_3  and  C_13 
REMARK    4  A    between atoms: C_6  and  C_7 
REMARK    5  A    between atoms: C_6  and  C_8 
REMARK    6  A    between atoms: C_8  and  C_14 
ROOT
HETATM    1  O   UNL     1      11.914   4.487   8.881  1.00  0.00    -0.385 OA
HETATM    2  H   UNL     1      11.613   4.240   9.770  1.00  0.00     0.210 HD
ENDROOT
BRANCH   1   3
HETATM    3  C   UNL     1      12.387   5.828   8.898  1.00  0.00     0.223 C 
BRANCH   3   4
HETATM    4  C   UNL     1      13.688   5.877   9.717  1.00  0.00     0.081 C 
BRANCH   4   5
HETATM    5  C   UNL     1      13.443   6.092  11.172  1.00  0.00    -0.052 A 
HETATM    6  C   UNL     1      14.511   6.074  12.069  1.00  0.00     0.046 A 
HETATM    7  C   UNL     1      14.281   6.275  13.431  1.00  0.00     0.099 A 
HETATM    8  C   UNL     1      12.984   6.493  13.894  1.00  0.00     0.098 A 
HETATM    9  C   UNL     1      11.916   6.510  12.997  1.00  0.00     0.040 A 
HETATM   10  C   UNL     1      12.146   6.310  11.636  1.00  0.00     0.010 A 
BRANCH   7  11
HETATM   11  O   UNL     1      15.332   6.256  14.296  1.00  0.00    -0.358 OA
HETATM   12  H   UNL     1      15.677   7.059  14.631  1.00  0.00     0.217 HD
ENDBRANCH   7  11
BRANCH   8  13
HETATM   13  O   UNL     1      12.748   6.692  15.221  1.00  0.00    -0.358 OA
HETATM   14  H   UNL     1      13.236   6.211  15.861  1.00  0.00     0.217 HD
ENDBRANCH   8  13
ENDBRANCH   4   5
ENDBRANCH   3   4
BRANCH   3  15
HETATM   15  C   UNL     1      12.623   6.247   7.461  1.00  0.00     0.203 C 
HETATM   16  O   UNL     1      11.576   5.932   6.657  1.00  0.00    -0.646 OA
HETATM   17  O   UNL     1      13.640   6.791   7.049  1.00  0.00    -0.646 OA
ENDBRANCH   3  15
ENDBRANCH   1   3
TORSDOF 6
ENDMDL
MODEL 8
REMARK VINA RESULT:      -6.4      1.500      2.236
REMARK  6 active torsions:
REMARK  status: ('A' for Active; 'I' for Inactive)
REMARK    1  A    between atoms: O_1  and  C_8 
REMARK    2  A    between atoms: O_2  and  C_11 
REMARK    3  A    between atoms: O_3  and  C_13 
REMARK    4  A    between atoms: C_6  and  C_7 
REMARK    5  A    between atoms: C_6  and  C_8 
REMARK    6  A    between atoms: C_8  and  C_14 
ROOT
HETATM    1  O   UNL     1      11.540   4.685  10.164  1.00  0.00    -0.385 OA
HETATM    2  H   UNL     1      11.265   4.473  11.069  1.00  0.00     0.210 HD
ENDROOT
BRANCH   1   3
HETATM    3  C   UNL     1      12.287   5.895  10.167  1.00  0.00     0.223 C 
BRANCH   3   4
HETATM    4  C   UNL     1      13.487   5.726  11.114  1.00  0.00     0.081 C 
BRANCH   4   5
HETATM    5  C   UNL     1      13.142   6.005  12.536  1.00  0.00    -0.052 A 
HETATM    6  C   UNL     1      14.015   5.624  13.555  1.00  0.00     0.046 A 
HETATM    7  C   UNL     1      13.691   5.885  14.886  1.00  0.00     0.099 A 
HETATM    8  C   UNL     1      12.493   6.527  15.199  1.00  0.00     0.098 A 
HETATM    9  C   UNL     1      11.619   6.907  14.181  1.00  0.00     0.040 A 
HETATM   10  C   UNL     1      11.943   6.646  12.850  1.00  0.00     0.010 A 
BRANCH   7  11
HETATM   11  O   UNL     1      14.552   5.509  15.871  1.00  0.00    -0.358 OA
HETATM   12  H   UNL     1      14.652   6.042  16.635  1.00  0.00     0.217 HD
ENDBRANCH   7  11
BRANCH   8  13
HETATM   13  O   UNL     1      12.166   6.788  16.496  1.00  0.00    -0.358 OA
HETATM   14  H   UNL     1      11.555   6.237  16.945  1.00  0.00     0.217 HD
ENDBRANCH   8  13
ENDBRANCH   4   5
ENDBRANCH   3   4
BRANCH   3  15
HETATM   15  C   UNL     1      12.738   6.158   8.745  1.00  0.00     0.203 C 
HETATM   16  O   UNL     1      14.058   5.895   8.569  1.00  0.00    -0.646 OA
HETATM   17  O   UNL     1      12.017   6.576   7.849  1.00  0.00    -0.646 OA
ENDBRANCH   3  15
ENDBRANCH   1   3
TORSDOF 6
ENDMDL
MODEL 9
REMARK VINA RESULT:      -6.4      1.953      5.752
REMARK  6 active torsions:
REMARK  status: ('A' for Active; 'I' for Inactive)
REMARK    1  A    between atoms: O_1  and  C_8 
REMARK    2  A    between atoms: O_2  and  C_11 
REMARK    3  A    between atoms: O_3  and  C_13 
REMARK    4  A    between atoms: C_6  and  C_7 
REMARK    5  A    between atoms: C_6  and  C_8 
REMARK    6  A    between atoms: C_8  and  C_14 
ROOT
HETATM    1  O   UNL     1      11.943   4.606  14.940  1.00  0.00    -0.385 OA
HETATM    2  H   UNL     1      12.173   4.774  15.867  1.00  0.00     0.210 HD
ENDROOT
BRANCH   1   3
HETATM    3  C   UNL     1      13.061   4.905  14.112  1.00  0.00     0.223 C 
BRANCH   3   4
HETATM    4  C   UNL     1      12.787   6.230  13.382  1.00  0.00     0.081 C 
BRANCH   4   5
HETATM    5  C   UNL     1      13.058   6.146  11.918  1.00  0.00    -0.052 A 
HETATM    6  C   UNL     1      14.372   6.161  11.450  1.00  0.00     0.046 A 
HETATM    7  C   UNL     1      14.625   6.083  10.080  1.00  0.00     0.099 A 
HETATM    8  C   UNL     1      13.564   5.990   9.179  1.00  0.00     0.098 A 
HETATM    9  C   UNL     1      12.250   5.976   9.648  1.00  0.00     0.040 A 
HETATM   10  C   UNL     1      11.998   6.054  11.017  1.00  0.00     0.010 A 
BRANCH   7  11
HETATM   11  O   UNL     1      15.912   6.098   9.635  1.00  0.00    -0.358 OA
HETATM   12  H   UNL     1      16.194   6.764   9.039  1.00  0.00     0.217 HD
ENDBRANCH   7  11
BRANCH   8  13
HETATM   13  O   UNL     1      13.799   5.912   7.839  1.00  0.00    -0.358 OA
HETATM   14  H   UNL     1      13.230   6.350   7.237  1.00  0.00     0.217 HD
ENDBRANCH   8  13
ENDBRANCH   4   5
ENDBRANCH   3   4
BRANCH   3  15
HETATM   15  C   UNL     1      14.278   5.009  15.009  1.00  0.00     0.203 C 
HETATM   16  O   UNL     1      14.610   6.298  15.273  1.00  0.00    -0.646 OA
HETATM   17  O   UNL     1      14.912   4.055  15.440  1.00  0.00    -0.646 OA
ENDBRANCH   3  15
ENDBRANCH   1   3
TORSDOF 6
ENDMDL
