MODEL 1
REMARK VINA RESULT:      -6.8      0.000      0.000
REMARK  6 active torsions:
REMARK  status: ('A' for Active; 'I' for Inactive)
REMARK    1  A    between atoms: O_1  and  C_8 
REMARK    2  A    between atoms: O_2  and  C_11 
REMARK    3  A    between atoms: O_3  and  C_13 
REMARK    4  A    between atoms: C_6  and  C_7 
REMARK    5  A    between atoms: C_6  and  C_8 
REMARK    6  A    between atoms: C_8  and  C_14 
ROOT
HETATM    1  O   UNL     1      11.414   6.928   9.004  1.00  0.00    -0.385 OA
HETATM    2  H   UNL     1      10.695   6.276   9.022  1.00  0.00     0.210 HD
ENDROOT
BRANCH   1   3
HETATM    3  C   UNL     1      12.666   6.253   9.026  1.00  0.00     0.223 C 
BRANCH   3   4
HETATM    4  C   UNL     1      12.632   5.198  10.145  1.00  0.00     0.081 C 
BRANCH   4   5
HETATM    5  C   UNL     1      12.947   5.771  11.484  1.00  0.00    -0.052 A 
HETATM    6  C   UNL     1      11.920   6.025  12.394  1.00  0.00     0.046 A 
HETATM    7  C   UNL     1      12.215   6.562  13.647  1.00  0.00     0.099 A 
HETATM    8  C   UNL     1      13.537   6.845  13.990  1.00  0.00     0.098 A 
HETATM    9  C   UNL     1      14.564   6.593  13.081  1.00  0.00     0.040 A 
HETATM   10  C   UNL     1      14.269   6.056  11.828  1.00  0.00     0.010 A 
BRANCH   7  11
HETATM   11  O   UNL     1      11.204   6.804  14.526  1.00  0.00    -0.358 OA
HETATM   12  H   UNL     1      10.765   6.089  14.944  1.00  0.00     0.217 HD
ENDBRANCH   7  11
BRANCH   8  13
HETATM   13  O   UNL     1      13.837   7.368  15.212  1.00  0.00    -0.358 OA
HETATM   14  H   UNL     1      14.684   7.736  15.369  1.00  0.00     0.217 HD
ENDBRANCH   8  13
ENDBRANCH   4   5
ENDBRANCH   3   4
BRANCH   3  15
HETATM   15  C   UNL     1      12.863   5.611   7.668  1.00  0.00     0.203 C 
HETATM   16  O   UNL     1      12.652   4.270   7.699  1.00  0.00    -0.646 OA
HETATM   17  O   UNL     1      13.192   6.210   6.652  1.00  0.00    -0.646 OA
ENDBRANCH   3  15
ENDBRANCH   1   3
TORSDOF 6
ENDMDL
MODEL 2
REMARK VINA RESULT:      -6.7      3.424      4.555
REMARK  6 active torsions:
REMARK  status: ('A' for Active; 'I' for Inactive)
REMARK    1  A    between atoms: O_1  and  C_8 
REMARK    2  A    between atoms: O_2  and  C_11 
REMARK    3  A    between atoms: O_3  and  C_13 
REMARK    4  A    between atoms: C_6  and  C_7 
REMARK    5  A    between atoms: C_6  and  C_8 
REMARK    6  A    between atoms: C_8  and  C_14 
ROOT
HETATM    1  O   UNL     1      18.485   5.211  11.716  1.00  0.00    -0.385 OA
HETATM    2  H   UNL     1      18.559   5.673  12.565  1.00  0.00     0.210 HD
ENDROOT
BRANCH   1   3
HETATM    3  C   UNL     1      17.405   5.761  10.970  1.00  0.00     0.223 C 
BRANCH   3   4
HETATM    4  C   UNL     1      16.441   6.454  11.947  1.00  0.00     0.081 C 
BRANCH   4   5
HETATM    5  C   UNL     1      15.019   6.070  11.720  1.00  0.00    -0.052 A 
HETATM    6  C   UNL     1      14.252   5.576  12.776  1.00  0.00     0.046 A 
HETATM    7  C   UNL     1      12.921   5.216  12.563  1.00  0.00     0.099 A 
HETATM    8  C   UNL     1      12.357   5.350  11.295  1.00  0.00     0.098 A 
HETATM    9  C   UNL     1      13.123   5.843  10.239  1.00  0.00     0.040 A 
HETATM   10  C   UNL     1      14.454   6.203  10.451  1.00  0.00     0.010 A 
BRANCH   7  11
HETATM   11  O   UNL     1      12.184   4.736  13.602  1.00  0.00    -0.358 OA
HETATM   12  H   UNL     1      11.267   4.578  13.492  1.00  0.00     0.217 HD
ENDBRANCH   7  11
BRANCH   8  13
HETATM   13  O   UNL     1      11.058   5.002  11.076  1.00  0.00    -0.358 OA
HETATM   14  H   UNL     1      10.423   5.108  11.757  1.00  0.00     0.217 HD
ENDBRANCH   8  13
ENDBRANCH   4   5
ENDBRANCH   3   4
BRANCH   3  15
HETATM   15  C   UNL     1      17.990   6.745   9.978  1.00  0.00     0.203 C 
HETATM   16  O   UNL     1      18.548   6.123   8.908  1.00  0.00    -0.646 OA
HETATM   17  O   UNL     1      17.986   7.961  10.114  1.00  0.00    -0.646 OA
ENDBRANCH   3  15
ENDBRANCH   1   3
TORSDOF 6
ENDMDL
MODEL 3
REMARK VINA RESULT:      -6.7      2.336      3.232
REMARK  6 active torsions:
REMARK  status: ('A' for Active; 'I' for Inactive)
REMARK    1  A    between atoms: O_1  and  C_8 
REMARK    2  A    between atoms: O_2  and  C_11 
REMARK    3  A    between atoms: O_3  and  C_13 
REMARK    4  A    between atoms: C_6  and  C_7 
REMARK    5  A    between atoms: C_6  and  C_8 
REMARK    6  A    between atoms: C_8  and  C_14 
ROOT
HETATM    1  O   UNL     1      11.173   7.239   8.567  1.00  0.00    -0.385 OA
HETATM    2  H   UNL     1      10.974   7.399   7.631  1.00  0.00     0.210 HD
ENDROOT
BRANCH   1   3
HETATM    3  C   UNL     1      12.379   6.492   8.674  1.00  0.00     0.223 C 
BRANCH   3   4
HETATM    4  C   UNL     1      12.408   5.805  10.049  1.00  0.00     0.081 C 
BRANCH   4   5
HETATM    5  C   UNL     1      13.739   5.902  10.712  1.00  0.00    -0.052 A 
HETATM    6  C   UNL     1      14.888   6.098   9.946  1.00  0.00     0.046 A 
HETATM    7  C   UNL     1      16.134   6.188  10.567  1.00  0.00     0.099 A 
HETATM    8  C   UNL     1      16.231   6.083  11.954  1.00  0.00     0.098 A 
HETATM    9  C   UNL     1      15.082   5.887  12.721  1.00  0.00     0.040 A 
HETATM   10  C   UNL     1      13.836   5.796  12.100  1.00  0.00     0.010 A 
BRANCH   7  11
HETATM   11  O   UNL     1      17.248   6.380   9.808  1.00  0.00    -0.358 OA
HETATM   12  H   UNL     1      17.591   7.243   9.689  1.00  0.00     0.217 HD
ENDBRANCH   7  11
BRANCH   8  13
HETATM   13  O   UNL     1      17.442   6.171  12.572  1.00  0.00    -0.358 OA
HETATM   14  H   UNL     1      17.488   6.341  13.492  1.00  0.00     0.217 HD
ENDBRANCH   8  13
ENDBRANCH   4   5
ENDBRANCH   3   4
BRANCH   3  15
HETATM   15  C   UNL     1      12.389   5.477   7.549  1.00  0.00     0.203 C 
HETATM   16  O   UNL     1      12.050   6.031   6.357  1.00  0.00    -0.646 OA
HETATM   17  O   UNL     1      12.652   4.289   7.681  1.00  0.00    -0.646 OA
ENDBRANCH   3  15
ENDBRANCH   1   3
TORSDOF 6
ENDMDL
MODEL 4
REMARK VINA RESULT:      -6.6      3.447      4.932
REMARK  6 active torsions:
REMARK  status: ('A' for Active; 'I' for Inactive)
REMARK    1  A    between atoms: O_1  and  C_8 
REMARK    2  A    between atoms: O_2  and  C_11 
REMARK    3  A    between atoms: O_3  and  C_13 
REMARK    4  A    between atoms: C_6  and  C_7 
REMARK    5  A    between atoms: C_6  and  C_8 
REMARK    6  A    between atoms: C_8  and  C_14 
ROOT
HETATM    1  O   UNL     1      17.695   6.136  12.535  1.00  0.00    -0.385 OA
HETATM    2  H   UNL     1      18.025   5.349  12.994  1.00  0.00     0.210 HD
ENDROOT
BRANCH   1   3
HETATM    3  C   UNL     1      17.232   5.771  11.241  1.00  0.00     0.223 C 
BRANCH   3   4
HETATM    4  C   UNL     1      16.181   6.799  10.789  1.00  0.00     0.081 C 
BRANCH   4   5
HETATM    5  C   UNL     1      14.788   6.277  10.889  1.00  0.00    -0.052 A 
HETATM    6  C   UNL     1      14.039   6.064   9.732  1.00  0.00     0.046 A 
HETATM    7  C   UNL     1      12.735   5.576   9.825  1.00  0.00     0.099 A 
HETATM    8  C   UNL     1      12.181   5.303  11.075  1.00  0.00     0.098 A 
HETATM    9  C   UNL     1      12.930   5.517  12.232  1.00  0.00     0.040 A 
HETATM   10  C   UNL     1      14.233   6.004  12.139  1.00  0.00     0.010 A 
BRANCH   7  11
HETATM   11  O   UNL     1      12.014   5.371   8.688  1.00  0.00    -0.358 OA
HETATM   12  H   UNL     1      11.612   6.095   8.252  1.00  0.00     0.217 HD
ENDBRANCH   7  11
BRANCH   8  13
HETATM   13  O   UNL     1      10.909   4.825  11.179  1.00  0.00    -0.358 OA
HETATM   14  H   UNL     1      10.303   5.229  11.769  1.00  0.00     0.217 HD
ENDBRANCH   8  13
ENDBRANCH   4   5
ENDBRANCH   3   4
BRANCH   3  15
HETATM   15  C   UNL     1      18.431   5.763  10.313  1.00  0.00     0.203 C 
HETATM   16  O   UNL     1      19.470   5.057  10.826  1.00  0.00    -0.646 OA
HETATM   17  O   UNL     1      18.482   6.335   9.233  1.00  0.00    -0.646 OA
ENDBRANCH   3  15
ENDBRANCH   1   3
TORSDOF 6
ENDMDL
MODEL 5
REMARK VINA RESULT:      -6.6      3.410      5.020
REMARK  6 active torsions:
REMARK  status: ('A' for Active; 'I' for Inactive)
REMARK    1  A    between atoms: O_1  and  C_8 
REMARK    2  A    between atoms: O_2  and  C_11 
REMARK    3  A    between atoms: O_3  and  C_13 
REMARK    4  A    between atoms: C_6  and  C_7 
REMARK    5  A    between atoms: C_6  and  C_8 
REMARK    6  A    between atoms: C_8  and  C_14 
ROOT
HETATM    1  O   UNL     1      18.505   5.317  11.790  1.00  0.00    -0.385 OA
HETATM    2  H   UNL     1      18.463   5.762  12.651  1.00  0.00     0.210 HD
ENDROOT
BRANCH   1   3
HETATM    3  C   UNL     1      17.482   5.827  10.943  1.00  0.00     0.223 C 
BRANCH   3   4
HETATM    4  C   UNL     1      16.427   6.526  11.817  1.00  0.00     0.081 C 
BRANCH   4   5
HETATM    5  C   UNL     1      15.033   6.160  11.438  1.00  0.00    -0.052 A 
HETATM    6  C   UNL     1      14.638   6.204  10.101  1.00  0.00     0.046 A 
HETATM    7  C   UNL     1      13.333   5.862   9.747  1.00  0.00     0.099 A 
HETATM    8  C   UNL     1      12.423   5.476  10.731  1.00  0.00     0.098 A 
HETATM    9  C   UNL     1      12.817   5.432  12.068  1.00  0.00     0.040 A 
HETATM   10  C   UNL     1      14.122   5.774  12.422  1.00  0.00     0.010 A 
BRANCH   7  11
HETATM   11  O   UNL     1      12.960   5.909   8.439  1.00  0.00    -0.358 OA
HETATM   12  H   UNL     1      13.207   6.639   7.907  1.00  0.00     0.217 HD
ENDBRANCH   7  11
BRANCH   8  13
HETATM   13  O   UNL     1      11.146   5.138  10.397  1.00  0.00    -0.358 OA
HETATM   14  H   UNL     1      10.569   5.783  10.036  1.00  0.00     0.217 HD
ENDBRANCH   8  13
ENDBRANCH   4   5
ENDBRANCH   3   4
BRANCH   3  15
HETATM   15  C   UNL     1      18.131   6.797   9.977  1.00  0.00     0.203 C 
HETATM   16  O   UNL     1      18.619   6.173   8.875  1.00  0.00    -0.646 OA
HETATM   17  O   UNL     1      18.230   8.003  10.159  1.00  0.00    -0.646 OA
ENDBRANCH   3  15
ENDBRANCH   1   3
TORSDOF 6
ENDMDL
MODEL 6
REMARK VINA RESULT:      -6.6      3.382      4.101
REMARK  6 active torsions:
REMARK  status: ('A' for Active; 'I' for Inactive)
REMARK    1  A    between atoms: O_1  and  C_8 
REMARK    2  A    between atoms: O_2  and  C_11 
REMARK    3  A    between atoms: O_3  and  C_13 
REMARK    4  A    between atoms: C_6  and  C_7 
REMARK    5  A    between atoms: C_6  and  C_8 
REMARK    6  A    between atoms: C_8  and  C_14 
ROOT
HETATM    1  O   UNL     1      17.280   8.240   9.980  1.00  0.00    -0.385 OA
HETATM    2  H   UNL     1      16.721   8.405   9.205  1.00  0.00     0.210 HD
ENDROOT
BRANCH   1   3
HETATM    3  C   UNL     1      16.938   6.984  10.553  1.00  0.00     0.223 C 
BRANCH   3   4
HETATM    4  C   UNL     1      15.598   6.523   9.956  1.00  0.00     0.081 C 
BRANCH   4   5
HETATM    5  C   UNL     1      14.633   6.065  10.995  1.00  0.00    -0.052 A 
HETATM    6  C   UNL     1      13.330   5.720  10.635  1.00  0.00     0.046 A 
HETATM    7  C   UNL     1      12.427   5.291  11.608  1.00  0.00     0.099 A 
HETATM    8  C   UNL     1      12.828   5.207  12.941  1.00  0.00     0.098 A 
HETATM    9  C   UNL     1      14.130   5.553  13.302  1.00  0.00     0.040 A 
HETATM   10  C   UNL     1      15.032   5.981  12.329  1.00  0.00     0.010 A 
BRANCH   7  11
HETATM   11  O   UNL     1      11.159   4.956  11.244  1.00  0.00    -0.358 OA
HETATM   12  H   UNL     1      11.000   4.560  10.410  1.00  0.00     0.217 HD
ENDBRANCH   7  11
BRANCH   8  13
HETATM   13  O   UNL     1      11.955   4.788  13.901  1.00  0.00    -0.358 OA
HETATM   14  H   UNL     1      11.074   4.567  13.669  1.00  0.00     0.217 HD
ENDBRANCH   8  13
ENDBRANCH   4   5
ENDBRANCH   3   4
BRANCH   3  15
HETATM   15  C   UNL     1      18.053   6.013  10.222  1.00  0.00     0.203 C 
HETATM   16  O   UNL     1      18.328   5.983   8.893  1.00  0.00    -0.646 OA
HETATM   17  O   UNL     1      18.637   5.314  11.040  1.00  0.00    -0.646 OA
ENDBRANCH   3  15
ENDBRANCH   1   3
TORSDOF 6
ENDMDL
MODEL 7
REMARK VINA RESULT:      -6.6      2.957      3.909
REMARK  6 active torsions:
REMARK  status: ('A' for Active; 'I' for Inactive)
REMARK    1  A    between atoms: O_1  and  C_8 
REMARK    2  A    between atoms: O_2  and  C_11 
REMARK    3  A    between atoms: O_3  and  C_13 
REMARK    4  A    between atoms: C_6  and  C_7 
REMARK    5  A    between atoms: C_6  and  C_8 
REMARK    6  A    between atoms: C_8  and  C_14 
ROOT
HETATM    1  O   UNL     1      16.740   7.902   9.616  1.00  0.00    -0.385 OA
HETATM    2  H   UNL     1      17.670   7.966   9.349  1.00  0.00     0.210 HD
ENDROOT
BRANCH   1   3
HETATM    3  C   UNL     1      16.589   6.852  10.563  1.00  0.00     0.223 C 
BRANCH   3   4
HETATM    4  C   UNL     1      15.298   6.082  10.239  1.00  0.00     0.081 C 
BRANCH   4   5
HETATM    5  C   UNL     1      14.259   6.232  11.296  1.00  0.00    -0.052 A 
HETATM    6  C   UNL     1      14.634   6.533  12.606  1.00  0.00     0.046 A 
HETATM    7  C   UNL     1      13.660   6.672  13.596  1.00  0.00     0.099 A 
HETATM    8  C   UNL     1      12.313   6.510  13.276  1.00  0.00     0.098 A 
HETATM    9  C   UNL     1      11.938   6.208  11.967  1.00  0.00     0.040 A 
HETATM   10  C   UNL     1      12.910   6.069  10.977  1.00  0.00     0.010 A 
BRANCH   7  11
HETATM   11  O   UNL     1      14.039   6.967  14.870  1.00  0.00    -0.358 OA
HETATM   12  H   UNL     1      14.159   7.859  15.128  1.00  0.00     0.217 HD
ENDBRANCH   7  11
BRANCH   8  13
HETATM   13  O   UNL     1      11.353   6.645  14.234  1.00  0.00    -0.358 OA
HETATM   14  H   UNL     1      11.535   7.132  15.014  1.00  0.00     0.217 HD
ENDBRANCH   8  13
ENDBRANCH   4   5
ENDBRANCH   3   4
BRANCH   3  15
HETATM   15  C   UNL     1      17.808   5.959  10.452  1.00  0.00     0.203 C 
HETATM   16  O   UNL     1      18.220   5.813   9.167  1.00  0.00    -0.646 OA
HETATM   17  O   UNL     1      18.360   5.408  11.396  1.00  0.00    -0.646 OA
ENDBRANCH   3  15
ENDBRANCH   1   3
TORSDOF 6
ENDMDL
MODEL 8
REMARK VINA RESULT:      -6.5      2.050      5.795
REMARK  6 active torsions:
REMARK  status: ('A' for Active; 'I' for Inactive)
REMARK    1  A    between atoms: O_1  and  C_8 
REMARK    2  A    between atoms: O_2  and  C_11 
REMARK    3  A    between atoms: O_3  and  C_13 
REMARK    4  A    between atoms: C_6  and  C_7 
REMARK    5  A    between atoms: C_6  and  C_8 
REMARK    6  A    between atoms: C_8  and  C_14 
ROOT
HETATM    1  O   UNL     1      11.858   4.555  14.933  1.00  0.00    -0.385 OA
HETATM    2  H   UNL     1      11.460   3.718  14.647  1.00  0.00     0.210 HD
ENDROOT
BRANCH   1   3
HETATM    3  C   UNL     1      13.057   4.783  14.203  1.00  0.00     0.223 C 
BRANCH   3   4
HETATM    4  C   UNL     1      12.964   6.162  13.529  1.00  0.00     0.081 C 
BRANCH   4   5
HETATM    5  C   UNL     1      13.171   6.096  12.054  1.00  0.00    -0.052 A 
HETATM    6  C   UNL     1      14.462   6.150  11.528  1.00  0.00     0.046 A 
HETATM    7  C   UNL     1      14.655   6.089  10.147  1.00  0.00     0.099 A 
HETATM    8  C   UNL     1      13.558   5.974   9.294  1.00  0.00     0.098 A 
HETATM    9  C   UNL     1      12.267   5.921   9.820  1.00  0.00     0.040 A 
HETATM   10  C   UNL     1      12.074   5.982  11.200  1.00  0.00     0.010 A 
BRANCH   7  11
HETATM   11  O   UNL     1      15.920   6.142   9.646  1.00  0.00    -0.358 OA
HETATM   12  H   UNL     1      16.572   6.659  10.075  1.00  0.00     0.217 HD
ENDBRANCH   7  11
BRANCH   8  13
HETATM   13  O   UNL     1      13.735   5.913   7.945  1.00  0.00    -0.358 OA
HETATM   14  H   UNL     1      14.545   5.598   7.592  1.00  0.00     0.217 HD
ENDBRANCH   8  13
ENDBRANCH   4   5
ENDBRANCH   3   4
BRANCH   3  15
HETATM   15  C   UNL     1      14.209   4.725  15.186  1.00  0.00     0.203 C 
HETATM   16  O   UNL     1      14.181   5.757  16.068  1.00  0.00    -0.646 OA
HETATM   17  O   UNL     1      15.083   3.869  15.189  1.00  0.00    -0.646 OA
ENDBRANCH   3  15
ENDBRANCH   1   3
TORSDOF 6
ENDMDL
MODEL 9
REMARK VINA RESULT:      -6.5      1.495      2.250
REMARK  6 active torsions:
REMARK  status: ('A' for Active; 'I' for Inactive)
REMARK    1  A    between atoms: O_1  and  C_8 
REMARK    2  A    between atoms: O_2  and  C_11 
REMARK    3  A    between atoms: O_3  and  C_13 
REMARK    4  A    between atoms: C_6  and  C_7 
REMARK    5  A    between atoms: C_6  and  C_8 
REMARK    6  A    between atoms: C_8  and  C_14 
ROOT
HETATM    1  O   UNL     1      11.306   4.984  10.345  1.00  0.00    -0.385 OA
HETATM    2  H   UNL     1      10.664   5.034   9.620  1.00  0.00     0.210 HD
ENDROOT
BRANCH   1   3
HETATM    3  C   UNL     1      12.223   6.066  10.242  1.00  0.00     0.223 C 
BRANCH   3   4
HETATM    4  C   UNL     1      13.445   5.758  11.124  1.00  0.00     0.081 C 
BRANCH   4   5
HETATM    5  C   UNL     1      13.181   5.990  12.572  1.00  0.00    -0.052 A 
HETATM    6  C   UNL     1      14.095   5.546  13.528  1.00  0.00     0.046 A 
HETATM    7  C   UNL     1      13.848   5.763  14.884  1.00  0.00     0.099 A 
HETATM    8  C   UNL     1      12.687   6.423  15.283  1.00  0.00     0.098 A 
HETATM    9  C   UNL     1      11.772   6.866  14.328  1.00  0.00     0.040 A 
HETATM   10  C   UNL     1      12.019   6.650  12.973  1.00  0.00     0.010 A 
BRANCH   7  11
HETATM   11  O   UNL     1      14.749   5.325  15.806  1.00  0.00    -0.358 OA
HETATM   12  H   UNL     1      14.464   4.795  16.524  1.00  0.00     0.217 HD
ENDBRANCH   7  11
BRANCH   8  13
HETATM   13  O   UNL     1      12.435   6.642  16.604  1.00  0.00    -0.358 OA
HETATM   14  H   UNL     1      12.696   6.007  17.242  1.00  0.00     0.217 HD
ENDBRANCH   8  13
ENDBRANCH   4   5
ENDBRANCH   3   4
BRANCH   3  15
HETATM   15  C   UNL     1      12.614   6.196   8.784  1.00  0.00     0.203 C 
HETATM   16  O   UNL     1      13.895   5.807   8.560  1.00  0.00    -0.646 OA
HETATM   17  O   UNL     1      11.881   6.617   7.898  1.00  0.00    -0.646 OA
ENDBRANCH   3  15
ENDBRANCH   1   3
TORSDOF 6
ENDMDL
