MODEL 1
REMARK VINA RESULT:      -6.8      0.000      0.000
REMARK  6 active torsions:
REMARK  status: ('A' for Active; 'I' for Inactive)
REMARK    1  A    between atoms: O_1  and  C_8 
REMARK    2  A    between atoms: O_2  and  C_11 
REMARK    3  A    between atoms: O_3  and  C_13 
REMARK    4  A    between atoms: C_6  and  C_7 
REMARK    5  A    between atoms: C_6  and  C_8 
REMARK    6  A    between atoms: C_8  and  C_14 
ROOT
HETATM    1  O   UNL     1      11.436   6.946   8.965  1.00  0.00    -0.385 OA
HETATM    2  H   UNL     1      10.888   6.604   8.241  1.00  0.00     0.210 HD
ENDROOT
BRANCH   1   3
HETATM    3  C   UNL     1      12.642   6.195   9.041  1.00  0.00     0.223 C 
BRANCH   3   4
HETATM    4  C   UNL     1      12.513   5.179  10.188  1.00  0.00     0.081 C 
BRANCH   4   5
HETATM    5  C   UNL     1      12.861   5.762  11.514  1.00  0.00    -0.052 A 
HETATM    6  C   UNL     1      11.858   6.011  12.452  1.00  0.00     0.046 A 
HETATM    7  C   UNL     1      12.183   6.557  13.694  1.00  0.00     0.099 A 
HETATM    8  C   UNL     1      13.511   6.856  13.997  1.00  0.00     0.098 A 
HETATM    9  C   UNL     1      14.514   6.608  13.060  1.00  0.00     0.040 A 
HETATM   10  C   UNL     1      14.189   6.062  11.819  1.00  0.00     0.010 A 
BRANCH   7  11
HETATM   11  O   UNL     1      11.196   6.794  14.600  1.00  0.00    -0.358 OA
HETATM   12  H   UNL     1      11.396   6.822  15.515  1.00  0.00     0.217 HD
ENDBRANCH   7  11
BRANCH   8  13
HETATM   13  O   UNL     1      13.841   7.389  15.207  1.00  0.00    -0.358 OA
HETATM   14  H   UNL     1      14.407   8.135  15.252  1.00  0.00     0.217 HD
ENDBRANCH   8  13
ENDBRANCH   4   5
ENDBRANCH   3   4
BRANCH   3  15
HETATM   15  C   UNL     1      12.834   5.502   7.707  1.00  0.00     0.203 C 
HETATM   16  O   UNL     1      13.078   6.383   6.703  1.00  0.00    -0.646 OA
HETATM   17  O   UNL     1      12.764   4.293   7.531  1.00  0.00    -0.646 OA
ENDBRANCH   3  15
ENDBRANCH   1   3
TORSDOF 6
ENDMDL
MODEL 2
REMARK VINA RESULT:      -6.7      3.458      4.612
REMARK  6 active torsions:
REMARK  status: ('A' for Active; 'I' for Inactive)
REMARK    1  A    between atoms: O_1  and  C_8 
REMARK    2  A    between atoms: O_2  and  C_11 
REMARK    3  A    between atoms: O_3  and  C_13 
REMARK    4  A    between atoms: C_6  and  C_7 
REMARK    5  A    between atoms: C_6  and  C_8 
REMARK    6  A    between atoms: C_8  and  C_14 
ROOT
HETATM    1  O   UNL     1      18.501   5.222  11.724  1.00  0.00    -0.385 OA
HETATM    2  H   UNL     1      18.378   5.429  12.664  1.00  0.00     0.210 HD
ENDROOT
BRANCH   1   3
HETATM    3  C   UNL     1      17.420   5.763  10.974  1.00  0.00     0.223 C 
BRANCH   3   4
HETATM    4  C   UNL     1      16.453   6.461  11.944  1.00  0.00     0.081 C 
BRANCH   4   5
HETATM    5  C   UNL     1      15.032   6.076  11.716  1.00  0.00    -0.052 A 
HETATM    6  C   UNL     1      14.262   5.589  12.772  1.00  0.00     0.046 A 
HETATM    7  C   UNL     1      12.931   5.228  12.558  1.00  0.00     0.099 A 
HETATM    8  C   UNL     1      12.372   5.354  11.287  1.00  0.00     0.098 A 
HETATM    9  C   UNL     1      13.142   5.839  10.230  1.00  0.00     0.040 A 
HETATM   10  C   UNL     1      14.471   6.200  10.444  1.00  0.00     0.010 A 
BRANCH   7  11
HETATM   11  O   UNL     1      12.190   4.755  13.597  1.00  0.00    -0.358 OA
HETATM   12  H   UNL     1      11.856   5.347  14.242  1.00  0.00     0.217 HD
ENDBRANCH   7  11
BRANCH   8  13
HETATM   13  O   UNL     1      11.073   5.005  11.066  1.00  0.00    -0.358 OA
HETATM   14  H   UNL     1      10.871   4.273  10.517  1.00  0.00     0.217 HD
ENDBRANCH   8  13
ENDBRANCH   4   5
ENDBRANCH   3   4
BRANCH   3  15
HETATM   15  C   UNL     1      18.003   6.741   9.975  1.00  0.00     0.203 C 
HETATM   16  O   UNL     1      18.542   6.113   8.898  1.00  0.00    -0.646 OA
HETATM   17  O   UNL     1      18.013   7.957  10.111  1.00  0.00    -0.646 OA
ENDBRANCH   3  15
ENDBRANCH   1   3
TORSDOF 6
ENDMDL
MODEL 3
REMARK VINA RESULT:      -6.7      2.360      3.158
REMARK  6 active torsions:
REMARK  status: ('A' for Active; 'I' for Inactive)
REMARK    1  A    between atoms: O_1  and  C_8 
REMARK    2  A    between atoms: O_2  and  C_11 
REMARK    3  A    between atoms: O_3  and  C_13 
REMARK    4  A    between atoms: C_6  and  C_7 
REMARK    5  A    between atoms: C_6  and  C_8 
REMARK    6  A    between atoms: C_8  and  C_14 
ROOT
HETATM    1  O   UNL     1      11.188   7.252   8.535  1.00  0.00    -0.385 OA
HETATM    2  H   UNL     1      11.378   8.190   8.688  1.00  0.00     0.210 HD
ENDROOT
BRANCH   1   3
HETATM    3  C   UNL     1      12.391   6.501   8.651  1.00  0.00     0.223 C 
BRANCH   3   4
HETATM    4  C   UNL     1      12.410   5.819  10.029  1.00  0.00     0.081 C 
BRANCH   4   5
HETATM    5  C   UNL     1      13.737   5.915  10.699  1.00  0.00    -0.052 A 
HETATM    6  C   UNL     1      14.893   6.087   9.938  1.00  0.00     0.046 A 
HETATM    7  C   UNL     1      16.136   6.176  10.566  1.00  0.00     0.099 A 
HETATM    8  C   UNL     1      16.222   6.092  11.955  1.00  0.00     0.098 A 
HETATM    9  C   UNL     1      15.067   5.919  12.717  1.00  0.00     0.040 A 
HETATM   10  C   UNL     1      13.825   5.830  12.089  1.00  0.00     0.010 A 
BRANCH   7  11
HETATM   11  O   UNL     1      17.257   6.345   9.811  1.00  0.00    -0.358 OA
HETATM   12  H   UNL     1      17.494   7.199   9.510  1.00  0.00     0.217 HD
ENDBRANCH   7  11
BRANCH   8  13
HETATM   13  O   UNL     1      17.430   6.179  12.579  1.00  0.00    -0.358 OA
HETATM   14  H   UNL     1      17.744   7.010  12.880  1.00  0.00     0.217 HD
ENDBRANCH   8  13
ENDBRANCH   4   5
ENDBRANCH   3   4
BRANCH   3  15
HETATM   15  C   UNL     1      12.403   5.482   7.530  1.00  0.00     0.203 C 
HETATM   16  O   UNL     1      12.035   6.024   6.341  1.00  0.00    -0.646 OA
HETATM   17  O   UNL     1      12.690   4.299   7.663  1.00  0.00    -0.646 OA
ENDBRANCH   3  15
ENDBRANCH   1   3
TORSDOF 6
ENDMDL
MODEL 4
REMARK VINA RESULT:      -6.6      3.430      5.024
REMARK  6 active torsions:
REMARK  status: ('A' for Active; 'I' for Inactive)
REMARK    1  A    between atoms: O_1  and  C_8 
REMARK    2  A    between atoms: O_2  and  C_11 
REMARK    3  A    between atoms: O_3  and  C_13 
REMARK    4  A    between atoms: C_6  and  C_7 
REMARK    5  A    between atoms: C_6  and  C_8 
REMARK    6  A    between atoms: C_8  and  C_14 
ROOT
HETATM    1  O   UNL     1      18.440   5.326  11.913  1.00  0.00    -0.385 OA
HETATM    2  H   UNL     1      18.653   6.056  12.516  1.00  0.00     0.210 HD
ENDROOT
BRANCH   1   3
HETATM    3  C   UNL     1      17.455   5.754  10.980  1.00  0.00     0.223 C 
BRANCH   3   4
HETATM    4  C   UNL     1      16.404   6.590  11.728  1.00  0.00     0.081 C 
BRANCH   4   5
HETATM    5  C   UNL     1      15.008   6.196  11.388  1.00  0.00    -0.052 A 
HETATM    6  C   UNL     1      14.576   6.229  10.062  1.00  0.00     0.046 A 
HETATM    7  C   UNL     1      13.269   5.860   9.744  1.00  0.00     0.099 A 
HETATM    8  C   UNL     1      12.393   5.459  10.753  1.00  0.00     0.098 A 
HETATM    9  C   UNL     1      12.824   5.426  12.079  1.00  0.00     0.040 A 
HETATM   10  C   UNL     1      14.131   5.794  12.397  1.00  0.00     0.010 A 
BRANCH   7  11
HETATM   11  O   UNL     1      12.860   5.896   8.446  1.00  0.00    -0.358 OA
HETATM   12  H   UNL     1      13.467   6.124   7.770  1.00  0.00     0.217 HD
ENDBRANCH   7  11
BRANCH   8  13
HETATM   13  O   UNL     1      11.115   5.095  10.454  1.00  0.00    -0.358 OA
HETATM   14  H   UNL     1      10.487   5.747  10.210  1.00  0.00     0.217 HD
ENDBRANCH   8  13
ENDBRANCH   4   5
ENDBRANCH   3   4
BRANCH   3  15
HETATM   15  C   UNL     1      18.159   6.573   9.917  1.00  0.00     0.203 C 
HETATM   16  O   UNL     1      18.246   7.885  10.256  1.00  0.00    -0.646 OA
HETATM   17  O   UNL     1      18.588   6.128   8.862  1.00  0.00    -0.646 OA
ENDBRANCH   3  15
ENDBRANCH   1   3
TORSDOF 6
ENDMDL
MODEL 5
REMARK VINA RESULT:      -6.6      3.409      4.071
REMARK  6 active torsions:
REMARK  status: ('A' for Active; 'I' for Inactive)
REMARK    1  A    between atoms: O_1  and  C_8 
REMARK    2  A    between atoms: O_2  and  C_11 
REMARK    3  A    between atoms: O_3  and  C_13 
REMARK    4  A    between atoms: C_6  and  C_7 
REMARK    5  A    between atoms: C_6  and  C_8 
REMARK    6  A    between atoms: C_8  and  C_14 
ROOT
HETATM    1  O   UNL     1      17.293   8.197   9.995  1.00  0.00    -0.385 OA
HETATM    2  H   UNL     1      16.958   8.918  10.551  1.00  0.00     0.210 HD
ENDROOT
BRANCH   1   3
HETATM    3  C   UNL     1      16.937   6.947  10.573  1.00  0.00     0.223 C 
BRANCH   3   4
HETATM    4  C   UNL     1      15.592   6.499   9.977  1.00  0.00     0.081 C 
BRANCH   4   5
HETATM    5  C   UNL     1      14.628   6.037  11.015  1.00  0.00    -0.052 A 
HETATM    6  C   UNL     1      13.320   5.710  10.657  1.00  0.00     0.046 A 
HETATM    7  C   UNL     1      12.418   5.277  11.629  1.00  0.00     0.099 A 
HETATM    8  C   UNL     1      12.824   5.172  12.959  1.00  0.00     0.098 A 
HETATM    9  C   UNL     1      14.132   5.499  13.317  1.00  0.00     0.040 A 
HETATM   10  C   UNL     1      15.034   5.931  12.345  1.00  0.00     0.010 A 
BRANCH   7  11
HETATM   11  O   UNL     1      11.144   4.961  11.267  1.00  0.00    -0.358 OA
HETATM   12  H   UNL     1      10.844   5.147  10.400  1.00  0.00     0.217 HD
ENDBRANCH   7  11
BRANCH   8  13
HETATM   13  O   UNL     1      11.952   4.749  13.917  1.00  0.00    -0.358 OA
HETATM   14  H   UNL     1      11.794   3.833  14.036  1.00  0.00     0.217 HD
ENDBRANCH   8  13
ENDBRANCH   4   5
ENDBRANCH   3   4
BRANCH   3  15
HETATM   15  C   UNL     1      18.041   5.962  10.248  1.00  0.00     0.203 C 
HETATM   16  O   UNL     1      18.304   5.909   8.917  1.00  0.00    -0.646 OA
HETATM   17  O   UNL     1      18.627   5.272  11.072  1.00  0.00    -0.646 OA
ENDBRANCH   3  15
ENDBRANCH   1   3
TORSDOF 6
ENDMDL
MODEL 6
REMARK VINA RESULT:      -6.6      3.000      3.878
REMARK  6 active torsions:
REMARK  status: ('A' for Active; 'I' for Inactive)
REMARK    1  A    between atoms: O_1  and  C_8 
REMARK    2  A    between atoms: O_2  and  C_11 
REMARK    3  A    between atoms: O_3  and  C_13 
REMARK    4  A    between atoms: C_6  and  C_7 
REMARK    5  A    between atoms: C_6  and  C_8 
REMARK    6  A    between atoms: C_8  and  C_14 
ROOT
HETATM    1  O   UNL     1      16.750   7.904   9.642  1.00  0.00    -0.385 OA
HETATM    2  H   UNL     1      17.265   7.604   8.876  1.00  0.00     0.210 HD
ENDROOT
BRANCH   1   3
HETATM    3  C   UNL     1      16.612   6.834  10.569  1.00  0.00     0.223 C 
BRANCH   3   4
HETATM    4  C   UNL     1      15.321   6.066  10.239  1.00  0.00     0.081 C 
BRANCH   4   5
HETATM    5  C   UNL     1      14.277   6.218  11.292  1.00  0.00    -0.052 A 
HETATM    6  C   UNL     1      14.646   6.531  12.600  1.00  0.00     0.046 A 
HETATM    7  C   UNL     1      13.668   6.673  13.586  1.00  0.00     0.099 A 
HETATM    8  C   UNL     1      12.323   6.501  13.262  1.00  0.00     0.098 A 
HETATM    9  C   UNL     1      11.954   6.187  11.954  1.00  0.00     0.040 A 
HETATM   10  C   UNL     1      12.931   6.046  10.969  1.00  0.00     0.010 A 
BRANCH   7  11
HETATM   11  O   UNL     1      14.041   6.979  14.859  1.00  0.00    -0.358 OA
HETATM   12  H   UNL     1      13.924   6.352  15.545  1.00  0.00     0.217 HD
ENDBRANCH   7  11
BRANCH   8  13
HETATM   13  O   UNL     1      11.359   6.638  14.215  1.00  0.00    -0.358 OA
HETATM   14  H   UNL     1      10.786   7.380  14.199  1.00  0.00     0.217 HD
ENDBRANCH   8  13
ENDBRANCH   4   5
ENDBRANCH   3   4
BRANCH   3  15
HETATM   15  C   UNL     1      17.833   5.948  10.429  1.00  0.00     0.203 C 
HETATM   16  O   UNL     1      18.228   5.820   9.136  1.00  0.00    -0.646 OA
HETATM   17  O   UNL     1      18.402   5.389  11.357  1.00  0.00    -0.646 OA
ENDBRANCH   3  15
ENDBRANCH   1   3
TORSDOF 6
ENDMDL
MODEL 7
REMARK VINA RESULT:      -6.5      2.077      5.786
REMARK  6 active torsions:
REMARK  status: ('A' for Active; 'I' for Inactive)
REMARK    1  A    between atoms: O_1  and  C_8 
REMARK    2  A    between atoms: O_2  and  C_11 
REMARK    3  A    between atoms: O_3  and  C_13 
REMARK    4  A    between atoms: C_6  and  C_7 
REMARK    5  A    between atoms: C_6  and  C_8 
REMARK    6  A    between atoms: C_8  and  C_14 
ROOT
HETATM    1  O   UNL     1      11.835   4.675  14.907  1.00  0.00    -0.385 OA
HETATM    2  H   UNL     1      11.472   3.791  14.744  1.00  0.00     0.210 HD
ENDROOT
BRANCH   1   3
HETATM    3  C   UNL     1      13.027   4.845  14.150  1.00  0.00     0.223 C 
BRANCH   3   4
HETATM    4  C   UNL     1      12.980   6.221  13.465  1.00  0.00     0.081 C 
BRANCH   4   5
HETATM    5  C   UNL     1      13.180   6.136  11.991  1.00  0.00    -0.052 A 
HETATM    6  C   UNL     1      14.469   6.164  11.459  1.00  0.00     0.046 A 
HETATM    7  C   UNL     1      14.656   6.086  10.078  1.00  0.00     0.099 A 
HETATM    8  C   UNL     1      13.553   5.979   9.231  1.00  0.00     0.098 A 
HETATM    9  C   UNL     1      12.264   5.952   9.763  1.00  0.00     0.040 A 
HETATM   10  C   UNL     1      12.077   6.031  11.143  1.00  0.00     0.010 A 
BRANCH   7  11
HETATM   11  O   UNL     1      15.919   6.113   9.571  1.00  0.00    -0.358 OA
HETATM   12  H   UNL     1      16.520   5.425   9.775  1.00  0.00     0.217 HD
ENDBRANCH   7  11
BRANCH   8  13
HETATM   13  O   UNL     1      13.723   5.901   7.881  1.00  0.00    -0.358 OA
HETATM   14  H   UNL     1      12.992   5.709   7.327  1.00  0.00     0.217 HD
ENDBRANCH   8  13
ENDBRANCH   4   5
ENDBRANCH   3   4
BRANCH   3  15
HETATM   15  C   UNL     1      14.196   4.745  15.110  1.00  0.00     0.203 C 
HETATM   16  O   UNL     1      14.925   3.616  14.913  1.00  0.00    -0.646 OA
HETATM   17  O   UNL     1      14.459   5.565  15.979  1.00  0.00    -0.646 OA
ENDBRANCH   3  15
ENDBRANCH   1   3
TORSDOF 6
ENDMDL
MODEL 8
REMARK VINA RESULT:      -6.5      3.452      4.916
REMARK  6 active torsions:
REMARK  status: ('A' for Active; 'I' for Inactive)
REMARK    1  A    between atoms: O_1  and  C_8 
REMARK    2  A    between atoms: O_2  and  C_11 
REMARK    3  A    between atoms: O_3  and  C_13 
REMARK    4  A    between atoms: C_6  and  C_7 
REMARK    5  A    between atoms: C_6  and  C_8 
REMARK    6  A    between atoms: C_8  and  C_14 
ROOT
HETATM    1  O   UNL     1      17.740   6.188  13.226  1.00  0.00    -0.385 OA
HETATM    2  H   UNL     1      17.582   7.144  13.282  1.00  0.00     0.210 HD
ENDROOT
BRANCH   1   3
HETATM    3  C   UNL     1      17.251   5.698  11.983  1.00  0.00     0.223 C 
BRANCH   3   4
HETATM    4  C   UNL     1      16.285   6.739  11.394  1.00  0.00     0.081 C 
BRANCH   4   5
HETATM    5  C   UNL     1      14.883   6.240  11.310  1.00  0.00    -0.052 A 
HETATM    6  C   UNL     1      14.226   5.808  12.463  1.00  0.00     0.046 A 
HETATM    7  C   UNL     1      12.914   5.339  12.384  1.00  0.00     0.099 A 
HETATM    8  C   UNL     1      12.260   5.304  11.153  1.00  0.00     0.098 A 
HETATM    9  C   UNL     1      12.917   5.735  10.000  1.00  0.00     0.040 A 
HETATM   10  C   UNL     1      14.228   6.203  10.079  1.00  0.00     0.010 A 
BRANCH   7  11
HETATM   11  O   UNL     1      12.284   4.921  13.516  1.00  0.00    -0.358 OA
HETATM   12  H   UNL     1      12.562   4.136  13.944  1.00  0.00     0.217 HD
ENDBRANCH   7  11
BRANCH   8  13
HETATM   13  O   UNL     1      10.978   4.850  11.064  1.00  0.00    -0.358 OA
HETATM   14  H   UNL     1      10.455   4.768  11.838  1.00  0.00     0.217 HD
ENDBRANCH   8  13
ENDBRANCH   4   5
ENDBRANCH   3   4
BRANCH   3  15
HETATM   15  C   UNL     1      18.446   5.478  11.078  1.00  0.00     0.203 C 
HETATM   16  O   UNL     1      19.403   4.719  11.669  1.00  0.00    -0.646 OA
HETATM   17  O   UNL     1      18.562   5.938   9.950  1.00  0.00    -0.646 OA
ENDBRANCH   3  15
ENDBRANCH   1   3
TORSDOF 6
ENDMDL
MODEL 9
REMARK VINA RESULT:      -6.4      1.460      2.270
REMARK  6 active torsions:
REMARK  status: ('A' for Active; 'I' for Inactive)
REMARK    1  A    between atoms: O_1  and  C_8 
REMARK    2  A    between atoms: O_2  and  C_11 
REMARK    3  A    between atoms: O_3  and  C_13 
REMARK    4  A    between atoms: C_6  and  C_7 
REMARK    5  A    between atoms: C_6  and  C_8 
REMARK    6  A    between atoms: C_8  and  C_14 
ROOT
HETATM    1  O   UNL     1      11.706   4.509  10.127  1.00  0.00    -0.385 OA
HETATM    2  H   UNL     1      11.586   4.197  11.037  1.00  0.00     0.210 HD
ENDROOT
BRANCH   1   3
HETATM    3  C   UNL     1      12.291   5.806  10.145  1.00  0.00     0.223 C 
BRANCH   3   4
HETATM    4  C   UNL     1      13.517   5.777  11.072  1.00  0.00     0.081 C 
BRANCH   4   5
HETATM    5  C   UNL     1      13.169   6.047  12.495  1.00  0.00    -0.052 A 
HETATM    6  C   UNL     1      14.074   5.730  13.508  1.00  0.00     0.046 A 
HETATM    7  C   UNL     1      13.748   5.982  14.841  1.00  0.00     0.099 A 
HETATM    8  C   UNL     1      12.515   6.551  15.160  1.00  0.00     0.098 A 
HETATM    9  C   UNL     1      11.609   6.868  14.148  1.00  0.00     0.040 A 
HETATM   10  C   UNL     1      11.936   6.615  12.816  1.00  0.00     0.010 A 
BRANCH   7  11
HETATM   11  O   UNL     1      14.640   5.669  15.820  1.00  0.00    -0.358 OA
HETATM   12  H   UNL     1      15.319   6.274  16.045  1.00  0.00     0.217 HD
ENDBRANCH   7  11
BRANCH   8  13
HETATM   13  O   UNL     1      12.186   6.804  16.458  1.00  0.00    -0.358 OA
HETATM   14  H   UNL     1      12.243   7.676  16.795  1.00  0.00     0.217 HD
ENDBRANCH   8  13
ENDBRANCH   4   5
ENDBRANCH   3   4
BRANCH   3  15
HETATM   15  C   UNL     1      12.681   6.151   8.722  1.00  0.00     0.203 C 
HETATM   16  O   UNL     1      13.980   5.854   8.462  1.00  0.00    -0.646 OA
HETATM   17  O   UNL     1      11.934   6.655   7.894  1.00  0.00    -0.646 OA
ENDBRANCH   3  15
ENDBRANCH   1   3
TORSDOF 6
ENDMDL
