MODEL 1
REMARK VINA RESULT:      -9.1      0.000      0.000
REMARK  4 active torsions:
REMARK  status: ('A' for Active; 'I' for Inactive)
REMARK    1  A    between atoms: O_1  and  C_5 
REMARK    2  A    between atoms: O_1  and  C_14 
REMARK    3  A    between atoms: O_2  and  C_18 
REMARK    4  A    between atoms: C_10  and  C_13 
ROOT
HETATM    1  O   UNL     1      22.124  -5.279  33.730  1.00  0.00    -0.343 OA
ENDROOT
BRANCH   1   2
HETATM    2  C   UNL     1      21.900  -6.505  33.044  1.00  0.00     0.129 C 
HETATM    3  C   UNL     1      21.165  -7.471  33.960  1.00  0.00     0.032 C 
HETATM    4  C   UNL     1      22.253  -8.038  34.870  1.00  0.00     0.002 C 
HETATM    5  C   UNL     1      23.575  -7.847  34.127  1.00  0.00     0.002 C 
HETATM    6  C   UNL     1      23.219  -7.215  32.784  1.00  0.00     0.032 C 
ENDBRANCH   1   2
BRANCH   1   7
HETATM    7  C   UNL     1      21.819  -4.128  33.053  1.00  0.00     0.103 A 
HETATM    8  C   UNL     1      21.395  -4.211  31.730  1.00  0.00     0.047 A 
HETATM    9  C   UNL     1      21.084  -3.046  31.030  1.00  0.00    -0.049 A 
HETATM   10  C   UNL     1      21.197  -1.804  31.655  1.00  0.00     0.010 A 
HETATM   11  C   UNL     1      21.622  -1.728  32.981  1.00  0.00     0.040 A 
HETATM   12  C   UNL     1      21.935  -2.893  33.682  1.00  0.00     0.101 A 
BRANCH   9  13
HETATM   13  C   UNL     1      20.622  -3.129  29.591  1.00  0.00     0.045 C 
HETATM   14  C   UNL     1      21.609  -2.613  28.543  1.00  0.00     0.132 C 
HETATM   15  N   UNL     1      20.779  -2.309  27.411  1.00  0.00    -0.360 N 
HETATM   16  C   UNL     1      19.447  -2.127  27.759  1.00  0.00     0.218 C 
HETATM   17  H   UNL     1      21.118  -2.238  26.489  1.00  0.00     0.162 HD
HETATM   18  O   UNL     1      18.523  -1.818  27.023  1.00  0.00    -0.274 OA
HETATM   19  C   UNL     1      19.347  -2.333  29.250  1.00  0.00     0.113 C 
ENDBRANCH   9  13
BRANCH  12  20
HETATM   20  O   UNL     1      22.350  -2.805  34.976  1.00  0.00    -0.353 OA
HETATM   21  C   UNL     1      22.037  -1.603  35.677  1.00  0.00     0.210 C 
ENDBRANCH  12  20
ENDBRANCH   1   7
TORSDOF 4
ENDMDL
MODEL 2
REMARK VINA RESULT:      -8.9      1.021      1.246
REMARK  4 active torsions:
REMARK  status: ('A' for Active; 'I' for Inactive)
REMARK    1  A    between atoms: O_1  and  C_5 
REMARK    2  A    between atoms: O_1  and  C_14 
REMARK    3  A    between atoms: O_2  and  C_18 
REMARK    4  A    between atoms: C_10  and  C_13 
ROOT
HETATM    1  O   UNL     1      22.191  -5.190  33.809  1.00  0.00    -0.343 OA
ENDROOT
BRANCH   1   2
HETATM    2  C   UNL     1      21.908  -6.378  33.080  1.00  0.00     0.129 C 
HETATM    3  C   UNL     1      21.160  -7.355  33.974  1.00  0.00     0.032 C 
HETATM    4  C   UNL     1      22.248  -7.996  34.834  1.00  0.00     0.002 C 
HETATM    5  C   UNL     1      23.559  -7.820  34.068  1.00  0.00     0.002 C 
HETATM    6  C   UNL     1      23.195  -7.122  32.760  1.00  0.00     0.032 C 
ENDBRANCH   1   2
BRANCH   1   7
HETATM    7  C   UNL     1      21.887  -4.003  33.197  1.00  0.00     0.103 A 
HETATM    8  C   UNL     1      21.493  -4.009  31.863  1.00  0.00     0.047 A 
HETATM    9  C   UNL     1      21.182  -2.807  31.229  1.00  0.00    -0.049 A 
HETATM   10  C   UNL     1      21.267  -1.604  31.930  1.00  0.00     0.010 A 
HETATM   11  C   UNL     1      21.662  -1.605  33.268  1.00  0.00     0.040 A 
HETATM   12  C   UNL     1      21.974  -2.808  33.903  1.00  0.00     0.101 A 
BRANCH   9  13
HETATM   13  C   UNL     1      20.753  -2.806  29.777  1.00  0.00     0.045 C 
HETATM   14  C   UNL     1      19.301  -2.403  29.512  1.00  0.00     0.132 C 
HETATM   15  N   UNL     1      19.015  -2.977  28.227  1.00  0.00    -0.360 N 
HETATM   16  C   UNL     1      19.879  -4.015  27.903  1.00  0.00     0.218 C 
HETATM   17  H   UNL     1      18.287  -2.669  27.641  1.00  0.00     0.162 HD
HETATM   18  O   UNL     1      19.853  -4.717  26.904  1.00  0.00    -0.274 OA
HETATM   19  C   UNL     1      20.846  -4.162  29.051  1.00  0.00     0.113 C 
ENDBRANCH   9  13
BRANCH  12  20
HETATM   20  O   UNL     1      22.360  -2.795  35.209  1.00  0.00    -0.353 OA
HETATM   21  C   UNL     1      22.342  -1.535  35.878  1.00  0.00     0.210 C 
ENDBRANCH  12  20
ENDBRANCH   1   7
TORSDOF 4
ENDMDL
MODEL 3
REMARK VINA RESULT:      -8.6      1.172      3.957
REMARK  4 active torsions:
REMARK  status: ('A' for Active; 'I' for Inactive)
REMARK    1  A    between atoms: O_1  and  C_5 
REMARK    2  A    between atoms: O_1  and  C_14 
REMARK    3  A    between atoms: O_2  and  C_18 
REMARK    4  A    between atoms: C_10  and  C_13 
ROOT
HETATM    1  O   UNL     1      22.098  -3.567  33.991  1.00  0.00    -0.343 OA
ENDROOT
BRANCH   1   2
HETATM    2  C   UNL     1      21.728  -2.202  33.848  1.00  0.00     0.129 C 
HETATM    3  C   UNL     1      22.977  -1.354  33.662  1.00  0.00     0.032 C 
HETATM    4  C   UNL     1      23.536  -1.181  35.073  1.00  0.00     0.002 C 
HETATM    5  C   UNL     1      22.366  -1.415  36.028  1.00  0.00     0.002 C 
HETATM    6  C   UNL     1      21.145  -1.672  35.149  1.00  0.00     0.032 C 
ENDBRANCH   1   2
BRANCH   1   7
HETATM    7  C   UNL     1      22.107  -4.327  32.851  1.00  0.00     0.103 A 
HETATM    8  C   UNL     1      21.638  -3.774  31.663  1.00  0.00     0.047 A 
HETATM    9  C   UNL     1      21.641  -4.538  30.497  1.00  0.00    -0.049 A 
HETATM   10  C   UNL     1      22.110  -5.851  30.523  1.00  0.00     0.010 A 
HETATM   11  C   UNL     1      22.579  -6.399  31.717  1.00  0.00     0.040 A 
HETATM   12  C   UNL     1      22.576  -5.636  32.884  1.00  0.00     0.101 A 
BRANCH   9  13
HETATM   13  C   UNL     1      21.133  -3.943  29.202  1.00  0.00     0.045 C 
HETATM   14  C   UNL     1      21.391  -2.447  29.009  1.00  0.00     0.132 C 
HETATM   15  N   UNL     1      20.404  -2.050  28.045  1.00  0.00    -0.360 N 
HETATM   16  C   UNL     1      19.336  -2.935  27.980  1.00  0.00     0.218 C 
HETATM   17  H   UNL     1      20.477  -1.240  27.490  1.00  0.00     0.162 HD
HETATM   18  O   UNL     1      18.333  -2.838  27.291  1.00  0.00    -0.274 OA
HETATM   19  C   UNL     1      19.612  -4.037  28.972  1.00  0.00     0.113 C 
ENDBRANCH   9  13
BRANCH  12  20
HETATM   20  O   UNL     1      23.035  -6.183  34.045  1.00  0.00    -0.353 OA
HETATM   21  C   UNL     1      23.462  -7.543  33.994  1.00  0.00     0.210 C 
ENDBRANCH  12  20
ENDBRANCH   1   7
TORSDOF 4
ENDMDL
MODEL 4
REMARK VINA RESULT:      -7.8      2.799      6.452
REMARK  4 active torsions:
REMARK  status: ('A' for Active; 'I' for Inactive)
REMARK    1  A    between atoms: O_1  and  C_5 
REMARK    2  A    between atoms: O_1  and  C_14 
REMARK    3  A    between atoms: O_2  and  C_18 
REMARK    4  A    between atoms: C_10  and  C_13 
ROOT
HETATM    1  O   UNL     1      20.951  -3.946  28.440  1.00  0.00    -0.343 OA
ENDROOT
BRANCH   1   2
HETATM    2  C   UNL     1      19.655  -3.368  28.351  1.00  0.00     0.129 C 
HETATM    3  C   UNL     1      18.638  -4.303  28.989  1.00  0.00     0.032 C 
HETATM    4  C   UNL     1      18.372  -5.363  27.921  1.00  0.00     0.002 C 
HETATM    5  C   UNL     1      18.761  -4.733  26.585  1.00  0.00     0.002 C 
HETATM    6  C   UNL     1      19.201  -3.305  26.901  1.00  0.00     0.032 C 
ENDBRANCH   1   2
BRANCH   1   7
HETATM    7  C   UNL     1      21.372  -4.329  29.686  1.00  0.00     0.103 A 
HETATM    8  C   UNL     1      21.205  -3.456  30.757  1.00  0.00     0.047 A 
HETATM    9  C   UNL     1      21.631  -3.833  32.029  1.00  0.00    -0.049 A 
HETATM   10  C   UNL     1      22.223  -5.080  32.226  1.00  0.00     0.010 A 
HETATM   11  C   UNL     1      22.387  -5.951  31.149  1.00  0.00     0.040 A 
HETATM   12  C   UNL     1      21.962  -5.574  29.876  1.00  0.00     0.101 A 
BRANCH   9  13
HETATM   13  C   UNL     1      21.451  -2.888  33.198  1.00  0.00     0.045 C 
HETATM   14  C   UNL     1      21.955  -1.459  32.985  1.00  0.00     0.132 C 
HETATM   15  N   UNL     1      22.161  -0.966  34.317  1.00  0.00    -0.360 N 
HETATM   16  C   UNL     1      22.301  -1.986  35.248  1.00  0.00     0.218 C 
HETATM   17  H   UNL     1      22.198  -0.009  34.545  1.00  0.00     0.162 HD
HETATM   18  O   UNL     1      22.530  -1.875  36.442  1.00  0.00    -0.274 OA
HETATM   19  C   UNL     1      22.171  -3.290  34.500  1.00  0.00     0.113 C 
ENDBRANCH   9  13
BRANCH  12  20
HETATM   20  O   UNL     1      22.130  -6.432  28.831  1.00  0.00    -0.353 OA
HETATM   21  C   UNL     1      21.274  -7.573  28.787  1.00  0.00     0.210 C 
ENDBRANCH  12  20
ENDBRANCH   1   7
TORSDOF 4
ENDMDL
MODEL 5
REMARK VINA RESULT:      -7.4      3.075      6.231
REMARK  4 active torsions:
REMARK  status: ('A' for Active; 'I' for Inactive)
REMARK    1  A    between atoms: O_1  and  C_5 
REMARK    2  A    between atoms: O_1  and  C_14 
REMARK    3  A    between atoms: O_2  and  C_18 
REMARK    4  A    between atoms: C_10  and  C_13 
ROOT
HETATM    1  O   UNL     1      20.338  -6.066  29.023  1.00  0.00    -0.343 OA
ENDROOT
BRANCH   1   2
HETATM    2  C   UNL     1      20.860  -5.531  27.813  1.00  0.00     0.129 C 
HETATM    3  C   UNL     1      19.931  -4.443  27.298  1.00  0.00     0.032 C 
HETATM    4  C   UNL     1      18.795  -5.202  26.614  1.00  0.00     0.002 C 
HETATM    5  C   UNL     1      19.352  -6.581  26.263  1.00  0.00     0.002 C 
HETATM    6  C   UNL     1      20.812  -6.575  26.709  1.00  0.00     0.032 C 
ENDBRANCH   1   2
BRANCH   1   7
HETATM    7  C   UNL     1      21.070  -5.851  30.161  1.00  0.00     0.103 A 
HETATM    8  C   UNL     1      20.855  -4.690  30.897  1.00  0.00     0.047 A 
HETATM    9  C   UNL     1      21.595  -4.459  32.055  1.00  0.00    -0.049 A 
HETATM   10  C   UNL     1      22.546  -5.389  32.473  1.00  0.00     0.010 A 
HETATM   11  C   UNL     1      22.757  -6.551  31.731  1.00  0.00     0.040 A 
HETATM   12  C   UNL     1      22.017  -6.782  30.571  1.00  0.00     0.101 A 
BRANCH   9  13
HETATM   13  C   UNL     1      21.365  -3.198  32.861  1.00  0.00     0.045 C 
HETATM   14  C   UNL     1      21.615  -1.881  32.124  1.00  0.00     0.132 C 
HETATM   15  N   UNL     1      21.850  -0.937  33.179  1.00  0.00    -0.360 N 
HETATM   16  C   UNL     1      22.229  -1.548  34.367  1.00  0.00     0.218 C 
HETATM   17  H   UNL     1      21.754   0.037  33.073  1.00  0.00     0.162 HD
HETATM   18  O   UNL     1      22.536  -1.005  35.417  1.00  0.00    -0.274 OA
HETATM   19  C   UNL     1      22.246  -3.035  34.115  1.00  0.00     0.113 C 
ENDBRANCH   9  13
BRANCH  12  20
HETATM   20  O   UNL     1      22.233  -7.921  29.855  1.00  0.00    -0.353 OA
HETATM   21  C   UNL     1      23.458  -8.006  29.129  1.00  0.00     0.210 C 
ENDBRANCH  12  20
ENDBRANCH   1   7
TORSDOF 4
ENDMDL
MODEL 6
REMARK VINA RESULT:      -7.4      2.529      3.796
REMARK  4 active torsions:
REMARK  status: ('A' for Active; 'I' for Inactive)
REMARK    1  A    between atoms: O_1  and  C_5 
REMARK    2  A    between atoms: O_1  and  C_14 
REMARK    3  A    between atoms: O_2  and  C_18 
REMARK    4  A    between atoms: C_10  and  C_13 
ROOT
HETATM    1  O   UNL     1      23.275  -7.934  30.955  1.00  0.00    -0.343 OA
ENDROOT
BRANCH   1   2
HETATM    2  C   UNL     1      24.390  -7.856  30.076  1.00  0.00     0.129 C 
HETATM    3  C   UNL     1      24.033  -8.501  28.745  1.00  0.00     0.032 C 
HETATM    4  C   UNL     1      24.180 -10.001  28.996  1.00  0.00     0.002 C 
HETATM    5  C   UNL     1      25.115 -10.146  30.195  1.00  0.00     0.002 C 
HETATM    6  C   UNL     1      25.528  -8.728  30.585  1.00  0.00     0.032 C 
ENDBRANCH   1   2
BRANCH   1   7
HETATM    7  C   UNL     1      22.793  -6.749  31.446  1.00  0.00     0.103 A 
HETATM    8  C   UNL     1      22.219  -5.834  30.569  1.00  0.00     0.047 A 
HETATM    9  C   UNL     1      21.726  -4.625  31.057  1.00  0.00    -0.049 A 
HETATM   10  C   UNL     1      21.808  -4.336  32.418  1.00  0.00     0.010 A 
HETATM   11  C   UNL     1      22.383  -5.258  33.293  1.00  0.00     0.040 A 
HETATM   12  C   UNL     1      22.878  -6.467  32.805  1.00  0.00     0.101 A 
BRANCH   9  13
HETATM   13  C   UNL     1      21.100  -3.626  30.108  1.00  0.00     0.045 C 
HETATM   14  C   UNL     1      20.289  -2.505  30.760  1.00  0.00     0.132 C 
HETATM   15  N   UNL     1      19.415  -2.059  29.712  1.00  0.00    -0.360 N 
HETATM   16  C   UNL     1      19.253  -3.010  28.712  1.00  0.00     0.218 C 
HETATM   17  H   UNL     1      18.978  -1.177  29.702  1.00  0.00     0.162 HD
HETATM   18  O   UNL     1      18.540  -2.934  27.724  1.00  0.00    -0.274 OA
HETATM   19  C   UNL     1      20.091  -4.204  29.096  1.00  0.00     0.113 C 
ENDBRANCH   9  13
BRANCH  12  20
HETATM   20  O   UNL     1      23.440  -7.359  33.669  1.00  0.00    -0.353 OA
HETATM   21  C   UNL     1      22.564  -8.011  34.587  1.00  0.00     0.210 C 
ENDBRANCH  12  20
ENDBRANCH   1   7
TORSDOF 4
ENDMDL
MODEL 7
REMARK VINA RESULT:      -7.4      3.130      6.216
REMARK  4 active torsions:
REMARK  status: ('A' for Active; 'I' for Inactive)
REMARK    1  A    between atoms: O_1  and  C_5 
REMARK    2  A    between atoms: O_1  and  C_14 
REMARK    3  A    between atoms: O_2  and  C_18 
REMARK    4  A    between atoms: C_10  and  C_13 
ROOT
HETATM    1  O   UNL     1      21.048  -5.743  28.601  1.00  0.00    -0.343 OA
ENDROOT
BRANCH   1   2
HETATM    2  C   UNL     1      19.758  -6.318  28.440  1.00  0.00     0.129 C 
HETATM    3  C   UNL     1      19.769  -7.263  27.248  1.00  0.00     0.032 C 
HETATM    4  C   UNL     1      19.645  -6.346  26.033  1.00  0.00     0.002 C 
HETATM    5  C   UNL     1      19.020  -5.046  26.537  1.00  0.00     0.002 C 
HETATM    6  C   UNL     1      18.752  -5.255  28.026  1.00  0.00     0.032 C 
ENDBRANCH   1   2
BRANCH   1   7
HETATM    7  C   UNL     1      21.532  -5.659  29.880  1.00  0.00     0.103 A 
HETATM    8  C   UNL     1      21.239  -4.534  30.644  1.00  0.00     0.047 A 
HETATM    9  C   UNL     1      21.727  -4.436  31.946  1.00  0.00    -0.049 A 
HETATM   10  C   UNL     1      22.505  -5.463  32.479  1.00  0.00     0.010 A 
HETATM   11  C   UNL     1      22.795  -6.589  31.708  1.00  0.00     0.040 A 
HETATM   12  C   UNL     1      22.307  -6.687  30.405  1.00  0.00     0.101 A 
BRANCH   9  13
HETATM   13  C   UNL     1      21.412  -3.214  32.782  1.00  0.00     0.045 C 
HETATM   14  C   UNL     1      21.625  -1.863  32.096  1.00  0.00     0.132 C 
HETATM   15  N   UNL     1      21.780  -0.945  33.189  1.00  0.00    -0.360 N 
HETATM   16  C   UNL     1      22.146  -1.578  34.369  1.00  0.00     0.218 C 
HETATM   17  H   UNL     1      21.642   0.026  33.110  1.00  0.00     0.162 HD
HETATM   18  O   UNL     1      22.392  -1.056  35.446  1.00  0.00    -0.274 OA
HETATM   19  C   UNL     1      22.241  -3.053  34.071  1.00  0.00     0.113 C 
ENDBRANCH   9  13
BRANCH  12  20
HETATM   20  O   UNL     1      22.599  -7.791  29.662  1.00  0.00    -0.353 OA
HETATM   21  C   UNL     1      23.960  -8.217  29.640  1.00  0.00     0.210 C 
ENDBRANCH  12  20
ENDBRANCH   1   7
TORSDOF 4
ENDMDL
MODEL 8
REMARK VINA RESULT:      -7.3      3.004      6.133
REMARK  4 active torsions:
REMARK  status: ('A' for Active; 'I' for Inactive)
REMARK    1  A    between atoms: O_1  and  C_5 
REMARK    2  A    between atoms: O_1  and  C_14 
REMARK    3  A    between atoms: O_2  and  C_18 
REMARK    4  A    between atoms: C_10  and  C_13 
ROOT
HETATM    1  O   UNL     1      21.721  -3.351  33.946  1.00  0.00    -0.343 OA
ENDROOT
BRANCH   1   2
HETATM    2  C   UNL     1      21.662  -1.943  33.751  1.00  0.00     0.129 C 
HETATM    3  C   UNL     1      23.073  -1.379  33.699  1.00  0.00     0.032 C 
HETATM    4  C   UNL     1      23.500  -1.280  35.163  1.00  0.00     0.002 C 
HETATM    5  C   UNL     1      22.211  -1.237  35.983  1.00  0.00     0.002 C 
HETATM    6  C   UNL     1      21.065  -1.263  34.973  1.00  0.00     0.032 C 
ENDBRANCH   1   2
BRANCH   1   7
HETATM    7  C   UNL     1      21.786  -4.128  32.820  1.00  0.00     0.103 A 
HETATM    8  C   UNL     1      22.413  -5.369  32.888  1.00  0.00     0.047 A 
HETATM    9  C   UNL     1      22.486  -6.169  31.749  1.00  0.00    -0.049 A 
HETATM   10  C   UNL     1      21.934  -5.726  30.547  1.00  0.00     0.010 A 
HETATM   11  C   UNL     1      21.306  -4.482  30.486  1.00  0.00     0.040 A 
HETATM   12  C   UNL     1      21.233  -3.680  31.626  1.00  0.00     0.101 A 
BRANCH   9  13
HETATM   13  C   UNL     1      23.166  -7.519  31.816  1.00  0.00     0.045 C 
HETATM   14  C   UNL     1      23.956  -7.806  33.094  1.00  0.00     0.132 C 
HETATM   15  N   UNL     1      24.883  -8.830  32.703  1.00  0.00    -0.360 N 
HETATM   16  C   UNL     1      25.085  -8.869  31.329  1.00  0.00     0.218 C 
HETATM   17  H   UNL     1      25.328  -9.436  33.338  1.00  0.00     0.162 HD
HETATM   18  O   UNL     1      25.845  -9.598  30.712  1.00  0.00    -0.274 OA
HETATM   19  C   UNL     1      24.218  -7.794  30.723  1.00  0.00     0.113 C 
ENDBRANCH   9  13
BRANCH  12  20
HETATM   20  O   UNL     1      20.619  -2.466  31.553  1.00  0.00    -0.353 OA
HETATM   21  C   UNL     1      19.722  -2.259  30.463  1.00  0.00     0.210 C 
ENDBRANCH  12  20
ENDBRANCH   1   7
TORSDOF 4
ENDMDL
MODEL 9
REMARK VINA RESULT:      -7.3      3.085      5.778
REMARK  4 active torsions:
REMARK  status: ('A' for Active; 'I' for Inactive)
REMARK    1  A    between atoms: O_1  and  C_5 
REMARK    2  A    between atoms: O_1  and  C_14 
REMARK    3  A    between atoms: O_2  and  C_18 
REMARK    4  A    between atoms: C_10  and  C_13 
ROOT
HETATM    1  O   UNL     1      21.461  -6.391  29.247  1.00  0.00    -0.343 OA
ENDROOT
BRANCH   1   2
HETATM    2  C   UNL     1      22.882  -6.417  29.269  1.00  0.00     0.129 C 
HETATM    3  C   UNL     1      23.419  -5.911  27.939  1.00  0.00     0.032 C 
HETATM    4  C   UNL     1      23.291  -7.106  26.996  1.00  0.00     0.002 C 
HETATM    5  C   UNL     1      23.239  -8.349  27.883  1.00  0.00     0.002 C 
HETATM    6  C   UNL     1      23.386  -7.851  29.319  1.00  0.00     0.032 C 
ENDBRANCH   1   2
BRANCH   1   7
HETATM    7  C   UNL     1      20.861  -5.182  29.479  1.00  0.00     0.103 A 
HETATM    8  C   UNL     1      21.152  -4.494  30.653  1.00  0.00     0.047 A 
HETATM    9  C   UNL     1      20.547  -3.263  30.901  1.00  0.00    -0.049 A 
HETATM   10  C   UNL     1      19.654  -2.725  29.975  1.00  0.00     0.010 A 
HETATM   11  C   UNL     1      19.368  -3.418  28.799  1.00  0.00     0.040 A 
HETATM   12  C   UNL     1      19.972  -4.651  28.551  1.00  0.00     0.101 A 
BRANCH   9  13
HETATM   13  C   UNL     1      20.859  -2.510  32.176  1.00  0.00     0.045 C 
HETATM   14  C   UNL     1      21.729  -1.262  32.018  1.00  0.00     0.132 C 
HETATM   15  N   UNL     1      22.293  -1.070  33.324  1.00  0.00    -0.360 N 
HETATM   16  C   UNL     1      22.270  -2.227  34.091  1.00  0.00     0.218 C 
HETATM   17  H   UNL     1      22.657  -0.211  33.641  1.00  0.00     0.162 HD
HETATM   18  O   UNL     1      22.717  -2.380  35.217  1.00  0.00    -0.274 OA
HETATM   19  C   UNL     1      21.629  -3.303  33.251  1.00  0.00     0.113 C 
ENDBRANCH   9  13
BRANCH  12  20
HETATM   20  O   UNL     1      19.683  -5.319  27.400  1.00  0.00    -0.353 OA
HETATM   21  C   UNL     1      18.458  -4.987  26.748  1.00  0.00     0.210 C 
ENDBRANCH  12  20
ENDBRANCH   1   7
TORSDOF 4
ENDMDL
