MODEL 1
REMARK VINA RESULT:      -8.9      0.000      0.000
REMARK  4 active torsions:
REMARK  status: ('A' for Active; 'I' for Inactive)
REMARK    1  A    between atoms: O_1  and  C_5 
REMARK    2  A    between atoms: O_1  and  C_14 
REMARK    3  A    between atoms: O_2  and  C_18 
REMARK    4  A    between atoms: C_10  and  C_13 
ROOT
HETATM    1  O   UNL     1      15.835   6.325   9.923  1.00  0.00    -0.343 OA
ENDROOT
BRANCH   1   2
HETATM    2  C   UNL     1      16.798   6.879  10.810  1.00  0.00     0.129 C 
HETATM    3  C   UNL     1      17.714   7.819  10.041  1.00  0.00     0.032 C 
HETATM    4  C   UNL     1      18.710   6.895   9.342  1.00  0.00     0.002 C 
HETATM    5  C   UNL     1      18.710   5.588  10.133  1.00  0.00     0.002 C 
HETATM    6  C   UNL     1      17.749   5.799  11.301  1.00  0.00     0.032 C 
ENDBRANCH   1   2
BRANCH   1   7
HETATM    7  C   UNL     1      14.574   6.133  10.422  1.00  0.00     0.103 A 
HETATM    8  C   UNL     1      14.395   6.045  11.799  1.00  0.00     0.047 A 
HETATM    9  C   UNL     1      13.117   5.848  12.319  1.00  0.00    -0.049 A 
HETATM   10  C   UNL     1      12.023   5.741  11.461  1.00  0.00     0.010 A 
HETATM   11  C   UNL     1      12.208   5.831  10.081  1.00  0.00     0.040 A 
HETATM   12  C   UNL     1      13.487   6.027   9.561  1.00  0.00     0.101 A 
BRANCH   9  13
HETATM   13  C   UNL     1      12.916   5.752  13.816  1.00  0.00     0.045 C 
HETATM   14  C   UNL     1      11.914   6.738  14.420  1.00  0.00     0.132 C 
HETATM   15  N   UNL     1      12.294   6.809  15.802  1.00  0.00    -0.360 N 
HETATM   16  C   UNL     1      13.603   6.399  16.018  1.00  0.00     0.218 C 
HETATM   17  H   UNL     1      11.693   7.116  16.519  1.00  0.00     0.162 HD
HETATM   18  O   UNL     1      14.214   6.393  17.075  1.00  0.00    -0.274 OA
HETATM   19  C   UNL     1      14.170   6.001  14.677  1.00  0.00     0.113 C 
ENDBRANCH   9  13
BRANCH  12  20
HETATM   20  O   UNL     1      13.655   6.112   8.211  1.00  0.00    -0.353 OA
HETATM   21  C   UNL     1      12.474   6.178   7.414  1.00  0.00     0.210 C 
ENDBRANCH  12  20
ENDBRANCH   1   7
TORSDOF 4
ENDMDL
MODEL 2
REMARK VINA RESULT:      -8.7      1.098      3.944
REMARK  4 active torsions:
REMARK  status: ('A' for Active; 'I' for Inactive)
REMARK    1  A    between atoms: O_1  and  C_5 
REMARK    2  A    between atoms: O_1  and  C_14 
REMARK    3  A    between atoms: O_2  and  C_18 
REMARK    4  A    between atoms: C_10  and  C_13 
ROOT
HETATM    1  O   UNL     1      14.043   6.232   9.496  1.00  0.00    -0.343 OA
ENDROOT
BRANCH   1   2
HETATM    2  C   UNL     1      12.642   5.991   9.461  1.00  0.00     0.129 C 
HETATM    3  C   UNL     1      12.386   4.547   9.059  1.00  0.00     0.032 C 
HETATM    4  C   UNL     1      12.548   4.538   7.540  1.00  0.00     0.002 C 
HETATM    5  C   UNL     1      12.327   5.978   7.078  1.00  0.00     0.002 C 
HETATM    6  C   UNL     1      11.996   6.781   8.334  1.00  0.00     0.032 C 
ENDBRANCH   1   2
BRANCH   1   7
HETATM    7  C   UNL     1      14.675   6.038  10.696  1.00  0.00     0.103 A 
HETATM    8  C   UNL     1      13.911   5.924  11.853  1.00  0.00     0.047 A 
HETATM    9  C   UNL     1      14.541   5.728  13.081  1.00  0.00    -0.049 A 
HETATM   10  C   UNL     1      15.932   5.646  13.147  1.00  0.00     0.010 A 
HETATM   11  C   UNL     1      16.692   5.760  11.983  1.00  0.00     0.040 A 
HETATM   12  C   UNL     1      16.061   5.958  10.754  1.00  0.00     0.101 A 
BRANCH   9  13
HETATM   13  C   UNL     1      13.716   5.603  14.344  1.00  0.00     0.045 C 
HETATM   14  C   UNL     1      12.378   6.344  14.342  1.00  0.00     0.132 C 
HETATM   15  N   UNL     1      12.077   6.512  15.736  1.00  0.00    -0.360 N 
HETATM   16  C   UNL     1      13.205   6.409  16.540  1.00  0.00     0.218 C 
HETATM   17  H   UNL     1      11.172   6.682  16.083  1.00  0.00     0.162 HD
HETATM   18  O   UNL     1      13.267   6.551  17.752  1.00  0.00    -0.274 OA
HETATM   19  C   UNL     1      14.376   6.137  15.630  1.00  0.00     0.113 C 
ENDBRANCH   9  13
BRANCH  12  20
HETATM   20  O   UNL     1      16.815   6.069   9.625  1.00  0.00    -0.353 OA
HETATM   21  C   UNL     1      18.230   5.978   9.779  1.00  0.00     0.210 C 
ENDBRANCH  12  20
ENDBRANCH   1   7
TORSDOF 4
ENDMDL
MODEL 3
REMARK VINA RESULT:      -7.5      2.478      5.357
REMARK  4 active torsions:
REMARK  status: ('A' for Active; 'I' for Inactive)
REMARK    1  A    between atoms: O_1  and  C_5 
REMARK    2  A    between atoms: O_1  and  C_14 
REMARK    3  A    between atoms: O_2  and  C_18 
REMARK    4  A    between atoms: C_10  and  C_13 
ROOT
HETATM    1  O   UNL     1      16.184   5.068  13.750  1.00  0.00    -0.343 OA
ENDROOT
BRANCH   1   2
HETATM    2  C   UNL     1      17.220   6.001  13.470  1.00  0.00     0.129 C 
HETATM    3  C   UNL     1      18.135   5.436  12.394  1.00  0.00     0.032 C 
HETATM    4  C   UNL     1      19.046   4.463  13.141  1.00  0.00     0.002 C 
HETATM    5  C   UNL     1      19.029   4.898  14.606  1.00  0.00     0.002 C 
HETATM    6  C   UNL     1      18.145   6.141  14.669  1.00  0.00     0.032 C 
ENDBRANCH   1   2
BRANCH   1   7
HETATM    7  C   UNL     1      14.898   5.488  13.534  1.00  0.00     0.103 A 
HETATM    8  C   UNL     1      14.431   5.598  12.228  1.00  0.00     0.047 A 
HETATM    9  C   UNL     1      13.125   6.026  11.994  1.00  0.00    -0.049 A 
HETATM   10  C   UNL     1      12.292   6.343  13.067  1.00  0.00     0.010 A 
HETATM   11  C   UNL     1      12.766   6.230  14.374  1.00  0.00     0.040 A 
HETATM   12  C   UNL     1      14.073   5.802  14.608  1.00  0.00     0.101 A 
BRANCH   9  13
HETATM   13  C   UNL     1      12.611   6.147  10.576  1.00  0.00     0.045 C 
HETATM   14  C   UNL     1      11.920   4.906  10.009  1.00  0.00     0.132 C 
HETATM   15  N   UNL     1      12.018   5.078   8.587  1.00  0.00    -0.360 N 
HETATM   16  C   UNL     1      13.030   5.958   8.225  1.00  0.00     0.218 C 
HETATM   17  H   UNL     1      11.433   4.623   7.940  1.00  0.00     0.162 HD
HETATM   18  O   UNL     1      13.377   6.265   7.096  1.00  0.00    -0.274 OA
HETATM   19  C   UNL     1      13.675   6.441   9.501  1.00  0.00     0.113 C 
ENDBRANCH   9  13
BRANCH  12  20
HETATM   20  O   UNL     1      14.525   5.698  15.889  1.00  0.00    -0.353 OA
HETATM   21  C   UNL     1      14.989   6.894  16.512  1.00  0.00     0.210 C 
ENDBRANCH  12  20
ENDBRANCH   1   7
TORSDOF 4
ENDMDL
MODEL 4
REMARK VINA RESULT:      -7.4      2.639      5.964
REMARK  4 active torsions:
REMARK  status: ('A' for Active; 'I' for Inactive)
REMARK    1  A    between atoms: O_1  and  C_5 
REMARK    2  A    between atoms: O_1  and  C_14 
REMARK    3  A    between atoms: O_2  and  C_18 
REMARK    4  A    between atoms: C_10  and  C_13 
ROOT
HETATM    1  O   UNL     1      16.298   6.169  14.514  1.00  0.00    -0.343 OA
ENDROOT
BRANCH   1   2
HETATM    2  C   UNL     1      15.429   5.308  15.237  1.00  0.00     0.129 C 
HETATM    3  C   UNL     1      15.535   5.611  16.724  1.00  0.00     0.032 C 
HETATM    4  C   UNL     1      16.810   4.898  17.170  1.00  0.00     0.002 C 
HETATM    5  C   UNL     1      17.069   3.799  16.140  1.00  0.00     0.002 C 
HETATM    6  C   UNL     1      15.912   3.869  15.146  1.00  0.00     0.032 C 
ENDBRANCH   1   2
BRANCH   1   7
HETATM    7  C   UNL     1      16.272   6.069  13.148  1.00  0.00     0.103 A 
HETATM    8  C   UNL     1      15.058   6.200  12.482  1.00  0.00     0.047 A 
HETATM    9  C   UNL     1      15.018   6.099  11.092  1.00  0.00    -0.049 A 
HETATM   10  C   UNL     1      16.192   5.867  10.375  1.00  0.00     0.010 A 
HETATM   11  C   UNL     1      17.406   5.738  11.049  1.00  0.00     0.040 A 
HETATM   12  C   UNL     1      17.446   5.838  12.440  1.00  0.00     0.101 A 
BRANCH   9  13
HETATM   13  C   UNL     1      13.701   6.241  10.361  1.00  0.00     0.045 C 
HETATM   14  C   UNL     1      12.588   5.288  10.800  1.00  0.00     0.132 C 
HETATM   15  N   UNL     1      11.703   5.249   9.671  1.00  0.00    -0.360 N 
HETATM   16  C   UNL     1      12.324   5.645   8.493  1.00  0.00     0.218 C 
HETATM   17  H   UNL     1      10.760   4.973   9.724  1.00  0.00     0.162 HD
HETATM   18  O   UNL     1      11.841   5.671   7.372  1.00  0.00    -0.274 OA
HETATM   19  C   UNL     1      13.750   5.995   8.840  1.00  0.00     0.113 C 
ENDBRANCH   9  13
BRANCH  12  20
HETATM   20  O   UNL     1      18.638   5.708  13.087  1.00  0.00    -0.353 OA
HETATM   21  C   UNL     1      19.221   4.406  13.115  1.00  0.00     0.210 C 
ENDBRANCH  12  20
ENDBRANCH   1   7
TORSDOF 4
ENDMDL
MODEL 5
REMARK VINA RESULT:      -7.3      3.510      6.110
REMARK  4 active torsions:
REMARK  status: ('A' for Active; 'I' for Inactive)
REMARK    1  A    between atoms: O_1  and  C_5 
REMARK    2  A    between atoms: O_1  and  C_14 
REMARK    3  A    between atoms: O_2  and  C_18 
REMARK    4  A    between atoms: C_10  and  C_13 
ROOT
HETATM    1  O   UNL     1      17.881   4.595  15.036  1.00  0.00    -0.343 OA
ENDROOT
BRANCH   1   2
HETATM    2  C   UNL     1      17.038   3.584  15.575  1.00  0.00     0.129 C 
HETATM    3  C   UNL     1      17.203   3.540  17.087  1.00  0.00     0.032 C 
HETATM    4  C   UNL     1      18.493   2.752  17.308  1.00  0.00     0.002 C 
HETATM    5  C   UNL     1      18.709   1.920  16.045  1.00  0.00     0.002 C 
HETATM    6  C   UNL     1      17.514   2.208  15.138  1.00  0.00     0.032 C 
ENDBRANCH   1   2
BRANCH   1   7
HETATM    7  C   UNL     1      17.627   4.989  13.749  1.00  0.00     0.103 A 
HETATM    8  C   UNL     1      16.353   5.438  13.417  1.00  0.00     0.047 A 
HETATM    9  C   UNL     1      16.081   5.841  12.110  1.00  0.00    -0.049 A 
HETATM   10  C   UNL     1      17.084   5.794  11.142  1.00  0.00     0.010 A 
HETATM   11  C   UNL     1      18.360   5.345  11.482  1.00  0.00     0.040 A 
HETATM   12  C   UNL     1      18.632   4.940  12.789  1.00  0.00     0.101 A 
BRANCH   9  13
HETATM   13  C   UNL     1      14.697   6.330  11.742  1.00  0.00     0.045 C 
HETATM   14  C   UNL     1      13.535   5.661  12.478  1.00  0.00     0.132 C 
HETATM   15  N   UNL     1      12.408   5.886  11.617  1.00  0.00    -0.360 N 
HETATM   16  C   UNL     1      12.784   6.166  10.310  1.00  0.00     0.218 C 
HETATM   17  H   UNL     1      11.473   5.847  11.920  1.00  0.00     0.162 HD
HETATM   18  O   UNL     1      12.051   6.355   9.352  1.00  0.00    -0.274 OA
HETATM   19  C   UNL     1      14.291   6.143  10.267  1.00  0.00     0.113 C 
ENDBRANCH   9  13
BRANCH  12  20
HETATM   20  O   UNL     1      19.881   4.501  13.109  1.00  0.00    -0.353 OA
HETATM   21  C   UNL     1      20.206   3.158  12.753  1.00  0.00     0.210 C 
ENDBRANCH  12  20
ENDBRANCH   1   7
TORSDOF 4
ENDMDL
MODEL 6
REMARK VINA RESULT:      -7.3      2.833      5.928
REMARK  4 active torsions:
REMARK  status: ('A' for Active; 'I' for Inactive)
REMARK    1  A    between atoms: O_1  and  C_5 
REMARK    2  A    between atoms: O_1  and  C_14 
REMARK    3  A    between atoms: O_2  and  C_18 
REMARK    4  A    between atoms: C_10  and  C_13 
ROOT
HETATM    1  O   UNL     1      16.517   5.272  14.829  1.00  0.00    -0.343 OA
ENDROOT
BRANCH   1   2
HETATM    2  C   UNL     1      16.416   6.426  15.654  1.00  0.00     0.129 C 
HETATM    3  C   UNL     1      17.809   6.961  15.949  1.00  0.00     0.032 C 
HETATM    4  C   UNL     1      18.336   6.060  17.065  1.00  0.00     0.002 C 
HETATM    5  C   UNL     1      17.108   5.451  17.740  1.00  0.00     0.002 C 
HETATM    6  C   UNL     1      15.895   6.049  17.032  1.00  0.00     0.032 C 
ENDBRANCH   1   2
BRANCH   1   7
HETATM    7  C   UNL     1      16.492   5.476  13.475  1.00  0.00     0.103 A 
HETATM    8  C   UNL     1      15.287   5.801  12.860  1.00  0.00     0.047 A 
HETATM    9  C   UNL     1      15.248   6.010  11.483  1.00  0.00    -0.049 A 
HETATM   10  C   UNL     1      16.413   5.893  10.725  1.00  0.00     0.010 A 
HETATM   11  C   UNL     1      17.618   5.569  11.348  1.00  0.00     0.040 A 
HETATM   12  C   UNL     1      17.658   5.358  12.726  1.00  0.00     0.101 A 
BRANCH   9  13
HETATM   13  C   UNL     1      13.940   6.364  10.808  1.00  0.00     0.045 C 
HETATM   14  C   UNL     1      12.703   5.621  11.318  1.00  0.00     0.132 C 
HETATM   15  N   UNL     1      11.772   5.718  10.231  1.00  0.00    -0.360 N 
HETATM   16  C   UNL     1      12.394   5.984   9.018  1.00  0.00     0.218 C 
HETATM   17  H   UNL     1      10.799   5.607  10.333  1.00  0.00     0.162 HD
HETATM   18  O   UNL     1      11.869   6.076   7.919  1.00  0.00    -0.274 OA
HETATM   19  C   UNL     1      13.873   6.091   9.293  1.00  0.00     0.113 C 
ENDBRANCH   9  13
BRANCH  12  20
HETATM   20  O   UNL     1      18.841   5.040  13.322  1.00  0.00    -0.353 OA
HETATM   21  C   UNL     1      19.736   4.212  12.582  1.00  0.00     0.210 C 
ENDBRANCH  12  20
ENDBRANCH   1   7
TORSDOF 4
ENDMDL
MODEL 7
REMARK VINA RESULT:      -7.3      2.646      5.547
REMARK  4 active torsions:
REMARK  status: ('A' for Active; 'I' for Inactive)
REMARK    1  A    between atoms: O_1  and  C_5 
REMARK    2  A    between atoms: O_1  and  C_14 
REMARK    3  A    between atoms: O_2  and  C_18 
REMARK    4  A    between atoms: C_10  and  C_13 
ROOT
HETATM    1  O   UNL     1      15.926   6.437  13.196  1.00  0.00    -0.343 OA
ENDROOT
BRANCH   1   2
HETATM    2  C   UNL     1      16.622   5.200  13.107  1.00  0.00     0.129 C 
HETATM    3  C   UNL     1      16.417   4.410  14.391  1.00  0.00     0.032 C 
HETATM    4  C   UNL     1      17.400   5.030  15.382  1.00  0.00     0.002 C 
HETATM    5  C   UNL     1      18.479   5.715  14.545  1.00  0.00     0.002 C 
HETATM    6  C   UNL     1      18.124   5.437  13.086  1.00  0.00     0.032 C 
ENDBRANCH   1   2
BRANCH   1   7
HETATM    7  C   UNL     1      14.570   6.398  13.007  1.00  0.00     0.103 A 
HETATM    8  C   UNL     1      14.069   6.166  11.730  1.00  0.00     0.047 A 
HETATM    9  C   UNL     1      12.691   6.125  11.525  1.00  0.00    -0.049 A 
HETATM   10  C   UNL     1      11.819   6.316  12.596  1.00  0.00     0.010 A 
HETATM   11  C   UNL     1      12.328   6.547  13.875  1.00  0.00     0.040 A 
HETATM   12  C   UNL     1      13.707   6.589  14.081  1.00  0.00     0.101 A 
BRANCH   9  13
HETATM   13  C   UNL     1      12.140   5.874  10.138  1.00  0.00     0.045 C 
HETATM   14  C   UNL     1      12.179   4.422   9.658  1.00  0.00     0.132 C 
HETATM   15  N   UNL     1      12.124   4.532   8.227  1.00  0.00    -0.360 N 
HETATM   16  C   UNL     1      12.515   5.784   7.773  1.00  0.00     0.218 C 
HETATM   17  H   UNL     1      11.840   3.799   7.634  1.00  0.00     0.162 HD
HETATM   18  O   UNL     1      12.612   6.157   6.615  1.00  0.00    -0.274 OA
HETATM   19  C   UNL     1      12.857   6.610   8.989  1.00  0.00     0.113 C 
ENDBRANCH   9  13
BRANCH  12  20
HETATM   20  O   UNL     1      14.190   6.817  15.334  1.00  0.00    -0.353 OA
HETATM   21  C   UNL     1      13.384   6.384  16.428  1.00  0.00     0.210 C 
ENDBRANCH  12  20
ENDBRANCH   1   7
TORSDOF 4
ENDMDL
MODEL 8
REMARK VINA RESULT:      -7.3      2.437      6.315
REMARK  4 active torsions:
REMARK  status: ('A' for Active; 'I' for Inactive)
REMARK    1  A    between atoms: O_1  and  C_5 
REMARK    2  A    between atoms: O_1  and  C_14 
REMARK    3  A    between atoms: O_2  and  C_18 
REMARK    4  A    between atoms: C_10  and  C_13 
ROOT
HETATM    1  O   UNL     1      15.129   5.667  14.511  1.00  0.00    -0.343 OA
ENDROOT
BRANCH   1   2
HETATM    2  C   UNL     1      14.923   6.868  15.244  1.00  0.00     0.129 C 
HETATM    3  C   UNL     1      14.625   6.530  16.697  1.00  0.00     0.032 C 
HETATM    4  C   UNL     1      13.151   6.131  16.702  1.00  0.00     0.002 C 
HETATM    5  C   UNL     1      12.530   6.766  15.458  1.00  0.00     0.002 C 
HETATM    6  C   UNL     1      13.649   7.558  14.784  1.00  0.00     0.032 C 
ENDBRANCH   1   2
BRANCH   1   7
HETATM    7  C   UNL     1      15.387   5.796  13.172  1.00  0.00     0.103 A 
HETATM    8  C   UNL     1      14.322   5.916  12.285  1.00  0.00     0.047 A 
HETATM    9  C   UNL     1      14.571   6.047  10.919  1.00  0.00    -0.049 A 
HETATM   10  C   UNL     1      15.883   6.057  10.447  1.00  0.00     0.010 A 
HETATM   11  C   UNL     1      16.946   5.938  11.342  1.00  0.00     0.040 A 
HETATM   12  C   UNL     1      16.697   5.806  12.708  1.00  0.00     0.101 A 
BRANCH   9  13
HETATM   13  C   UNL     1      13.417   6.177   9.949  1.00  0.00     0.045 C 
HETATM   14  C   UNL     1      12.439   5.001   9.912  1.00  0.00     0.132 C 
HETATM   15  N   UNL     1      11.813   5.115   8.626  1.00  0.00    -0.360 N 
HETATM   16  C   UNL     1      12.564   5.867   7.732  1.00  0.00     0.218 C 
HETATM   17  H   UNL     1      10.946   4.706   8.402  1.00  0.00     0.162 HD
HETATM   18  O   UNL     1      12.311   6.098   6.560  1.00  0.00    -0.274 OA
HETATM   19  C   UNL     1      13.804   6.318   8.464  1.00  0.00     0.113 C 
ENDBRANCH   9  13
BRANCH  12  20
HETATM   20  O   UNL     1      17.744   5.689  13.571  1.00  0.00    -0.353 OA
HETATM   21  C   UNL     1      18.644   4.603  13.354  1.00  0.00     0.210 C 
ENDBRANCH  12  20
ENDBRANCH   1   7
TORSDOF 4
ENDMDL
MODEL 9
REMARK VINA RESULT:      -7.2      2.853      4.144
REMARK  4 active torsions:
REMARK  status: ('A' for Active; 'I' for Inactive)
REMARK    1  A    between atoms: O_1  and  C_5 
REMARK    2  A    between atoms: O_1  and  C_14 
REMARK    3  A    between atoms: O_2  and  C_18 
REMARK    4  A    between atoms: C_10  and  C_13 
ROOT
HETATM    1  O   UNL     1      18.618   5.011  13.341  1.00  0.00    -0.343 OA
ENDROOT
BRANCH   1   2
HETATM    2  C   UNL     1      18.479   4.362  14.599  1.00  0.00     0.129 C 
HETATM    3  C   UNL     1      19.654   4.732  15.492  1.00  0.00     0.032 C 
HETATM    4  C   UNL     1      20.793   3.832  15.017  1.00  0.00     0.002 C 
HETATM    5  C   UNL     1      20.137   2.644  14.315  1.00  0.00     0.002 C 
HETATM    6  C   UNL     1      18.630   2.858  14.439  1.00  0.00     0.032 C 
ENDBRANCH   1   2
BRANCH   1   7
HETATM    7  C   UNL     1      17.461   5.337  12.684  1.00  0.00     0.103 A 
HETATM    8  C   UNL     1      16.257   5.319  13.380  1.00  0.00     0.047 A 
HETATM    9  C   UNL     1      15.073   5.648  12.722  1.00  0.00    -0.049 A 
HETATM   10  C   UNL     1      15.098   5.993  11.371  1.00  0.00     0.010 A 
HETATM   11  C   UNL     1      16.309   6.010  10.679  1.00  0.00     0.040 A 
HETATM   12  C   UNL     1      17.494   5.680  11.337  1.00  0.00     0.101 A 
BRANCH   9  13
HETATM   13  C   UNL     1      13.760   5.631  13.473  1.00  0.00     0.045 C 
HETATM   14  C   UNL     1      12.580   6.305  12.771  1.00  0.00     0.132 C 
HETATM   15  N   UNL     1      11.676   6.618  13.841  1.00  0.00    -0.360 N 
HETATM   16  C   UNL     1      12.308   6.658  15.077  1.00  0.00     0.218 C 
HETATM   17  H   UNL     1      10.715   6.785  13.713  1.00  0.00     0.162 HD
HETATM   18  O   UNL     1      11.810   6.940  16.156  1.00  0.00    -0.274 OA
HETATM   19  C   UNL     1      13.763   6.337  14.843  1.00  0.00     0.113 C 
ENDBRANCH   9  13
BRANCH  12  20
HETATM   20  O   UNL     1      18.670   5.699  10.649  1.00  0.00    -0.353 OA
HETATM   21  C   UNL     1      18.664   6.336   9.373  1.00  0.00     0.210 C 
ENDBRANCH  12  20
ENDBRANCH   1   7
TORSDOF 4
ENDMDL
