MODEL 1
REMARK VINA RESULT:      -8.9      0.000      0.000
REMARK  4 active torsions:
REMARK  status: ('A' for Active; 'I' for Inactive)
REMARK    1  A    between atoms: O_1  and  C_5 
REMARK    2  A    between atoms: O_1  and  C_14 
REMARK    3  A    between atoms: O_2  and  C_18 
REMARK    4  A    between atoms: C_10  and  C_13 
ROOT
HETATM    1  O   UNL     1      15.812   6.403   9.897  1.00  0.00    -0.343 OA
ENDROOT
BRANCH   1   2
HETATM    2  C   UNL     1      16.781   6.918  10.802  1.00  0.00     0.129 C 
HETATM    3  C   UNL     1      17.731   7.841  10.054  1.00  0.00     0.032 C 
HETATM    4  C   UNL     1      18.708   6.897   9.355  1.00  0.00     0.002 C 
HETATM    5  C   UNL     1      18.663   5.581  10.130  1.00  0.00     0.002 C 
HETATM    6  C   UNL     1      17.695   5.806  11.290  1.00  0.00     0.032 C 
ENDBRANCH   1   2
BRANCH   1   7
HETATM    7  C   UNL     1      14.559   6.170  10.401  1.00  0.00     0.103 A 
HETATM    8  C   UNL     1      14.387   6.083  11.779  1.00  0.00     0.047 A 
HETATM    9  C   UNL     1      13.118   5.845  12.303  1.00  0.00    -0.049 A 
HETATM   10  C   UNL     1      12.026   5.695  11.448  1.00  0.00     0.010 A 
HETATM   11  C   UNL     1      12.205   5.784  10.068  1.00  0.00     0.040 A 
HETATM   12  C   UNL     1      13.475   6.021   9.543  1.00  0.00     0.101 A 
BRANCH   9  13
HETATM   13  C   UNL     1      12.924   5.750  13.801  1.00  0.00     0.045 C 
HETATM   14  C   UNL     1      11.914   6.726  14.406  1.00  0.00     0.132 C 
HETATM   15  N   UNL     1      12.298   6.805  15.787  1.00  0.00    -0.360 N 
HETATM   16  C   UNL     1      13.612   6.410  15.998  1.00  0.00     0.218 C 
HETATM   17  H   UNL     1      11.696   7.106  16.505  1.00  0.00     0.162 HD
HETATM   18  O   UNL     1      14.228   6.413  17.053  1.00  0.00    -0.274 OA
HETATM   19  C   UNL     1      14.178   6.015  14.657  1.00  0.00     0.113 C 
ENDBRANCH   9  13
BRANCH  12  20
HETATM   20  O   UNL     1      13.637   6.104   8.193  1.00  0.00    -0.353 OA
HETATM   21  C   UNL     1      12.453   6.125   7.398  1.00  0.00     0.210 C 
ENDBRANCH  12  20
ENDBRANCH   1   7
TORSDOF 4
ENDMDL
MODEL 2
REMARK VINA RESULT:      -8.8      1.101      3.944
REMARK  4 active torsions:
REMARK  status: ('A' for Active; 'I' for Inactive)
REMARK    1  A    between atoms: O_1  and  C_5 
REMARK    2  A    between atoms: O_1  and  C_14 
REMARK    3  A    between atoms: O_2  and  C_18 
REMARK    4  A    between atoms: C_10  and  C_13 
ROOT
HETATM    1  O   UNL     1      14.023   6.222   9.463  1.00  0.00    -0.343 OA
ENDROOT
BRANCH   1   2
HETATM    2  C   UNL     1      12.620   5.990   9.419  1.00  0.00     0.129 C 
HETATM    3  C   UNL     1      12.358   4.541   9.038  1.00  0.00     0.032 C 
HETATM    4  C   UNL     1      12.534   4.507   7.521  1.00  0.00     0.002 C 
HETATM    5  C   UNL     1      12.328   5.940   7.033  1.00  0.00     0.002 C 
HETATM    6  C   UNL     1      11.991   6.766   8.273  1.00  0.00     0.032 C 
ENDBRANCH   1   2
BRANCH   1   7
HETATM    7  C   UNL     1      14.641   6.045  10.673  1.00  0.00     0.103 A 
HETATM    8  C   UNL     1      13.863   5.915  11.819  1.00  0.00     0.047 A 
HETATM    9  C   UNL     1      14.480   5.737  13.056  1.00  0.00    -0.049 A 
HETATM   10  C   UNL     1      15.871   5.689  13.143  1.00  0.00     0.010 A 
HETATM   11  C   UNL     1      16.645   5.819  11.989  1.00  0.00     0.040 A 
HETATM   12  C   UNL     1      16.028   5.998  10.751  1.00  0.00     0.101 A 
BRANCH   9  13
HETATM   13  C   UNL     1      13.639   5.595  14.307  1.00  0.00     0.045 C 
HETATM   14  C   UNL     1      12.286   6.309  14.287  1.00  0.00     0.132 C 
HETATM   15  N   UNL     1      11.963   6.471  15.676  1.00  0.00    -0.360 N 
HETATM   16  C   UNL     1      13.080   6.390  16.496  1.00  0.00     0.218 C 
HETATM   17  H   UNL     1      11.049   6.622  16.010  1.00  0.00     0.162 HD
HETATM   18  O   UNL     1      13.123   6.533  17.708  1.00  0.00    -0.274 OA
HETATM   19  C   UNL     1      14.270   6.142  15.603  1.00  0.00     0.113 C 
ENDBRANCH   9  13
BRANCH  12  20
HETATM   20  O   UNL     1      16.795   6.125   9.633  1.00  0.00    -0.353 OA
HETATM   21  C   UNL     1      18.204   5.963   9.791  1.00  0.00     0.210 C 
ENDBRANCH  12  20
ENDBRANCH   1   7
TORSDOF 4
ENDMDL
MODEL 3
REMARK VINA RESULT:      -7.6      2.458      5.347
REMARK  4 active torsions:
REMARK  status: ('A' for Active; 'I' for Inactive)
REMARK    1  A    between atoms: O_1  and  C_5 
REMARK    2  A    between atoms: O_1  and  C_14 
REMARK    3  A    between atoms: O_2  and  C_18 
REMARK    4  A    between atoms: C_10  and  C_13 
ROOT
HETATM    1  O   UNL     1      15.994   5.190  13.452  1.00  0.00    -0.343 OA
ENDROOT
BRANCH   1   2
HETATM    2  C   UNL     1      17.020   6.152  13.243  1.00  0.00     0.129 C 
HETATM    3  C   UNL     1      17.942   5.676  12.131  1.00  0.00     0.032 C 
HETATM    4  C   UNL     1      18.863   4.662  12.806  1.00  0.00     0.002 C 
HETATM    5  C   UNL     1      18.840   4.988  14.298  1.00  0.00     0.002 C 
HETATM    6  C   UNL     1      17.942   6.214  14.450  1.00  0.00     0.032 C 
ENDBRANCH   1   2
BRANCH   1   7
HETATM    7  C   UNL     1      14.709   5.590  13.193  1.00  0.00     0.103 A 
HETATM    8  C   UNL     1      14.244   5.567  11.882  1.00  0.00     0.047 A 
HETATM    9  C   UNL     1      12.939   5.973  11.604  1.00  0.00    -0.049 A 
HETATM   10  C   UNL     1      12.106   6.400  12.638  1.00  0.00     0.010 A 
HETATM   11  C   UNL     1      12.579   6.420  13.950  1.00  0.00     0.040 A 
HETATM   12  C   UNL     1      13.884   6.014  14.228  1.00  0.00     0.101 A 
BRANCH   9  13
HETATM   13  C   UNL     1      12.426   5.950  10.181  1.00  0.00     0.045 C 
HETATM   14  C   UNL     1      12.077   4.570   9.620  1.00  0.00     0.132 C 
HETATM   15  N   UNL     1      12.144   4.751   8.197  1.00  0.00    -0.360 N 
HETATM   16  C   UNL     1      12.905   5.855   7.836  1.00  0.00     0.218 C 
HETATM   17  H   UNL     1      11.700   4.158   7.549  1.00  0.00     0.162 HD
HETATM   18  O   UNL     1      13.177   6.232   6.706  1.00  0.00    -0.274 OA
HETATM   19  C   UNL     1      13.394   6.494   9.112  1.00  0.00     0.113 C 
ENDBRANCH   9  13
BRANCH  12  20
HETATM   20  O   UNL     1      14.335   6.040  15.514  1.00  0.00    -0.353 OA
HETATM   21  C   UNL     1      13.374   6.318  16.531  1.00  0.00     0.210 C 
ENDBRANCH  12  20
ENDBRANCH   1   7
TORSDOF 4
ENDMDL
MODEL 4
REMARK VINA RESULT:      -7.4      3.009      5.547
REMARK  4 active torsions:
REMARK  status: ('A' for Active; 'I' for Inactive)
REMARK    1  A    between atoms: O_1  and  C_5 
REMARK    2  A    between atoms: O_1  and  C_14 
REMARK    3  A    between atoms: O_2  and  C_18 
REMARK    4  A    between atoms: C_10  and  C_13 
ROOT
HETATM    1  O   UNL     1      13.832   6.430   9.830  1.00  0.00    -0.343 OA
ENDROOT
BRANCH   1   2
HETATM    2  C   UNL     1      12.492   5.972   9.696  1.00  0.00     0.129 C 
HETATM    3  C   UNL     1      12.495   4.549   9.160  1.00  0.00     0.032 C 
HETATM    4  C   UNL     1      12.720   4.707   7.657  1.00  0.00     0.002 C 
HETATM    5  C   UNL     1      12.284   6.129   7.306  1.00  0.00     0.002 C 
HETATM    6  C   UNL     1      11.773   6.749   8.605  1.00  0.00     0.032 C 
ENDBRANCH   1   2
BRANCH   1   7
HETATM    7  C   UNL     1      14.440   6.216  11.039  1.00  0.00     0.103 A 
HETATM    8  C   UNL     1      15.818   6.028  11.081  1.00  0.00     0.047 A 
HETATM    9  C   UNL     1      16.448   5.808  12.304  1.00  0.00    -0.049 A 
HETATM   10  C   UNL     1      15.699   5.777  13.480  1.00  0.00     0.010 A 
HETATM   11  C   UNL     1      14.318   5.968  13.432  1.00  0.00     0.040 A 
HETATM   12  C   UNL     1      13.687   6.187  12.207  1.00  0.00     0.101 A 
BRANCH   9  13
HETATM   13  C   UNL     1      17.947   5.603  12.357  1.00  0.00     0.045 C 
HETATM   14  C   UNL     1      18.619   5.246  11.030  1.00  0.00     0.132 C 
HETATM   15  N   UNL     1      19.843   4.610  11.425  1.00  0.00    -0.360 N 
HETATM   16  C   UNL     1      19.798   4.128  12.727  1.00  0.00     0.218 C 
HETATM   17  H   UNL     1      20.629   4.524  10.839  1.00  0.00     0.162 HD
HETATM   18  O   UNL     1      20.666   3.507  13.319  1.00  0.00    -0.274 OA
HETATM   19  C   UNL     1      18.436   4.469  13.279  1.00  0.00     0.113 C 
ENDBRANCH   9  13
BRANCH  12  20
HETATM   20  O   UNL     1      12.337   6.369  12.173  1.00  0.00    -0.353 OA
HETATM   21  C   UNL     1      11.698   6.708  13.402  1.00  0.00     0.210 C 
ENDBRANCH  12  20
ENDBRANCH   1   7
TORSDOF 4
ENDMDL
MODEL 5
REMARK VINA RESULT:      -7.4      2.292      5.193
REMARK  4 active torsions:
REMARK  status: ('A' for Active; 'I' for Inactive)
REMARK    1  A    between atoms: O_1  and  C_5 
REMARK    2  A    between atoms: O_1  and  C_14 
REMARK    3  A    between atoms: O_2  and  C_18 
REMARK    4  A    between atoms: C_10  and  C_13 
ROOT
HETATM    1  O   UNL     1      15.948   6.474  12.608  1.00  0.00    -0.343 OA
ENDROOT
BRANCH   1   2
HETATM    2  C   UNL     1      16.695   5.576  11.798  1.00  0.00     0.129 C 
HETATM    3  C   UNL     1      18.181   5.784  12.047  1.00  0.00     0.032 C 
HETATM    4  C   UNL     1      18.537   7.018  11.219  1.00  0.00     0.002 C 
HETATM    5  C   UNL     1      17.467   7.131  10.135  1.00  0.00     0.002 C 
HETATM    6  C   UNL     1      16.539   5.933  10.328  1.00  0.00     0.032 C 
ENDBRANCH   1   2
BRANCH   1   7
HETATM    7  C   UNL     1      14.583   6.405  12.512  1.00  0.00     0.103 A 
HETATM    8  C   UNL     1      14.004   6.108  11.283  1.00  0.00     0.047 A 
HETATM    9  C   UNL     1      12.617   6.036  11.172  1.00  0.00    -0.049 A 
HETATM   10  C   UNL     1      11.814   6.260  12.290  1.00  0.00     0.010 A 
HETATM   11  C   UNL     1      12.401   6.556  13.520  1.00  0.00     0.040 A 
HETATM   12  C   UNL     1      13.789   6.630  13.631  1.00  0.00     0.101 A 
BRANCH   9  13
HETATM   13  C   UNL     1      11.980   5.713   9.837  1.00  0.00     0.045 C 
HETATM   14  C   UNL     1      12.277   4.322   9.275  1.00  0.00     0.132 C 
HETATM   15  N   UNL     1      12.039   4.462   7.866  1.00  0.00    -0.360 N 
HETATM   16  C   UNL     1      12.096   5.784   7.445  1.00  0.00     0.218 C 
HETATM   17  H   UNL     1      11.855   3.705   7.265  1.00  0.00     0.162 HD
HETATM   18  O   UNL     1      11.980   6.206   6.305  1.00  0.00    -0.274 OA
HETATM   19  C   UNL     1      12.387   6.626   8.663  1.00  0.00     0.113 C 
ENDBRANCH   9  13
BRANCH  12  20
HETATM   20  O   UNL     1      14.350   6.921  14.838  1.00  0.00    -0.353 OA
HETATM   21  C   UNL     1      13.929   6.139  15.954  1.00  0.00     0.210 C 
ENDBRANCH  12  20
ENDBRANCH   1   7
TORSDOF 4
ENDMDL
MODEL 6
REMARK VINA RESULT:      -7.4      2.841      5.919
REMARK  4 active torsions:
REMARK  status: ('A' for Active; 'I' for Inactive)
REMARK    1  A    between atoms: O_1  and  C_5 
REMARK    2  A    between atoms: O_1  and  C_14 
REMARK    3  A    between atoms: O_2  and  C_18 
REMARK    4  A    between atoms: C_10  and  C_13 
ROOT
HETATM    1  O   UNL     1      16.585   5.199  14.742  1.00  0.00    -0.343 OA
ENDROOT
BRANCH   1   2
HETATM    2  C   UNL     1      16.460   6.326  15.600  1.00  0.00     0.129 C 
HETATM    3  C   UNL     1      17.843   6.858  15.943  1.00  0.00     0.032 C 
HETATM    4  C   UNL     1      18.350   5.925  17.041  1.00  0.00     0.002 C 
HETATM    5  C   UNL     1      17.111   5.289  17.670  1.00  0.00     0.002 C 
HETATM    6  C   UNL     1      15.910   5.902  16.953  1.00  0.00     0.032 C 
ENDBRANCH   1   2
BRANCH   1   7
HETATM    7  C   UNL     1      16.540   5.441  13.394  1.00  0.00     0.103 A 
HETATM    8  C   UNL     1      15.318   5.741  12.800  1.00  0.00     0.047 A 
HETATM    9  C   UNL     1      15.257   5.988  11.430  1.00  0.00    -0.049 A 
HETATM   10  C   UNL     1      16.418   5.933  10.659  1.00  0.00     0.010 A 
HETATM   11  C   UNL     1      17.640   5.633  11.260  1.00  0.00     0.040 A 
HETATM   12  C   UNL     1      17.701   5.385  12.632  1.00  0.00     0.101 A 
BRANCH   9  13
HETATM   13  C   UNL     1      13.932   6.315  10.777  1.00  0.00     0.045 C 
HETATM   14  C   UNL     1      12.725   5.525  11.286  1.00  0.00     0.132 C 
HETATM   15  N   UNL     1      11.777   5.615  10.211  1.00  0.00    -0.360 N 
HETATM   16  C   UNL     1      12.377   5.926   8.997  1.00  0.00     0.218 C 
HETATM   17  H   UNL     1      10.810   5.473  10.322  1.00  0.00     0.162 HD
HETATM   18  O   UNL     1      11.836   6.024   7.907  1.00  0.00    -0.274 OA
HETATM   19  C   UNL     1      13.855   6.073   9.257  1.00  0.00     0.113 C 
ENDBRANCH   9  13
BRANCH  12  20
HETATM   20  O   UNL     1      18.900   5.091  13.207  1.00  0.00    -0.353 OA
HETATM   21  C   UNL     1      19.719   4.130  12.543  1.00  0.00     0.210 C 
ENDBRANCH  12  20
ENDBRANCH   1   7
TORSDOF 4
ENDMDL
MODEL 7
REMARK VINA RESULT:      -7.4      2.524      5.419
REMARK  4 active torsions:
REMARK  status: ('A' for Active; 'I' for Inactive)
REMARK    1  A    between atoms: O_1  and  C_5 
REMARK    2  A    between atoms: O_1  and  C_14 
REMARK    3  A    between atoms: O_2  and  C_18 
REMARK    4  A    between atoms: C_10  and  C_13 
ROOT
HETATM    1  O   UNL     1      16.534   4.953  14.091  1.00  0.00    -0.343 OA
ENDROOT
BRANCH   1   2
HETATM    2  C   UNL     1      17.623   5.825  13.816  1.00  0.00     0.129 C 
HETATM    3  C   UNL     1      18.441   5.265  12.662  1.00  0.00     0.032 C 
HETATM    4  C   UNL     1      19.310   4.182  13.299  1.00  0.00     0.002 C 
HETATM    5  C   UNL     1      19.395   4.521  14.787  1.00  0.00     0.002 C 
HETATM    6  C   UNL     1      18.611   5.819  14.971  1.00  0.00     0.032 C 
ENDBRANCH   1   2
BRANCH   1   7
HETATM    7  C   UNL     1      15.275   5.469  13.932  1.00  0.00     0.103 A 
HETATM    8  C   UNL     1      14.737   5.563  12.652  1.00  0.00     0.047 A 
HETATM    9  C   UNL     1      13.457   6.088  12.477  1.00  0.00    -0.049 A 
HETATM   10  C   UNL     1      12.721   6.515  13.581  1.00  0.00     0.010 A 
HETATM   11  C   UNL     1      13.265   6.417  14.862  1.00  0.00     0.040 A 
HETATM   12  C   UNL     1      14.546   5.893  15.037  1.00  0.00     0.101 A 
BRANCH   9  13
HETATM   13  C   UNL     1      12.867   6.193  11.087  1.00  0.00     0.045 C 
HETATM   14  C   UNL     1      11.914   5.067  10.680  1.00  0.00     0.132 C 
HETATM   15  N   UNL     1      11.933   5.104   9.245  1.00  0.00    -0.360 N 
HETATM   16  C   UNL     1      13.060   5.741   8.743  1.00  0.00     0.218 C 
HETATM   17  H   UNL     1      11.225   4.720   8.680  1.00  0.00     0.162 HD
HETATM   18  O   UNL     1      13.371   5.885   7.571  1.00  0.00    -0.274 OA
HETATM   19  C   UNL     1      13.881   6.190   9.927  1.00  0.00     0.113 C 
ENDBRANCH   9  13
BRANCH  12  20
HETATM   20  O   UNL     1      15.067   5.804  16.293  1.00  0.00    -0.353 OA
HETATM   21  C   UNL     1      15.575   7.006  16.870  1.00  0.00     0.210 C 
ENDBRANCH  12  20
ENDBRANCH   1   7
TORSDOF 4
ENDMDL
MODEL 8
REMARK VINA RESULT:      -7.3      3.514      6.112
REMARK  4 active torsions:
REMARK  status: ('A' for Active; 'I' for Inactive)
REMARK    1  A    between atoms: O_1  and  C_5 
REMARK    2  A    between atoms: O_1  and  C_14 
REMARK    3  A    between atoms: O_2  and  C_18 
REMARK    4  A    between atoms: C_10  and  C_13 
ROOT
HETATM    1  O   UNL     1      17.787   4.633  15.101  1.00  0.00    -0.343 OA
ENDROOT
BRANCH   1   2
HETATM    2  C   UNL     1      17.023   3.534  15.583  1.00  0.00     0.129 C 
HETATM    3  C   UNL     1      17.211   3.407  17.087  1.00  0.00     0.032 C 
HETATM    4  C   UNL     1      18.554   2.699  17.246  1.00  0.00     0.002 C 
HETATM    5  C   UNL     1      18.810   1.964  15.931  1.00  0.00     0.002 C 
HETATM    6  C   UNL     1      17.587   2.225  15.055  1.00  0.00     0.032 C 
ENDBRANCH   1   2
BRANCH   1   7
HETATM    7  C   UNL     1      17.567   5.017  13.805  1.00  0.00     0.103 A 
HETATM    8  C   UNL     1      16.307   5.479  13.439  1.00  0.00     0.047 A 
HETATM    9  C   UNL     1      16.070   5.872  12.123  1.00  0.00    -0.049 A 
HETATM   10  C   UNL     1      17.093   5.802  11.178  1.00  0.00     0.010 A 
HETATM   11  C   UNL     1      18.355   5.339  11.551  1.00  0.00     0.040 A 
HETATM   12  C   UNL     1      18.592   4.945  12.868  1.00  0.00     0.101 A 
BRANCH   9  13
HETATM   13  C   UNL     1      14.701   6.376  11.719  1.00  0.00     0.045 C 
HETATM   14  C   UNL     1      13.518   5.781  12.485  1.00  0.00     0.132 C 
HETATM   15  N   UNL     1      12.402   5.986  11.606  1.00  0.00    -0.360 N 
HETATM   16  C   UNL     1      12.791   6.180  10.287  1.00  0.00     0.218 C 
HETATM   17  H   UNL     1      11.464   5.988  11.905  1.00  0.00     0.162 HD
HETATM   18  O   UNL     1      12.068   6.333   9.315  1.00  0.00    -0.274 OA
HETATM   19  C   UNL     1      14.297   6.115  10.254  1.00  0.00     0.113 C 
ENDBRANCH   9  13
BRANCH  12  20
HETATM   20  O   UNL     1      19.828   4.493  13.220  1.00  0.00    -0.353 OA
HETATM   21  C   UNL     1      20.231   3.230  12.692  1.00  0.00     0.210 C 
ENDBRANCH  12  20
ENDBRANCH   1   7
TORSDOF 4
ENDMDL
MODEL 9
REMARK VINA RESULT:      -7.2      2.810      4.104
REMARK  4 active torsions:
REMARK  status: ('A' for Active; 'I' for Inactive)
REMARK    1  A    between atoms: O_1  and  C_5 
REMARK    2  A    between atoms: O_1  and  C_14 
REMARK    3  A    between atoms: O_2  and  C_18 
REMARK    4  A    between atoms: C_10  and  C_13 
ROOT
HETATM    1  O   UNL     1      18.620   5.048  13.206  1.00  0.00    -0.343 OA
ENDROOT
BRANCH   1   2
HETATM    2  C   UNL     1      18.496   4.418  14.474  1.00  0.00     0.129 C 
HETATM    3  C   UNL     1      19.673   4.812  15.354  1.00  0.00     0.032 C 
HETATM    4  C   UNL     1      20.818   3.916  14.885  1.00  0.00     0.002 C 
HETATM    5  C   UNL     1      20.169   2.711  14.205  1.00  0.00     0.002 C 
HETATM    6  C   UNL     1      18.661   2.912  14.336  1.00  0.00     0.032 C 
ENDBRANCH   1   2
BRANCH   1   7
HETATM    7  C   UNL     1      17.456   5.367  12.558  1.00  0.00     0.103 A 
HETATM    8  C   UNL     1      16.258   5.343  13.264  1.00  0.00     0.047 A 
HETATM    9  C   UNL     1      15.066   5.664  12.616  1.00  0.00    -0.049 A 
HETATM   10  C   UNL     1      15.078   6.008  11.264  1.00  0.00     0.010 A 
HETATM   11  C   UNL     1      16.283   6.032  10.562  1.00  0.00     0.040 A 
HETATM   12  C   UNL     1      17.475   5.709  11.210  1.00  0.00     0.101 A 
BRANCH   9  13
HETATM   13  C   UNL     1      13.759   5.639  13.379  1.00  0.00     0.045 C 
HETATM   14  C   UNL     1      12.567   6.295  12.681  1.00  0.00     0.132 C 
HETATM   15  N   UNL     1      11.669   6.608  13.756  1.00  0.00    -0.360 N 
HETATM   16  C   UNL     1      12.310   6.666  14.986  1.00  0.00     0.218 C 
HETATM   17  H   UNL     1      10.705   6.764  13.635  1.00  0.00     0.162 HD
HETATM   18  O   UNL     1      11.818   6.952  16.067  1.00  0.00    -0.274 OA
HETATM   19  C   UNL     1      13.767   6.358  14.742  1.00  0.00     0.113 C 
ENDBRANCH   9  13
BRANCH  12  20
HETATM   20  O   UNL     1      18.645   5.734  10.513  1.00  0.00    -0.353 OA
HETATM   21  C   UNL     1      18.739   6.669   9.440  1.00  0.00     0.210 C 
ENDBRANCH  12  20
ENDBRANCH   1   7
TORSDOF 4
ENDMDL
