MODEL 1
REMARK VINA RESULT:      -8.9      0.000      0.000
REMARK  4 active torsions:
REMARK  status: ('A' for Active; 'I' for Inactive)
REMARK    1  A    between atoms: O_1  and  C_5 
REMARK    2  A    between atoms: O_1  and  C_14 
REMARK    3  A    between atoms: O_2  and  C_18 
REMARK    4  A    between atoms: C_10  and  C_13 
ROOT
HETATM    1  O   UNL     1      15.863   6.269   9.953  1.00  0.00    -0.343 OA
ENDROOT
BRANCH   1   2
HETATM    2  C   UNL     1      16.830   6.834  10.828  1.00  0.00     0.129 C 
HETATM    3  C   UNL     1      17.721   7.790  10.051  1.00  0.00     0.032 C 
HETATM    4  C   UNL     1      18.721   6.884   9.334  1.00  0.00     0.002 C 
HETATM    5  C   UNL     1      18.752   5.574  10.120  1.00  0.00     0.002 C 
HETATM    6  C   UNL     1      17.804   5.766  11.302  1.00  0.00     0.032 C 
ENDBRANCH   1   2
BRANCH   1   7
HETATM    7  C   UNL     1      14.598   6.106  10.452  1.00  0.00     0.103 A 
HETATM    8  C   UNL     1      14.418   6.018  11.829  1.00  0.00     0.047 A 
HETATM    9  C   UNL     1      13.136   5.850  12.349  1.00  0.00    -0.049 A 
HETATM   10  C   UNL     1      12.039   5.772  11.492  1.00  0.00     0.010 A 
HETATM   11  C   UNL     1      12.226   5.862  10.112  1.00  0.00     0.040 A 
HETATM   12  C   UNL     1      13.508   6.029   9.591  1.00  0.00     0.101 A 
BRANCH   9  13
HETATM   13  C   UNL     1      12.934   5.754  13.846  1.00  0.00     0.045 C 
HETATM   14  C   UNL     1      11.919   6.729  14.447  1.00  0.00     0.132 C 
HETATM   15  N   UNL     1      12.296   6.807  15.830  1.00  0.00    -0.360 N 
HETATM   16  C   UNL     1      13.609   6.413  16.048  1.00  0.00     0.218 C 
HETATM   17  H   UNL     1      11.690   7.108  16.545  1.00  0.00     0.162 HD
HETATM   18  O   UNL     1      14.219   6.415  17.106  1.00  0.00    -0.274 OA
HETATM   19  C   UNL     1      14.183   6.020  14.709  1.00  0.00     0.113 C 
ENDBRANCH   9  13
BRANCH  12  20
HETATM   20  O   UNL     1      13.678   6.114   8.242  1.00  0.00    -0.353 OA
HETATM   21  C   UNL     1      12.501   6.063   7.437  1.00  0.00     0.210 C 
ENDBRANCH  12  20
ENDBRANCH   1   7
TORSDOF 4
ENDMDL
MODEL 2
REMARK VINA RESULT:      -8.7      1.096      3.954
REMARK  4 active torsions:
REMARK  status: ('A' for Active; 'I' for Inactive)
REMARK    1  A    between atoms: O_1  and  C_5 
REMARK    2  A    between atoms: O_1  and  C_14 
REMARK    3  A    between atoms: O_2  and  C_18 
REMARK    4  A    between atoms: C_10  and  C_13 
ROOT
HETATM    1  O   UNL     1      14.050   6.145   9.445  1.00  0.00    -0.343 OA
ENDROOT
BRANCH   1   2
HETATM    2  C   UNL     1      12.642   5.946   9.410  1.00  0.00     0.129 C 
HETATM    3  C   UNL     1      12.343   4.512   9.000  1.00  0.00     0.032 C 
HETATM    4  C   UNL     1      12.504   4.507   7.481  1.00  0.00     0.002 C 
HETATM    5  C   UNL     1      12.327   5.955   7.026  1.00  0.00     0.002 C 
HETATM    6  C   UNL     1      12.020   6.761   8.287  1.00  0.00     0.032 C 
ENDBRANCH   1   2
BRANCH   1   7
HETATM    7  C   UNL     1      14.663   6.006  10.663  1.00  0.00     0.103 A 
HETATM    8  C   UNL     1      13.880   5.877  11.806  1.00  0.00     0.047 A 
HETATM    9  C   UNL     1      14.492   5.737  13.050  1.00  0.00    -0.049 A 
HETATM   10  C   UNL     1      15.883   5.727  13.147  1.00  0.00     0.010 A 
HETATM   11  C   UNL     1      16.662   5.856  11.998  1.00  0.00     0.040 A 
HETATM   12  C   UNL     1      16.050   5.997  10.752  1.00  0.00     0.101 A 
BRANCH   9  13
HETATM   13  C   UNL     1      13.646   5.596  14.297  1.00  0.00     0.045 C 
HETATM   14  C   UNL     1      12.293   6.310  14.271  1.00  0.00     0.132 C 
HETATM   15  N   UNL     1      11.964   6.473  15.658  1.00  0.00    -0.360 N 
HETATM   16  C   UNL     1      13.077   6.392  16.484  1.00  0.00     0.218 C 
HETATM   17  H   UNL     1      11.049   6.625  15.988  1.00  0.00     0.162 HD
HETATM   18  O   UNL     1      13.115   6.535  17.696  1.00  0.00    -0.274 OA
HETATM   19  C   UNL     1      14.271   6.143  15.596  1.00  0.00     0.113 C 
ENDBRANCH   9  13
BRANCH  12  20
HETATM   20  O   UNL     1      16.823   6.124   9.637  1.00  0.00    -0.353 OA
HETATM   21  C   UNL     1      18.230   5.965   9.802  1.00  0.00     0.210 C 
ENDBRANCH  12  20
ENDBRANCH   1   7
TORSDOF 4
ENDMDL
MODEL 3
REMARK VINA RESULT:      -7.5      2.475      5.355
REMARK  4 active torsions:
REMARK  status: ('A' for Active; 'I' for Inactive)
REMARK    1  A    between atoms: O_1  and  C_5 
REMARK    2  A    between atoms: O_1  and  C_14 
REMARK    3  A    between atoms: O_2  and  C_18 
REMARK    4  A    between atoms: C_10  and  C_13 
ROOT
HETATM    1  O   UNL     1      16.241   5.037  13.778  1.00  0.00    -0.343 OA
ENDROOT
BRANCH   1   2
HETATM    2  C   UNL     1      17.270   5.971  13.475  1.00  0.00     0.129 C 
HETATM    3  C   UNL     1      18.177   5.395  12.398  1.00  0.00     0.032 C 
HETATM    4  C   UNL     1      19.100   4.437  13.149  1.00  0.00     0.002 C 
HETATM    5  C   UNL     1      19.095   4.892  14.608  1.00  0.00     0.002 C 
HETATM    6  C   UNL     1      18.206   6.132  14.662  1.00  0.00     0.032 C 
ENDBRANCH   1   2
BRANCH   1   7
HETATM    7  C   UNL     1      14.951   5.451  13.573  1.00  0.00     0.103 A 
HETATM    8  C   UNL     1      14.479   5.580  12.271  1.00  0.00     0.047 A 
HETATM    9  C   UNL     1      13.168   6.001  12.050  1.00  0.00    -0.049 A 
HETATM   10  C   UNL     1      12.337   6.292  13.131  1.00  0.00     0.010 A 
HETATM   11  C   UNL     1      12.816   6.160  14.434  1.00  0.00     0.040 A 
HETATM   12  C   UNL     1      14.128   5.739  14.656  1.00  0.00     0.101 A 
BRANCH   9  13
HETATM   13  C   UNL     1      12.648   6.143  10.636  1.00  0.00     0.045 C 
HETATM   14  C   UNL     1      11.928   4.921  10.064  1.00  0.00     0.132 C 
HETATM   15  N   UNL     1      12.021   5.101   8.643  1.00  0.00    -0.360 N 
HETATM   16  C   UNL     1      13.048   5.962   8.282  1.00  0.00     0.218 C 
HETATM   17  H   UNL     1      11.423   4.662   7.997  1.00  0.00     0.162 HD
HETATM   18  O   UNL     1      13.395   6.271   7.152  1.00  0.00    -0.274 OA
HETATM   19  C   UNL     1      13.711   6.423   9.556  1.00  0.00     0.113 C 
ENDBRANCH   9  13
BRANCH  12  20
HETATM   20  O   UNL     1      14.585   5.616  15.933  1.00  0.00    -0.353 OA
HETATM   21  C   UNL     1      15.088   6.796  16.558  1.00  0.00     0.210 C 
ENDBRANCH  12  20
ENDBRANCH   1   7
TORSDOF 4
ENDMDL
MODEL 4
REMARK VINA RESULT:      -7.4      2.616      5.974
REMARK  4 active torsions:
REMARK  status: ('A' for Active; 'I' for Inactive)
REMARK    1  A    between atoms: O_1  and  C_5 
REMARK    2  A    between atoms: O_1  and  C_14 
REMARK    3  A    between atoms: O_2  and  C_18 
REMARK    4  A    between atoms: C_10  and  C_13 
ROOT
HETATM    1  O   UNL     1      16.316   6.160  14.462  1.00  0.00    -0.343 OA
ENDROOT
BRANCH   1   2
HETATM    2  C   UNL     1      15.413   5.331  15.183  1.00  0.00     0.129 C 
HETATM    3  C   UNL     1      15.440   5.713  16.655  1.00  0.00     0.032 C 
HETATM    4  C   UNL     1      16.693   5.032  17.203  1.00  0.00     0.002 C 
HETATM    5  C   UNL     1      17.009   3.882  16.247  1.00  0.00     0.002 C 
HETATM    6  C   UNL     1      15.905   3.893  15.192  1.00  0.00     0.032 C 
ENDBRANCH   1   2
BRANCH   1   7
HETATM    7  C   UNL     1      16.286   6.064  13.096  1.00  0.00     0.103 A 
HETATM    8  C   UNL     1      15.069   6.194  12.433  1.00  0.00     0.047 A 
HETATM    9  C   UNL     1      15.026   6.097  11.043  1.00  0.00    -0.049 A 
HETATM   10  C   UNL     1      16.198   5.870  10.322  1.00  0.00     0.010 A 
HETATM   11  C   UNL     1      17.414   5.742  10.992  1.00  0.00     0.040 A 
HETATM   12  C   UNL     1      17.458   5.838  12.383  1.00  0.00     0.101 A 
BRANCH   9  13
HETATM   13  C   UNL     1      13.706   6.237  10.316  1.00  0.00     0.045 C 
HETATM   14  C   UNL     1      12.597   5.279  10.755  1.00  0.00     0.132 C 
HETATM   15  N   UNL     1      11.709   5.242   9.628  1.00  0.00    -0.360 N 
HETATM   16  C   UNL     1      12.326   5.645   8.450  1.00  0.00     0.218 C 
HETATM   17  H   UNL     1      10.767   4.962   9.683  1.00  0.00     0.162 HD
HETATM   18  O   UNL     1      11.840   5.674   7.330  1.00  0.00    -0.274 OA
HETATM   19  C   UNL     1      13.751   5.999   8.794  1.00  0.00     0.113 C 
ENDBRANCH   9  13
BRANCH  12  20
HETATM   20  O   UNL     1      18.652   5.710  13.026  1.00  0.00    -0.353 OA
HETATM   21  C   UNL     1      19.148   4.385  13.212  1.00  0.00     0.210 C 
ENDBRANCH  12  20
ENDBRANCH   1   7
TORSDOF 4
ENDMDL
MODEL 5
REMARK VINA RESULT:      -7.4      2.997      5.572
REMARK  4 active torsions:
REMARK  status: ('A' for Active; 'I' for Inactive)
REMARK    1  A    between atoms: O_1  and  C_5 
REMARK    2  A    between atoms: O_1  and  C_14 
REMARK    3  A    between atoms: O_2  and  C_18 
REMARK    4  A    between atoms: C_10  and  C_13 
ROOT
HETATM    1  O   UNL     1      13.817   6.430   9.854  1.00  0.00    -0.343 OA
ENDROOT
BRANCH   1   2
HETATM    2  C   UNL     1      12.484   5.955   9.720  1.00  0.00     0.129 C 
HETATM    3  C   UNL     1      12.503   4.544   9.152  1.00  0.00     0.032 C 
HETATM    4  C   UNL     1      12.712   4.739   7.651  1.00  0.00     0.002 C 
HETATM    5  C   UNL     1      12.253   6.162   7.336  1.00  0.00     0.002 C 
HETATM    6  C   UNL     1      11.744   6.745   8.652  1.00  0.00     0.032 C 
ENDBRANCH   1   2
BRANCH   1   7
HETATM    7  C   UNL     1      14.435   6.208  11.056  1.00  0.00     0.103 A 
HETATM    8  C   UNL     1      15.814   6.031  11.088  1.00  0.00     0.047 A 
HETATM    9  C   UNL     1      16.454   5.803  12.305  1.00  0.00    -0.049 A 
HETATM   10  C   UNL     1      15.713   5.754  13.485  1.00  0.00     0.010 A 
HETATM   11  C   UNL     1      14.330   5.933  13.447  1.00  0.00     0.040 A 
HETATM   12  C   UNL     1      13.689   6.160  12.229  1.00  0.00     0.101 A 
BRANCH   9  13
HETATM   13  C   UNL     1      17.955   5.609  12.346  1.00  0.00     0.045 C 
HETATM   14  C   UNL     1      18.620   5.261  11.013  1.00  0.00     0.132 C 
HETATM   15  N   UNL     1      19.852   4.633  11.398  1.00  0.00    -0.360 N 
HETATM   16  C   UNL     1      19.819   4.147  12.698  1.00  0.00     0.218 C 
HETATM   17  H   UNL     1      20.634   4.556  10.805  1.00  0.00     0.162 HD
HETATM   18  O   UNL     1      20.697   3.531  13.282  1.00  0.00    -0.274 OA
HETATM   19  C   UNL     1      18.459   4.476  13.260  1.00  0.00     0.113 C 
ENDBRANCH   9  13
BRANCH  12  20
HETATM   20  O   UNL     1      12.338   6.332  12.205  1.00  0.00    -0.353 OA
HETATM   21  C   UNL     1      11.718   6.757  13.417  1.00  0.00     0.210 C 
ENDBRANCH  12  20
ENDBRANCH   1   7
TORSDOF 4
ENDMDL
MODEL 6
REMARK VINA RESULT:      -7.4      2.312      5.208
REMARK  4 active torsions:
REMARK  status: ('A' for Active; 'I' for Inactive)
REMARK    1  A    between atoms: O_1  and  C_5 
REMARK    2  A    between atoms: O_1  and  C_14 
REMARK    3  A    between atoms: O_2  and  C_18 
REMARK    4  A    between atoms: C_10  and  C_13 
ROOT
HETATM    1  O   UNL     1      15.979   6.395  12.598  1.00  0.00    -0.343 OA
ENDROOT
BRANCH   1   2
HETATM    2  C   UNL     1      16.736   5.570  11.721  1.00  0.00     0.129 C 
HETATM    3  C   UNL     1      18.219   5.832  11.933  1.00  0.00     0.032 C 
HETATM    4  C   UNL     1      18.495   7.118  11.157  1.00  0.00     0.002 C 
HETATM    5  C   UNL     1      17.385   7.236  10.113  1.00  0.00     0.002 C 
HETATM    6  C   UNL     1      16.517   5.991  10.276  1.00  0.00     0.032 C 
ENDBRANCH   1   2
BRANCH   1   7
HETATM    7  C   UNL     1      14.615   6.321  12.492  1.00  0.00     0.103 A 
HETATM    8  C   UNL     1      14.044   6.058  11.251  1.00  0.00     0.047 A 
HETATM    9  C   UNL     1      12.658   5.982  11.130  1.00  0.00    -0.049 A 
HETATM   10  C   UNL     1      11.848   6.168  12.250  1.00  0.00     0.010 A 
HETATM   11  C   UNL     1      12.427   6.430  13.492  1.00  0.00     0.040 A 
HETATM   12  C   UNL     1      13.814   6.508  13.613  1.00  0.00     0.101 A 
BRANCH   9  13
HETATM   13  C   UNL     1      12.030   5.697   9.782  1.00  0.00     0.045 C 
HETATM   14  C   UNL     1      12.291   4.304   9.206  1.00  0.00     0.132 C 
HETATM   15  N   UNL     1      12.077   4.470   7.797  1.00  0.00    -0.360 N 
HETATM   16  C   UNL     1      12.182   5.794   7.394  1.00  0.00     0.218 C 
HETATM   17  H   UNL     1      11.878   3.726   7.183  1.00  0.00     0.162 HD
HETATM   18  O   UNL     1      12.095   6.234   6.258  1.00  0.00    -0.274 OA
HETATM   19  C   UNL     1      12.482   6.611   8.627  1.00  0.00     0.113 C 
ENDBRANCH   9  13
BRANCH  12  20
HETATM   20  O   UNL     1      14.367   6.766  14.831  1.00  0.00    -0.353 OA
HETATM   21  C   UNL     1      13.592   6.426  15.979  1.00  0.00     0.210 C 
ENDBRANCH  12  20
ENDBRANCH   1   7
TORSDOF 4
ENDMDL
MODEL 7
REMARK VINA RESULT:      -7.3      3.478      6.078
REMARK  4 active torsions:
REMARK  status: ('A' for Active; 'I' for Inactive)
REMARK    1  A    between atoms: O_1  and  C_5 
REMARK    2  A    between atoms: O_1  and  C_14 
REMARK    3  A    between atoms: O_2  and  C_18 
REMARK    4  A    between atoms: C_10  and  C_13 
ROOT
HETATM    1  O   UNL     1      17.726   4.630  15.122  1.00  0.00    -0.343 OA
ENDROOT
BRANCH   1   2
HETATM    2  C   UNL     1      16.974   3.527  15.612  1.00  0.00     0.129 C 
HETATM    3  C   UNL     1      17.168   3.410  17.116  1.00  0.00     0.032 C 
HETATM    4  C   UNL     1      18.519   2.715  17.274  1.00  0.00     0.002 C 
HETATM    5  C   UNL     1      18.778   1.976  15.962  1.00  0.00     0.002 C 
HETATM    6  C   UNL     1      17.549   2.220  15.089  1.00  0.00     0.032 C 
ENDBRANCH   1   2
BRANCH   1   7
HETATM    7  C   UNL     1      17.484   5.018  13.830  1.00  0.00     0.103 A 
HETATM    8  C   UNL     1      16.207   5.442  13.477  1.00  0.00     0.047 A 
HETATM    9  C   UNL     1      15.948   5.837  12.166  1.00  0.00    -0.049 A 
HETATM   10  C   UNL     1      16.966   5.807  11.213  1.00  0.00     0.010 A 
HETATM   11  C   UNL     1      18.245   5.382  11.574  1.00  0.00     0.040 A 
HETATM   12  C   UNL     1      18.504   4.985  12.886  1.00  0.00     0.101 A 
BRANCH   9  13
HETATM   13  C   UNL     1      14.561   6.299  11.775  1.00  0.00     0.045 C 
HETATM   14  C   UNL     1      13.398   5.542  12.420  1.00  0.00     0.132 C 
HETATM   15  N   UNL     1      12.297   5.783  11.532  1.00  0.00    -0.360 N 
HETATM   16  C   UNL     1      12.709   6.160  10.261  1.00  0.00     0.218 C 
HETATM   17  H   UNL     1      11.353   5.690  11.795  1.00  0.00     0.162 HD
HETATM   18  O   UNL     1      12.006   6.386   9.289  1.00  0.00    -0.274 OA
HETATM   19  C   UNL     1      14.217   6.194  10.276  1.00  0.00     0.113 C 
ENDBRANCH   9  13
BRANCH  12  20
HETATM   20  O   UNL     1      19.757   4.571  13.225  1.00  0.00    -0.353 OA
HETATM   21  C   UNL     1      20.177   3.303  12.724  1.00  0.00     0.210 C 
ENDBRANCH  12  20
ENDBRANCH   1   7
TORSDOF 4
ENDMDL
MODEL 8
REMARK VINA RESULT:      -7.3      2.459      6.335
REMARK  4 active torsions:
REMARK  status: ('A' for Active; 'I' for Inactive)
REMARK    1  A    between atoms: O_1  and  C_5 
REMARK    2  A    between atoms: O_1  and  C_14 
REMARK    3  A    between atoms: O_2  and  C_18 
REMARK    4  A    between atoms: C_10  and  C_13 
ROOT
HETATM    1  O   UNL     1      15.045   5.661  14.481  1.00  0.00    -0.343 OA
ENDROOT
BRANCH   1   2
HETATM    2  C   UNL     1      14.862   6.860  15.223  1.00  0.00     0.129 C 
HETATM    3  C   UNL     1      14.607   6.518  16.684  1.00  0.00     0.032 C 
HETATM    4  C   UNL     1      13.133   6.120  16.732  1.00  0.00     0.002 C 
HETATM    5  C   UNL     1      12.476   6.759  15.509  1.00  0.00     0.002 C 
HETATM    6  C   UNL     1      13.574   7.552  14.804  1.00  0.00     0.032 C 
ENDBRANCH   1   2
BRANCH   1   7
HETATM    7  C   UNL     1      15.313   5.797  13.144  1.00  0.00     0.103 A 
HETATM    8  C   UNL     1      14.254   5.904  12.247  1.00  0.00     0.047 A 
HETATM    9  C   UNL     1      14.514   6.041  10.885  1.00  0.00    -0.049 A 
HETATM   10  C   UNL     1      15.830   6.071  10.424  1.00  0.00     0.010 A 
HETATM   11  C   UNL     1      16.887   5.965  11.329  1.00  0.00     0.040 A 
HETATM   12  C   UNL     1      16.627   5.827  12.692  1.00  0.00     0.101 A 
BRANCH   9  13
HETATM   13  C   UNL     1      13.367   6.157   9.904  1.00  0.00     0.045 C 
HETATM   14  C   UNL     1      12.426   4.953   9.832  1.00  0.00     0.132 C 
HETATM   15  N   UNL     1      11.811   5.076   8.541  1.00  0.00    -0.360 N 
HETATM   16  C   UNL     1      12.548   5.868   7.672  1.00  0.00     0.218 C 
HETATM   17  H   UNL     1      10.959   4.645   8.298  1.00  0.00     0.162 HD
HETATM   18  O   UNL     1      12.301   6.116   6.502  1.00  0.00    -0.274 OA
HETATM   19  C   UNL     1      13.766   6.340   8.427  1.00  0.00     0.113 C 
ENDBRANCH   9  13
BRANCH  12  20
HETATM   20  O   UNL     1      17.668   5.722  13.565  1.00  0.00    -0.353 OA
HETATM   21  C   UNL     1      18.692   4.782  13.243  1.00  0.00     0.210 C 
ENDBRANCH  12  20
ENDBRANCH   1   7
TORSDOF 4
ENDMDL
MODEL 9
REMARK VINA RESULT:      -7.1      2.832      4.134
REMARK  4 active torsions:
REMARK  status: ('A' for Active; 'I' for Inactive)
REMARK    1  A    between atoms: O_1  and  C_5 
REMARK    2  A    between atoms: O_1  and  C_14 
REMARK    3  A    between atoms: O_2  and  C_18 
REMARK    4  A    between atoms: C_10  and  C_13 
ROOT
HETATM    1  O   UNL     1      18.622   4.858  13.227  1.00  0.00    -0.343 OA
ENDROOT
BRANCH   1   2
HETATM    2  C   UNL     1      18.473   4.286  14.520  1.00  0.00     0.129 C 
HETATM    3  C   UNL     1      19.592   4.782  15.425  1.00  0.00     0.032 C 
HETATM    4  C   UNL     1      20.796   3.921  15.049  1.00  0.00     0.002 C 
HETATM    5  C   UNL     1      20.235   2.653  14.408  1.00  0.00     0.002 C 
HETATM    6  C   UNL     1      18.714   2.786  14.468  1.00  0.00     0.032 C 
ENDBRANCH   1   2
BRANCH   1   7
HETATM    7  C   UNL     1      17.477   5.280  12.603  1.00  0.00     0.103 A 
HETATM    8  C   UNL     1      16.270   5.226  13.292  1.00  0.00     0.047 A 
HETATM    9  C   UNL     1      15.098   5.652  12.668  1.00  0.00    -0.049 A 
HETATM   10  C   UNL     1      15.139   6.129  11.358  1.00  0.00     0.010 A 
HETATM   11  C   UNL     1      16.353   6.181  10.673  1.00  0.00     0.040 A 
HETATM   12  C   UNL     1      17.525   5.755  11.297  1.00  0.00     0.101 A 
BRANCH   9  13
HETATM   13  C   UNL     1      13.782   5.596  13.412  1.00  0.00     0.045 C 
HETATM   14  C   UNL     1      12.580   6.207  12.688  1.00  0.00     0.132 C 
HETATM   15  N   UNL     1      11.657   6.504  13.746  1.00  0.00    -0.360 N 
HETATM   16  C   UNL     1      12.278   6.596  14.985  1.00  0.00     0.218 C 
HETATM   17  H   UNL     1      10.690   6.630  13.609  1.00  0.00     0.162 HD
HETATM   18  O   UNL     1      11.761   6.879  16.055  1.00  0.00    -0.274 OA
HETATM   19  C   UNL     1      13.746   6.330  14.766  1.00  0.00     0.113 C 
ENDBRANCH   9  13
BRANCH  12  20
HETATM   20  O   UNL     1      18.704   5.809  10.617  1.00  0.00    -0.353 OA
HETATM   21  C   UNL     1      18.659   6.309   9.281  1.00  0.00     0.210 C 
ENDBRANCH  12  20
ENDBRANCH   1   7
TORSDOF 4
ENDMDL
