MODEL 1
REMARK VINA RESULT:      -3.9      0.000      0.000
REMARK  2 active torsions:
REMARK  status: ('A' for Active; 'I' for Inactive)
REMARK    1  A    between atoms: C_3  and  C_4 
REMARK    2  A    between atoms: C_4  and  C_6 
ROOT
ATOM      1  O   UNL A   1     -54.050  52.598   9.494  1.00  0.00    -0.648 OA
ATOM      2  O   UNL A   1     -53.337  52.546  11.664  1.00  0.00    -0.648 OA
ATOM      3  C   UNL A   1     -53.666  52.032  10.555  1.00  0.00     0.172 C 
ENDROOT
BRANCH   3   4
ATOM      4  C   UNL A   1     -53.600  50.502  10.525  1.00  0.00     0.113 C 
BRANCH   4   5
ATOM      5  C   UNL A   1     -53.314  49.807  11.852  1.00  0.00     0.006 C 
ATOM      6  C   UNL A   1     -53.035  48.321  11.683  1.00  0.00     0.005 C 
ENDBRANCH   4   5
ENDBRANCH   3   4
TORSDOF 2
ENDMDL
MODEL 2
REMARK VINA RESULT:      -3.9      0.361      1.358
REMARK  2 active torsions:
REMARK  status: ('A' for Active; 'I' for Inactive)
REMARK    1  A    between atoms: C_3  and  C_4 
REMARK    2  A    between atoms: C_4  and  C_6 
ROOT
ATOM      1  O   UNL A   1     -53.402  52.366  11.690  1.00  0.00    -0.648 OA
ATOM      2  O   UNL A   1     -53.819  52.164   9.453  1.00  0.00    -0.648 OA
ATOM      3  C   UNL A   1     -53.622  51.727  10.624  1.00  0.00     0.172 C 
ENDROOT
BRANCH   3   4
ATOM      4  C   UNL A   1     -53.641  50.199  10.738  1.00  0.00     0.113 C 
BRANCH   4   5
ATOM      5  C   UNL A   1     -53.286  49.613  12.100  1.00  0.00     0.006 C 
ATOM      6  C   UNL A   1     -52.983  48.123  12.032  1.00  0.00     0.005 C 
ENDBRANCH   4   5
ENDBRANCH   3   4
TORSDOF 2
ENDMDL
MODEL 3
REMARK VINA RESULT:      -3.8      1.246      1.301
REMARK  2 active torsions:
REMARK  status: ('A' for Active; 'I' for Inactive)
REMARK    1  A    between atoms: C_3  and  C_4 
REMARK    2  A    between atoms: C_4  and  C_6 
ROOT
ATOM      1  O   UNL A   1     -53.756  51.663   9.491  1.00  0.00    -0.648 OA
ATOM      2  O   UNL A   1     -53.451  52.595  11.554  1.00  0.00    -0.648 OA
ATOM      3  C   UNL A   1     -53.577  51.634  10.740  1.00  0.00     0.172 C 
ENDROOT
BRANCH   3   4
ATOM      4  C   UNL A   1     -53.518  50.247  11.388  1.00  0.00     0.113 C 
BRANCH   4   5
ATOM      5  C   UNL A   1     -53.499  49.053  10.441  1.00  0.00     0.006 C 
ATOM      6  C   UNL A   1     -54.883  48.457  10.228  1.00  0.00     0.005 C 
ENDBRANCH   4   5
ENDBRANCH   3   4
TORSDOF 2
ENDMDL
MODEL 4
REMARK VINA RESULT:      -3.8      1.245      1.833
REMARK  2 active torsions:
REMARK  status: ('A' for Active; 'I' for Inactive)
REMARK    1  A    between atoms: C_3  and  C_4 
REMARK    2  A    between atoms: C_4  and  C_6 
ROOT
ATOM      1  O   UNL A   1     -53.425  52.568  11.606  1.00  0.00    -0.648 OA
ATOM      2  O   UNL A   1     -53.868  51.741   9.524  1.00  0.00    -0.648 OA
ATOM      3  C   UNL A   1     -53.612  51.651  10.759  1.00  0.00     0.172 C 
ENDROOT
BRANCH   3   4
ATOM      4  C   UNL A   1     -53.498  50.213  11.275  1.00  0.00     0.113 C 
BRANCH   4   5
ATOM      5  C   UNL A   1     -53.572  49.106  10.229  1.00  0.00     0.006 C 
ATOM      6  C   UNL A   1     -54.927  48.413  10.210  1.00  0.00     0.005 C 
ENDBRANCH   4   5
ENDBRANCH   3   4
TORSDOF 2
ENDMDL
MODEL 5
REMARK VINA RESULT:      -3.8      1.281      1.568
REMARK  2 active torsions:
REMARK  status: ('A' for Active; 'I' for Inactive)
REMARK    1  A    between atoms: C_3  and  C_4 
REMARK    2  A    between atoms: C_4  and  C_6 
ROOT
ATOM      1  O   UNL A   1     -53.569  50.282   8.836  1.00  0.00    -0.648 OA
ATOM      2  O   UNL A   1     -53.984  52.385   9.626  1.00  0.00    -0.648 OA
ATOM      3  C   UNL A   1     -53.695  51.158   9.736  1.00  0.00     0.172 C 
ENDROOT
BRANCH   3   4
ATOM      4  C   UNL A   1     -53.491  50.686  11.180  1.00  0.00     0.113 C 
BRANCH   4   5
ATOM      5  C   UNL A   1     -53.459  49.179  11.405  1.00  0.00     0.006 C 
ATOM      6  C   UNL A   1     -53.120  48.812  12.843  1.00  0.00     0.005 C 
ENDBRANCH   4   5
ENDBRANCH   3   4
TORSDOF 2
ENDMDL
MODEL 6
REMARK VINA RESULT:      -3.8      1.359      1.777
REMARK  2 active torsions:
REMARK  status: ('A' for Active; 'I' for Inactive)
REMARK    1  A    between atoms: C_3  and  C_4 
REMARK    2  A    between atoms: C_4  and  C_6 
ROOT
ATOM      1  O   UNL A   1     -53.871  52.193   9.580  1.00  0.00    -0.648 OA
ATOM      2  O   UNL A   1     -53.758  49.996   8.965  1.00  0.00    -0.648 OA
ATOM      3  C   UNL A   1     -53.744  50.955   9.790  1.00  0.00     0.172 C 
ENDROOT
BRANCH   3   4
ATOM      4  C   UNL A   1     -53.523  50.530  11.246  1.00  0.00     0.113 C 
BRANCH   4   5
ATOM      5  C   UNL A   1     -53.414  49.032  11.508  1.00  0.00     0.006 C 
ATOM      6  C   UNL A   1     -53.042  48.719  12.950  1.00  0.00     0.005 C 
ENDBRANCH   4   5
ENDBRANCH   3   4
TORSDOF 2
ENDMDL
MODEL 7
REMARK VINA RESULT:      -3.6      2.273      2.750
REMARK  2 active torsions:
REMARK  status: ('A' for Active; 'I' for Inactive)
REMARK    1  A    between atoms: C_3  and  C_4 
REMARK    2  A    between atoms: C_4  and  C_6 
ROOT
ATOM      1  O   UNL A   1     -52.905  48.452   8.501  1.00  0.00    -0.648 OA
ATOM      2  O   UNL A   1     -53.345  50.693   8.435  1.00  0.00    -0.648 OA
ATOM      3  C   UNL A   1     -53.383  49.534   8.942  1.00  0.00     0.172 C 
ENDROOT
BRANCH   3   4
ATOM      4  C   UNL A   1     -54.138  49.453  10.273  1.00  0.00     0.113 C 
BRANCH   4   5
ATOM      5  C   UNL A   1     -53.458  50.086  11.481  1.00  0.00     0.006 C 
ATOM      6  C   UNL A   1     -53.177  49.078  12.586  1.00  0.00     0.005 C 
ENDBRANCH   4   5
ENDBRANCH   3   4
TORSDOF 2
ENDMDL
MODEL 8
REMARK VINA RESULT:      -3.6      3.420      4.488
REMARK  2 active torsions:
REMARK  status: ('A' for Active; 'I' for Inactive)
REMARK    1  A    between atoms: C_3  and  C_4 
REMARK    2  A    between atoms: C_4  and  C_6 
ROOT
ATOM      1  O   UNL A   1     -52.371  49.914  15.267  1.00  0.00    -0.648 OA
ATOM      2  O   UNL A   1     -51.492  47.935  14.540  1.00  0.00    -0.648 OA
ATOM      3  C   UNL A   1     -52.331  48.881  14.542  1.00  0.00     0.172 C 
ENDROOT
BRANCH   3   4
ATOM      4  C   UNL A   1     -53.464  48.721  13.523  1.00  0.00     0.113 C 
BRANCH   4   5
ATOM      5  C   UNL A   1     -53.081  48.855  12.053  1.00  0.00     0.006 C 
ATOM      6  C   UNL A   1     -53.482  50.202  11.468  1.00  0.00     0.005 C 
ENDBRANCH   4   5
ENDBRANCH   3   4
TORSDOF 2
ENDMDL
MODEL 9
REMARK VINA RESULT:      -3.5     10.841     11.390
REMARK  2 active torsions:
REMARK  status: ('A' for Active; 'I' for Inactive)
REMARK    1  A    between atoms: C_3  and  C_4 
REMARK    2  A    between atoms: C_4  and  C_6 
ROOT
ATOM      1  O   UNL A   1     -59.387  57.594  17.156  1.00  0.00    -0.648 OA
ATOM      2  O   UNL A   1     -59.827  59.251  18.665  1.00  0.00    -0.648 OA
ATOM      3  C   UNL A   1     -59.177  58.269  18.201  1.00  0.00     0.172 C 
ENDROOT
BRANCH   3   4
ATOM      4  C   UNL A   1     -57.980  57.845  19.058  1.00  0.00     0.113 C 
BRANCH   4   5
ATOM      5  C   UNL A   1     -58.048  56.456  19.683  1.00  0.00     0.006 C 
ATOM      6  C   UNL A   1     -56.767  55.661  19.476  1.00  0.00     0.005 C 
ENDBRANCH   4   5
ENDBRANCH   3   4
TORSDOF 2
ENDMDL
