MODEL 1
REMARK VINA RESULT:      -3.9      0.000      0.000
REMARK  2 active torsions:
REMARK  status: ('A' for Active; 'I' for Inactive)
REMARK    1  A    between atoms: C_3  and  C_4 
REMARK    2  A    between atoms: C_4  and  C_6 
ROOT
ATOM      1  O   UNL A   1     -54.078  52.607   9.499  1.00  0.00    -0.648 OA
ATOM      2  O   UNL A   1     -53.346  52.551  11.662  1.00  0.00    -0.648 OA
ATOM      3  C   UNL A   1     -53.681  52.040  10.554  1.00  0.00     0.172 C 
ENDROOT
BRANCH   3   4
ATOM      4  C   UNL A   1     -53.602  50.510  10.517  1.00  0.00     0.113 C 
BRANCH   4   5
ATOM      5  C   UNL A   1     -53.355  49.809  11.847  1.00  0.00     0.006 C 
ATOM      6  C   UNL A   1     -53.072  48.323  11.679  1.00  0.00     0.005 C 
ENDBRANCH   4   5
ENDBRANCH   3   4
TORSDOF 2
ENDMDL
MODEL 2
REMARK VINA RESULT:      -3.9      0.106      1.322
REMARK  2 active torsions:
REMARK  status: ('A' for Active; 'I' for Inactive)
REMARK    1  A    between atoms: C_3  and  C_4 
REMARK    2  A    between atoms: C_4  and  C_6 
ROOT
ATOM      1  O   UNL A   1     -53.365  52.539  11.658  1.00  0.00    -0.648 OA
ATOM      2  O   UNL A   1     -54.016  52.464   9.469  1.00  0.00    -0.648 OA
ATOM      3  C   UNL A   1     -53.664  51.961  10.576  1.00  0.00     0.172 C 
ENDROOT
BRANCH   3   4
ATOM      4  C   UNL A   1     -53.577  50.432  10.573  1.00  0.00     0.113 C 
BRANCH   4   5
ATOM      5  C   UNL A   1     -53.289  49.764  11.913  1.00  0.00     0.006 C 
ATOM      6  C   UNL A   1     -53.058  48.266  11.780  1.00  0.00     0.005 C 
ENDBRANCH   4   5
ENDBRANCH   3   4
TORSDOF 2
ENDMDL
MODEL 3
REMARK VINA RESULT:      -3.8      1.368      1.702
REMARK  2 active torsions:
REMARK  status: ('A' for Active; 'I' for Inactive)
REMARK    1  A    between atoms: C_3  and  C_4 
REMARK    2  A    between atoms: C_4  and  C_6 
ROOT
ATOM      1  O   UNL A   1     -53.736  49.955   8.881  1.00  0.00    -0.648 OA
ATOM      2  O   UNL A   1     -53.884  52.127   9.572  1.00  0.00    -0.648 OA
ATOM      3  C   UNL A   1     -53.732  50.882   9.737  1.00  0.00     0.172 C 
ENDROOT
BRANCH   3   4
ATOM      4  C   UNL A   1     -53.534  50.460  11.197  1.00  0.00     0.113 C 
BRANCH   4   5
ATOM      5  C   UNL A   1     -53.205  48.992  11.442  1.00  0.00     0.006 C 
ATOM      6  C   UNL A   1     -53.088  48.660  12.923  1.00  0.00     0.005 C 
ENDBRANCH   4   5
ENDBRANCH   3   4
TORSDOF 2
ENDMDL
MODEL 4
REMARK VINA RESULT:      -3.6      2.270      2.744
REMARK  2 active torsions:
REMARK  status: ('A' for Active; 'I' for Inactive)
REMARK    1  A    between atoms: C_3  and  C_4 
REMARK    2  A    between atoms: C_4  and  C_6 
ROOT
ATOM      1  O   UNL A   1     -52.923  48.455   8.562  1.00  0.00    -0.648 OA
ATOM      2  O   UNL A   1     -53.444  50.677   8.450  1.00  0.00    -0.648 OA
ATOM      3  C   UNL A   1     -53.430  49.530   8.986  1.00  0.00     0.172 C 
ENDROOT
BRANCH   3   4
ATOM      4  C   UNL A   1     -54.154  49.457  10.334  1.00  0.00     0.113 C 
BRANCH   4   5
ATOM      5  C   UNL A   1     -53.415  50.032  11.536  1.00  0.00     0.006 C 
ATOM      6  C   UNL A   1     -53.253  49.019  12.661  1.00  0.00     0.005 C 
ENDBRANCH   4   5
ENDBRANCH   3   4
TORSDOF 2
ENDMDL
MODEL 5
REMARK VINA RESULT:      -3.5      3.697      4.886
REMARK  2 active torsions:
REMARK  status: ('A' for Active; 'I' for Inactive)
REMARK    1  A    between atoms: C_3  and  C_4 
REMARK    2  A    between atoms: C_4  and  C_6 
ROOT
ATOM      1  O   UNL A   1     -50.873  48.229  15.536  1.00  0.00    -0.648 OA
ATOM      2  O   UNL A   1     -52.490  49.837  15.398  1.00  0.00    -0.648 OA
ATOM      3  C   UNL A   1     -51.881  48.791  15.027  1.00  0.00     0.172 C 
ENDROOT
BRANCH   3   4
ATOM      4  C   UNL A   1     -52.459  48.142  13.765  1.00  0.00     0.113 C 
BRANCH   4   5
ATOM      5  C   UNL A   1     -53.601  48.883  13.080  1.00  0.00     0.006 C 
ATOM      6  C   UNL A   1     -53.160  49.578  11.800  1.00  0.00     0.005 C 
ENDBRANCH   4   5
ENDBRANCH   3   4
TORSDOF 2
ENDMDL
MODEL 6
REMARK VINA RESULT:      -3.5      2.040      2.270
REMARK  2 active torsions:
REMARK  status: ('A' for Active; 'I' for Inactive)
REMARK    1  A    between atoms: C_3  and  C_4 
REMARK    2  A    between atoms: C_4  and  C_6 
ROOT
ATOM      1  O   UNL A   1     -53.945  50.970   9.672  1.00  0.00    -0.648 OA
ATOM      2  O   UNL A   1     -53.347  50.779  11.868  1.00  0.00    -0.648 OA
ATOM      3  C   UNL A   1     -53.674  50.336  10.729  1.00  0.00     0.172 C 
ENDROOT
BRANCH   3   4
ATOM      4  C   UNL A   1     -53.766  48.809  10.650  1.00  0.00     0.113 C 
BRANCH   4   5
ATOM      5  C   UNL A   1     -55.101  48.230  10.195  1.00  0.00     0.006 C 
ATOM      6  C   UNL A   1     -54.932  47.018   9.290  1.00  0.00     0.005 C 
ENDBRANCH   4   5
ENDBRANCH   3   4
TORSDOF 2
ENDMDL
MODEL 7
REMARK VINA RESULT:      -3.5      3.022      4.074
REMARK  2 active torsions:
REMARK  status: ('A' for Active; 'I' for Inactive)
REMARK    1  A    between atoms: C_3  and  C_4 
REMARK    2  A    between atoms: C_4  and  C_6 
ROOT
ATOM      1  O   UNL A   1     -53.717  49.279  14.186  1.00  0.00    -0.648 OA
ATOM      2  O   UNL A   1     -52.485  47.390  13.823  1.00  0.00    -0.648 OA
ATOM      3  C   UNL A   1     -53.094  48.443  13.475  1.00  0.00     0.172 C 
ENDROOT
BRANCH   3   4
ATOM      4  C   UNL A   1     -53.074  48.713  11.967  1.00  0.00     0.113 C 
BRANCH   4   5
ATOM      5  C   UNL A   1     -53.416  50.131  11.524  1.00  0.00     0.006 C 
ATOM      6  C   UNL A   1     -53.784  50.208  10.050  1.00  0.00     0.005 C 
ENDBRANCH   4   5
ENDBRANCH   3   4
TORSDOF 2
ENDMDL
MODEL 8
REMARK VINA RESULT:      -3.4     10.996     11.556
REMARK  2 active torsions:
REMARK  status: ('A' for Active; 'I' for Inactive)
REMARK    1  A    between atoms: C_3  and  C_4 
REMARK    2  A    between atoms: C_4  and  C_6 
ROOT
ATOM      1  O   UNL A   1     -59.384  57.536  17.180  1.00  0.00    -0.648 OA
ATOM      2  O   UNL A   1     -59.919  59.189  18.664  1.00  0.00    -0.648 OA
ATOM      3  C   UNL A   1     -59.203  58.252  18.204  1.00  0.00     0.172 C 
ENDROOT
BRANCH   3   4
ATOM      4  C   UNL A   1     -57.953  57.949  19.036  1.00  0.00     0.113 C 
BRANCH   4   5
ATOM      5  C   UNL A   1     -57.642  56.478  19.286  1.00  0.00     0.006 C 
ATOM      6  C   UNL A   1     -58.613  55.835  20.266  1.00  0.00     0.005 C 
ENDBRANCH   4   5
ENDBRANCH   3   4
TORSDOF 2
ENDMDL
MODEL 9
REMARK VINA RESULT:      -3.4      2.207      3.163
REMARK  2 active torsions:
REMARK  status: ('A' for Active; 'I' for Inactive)
REMARK    1  A    between atoms: C_3  and  C_4 
REMARK    2  A    between atoms: C_4  and  C_6 
ROOT
ATOM      1  O   UNL A   1     -53.672  49.181  13.598  1.00  0.00    -0.648 OA
ATOM      2  O   UNL A   1     -53.307  50.675  11.908  1.00  0.00    -0.648 OA
ATOM      3  C   UNL A   1     -53.382  49.518  12.417  1.00  0.00     0.172 C 
ENDROOT
BRANCH   3   4
ATOM      4  C   UNL A   1     -53.050  48.381  11.446  1.00  0.00     0.113 C 
BRANCH   4   5
ATOM      5  C   UNL A   1     -53.706  48.447  10.071  1.00  0.00     0.006 C 
ATOM      6  C   UNL A   1     -55.199  48.157  10.124  1.00  0.00     0.005 C 
ENDBRANCH   4   5
ENDBRANCH   3   4
TORSDOF 2
ENDMDL
