MODEL 1
REMARK VINA RESULT:      -6.9      0.000      0.000
REMARK  5 active torsions:
REMARK  status: ('A' for Active; 'I' for Inactive)
REMARK    1  A    between atoms: O_1  and  C_10 
REMARK    2  A    between atoms: O_2  and  C_12 
REMARK    3  A    between atoms: C_5  and  C_6 
REMARK    4  A    between atoms: C_5  and  C_7 
REMARK    5  A    between atoms: C_7  and  C_13 
ROOT
HETATM    1  O   UNL     1      11.864   5.238   8.638  1.00  0.00    -0.358 OA
HETATM    2  H   UNL     1      10.985   4.946   8.776  1.00  0.00     0.217 HD
ENDROOT
BRANCH   1   3
HETATM    3  C   UNL     1      12.663   5.521   9.705  1.00  0.00     0.099 A 
HETATM    4  C   UNL     1      13.937   6.044   9.488  1.00  0.00     0.046 A 
HETATM    5  C   UNL     1      14.765   6.337  10.572  1.00  0.00    -0.055 A 
HETATM    6  C   UNL     1      14.317   6.107  11.873  1.00  0.00     0.010 A 
HETATM    7  C   UNL     1      13.043   5.584  12.090  1.00  0.00     0.040 A 
HETATM    8  C   UNL     1      12.216   5.291  11.006  1.00  0.00     0.098 A 
BRANCH   5   9
HETATM    9  C   UNL     1      16.127   6.897  10.339  1.00  0.00     0.049 C 
BRANCH   9  10
HETATM   10  C   UNL     1      17.175   6.409  11.347  1.00  0.00     0.117 C 
BRANCH  10  11
HETATM   11  C   UNL     1      18.306   5.677  10.665  1.00  0.00     0.172 C 
HETATM   12  O   UNL     1      18.317   5.859   9.322  1.00  0.00    -0.648 OA
HETATM   13  O   UNL     1      19.141   5.009  11.260  1.00  0.00    -0.648 OA
ENDBRANCH  10  11
ENDBRANCH   9  10
ENDBRANCH   5   9
BRANCH   8  14
HETATM   14  O   UNL     1      10.974   4.778  11.229  1.00  0.00    -0.358 OA
HETATM   15  H   UNL     1      10.230   5.348  11.259  1.00  0.00     0.217 HD
ENDBRANCH   8  14
ENDBRANCH   1   3
TORSDOF 5
ENDMDL
MODEL 2
REMARK VINA RESULT:      -6.8      3.295      4.810
REMARK  5 active torsions:
REMARK  status: ('A' for Active; 'I' for Inactive)
REMARK    1  A    between atoms: O_1  and  C_10 
REMARK    2  A    between atoms: O_2  and  C_12 
REMARK    3  A    between atoms: C_5  and  C_6 
REMARK    4  A    between atoms: C_5  and  C_7 
REMARK    5  A    between atoms: C_7  and  C_13 
ROOT
HETATM    1  O   UNL     1      11.414   6.608  14.804  1.00  0.00    -0.358 OA
HETATM    2  H   UNL     1      11.562   6.170  15.619  1.00  0.00     0.217 HD
ENDROOT
BRANCH   1   3
HETATM    3  C   UNL     1      12.311   6.475  13.787  1.00  0.00     0.099 A 
HETATM    4  C   UNL     1      11.848   6.315  12.482  1.00  0.00     0.046 A 
HETATM    5  C   UNL     1      12.756   6.177  11.432  1.00  0.00    -0.055 A 
HETATM    6  C   UNL     1      14.127   6.200  11.689  1.00  0.00     0.010 A 
HETATM    7  C   UNL     1      14.590   6.359  12.994  1.00  0.00     0.040 A 
HETATM    8  C   UNL     1      13.682   6.497  14.044  1.00  0.00     0.098 A 
BRANCH   5   9
HETATM    9  C   UNL     1      12.261   6.006  10.036  1.00  0.00     0.049 C 
BRANCH   9  10
HETATM   10  C   UNL     1      13.378   5.974   8.985  1.00  0.00     0.117 C 
BRANCH  10  11
HETATM   11  C   UNL     1      12.859   5.544   7.633  1.00  0.00     0.172 C 
HETATM   12  O   UNL     1      12.583   4.219   7.571  1.00  0.00    -0.648 OA
HETATM   13  O   UNL     1      12.679   6.313   6.698  1.00  0.00    -0.648 OA
ENDBRANCH  10  11
ENDBRANCH   9  10
ENDBRANCH   5   9
BRANCH   8  14
HETATM   14  O   UNL     1      14.145   6.651  15.316  1.00  0.00    -0.358 OA
HETATM   15  H   UNL     1      14.612   7.428  15.554  1.00  0.00     0.217 HD
ENDBRANCH   8  14
ENDBRANCH   1   3
TORSDOF 5
ENDMDL
MODEL 3
REMARK VINA RESULT:      -6.8      1.252      2.276
REMARK  5 active torsions:
REMARK  status: ('A' for Active; 'I' for Inactive)
REMARK    1  A    between atoms: O_1  and  C_10 
REMARK    2  A    between atoms: O_2  and  C_12 
REMARK    3  A    between atoms: C_5  and  C_6 
REMARK    4  A    between atoms: C_5  and  C_7 
REMARK    5  A    between atoms: C_7  and  C_13 
ROOT
HETATM    1  O   UNL     1      12.144   4.931  13.639  1.00  0.00    -0.358 OA
HETATM    2  H   UNL     1      11.273   5.253  13.763  1.00  0.00     0.217 HD
ENDROOT
BRANCH   1   3
HETATM    3  C   UNL     1      12.871   5.330  12.559  1.00  0.00     0.099 A 
HETATM    4  C   UNL     1      14.192   5.740  12.734  1.00  0.00     0.046 A 
HETATM    5  C   UNL     1      14.946   6.152  11.636  1.00  0.00    -0.055 A 
HETATM    6  C   UNL     1      14.378   6.154  10.362  1.00  0.00     0.010 A 
HETATM    7  C   UNL     1      13.057   5.744  10.186  1.00  0.00     0.040 A 
HETATM    8  C   UNL     1      12.303   5.332  11.284  1.00  0.00     0.098 A 
BRANCH   5   9
HETATM    9  C   UNL     1      16.359   6.591  11.824  1.00  0.00     0.049 C 
BRANCH   9  10
HETATM   10  C   UNL     1      17.376   5.746  11.046  1.00  0.00     0.117 C 
BRANCH  10  11
HETATM   11  C   UNL     1      18.033   6.541   9.944  1.00  0.00     0.172 C 
HETATM   12  O   UNL     1      18.048   7.874  10.192  1.00  0.00    -0.648 OA
HETATM   13  O   UNL     1      18.524   6.038   8.942  1.00  0.00    -0.648 OA
ENDBRANCH  10  11
ENDBRANCH   9  10
ENDBRANCH   5   9
BRANCH   8  14
HETATM   14  O   UNL     1      11.013   4.935  11.101  1.00  0.00    -0.358 OA
HETATM   15  H   UNL     1      10.472   4.744  11.842  1.00  0.00     0.217 HD
ENDBRANCH   8  14
ENDBRANCH   1   3
TORSDOF 5
ENDMDL
MODEL 4
REMARK VINA RESULT:      -6.6      1.156      1.568
REMARK  5 active torsions:
REMARK  status: ('A' for Active; 'I' for Inactive)
REMARK    1  A    between atoms: O_1  and  C_10 
REMARK    2  A    between atoms: O_2  and  C_12 
REMARK    3  A    between atoms: C_5  and  C_6 
REMARK    4  A    between atoms: C_5  and  C_7 
REMARK    5  A    between atoms: C_7  and  C_13 
ROOT
HETATM    1  O   UNL     1      11.180   4.999  11.272  1.00  0.00    -0.358 OA
HETATM    2  H   UNL     1      11.011   4.739  10.388  1.00  0.00     0.217 HD
ENDROOT
BRANCH   1   3
HETATM    3  C   UNL     1      12.450   5.298  11.664  1.00  0.00     0.099 A 
HETATM    4  C   UNL     1      13.367   5.760  10.721  1.00  0.00     0.046 A 
HETATM    5  C   UNL     1      14.671   6.068  11.110  1.00  0.00    -0.055 A 
HETATM    6  C   UNL     1      15.056   5.914  12.442  1.00  0.00     0.010 A 
HETATM    7  C   UNL     1      14.138   5.452  13.384  1.00  0.00     0.040 A 
HETATM    8  C   UNL     1      12.835   5.144  12.996  1.00  0.00     0.098 A 
BRANCH   5   9
HETATM    9  C   UNL     1      15.653   6.562  10.102  1.00  0.00     0.049 C 
BRANCH   9  10
HETATM   10  C   UNL     1      17.006   6.962  10.702  1.00  0.00     0.117 C 
BRANCH  10  11
HETATM   11  C   UNL     1      18.098   5.998  10.305  1.00  0.00     0.172 C 
HETATM   12  O   UNL     1      18.412   6.070   8.989  1.00  0.00    -0.648 OA
HETATM   13  O   UNL     1      18.661   5.247  11.092  1.00  0.00    -0.648 OA
ENDBRANCH  10  11
ENDBRANCH   9  10
ENDBRANCH   5   9
BRANCH   8  14
HETATM   14  O   UNL     1      11.947   4.692  13.924  1.00  0.00    -0.358 OA
HETATM   15  H   UNL     1      11.156   4.271  13.650  1.00  0.00     0.217 HD
ENDBRANCH   8  14
ENDBRANCH   1   3
TORSDOF 5
ENDMDL
MODEL 5
REMARK VINA RESULT:      -6.5      1.154      2.208
REMARK  5 active torsions:
REMARK  status: ('A' for Active; 'I' for Inactive)
REMARK    1  A    between atoms: O_1  and  C_10 
REMARK    2  A    between atoms: O_2  and  C_12 
REMARK    3  A    between atoms: C_5  and  C_6 
REMARK    4  A    between atoms: C_5  and  C_7 
REMARK    5  A    between atoms: C_7  and  C_13 
ROOT
HETATM    1  O   UNL     1      12.263   5.387  13.432  1.00  0.00    -0.358 OA
HETATM    2  H   UNL     1      12.726   5.501  14.238  1.00  0.00     0.217 HD
ENDROOT
BRANCH   1   3
HETATM    3  C   UNL     1      12.892   5.620  12.246  1.00  0.00     0.099 A 
HETATM    4  C   UNL     1      14.193   6.121  12.247  1.00  0.00     0.046 A 
HETATM    5  C   UNL     1      14.847   6.365  11.039  1.00  0.00    -0.055 A 
HETATM    6  C   UNL     1      14.200   6.106   9.831  1.00  0.00     0.010 A 
HETATM    7  C   UNL     1      12.899   5.606   9.830  1.00  0.00     0.040 A 
HETATM    8  C   UNL     1      12.244   5.362  11.037  1.00  0.00     0.098 A 
BRANCH   5   9
HETATM    9  C   UNL     1      16.239   6.900  11.041  1.00  0.00     0.049 C 
BRANCH   9  10
HETATM   10  C   UNL     1      17.298   5.868  10.632  1.00  0.00     0.117 C 
BRANCH  10  11
HETATM   11  C   UNL     1      18.212   5.521  11.783  1.00  0.00     0.172 C 
HETATM   12  O   UNL     1      17.778   6.016  12.968  1.00  0.00    -0.648 OA
HETATM   13  O   UNL     1      19.224   4.843  11.667  1.00  0.00    -0.648 OA
ENDBRANCH  10  11
ENDBRANCH   9  10
ENDBRANCH   5   9
BRANCH   8  14
HETATM   14  O   UNL     1      10.973   4.874  11.025  1.00  0.00    -0.358 OA
HETATM   15  H   UNL     1      10.248   5.453  11.156  1.00  0.00     0.217 HD
ENDBRANCH   8  14
ENDBRANCH   1   3
TORSDOF 5
ENDMDL
MODEL 6
REMARK VINA RESULT:      -6.5      2.221      2.977
REMARK  5 active torsions:
REMARK  status: ('A' for Active; 'I' for Inactive)
REMARK    1  A    between atoms: O_1  and  C_10 
REMARK    2  A    between atoms: O_2  and  C_12 
REMARK    3  A    between atoms: C_5  and  C_6 
REMARK    4  A    between atoms: C_5  and  C_7 
REMARK    5  A    between atoms: C_7  and  C_13 
ROOT
HETATM    1  O   UNL     1      14.003   6.892  14.996  1.00  0.00    -0.358 OA
HETATM    2  H   UNL     1      14.497   6.271  15.492  1.00  0.00     0.217 HD
ENDROOT
BRANCH   1   3
HETATM    3  C   UNL     1      13.667   6.619  13.704  1.00  0.00     0.099 A 
HETATM    4  C   UNL     1      14.673   6.496  12.746  1.00  0.00     0.046 A 
HETATM    5  C   UNL     1      14.342   6.218  11.419  1.00  0.00    -0.055 A 
HETATM    6  C   UNL     1      13.005   6.063  11.052  1.00  0.00     0.010 A 
HETATM    7  C   UNL     1      12.000   6.187  12.010  1.00  0.00     0.040 A 
HETATM    8  C   UNL     1      12.330   6.465  13.336  1.00  0.00     0.098 A 
BRANCH   5   9
HETATM    9  C   UNL     1      15.418   6.085  10.395  1.00  0.00     0.049 C 
BRANCH   9  10
HETATM   10  C   UNL     1      16.832   6.037  10.987  1.00  0.00     0.117 C 
BRANCH  10  11
HETATM   11  C   UNL     1      17.833   6.735  10.098  1.00  0.00     0.172 C 
HETATM   12  O   UNL     1      18.331   5.928   9.131  1.00  0.00    -0.648 OA
HETATM   13  O   UNL     1      18.145   7.913  10.219  1.00  0.00    -0.648 OA
ENDBRANCH  10  11
ENDBRANCH   9  10
ENDBRANCH   5   9
BRANCH   8  14
HETATM   14  O   UNL     1      11.340   6.585  14.263  1.00  0.00    -0.358 OA
HETATM   15  H   UNL     1      11.240   5.934  14.929  1.00  0.00     0.217 HD
ENDBRANCH   8  14
ENDBRANCH   1   3
TORSDOF 5
ENDMDL
MODEL 7
REMARK VINA RESULT:      -6.5      1.691      4.954
REMARK  5 active torsions:
REMARK  status: ('A' for Active; 'I' for Inactive)
REMARK    1  A    between atoms: O_1  and  C_10 
REMARK    2  A    between atoms: O_2  and  C_12 
REMARK    3  A    between atoms: C_5  and  C_6 
REMARK    4  A    between atoms: C_5  and  C_7 
REMARK    5  A    between atoms: C_7  and  C_13 
ROOT
HETATM    1  O   UNL     1      17.153   6.308   9.913  1.00  0.00    -0.358 OA
HETATM    2  H   UNL     1      17.965   6.454  10.356  1.00  0.00     0.217 HD
ENDROOT
BRANCH   1   3
HETATM    3  C   UNL     1      16.009   6.124  10.630  1.00  0.00     0.099 A 
HETATM    4  C   UNL     1      14.784   6.068   9.966  1.00  0.00     0.046 A 
HETATM    5  C   UNL     1      13.606   5.881  10.689  1.00  0.00    -0.055 A 
HETATM    6  C   UNL     1      13.654   5.750  12.077  1.00  0.00     0.010 A 
HETATM    7  C   UNL     1      14.878   5.807  12.741  1.00  0.00     0.040 A 
HETATM    8  C   UNL     1      16.056   5.993  12.018  1.00  0.00     0.098 A 
BRANCH   5   9
HETATM    9  C   UNL     1      12.297   5.821   9.978  1.00  0.00     0.049 C 
BRANCH   9  10
HETATM   10  C   UNL     1      12.266   6.622   8.671  1.00  0.00     0.117 C 
BRANCH  10  11
HETATM   11  C   UNL     1      12.233   5.717   7.462  1.00  0.00     0.172 C 
HETATM   12  O   UNL     1      12.542   4.431   7.758  1.00  0.00    -0.648 OA
HETATM   13  O   UNL     1      11.932   6.095   6.337  1.00  0.00    -0.648 OA
ENDBRANCH  10  11
ENDBRANCH   9  10
ENDBRANCH   5   9
BRANCH   8  14
HETATM   14  O   UNL     1      17.246   6.049  12.678  1.00  0.00    -0.358 OA
HETATM   15  H   UNL     1      17.283   5.861  13.595  1.00  0.00     0.217 HD
ENDBRANCH   8  14
ENDBRANCH   1   3
TORSDOF 5
ENDMDL
MODEL 8
REMARK VINA RESULT:      -6.2      3.316      4.447
REMARK  5 active torsions:
REMARK  status: ('A' for Active; 'I' for Inactive)
REMARK    1  A    between atoms: O_1  and  C_10 
REMARK    2  A    between atoms: O_2  and  C_12 
REMARK    3  A    between atoms: C_5  and  C_6 
REMARK    4  A    between atoms: C_5  and  C_7 
REMARK    5  A    between atoms: C_7  and  C_13 
ROOT
HETATM    1  O   UNL     1      11.149   6.287  15.071  1.00  0.00    -0.358 OA
HETATM    2  H   UNL     1      10.671   7.092  15.061  1.00  0.00     0.217 HD
ENDROOT
BRANCH   1   3
HETATM    3  C   UNL     1      12.511   6.304  15.085  1.00  0.00     0.099 A 
HETATM    4  C   UNL     1      13.211   6.139  13.891  1.00  0.00     0.046 A 
HETATM    5  C   UNL     1      14.606   6.153  13.892  1.00  0.00    -0.055 A 
HETATM    6  C   UNL     1      15.300   6.332  15.089  1.00  0.00     0.010 A 
HETATM    7  C   UNL     1      14.600   6.497  16.283  1.00  0.00     0.040 A 
HETATM    8  C   UNL     1      13.205   6.483  16.282  1.00  0.00     0.098 A 
BRANCH   5   9
HETATM    9  C   UNL     1      15.355   5.977  12.614  1.00  0.00     0.049 C 
BRANCH   9  10
HETATM   10  C   UNL     1      14.554   6.377  11.369  1.00  0.00     0.117 C 
BRANCH  10  11
HETATM   11  C   UNL     1      15.337   6.136  10.101  1.00  0.00     0.172 C 
HETATM   12  O   UNL     1      14.545   6.020   9.007  1.00  0.00    -0.648 OA
HETATM   13  O   UNL     1      16.559   6.076  10.057  1.00  0.00    -0.648 OA
ENDBRANCH  10  11
ENDBRANCH   9  10
ENDBRANCH   5   9
BRANCH   8  14
HETATM   14  O   UNL     1      12.532   6.643  17.455  1.00  0.00    -0.358 OA
HETATM   15  H   UNL     1      11.669   6.289  17.552  1.00  0.00     0.217 HD
ENDBRANCH   8  14
ENDBRANCH   1   3
TORSDOF 5
ENDMDL
MODEL 9
REMARK VINA RESULT:      -6.2      2.653      4.673
REMARK  5 active torsions:
REMARK  status: ('A' for Active; 'I' for Inactive)
REMARK    1  A    between atoms: O_1  and  C_10 
REMARK    2  A    between atoms: O_2  and  C_12 
REMARK    3  A    between atoms: C_5  and  C_6 
REMARK    4  A    between atoms: C_5  and  C_7 
REMARK    5  A    between atoms: C_7  and  C_13 
ROOT
HETATM    1  O   UNL     1      11.534   5.714  10.039  1.00  0.00    -0.358 OA
HETATM    2  H   UNL     1      11.004   6.464   9.855  1.00  0.00     0.217 HD
ENDROOT
BRANCH   1   3
HETATM    3  C   UNL     1      12.810   5.874  10.489  1.00  0.00     0.099 A 
HETATM    4  C   UNL     1      13.061   5.853  11.860  1.00  0.00     0.046 A 
HETATM    5  C   UNL     1      14.363   6.017  12.333  1.00  0.00    -0.055 A 
HETATM    6  C   UNL     1      15.413   6.201  11.433  1.00  0.00     0.010 A 
HETATM    7  C   UNL     1      15.162   6.222  10.062  1.00  0.00     0.040 A 
HETATM    8  C   UNL     1      13.860   6.058   9.589  1.00  0.00     0.098 A 
BRANCH   5   9
HETATM    9  C   UNL     1      14.632   5.995  13.800  1.00  0.00     0.049 C 
BRANCH   9  10
HETATM   10  C   UNL     1      13.555   5.266  14.613  1.00  0.00     0.117 C 
BRANCH  10  11
HETATM   11  C   UNL     1      12.917   6.177  15.635  1.00  0.00     0.172 C 
HETATM   12  O   UNL     1      11.745   6.708  15.208  1.00  0.00    -0.648 OA
HETATM   13  O   UNL     1      13.391   6.395  16.742  1.00  0.00    -0.648 OA
ENDBRANCH  10  11
ENDBRANCH   9  10
ENDBRANCH   5   9
BRANCH   8  14
HETATM   14  O   UNL     1      13.626   6.082   8.248  1.00  0.00    -0.358 OA
HETATM   15  H   UNL     1      14.096   6.679   7.701  1.00  0.00     0.217 HD
ENDBRANCH   8  14
ENDBRANCH   1   3
TORSDOF 5
ENDMDL
