MODEL 1
REMARK VINA RESULT:      -6.8      0.000      0.000
REMARK  5 active torsions:
REMARK  status: ('A' for Active; 'I' for Inactive)
REMARK    1  A    between atoms: O_1  and  C_10 
REMARK    2  A    between atoms: O_2  and  C_12 
REMARK    3  A    between atoms: C_5  and  C_6 
REMARK    4  A    between atoms: C_5  and  C_7 
REMARK    5  A    between atoms: C_7  and  C_13 
ROOT
HETATM    1  O   UNL     1      12.123   4.839  13.628  1.00  0.00    -0.358 OA
HETATM    2  H   UNL     1      11.416   5.364  13.948  1.00  0.00     0.217 HD
ENDROOT
BRANCH   1   3
HETATM    3  C   UNL     1      12.860   5.263  12.564  1.00  0.00     0.099 A 
HETATM    4  C   UNL     1      14.184   5.654  12.760  1.00  0.00     0.046 A 
HETATM    5  C   UNL     1      14.949   6.091  11.679  1.00  0.00    -0.055 A 
HETATM    6  C   UNL     1      14.389   6.137  10.402  1.00  0.00     0.010 A 
HETATM    7  C   UNL     1      13.065   5.747  10.206  1.00  0.00     0.040 A 
HETATM    8  C   UNL     1      12.300   5.309  11.287  1.00  0.00     0.098 A 
BRANCH   5   9
HETATM    9  C   UNL     1      16.366   6.509  11.888  1.00  0.00     0.049 C 
BRANCH   9  10
HETATM   10  C   UNL     1      17.366   5.769  10.991  1.00  0.00     0.117 C 
BRANCH  10  11
HETATM   11  C   UNL     1      18.017   6.700   9.997  1.00  0.00     0.172 C 
HETATM   12  O   UNL     1      18.508   6.052   8.912  1.00  0.00    -0.648 OA
HETATM   13  O   UNL     1      18.076   7.914  10.139  1.00  0.00    -0.648 OA
ENDBRANCH  10  11
ENDBRANCH   9  10
ENDBRANCH   5   9
BRANCH   8  14
HETATM   14  O   UNL     1      11.007   4.932  11.085  1.00  0.00    -0.358 OA
HETATM   15  H   UNL     1      10.751   4.558  10.265  1.00  0.00     0.217 HD
ENDBRANCH   8  14
ENDBRANCH   1   3
TORSDOF 5
ENDMDL
MODEL 2
REMARK VINA RESULT:      -6.8      1.181      2.198
REMARK  5 active torsions:
REMARK  status: ('A' for Active; 'I' for Inactive)
REMARK    1  A    between atoms: O_1  and  C_10 
REMARK    2  A    between atoms: O_2  and  C_12 
REMARK    3  A    between atoms: C_5  and  C_6 
REMARK    4  A    between atoms: C_5  and  C_7 
REMARK    5  A    between atoms: C_7  and  C_13 
ROOT
HETATM    1  O   UNL     1      11.900   5.315   8.864  1.00  0.00    -0.358 OA
HETATM    2  H   UNL     1      12.238   4.845   8.127  1.00  0.00     0.217 HD
ENDROOT
BRANCH   1   3
HETATM    3  C   UNL     1      12.702   5.569   9.935  1.00  0.00     0.099 A 
HETATM    4  C   UNL     1      13.956   6.144   9.732  1.00  0.00     0.046 A 
HETATM    5  C   UNL     1      14.787   6.408  10.821  1.00  0.00    -0.055 A 
HETATM    6  C   UNL     1      14.362   6.098  12.113  1.00  0.00     0.010 A 
HETATM    7  C   UNL     1      13.109   5.523  12.316  1.00  0.00     0.040 A 
HETATM    8  C   UNL     1      12.278   5.259  11.227  1.00  0.00     0.098 A 
BRANCH   5   9
HETATM    9  C   UNL     1      16.128   7.023  10.604  1.00  0.00     0.049 C 
BRANCH   9  10
HETATM   10  C   UNL     1      17.259   6.324  11.368  1.00  0.00     0.117 C 
BRANCH  10  11
HETATM   11  C   UNL     1      18.288   5.740  10.429  1.00  0.00     0.172 C 
HETATM   12  O   UNL     1      19.220   4.992  11.068  1.00  0.00    -0.648 OA
HETATM   13  O   UNL     1      18.271   5.902   9.216  1.00  0.00    -0.648 OA
ENDBRANCH  10  11
ENDBRANCH   9  10
ENDBRANCH   5   9
BRANCH   8  14
HETATM   14  O   UNL     1      11.056   4.696  11.437  1.00  0.00    -0.358 OA
HETATM   15  H   UNL     1      10.289   5.090  11.070  1.00  0.00     0.217 HD
ENDBRANCH   8  14
ENDBRANCH   1   3
TORSDOF 5
ENDMDL
MODEL 3
REMARK VINA RESULT:      -6.8      3.343      4.233
REMARK  5 active torsions:
REMARK  status: ('A' for Active; 'I' for Inactive)
REMARK    1  A    between atoms: O_1  and  C_10 
REMARK    2  A    between atoms: O_2  and  C_12 
REMARK    3  A    between atoms: C_5  and  C_6 
REMARK    4  A    between atoms: C_5  and  C_7 
REMARK    5  A    between atoms: C_7  and  C_13 
ROOT
HETATM    1  O   UNL     1      11.161   6.871  14.482  1.00  0.00    -0.358 OA
HETATM    2  H   UNL     1      11.243   6.630  15.383  1.00  0.00     0.217 HD
ENDROOT
BRANCH   1   3
HETATM    3  C   UNL     1      12.176   6.612  13.611  1.00  0.00     0.099 A 
HETATM    4  C   UNL     1      11.882   6.104  12.347  1.00  0.00     0.046 A 
HETATM    5  C   UNL     1      12.913   5.833  11.447  1.00  0.00    -0.055 A 
HETATM    6  C   UNL     1      14.238   6.072  11.812  1.00  0.00     0.010 A 
HETATM    7  C   UNL     1      14.532   6.581  13.077  1.00  0.00     0.040 A 
HETATM    8  C   UNL     1      13.501   6.851  13.977  1.00  0.00     0.098 A 
BRANCH   5   9
HETATM    9  C   UNL     1      12.598   5.289  10.095  1.00  0.00     0.049 C 
BRANCH   9  10
HETATM   10  C   UNL     1      13.297   6.035   8.951  1.00  0.00     0.117 C 
BRANCH  10  11
HETATM   11  C   UNL     1      12.793   5.584   7.601  1.00  0.00     0.172 C 
HETATM   12  O   UNL     1      12.577   4.248   7.539  1.00  0.00    -0.648 OA
HETATM   13  O   UNL     1      12.576   6.345   6.667  1.00  0.00    -0.648 OA
ENDBRANCH  10  11
ENDBRANCH   9  10
ENDBRANCH   5   9
BRANCH   8  14
HETATM   14  O   UNL     1      13.800   7.346  15.210  1.00  0.00    -0.358 OA
HETATM   15  H   UNL     1      13.902   8.270  15.332  1.00  0.00     0.217 HD
ENDBRANCH   8  14
ENDBRANCH   1   3
TORSDOF 5
ENDMDL
MODEL 4
REMARK VINA RESULT:      -6.6      1.384      1.693
REMARK  5 active torsions:
REMARK  status: ('A' for Active; 'I' for Inactive)
REMARK    1  A    between atoms: O_1  and  C_10 
REMARK    2  A    between atoms: O_2  and  C_12 
REMARK    3  A    between atoms: C_5  and  C_6 
REMARK    4  A    between atoms: C_5  and  C_7 
REMARK    5  A    between atoms: C_7  and  C_13 
ROOT
HETATM    1  O   UNL     1      12.359   4.944  13.529  1.00  0.00    -0.358 OA
HETATM    2  H   UNL     1      11.446   5.095  13.674  1.00  0.00     0.217 HD
ENDROOT
BRANCH   1   3
HETATM    3  C   UNL     1      12.942   5.360  12.370  1.00  0.00     0.099 A 
HETATM    4  C   UNL     1      14.247   5.849  12.396  1.00  0.00     0.046 A 
HETATM    5  C   UNL     1      14.855   6.279  11.216  1.00  0.00    -0.055 A 
HETATM    6  C   UNL     1      14.156   6.219  10.010  1.00  0.00     0.010 A 
HETATM    7  C   UNL     1      12.851   5.729   9.984  1.00  0.00     0.040 A 
HETATM    8  C   UNL     1      12.244   5.300  11.164  1.00  0.00     0.098 A 
BRANCH   5   9
HETATM    9  C   UNL     1      16.251   6.802  11.244  1.00  0.00     0.049 C 
BRANCH   9  10
HETATM   10  C   UNL     1      17.300   5.788  10.773  1.00  0.00     0.117 C 
BRANCH  10  11
HETATM   11  C   UNL     1      18.322   5.502  11.847  1.00  0.00     0.172 C 
HETATM   12  O   UNL     1      18.037   6.114  13.022  1.00  0.00    -0.648 OA
HETATM   13  O   UNL     1      19.293   4.774  11.685  1.00  0.00    -0.648 OA
ENDBRANCH  10  11
ENDBRANCH   9  10
ENDBRANCH   5   9
BRANCH   8  14
HETATM   14  O   UNL     1      10.968   4.825  11.126  1.00  0.00    -0.358 OA
HETATM   15  H   UNL     1      10.423   4.885  11.887  1.00  0.00     0.217 HD
ENDBRANCH   8  14
ENDBRANCH   1   3
TORSDOF 5
ENDMDL
MODEL 5
REMARK VINA RESULT:      -6.5      2.269      5.048
REMARK  5 active torsions:
REMARK  status: ('A' for Active; 'I' for Inactive)
REMARK    1  A    between atoms: O_1  and  C_10 
REMARK    2  A    between atoms: O_2  and  C_12 
REMARK    3  A    between atoms: C_5  and  C_6 
REMARK    4  A    between atoms: C_5  and  C_7 
REMARK    5  A    between atoms: C_7  and  C_13 
ROOT
HETATM    1  O   UNL     1      17.174   6.261   9.817  1.00  0.00    -0.358 OA
HETATM    2  H   UNL     1      17.402   5.606   9.187  1.00  0.00     0.217 HD
ENDROOT
BRANCH   1   3
HETATM    3  C   UNL     1      16.058   6.109  10.583  1.00  0.00     0.099 A 
HETATM    4  C   UNL     1      14.805   6.084   9.973  1.00  0.00     0.046 A 
HETATM    5  C   UNL     1      13.655   5.931  10.747  1.00  0.00    -0.055 A 
HETATM    6  C   UNL     1      13.759   5.802  12.132  1.00  0.00     0.010 A 
HETATM    7  C   UNL     1      15.012   5.828  12.743  1.00  0.00     0.040 A 
HETATM    8  C   UNL     1      16.162   5.981  11.969  1.00  0.00     0.098 A 
BRANCH   5   9
HETATM    9  C   UNL     1      12.315   5.903  10.093  1.00  0.00     0.049 C 
BRANCH   9  10
HETATM   10  C   UNL     1      12.285   6.579   8.717  1.00  0.00     0.117 C 
BRANCH  10  11
HETATM   11  C   UNL     1      12.271   5.565   7.598  1.00  0.00     0.172 C 
HETATM   12  O   UNL     1      11.930   6.104   6.402  1.00  0.00    -0.648 OA
HETATM   13  O   UNL     1      12.562   4.385   7.746  1.00  0.00    -0.648 OA
ENDBRANCH  10  11
ENDBRANCH   9  10
ENDBRANCH   5   9
BRANCH   8  14
HETATM   14  O   UNL     1      17.381   6.006  12.576  1.00  0.00    -0.358 OA
HETATM   15  H   UNL     1      17.447   5.863  13.500  1.00  0.00     0.217 HD
ENDBRANCH   8  14
ENDBRANCH   1   3
TORSDOF 5
ENDMDL
MODEL 6
REMARK VINA RESULT:      -6.5      1.403      2.062
REMARK  5 active torsions:
REMARK  status: ('A' for Active; 'I' for Inactive)
REMARK    1  A    between atoms: O_1  and  C_10 
REMARK    2  A    between atoms: O_2  and  C_12 
REMARK    3  A    between atoms: C_5  and  C_6 
REMARK    4  A    between atoms: C_5  and  C_7 
REMARK    5  A    between atoms: C_7  and  C_13 
ROOT
HETATM    1  O   UNL     1      13.961   6.982  15.010  1.00  0.00    -0.358 OA
HETATM    2  H   UNL     1      14.857   7.116  15.247  1.00  0.00     0.217 HD
ENDROOT
BRANCH   1   3
HETATM    3  C   UNL     1      13.634   6.675  13.724  1.00  0.00     0.099 A 
HETATM    4  C   UNL     1      14.646   6.529  12.776  1.00  0.00     0.046 A 
HETATM    5  C   UNL     1      14.325   6.215  11.455  1.00  0.00    -0.055 A 
HETATM    6  C   UNL     1      12.991   6.047  11.084  1.00  0.00     0.010 A 
HETATM    7  C   UNL     1      11.979   6.193  12.032  1.00  0.00     0.040 A 
HETATM    8  C   UNL     1      12.300   6.507  13.352  1.00  0.00     0.098 A 
BRANCH   5   9
HETATM    9  C   UNL     1      15.407   6.059  10.441  1.00  0.00     0.049 C 
BRANCH   9  10
HETATM   10  C   UNL     1      16.819   6.066  11.040  1.00  0.00     0.117 C 
BRANCH  10  11
HETATM   11  C   UNL     1      17.843   6.565  10.048  1.00  0.00     0.172 C 
HETATM   12  O   UNL     1      18.212   7.849  10.273  1.00  0.00    -0.648 OA
HETATM   13  O   UNL     1      18.311   5.877   9.150  1.00  0.00    -0.648 OA
ENDBRANCH  10  11
ENDBRANCH   9  10
ENDBRANCH   5   9
BRANCH   8  14
HETATM   14  O   UNL     1      11.304   6.649  14.269  1.00  0.00    -0.358 OA
HETATM   15  H   UNL     1      10.642   5.989  14.349  1.00  0.00     0.217 HD
ENDBRANCH   8  14
ENDBRANCH   1   3
TORSDOF 5
ENDMDL
MODEL 7
REMARK VINA RESULT:      -6.4      0.747      2.103
REMARK  5 active torsions:
REMARK  status: ('A' for Active; 'I' for Inactive)
REMARK    1  A    between atoms: O_1  and  C_10 
REMARK    2  A    between atoms: O_2  and  C_12 
REMARK    3  A    between atoms: C_5  and  C_6 
REMARK    4  A    between atoms: C_5  and  C_7 
REMARK    5  A    between atoms: C_7  and  C_13 
ROOT
HETATM    1  O   UNL     1      11.242   4.972  11.511  1.00  0.00    -0.358 OA
HETATM    2  H   UNL     1      10.485   5.270  11.975  1.00  0.00     0.217 HD
ENDROOT
BRANCH   1   3
HETATM    3  C   UNL     1      12.487   5.281  11.970  1.00  0.00     0.099 A 
HETATM    4  C   UNL     1      13.425   5.825  11.094  1.00  0.00     0.046 A 
HETATM    5  C   UNL     1      14.703   6.144  11.551  1.00  0.00    -0.055 A 
HETATM    6  C   UNL     1      15.043   5.919  12.885  1.00  0.00     0.010 A 
HETATM    7  C   UNL     1      14.105   5.374  13.761  1.00  0.00     0.040 A 
HETATM    8  C   UNL     1      12.827   5.055  13.304  1.00  0.00     0.098 A 
BRANCH   5   9
HETATM    9  C   UNL     1      15.706   6.728  10.613  1.00  0.00     0.049 C 
BRANCH   9  10
HETATM   10  C   UNL     1      17.133   6.212  10.837  1.00  0.00     0.117 C 
BRANCH  10  11
HETATM   11  C   UNL     1      18.103   6.808   9.845  1.00  0.00     0.172 C 
HETATM   12  O   UNL     1      18.277   8.141  10.014  1.00  0.00    -0.648 OA
HETATM   13  O   UNL     1      18.691   6.155   8.993  1.00  0.00    -0.648 OA
ENDBRANCH  10  11
ENDBRANCH   9  10
ENDBRANCH   5   9
BRANCH   8  14
HETATM   14  O   UNL     1      11.919   4.521  14.168  1.00  0.00    -0.358 OA
HETATM   15  H   UNL     1      12.210   3.996  14.887  1.00  0.00     0.217 HD
ENDBRANCH   8  14
ENDBRANCH   1   3
TORSDOF 5
ENDMDL
MODEL 8
REMARK VINA RESULT:      -6.3      2.184      2.539
REMARK  5 active torsions:
REMARK  status: ('A' for Active; 'I' for Inactive)
REMARK    1  A    between atoms: O_1  and  C_10 
REMARK    2  A    between atoms: O_2  and  C_12 
REMARK    3  A    between atoms: C_5  and  C_6 
REMARK    4  A    between atoms: C_5  and  C_7 
REMARK    5  A    between atoms: C_7  and  C_13 
ROOT
HETATM    1  O   UNL     1      11.031   4.969  11.119  1.00  0.00    -0.358 OA
HETATM    2  H   UNL     1      10.884   4.298  11.755  1.00  0.00     0.217 HD
ENDROOT
BRANCH   1   3
HETATM    3  C   UNL     1      12.300   5.382  10.845  1.00  0.00     0.099 A 
HETATM    4  C   UNL     1      13.213   5.531  11.888  1.00  0.00     0.046 A 
HETATM    5  C   UNL     1      14.515   5.955  11.620  1.00  0.00    -0.055 A 
HETATM    6  C   UNL     1      14.903   6.229  10.308  1.00  0.00     0.010 A 
HETATM    7  C   UNL     1      13.990   6.080   9.265  1.00  0.00     0.040 A 
HETATM    8  C   UNL     1      12.688   5.656   9.533  1.00  0.00     0.098 A 
BRANCH   5   9
HETATM    9  C   UNL     1      15.491   6.114  12.736  1.00  0.00     0.049 C 
BRANCH   9  10
HETATM   10  C   UNL     1      16.956   6.059  12.287  1.00  0.00     0.117 C 
BRANCH  10  11
HETATM   11  C   UNL     1      17.881   5.744  13.438  1.00  0.00     0.172 C 
HETATM   12  O   UNL     1      18.472   4.529  13.322  1.00  0.00    -0.648 OA
HETATM   13  O   UNL     1      18.097   6.511  14.367  1.00  0.00    -0.648 OA
ENDBRANCH  10  11
ENDBRANCH   9  10
ENDBRANCH   5   9
BRANCH   8  14
HETATM   14  O   UNL     1      11.804   5.516   8.507  1.00  0.00    -0.358 OA
HETATM   15  H   UNL     1      11.103   6.129   8.405  1.00  0.00     0.217 HD
ENDBRANCH   8  14
ENDBRANCH   1   3
TORSDOF 5
ENDMDL
MODEL 9
REMARK VINA RESULT:      -6.2      2.456      5.045
REMARK  5 active torsions:
REMARK  status: ('A' for Active; 'I' for Inactive)
REMARK    1  A    between atoms: O_1  and  C_10 
REMARK    2  A    between atoms: O_2  and  C_12 
REMARK    3  A    between atoms: C_5  and  C_6 
REMARK    4  A    between atoms: C_5  and  C_7 
REMARK    5  A    between atoms: C_7  and  C_13 
ROOT
HETATM    1  O   UNL     1      15.784   6.497   9.597  1.00  0.00    -0.358 OA
HETATM    2  H   UNL     1      16.034   6.385   8.702  1.00  0.00     0.217 HD
ENDROOT
BRANCH   1   3
HETATM    3  C   UNL     1      14.535   6.139  10.006  1.00  0.00     0.099 A 
HETATM    4  C   UNL     1      14.283   5.963  11.366  1.00  0.00     0.046 A 
HETATM    5  C   UNL     1      13.009   5.595  11.797  1.00  0.00    -0.055 A 
HETATM    6  C   UNL     1      11.986   5.403  10.867  1.00  0.00     0.010 A 
HETATM    7  C   UNL     1      12.239   5.579   9.508  1.00  0.00     0.040 A 
HETATM    8  C   UNL     1      13.513   5.947   9.076  1.00  0.00     0.098 A 
BRANCH   5   9
HETATM    9  C   UNL     1      12.739   5.407  13.252  1.00  0.00     0.049 C 
BRANCH   9  10
HETATM   10  C   UNL     1      12.053   6.609  13.913  1.00  0.00     0.117 C 
BRANCH  10  11
HETATM   11  C   UNL     1      12.650   6.918  15.264  1.00  0.00     0.172 C 
HETATM   12  O   UNL     1      13.966   7.238  15.198  1.00  0.00    -0.648 OA
HETATM   13  O   UNL     1      12.012   6.908  16.309  1.00  0.00    -0.648 OA
ENDBRANCH  10  11
ENDBRANCH   9  10
ENDBRANCH   5   9
BRANCH   8  14
HETATM   14  O   UNL     1      13.749   6.114   7.746  1.00  0.00    -0.358 OA
HETATM   15  H   UNL     1      13.100   6.517   7.202  1.00  0.00     0.217 HD
ENDBRANCH   8  14
ENDBRANCH   1   3
TORSDOF 5
ENDMDL
