MODEL 1
REMARK VINA RESULT:      -6.8      0.000      0.000
REMARK  5 active torsions:
REMARK  status: ('A' for Active; 'I' for Inactive)
REMARK    1  A    between atoms: O_1  and  C_10 
REMARK    2  A    between atoms: O_2  and  C_12 
REMARK    3  A    between atoms: C_5  and  C_6 
REMARK    4  A    between atoms: C_5  and  C_7 
REMARK    5  A    between atoms: C_7  and  C_13 
ROOT
HETATM    1  O   UNL     1      12.132   4.924  13.641  1.00  0.00    -0.358 OA
HETATM    2  H   UNL     1      12.551   4.784  14.467  1.00  0.00     0.217 HD
ENDROOT
BRANCH   1   3
HETATM    3  C   UNL     1      12.865   5.323  12.564  1.00  0.00     0.099 A 
HETATM    4  C   UNL     1      14.186   5.732  12.747  1.00  0.00     0.046 A 
HETATM    5  C   UNL     1      14.946   6.144  11.653  1.00  0.00    -0.055 A 
HETATM    6  C   UNL     1      14.386   6.146  10.376  1.00  0.00     0.010 A 
HETATM    7  C   UNL     1      13.065   5.738  10.193  1.00  0.00     0.040 A 
HETATM    8  C   UNL     1      12.305   5.326  11.287  1.00  0.00     0.098 A 
BRANCH   5   9
HETATM    9  C   UNL     1      16.359   6.580  11.849  1.00  0.00     0.049 C 
BRANCH   9  10
HETATM   10  C   UNL     1      17.377   5.748  11.059  1.00  0.00     0.117 C 
BRANCH  10  11
HETATM   11  C   UNL     1      18.019   6.554   9.955  1.00  0.00     0.172 C 
HETATM   12  O   UNL     1      17.974   7.889  10.183  1.00  0.00    -0.648 OA
HETATM   13  O   UNL     1      18.547   6.057   8.969  1.00  0.00    -0.648 OA
ENDBRANCH  10  11
ENDBRANCH   9  10
ENDBRANCH   5   9
BRANCH   8  14
HETATM   14  O   UNL     1      11.015   4.931  11.097  1.00  0.00    -0.358 OA
HETATM   15  H   UNL     1      10.331   5.295  11.624  1.00  0.00     0.217 HD
ENDBRANCH   8  14
ENDBRANCH   1   3
TORSDOF 5
ENDMDL
MODEL 2
REMARK VINA RESULT:      -6.8      3.309      4.273
REMARK  5 active torsions:
REMARK  status: ('A' for Active; 'I' for Inactive)
REMARK    1  A    between atoms: O_1  and  C_10 
REMARK    2  A    between atoms: O_2  and  C_12 
REMARK    3  A    between atoms: C_5  and  C_6 
REMARK    4  A    between atoms: C_5  and  C_7 
REMARK    5  A    between atoms: C_7  and  C_13 
ROOT
HETATM    1  O   UNL     1      11.432   6.601  14.769  1.00  0.00    -0.358 OA
HETATM    2  H   UNL     1      11.741   6.696  15.648  1.00  0.00     0.217 HD
ENDROOT
BRANCH   1   3
HETATM    3  C   UNL     1      12.320   6.482  13.743  1.00  0.00     0.099 A 
HETATM    4  C   UNL     1      11.849   6.255  12.451  1.00  0.00     0.046 A 
HETATM    5  C   UNL     1      12.749   6.131  11.392  1.00  0.00    -0.055 A 
HETATM    6  C   UNL     1      14.120   6.234  11.627  1.00  0.00     0.010 A 
HETATM    7  C   UNL     1      14.591   6.461  12.919  1.00  0.00     0.040 A 
HETATM    8  C   UNL     1      13.691   6.585  13.978  1.00  0.00     0.098 A 
BRANCH   5   9
HETATM    9  C   UNL     1      12.244   5.888  10.010  1.00  0.00     0.049 C 
BRANCH   9  10
HETATM   10  C   UNL     1      13.327   5.998   8.930  1.00  0.00     0.117 C 
BRANCH  10  11
HETATM   11  C   UNL     1      12.820   5.539   7.584  1.00  0.00     0.172 C 
HETATM   12  O   UNL     1      12.638   4.198   7.518  1.00  0.00    -0.648 OA
HETATM   13  O   UNL     1      12.573   6.297   6.655  1.00  0.00    -0.648 OA
ENDBRANCH  10  11
ENDBRANCH   9  10
ENDBRANCH   5   9
BRANCH   8  14
HETATM   14  O   UNL     1      14.163   6.805  15.237  1.00  0.00    -0.358 OA
HETATM   15  H   UNL     1      15.055   6.606  15.444  1.00  0.00     0.217 HD
ENDBRANCH   8  14
ENDBRANCH   1   3
TORSDOF 5
ENDMDL
MODEL 3
REMARK VINA RESULT:      -6.8      1.209      2.230
REMARK  5 active torsions:
REMARK  status: ('A' for Active; 'I' for Inactive)
REMARK    1  A    between atoms: O_1  and  C_10 
REMARK    2  A    between atoms: O_2  and  C_12 
REMARK    3  A    between atoms: C_5  and  C_6 
REMARK    4  A    between atoms: C_5  and  C_7 
REMARK    5  A    between atoms: C_7  and  C_13 
ROOT
HETATM    1  O   UNL     1      11.895   5.271   8.802  1.00  0.00    -0.358 OA
HETATM    2  H   UNL     1      11.780   4.384   8.523  1.00  0.00     0.217 HD
ENDROOT
BRANCH   1   3
HETATM    3  C   UNL     1      12.717   5.556   9.850  1.00  0.00     0.099 A 
HETATM    4  C   UNL     1      13.977   6.101   9.605  1.00  0.00     0.046 A 
HETATM    5  C   UNL     1      14.828   6.396  10.669  1.00  0.00    -0.055 A 
HETATM    6  C   UNL     1      14.420   6.145  11.979  1.00  0.00     0.010 A 
HETATM    7  C   UNL     1      13.160   5.599  12.224  1.00  0.00     0.040 A 
HETATM    8  C   UNL     1      12.309   5.305  11.160  1.00  0.00     0.098 A 
BRANCH   5   9
HETATM    9  C   UNL     1      16.175   6.980  10.406  1.00  0.00     0.049 C 
BRANCH   9  10
HETATM   10  C   UNL     1      17.264   6.474  11.361  1.00  0.00     0.117 C 
BRANCH  10  11
HETATM   11  C   UNL     1      18.326   5.690  10.629  1.00  0.00     0.172 C 
HETATM   12  O   UNL     1      18.282   5.868   9.286  1.00  0.00    -0.648 OA
HETATM   13  O   UNL     1      19.158   4.985  11.187  1.00  0.00    -0.648 OA
ENDBRANCH  10  11
ENDBRANCH   9  10
ENDBRANCH   5   9
BRANCH   8  14
HETATM   14  O   UNL     1      11.081   4.770  11.411  1.00  0.00    -0.358 OA
HETATM   15  H   UNL     1      10.551   5.118  12.101  1.00  0.00     0.217 HD
ENDBRANCH   8  14
ENDBRANCH   1   3
TORSDOF 5
ENDMDL
MODEL 4
REMARK VINA RESULT:      -6.6      0.931      2.093
REMARK  5 active torsions:
REMARK  status: ('A' for Active; 'I' for Inactive)
REMARK    1  A    between atoms: O_1  and  C_10 
REMARK    2  A    between atoms: O_2  and  C_12 
REMARK    3  A    between atoms: C_5  and  C_6 
REMARK    4  A    between atoms: C_5  and  C_7 
REMARK    5  A    between atoms: C_7  and  C_13 
ROOT
HETATM    1  O   UNL     1      11.166   5.380  11.140  1.00  0.00    -0.358 OA
HETATM    2  H   UNL     1      10.384   5.639  11.585  1.00  0.00     0.217 HD
ENDROOT
BRANCH   1   3
HETATM    3  C   UNL     1      12.381   5.780  11.610  1.00  0.00     0.099 A 
HETATM    4  C   UNL     1      13.487   5.753  10.762  1.00  0.00     0.046 A 
HETATM    5  C   UNL     1      14.736   6.159  11.231  1.00  0.00    -0.055 A 
HETATM    6  C   UNL     1      14.878   6.594  12.549  1.00  0.00     0.010 A 
HETATM    7  C   UNL     1      13.772   6.621  13.397  1.00  0.00     0.040 A 
HETATM    8  C   UNL     1      12.523   6.215  12.928  1.00  0.00     0.098 A 
BRANCH   5   9
HETATM    9  C   UNL     1      15.919   6.130  10.324  1.00  0.00     0.049 C 
BRANCH   9  10
HETATM   10  C   UNL     1      17.200   6.683  10.961  1.00  0.00     0.117 C 
BRANCH  10  11
HETATM   11  C   UNL     1      18.199   7.119   9.916  1.00  0.00     0.172 C 
HETATM   12  O   UNL     1      18.526   6.126   9.053  1.00  0.00    -0.648 OA
HETATM   13  O   UNL     1      18.649   8.255   9.838  1.00  0.00    -0.648 OA
ENDBRANCH  10  11
ENDBRANCH   9  10
ENDBRANCH   5   9
BRANCH   8  14
HETATM   14  O   UNL     1      11.449   6.244  13.766  1.00  0.00    -0.358 OA
HETATM   15  H   UNL     1      11.391   6.903  14.430  1.00  0.00     0.217 HD
ENDBRANCH   8  14
ENDBRANCH   1   3
TORSDOF 5
ENDMDL
MODEL 5
REMARK VINA RESULT:      -6.5      2.275      4.998
REMARK  5 active torsions:
REMARK  status: ('A' for Active; 'I' for Inactive)
REMARK    1  A    between atoms: O_1  and  C_10 
REMARK    2  A    between atoms: O_2  and  C_12 
REMARK    3  A    between atoms: C_5  and  C_6 
REMARK    4  A    between atoms: C_5  and  C_7 
REMARK    5  A    between atoms: C_7  and  C_13 
ROOT
HETATM    1  O   UNL     1      17.156   6.294   9.826  1.00  0.00    -0.358 OA
HETATM    2  H   UNL     1      17.835   5.649   9.819  1.00  0.00     0.217 HD
ENDROOT
BRANCH   1   3
HETATM    3  C   UNL     1      16.041   6.100  10.585  1.00  0.00     0.099 A 
HETATM    4  C   UNL     1      14.787   6.107   9.976  1.00  0.00     0.046 A 
HETATM    5  C   UNL     1      13.638   5.910  10.743  1.00  0.00    -0.055 A 
HETATM    6  C   UNL     1      13.745   5.706  12.119  1.00  0.00     0.010 A 
HETATM    7  C   UNL     1      14.999   5.700  12.728  1.00  0.00     0.040 A 
HETATM    8  C   UNL     1      16.148   5.896  11.961  1.00  0.00     0.098 A 
BRANCH   5   9
HETATM    9  C   UNL     1      12.297   5.918  10.091  1.00  0.00     0.049 C 
BRANCH   9  10
HETATM   10  C   UNL     1      12.284   6.589   8.713  1.00  0.00     0.117 C 
BRANCH  10  11
HETATM   11  C   UNL     1      12.293   5.572   7.597  1.00  0.00     0.172 C 
HETATM   12  O   UNL     1      11.928   6.098   6.402  1.00  0.00    -0.648 OA
HETATM   13  O   UNL     1      12.621   4.402   7.746  1.00  0.00    -0.648 OA
ENDBRANCH  10  11
ENDBRANCH   9  10
ENDBRANCH   5   9
BRANCH   8  14
HETATM   14  O   UNL     1      17.368   5.889  12.567  1.00  0.00    -0.358 OA
HETATM   15  H   UNL     1      17.844   5.086  12.651  1.00  0.00     0.217 HD
ENDBRANCH   8  14
ENDBRANCH   1   3
TORSDOF 5
ENDMDL
MODEL 6
REMARK VINA RESULT:      -6.4      1.572      2.079
REMARK  5 active torsions:
REMARK  status: ('A' for Active; 'I' for Inactive)
REMARK    1  A    between atoms: O_1  and  C_10 
REMARK    2  A    between atoms: O_2  and  C_12 
REMARK    3  A    between atoms: C_5  and  C_6 
REMARK    4  A    between atoms: C_5  and  C_7 
REMARK    5  A    between atoms: C_7  and  C_13 
ROOT
HETATM    1  O   UNL     1      13.767   7.029  15.232  1.00  0.00    -0.358 OA
HETATM    2  H   UNL     1      13.626   6.392  15.904  1.00  0.00     0.217 HD
ENDROOT
BRANCH   1   3
HETATM    3  C   UNL     1      13.534   6.707  13.929  1.00  0.00     0.099 A 
HETATM    4  C   UNL     1      14.612   6.553  13.058  1.00  0.00     0.046 A 
HETATM    5  C   UNL     1      14.387   6.224  11.721  1.00  0.00    -0.055 A 
HETATM    6  C   UNL     1      13.083   6.049  11.256  1.00  0.00     0.010 A 
HETATM    7  C   UNL     1      12.006   6.203  12.127  1.00  0.00     0.040 A 
HETATM    8  C   UNL     1      12.231   6.532  13.464  1.00  0.00     0.098 A 
BRANCH   5   9
HETATM    9  C   UNL     1      15.540   6.059  10.789  1.00  0.00     0.049 C 
BRANCH   9  10
HETATM   10  C   UNL     1      16.902   6.024  11.493  1.00  0.00     0.117 C 
BRANCH  10  11
HETATM   11  C   UNL     1      18.020   5.707  10.529  1.00  0.00     0.172 C 
HETATM   12  O   UNL     1      19.078   5.108  11.128  1.00  0.00    -0.648 OA
HETATM   13  O   UNL     1      17.969   5.940   9.328  1.00  0.00    -0.648 OA
ENDBRANCH  10  11
ENDBRANCH   9  10
ENDBRANCH   5   9
BRANCH   8  14
HETATM   14  O   UNL     1      11.170   6.682  14.305  1.00  0.00    -0.358 OA
HETATM   15  H   UNL     1      11.124   6.178  15.094  1.00  0.00     0.217 HD
ENDBRANCH   8  14
ENDBRANCH   1   3
TORSDOF 5
ENDMDL
MODEL 7
REMARK VINA RESULT:      -6.3      2.439      4.773
REMARK  5 active torsions:
REMARK  status: ('A' for Active; 'I' for Inactive)
REMARK    1  A    between atoms: O_1  and  C_10 
REMARK    2  A    between atoms: O_2  and  C_12 
REMARK    3  A    between atoms: C_5  and  C_6 
REMARK    4  A    between atoms: C_5  and  C_7 
REMARK    5  A    between atoms: C_7  and  C_13 
ROOT
HETATM    1  O   UNL     1      11.466   5.578   9.976  1.00  0.00    -0.358 OA
HETATM    2  H   UNL     1      11.271   5.702   9.069  1.00  0.00     0.217 HD
ENDROOT
BRANCH   1   3
HETATM    3  C   UNL     1      12.730   5.795  10.437  1.00  0.00     0.099 A 
HETATM    4  C   UNL     1      12.967   5.805  11.810  1.00  0.00     0.046 A 
HETATM    5  C   UNL     1      14.256   6.028  12.294  1.00  0.00    -0.055 A 
HETATM    6  C   UNL     1      15.308   6.239  11.403  1.00  0.00     0.010 A 
HETATM    7  C   UNL     1      15.071   6.229  10.029  1.00  0.00     0.040 A 
HETATM    8  C   UNL     1      13.782   6.007   9.545  1.00  0.00     0.098 A 
BRANCH   5   9
HETATM    9  C   UNL     1      14.509   6.038  13.764  1.00  0.00     0.049 C 
BRANCH   9  10
HETATM   10  C   UNL     1      13.839   7.206  14.498  1.00  0.00     0.117 C 
BRANCH  10  11
HETATM   11  C   UNL     1      12.795   6.724  15.476  1.00  0.00     0.172 C 
HETATM   12  O   UNL     1      11.548   6.694  14.945  1.00  0.00    -0.648 OA
HETATM   13  O   UNL     1      13.047   6.371  16.621  1.00  0.00    -0.648 OA
ENDBRANCH  10  11
ENDBRANCH   9  10
ENDBRANCH   5   9
BRANCH   8  14
HETATM   14  O   UNL     1      13.562   6.001   8.201  1.00  0.00    -0.358 OA
HETATM   15  H   UNL     1      13.367   6.802   7.755  1.00  0.00     0.217 HD
ENDBRANCH   8  14
ENDBRANCH   1   3
TORSDOF 5
ENDMDL
MODEL 8
REMARK VINA RESULT:      -6.2      1.750      2.182
REMARK  5 active torsions:
REMARK  status: ('A' for Active; 'I' for Inactive)
REMARK    1  A    between atoms: O_1  and  C_10 
REMARK    2  A    between atoms: O_2  and  C_12 
REMARK    3  A    between atoms: C_5  and  C_6 
REMARK    4  A    between atoms: C_5  and  C_7 
REMARK    5  A    between atoms: C_7  and  C_13 
ROOT
HETATM    1  O   UNL     1      11.109   4.951  11.130  1.00  0.00    -0.358 OA
HETATM    2  H   UNL     1      10.481   5.540  11.500  1.00  0.00     0.217 HD
ENDROOT
BRANCH   1   3
HETATM    3  C   UNL     1      12.355   5.399  10.808  1.00  0.00     0.099 A 
HETATM    4  C   UNL     1      13.259   5.702  11.825  1.00  0.00     0.046 A 
HETATM    5  C   UNL     1      14.537   6.162  11.508  1.00  0.00    -0.055 A 
HETATM    6  C   UNL     1      14.910   6.318  10.172  1.00  0.00     0.010 A 
HETATM    7  C   UNL     1      14.006   6.015   9.156  1.00  0.00     0.040 A 
HETATM    8  C   UNL     1      12.728   5.555   9.473  1.00  0.00     0.098 A 
BRANCH   5   9
HETATM    9  C   UNL     1      15.504   6.487  12.596  1.00  0.00     0.049 C 
BRANCH   9  10
HETATM   10  C   UNL     1      16.380   5.300  13.017  1.00  0.00     0.117 C 
BRANCH  10  11
HETATM   11  C   UNL     1      17.813   5.483  12.580  1.00  0.00     0.172 C 
HETATM   12  O   UNL     1      18.021   6.654  11.930  1.00  0.00    -0.648 OA
HETATM   13  O   UNL     1      18.703   4.674  12.810  1.00  0.00    -0.648 OA
ENDBRANCH  10  11
ENDBRANCH   9  10
ENDBRANCH   5   9
BRANCH   8  14
HETATM   14  O   UNL     1      11.852   5.263   8.471  1.00  0.00    -0.358 OA
HETATM   15  H   UNL     1      11.754   4.378   8.178  1.00  0.00     0.217 HD
ENDBRANCH   8  14
ENDBRANCH   1   3
TORSDOF 5
ENDMDL
MODEL 9
REMARK VINA RESULT:      -6.2      2.331      4.443
REMARK  5 active torsions:
REMARK  status: ('A' for Active; 'I' for Inactive)
REMARK    1  A    between atoms: O_1  and  C_10 
REMARK    2  A    between atoms: O_2  and  C_12 
REMARK    3  A    between atoms: C_5  and  C_6 
REMARK    4  A    between atoms: C_5  and  C_7 
REMARK    5  A    between atoms: C_7  and  C_13 
ROOT
HETATM    1  O   UNL     1      15.319   5.903  14.230  1.00  0.00    -0.358 OA
HETATM    2  H   UNL     1      16.167   5.750  14.598  1.00  0.00     0.217 HD
ENDROOT
BRANCH   1   3
HETATM    3  C   UNL     1      15.169   5.989  12.879  1.00  0.00     0.099 A 
HETATM    4  C   UNL     1      13.900   5.840  12.320  1.00  0.00     0.046 A 
HETATM    5  C   UNL     1      13.733   5.924  10.937  1.00  0.00    -0.055 A 
HETATM    6  C   UNL     1      14.836   6.158  10.115  1.00  0.00     0.010 A 
HETATM    7  C   UNL     1      16.104   6.307  10.674  1.00  0.00     0.040 A 
HETATM    8  C   UNL     1      16.271   6.223  12.057  1.00  0.00     0.098 A 
BRANCH   5   9
HETATM    9  C   UNL     1      12.377   5.765  10.339  1.00  0.00     0.049 C 
BRANCH   9  10
HETATM   10  C   UNL     1      12.214   6.463   8.984  1.00  0.00     0.117 C 
BRANCH  10  11
HETATM   11  C   UNL     1      12.612   5.562   7.840  1.00  0.00     0.172 C 
HETATM   12  O   UNL     1      13.161   6.239   6.802  1.00  0.00    -0.648 OA
HETATM   13  O   UNL     1      12.480   4.345   7.855  1.00  0.00    -0.648 OA
ENDBRANCH  10  11
ENDBRANCH   9  10
ENDBRANCH   5   9
BRANCH   8  14
HETATM   14  O   UNL     1      17.515   6.368  12.592  1.00  0.00    -0.358 OA
HETATM   15  H   UNL     1      17.673   6.123  13.483  1.00  0.00     0.217 HD
ENDBRANCH   8  14
ENDBRANCH   1   3
TORSDOF 5
ENDMDL
