MODEL 1
REMARK VINA RESULT:      -6.7      0.000      0.000
REMARK  7 active torsions:
REMARK  status: ('A' for Active; 'I' for Inactive)
REMARK    1  A    between atoms: O_1  and  C_2 
REMARK    2  A    between atoms: C_2  and  C_3 
REMARK    3  A    between atoms: C_2  and  C_8 
REMARK    4  A    between atoms: C_3  and  C_4 
REMARK    5  A    between atoms: C_4  and  C_5 
REMARK    6  A    between atoms: C_8  and  C_9 
REMARK    7  A    between atoms: C_11  and  O_15 
ROOT
HETATM    1  O   UNL     1      32.853  76.577  23.032  1.00  0.00    -0.395 OA
HETATM    2  H   UNL     1      32.709  75.619  23.071  1.00  0.00     0.210 HD
ENDROOT
BRANCH   1   3
HETATM    3  C   UNL     1      32.296  77.093  21.821  1.00  0.00     0.122 C 
BRANCH   3   4
HETATM    4  C   UNL     1      30.987  77.815  22.160  1.00  0.00     0.042 C 
BRANCH   4   5
HETATM    5  C   UNL     1      31.017  79.280  21.735  1.00  0.00     0.116 C 
BRANCH   5   6
HETATM    6  C   UNL     1      31.978  80.051  22.588  1.00  0.00     0.172 C 
HETATM    7  O   UNL     1      32.874  79.583  23.270  1.00  0.00    -0.648 OA
HETATM    8  O   UNL     1      31.791  81.383  22.516  1.00  0.00    -0.648 OA
ENDBRANCH   5   6
ENDBRANCH   4   5
ENDBRANCH   3   4
BRANCH   3   9
HETATM    9  C   UNL     1      32.048  75.965  20.803  1.00  0.00     0.070 C 
BRANCH   9  10
HETATM   10  C   UNL     1      31.889  76.472  19.389  1.00  0.00    -0.053 A 
HETATM   11  C   UNL     1      32.513  77.659  18.982  1.00  0.00     0.043 A 
HETATM   12  C   UNL     1      32.354  78.120  17.679  1.00  0.00     0.066 A 
HETATM   13  C   UNL     1      31.578  77.419  16.762  1.00  0.00     0.036 A 
HETATM   14  C   UNL     1      30.952  76.239  17.159  1.00  0.00     0.003 A 
HETATM   15  C   UNL     1      31.105  75.767  18.465  1.00  0.00     0.007 A 
BRANCH  12  16
HETATM   16  O   UNL     1      32.985  79.280  17.336  1.00  0.00    -0.361 OA
HETATM   17  H   UNL     1      33.915  79.291  17.220  1.00  0.00     0.217 HD
ENDBRANCH  12  16
ENDBRANCH   9  10
ENDBRANCH   3   9
ENDBRANCH   1   3
TORSDOF 7
ENDMDL
MODEL 2
REMARK VINA RESULT:      -6.6      3.162      5.189
REMARK  7 active torsions:
REMARK  status: ('A' for Active; 'I' for Inactive)
REMARK    1  A    between atoms: O_1  and  C_2 
REMARK    2  A    between atoms: C_2  and  C_3 
REMARK    3  A    between atoms: C_2  and  C_8 
REMARK    4  A    between atoms: C_3  and  C_4 
REMARK    5  A    between atoms: C_4  and  C_5 
REMARK    6  A    between atoms: C_8  and  C_9 
REMARK    7  A    between atoms: C_11  and  O_15 
ROOT
HETATM    1  O   UNL     1      30.020  74.684  24.201  1.00  0.00    -0.395 OA
HETATM    2  H   UNL     1      29.107  74.370  24.289  1.00  0.00     0.210 HD
ENDROOT
BRANCH   1   3
HETATM    3  C   UNL     1      30.530  74.315  22.918  1.00  0.00     0.122 C 
BRANCH   3   4
HETATM    4  C   UNL     1      30.783  72.803  22.915  1.00  0.00     0.042 C 
BRANCH   4   5
HETATM    5  C   UNL     1      32.032  72.435  22.120  1.00  0.00     0.116 C 
BRANCH   5   6
HETATM    6  C   UNL     1      32.957  71.606  22.959  1.00  0.00     0.172 C 
HETATM    7  O   UNL     1      32.800  70.438  23.268  1.00  0.00    -0.648 OA
HETATM    8  O   UNL     1      34.059  72.278  23.343  1.00  0.00    -0.648 OA
ENDBRANCH   5   6
ENDBRANCH   4   5
ENDBRANCH   3   4
BRANCH   3   9
HETATM    9  C   UNL     1      31.822  75.085  22.595  1.00  0.00     0.070 C 
BRANCH   9  10
HETATM   10  C   UNL     1      31.639  76.114  21.504  1.00  0.00    -0.053 A 
HETATM   11  C   UNL     1      31.633  77.482  21.807  1.00  0.00     0.043 A 
HETATM   12  C   UNL     1      31.457  78.421  20.796  1.00  0.00     0.066 A 
HETATM   13  C   UNL     1      31.281  78.024  19.474  1.00  0.00     0.036 A 
HETATM   14  C   UNL     1      31.282  76.665  19.164  1.00  0.00     0.003 A 
HETATM   15  C   UNL     1      31.459  75.714  20.172  1.00  0.00     0.007 A 
BRANCH  12  16
HETATM   16  O   UNL     1      31.463  79.739  21.147  1.00  0.00    -0.361 OA
HETATM   17  H   UNL     1      30.890  80.047  21.822  1.00  0.00     0.217 HD
ENDBRANCH  12  16
ENDBRANCH   9  10
ENDBRANCH   3   9
ENDBRANCH   1   3
TORSDOF 7
ENDMDL
MODEL 3
REMARK VINA RESULT:      -6.6      2.201      4.300
REMARK  7 active torsions:
REMARK  status: ('A' for Active; 'I' for Inactive)
REMARK    1  A    between atoms: O_1  and  C_2 
REMARK    2  A    between atoms: C_2  and  C_3 
REMARK    3  A    between atoms: C_2  and  C_8 
REMARK    4  A    between atoms: C_3  and  C_4 
REMARK    5  A    between atoms: C_4  and  C_5 
REMARK    6  A    between atoms: C_8  and  C_9 
REMARK    7  A    between atoms: C_11  and  O_15 
ROOT
HETATM    1  O   UNL     1      31.848  78.011  18.586  1.00  0.00    -0.395 OA
HETATM    2  H   UNL     1      31.736  78.973  18.616  1.00  0.00     0.210 HD
ENDROOT
BRANCH   1   3
HETATM    3  C   UNL     1      31.247  77.426  19.744  1.00  0.00     0.122 C 
BRANCH   3   4
HETATM    4  C   UNL     1      30.732  78.554  20.644  1.00  0.00     0.042 C 
BRANCH   4   5
HETATM    5  C   UNL     1      31.867  79.262  21.379  1.00  0.00     0.116 C 
BRANCH   5   6
HETATM    6  C   UNL     1      31.345  79.949  22.604  1.00  0.00     0.172 C 
HETATM    7  O   UNL     1      31.921  80.807  23.251  1.00  0.00    -0.648 OA
HETATM    8  O   UNL     1      30.104  79.550  22.940  1.00  0.00    -0.648 OA
ENDBRANCH   5   6
ENDBRANCH   4   5
ENDBRANCH   3   4
BRANCH   3   9
HETATM    9  C   UNL     1      32.254  76.541  20.501  1.00  0.00     0.070 C 
BRANCH   9  10
HETATM   10  C   UNL     1      31.609  75.346  21.163  1.00  0.00    -0.053 A 
HETATM   11  C   UNL     1      31.102  75.440  22.466  1.00  0.00     0.043 A 
HETATM   12  C   UNL     1      30.515  74.332  23.068  1.00  0.00     0.066 A 
HETATM   13  C   UNL     1      30.422  73.118  22.395  1.00  0.00     0.036 A 
HETATM   14  C   UNL     1      30.926  73.015  21.100  1.00  0.00     0.003 A 
HETATM   15  C   UNL     1      31.517  74.122  20.485  1.00  0.00     0.007 A 
BRANCH  12  16
HETATM   16  O   UNL     1      30.037  74.480  24.336  1.00  0.00    -0.361 OA
HETATM   17  H   UNL     1      30.467  75.057  24.935  1.00  0.00     0.217 HD
ENDBRANCH  12  16
ENDBRANCH   9  10
ENDBRANCH   3   9
ENDBRANCH   1   3
TORSDOF 7
ENDMDL
MODEL 4
REMARK VINA RESULT:      -6.5      2.998      4.611
REMARK  7 active torsions:
REMARK  status: ('A' for Active; 'I' for Inactive)
REMARK    1  A    between atoms: O_1  and  C_2 
REMARK    2  A    between atoms: C_2  and  C_3 
REMARK    3  A    between atoms: C_2  and  C_8 
REMARK    4  A    between atoms: C_3  and  C_4 
REMARK    5  A    between atoms: C_4  and  C_5 
REMARK    6  A    between atoms: C_8  and  C_9 
REMARK    7  A    between atoms: C_11  and  O_15 
ROOT
HETATM    1  O   UNL     1      31.758  76.047  23.873  1.00  0.00    -0.395 OA
HETATM    2  H   UNL     1      30.826  76.237  23.687  1.00  0.00     0.210 HD
ENDROOT
BRANCH   1   3
HETATM    3  C   UNL     1      32.508  76.105  22.658  1.00  0.00     0.122 C 
BRANCH   3   4
HETATM    4  C   UNL     1      32.449  77.540  22.122  1.00  0.00     0.042 C 
BRANCH   4   5
HETATM    5  C   UNL     1      31.066  77.892  21.584  1.00  0.00     0.116 C 
BRANCH   5   6
HETATM    6  C   UNL     1      30.514  79.085  22.305  1.00  0.00     0.172 C 
HETATM    7  O   UNL     1      29.336  79.374  22.427  1.00  0.00    -0.648 OA
HETATM    8  O   UNL     1      31.472  79.844  22.870  1.00  0.00    -0.648 OA
ENDBRANCH   5   6
ENDBRANCH   4   5
ENDBRANCH   3   4
BRANCH   3   9
HETATM    9  C   UNL     1      31.955  75.112  21.620  1.00  0.00     0.070 C 
BRANCH   9  10
HETATM   10  C   UNL     1      32.956  74.049  21.230  1.00  0.00    -0.053 A 
HETATM   11  C   UNL     1      33.270  73.007  22.113  1.00  0.00     0.043 A 
HETATM   12  C   UNL     1      34.197  72.037  21.746  1.00  0.00     0.066 A 
HETATM   13  C   UNL     1      34.828  72.083  20.507  1.00  0.00     0.036 A 
HETATM   14  C   UNL     1      34.523  73.118  19.624  1.00  0.00     0.003 A 
HETATM   15  C   UNL     1      33.593  74.097  19.982  1.00  0.00     0.007 A 
BRANCH  12  16
HETATM   16  O   UNL     1      34.463  71.044  22.642  1.00  0.00    -0.361 OA
HETATM   17  H   UNL     1      35.041  71.205  23.362  1.00  0.00     0.217 HD
ENDBRANCH  12  16
ENDBRANCH   9  10
ENDBRANCH   3   9
ENDBRANCH   1   3
TORSDOF 7
ENDMDL
MODEL 5
REMARK VINA RESULT:      -6.4      2.043      5.316
REMARK  7 active torsions:
REMARK  status: ('A' for Active; 'I' for Inactive)
REMARK    1  A    between atoms: O_1  and  C_2 
REMARK    2  A    between atoms: C_2  and  C_3 
REMARK    3  A    between atoms: C_2  and  C_8 
REMARK    4  A    between atoms: C_3  and  C_4 
REMARK    5  A    between atoms: C_4  and  C_5 
REMARK    6  A    between atoms: C_8  and  C_9 
REMARK    7  A    between atoms: C_11  and  O_15 
ROOT
HETATM    1  O   UNL     1      30.724  74.334  17.551  1.00  0.00    -0.395 OA
HETATM    2  H   UNL     1      29.981  74.343  16.928  1.00  0.00     0.210 HD
ENDROOT
BRANCH   1   3
HETATM    3  C   UNL     1      31.214  75.665  17.726  1.00  0.00     0.122 C 
BRANCH   3   4
HETATM    4  C   UNL     1      31.845  76.126  16.408  1.00  0.00     0.042 C 
BRANCH   4   5
HETATM    5  C   UNL     1      30.932  77.076  15.639  1.00  0.00     0.116 C 
BRANCH   5   6
HETATM    6  C   UNL     1      30.947  78.436  16.269  1.00  0.00     0.172 C 
HETATM    7  O   UNL     1      29.976  79.058  16.665  1.00  0.00    -0.648 OA
HETATM    8  O   UNL     1      32.189  78.938  16.403  1.00  0.00    -0.648 OA
ENDBRANCH   5   6
ENDBRANCH   4   5
ENDBRANCH   3   4
BRANCH   3   9
HETATM    9  C   UNL     1      32.238  75.729  18.873  1.00  0.00     0.070 C 
BRANCH   9  10
HETATM   10  C   UNL     1      31.755  76.544  20.050  1.00  0.00    -0.053 A 
HETATM   11  C   UNL     1      31.868  76.048  21.356  1.00  0.00     0.043 A 
HETATM   12  C   UNL     1      31.414  76.804  22.432  1.00  0.00     0.066 A 
HETATM   13  C   UNL     1      30.841  78.056  22.235  1.00  0.00     0.036 A 
HETATM   14  C   UNL     1      30.722  78.556  20.939  1.00  0.00     0.003 A 
HETATM   15  C   UNL     1      31.176  77.806  19.852  1.00  0.00     0.007 A 
BRANCH  12  16
HETATM   16  O   UNL     1      31.551  76.273  23.681  1.00  0.00    -0.361 OA
HETATM   17  H   UNL     1      32.344  75.834  23.919  1.00  0.00     0.217 HD
ENDBRANCH  12  16
ENDBRANCH   9  10
ENDBRANCH   3   9
ENDBRANCH   1   3
TORSDOF 7
ENDMDL
MODEL 6
REMARK VINA RESULT:      -6.4      3.648      5.691
REMARK  7 active torsions:
REMARK  status: ('A' for Active; 'I' for Inactive)
REMARK    1  A    between atoms: O_1  and  C_2 
REMARK    2  A    between atoms: C_2  and  C_3 
REMARK    3  A    between atoms: C_2  and  C_8 
REMARK    4  A    between atoms: C_3  and  C_4 
REMARK    5  A    between atoms: C_4  and  C_5 
REMARK    6  A    between atoms: C_8  and  C_9 
REMARK    7  A    between atoms: C_11  and  O_15 
ROOT
HETATM    1  O   UNL     1      31.690  75.955  23.857  1.00  0.00    -0.395 OA
HETATM    2  H   UNL     1      30.737  76.010  23.685  1.00  0.00     0.210 HD
ENDROOT
BRANCH   1   3
HETATM    3  C   UNL     1      32.375  75.633  22.644  1.00  0.00     0.122 C 
BRANCH   3   4
HETATM    4  C   UNL     1      32.365  76.871  21.741  1.00  0.00     0.042 C 
BRANCH   4   5
HETATM    5  C   UNL     1      31.457  76.686  20.528  1.00  0.00     0.116 C 
BRANCH   5   6
HETATM    6  C   UNL     1      31.087  78.017  19.946  1.00  0.00     0.172 C 
HETATM    7  O   UNL     1      30.505  78.206  18.892  1.00  0.00    -0.648 OA
HETATM    8  O   UNL     1      31.436  79.049  20.737  1.00  0.00    -0.648 OA
ENDBRANCH   5   6
ENDBRANCH   4   5
ENDBRANCH   3   4
BRANCH   3   9
HETATM    9  C   UNL     1      31.713  74.437  21.938  1.00  0.00     0.070 C 
BRANCH   9  10
HETATM   10  C   UNL     1      32.547  73.179  22.002  1.00  0.00    -0.053 A 
HETATM   11  C   UNL     1      32.243  72.166  22.921  1.00  0.00     0.043 A 
HETATM   12  C   UNL     1      33.022  71.016  22.976  1.00  0.00     0.066 A 
HETATM   13  C   UNL     1      34.111  70.849  22.127  1.00  0.00     0.036 A 
HETATM   14  C   UNL     1      34.423  71.852  21.211  1.00  0.00     0.003 A 
HETATM   15  C   UNL     1      33.647  73.012  21.148  1.00  0.00     0.007 A 
BRANCH  12  16
HETATM   16  O   UNL     1      32.679  70.061  23.888  1.00  0.00    -0.361 OA
HETATM   17  H   UNL     1      32.191  69.308  23.618  1.00  0.00     0.217 HD
ENDBRANCH  12  16
ENDBRANCH   9  10
ENDBRANCH   3   9
ENDBRANCH   1   3
TORSDOF 7
ENDMDL
MODEL 7
REMARK VINA RESULT:      -6.4      2.614      4.604
REMARK  7 active torsions:
REMARK  status: ('A' for Active; 'I' for Inactive)
REMARK    1  A    between atoms: O_1  and  C_2 
REMARK    2  A    between atoms: C_2  and  C_3 
REMARK    3  A    between atoms: C_2  and  C_8 
REMARK    4  A    between atoms: C_3  and  C_4 
REMARK    5  A    between atoms: C_4  and  C_5 
REMARK    6  A    between atoms: C_8  and  C_9 
REMARK    7  A    between atoms: C_11  and  O_15 
ROOT
HETATM    1  O   UNL     1      32.274  76.453  19.715  1.00  0.00    -0.395 OA
HETATM    2  H   UNL     1      32.338  75.487  19.770  1.00  0.00     0.210 HD
ENDROOT
BRANCH   1   3
HETATM    3  C   UNL     1      31.605  76.953  20.875  1.00  0.00     0.122 C 
BRANCH   3   4
HETATM    4  C   UNL     1      31.612  78.484  20.814  1.00  0.00     0.042 C 
BRANCH   4   5
HETATM    5  C   UNL     1      31.015  79.109  22.072  1.00  0.00     0.116 C 
BRANCH   5   6
HETATM    6  C   UNL     1      31.949  80.136  22.638  1.00  0.00     0.172 C 
HETATM    7  O   UNL     1      31.809  81.345  22.586  1.00  0.00    -0.648 OA
HETATM    8  O   UNL     1      33.003  79.590  23.275  1.00  0.00    -0.648 OA
ENDBRANCH   5   6
ENDBRANCH   4   5
ENDBRANCH   3   4
BRANCH   3   9
HETATM    9  C   UNL     1      32.285  76.455  22.162  1.00  0.00     0.070 C 
BRANCH   9  10
HETATM   10  C   UNL     1      32.166  74.961  22.352  1.00  0.00    -0.053 A 
HETATM   11  C   UNL     1      33.292  74.135  22.242  1.00  0.00     0.043 A 
HETATM   12  C   UNL     1      33.169  72.760  22.412  1.00  0.00     0.066 A 
HETATM   13  C   UNL     1      31.935  72.181  22.690  1.00  0.00     0.036 A 
HETATM   14  C   UNL     1      30.809  72.995  22.799  1.00  0.00     0.003 A 
HETATM   15  C   UNL     1      30.921  74.377  22.630  1.00  0.00     0.007 A 
BRANCH  12  16
HETATM   16  O   UNL     1      34.299  72.004  22.296  1.00  0.00    -0.361 OA
HETATM   17  H   UNL     1      34.450  71.503  21.519  1.00  0.00     0.217 HD
ENDBRANCH  12  16
ENDBRANCH   9  10
ENDBRANCH   3   9
ENDBRANCH   1   3
TORSDOF 7
ENDMDL
MODEL 8
REMARK VINA RESULT:      -6.3      3.219      5.747
REMARK  7 active torsions:
REMARK  status: ('A' for Active; 'I' for Inactive)
REMARK    1  A    between atoms: O_1  and  C_2 
REMARK    2  A    between atoms: C_2  and  C_3 
REMARK    3  A    between atoms: C_2  and  C_8 
REMARK    4  A    between atoms: C_3  and  C_4 
REMARK    5  A    between atoms: C_4  and  C_5 
REMARK    6  A    between atoms: C_8  and  C_9 
REMARK    7  A    between atoms: C_11  and  O_15 
ROOT
HETATM    1  O   UNL     1      30.533  74.631  23.565  1.00  0.00    -0.395 OA
HETATM    2  H   UNL     1      30.983  74.257  24.338  1.00  0.00     0.210 HD
ENDROOT
BRANCH   1   3
HETATM    3  C   UNL     1      31.124  74.110  22.372  1.00  0.00     0.122 C 
BRANCH   3   4
HETATM    4  C   UNL     1      31.452  72.631  22.601  1.00  0.00     0.042 C 
BRANCH   4   5
HETATM    5  C   UNL     1      32.708  72.201  21.849  1.00  0.00     0.116 C 
BRANCH   5   6
HETATM    6  C   UNL     1      33.556  71.317  22.712  1.00  0.00     0.172 C 
HETATM    7  O   UNL     1      33.968  71.579  23.829  1.00  0.00    -0.648 OA
HETATM    8  O   UNL     1      33.820  70.125  22.142  1.00  0.00    -0.648 OA
ENDBRANCH   5   6
ENDBRANCH   4   5
ENDBRANCH   3   4
BRANCH   3   9
HETATM    9  C   UNL     1      32.391  74.898  21.995  1.00  0.00     0.070 C 
BRANCH   9  10
HETATM   10  C   UNL     1      32.118  76.361  21.731  1.00  0.00    -0.053 A 
HETATM   11  C   UNL     1      32.656  77.349  22.566  1.00  0.00     0.043 A 
HETATM   12  C   UNL     1      32.393  78.692  22.317  1.00  0.00     0.066 A 
HETATM   13  C   UNL     1      31.596  79.078  21.244  1.00  0.00     0.036 A 
HETATM   14  C   UNL     1      31.055  78.102  20.410  1.00  0.00     0.003 A 
HETATM   15  C   UNL     1      31.313  76.750  20.650  1.00  0.00     0.007 A 
BRANCH  12  16
HETATM   16  O   UNL     1      32.945  79.612  23.160  1.00  0.00    -0.361 OA
HETATM   17  H   UNL     1      32.402  80.256  23.570  1.00  0.00     0.217 HD
ENDBRANCH  12  16
ENDBRANCH   9  10
ENDBRANCH   3   9
ENDBRANCH   1   3
TORSDOF 7
ENDMDL
MODEL 9
REMARK VINA RESULT:      -6.2      1.936      2.832
REMARK  7 active torsions:
REMARK  status: ('A' for Active; 'I' for Inactive)
REMARK    1  A    between atoms: O_1  and  C_2 
REMARK    2  A    between atoms: C_2  and  C_3 
REMARK    3  A    between atoms: C_2  and  C_8 
REMARK    4  A    between atoms: C_3  and  C_4 
REMARK    5  A    between atoms: C_4  and  C_5 
REMARK    6  A    between atoms: C_8  and  C_9 
REMARK    7  A    between atoms: C_11  and  O_15 
ROOT
HETATM    1  O   UNL     1      30.288  78.669  19.496  1.00  0.00    -0.395 OA
HETATM    2  H   UNL     1      29.527  78.322  19.004  1.00  0.00     0.210 HD
ENDROOT
BRANCH   1   3
HETATM    3  C   UNL     1      31.085  77.581  19.969  1.00  0.00     0.122 C 
BRANCH   3   4
HETATM    4  C   UNL     1      31.638  77.951  21.349  1.00  0.00     0.042 C 
BRANCH   4   5
HETATM    5  C   UNL     1      30.941  79.175  21.935  1.00  0.00     0.116 C 
BRANCH   5   6
HETATM    6  C   UNL     1      31.943  80.094  22.567  1.00  0.00     0.172 C 
HETATM    7  O   UNL     1      31.868  81.308  22.631  1.00  0.00    -0.648 OA
HETATM    8  O   UNL     1      32.979  79.436  23.121  1.00  0.00    -0.648 OA
ENDBRANCH   5   6
ENDBRANCH   4   5
ENDBRANCH   3   4
BRANCH   3   9
HETATM    9  C   UNL     1      32.230  77.269  18.988  1.00  0.00     0.070 C 
BRANCH   9  10
HETATM   10  C   UNL     1      31.818  77.402  17.541  1.00  0.00    -0.053 A 
HETATM   11  C   UNL     1      30.922  76.490  16.967  1.00  0.00     0.043 A 
HETATM   12  C   UNL     1      30.555  76.618  15.632  1.00  0.00     0.066 A 
HETATM   13  C   UNL     1      31.067  77.644  14.844  1.00  0.00     0.036 A 
HETATM   14  C   UNL     1      31.961  78.554  15.406  1.00  0.00     0.003 A 
HETATM   15  C   UNL     1      32.336  78.435  16.746  1.00  0.00     0.007 A 
BRANCH  12  16
HETATM   16  O   UNL     1      29.677  75.704  15.126  1.00  0.00    -0.361 OA
HETATM   17  H   UNL     1      29.727  75.456  14.224  1.00  0.00     0.217 HD
ENDBRANCH  12  16
ENDBRANCH   9  10
ENDBRANCH   3   9
ENDBRANCH   1   3
TORSDOF 7
ENDMDL
