MODEL 1
REMARK VINA RESULT:      -6.7      0.000      0.000
REMARK  7 active torsions:
REMARK  status: ('A' for Active; 'I' for Inactive)
REMARK    1  A    between atoms: O_1  and  C_2 
REMARK    2  A    between atoms: C_2  and  C_3 
REMARK    3  A    between atoms: C_2  and  C_8 
REMARK    4  A    between atoms: C_3  and  C_4 
REMARK    5  A    between atoms: C_4  and  C_5 
REMARK    6  A    between atoms: C_8  and  C_9 
REMARK    7  A    between atoms: C_11  and  O_15 
ROOT
HETATM    1  O   UNL     1      32.971  76.675  22.969  1.00  0.00    -0.395 OA
HETATM    2  H   UNL     1      32.350  76.500  23.694  1.00  0.00     0.210 HD
ENDROOT
BRANCH   1   3
HETATM    3  C   UNL     1      32.248  77.135  21.825  1.00  0.00     0.122 C 
BRANCH   3   4
HETATM    4  C   UNL     1      30.945  77.784  22.304  1.00  0.00     0.042 C 
BRANCH   4   5
HETATM    5  C   UNL     1      30.865  79.257  21.917  1.00  0.00     0.116 C 
BRANCH   5   6
HETATM    6  C   UNL     1      31.963  80.031  22.582  1.00  0.00     0.172 C 
HETATM    7  O   UNL     1      32.853  79.570  23.276  1.00  0.00    -0.648 OA
HETATM    8  O   UNL     1      31.911  81.350  22.314  1.00  0.00    -0.648 OA
ENDBRANCH   5   6
ENDBRANCH   4   5
ENDBRANCH   3   4
BRANCH   3   9
HETATM    9  C   UNL     1      31.957  75.976  20.855  1.00  0.00     0.070 C 
BRANCH   9  10
HETATM   10  C   UNL     1      31.834  76.427  19.418  1.00  0.00    -0.053 A 
HETATM   11  C   UNL     1      32.412  77.632  18.996  1.00  0.00     0.043 A 
HETATM   12  C   UNL     1      32.287  78.040  17.672  1.00  0.00     0.066 A 
HETATM   13  C   UNL     1      31.590  77.268  16.748  1.00  0.00     0.036 A 
HETATM   14  C   UNL     1      31.009  76.070  17.160  1.00  0.00     0.003 A 
HETATM   15  C   UNL     1      31.129  75.650  18.487  1.00  0.00     0.007 A 
BRANCH  12  16
HETATM   16  O   UNL     1      32.871  79.220  17.316  1.00  0.00    -0.361 OA
HETATM   17  H   UNL     1      33.805  79.295  17.300  1.00  0.00     0.217 HD
ENDBRANCH  12  16
ENDBRANCH   9  10
ENDBRANCH   3   9
ENDBRANCH   1   3
TORSDOF 7
ENDMDL
MODEL 2
REMARK VINA RESULT:      -6.5      3.365      5.336
REMARK  7 active torsions:
REMARK  status: ('A' for Active; 'I' for Inactive)
REMARK    1  A    between atoms: O_1  and  C_2 
REMARK    2  A    between atoms: C_2  and  C_3 
REMARK    3  A    between atoms: C_2  and  C_8 
REMARK    4  A    between atoms: C_3  and  C_4 
REMARK    5  A    between atoms: C_4  and  C_5 
REMARK    6  A    between atoms: C_8  and  C_9 
REMARK    7  A    between atoms: C_11  and  O_15 
ROOT
HETATM    1  O   UNL     1      30.221  74.570  24.060  1.00  0.00    -0.395 OA
HETATM    2  H   UNL     1      30.966  74.974  24.532  1.00  0.00     0.210 HD
ENDROOT
BRANCH   1   3
HETATM    3  C   UNL     1      30.669  74.084  22.793  1.00  0.00     0.122 C 
BRANCH   3   4
HETATM    4  C   UNL     1      30.977  72.589  22.930  1.00  0.00     0.042 C 
BRANCH   4   5
HETATM    5  C   UNL     1      32.295  72.213  22.260  1.00  0.00     0.116 C 
BRANCH   5   6
HETATM    6  C   UNL     1      33.144  71.405  23.195  1.00  0.00     0.172 C 
HETATM    7  O   UNL     1      34.097  71.810  23.837  1.00  0.00    -0.648 OA
HETATM    8  O   UNL     1      32.731  70.128  23.304  1.00  0.00    -0.648 OA
ENDBRANCH   5   6
ENDBRANCH   4   5
ENDBRANCH   3   4
BRANCH   3   9
HETATM    9  C   UNL     1      31.911  74.855  22.313  1.00  0.00     0.070 C 
BRANCH   9  10
HETATM   10  C   UNL     1      31.594  75.881  21.250  1.00  0.00    -0.053 A 
HETATM   11  C   UNL     1      31.320  77.210  21.600  1.00  0.00     0.043 A 
HETATM   12  C   UNL     1      31.022  78.144  20.613  1.00  0.00     0.066 A 
HETATM   13  C   UNL     1      30.989  77.781  19.271  1.00  0.00     0.036 A 
HETATM   14  C   UNL     1      31.258  76.461  18.914  1.00  0.00     0.003 A 
HETATM   15  C   UNL     1      31.558  75.514  19.896  1.00  0.00     0.007 A 
BRANCH  12  16
HETATM   16  O   UNL     1      30.766  79.424  21.010  1.00  0.00    -0.361 OA
HETATM   17  H   UNL     1      29.885  79.740  21.033  1.00  0.00     0.217 HD
ENDBRANCH  12  16
ENDBRANCH   9  10
ENDBRANCH   3   9
ENDBRANCH   1   3
TORSDOF 7
ENDMDL
MODEL 3
REMARK VINA RESULT:      -6.5      2.963      4.520
REMARK  7 active torsions:
REMARK  status: ('A' for Active; 'I' for Inactive)
REMARK    1  A    between atoms: O_1  and  C_2 
REMARK    2  A    between atoms: C_2  and  C_3 
REMARK    3  A    between atoms: C_2  and  C_8 
REMARK    4  A    between atoms: C_3  and  C_4 
REMARK    5  A    between atoms: C_4  and  C_5 
REMARK    6  A    between atoms: C_8  and  C_9 
REMARK    7  A    between atoms: C_11  and  O_15 
ROOT
HETATM    1  O   UNL     1      31.699  76.124  23.791  1.00  0.00    -0.395 OA
HETATM    2  H   UNL     1      31.370  75.212  23.819  1.00  0.00     0.210 HD
ENDROOT
BRANCH   1   3
HETATM    3  C   UNL     1      32.487  76.311  22.613  1.00  0.00     0.122 C 
BRANCH   3   4
HETATM    4  C   UNL     1      32.404  77.786  22.206  1.00  0.00     0.042 C 
BRANCH   4   5
HETATM    5  C   UNL     1      31.044  78.139  21.612  1.00  0.00     0.116 C 
BRANCH   5   6
HETATM    6  C   UNL     1      30.405  79.246  22.395  1.00  0.00     0.172 C 
HETATM    7  O   UNL     1      29.209  79.416  22.560  1.00  0.00    -0.648 OA
HETATM    8  O   UNL     1      31.304  80.071  22.965  1.00  0.00    -0.648 OA
ENDBRANCH   5   6
ENDBRANCH   4   5
ENDBRANCH   3   4
BRANCH   3   9
HETATM    9  C   UNL     1      31.997  75.401  21.472  1.00  0.00     0.070 C 
BRANCH   9  10
HETATM   10  C   UNL     1      32.933  74.247  21.196  1.00  0.00    -0.053 A 
HETATM   11  C   UNL     1      33.170  73.272  22.173  1.00  0.00     0.043 A 
HETATM   12  C   UNL     1      34.038  72.217  21.910  1.00  0.00     0.066 A 
HETATM   13  C   UNL     1      34.684  72.111  20.683  1.00  0.00     0.036 A 
HETATM   14  C   UNL     1      34.456  73.079  19.706  1.00  0.00     0.003 A 
HETATM   15  C   UNL     1      33.586  74.142  19.959  1.00  0.00     0.007 A 
BRANCH  12  16
HETATM   16  O   UNL     1      34.231  71.295  22.897  1.00  0.00    -0.361 OA
HETATM   17  H   UNL     1      33.578  70.643  23.063  1.00  0.00     0.217 HD
ENDBRANCH  12  16
ENDBRANCH   9  10
ENDBRANCH   3   9
ENDBRANCH   1   3
TORSDOF 7
ENDMDL
MODEL 4
REMARK VINA RESULT:      -6.4      2.065      5.311
REMARK  7 active torsions:
REMARK  status: ('A' for Active; 'I' for Inactive)
REMARK    1  A    between atoms: O_1  and  C_2 
REMARK    2  A    between atoms: C_2  and  C_3 
REMARK    3  A    between atoms: C_2  and  C_8 
REMARK    4  A    between atoms: C_3  and  C_4 
REMARK    5  A    between atoms: C_4  and  C_5 
REMARK    6  A    between atoms: C_8  and  C_9 
REMARK    7  A    between atoms: C_11  and  O_15 
ROOT
HETATM    1  O   UNL     1      30.854  74.159  17.509  1.00  0.00    -0.395 OA
HETATM    2  H   UNL     1      30.027  74.135  17.003  1.00  0.00     0.210 HD
ENDROOT
BRANCH   1   3
HETATM    3  C   UNL     1      31.219  75.518  17.759  1.00  0.00     0.122 C 
BRANCH   3   4
HETATM    4  C   UNL     1      31.756  76.122  16.457  1.00  0.00     0.042 C 
BRANCH   4   5
HETATM    5  C   UNL     1      30.741  77.050  15.797  1.00  0.00     0.116 C 
BRANCH   5   6
HETATM    6  C   UNL     1      30.860  78.436  16.356  1.00  0.00     0.172 C 
HETATM    7  O   UNL     1      29.940  79.158  16.698  1.00  0.00    -0.648 OA
HETATM    8  O   UNL     1      32.138  78.837  16.492  1.00  0.00    -0.648 OA
ENDBRANCH   5   6
ENDBRANCH   4   5
ENDBRANCH   3   4
BRANCH   3   9
HETATM    9  C   UNL     1      32.272  75.610  18.878  1.00  0.00     0.070 C 
BRANCH   9  10
HETATM   10  C   UNL     1      31.807  76.428  20.060  1.00  0.00    -0.053 A 
HETATM   11  C   UNL     1      31.924  75.929  21.364  1.00  0.00     0.043 A 
HETATM   12  C   UNL     1      31.487  76.689  22.444  1.00  0.00     0.066 A 
HETATM   13  C   UNL     1      30.927  77.948  22.253  1.00  0.00     0.036 A 
HETATM   14  C   UNL     1      30.805  78.451  20.959  1.00  0.00     0.003 A 
HETATM   15  C   UNL     1      31.241  77.697  19.867  1.00  0.00     0.007 A 
BRANCH  12  16
HETATM   16  O   UNL     1      31.628  76.155  23.691  1.00  0.00    -0.361 OA
HETATM   17  H   UNL     1      30.892  76.118  24.271  1.00  0.00     0.217 HD
ENDBRANCH  12  16
ENDBRANCH   9  10
ENDBRANCH   3   9
ENDBRANCH   1   3
TORSDOF 7
ENDMDL
MODEL 5
REMARK VINA RESULT:      -6.3      2.593      4.549
REMARK  7 active torsions:
REMARK  status: ('A' for Active; 'I' for Inactive)
REMARK    1  A    between atoms: O_1  and  C_2 
REMARK    2  A    between atoms: C_2  and  C_3 
REMARK    3  A    between atoms: C_2  and  C_8 
REMARK    4  A    between atoms: C_3  and  C_4 
REMARK    5  A    between atoms: C_4  and  C_5 
REMARK    6  A    between atoms: C_8  and  C_9 
REMARK    7  A    between atoms: C_11  and  O_15 
ROOT
HETATM    1  O   UNL     1      32.122  76.494  19.667  1.00  0.00    -0.395 OA
HETATM    2  H   UNL     1      32.791  77.138  19.386  1.00  0.00     0.210 HD
ENDROOT
BRANCH   1   3
HETATM    3  C   UNL     1      31.469  76.971  20.846  1.00  0.00     0.122 C 
BRANCH   3   4
HETATM    4  C   UNL     1      31.429  78.502  20.790  1.00  0.00     0.042 C 
BRANCH   4   5
HETATM    5  C   UNL     1      30.972  79.110  22.113  1.00  0.00     0.116 C 
BRANCH   5   6
HETATM    6  C   UNL     1      31.948  80.149  22.574  1.00  0.00     0.172 C 
HETATM    7  O   UNL     1      31.892  81.345  22.344  1.00  0.00    -0.648 OA
HETATM    8  O   UNL     1      32.936  79.639  23.335  1.00  0.00    -0.648 OA
ENDBRANCH   5   6
ENDBRANCH   4   5
ENDBRANCH   3   4
BRANCH   3   9
HETATM    9  C   UNL     1      32.198  76.490  22.113  1.00  0.00     0.070 C 
BRANCH   9  10
HETATM   10  C   UNL     1      32.099  74.997  22.319  1.00  0.00    -0.053 A 
HETATM   11  C   UNL     1      33.234  74.184  22.202  1.00  0.00     0.043 A 
HETATM   12  C   UNL     1      33.130  72.809  22.387  1.00  0.00     0.066 A 
HETATM   13  C   UNL     1      31.907  72.218  22.687  1.00  0.00     0.036 A 
HETATM   14  C   UNL     1      30.772  73.019  22.802  1.00  0.00     0.003 A 
HETATM   15  C   UNL     1      30.865  74.401  22.619  1.00  0.00     0.007 A 
BRANCH  12  16
HETATM   16  O   UNL     1      34.267  72.066  22.264  1.00  0.00    -0.361 OA
HETATM   17  H   UNL     1      34.434  71.362  22.861  1.00  0.00     0.217 HD
ENDBRANCH  12  16
ENDBRANCH   9  10
ENDBRANCH   3   9
ENDBRANCH   1   3
TORSDOF 7
ENDMDL
MODEL 6
REMARK VINA RESULT:      -6.3      2.547      4.363
REMARK  7 active torsions:
REMARK  status: ('A' for Active; 'I' for Inactive)
REMARK    1  A    between atoms: O_1  and  C_2 
REMARK    2  A    between atoms: C_2  and  C_3 
REMARK    3  A    between atoms: C_2  and  C_8 
REMARK    4  A    between atoms: C_3  and  C_4 
REMARK    5  A    between atoms: C_4  and  C_5 
REMARK    6  A    between atoms: C_8  and  C_9 
REMARK    7  A    between atoms: C_11  and  O_15 
ROOT
HETATM    1  O   UNL     1      31.540  75.888  23.827  1.00  0.00    -0.395 OA
HETATM    2  H   UNL     1      31.080  76.742  23.835  1.00  0.00     0.210 HD
ENDROOT
BRANCH   1   3
HETATM    3  C   UNL     1      32.063  75.642  22.520  1.00  0.00     0.122 C 
BRANCH   3   4
HETATM    4  C   UNL     1      33.456  75.019  22.666  1.00  0.00     0.042 C 
BRANCH   4   5
HETATM    5  C   UNL     1      33.588  73.723  21.872  1.00  0.00     0.116 C 
BRANCH   5   6
HETATM    6  C   UNL     1      33.084  72.564  22.677  1.00  0.00     0.172 C 
HETATM    7  O   UNL     1      31.981  72.053  22.593  1.00  0.00    -0.648 OA
HETATM    8  O   UNL     1      34.006  72.079  23.530  1.00  0.00    -0.648 OA
ENDBRANCH   5   6
ENDBRANCH   4   5
ENDBRANCH   3   4
BRANCH   3   9
HETATM    9  C   UNL     1      32.129  76.941  21.698  1.00  0.00     0.070 C 
BRANCH   9  10
HETATM   10  C   UNL     1      31.727  76.748  20.255  1.00  0.00    -0.053 A 
HETATM   11  C   UNL     1      31.134  77.792  19.533  1.00  0.00     0.043 A 
HETATM   12  C   UNL     1      30.762  77.601  18.207  1.00  0.00     0.066 A 
HETATM   13  C   UNL     1      30.967  76.378  17.576  1.00  0.00     0.036 A 
HETATM   14  C   UNL     1      31.554  75.333  18.287  1.00  0.00     0.003 A 
HETATM   15  C   UNL     1      31.932  75.514  19.619  1.00  0.00     0.007 A 
BRANCH  12  16
HETATM   16  O   UNL     1      30.191  78.652  17.551  1.00  0.00    -0.361 OA
HETATM   17  H   UNL     1      29.721  78.508  16.754  1.00  0.00     0.217 HD
ENDBRANCH  12  16
ENDBRANCH   9  10
ENDBRANCH   3   9
ENDBRANCH   1   3
TORSDOF 7
ENDMDL
MODEL 7
REMARK VINA RESULT:      -6.2      2.463      5.500
REMARK  7 active torsions:
REMARK  status: ('A' for Active; 'I' for Inactive)
REMARK    1  A    between atoms: O_1  and  C_2 
REMARK    2  A    between atoms: C_2  and  C_3 
REMARK    3  A    between atoms: C_2  and  C_8 
REMARK    4  A    between atoms: C_3  and  C_4 
REMARK    5  A    between atoms: C_4  and  C_5 
REMARK    6  A    between atoms: C_8  and  C_9 
REMARK    7  A    between atoms: C_11  and  O_15 
ROOT
HETATM    1  O   UNL     1      32.760  78.697  18.439  1.00  0.00    -0.395 OA
HETATM    2  H   UNL     1      32.601  78.764  17.484  1.00  0.00     0.210 HD
ENDROOT
BRANCH   1   3
HETATM    3  C   UNL     1      32.050  77.571  18.962  1.00  0.00     0.122 C 
BRANCH   3   4
HETATM    4  C   UNL     1      30.632  77.583  18.381  1.00  0.00     0.042 C 
BRANCH   4   5
HETATM    5  C   UNL     1      30.569  76.911  17.012  1.00  0.00     0.116 C 
BRANCH   5   6
HETATM    6  C   UNL     1      30.433  77.942  15.932  1.00  0.00     0.172 C 
HETATM    7  O   UNL     1      30.383  77.728  14.733  1.00  0.00    -0.648 OA
HETATM    8  O   UNL     1      30.331  79.195  16.414  1.00  0.00    -0.648 OA
ENDBRANCH   5   6
ENDBRANCH   4   5
ENDBRANCH   3   4
BRANCH   3   9
HETATM    9  C   UNL     1      32.010  77.610  20.499  1.00  0.00     0.070 C 
BRANCH   9  10
HETATM   10  C   UNL     1      31.636  76.281  21.113  1.00  0.00    -0.053 A 
HETATM   11  C   UNL     1      31.071  76.221  22.394  1.00  0.00     0.043 A 
HETATM   12  C   UNL     1      30.736  74.991  22.952  1.00  0.00     0.066 A 
HETATM   13  C   UNL     1      30.956  73.807  22.257  1.00  0.00     0.036 A 
HETATM   14  C   UNL     1      31.520  73.857  20.983  1.00  0.00     0.003 A 
HETATM   15  C   UNL     1      31.860  75.087  20.413  1.00  0.00     0.007 A 
BRANCH  12  16
HETATM   16  O   UNL     1      30.187  74.991  24.200  1.00  0.00    -0.361 OA
HETATM   17  H   UNL     1      30.106  74.189  24.677  1.00  0.00     0.217 HD
ENDBRANCH  12  16
ENDBRANCH   9  10
ENDBRANCH   3   9
ENDBRANCH   1   3
TORSDOF 7
ENDMDL
MODEL 8
REMARK VINA RESULT:      -6.2      3.618      5.676
REMARK  7 active torsions:
REMARK  status: ('A' for Active; 'I' for Inactive)
REMARK    1  A    between atoms: O_1  and  C_2 
REMARK    2  A    between atoms: C_2  and  C_3 
REMARK    3  A    between atoms: C_2  and  C_8 
REMARK    4  A    between atoms: C_3  and  C_4 
REMARK    5  A    between atoms: C_4  and  C_5 
REMARK    6  A    between atoms: C_8  and  C_9 
REMARK    7  A    between atoms: C_11  and  O_15 
ROOT
HETATM    1  O   UNL     1      31.572  75.972  23.848  1.00  0.00    -0.395 OA
HETATM    2  H   UNL     1      31.375  76.922  23.851  1.00  0.00     0.210 HD
ENDROOT
BRANCH   1   3
HETATM    3  C   UNL     1      32.301  75.640  22.665  1.00  0.00     0.122 C 
BRANCH   3   4
HETATM    4  C   UNL     1      32.335  76.874  21.756  1.00  0.00     0.042 C 
BRANCH   4   5
HETATM    5  C   UNL     1      31.675  76.608  20.407  1.00  0.00     0.116 C 
BRANCH   5   6
HETATM    6  C   UNL     1      31.607  77.870  19.602  1.00  0.00     0.172 C 
HETATM    7  O   UNL     1      32.432  78.253  18.791  1.00  0.00    -0.648 OA
HETATM    8  O   UNL     1      30.484  78.577  19.829  1.00  0.00    -0.648 OA
ENDBRANCH   5   6
ENDBRANCH   4   5
ENDBRANCH   3   4
BRANCH   3   9
HETATM    9  C   UNL     1      31.660  74.445  21.938  1.00  0.00     0.070 C 
BRANCH   9  10
HETATM   10  C   UNL     1      32.504  73.194  22.003  1.00  0.00    -0.053 A 
HETATM   11  C   UNL     1      32.211  72.181  22.926  1.00  0.00     0.043 A 
HETATM   12  C   UNL     1      32.999  71.037  22.981  1.00  0.00     0.066 A 
HETATM   13  C   UNL     1      34.087  70.876  22.129  1.00  0.00     0.036 A 
HETATM   14  C   UNL     1      34.388  71.879  21.209  1.00  0.00     0.003 A 
HETATM   15  C   UNL     1      33.602  73.032  21.145  1.00  0.00     0.007 A 
BRANCH  12  16
HETATM   16  O   UNL     1      32.667  70.082  23.897  1.00  0.00    -0.361 OA
HETATM   17  H   UNL     1      31.881  70.169  24.400  1.00  0.00     0.217 HD
ENDBRANCH  12  16
ENDBRANCH   9  10
ENDBRANCH   3   9
ENDBRANCH   1   3
TORSDOF 7
ENDMDL
MODEL 9
REMARK VINA RESULT:      -6.2      2.500      3.662
REMARK  7 active torsions:
REMARK  status: ('A' for Active; 'I' for Inactive)
REMARK    1  A    between atoms: O_1  and  C_2 
REMARK    2  A    between atoms: C_2  and  C_3 
REMARK    3  A    between atoms: C_2  and  C_8 
REMARK    4  A    between atoms: C_3  and  C_4 
REMARK    5  A    between atoms: C_4  and  C_5 
REMARK    6  A    between atoms: C_8  and  C_9 
REMARK    7  A    between atoms: C_11  and  O_15 
ROOT
HETATM    1  O   UNL     1      30.439  78.698  19.741  1.00  0.00    -0.395 OA
HETATM    2  H   UNL     1      29.811  79.162  19.167  1.00  0.00     0.210 HD
ENDROOT
BRANCH   1   3
HETATM    3  C   UNL     1      30.868  77.493  19.103  1.00  0.00     0.122 C 
BRANCH   3   4
HETATM    4  C   UNL     1      32.013  76.892  19.925  1.00  0.00     0.042 C 
BRANCH   4   5
HETATM    5  C   UNL     1      31.505  76.167  21.167  1.00  0.00     0.116 C 
BRANCH   5   6
HETATM    6  C   UNL     1      31.734  77.005  22.389  1.00  0.00     0.172 C 
HETATM    7  O   UNL     1      32.767  77.076  23.032  1.00  0.00    -0.648 OA
HETATM    8  O   UNL     1      30.659  77.743  22.727  1.00  0.00    -0.648 OA
ENDBRANCH   5   6
ENDBRANCH   4   5
ENDBRANCH   3   4
BRANCH   3   9
HETATM    9  C   UNL     1      31.319  77.767  17.657  1.00  0.00     0.070 C 
BRANCH   9  10
HETATM   10  C   UNL     1      30.476  77.047  16.630  1.00  0.00    -0.053 A 
HETATM   11  C   UNL     1      29.598  77.758  15.802  1.00  0.00     0.043 A 
HETATM   12  C   UNL     1      28.822  77.084  14.865  1.00  0.00     0.066 A 
HETATM   13  C   UNL     1      28.900  75.702  14.733  1.00  0.00     0.036 A 
HETATM   14  C   UNL     1      29.769  74.986  15.554  1.00  0.00     0.003 A 
HETATM   15  C   UNL     1      30.553  75.652  16.499  1.00  0.00     0.007 A 
BRANCH  12  16
HETATM   16  O   UNL     1      27.986  77.827  14.084  1.00  0.00    -0.361 OA
HETATM   17  H   UNL     1      27.198  77.447  13.747  1.00  0.00     0.217 HD
ENDBRANCH  12  16
ENDBRANCH   9  10
ENDBRANCH   3   9
ENDBRANCH   1   3
TORSDOF 7
ENDMDL
