MODEL 1
REMARK VINA RESULT:      -7.0      0.000      0.000
REMARK  6 active torsions:
REMARK  status: ('A' for Active; 'I' for Inactive)
REMARK    1  A    between atoms: O_1  and  C_11 
REMARK    2  A    between atoms: C_4  and  C_5 
REMARK    3  A    between atoms: C_4  and  C_6 
REMARK    4  A    between atoms: C_5  and  C_7 
REMARK    5  A    between atoms: C_6  and  C_8 
REMARK    6  A    between atoms: C_8  and  C_12 
ROOT
HETATM    1  O   UNL     1      22.840  -6.478  34.152  1.00  0.00    -0.361 OA
HETATM    2  H   UNL     1      23.248  -5.847  34.711  1.00  0.00     0.217 HD
ENDROOT
BRANCH   1   3
HETATM    3  C   UNL     1      22.454  -6.126  32.896  1.00  0.00     0.066 A 
HETATM    4  C   UNL     1      22.145  -4.796  32.608  1.00  0.00     0.043 A 
HETATM    5  C   UNL     1      21.752  -4.453  31.323  1.00  0.00    -0.056 A 
HETATM    6  C   UNL     1      21.660  -5.407  30.320  1.00  0.00     0.007 A 
HETATM    7  C   UNL     1      21.969  -6.736  30.609  1.00  0.00     0.003 A 
HETATM    8  C   UNL     1      22.367  -7.096  31.897  1.00  0.00     0.036 A 
BRANCH   5   9
HETATM    9  C   UNL     1      21.416  -3.017  31.010  1.00  0.00     0.038 C 
BRANCH   9  10
HETATM   10  C   UNL     1      20.733  -2.273  32.164  1.00  0.00     0.005 C 
BRANCH  10  11
HETATM   11  C   UNL     1      21.722  -1.491  33.039  1.00  0.00     0.011 C 
BRANCH  11  12
HETATM   12  C   UNL     1      21.304  -1.468  34.511  1.00  0.00     0.113 C 
BRANCH  12  13
HETATM   13  C   UNL     1      22.464  -1.641  35.466  1.00  0.00     0.172 C 
HETATM   14  O   UNL     1      23.628  -1.210  34.915  1.00  0.00    -0.648 OA
HETATM   15  O   UNL     1      22.389  -2.088  36.602  1.00  0.00    -0.648 OA
ENDBRANCH  12  13
ENDBRANCH  11  12
ENDBRANCH  10  11
ENDBRANCH   9  10
ENDBRANCH   5   9
ENDBRANCH   1   3
TORSDOF 6
ENDMDL
MODEL 2
REMARK VINA RESULT:      -6.9      2.063      5.116
REMARK  6 active torsions:
REMARK  status: ('A' for Active; 'I' for Inactive)
REMARK    1  A    between atoms: O_1  and  C_11 
REMARK    2  A    between atoms: C_4  and  C_5 
REMARK    3  A    between atoms: C_4  and  C_6 
REMARK    4  A    between atoms: C_5  and  C_7 
REMARK    5  A    between atoms: C_6  and  C_8 
REMARK    6  A    between atoms: C_8  and  C_12 
ROOT
HETATM    1  O   UNL     1      21.563  -0.449  31.645  1.00  0.00    -0.361 OA
HETATM    2  H   UNL     1      21.031  -0.289  30.891  1.00  0.00     0.217 HD
ENDROOT
BRANCH   1   3
HETATM    3  C   UNL     1      21.645  -1.704  32.165  1.00  0.00     0.066 A 
HETATM    4  C   UNL     1      21.366  -2.812  31.364  1.00  0.00     0.043 A 
HETATM    5  C   UNL     1      21.453  -4.084  31.909  1.00  0.00    -0.056 A 
HETATM    6  C   UNL     1      21.812  -4.275  33.235  1.00  0.00     0.007 A 
HETATM    7  C   UNL     1      22.092  -3.168  34.035  1.00  0.00     0.003 A 
HETATM    8  C   UNL     1      22.009  -1.882  33.500  1.00  0.00     0.036 A 
BRANCH   5   9
HETATM    9  C   UNL     1      21.149  -5.281  31.045  1.00  0.00     0.038 C 
BRANCH   9  10
HETATM   10  C   UNL     1      22.389  -6.088  30.642  1.00  0.00     0.005 C 
BRANCH  10  11
HETATM   11  C   UNL     1      22.460  -7.459  31.329  1.00  0.00     0.011 C 
BRANCH  11  12
HETATM   12  C   UNL     1      23.505  -7.497  32.446  1.00  0.00     0.113 C 
BRANCH  12  13
HETATM   13  C   UNL     1      22.900  -7.599  33.829  1.00  0.00     0.172 C 
HETATM   14  O   UNL     1      21.555  -7.779  33.769  1.00  0.00    -0.648 OA
HETATM   15  O   UNL     1      23.520  -7.552  34.881  1.00  0.00    -0.648 OA
ENDBRANCH  12  13
ENDBRANCH  11  12
ENDBRANCH  10  11
ENDBRANCH   9  10
ENDBRANCH   5   9
ENDBRANCH   1   3
TORSDOF 6
ENDMDL
MODEL 3
REMARK VINA RESULT:      -6.9      1.265      4.806
REMARK  6 active torsions:
REMARK  status: ('A' for Active; 'I' for Inactive)
REMARK    1  A    between atoms: O_1  and  C_11 
REMARK    2  A    between atoms: C_4  and  C_5 
REMARK    3  A    between atoms: C_4  and  C_6 
REMARK    4  A    between atoms: C_5  and  C_7 
REMARK    5  A    between atoms: C_6  and  C_8 
REMARK    6  A    between atoms: C_8  and  C_12 
ROOT
HETATM    1  O   UNL     1      22.691  -2.808  35.098  1.00  0.00    -0.361 OA
HETATM    2  H   UNL     1      23.565  -2.487  35.199  1.00  0.00     0.217 HD
ENDROOT
BRANCH   1   3
HETATM    3  C   UNL     1      22.113  -2.831  33.866  1.00  0.00     0.066 A 
HETATM    4  C   UNL     1      21.926  -4.045  33.206  1.00  0.00     0.043 A 
HETATM    5  C   UNL     1      21.336  -4.052  31.950  1.00  0.00    -0.056 A 
HETATM    6  C   UNL     1      20.930  -2.875  31.340  1.00  0.00     0.007 A 
HETATM    7  C   UNL     1      21.117  -1.661  32.001  1.00  0.00     0.003 A 
HETATM    8  C   UNL     1      21.708  -1.639  33.264  1.00  0.00     0.036 A 
BRANCH   5   9
HETATM    9  C   UNL     1      21.134  -5.364  31.235  1.00  0.00     0.038 C 
BRANCH   9  10
HETATM   10  C   UNL     1      22.434  -6.003  30.730  1.00  0.00     0.005 C 
BRANCH  10  11
HETATM   11  C   UNL     1      22.636  -7.434  31.247  1.00  0.00     0.011 C 
BRANCH  11  12
HETATM   12  C   UNL     1      23.511  -7.481  32.501  1.00  0.00     0.113 C 
BRANCH  12  13
HETATM   13  C   UNL     1      22.714  -7.588  33.783  1.00  0.00     0.172 C 
HETATM   14  O   UNL     1      23.519  -7.518  34.875  1.00  0.00    -0.648 OA
HETATM   15  O   UNL     1      21.499  -7.700  33.856  1.00  0.00    -0.648 OA
ENDBRANCH  12  13
ENDBRANCH  11  12
ENDBRANCH  10  11
ENDBRANCH   9  10
ENDBRANCH   5   9
ENDBRANCH   1   3
TORSDOF 6
ENDMDL
MODEL 4
REMARK VINA RESULT:      -6.9      1.239      1.984
REMARK  6 active torsions:
REMARK  status: ('A' for Active; 'I' for Inactive)
REMARK    1  A    between atoms: O_1  and  C_11 
REMARK    2  A    between atoms: C_4  and  C_5 
REMARK    3  A    between atoms: C_4  and  C_6 
REMARK    4  A    between atoms: C_5  and  C_7 
REMARK    5  A    between atoms: C_6  and  C_8 
REMARK    6  A    between atoms: C_8  and  C_12 
ROOT
HETATM    1  O   UNL     1      21.656  -7.874  29.959  1.00  0.00    -0.361 OA
HETATM    2  H   UNL     1      22.408  -8.265  29.559  1.00  0.00     0.217 HD
ENDROOT
BRANCH   1   3
HETATM    3  C   UNL     1      21.812  -6.885  30.881  1.00  0.00     0.066 A 
HETATM    4  C   UNL     1      21.578  -5.557  30.525  1.00  0.00     0.043 A 
HETATM    5  C   UNL     1      21.742  -4.560  31.476  1.00  0.00    -0.056 A 
HETATM    6  C   UNL     1      22.135  -4.860  32.772  1.00  0.00     0.007 A 
HETATM    7  C   UNL     1      22.369  -6.187  33.126  1.00  0.00     0.003 A 
HETATM    8  C   UNL     1      22.207  -7.201  32.181  1.00  0.00     0.036 A 
BRANCH   5   9
HETATM    9  C   UNL     1      21.491  -3.124  31.092  1.00  0.00     0.038 C 
BRANCH   9  10
HETATM   10  C   UNL     1      20.713  -2.326  32.146  1.00  0.00     0.005 C 
BRANCH  10  11
HETATM   11  C   UNL     1      21.612  -1.405  32.982  1.00  0.00     0.011 C 
BRANCH  11  12
HETATM   12  C   UNL     1      21.333  -1.525  34.482  1.00  0.00     0.113 C 
BRANCH  12  13
HETATM   13  C   UNL     1      22.589  -1.557  35.324  1.00  0.00     0.172 C 
HETATM   14  O   UNL     1      22.364  -2.144  36.528  1.00  0.00    -0.648 OA
HETATM   15  O   UNL     1      23.685  -1.137  34.981  1.00  0.00    -0.648 OA
ENDBRANCH  12  13
ENDBRANCH  11  12
ENDBRANCH  10  11
ENDBRANCH   9  10
ENDBRANCH   5   9
ENDBRANCH   1   3
TORSDOF 6
ENDMDL
MODEL 5
REMARK VINA RESULT:      -6.6      2.251      5.806
REMARK  6 active torsions:
REMARK  status: ('A' for Active; 'I' for Inactive)
REMARK    1  A    between atoms: O_1  and  C_11 
REMARK    2  A    between atoms: C_4  and  C_5 
REMARK    3  A    between atoms: C_4  and  C_6 
REMARK    4  A    between atoms: C_5  and  C_7 
REMARK    5  A    between atoms: C_6  and  C_8 
REMARK    6  A    between atoms: C_8  and  C_12 
ROOT
HETATM    1  O   UNL     1      22.000  -1.066  34.781  1.00  0.00    -0.361 OA
HETATM    2  H   UNL     1      21.972  -0.145  34.611  1.00  0.00     0.217 HD
ENDROOT
BRANCH   1   3
HETATM    3  C   UNL     1      21.823  -1.952  33.764  1.00  0.00     0.066 A 
HETATM    4  C   UNL     1      22.094  -3.306  33.962  1.00  0.00     0.043 A 
HETATM    5  C   UNL     1      21.909  -4.196  32.915  1.00  0.00    -0.056 A 
HETATM    6  C   UNL     1      21.460  -3.766  31.675  1.00  0.00     0.007 A 
HETATM    7  C   UNL     1      21.188  -2.413  31.478  1.00  0.00     0.003 A 
HETATM    8  C   UNL     1      21.369  -1.505  32.522  1.00  0.00     0.036 A 
BRANCH   5   9
HETATM    9  C   UNL     1      22.204  -5.660  33.127  1.00  0.00     0.038 C 
BRANCH   9  10
HETATM   10  C   UNL     1      21.814  -6.551  31.942  1.00  0.00     0.005 C 
BRANCH  10  11
HETATM   11  C   UNL     1      23.026  -7.192  31.252  1.00  0.00     0.011 C 
BRANCH  11  12
HETATM   12  C   UNL     1      23.948  -7.908  32.242  1.00  0.00     0.113 C 
BRANCH  12  13
HETATM   13  C   UNL     1      25.016  -8.742  31.570  1.00  0.00     0.172 C 
HETATM   14  O   UNL     1      24.977  -8.602  30.219  1.00  0.00    -0.648 OA
HETATM   15  O   UNL     1      25.836  -9.443  32.145  1.00  0.00    -0.648 OA
ENDBRANCH  12  13
ENDBRANCH  11  12
ENDBRANCH  10  11
ENDBRANCH   9  10
ENDBRANCH   5   9
ENDBRANCH   1   3
TORSDOF 6
ENDMDL
MODEL 6
REMARK VINA RESULT:      -6.5      4.247      5.945
REMARK  6 active torsions:
REMARK  status: ('A' for Active; 'I' for Inactive)
REMARK    1  A    between atoms: O_1  and  C_11 
REMARK    2  A    between atoms: C_4  and  C_5 
REMARK    3  A    between atoms: C_4  and  C_6 
REMARK    4  A    between atoms: C_5  and  C_7 
REMARK    5  A    between atoms: C_6  and  C_8 
REMARK    6  A    between atoms: C_8  and  C_12 
ROOT
HETATM    1  O   UNL     1      21.610  -0.781  32.960  1.00  0.00    -0.361 OA
HETATM    2  H   UNL     1      21.711  -0.148  32.277  1.00  0.00     0.217 HD
ENDROOT
BRANCH   1   3
HETATM    3  C   UNL     1      21.667  -2.109  32.669  1.00  0.00     0.066 A 
HETATM    4  C   UNL     1      21.379  -2.555  31.378  1.00  0.00     0.043 A 
HETATM    5  C   UNL     1      21.441  -3.912  31.098  1.00  0.00    -0.056 A 
HETATM    6  C   UNL     1      21.784  -4.833  32.076  1.00  0.00     0.007 A 
HETATM    7  C   UNL     1      22.072  -4.388  33.365  1.00  0.00     0.003 A 
HETATM    8  C   UNL     1      22.014  -3.025  33.662  1.00  0.00     0.036 A 
BRANCH   5   9
HETATM    9  C   UNL     1      21.129  -4.394  29.704  1.00  0.00     0.038 C 
BRANCH   9  10
HETATM   10  C   UNL     1      19.630  -4.566  29.427  1.00  0.00     0.005 C 
BRANCH  10  11
HETATM   11  C   UNL     1      19.089  -3.548  28.414  1.00  0.00     0.011 C 
BRANCH  11  12
HETATM   12  C   UNL     1      20.179  -3.026  27.475  1.00  0.00     0.113 C 
BRANCH  12  13
HETATM   13  C   UNL     1      19.733  -1.848  26.637  1.00  0.00     0.172 C 
HETATM   14  O   UNL     1      18.746  -1.147  27.253  1.00  0.00    -0.648 OA
HETATM   15  O   UNL     1      20.199  -1.531  25.552  1.00  0.00    -0.648 OA
ENDBRANCH  12  13
ENDBRANCH  11  12
ENDBRANCH  10  11
ENDBRANCH   9  10
ENDBRANCH   5   9
ENDBRANCH   1   3
TORSDOF 6
ENDMDL
MODEL 7
REMARK VINA RESULT:      -6.5      4.279      5.852
REMARK  6 active torsions:
REMARK  status: ('A' for Active; 'I' for Inactive)
REMARK    1  A    between atoms: O_1  and  C_11 
REMARK    2  A    between atoms: C_4  and  C_5 
REMARK    3  A    between atoms: C_4  and  C_6 
REMARK    4  A    between atoms: C_5  and  C_7 
REMARK    5  A    between atoms: C_6  and  C_8 
REMARK    6  A    between atoms: C_8  and  C_12 
ROOT
HETATM    1  O   UNL     1      22.579  -5.270  33.803  1.00  0.00    -0.361 OA
HETATM    2  H   UNL     1      23.133  -5.841  33.309  1.00  0.00     0.217 HD
ENDROOT
BRANCH   1   3
HETATM    3  C   UNL     1      22.083  -4.140  33.231  1.00  0.00     0.066 A 
HETATM    4  C   UNL     1      21.755  -4.129  31.875  1.00  0.00     0.043 A 
HETATM    5  C   UNL     1      21.251  -2.969  31.306  1.00  0.00    -0.056 A 
HETATM    6  C   UNL     1      21.068  -1.819  32.060  1.00  0.00     0.007 A 
HETATM    7  C   UNL     1      21.396  -1.830  33.415  1.00  0.00     0.003 A 
HETATM    8  C   UNL     1      21.904  -2.990  34.002  1.00  0.00     0.036 A 
BRANCH   5   9
HETATM    9  C   UNL     1      20.898  -2.957  29.841  1.00  0.00     0.038 C 
BRANCH   9  10
HETATM   10  C   UNL     1      19.403  -2.755  29.563  1.00  0.00     0.005 C 
BRANCH  10  11
HETATM   11  C   UNL     1      18.811  -3.843  28.656  1.00  0.00     0.011 C 
BRANCH  11  12
HETATM   12  C   UNL     1      19.272  -3.702  27.204  1.00  0.00     0.113 C 
BRANCH  12  13
HETATM   13  C   UNL     1      19.141  -2.294  26.668  1.00  0.00     0.172 C 
HETATM   14  O   UNL     1      20.354  -1.767  26.358  1.00  0.00    -0.648 OA
HETATM   15  O   UNL     1      18.089  -1.692  26.503  1.00  0.00    -0.648 OA
ENDBRANCH  12  13
ENDBRANCH  11  12
ENDBRANCH  10  11
ENDBRANCH   9  10
ENDBRANCH   5   9
ENDBRANCH   1   3
TORSDOF 6
ENDMDL
MODEL 8
REMARK VINA RESULT:      -6.4      3.210      5.511
REMARK  6 active torsions:
REMARK  status: ('A' for Active; 'I' for Inactive)
REMARK    1  A    between atoms: O_1  and  C_11 
REMARK    2  A    between atoms: C_4  and  C_5 
REMARK    3  A    between atoms: C_4  and  C_6 
REMARK    4  A    between atoms: C_5  and  C_7 
REMARK    5  A    between atoms: C_6  and  C_8 
REMARK    6  A    between atoms: C_8  and  C_12 
ROOT
HETATM    1  O   UNL     1      22.491  -2.697  35.435  1.00  0.00    -0.361 OA
HETATM    2  H   UNL     1      23.352  -2.977  35.677  1.00  0.00     0.217 HD
ENDROOT
BRANCH   1   3
HETATM    3  C   UNL     1      22.092  -2.768  34.137  1.00  0.00     0.066 A 
HETATM    4  C   UNL     1      22.057  -4.000  33.483  1.00  0.00     0.043 A 
HETATM    5  C   UNL     1      21.648  -4.056  32.159  1.00  0.00    -0.056 A 
HETATM    6  C   UNL     1      21.274  -2.910  31.473  1.00  0.00     0.007 A 
HETATM    7  C   UNL     1      21.309  -1.679  32.126  1.00  0.00     0.003 A 
HETATM    8  C   UNL     1      21.718  -1.607  33.458  1.00  0.00     0.036 A 
BRANCH   5   9
HETATM    9  C   UNL     1      21.611  -5.387  31.452  1.00  0.00     0.038 C 
BRANCH   9  10
HETATM   10  C   UNL     1      21.899  -5.301  29.948  1.00  0.00     0.005 C 
BRANCH  10  11
HETATM   11  C   UNL     1      20.697  -5.708  29.085  1.00  0.00     0.011 C 
BRANCH  11  12
HETATM   12  C   UNL     1      20.210  -4.567  28.190  1.00  0.00     0.113 C 
BRANCH  12  13
HETATM   13  C   UNL     1      18.932  -3.924  28.683  1.00  0.00     0.172 C 
HETATM   14  O   UNL     1      17.875  -4.770  28.568  1.00  0.00    -0.648 OA
HETATM   15  O   UNL     1      18.837  -2.798  29.150  1.00  0.00    -0.648 OA
ENDBRANCH  12  13
ENDBRANCH  11  12
ENDBRANCH  10  11
ENDBRANCH   9  10
ENDBRANCH   5   9
ENDBRANCH   1   3
TORSDOF 6
ENDMDL
MODEL 9
REMARK VINA RESULT:      -6.4      2.681      3.728
REMARK  6 active torsions:
REMARK  status: ('A' for Active; 'I' for Inactive)
REMARK    1  A    between atoms: O_1  and  C_11 
REMARK    2  A    between atoms: C_4  and  C_5 
REMARK    3  A    between atoms: C_4  and  C_6 
REMARK    4  A    between atoms: C_5  and  C_7 
REMARK    5  A    between atoms: C_6  and  C_8 
REMARK    6  A    between atoms: C_8  and  C_12 
ROOT
HETATM    1  O   UNL     1      21.042  -1.431  27.592  1.00  0.00    -0.361 OA
HETATM    2  H   UNL     1      21.057  -0.533  27.856  1.00  0.00     0.217 HD
ENDROOT
BRANCH   1   3
HETATM    3  C   UNL     1      20.617  -2.389  28.460  1.00  0.00     0.066 A 
HETATM    4  C   UNL     1      21.461  -2.831  29.480  1.00  0.00     0.043 A 
HETATM    5  C   UNL     1      21.014  -3.808  30.356  1.00  0.00    -0.056 A 
HETATM    6  C   UNL     1      19.744  -4.354  30.238  1.00  0.00     0.007 A 
HETATM    7  C   UNL     1      18.901  -3.911  29.219  1.00  0.00     0.003 A 
HETATM    8  C   UNL     1      19.337  -2.929  28.330  1.00  0.00     0.036 A 
BRANCH   5   9
HETATM    9  C   UNL     1      21.925  -4.288  31.457  1.00  0.00     0.038 C 
BRANCH   9  10
HETATM   10  C   UNL     1      21.538  -3.779  32.851  1.00  0.00     0.005 C 
BRANCH  10  11
HETATM   11  C   UNL     1      21.948  -2.320  33.090  1.00  0.00     0.011 C 
BRANCH  11  12
HETATM   12  C   UNL     1      21.424  -1.780  34.423  1.00  0.00     0.113 C 
BRANCH  12  13
HETATM   13  C   UNL     1      22.502  -1.631  35.474  1.00  0.00     0.172 C 
HETATM   14  O   UNL     1      23.564  -0.929  34.999  1.00  0.00    -0.648 OA
HETATM   15  O   UNL     1      22.442  -2.058  36.618  1.00  0.00    -0.648 OA
ENDBRANCH  12  13
ENDBRANCH  11  12
ENDBRANCH  10  11
ENDBRANCH   9  10
ENDBRANCH   5   9
ENDBRANCH   1   3
TORSDOF 6
ENDMDL
