MODEL 1
REMARK VINA RESULT:      -6.8      0.000      0.000
REMARK  9 active torsions:
REMARK  status: ('A' for Active; 'I' for Inactive)
REMARK    1  A    between atoms: C_3  and  C_8 
REMARK    2  A    between atoms: C_5  and  O_7 
REMARK    3  A    between atoms: C_8  and  C_9 
REMARK    4  A    between atoms: C_9  and  C_10 
REMARK    5  A    between atoms: C_9  and  O_20 
REMARK    6  A    between atoms: C_10  and  C_11 
REMARK    7  A    between atoms: C_12  and  O_19 
REMARK    8  A    between atoms: C_14  and  O_18 
REMARK    9  A    between atoms: C_16  and  O_17 
ROOT
HETATM    1  C   UNL     1       1.824 -10.797  50.796  1.00  0.00     0.003 A 
HETATM    2  C   UNL     1       1.457 -10.389  52.065  1.00  0.00     0.007 A 
HETATM    3  C   UNL     1       0.904 -11.295  52.952  1.00  0.00    -0.053 A 
HETATM    4  C   UNL     1       0.717 -12.609  52.572  1.00  0.00     0.043 A 
HETATM    5  C   UNL     1       1.084 -13.021  51.299  1.00  0.00     0.066 A 
HETATM    6  C   UNL     1       1.639 -12.111  50.411  1.00  0.00     0.036 A 
ENDROOT
BRANCH   3   7
HETATM    7  C   UNL     1       0.505 -10.846  54.334  1.00  0.00     0.070 C 
BRANCH   7   8
HETATM    8  C   UNL     1       1.726 -10.886  55.256  1.00  0.00     0.127 C 
BRANCH   8   9
HETATM    9  C   UNL     1       1.845  -9.556  56.003  1.00  0.00     0.076 C 
BRANCH   9  10
HETATM   10  C   UNL     1       3.280  -9.099  55.991  1.00  0.00     0.011 A 
HETATM   11  C   UNL     1       4.161  -9.549  56.963  1.00  0.00     0.077 A 
HETATM   12  C   UNL     1       5.482  -9.129  56.952  1.00  0.00     0.073 A 
HETATM   13  C   UNL     1       5.923  -8.257  55.967  1.00  0.00     0.071 A 
HETATM   14  C   UNL     1       5.043  -7.808  54.994  1.00  0.00     0.073 A 
HETATM   15  C   UNL     1       3.723  -8.232  55.003  1.00  0.00     0.077 A 
BRANCH  11  16
HETATM   16  O   UNL     1       3.728 -10.403  57.928  1.00  0.00    -0.360 OA
HETATM   17  H   UNL     1       3.825 -11.327  57.814  1.00  0.00     0.217 HD
ENDBRANCH  11  16
BRANCH  13  18
HETATM   18  O   UNL     1       7.218  -7.844  55.956  1.00  0.00    -0.361 OA
HETATM   19  H   UNL     1       7.784  -8.058  56.671  1.00  0.00     0.217 HD
ENDBRANCH  13  18
BRANCH  15  20
HETATM   20  O   UNL     1       2.861  -7.791  54.050  1.00  0.00    -0.360 OA
HETATM   21  H   UNL     1       2.156  -8.339  53.766  1.00  0.00     0.217 HD
ENDBRANCH  15  20
ENDBRANCH   9  10
ENDBRANCH   8   9
BRANCH   8  22
HETATM   22  O   UNL     1       1.577 -11.950  56.198  1.00  0.00    -0.395 OA
HETATM   23  H   UNL     1       1.943 -11.678  57.054  1.00  0.00     0.210 HD
ENDBRANCH   8  22
ENDBRANCH   7   8
ENDBRANCH   3   7
BRANCH   5  24
HETATM   24  O   UNL     1       0.901 -14.314  50.923  1.00  0.00    -0.361 OA
HETATM   25  H   UNL     1       0.490 -14.511  50.104  1.00  0.00     0.217 HD
ENDBRANCH   5  24
TORSDOF 9
ENDMDL
MODEL 2
REMARK VINA RESULT:      -6.8      0.038      1.848
REMARK  9 active torsions:
REMARK  status: ('A' for Active; 'I' for Inactive)
REMARK    1  A    between atoms: C_3  and  C_8 
REMARK    2  A    between atoms: C_5  and  O_7 
REMARK    3  A    between atoms: C_8  and  C_9 
REMARK    4  A    between atoms: C_9  and  C_10 
REMARK    5  A    between atoms: C_9  and  O_20 
REMARK    6  A    between atoms: C_10  and  C_11 
REMARK    7  A    between atoms: C_12  and  O_19 
REMARK    8  A    between atoms: C_14  and  O_18 
REMARK    9  A    between atoms: C_16  and  O_17 
ROOT
HETATM    1  C   UNL     1       1.802 -10.837  50.789  1.00  0.00     0.003 A 
HETATM    2  C   UNL     1       1.438 -10.428  52.058  1.00  0.00     0.007 A 
HETATM    3  C   UNL     1       0.900 -11.337  52.951  1.00  0.00    -0.053 A 
HETATM    4  C   UNL     1       0.725 -12.654  52.576  1.00  0.00     0.043 A 
HETATM    5  C   UNL     1       1.089 -13.066  51.303  1.00  0.00     0.066 A 
HETATM    6  C   UNL     1       1.629 -12.153  50.409  1.00  0.00     0.036 A 
ENDROOT
BRANCH   3   7
HETATM    7  C   UNL     1       0.505 -10.889  54.335  1.00  0.00     0.070 C 
BRANCH   7   8
HETATM    8  C   UNL     1       1.733 -10.907  55.248  1.00  0.00     0.127 C 
BRANCH   8   9
HETATM    9  C   UNL     1       1.842  -9.570  55.983  1.00  0.00     0.076 C 
BRANCH   9  10
HETATM   10  C   UNL     1       3.277  -9.110  55.977  1.00  0.00     0.011 A 
HETATM   11  C   UNL     1       3.728  -8.257  54.981  1.00  0.00     0.077 A 
HETATM   12  C   UNL     1       5.048  -7.833  54.975  1.00  0.00     0.073 A 
HETATM   13  C   UNL     1       5.918  -8.262  55.966  1.00  0.00     0.071 A 
HETATM   14  C   UNL     1       5.466  -9.114  56.964  1.00  0.00     0.073 A 
HETATM   15  C   UNL     1       4.145  -9.533  56.972  1.00  0.00     0.077 A 
BRANCH  11  16
HETATM   16  O   UNL     1       2.875  -7.837  54.009  1.00  0.00    -0.360 OA
HETATM   17  H   UNL     1       3.078  -7.993  53.108  1.00  0.00     0.217 HD
ENDBRANCH  11  16
BRANCH  13  18
HETATM   18  O   UNL     1       7.212  -7.848  55.961  1.00  0.00    -0.361 OA
HETATM   19  H   UNL     1       7.530  -7.317  55.257  1.00  0.00     0.217 HD
ENDBRANCH  13  18
BRANCH  15  20
HETATM   20  O   UNL     1       3.704 -10.369  57.949  1.00  0.00    -0.360 OA
HETATM   21  H   UNL     1       3.050 -11.011  57.755  1.00  0.00     0.217 HD
ENDBRANCH  15  20
ENDBRANCH   9  10
ENDBRANCH   8   9
BRANCH   8  22
HETATM   22  O   UNL     1       1.602 -11.965  56.200  1.00  0.00    -0.395 OA
HETATM   23  H   UNL     1       2.183 -11.793  56.957  1.00  0.00     0.210 HD
ENDBRANCH   8  22
ENDBRANCH   7   8
ENDBRANCH   3   7
BRANCH   5  24
HETATM   24  O   UNL     1       0.918 -14.363  50.932  1.00  0.00    -0.361 OA
HETATM   25  H   UNL     1       0.562 -14.981  51.540  1.00  0.00     0.217 HD
ENDBRANCH   5  24
TORSDOF 9
ENDMDL
MODEL 3
REMARK VINA RESULT:      -6.8      3.441      6.767
REMARK  9 active torsions:
REMARK  status: ('A' for Active; 'I' for Inactive)
REMARK    1  A    between atoms: C_3  and  C_8 
REMARK    2  A    between atoms: C_5  and  O_7 
REMARK    3  A    between atoms: C_8  and  C_9 
REMARK    4  A    between atoms: C_9  and  C_10 
REMARK    5  A    between atoms: C_9  and  O_20 
REMARK    6  A    between atoms: C_10  and  C_11 
REMARK    7  A    between atoms: C_12  and  O_19 
REMARK    8  A    between atoms: C_14  and  O_18 
REMARK    9  A    between atoms: C_16  and  O_17 
ROOT
HETATM    1  C   UNL     1       2.847  -9.612  56.513  1.00  0.00     0.003 A 
HETATM    2  C   UNL     1       2.893  -8.300  56.082  1.00  0.00     0.007 A 
HETATM    3  C   UNL     1       4.058  -7.566  56.218  1.00  0.00    -0.053 A 
HETATM    4  C   UNL     1       5.177  -8.143  56.785  1.00  0.00     0.043 A 
HETATM    5  C   UNL     1       5.133  -9.460  57.219  1.00  0.00     0.066 A 
HETATM    6  C   UNL     1       3.964 -10.194  57.081  1.00  0.00     0.036 A 
ENDROOT
BRANCH   3   7
HETATM    7  C   UNL     1       4.105  -6.135  55.746  1.00  0.00     0.070 C 
BRANCH   7   8
HETATM    8  C   UNL     1       4.382  -6.102  54.241  1.00  0.00     0.127 C 
BRANCH   8   9
HETATM    9  C   UNL     1       3.158  -5.548  53.509  1.00  0.00     0.076 C 
BRANCH   9  10
HETATM   10  C   UNL     1       3.165  -6.032  52.082  1.00  0.00     0.011 A 
HETATM   11  C   UNL     1       3.772  -5.270  51.094  1.00  0.00     0.077 A 
HETATM   12  C   UNL     1       3.778  -5.715  49.781  1.00  0.00     0.073 A 
HETATM   13  C   UNL     1       3.177  -6.921  49.455  1.00  0.00     0.071 A 
HETATM   14  C   UNL     1       2.571  -7.683  50.443  1.00  0.00     0.073 A 
HETATM   15  C   UNL     1       2.569  -7.241  51.757  1.00  0.00     0.077 A 
BRANCH  11  16
HETATM   16  O   UNL     1       4.360  -4.087  51.414  1.00  0.00    -0.360 OA
HETATM   17  H   UNL     1       5.222  -4.077  51.781  1.00  0.00     0.217 HD
ENDBRANCH  11  16
BRANCH  13  18
HETATM   18  O   UNL     1       3.182  -7.357  48.168  1.00  0.00    -0.361 OA
HETATM   19  H   UNL     1       2.410  -7.279  47.644  1.00  0.00     0.217 HD
ENDBRANCH  13  18
BRANCH  15  20
HETATM   20  O   UNL     1       1.974  -7.988  52.724  1.00  0.00    -0.360 OA
HETATM   21  H   UNL     1       1.041  -7.997  52.801  1.00  0.00     0.217 HD
ENDBRANCH  15  20
ENDBRANCH   9  10
ENDBRANCH   8   9
BRANCH   8  22
HETATM   22  O   UNL     1       5.510  -5.265  53.983  1.00  0.00    -0.395 OA
HETATM   23  H   UNL     1       6.195  -5.429  54.651  1.00  0.00     0.210 HD
ENDBRANCH   8  22
ENDBRANCH   7   8
ENDBRANCH   3   7
BRANCH   5  24
HETATM   24  O   UNL     1       6.234 -10.030  57.776  1.00  0.00    -0.361 OA
HETATM   25  H   UNL     1       6.852 -10.481  57.236  1.00  0.00     0.217 HD
ENDBRANCH   5  24
TORSDOF 9
ENDMDL
MODEL 4
REMARK VINA RESULT:      -6.7      3.459      6.635
REMARK  9 active torsions:
REMARK  status: ('A' for Active; 'I' for Inactive)
REMARK    1  A    between atoms: C_3  and  C_8 
REMARK    2  A    between atoms: C_5  and  O_7 
REMARK    3  A    between atoms: C_8  and  C_9 
REMARK    4  A    between atoms: C_9  and  C_10 
REMARK    5  A    between atoms: C_9  and  O_20 
REMARK    6  A    between atoms: C_10  and  C_11 
REMARK    7  A    between atoms: C_12  and  O_19 
REMARK    8  A    between atoms: C_14  and  O_18 
REMARK    9  A    between atoms: C_16  and  O_17 
ROOT
HETATM    1  C   UNL     1       2.875  -9.681  56.531  1.00  0.00     0.003 A 
HETATM    2  C   UNL     1       2.912  -8.375  56.080  1.00  0.00     0.007 A 
HETATM    3  C   UNL     1       4.071  -7.631  56.205  1.00  0.00    -0.053 A 
HETATM    4  C   UNL     1       5.193  -8.192  56.782  1.00  0.00     0.043 A 
HETATM    5  C   UNL     1       5.158  -9.502  57.236  1.00  0.00     0.066 A 
HETATM    6  C   UNL     1       3.994 -10.246  57.108  1.00  0.00     0.036 A 
ENDROOT
BRANCH   3   7
HETATM    7  C   UNL     1       4.109  -6.207  55.712  1.00  0.00     0.070 C 
BRANCH   7   8
HETATM    8  C   UNL     1       4.364  -6.196  54.203  1.00  0.00     0.127 C 
BRANCH   8   9
HETATM    9  C   UNL     1       3.148  -5.608  53.485  1.00  0.00     0.076 C 
BRANCH   9  10
HETATM   10  C   UNL     1       3.166  -6.032  52.039  1.00  0.00     0.011 A 
HETATM   11  C   UNL     1       2.560  -7.220  51.657  1.00  0.00     0.077 A 
HETATM   12  C   UNL     1       2.576  -7.611  50.327  1.00  0.00     0.073 A 
HETATM   13  C   UNL     1       3.198  -6.814  49.378  1.00  0.00     0.071 A 
HETATM   14  C   UNL     1       3.803  -5.626  49.760  1.00  0.00     0.073 A 
HETATM   15  C   UNL     1       3.783  -5.233  51.089  1.00  0.00     0.077 A 
BRANCH  11  16
HETATM   16  O   UNL     1       1.951  -8.001  52.588  1.00  0.00    -0.360 OA
HETATM   17  H   UNL     1       1.142  -8.428  52.385  1.00  0.00     0.217 HD
ENDBRANCH  11  16
BRANCH  13  18
HETATM   18  O   UNL     1       3.215  -7.197  48.074  1.00  0.00    -0.361 OA
HETATM   19  H   UNL     1       3.068  -6.565  47.399  1.00  0.00     0.217 HD
ENDBRANCH  13  18
BRANCH  15  20
HETATM   20  O   UNL     1       4.377  -4.069  51.463  1.00  0.00    -0.360 OA
HETATM   21  H   UNL     1       4.837  -3.554  50.830  1.00  0.00     0.217 HD
ENDBRANCH  15  20
ENDBRANCH   9  10
ENDBRANCH   8   9
BRANCH   8  22
HETATM   22  O   UNL     1       5.516  -5.398  53.922  1.00  0.00    -0.395 OA
HETATM   23  H   UNL     1       6.219  -5.961  53.560  1.00  0.00     0.210 HD
ENDBRANCH   8  22
ENDBRANCH   7   8
ENDBRANCH   3   7
BRANCH   5  24
HETATM   24  O   UNL     1       6.262 -10.056  57.803  1.00  0.00    -0.361 OA
HETATM   25  H   UNL     1       6.181 -10.569  58.583  1.00  0.00     0.217 HD
ENDBRANCH   5  24
TORSDOF 9
ENDMDL
MODEL 5
REMARK VINA RESULT:      -6.7      1.049      2.380
REMARK  9 active torsions:
REMARK  status: ('A' for Active; 'I' for Inactive)
REMARK    1  A    between atoms: C_3  and  C_8 
REMARK    2  A    between atoms: C_5  and  O_7 
REMARK    3  A    between atoms: C_8  and  C_9 
REMARK    4  A    between atoms: C_9  and  C_10 
REMARK    5  A    between atoms: C_9  and  O_20 
REMARK    6  A    between atoms: C_10  and  C_11 
REMARK    7  A    between atoms: C_12  and  O_19 
REMARK    8  A    between atoms: C_14  and  O_18 
REMARK    9  A    between atoms: C_16  and  O_17 
ROOT
HETATM    1  C   UNL     1       1.058 -13.069  51.318  1.00  0.00     0.003 A 
HETATM    2  C   UNL     1       0.688 -12.640  52.579  1.00  0.00     0.007 A 
HETATM    3  C   UNL     1       0.903 -11.327  52.956  1.00  0.00    -0.053 A 
HETATM    4  C   UNL     1       1.489 -10.442  52.073  1.00  0.00     0.043 A 
HETATM    5  C   UNL     1       1.862 -10.870  50.807  1.00  0.00     0.066 A 
HETATM    6  C   UNL     1       1.644 -12.187  50.431  1.00  0.00     0.036 A 
ENDROOT
BRANCH   3   7
HETATM    7  C   UNL     1       0.498 -10.862  54.331  1.00  0.00     0.070 C 
BRANCH   7   8
HETATM    8  C   UNL     1       1.709 -10.916  55.266  1.00  0.00     0.127 C 
BRANCH   8   9
HETATM    9  C   UNL     1       1.828  -9.592  56.023  1.00  0.00     0.076 C 
BRANCH   9  10
HETATM   10  C   UNL     1       3.261  -9.129  56.001  1.00  0.00     0.011 A 
HETATM   11  C   UNL     1       3.693  -8.255  55.015  1.00  0.00     0.077 A 
HETATM   12  C   UNL     1       5.013  -7.828  54.995  1.00  0.00     0.073 A 
HETATM   13  C   UNL     1       5.900  -8.276  55.962  1.00  0.00     0.071 A 
HETATM   14  C   UNL     1       5.468  -9.150  56.949  1.00  0.00     0.073 A 
HETATM   15  C   UNL     1       4.148  -9.572  56.971  1.00  0.00     0.077 A 
BRANCH  11  16
HETATM   16  O   UNL     1       2.823  -7.816  54.068  1.00  0.00    -0.360 OA
HETATM   17  H   UNL     1       2.853  -8.175  53.203  1.00  0.00     0.217 HD
ENDBRANCH  11  16
BRANCH  13  18
HETATM   18  O   UNL     1       7.194  -7.859  55.942  1.00  0.00    -0.361 OA
HETATM   19  H   UNL     1       7.584  -7.584  55.136  1.00  0.00     0.217 HD
ENDBRANCH  13  18
BRANCH  15  20
HETATM   20  O   UNL     1       3.725 -10.429  57.938  1.00  0.00    -0.360 OA
HETATM   21  H   UNL     1       3.259 -10.102  58.682  1.00  0.00     0.217 HD
ENDBRANCH  15  20
ENDBRANCH   9  10
ENDBRANCH   8   9
BRANCH   8  22
HETATM   22  O   UNL     1       1.542 -11.986  56.199  1.00  0.00    -0.395 OA
HETATM   23  H   UNL     1       1.155 -12.752  55.747  1.00  0.00     0.210 HD
ENDBRANCH   8  22
ENDBRANCH   7   8
ENDBRANCH   3   7
BRANCH   5  24
HETATM   24  O   UNL     1       2.438  -9.999  49.937  1.00  0.00    -0.361 OA
HETATM   25  H   UNL     1       2.558  -9.102  50.181  1.00  0.00     0.217 HD
ENDBRANCH   5  24
TORSDOF 9
ENDMDL
MODEL 6
REMARK VINA RESULT:      -6.6      1.243      1.636
REMARK  9 active torsions:
REMARK  status: ('A' for Active; 'I' for Inactive)
REMARK    1  A    between atoms: C_3  and  C_8 
REMARK    2  A    between atoms: C_5  and  O_7 
REMARK    3  A    between atoms: C_8  and  C_9 
REMARK    4  A    between atoms: C_9  and  C_10 
REMARK    5  A    between atoms: C_9  and  O_20 
REMARK    6  A    between atoms: C_10  and  C_11 
REMARK    7  A    between atoms: C_12  and  O_19 
REMARK    8  A    between atoms: C_14  and  O_18 
REMARK    9  A    between atoms: C_16  and  O_17 
ROOT
HETATM    1  C   UNL     1       1.391 -12.763  50.852  1.00  0.00     0.003 A 
HETATM    2  C   UNL     1       0.886 -12.533  52.118  1.00  0.00     0.007 A 
HETATM    3  C   UNL     1       0.971 -11.272  52.681  1.00  0.00    -0.053 A 
HETATM    4  C   UNL     1       1.560 -10.240  51.978  1.00  0.00     0.043 A 
HETATM    5  C   UNL     1       2.067 -10.468  50.707  1.00  0.00     0.066 A 
HETATM    6  C   UNL     1       1.981 -11.734  50.145  1.00  0.00     0.036 A 
ENDROOT
BRANCH   3   7
HETATM    7  C   UNL     1       0.419 -11.025  54.061  1.00  0.00     0.070 C 
BRANCH   7   8
HETATM    8  C   UNL     1       1.557 -11.084  55.083  1.00  0.00     0.127 C 
BRANCH   8   9
HETATM    9  C   UNL     1       1.556  -9.804  55.921  1.00  0.00     0.076 C 
BRANCH   9  10
HETATM   10  C   UNL     1       2.958  -9.258  56.006  1.00  0.00     0.011 A 
HETATM   11  C   UNL     1       3.846  -9.767  56.942  1.00  0.00     0.077 A 
HETATM   12  C   UNL     1       5.136  -9.265  57.019  1.00  0.00     0.073 A 
HETATM   13  C   UNL     1       5.538  -8.252  56.161  1.00  0.00     0.071 A 
HETATM   14  C   UNL     1       4.651  -7.744  55.225  1.00  0.00     0.073 A 
HETATM   15  C   UNL     1       3.363  -8.250  55.144  1.00  0.00     0.077 A 
BRANCH  11  16
HETATM   16  O   UNL     1       3.451 -10.759  57.783  1.00  0.00    -0.360 OA
HETATM   17  H   UNL     1       2.551 -10.831  58.032  1.00  0.00     0.217 HD
ENDBRANCH  11  16
BRANCH  13  18
HETATM   18  O   UNL     1       6.802  -7.759  56.238  1.00  0.00    -0.361 OA
HETATM   19  H   UNL     1       7.270  -7.547  55.454  1.00  0.00     0.217 HD
ENDBRANCH  13  18
BRANCH  15  20
HETATM   20  O   UNL     1       2.493  -7.750  54.226  1.00  0.00    -0.360 OA
HETATM   21  H   UNL     1       1.570  -7.805  54.378  1.00  0.00     0.217 HD
ENDBRANCH  15  20
ENDBRANCH   9  10
ENDBRANCH   8   9
BRANCH   8  22
HETATM   22  O   UNL     1       1.370 -12.213  55.938  1.00  0.00    -0.395 OA
HETATM   23  H   UNL     1       0.465 -12.549  55.838  1.00  0.00     0.210 HD
ENDBRANCH   8  22
ENDBRANCH   7   8
ENDBRANCH   3   7
BRANCH   5  24
HETATM   24  O   UNL     1       2.647  -9.453  50.013  1.00  0.00    -0.361 OA
HETATM   25  H   UNL     1       3.428  -9.050  50.338  1.00  0.00     0.217 HD
ENDBRANCH   5  24
TORSDOF 9
ENDMDL
MODEL 7
REMARK VINA RESULT:      -6.6      2.407      6.394
REMARK  9 active torsions:
REMARK  status: ('A' for Active; 'I' for Inactive)
REMARK    1  A    between atoms: C_3  and  C_8 
REMARK    2  A    between atoms: C_5  and  O_7 
REMARK    3  A    between atoms: C_8  and  C_9 
REMARK    4  A    between atoms: C_9  and  C_10 
REMARK    5  A    between atoms: C_9  and  O_20 
REMARK    6  A    between atoms: C_10  and  C_11 
REMARK    7  A    between atoms: C_12  and  O_19 
REMARK    8  A    between atoms: C_14  and  O_18 
REMARK    9  A    between atoms: C_16  and  O_17 
ROOT
HETATM    1  C   UNL     1       3.323  -4.743  55.468  1.00  0.00     0.003 A 
HETATM    2  C   UNL     1       3.454  -5.893  56.223  1.00  0.00     0.007 A 
HETATM    3  C   UNL     1       4.081  -7.005  55.690  1.00  0.00    -0.053 A 
HETATM    4  C   UNL     1       4.578  -6.967  54.402  1.00  0.00     0.043 A 
HETATM    5  C   UNL     1       4.447  -5.813  53.643  1.00  0.00     0.066 A 
HETATM    6  C   UNL     1       3.818  -4.700  54.180  1.00  0.00     0.036 A 
ENDROOT
BRANCH   3   7
HETATM    7  C   UNL     1       4.223  -8.258  56.515  1.00  0.00     0.070 C 
BRANCH   7   8
HETATM    8  C   UNL     1       2.961  -9.111  56.369  1.00  0.00     0.127 C 
BRANCH   8   9
HETATM    9  C   UNL     1       3.082  -9.990  55.122  1.00  0.00     0.076 C 
BRANCH   9  10
HETATM   10  C   UNL     1       1.706 -10.359  54.632  1.00  0.00     0.011 A 
HETATM   11  C   UNL     1       1.098  -9.605  53.639  1.00  0.00     0.077 A 
HETATM   12  C   UNL     1      -0.169  -9.944  53.188  1.00  0.00     0.073 A 
HETATM   13  C   UNL     1      -0.828 -11.037  53.731  1.00  0.00     0.071 A 
HETATM   14  C   UNL     1      -0.220 -11.791  54.724  1.00  0.00     0.073 A 
HETATM   15  C   UNL     1       1.048 -11.454  55.171  1.00  0.00     0.077 A 
BRANCH  11  16
HETATM   16  O   UNL     1       1.744  -8.534  53.108  1.00  0.00    -0.360 OA
HETATM   17  H   UNL     1       2.564  -8.257  53.466  1.00  0.00     0.217 HD
ENDBRANCH  11  16
BRANCH  13  18
HETATM   18  O   UNL     1      -2.070 -11.369  53.290  1.00  0.00    -0.361 OA
HETATM   19  H   UNL     1      -2.175 -12.056  52.662  1.00  0.00     0.217 HD
ENDBRANCH  13  18
BRANCH  15  20
HETATM   20  O   UNL     1       1.643 -12.193  56.144  1.00  0.00    -0.360 OA
HETATM   21  H   UNL     1       2.054 -11.767  56.870  1.00  0.00     0.217 HD
ENDBRANCH  15  20
ENDBRANCH   9  10
ENDBRANCH   8   9
BRANCH   8  22
HETATM   22  O   UNL     1       2.810  -9.939  57.523  1.00  0.00    -0.395 OA
HETATM   23  H   UNL     1       2.502  -9.401  58.269  1.00  0.00     0.210 HD
ENDBRANCH   8  22
ENDBRANCH   7   8
ENDBRANCH   3   7
BRANCH   5  24
HETATM   24  O   UNL     1       4.936  -5.774  52.375  1.00  0.00    -0.361 OA
HETATM   25  H   UNL     1       5.838  -5.570  52.226  1.00  0.00     0.217 HD
ENDBRANCH   5  24
TORSDOF 9
ENDMDL
MODEL 8
REMARK VINA RESULT:      -6.5      2.465      6.123
REMARK  9 active torsions:
REMARK  status: ('A' for Active; 'I' for Inactive)
REMARK    1  A    between atoms: C_3  and  C_8 
REMARK    2  A    between atoms: C_5  and  O_7 
REMARK    3  A    between atoms: C_8  and  C_9 
REMARK    4  A    between atoms: C_9  and  C_10 
REMARK    5  A    between atoms: C_9  and  O_20 
REMARK    6  A    between atoms: C_10  and  C_11 
REMARK    7  A    between atoms: C_12  and  O_19 
REMARK    8  A    between atoms: C_14  and  O_18 
REMARK    9  A    between atoms: C_16  and  O_17 
ROOT
HETATM    1  C   UNL     1       3.351  -4.707  55.505  1.00  0.00     0.003 A 
HETATM    2  C   UNL     1       3.533  -5.852  56.256  1.00  0.00     0.007 A 
HETATM    3  C   UNL     1       4.142  -6.960  55.695  1.00  0.00    -0.053 A 
HETATM    4  C   UNL     1       4.570  -6.924  54.383  1.00  0.00     0.043 A 
HETATM    5  C   UNL     1       4.389  -5.775  53.627  1.00  0.00     0.066 A 
HETATM    6  C   UNL     1       3.778  -4.665  54.192  1.00  0.00     0.036 A 
ENDROOT
BRANCH   3   7
HETATM    7  C   UNL     1       4.338  -8.208  56.517  1.00  0.00     0.070 C 
BRANCH   7   8
HETATM    8  C   UNL     1       3.087  -9.084  56.423  1.00  0.00     0.127 C 
BRANCH   8   9
HETATM    9  C   UNL     1       3.164  -9.950  55.164  1.00  0.00     0.076 C 
BRANCH   9  10
HETATM   10  C   UNL     1       1.771 -10.317  54.721  1.00  0.00     0.011 A 
HETATM   11  C   UNL     1       1.137 -11.421  55.272  1.00  0.00     0.077 A 
HETATM   12  C   UNL     1      -0.145 -11.759  54.864  1.00  0.00     0.073 A 
HETATM   13  C   UNL     1      -0.792 -10.994  53.906  1.00  0.00     0.071 A 
HETATM   14  C   UNL     1      -0.158  -9.890  53.356  1.00  0.00     0.073 A 
HETATM   15  C   UNL     1       1.122  -9.549  53.768  1.00  0.00     0.077 A 
BRANCH  11  16
HETATM   16  O   UNL     1       1.772 -12.171  56.210  1.00  0.00    -0.360 OA
HETATM   17  H   UNL     1       2.707 -12.160  56.265  1.00  0.00     0.217 HD
ENDBRANCH  11  16
BRANCH  13  18
HETATM   18  O   UNL     1      -2.047 -11.326  53.505  1.00  0.00    -0.361 OA
HETATM   19  H   UNL     1      -2.170 -11.894  52.771  1.00  0.00     0.217 HD
ENDBRANCH  13  18
BRANCH  15  20
HETATM   20  O   UNL     1       1.743  -8.467  53.228  1.00  0.00    -0.360 OA
HETATM   21  H   UNL     1       2.630  -8.535  52.933  1.00  0.00     0.217 HD
ENDBRANCH  15  20
ENDBRANCH   9  10
ENDBRANCH   8   9
BRANCH   8  22
HETATM   22  O   UNL     1       3.007  -9.925  57.576  1.00  0.00    -0.395 OA
HETATM   23  H   UNL     1       2.724  -9.399  58.341  1.00  0.00     0.210 HD
ENDBRANCH   8  22
ENDBRANCH   7   8
ENDBRANCH   3   7
BRANCH   5  24
HETATM   24  O   UNL     1       4.810  -5.737  52.335  1.00  0.00    -0.361 OA
HETATM   25  H   UNL     1       4.943  -4.912  51.910  1.00  0.00     0.217 HD
ENDBRANCH   5  24
TORSDOF 9
ENDMDL
MODEL 9
REMARK VINA RESULT:      -6.5      2.615      4.273
REMARK  9 active torsions:
REMARK  status: ('A' for Active; 'I' for Inactive)
REMARK    1  A    between atoms: C_3  and  C_8 
REMARK    2  A    between atoms: C_5  and  O_7 
REMARK    3  A    between atoms: C_8  and  C_9 
REMARK    4  A    between atoms: C_9  and  C_10 
REMARK    5  A    between atoms: C_9  and  O_20 
REMARK    6  A    between atoms: C_10  and  C_11 
REMARK    7  A    between atoms: C_12  and  O_19 
REMARK    8  A    between atoms: C_14  and  O_18 
REMARK    9  A    between atoms: C_16  and  O_17 
ROOT
HETATM    1  C   UNL     1       0.385 -11.162  53.480  1.00  0.00     0.003 A 
HETATM    2  C   UNL     1       1.578 -10.954  54.145  1.00  0.00     0.007 A 
HETATM    3  C   UNL     1       1.575 -10.559  55.470  1.00  0.00    -0.053 A 
HETATM    4  C   UNL     1       0.377 -10.370  56.131  1.00  0.00     0.043 A 
HETATM    5  C   UNL     1      -0.822 -10.577  55.466  1.00  0.00     0.066 A 
HETATM    6  C   UNL     1      -0.815 -10.975  54.137  1.00  0.00     0.036 A 
ENDROOT
BRANCH   3   7
HETATM    7  C   UNL     1       2.878 -10.333  56.192  1.00  0.00     0.070 C 
BRANCH   7   8
HETATM    8  C   UNL     1       3.597  -9.127  55.584  1.00  0.00     0.127 C 
BRANCH   8   9
HETATM    9  C   UNL     1       2.696  -7.894  55.681  1.00  0.00     0.076 C 
BRANCH   9  10
HETATM   10  C   UNL     1       3.173  -6.846  54.709  1.00  0.00     0.011 A 
HETATM   11  C   UNL     1       2.751  -6.880  53.388  1.00  0.00     0.077 A 
HETATM   12  C   UNL     1       3.191  -5.915  52.495  1.00  0.00     0.073 A 
HETATM   13  C   UNL     1       4.053  -4.917  52.922  1.00  0.00     0.071 A 
HETATM   14  C   UNL     1       4.474  -4.882  54.243  1.00  0.00     0.073 A 
HETATM   15  C   UNL     1       4.031  -5.844  55.137  1.00  0.00     0.077 A 
BRANCH  11  16
HETATM   16  O   UNL     1       1.907  -7.860  52.970  1.00  0.00    -0.360 OA
HETATM   17  H   UNL     1       1.695  -8.571  53.542  1.00  0.00     0.217 HD
ENDBRANCH  11  16
BRANCH  13  18
HETATM   18  O   UNL     1       4.485  -3.971  52.046  1.00  0.00    -0.361 OA
HETATM   19  H   UNL     1       5.101  -3.323  52.323  1.00  0.00     0.217 HD
ENDBRANCH  13  18
BRANCH  15  20
HETATM   20  O   UNL     1       4.444  -5.810  56.432  1.00  0.00    -0.360 OA
HETATM   21  H   UNL     1       5.346  -5.655  56.631  1.00  0.00     0.217 HD
ENDBRANCH  15  20
ENDBRANCH   9  10
ENDBRANCH   8   9
BRANCH   8  22
HETATM   22  O   UNL     1       4.811  -8.887  56.299  1.00  0.00    -0.395 OA
HETATM   23  H   UNL     1       4.623  -8.346  57.082  1.00  0.00     0.210 HD
ENDBRANCH   8  22
ENDBRANCH   7   8
ENDBRANCH   3   7
BRANCH   5  24
HETATM   24  O   UNL     1      -2.002 -10.392  56.115  1.00  0.00    -0.361 OA
HETATM   25  H   UNL     1      -2.192  -9.567  56.517  1.00  0.00     0.217 HD
ENDBRANCH   5  24
TORSDOF 9
ENDMDL
