MODEL 1
REMARK VINA RESULT:      -6.8      0.000      0.000
REMARK  9 active torsions:
REMARK  status: ('A' for Active; 'I' for Inactive)
REMARK    1  A    between atoms: C_3  and  C_8 
REMARK    2  A    between atoms: C_5  and  O_7 
REMARK    3  A    between atoms: C_8  and  C_9 
REMARK    4  A    between atoms: C_9  and  C_10 
REMARK    5  A    between atoms: C_9  and  O_20 
REMARK    6  A    between atoms: C_10  and  C_11 
REMARK    7  A    between atoms: C_12  and  O_19 
REMARK    8  A    between atoms: C_14  and  O_18 
REMARK    9  A    between atoms: C_16  and  O_17 
ROOT
HETATM    1  C   UNL     1       1.806 -10.853  50.786  1.00  0.00     0.003 A 
HETATM    2  C   UNL     1       1.444 -10.435  52.053  1.00  0.00     0.007 A 
HETATM    3  C   UNL     1       0.900 -11.335  52.952  1.00  0.00    -0.053 A 
HETATM    4  C   UNL     1       0.717 -12.653  52.584  1.00  0.00     0.043 A 
HETATM    5  C   UNL     1       1.079 -13.075  51.313  1.00  0.00     0.066 A 
HETATM    6  C   UNL     1       1.625 -12.171  50.414  1.00  0.00     0.036 A 
ENDROOT
BRANCH   3   7
HETATM    7  C   UNL     1       0.507 -10.876  54.332  1.00  0.00     0.070 C 
BRANCH   7   8
HETATM    8  C   UNL     1       1.734 -10.899  55.247  1.00  0.00     0.127 C 
BRANCH   8   9
HETATM    9  C   UNL     1       1.852  -9.559  55.975  1.00  0.00     0.076 C 
BRANCH   9  10
HETATM   10  C   UNL     1       3.290  -9.107  55.967  1.00  0.00     0.011 A 
HETATM   11  C   UNL     1       4.157  -9.533  56.962  1.00  0.00     0.077 A 
HETATM   12  C   UNL     1       5.480  -9.117  56.953  1.00  0.00     0.073 A 
HETATM   13  C   UNL     1       5.936  -8.275  55.950  1.00  0.00     0.071 A 
HETATM   14  C   UNL     1       5.069  -7.851  54.954  1.00  0.00     0.073 A 
HETATM   15  C   UNL     1       3.748  -8.271  54.960  1.00  0.00     0.077 A 
BRANCH  11  16
HETATM   16  O   UNL     1       3.710 -10.357  57.946  1.00  0.00    -0.360 OA
HETATM   17  H   UNL     1       3.761 -10.088  58.841  1.00  0.00     0.217 HD
ENDBRANCH  11  16
BRANCH  13  18
HETATM   18  O   UNL     1       7.232  -7.867  55.942  1.00  0.00    -0.361 OA
HETATM   19  H   UNL     1       7.915  -8.482  55.759  1.00  0.00     0.217 HD
ENDBRANCH  13  18
BRANCH  15  20
HETATM   20  O   UNL     1       2.898  -7.853  53.984  1.00  0.00    -0.360 OA
HETATM   21  H   UNL     1       3.221  -7.340  53.270  1.00  0.00     0.217 HD
ENDBRANCH  15  20
ENDBRANCH   9  10
ENDBRANCH   8   9
BRANCH   8  22
HETATM   22  O   UNL     1       1.595 -11.951  56.203  1.00  0.00    -0.395 OA
HETATM   23  H   UNL     1       2.406 -12.483  56.219  1.00  0.00     0.210 HD
ENDBRANCH   8  22
ENDBRANCH   7   8
ENDBRANCH   3   7
BRANCH   5  24
HETATM   24  O   UNL     1       0.900 -14.373  50.950  1.00  0.00    -0.361 OA
HETATM   25  H   UNL     1       0.860 -15.042  51.606  1.00  0.00     0.217 HD
ENDBRANCH   5  24
TORSDOF 9
ENDMDL
MODEL 2
REMARK VINA RESULT:      -6.8      0.033      1.848
REMARK  9 active torsions:
REMARK  status: ('A' for Active; 'I' for Inactive)
REMARK    1  A    between atoms: C_3  and  C_8 
REMARK    2  A    between atoms: C_5  and  O_7 
REMARK    3  A    between atoms: C_8  and  C_9 
REMARK    4  A    between atoms: C_9  and  C_10 
REMARK    5  A    between atoms: C_9  and  O_20 
REMARK    6  A    between atoms: C_10  and  C_11 
REMARK    7  A    between atoms: C_12  and  O_19 
REMARK    8  A    between atoms: C_14  and  O_18 
REMARK    9  A    between atoms: C_16  and  O_17 
ROOT
HETATM    1  C   UNL     1       1.801 -10.798  50.796  1.00  0.00     0.003 A 
HETATM    2  C   UNL     1       1.440 -10.395  52.068  1.00  0.00     0.007 A 
HETATM    3  C   UNL     1       0.907 -11.308  52.960  1.00  0.00    -0.053 A 
HETATM    4  C   UNL     1       0.733 -12.624  52.580  1.00  0.00     0.043 A 
HETATM    5  C   UNL     1       1.093 -13.031  51.304  1.00  0.00     0.066 A 
HETATM    6  C   UNL     1       1.629 -12.114  50.412  1.00  0.00     0.036 A 
ENDROOT
BRANCH   3   7
HETATM    7  C   UNL     1       0.515 -10.865  54.346  1.00  0.00     0.070 C 
BRANCH   7   8
HETATM    8  C   UNL     1       1.744 -10.896  55.258  1.00  0.00     0.127 C 
BRANCH   8   9
HETATM    9  C   UNL     1       1.865  -9.562  55.996  1.00  0.00     0.076 C 
BRANCH   9  10
HETATM   10  C   UNL     1       3.302  -9.108  55.980  1.00  0.00     0.011 A 
HETATM   11  C   UNL     1       3.750  -8.256  54.981  1.00  0.00     0.077 A 
HETATM   12  C   UNL     1       5.072  -7.838  54.967  1.00  0.00     0.073 A 
HETATM   13  C   UNL     1       5.947  -8.273  55.950  1.00  0.00     0.071 A 
HETATM   14  C   UNL     1       5.499  -9.125  56.950  1.00  0.00     0.073 A 
HETATM   15  C   UNL     1       4.176  -9.538  56.967  1.00  0.00     0.077 A 
BRANCH  11  16
HETATM   16  O   UNL     1       2.892  -7.830  54.017  1.00  0.00    -0.360 OA
HETATM   17  H   UNL     1       2.094  -7.401  54.256  1.00  0.00     0.217 HD
ENDBRANCH  11  16
BRANCH  13  18
HETATM   18  O   UNL     1       7.243  -7.865  55.936  1.00  0.00    -0.361 OA
HETATM   19  H   UNL     1       7.805  -8.066  56.658  1.00  0.00     0.217 HD
ENDBRANCH  13  18
BRANCH  15  20
HETATM   20  O   UNL     1       3.738 -10.373  57.946  1.00  0.00    -0.360 OA
HETATM   21  H   UNL     1       2.873 -10.730  57.904  1.00  0.00     0.217 HD
ENDBRANCH  15  20
ENDBRANCH   9  10
ENDBRANCH   8   9
BRANCH   8  22
HETATM   22  O   UNL     1       1.605 -11.955  56.207  1.00  0.00    -0.395 OA
HETATM   23  H   UNL     1       0.684 -12.260  56.219  1.00  0.00     0.210 HD
ENDBRANCH   8  22
ENDBRANCH   7   8
ENDBRANCH   3   7
BRANCH   5  24
HETATM   24  O   UNL     1       0.923 -14.326  50.929  1.00  0.00    -0.361 OA
HETATM   25  H   UNL     1       1.058 -14.577  50.036  1.00  0.00     0.217 HD
ENDBRANCH   5  24
TORSDOF 9
ENDMDL
MODEL 3
REMARK VINA RESULT:      -6.8      3.465      6.768
REMARK  9 active torsions:
REMARK  status: ('A' for Active; 'I' for Inactive)
REMARK    1  A    between atoms: C_3  and  C_8 
REMARK    2  A    between atoms: C_5  and  O_7 
REMARK    3  A    between atoms: C_8  and  C_9 
REMARK    4  A    between atoms: C_9  and  C_10 
REMARK    5  A    between atoms: C_9  and  O_20 
REMARK    6  A    between atoms: C_10  and  C_11 
REMARK    7  A    between atoms: C_12  and  O_19 
REMARK    8  A    between atoms: C_14  and  O_18 
REMARK    9  A    between atoms: C_16  and  O_17 
ROOT
HETATM    1  C   UNL     1       2.850  -9.612  56.507  1.00  0.00     0.003 A 
HETATM    2  C   UNL     1       2.898  -8.299  56.078  1.00  0.00     0.007 A 
HETATM    3  C   UNL     1       4.062  -7.565  56.219  1.00  0.00    -0.053 A 
HETATM    4  C   UNL     1       5.179  -8.144  56.788  1.00  0.00     0.043 A 
HETATM    5  C   UNL     1       5.133  -9.461  57.219  1.00  0.00     0.066 A 
HETATM    6  C   UNL     1       3.965 -10.195  57.076  1.00  0.00     0.036 A 
ENDROOT
BRANCH   3   7
HETATM    7  C   UNL     1       4.111  -6.133  55.750  1.00  0.00     0.070 C 
BRANCH   7   8
HETATM    8  C   UNL     1       4.388  -6.098  54.245  1.00  0.00     0.127 C 
BRANCH   8   9
HETATM    9  C   UNL     1       3.160  -5.550  53.514  1.00  0.00     0.076 C 
BRANCH   9  10
HETATM   10  C   UNL     1       3.173  -6.029  52.085  1.00  0.00     0.011 A 
HETATM   11  C   UNL     1       3.783  -5.264  51.102  1.00  0.00     0.077 A 
HETATM   12  C   UNL     1       3.794  -5.704  49.788  1.00  0.00     0.073 A 
HETATM   13  C   UNL     1       3.194  -6.909  49.455  1.00  0.00     0.071 A 
HETATM   14  C   UNL     1       2.585  -7.675  50.438  1.00  0.00     0.073 A 
HETATM   15  C   UNL     1       2.579  -7.237  51.753  1.00  0.00     0.077 A 
BRANCH  11  16
HETATM   16  O   UNL     1       4.369  -4.082  51.428  1.00  0.00    -0.360 OA
HETATM   17  H   UNL     1       3.884  -3.431  51.896  1.00  0.00     0.217 HD
ENDBRANCH  11  16
BRANCH  13  18
HETATM   18  O   UNL     1       3.204  -7.341  48.167  1.00  0.00    -0.361 OA
HETATM   19  H   UNL     1       2.434  -7.259  47.640  1.00  0.00     0.217 HD
ENDBRANCH  13  18
BRANCH  15  20
HETATM   20  O   UNL     1       1.981  -7.988  52.717  1.00  0.00    -0.360 OA
HETATM   21  H   UNL     1       1.088  -8.253  52.616  1.00  0.00     0.217 HD
ENDBRANCH  15  20
ENDBRANCH   9  10
ENDBRANCH   8   9
BRANCH   8  22
HETATM   22  O   UNL     1       5.511  -5.253  53.988  1.00  0.00    -0.395 OA
HETATM   23  H   UNL     1       6.306  -5.798  53.875  1.00  0.00     0.210 HD
ENDBRANCH   8  22
ENDBRANCH   7   8
ENDBRANCH   3   7
BRANCH   5  24
HETATM   24  O   UNL     1       6.233 -10.033  57.778  1.00  0.00    -0.361 OA
HETATM   25  H   UNL     1       7.015  -9.530  57.893  1.00  0.00     0.217 HD
ENDBRANCH   5  24
TORSDOF 9
ENDMDL
MODEL 4
REMARK VINA RESULT:      -6.7      3.467      6.611
REMARK  9 active torsions:
REMARK  status: ('A' for Active; 'I' for Inactive)
REMARK    1  A    between atoms: C_3  and  C_8 
REMARK    2  A    between atoms: C_5  and  O_7 
REMARK    3  A    between atoms: C_8  and  C_9 
REMARK    4  A    between atoms: C_9  and  C_10 
REMARK    5  A    between atoms: C_9  and  O_20 
REMARK    6  A    between atoms: C_10  and  C_11 
REMARK    7  A    between atoms: C_12  and  O_19 
REMARK    8  A    between atoms: C_14  and  O_18 
REMARK    9  A    between atoms: C_16  and  O_17 
ROOT
HETATM    1  C   UNL     1       2.883  -9.701  56.545  1.00  0.00     0.003 A 
HETATM    2  C   UNL     1       2.919  -8.389  56.111  1.00  0.00     0.007 A 
HETATM    3  C   UNL     1       4.074  -7.642  56.257  1.00  0.00    -0.053 A 
HETATM    4  C   UNL     1       5.192  -8.205  56.839  1.00  0.00     0.043 A 
HETATM    5  C   UNL     1       5.158  -9.521  57.276  1.00  0.00     0.066 A 
HETATM    6  C   UNL     1       3.999 -10.269  57.127  1.00  0.00     0.036 A 
ENDROOT
BRANCH   3   7
HETATM    7  C   UNL     1       4.110  -6.212  55.782  1.00  0.00     0.070 C 
BRANCH   7   8
HETATM    8  C   UNL     1       4.371  -6.181  54.275  1.00  0.00     0.127 C 
BRANCH   8   9
HETATM    9  C   UNL     1       3.145  -5.614  53.556  1.00  0.00     0.076 C 
BRANCH   9  10
HETATM   10  C   UNL     1       3.159  -6.054  52.115  1.00  0.00     0.011 A 
HETATM   11  C   UNL     1       2.584  -7.263  51.754  1.00  0.00     0.077 A 
HETATM   12  C   UNL     1       2.596  -7.669  50.428  1.00  0.00     0.073 A 
HETATM   13  C   UNL     1       3.186  -6.865  49.463  1.00  0.00     0.071 A 
HETATM   14  C   UNL     1       3.760  -5.656  49.825  1.00  0.00     0.073 A 
HETATM   15  C   UNL     1       3.743  -5.249  51.150  1.00  0.00     0.077 A 
BRANCH  11  16
HETATM   16  O   UNL     1       2.007  -8.051  52.699  1.00  0.00    -0.360 OA
HETATM   17  H   UNL     1       2.151  -7.874  53.608  1.00  0.00     0.217 HD
ENDBRANCH  11  16
BRANCH  13  18
HETATM   18  O   UNL     1       3.199  -7.262  48.164  1.00  0.00    -0.361 OA
HETATM   19  H   UNL     1       2.411  -7.569  47.760  1.00  0.00     0.217 HD
ENDBRANCH  13  18
BRANCH  15  20
HETATM   20  O   UNL     1       4.307  -4.064  51.504  1.00  0.00    -0.360 OA
HETATM   21  H   UNL     1       4.446  -3.863  52.408  1.00  0.00     0.217 HD
ENDBRANCH  15  20
ENDBRANCH   9  10
ENDBRANCH   8   9
BRANCH   8  22
HETATM   22  O   UNL     1       5.506  -5.356  54.005  1.00  0.00    -0.395 OA
HETATM   23  H   UNL     1       5.633  -4.732  54.737  1.00  0.00     0.210 HD
ENDBRANCH   8  22
ENDBRANCH   7   8
ENDBRANCH   3   7
BRANCH   5  24
HETATM   24  O   UNL     1       6.259 -10.078  57.847  1.00  0.00    -0.361 OA
HETATM   25  H   UNL     1       6.186 -10.519  58.671  1.00  0.00     0.217 HD
ENDBRANCH   5  24
TORSDOF 9
ENDMDL
MODEL 5
REMARK VINA RESULT:      -6.6      2.476      6.390
REMARK  9 active torsions:
REMARK  status: ('A' for Active; 'I' for Inactive)
REMARK    1  A    between atoms: C_3  and  C_8 
REMARK    2  A    between atoms: C_5  and  O_7 
REMARK    3  A    between atoms: C_8  and  C_9 
REMARK    4  A    between atoms: C_9  and  C_10 
REMARK    5  A    between atoms: C_9  and  O_20 
REMARK    6  A    between atoms: C_10  and  C_11 
REMARK    7  A    between atoms: C_12  and  O_19 
REMARK    8  A    between atoms: C_14  and  O_18 
REMARK    9  A    between atoms: C_16  and  O_17 
ROOT
HETATM    1  C   UNL     1       3.212  -4.721  55.493  1.00  0.00     0.003 A 
HETATM    2  C   UNL     1       3.426  -5.857  56.251  1.00  0.00     0.007 A 
HETATM    3  C   UNL     1       4.099  -6.937  55.707  1.00  0.00    -0.053 A 
HETATM    4  C   UNL     1       4.558  -6.881  54.406  1.00  0.00     0.043 A 
HETATM    5  C   UNL     1       4.344  -5.742  53.644  1.00  0.00     0.066 A 
HETATM    6  C   UNL     1       3.670  -4.661  54.192  1.00  0.00     0.036 A 
ENDROOT
BRANCH   3   7
HETATM    7  C   UNL     1       4.331  -8.174  56.536  1.00  0.00     0.070 C 
BRANCH   7   8
HETATM    8  C   UNL     1       3.105  -9.085  56.447  1.00  0.00     0.127 C 
BRANCH   8   9
HETATM    9  C   UNL     1       3.186  -9.926  55.172  1.00  0.00     0.076 C 
BRANCH   9  10
HETATM   10  C   UNL     1       1.795 -10.301  54.729  1.00  0.00     0.011 A 
HETATM   11  C   UNL     1       1.142  -9.538  53.773  1.00  0.00     0.077 A 
HETATM   12  C   UNL     1      -0.138  -9.884  53.365  1.00  0.00     0.073 A 
HETATM   13  C   UNL     1      -0.765 -10.992  53.915  1.00  0.00     0.071 A 
HETATM   14  C   UNL     1      -0.111 -11.755  54.871  1.00  0.00     0.073 A 
HETATM   15  C   UNL     1       1.170 -11.413  55.274  1.00  0.00     0.077 A 
BRANCH  11  16
HETATM   16  O   UNL     1       1.756  -8.452  53.235  1.00  0.00    -0.360 OA
HETATM   17  H   UNL     1       2.444  -8.022  53.705  1.00  0.00     0.217 HD
ENDBRANCH  11  16
BRANCH  13  18
HETATM   18  O   UNL     1      -2.019 -11.330  53.517  1.00  0.00    -0.361 OA
HETATM   19  H   UNL     1      -2.587 -11.792  54.101  1.00  0.00     0.217 HD
ENDBRANCH  13  18
BRANCH  15  20
HETATM   20  O   UNL     1       1.810 -12.161  56.212  1.00  0.00    -0.360 OA
HETATM   21  H   UNL     1       2.368 -11.747  56.839  1.00  0.00     0.217 HD
ENDBRANCH  15  20
ENDBRANCH   9  10
ENDBRANCH   8   9
BRANCH   8  22
HETATM   22  O   UNL     1       3.071  -9.948  57.586  1.00  0.00    -0.395 OA
HETATM   23  H   UNL     1       2.791  -9.444  58.366  1.00  0.00     0.210 HD
ENDBRANCH   8  22
ENDBRANCH   7   8
ENDBRANCH   3   7
BRANCH   5  24
HETATM   24  O   UNL     1       4.796  -5.685  52.363  1.00  0.00    -0.361 OA
HETATM   25  H   UNL     1       4.737  -4.884  51.881  1.00  0.00     0.217 HD
ENDBRANCH   5  24
TORSDOF 9
ENDMDL
MODEL 6
REMARK VINA RESULT:      -6.5      2.480      6.224
REMARK  9 active torsions:
REMARK  status: ('A' for Active; 'I' for Inactive)
REMARK    1  A    between atoms: C_3  and  C_8 
REMARK    2  A    between atoms: C_5  and  O_7 
REMARK    3  A    between atoms: C_8  and  C_9 
REMARK    4  A    between atoms: C_9  and  C_10 
REMARK    5  A    between atoms: C_9  and  O_20 
REMARK    6  A    between atoms: C_10  and  C_11 
REMARK    7  A    between atoms: C_12  and  O_19 
REMARK    8  A    between atoms: C_14  and  O_18 
REMARK    9  A    between atoms: C_16  and  O_17 
ROOT
HETATM    1  C   UNL     1       2.904  -4.710  55.586  1.00  0.00     0.003 A 
HETATM    2  C   UNL     1       3.188  -5.890  56.247  1.00  0.00     0.007 A 
HETATM    3  C   UNL     1       3.997  -6.841  55.652  1.00  0.00    -0.053 A 
HETATM    4  C   UNL     1       4.523  -6.613  54.396  1.00  0.00     0.043 A 
HETATM    5  C   UNL     1       4.239  -5.429  53.730  1.00  0.00     0.066 A 
HETATM    6  C   UNL     1       3.428  -4.477  54.330  1.00  0.00     0.036 A 
ENDROOT
BRANCH   3   7
HETATM    7  C   UNL     1       4.305  -8.127  56.375  1.00  0.00     0.070 C 
BRANCH   7   8
HETATM    8  C   UNL     1       3.079  -9.042  56.334  1.00  0.00     0.127 C 
BRANCH   8   9
HETATM    9  C   UNL     1       3.152  -9.937  55.095  1.00  0.00     0.076 C 
BRANCH   9  10
HETATM   10  C   UNL     1       1.757 -10.303  54.658  1.00  0.00     0.011 A 
HETATM   11  C   UNL     1       1.115 -11.394  55.225  1.00  0.00     0.077 A 
HETATM   12  C   UNL     1      -0.168 -11.730  54.822  1.00  0.00     0.073 A 
HETATM   13  C   UNL     1      -0.810 -10.976  53.852  1.00  0.00     0.071 A 
HETATM   14  C   UNL     1      -0.169  -9.884  53.285  1.00  0.00     0.073 A 
HETATM   15  C   UNL     1       1.112  -9.545  53.692  1.00  0.00     0.077 A 
BRANCH  11  16
HETATM   16  O   UNL     1       1.745 -12.133  56.175  1.00  0.00    -0.360 OA
HETATM   17  H   UNL     1       1.655 -11.909  57.080  1.00  0.00     0.217 HD
ENDBRANCH  11  16
BRANCH  13  18
HETATM   18  O   UNL     1      -2.068 -11.305  53.456  1.00  0.00    -0.361 OA
HETATM   19  H   UNL     1      -2.456 -12.105  53.750  1.00  0.00     0.217 HD
ENDBRANCH  13  18
BRANCH  15  20
HETATM   20  O   UNL     1       1.741  -8.475  53.136  1.00  0.00    -0.360 OA
HETATM   21  H   UNL     1       2.108  -8.543  52.277  1.00  0.00     0.217 HD
ENDBRANCH  15  20
ENDBRANCH   9  10
ENDBRANCH   8   9
BRANCH   8  22
HETATM   22  O   UNL     1       3.053  -9.855  57.509  1.00  0.00    -0.395 OA
HETATM   23  H   UNL     1       2.835 -10.769  57.265  1.00  0.00     0.210 HD
ENDBRANCH   8  22
ENDBRANCH   7   8
ENDBRANCH   3   7
BRANCH   5  24
HETATM   24  O   UNL     1       4.756  -5.202  52.494  1.00  0.00    -0.361 OA
HETATM   25  H   UNL     1       5.684  -5.224  52.363  1.00  0.00     0.217 HD
ENDBRANCH   5  24
TORSDOF 9
ENDMDL
MODEL 7
REMARK VINA RESULT:      -6.5      2.622      4.285
REMARK  9 active torsions:
REMARK  status: ('A' for Active; 'I' for Inactive)
REMARK    1  A    between atoms: C_3  and  C_8 
REMARK    2  A    between atoms: C_5  and  O_7 
REMARK    3  A    between atoms: C_8  and  C_9 
REMARK    4  A    between atoms: C_9  and  C_10 
REMARK    5  A    between atoms: C_9  and  O_20 
REMARK    6  A    between atoms: C_10  and  C_11 
REMARK    7  A    between atoms: C_12  and  O_19 
REMARK    8  A    between atoms: C_14  and  O_18 
REMARK    9  A    between atoms: C_16  and  O_17 
ROOT
HETATM    1  C   UNL     1       0.410 -11.269  53.518  1.00  0.00     0.003 A 
HETATM    2  C   UNL     1       1.594 -11.026  54.188  1.00  0.00     0.007 A 
HETATM    3  C   UNL     1       1.570 -10.570  55.494  1.00  0.00    -0.053 A 
HETATM    4  C   UNL     1       0.363 -10.356  56.129  1.00  0.00     0.043 A 
HETATM    5  C   UNL     1      -0.826 -10.599  55.458  1.00  0.00     0.066 A 
HETATM    6  C   UNL     1      -0.800 -11.057  54.149  1.00  0.00     0.036 A 
ENDROOT
BRANCH   3   7
HETATM    7  C   UNL     1       2.862 -10.306  56.223  1.00  0.00     0.070 C 
BRANCH   7   8
HETATM    8  C   UNL     1       3.581  -9.120  55.574  1.00  0.00     0.127 C 
BRANCH   8   9
HETATM    9  C   UNL     1       2.708  -7.869  55.689  1.00  0.00     0.076 C 
BRANCH   9  10
HETATM   10  C   UNL     1       3.178  -6.836  54.698  1.00  0.00     0.011 A 
HETATM   11  C   UNL     1       2.756  -6.899  53.378  1.00  0.00     0.077 A 
HETATM   12  C   UNL     1       3.188  -5.948  52.466  1.00  0.00     0.073 A 
HETATM   13  C   UNL     1       4.043  -4.935  52.873  1.00  0.00     0.071 A 
HETATM   14  C   UNL     1       4.464  -4.872  54.193  1.00  0.00     0.073 A 
HETATM   15  C   UNL     1       4.028  -5.820  55.106  1.00  0.00     0.077 A 
BRANCH  11  16
HETATM   16  O   UNL     1       1.918  -7.892  52.979  1.00  0.00    -0.360 OA
HETATM   17  H   UNL     1       1.810  -8.075  52.067  1.00  0.00     0.217 HD
ENDBRANCH  11  16
BRANCH  13  18
HETATM   18  O   UNL     1       4.468  -4.004  51.979  1.00  0.00    -0.361 OA
HETATM   19  H   UNL     1       5.265  -3.537  52.133  1.00  0.00     0.217 HD
ENDBRANCH  13  18
BRANCH  15  20
HETATM   20  O   UNL     1       4.443  -5.758  56.399  1.00  0.00    -0.360 OA
HETATM   21  H   UNL     1       4.636  -4.929  56.790  1.00  0.00     0.217 HD
ENDBRANCH  15  20
ENDBRANCH   9  10
ENDBRANCH   8   9
BRANCH   8  22
HETATM   22  O   UNL     1       4.825  -8.896  56.240  1.00  0.00    -0.395 OA
HETATM   23  H   UNL     1       4.844  -7.994  56.597  1.00  0.00     0.210 HD
ENDBRANCH   8  22
ENDBRANCH   7   8
ENDBRANCH   3   7
BRANCH   5  24
HETATM   24  O   UNL     1      -2.016 -10.390  56.083  1.00  0.00    -0.361 OA
HETATM   25  H   UNL     1      -2.794 -10.799  55.758  1.00  0.00     0.217 HD
ENDBRANCH   5  24
TORSDOF 9
ENDMDL
MODEL 8
REMARK VINA RESULT:      -6.5      3.852      6.620
REMARK  9 active torsions:
REMARK  status: ('A' for Active; 'I' for Inactive)
REMARK    1  A    between atoms: C_3  and  C_8 
REMARK    2  A    between atoms: C_5  and  O_7 
REMARK    3  A    between atoms: C_8  and  C_9 
REMARK    4  A    between atoms: C_9  and  C_10 
REMARK    5  A    between atoms: C_9  and  O_20 
REMARK    6  A    between atoms: C_10  and  C_11 
REMARK    7  A    between atoms: C_12  and  O_19 
REMARK    8  A    between atoms: C_14  and  O_18 
REMARK    9  A    between atoms: C_16  and  O_17 
ROOT
HETATM    1  C   UNL     1       2.256 -10.224  54.622  1.00  0.00     0.003 A 
HETATM    2  C   UNL     1       2.885  -9.083  54.159  1.00  0.00     0.007 A 
HETATM    3  C   UNL     1       3.779  -8.407  54.969  1.00  0.00    -0.053 A 
HETATM    4  C   UNL     1       4.044  -8.869  56.243  1.00  0.00     0.043 A 
HETATM    5  C   UNL     1       3.413 -10.013  56.710  1.00  0.00     0.066 A 
HETATM    6  C   UNL     1       2.518 -10.691  55.895  1.00  0.00     0.036 A 
ENDROOT
BRANCH   3   7
HETATM    7  C   UNL     1       4.463  -7.164  54.461  1.00  0.00     0.070 C 
BRANCH   7   8
HETATM    8  C   UNL     1       4.419  -7.145  52.932  1.00  0.00     0.127 C 
BRANCH   8   9
HETATM    9  C   UNL     1       3.317  -6.192  52.465  1.00  0.00     0.076 C 
BRANCH   9  10
HETATM   10  C   UNL     1       3.389  -6.036  50.968  1.00  0.00     0.011 A 
HETATM   11  C   UNL     1       2.830  -7.000  50.142  1.00  0.00     0.077 A 
HETATM   12  C   UNL     1       2.896  -6.856  48.765  1.00  0.00     0.073 A 
HETATM   13  C   UNL     1       3.522  -5.749  48.212  1.00  0.00     0.071 A 
HETATM   14  C   UNL     1       4.080  -4.784  49.038  1.00  0.00     0.073 A 
HETATM   15  C   UNL     1       4.010  -4.926  50.415  1.00  0.00     0.077 A 
BRANCH  11  16
HETATM   16  O   UNL     1       2.218  -8.085  50.684  1.00  0.00    -0.360 OA
HETATM   17  H   UNL     1       2.724  -8.832  50.934  1.00  0.00     0.217 HD
ENDBRANCH  11  16
BRANCH  13  18
HETATM   18  O   UNL     1       3.588  -5.608  46.862  1.00  0.00    -0.361 OA
HETATM   19  H   UNL     1       2.998  -6.085  46.313  1.00  0.00     0.217 HD
ENDBRANCH  13  18
BRANCH  15  20
HETATM   20  O   UNL     1       4.558  -3.980  51.224  1.00  0.00    -0.360 OA
HETATM   21  H   UNL     1       4.724  -3.120  50.893  1.00  0.00     0.217 HD
ENDBRANCH  15  20
ENDBRANCH   9  10
ENDBRANCH   8   9
BRANCH   8  22
HETATM   22  O   UNL     1       5.679  -6.702  52.425  1.00  0.00    -0.395 OA
HETATM   23  H   UNL     1       5.540  -6.203  51.604  1.00  0.00     0.210 HD
ENDBRANCH   8  22
ENDBRANCH   7   8
ENDBRANCH   3   7
BRANCH   5  24
HETATM   24  O   UNL     1       3.674 -10.471  57.963  1.00  0.00    -0.361 OA
HETATM   25  H   UNL     1       3.038 -10.991  58.414  1.00  0.00     0.217 HD
ENDBRANCH   5  24
TORSDOF 9
ENDMDL
MODEL 9
REMARK VINA RESULT:      -6.4      1.477      2.778
REMARK  9 active torsions:
REMARK  status: ('A' for Active; 'I' for Inactive)
REMARK    1  A    between atoms: C_3  and  C_8 
REMARK    2  A    between atoms: C_5  and  O_7 
REMARK    3  A    between atoms: C_8  and  C_9 
REMARK    4  A    between atoms: C_9  and  C_10 
REMARK    5  A    between atoms: C_9  and  O_20 
REMARK    6  A    between atoms: C_10  and  C_11 
REMARK    7  A    between atoms: C_12  and  O_19 
REMARK    8  A    between atoms: C_14  and  O_18 
REMARK    9  A    between atoms: C_16  and  O_17 
ROOT
HETATM    1  C   UNL     1       1.674 -10.937  50.806  1.00  0.00     0.003 A 
HETATM    2  C   UNL     1       1.362 -11.279  52.108  1.00  0.00     0.007 A 
HETATM    3  C   UNL     1       0.705 -10.376  52.925  1.00  0.00    -0.053 A 
HETATM    4  C   UNL     1       0.361  -9.130  52.440  1.00  0.00     0.043 A 
HETATM    5  C   UNL     1       0.675  -8.784  51.133  1.00  0.00     0.066 A 
HETATM    6  C   UNL     1       1.332  -9.692  50.317  1.00  0.00     0.036 A 
ENDROOT
BRANCH   3   7
HETATM    7  C   UNL     1       0.366 -10.752  54.344  1.00  0.00     0.070 C 
BRANCH   7   8
HETATM    8  C   UNL     1       1.644 -10.778  55.185  1.00  0.00     0.127 C 
BRANCH   8   9
HETATM    9  C   UNL     1       1.791  -9.449  55.930  1.00  0.00     0.076 C 
BRANCH   9  10
HETATM   10  C   UNL     1       3.240  -9.035  55.936  1.00  0.00     0.011 A 
HETATM   11  C   UNL     1       3.719  -8.172  54.962  1.00  0.00     0.077 A 
HETATM   12  C   UNL     1       5.053  -7.791  54.969  1.00  0.00     0.073 A 
HETATM   13  C   UNL     1       5.907  -8.274  55.949  1.00  0.00     0.071 A 
HETATM   14  C   UNL     1       5.427  -9.136  56.924  1.00  0.00     0.073 A 
HETATM   15  C   UNL     1       4.093  -9.513  56.920  1.00  0.00     0.077 A 
BRANCH  11  16
HETATM   16  O   UNL     1       2.882  -7.701  54.001  1.00  0.00    -0.360 OA
HETATM   17  H   UNL     1       3.212  -7.509  53.146  1.00  0.00     0.217 HD
ENDBRANCH  11  16
BRANCH  13  18
HETATM   18  O   UNL     1       7.214  -7.901  55.955  1.00  0.00    -0.361 OA
HETATM   19  H   UNL     1       7.789  -8.202  55.280  1.00  0.00     0.217 HD
ENDBRANCH  13  18
BRANCH  15  20
HETATM   20  O   UNL     1       3.623 -10.358  57.875  1.00  0.00    -0.360 OA
HETATM   21  H   UNL     1       3.978 -11.222  57.952  1.00  0.00     0.217 HD
ENDBRANCH  15  20
ENDBRANCH   9  10
ENDBRANCH   8   9
BRANCH   8  22
HETATM   22  O   UNL     1       1.570 -11.848  56.129  1.00  0.00    -0.395 OA
HETATM   23  H   UNL     1       2.418 -11.927  56.595  1.00  0.00     0.210 HD
ENDBRANCH   8  22
ENDBRANCH   7   8
ENDBRANCH   3   7
BRANCH   5  24
HETATM   24  O   UNL     1       0.336  -7.557  50.654  1.00  0.00    -0.361 OA
HETATM   25  H   UNL     1       0.999  -6.909  50.514  1.00  0.00     0.217 HD
ENDBRANCH   5  24
TORSDOF 9
ENDMDL
