MODEL 1
REMARK VINA RESULT:      -4.7      0.000      0.000
REMARK  0 active torsions:
REMARK  status: ('A' for Active; 'I' for Inactive)
ROOT
ATOM      1  O   UNL A   1     -54.466  51.515   8.325  1.00  0.00    -0.648 OA
ATOM      2  O   UNL A   1     -53.849  51.073  10.483  1.00  0.00    -0.648 OA
ATOM      3  C   UNL A   1     -55.075  49.461   9.297  1.00  0.00     0.129 C 
ATOM      4  C   UNL A   1     -54.397  50.817   9.375  1.00  0.00     0.168 C 
ENDROOT
TORSDOF 0
ENDMDL
MODEL 2
REMARK VINA RESULT:      -4.7      0.019      1.618
REMARK  0 active torsions:
REMARK  status: ('A' for Active; 'I' for Inactive)
ROOT
ATOM      1  O   UNL A   1     -53.849  51.054  10.494  1.00  0.00    -0.648 OA
ATOM      2  O   UNL A   1     -54.458  51.522   8.339  1.00  0.00    -0.648 OA
ATOM      3  C   UNL A   1     -55.087  49.465   9.278  1.00  0.00     0.129 C 
ATOM      4  C   UNL A   1     -54.396  50.813   9.382  1.00  0.00     0.168 C 
ENDROOT
TORSDOF 0
ENDMDL
MODEL 3
REMARK VINA RESULT:      -4.3      1.219      1.900
REMARK  0 active torsions:
REMARK  status: ('A' for Active; 'I' for Inactive)
ROOT
ATOM      1  O   UNL A   1     -54.460  51.436   8.330  1.00  0.00    -0.648 OA
ATOM      2  O   UNL A   1     -53.825  50.508  10.322  1.00  0.00    -0.648 OA
ATOM      3  C   UNL A   1     -53.891  52.846  10.126  1.00  0.00     0.129 C 
ATOM      4  C   UNL A   1     -54.078  51.460   9.532  1.00  0.00     0.168 C 
ENDROOT
TORSDOF 0
ENDMDL
MODEL 4
REMARK VINA RESULT:      -4.2      1.944      2.157
REMARK  0 active torsions:
REMARK  status: ('A' for Active; 'I' for Inactive)
ROOT
ATOM      1  O   UNL A   1     -53.788  48.664   8.401  1.00  0.00    -0.648 OA
ATOM      2  O   UNL A   1     -53.510  48.942  10.655  1.00  0.00    -0.648 OA
ATOM      3  C   UNL A   1     -54.121  50.792   9.347  1.00  0.00     0.129 C 
ATOM      4  C   UNL A   1     -53.772  49.320   9.479  1.00  0.00     0.168 C 
ENDROOT
TORSDOF 0
ENDMDL
MODEL 5
REMARK VINA RESULT:      -4.2      1.939      2.666
REMARK  0 active torsions:
REMARK  status: ('A' for Active; 'I' for Inactive)
ROOT
ATOM      1  O   UNL A   1     -53.517  48.923  10.651  1.00  0.00    -0.648 OA
ATOM      2  O   UNL A   1     -53.822  48.673   8.398  1.00  0.00    -0.648 OA
ATOM      3  C   UNL A   1     -54.137  50.790   9.360  1.00  0.00     0.129 C 
ATOM      4  C   UNL A   1     -53.791  49.316   9.483  1.00  0.00     0.168 C 
ENDROOT
TORSDOF 0
ENDMDL
MODEL 6
REMARK VINA RESULT:      -4.0      2.622      2.652
REMARK  0 active torsions:
REMARK  status: ('A' for Active; 'I' for Inactive)
ROOT
ATOM      1  O   UNL A   1     -55.208  48.601   8.154  1.00  0.00    -0.648 OA
ATOM      2  O   UNL A   1     -52.934  48.508   8.388  1.00  0.00    -0.648 OA
ATOM      3  C   UNL A   1     -54.262  48.840  10.295  1.00  0.00     0.129 C 
ATOM      4  C   UNL A   1     -54.122  48.629   8.797  1.00  0.00     0.168 C 
ENDROOT
TORSDOF 0
ENDMDL
MODEL 7
REMARK VINA RESULT:      -3.8      2.264      2.354
REMARK  0 active torsions:
REMARK  status: ('A' for Active; 'I' for Inactive)
ROOT
ATOM      1  O   UNL A   1     -53.721  48.686   8.436  1.00  0.00    -0.648 OA
ATOM      2  O   UNL A   1     -53.727  50.009  10.302  1.00  0.00    -0.648 OA
ATOM      3  C   UNL A   1     -53.167  47.740  10.518  1.00  0.00     0.129 C 
ATOM      4  C   UNL A   1     -53.579  48.928   9.666  1.00  0.00     0.168 C 
ENDROOT
TORSDOF 0
ENDMDL
MODEL 8
REMARK VINA RESULT:      -3.7      7.494      7.942
REMARK  0 active torsions:
REMARK  status: ('A' for Active; 'I' for Inactive)
ROOT
ATOM      1  O   UNL A   1     -55.869  44.281   6.731  1.00  0.00    -0.648 OA
ATOM      2  O   UNL A   1     -54.375  44.576   5.024  1.00  0.00    -0.648 OA
ATOM      3  C   UNL A   1     -54.847  42.398   5.760  1.00  0.00     0.129 C 
ATOM      4  C   UNL A   1     -55.051  43.900   5.848  1.00  0.00     0.168 C 
ENDROOT
TORSDOF 0
ENDMDL
MODEL 9
REMARK VINA RESULT:      -3.7      7.419      7.809
REMARK  0 active torsions:
REMARK  status: ('A' for Active; 'I' for Inactive)
ROOT
ATOM      1  O   UNL A   1     -54.289  44.570   5.039  1.00  0.00    -0.648 OA
ATOM      2  O   UNL A   1     -55.709  44.335   6.817  1.00  0.00    -0.648 OA
ATOM      3  C   UNL A   1     -54.910  42.410   5.738  1.00  0.00     0.129 C 
ATOM      4  C   UNL A   1     -54.975  43.921   5.877  1.00  0.00     0.168 C 
ENDROOT
TORSDOF 0
ENDMDL
