MODEL 1
REMARK VINA RESULT:      -4.7      0.000      0.000
REMARK  0 active torsions:
REMARK  status: ('A' for Active; 'I' for Inactive)
ROOT
ATOM      1  O   UNL A   1     -54.466  51.515   8.325  1.00  0.00    -0.648 OA
ATOM      2  O   UNL A   1     -53.849  51.073  10.483  1.00  0.00    -0.648 OA
ATOM      3  C   UNL A   1     -55.075  49.461   9.298  1.00  0.00     0.129 C 
ATOM      4  C   UNL A   1     -54.397  50.817   9.375  1.00  0.00     0.168 C 
ENDROOT
TORSDOF 0
ENDMDL
MODEL 2
REMARK VINA RESULT:      -4.7      0.022      1.618
REMARK  0 active torsions:
REMARK  status: ('A' for Active; 'I' for Inactive)
ROOT
ATOM      1  O   UNL A   1     -53.852  51.055  10.493  1.00  0.00    -0.648 OA
ATOM      2  O   UNL A   1     -54.459  51.515   8.336  1.00  0.00    -0.648 OA
ATOM      3  C   UNL A   1     -55.108  49.471   9.289  1.00  0.00     0.129 C 
ATOM      4  C   UNL A   1     -54.403  50.813   9.383  1.00  0.00     0.168 C 
ENDROOT
TORSDOF 0
ENDMDL
MODEL 3
REMARK VINA RESULT:      -4.3      1.218      1.899
REMARK  0 active torsions:
REMARK  status: ('A' for Active; 'I' for Inactive)
ROOT
ATOM      1  O   UNL A   1     -54.459  51.426   8.322  1.00  0.00    -0.648 OA
ATOM      2  O   UNL A   1     -53.815  50.511  10.317  1.00  0.00    -0.648 OA
ATOM      3  C   UNL A   1     -53.889  52.847  10.109  1.00  0.00     0.129 C 
ATOM      4  C   UNL A   1     -54.073  51.458   9.524  1.00  0.00     0.168 C 
ENDROOT
TORSDOF 0
ENDMDL
MODEL 4
REMARK VINA RESULT:      -4.2      1.907      2.130
REMARK  0 active torsions:
REMARK  status: ('A' for Active; 'I' for Inactive)
ROOT
ATOM      1  O   UNL A   1     -53.926  48.687   8.398  1.00  0.00    -0.648 OA
ATOM      2  O   UNL A   1     -53.510  48.967  10.630  1.00  0.00    -0.648 OA
ATOM      3  C   UNL A   1     -54.125  50.832   9.344  1.00  0.00     0.129 C 
ATOM      4  C   UNL A   1     -53.824  49.349   9.468  1.00  0.00     0.168 C 
ENDROOT
TORSDOF 0
ENDMDL
MODEL 5
REMARK VINA RESULT:      -4.2      1.947      2.670
REMARK  0 active torsions:
REMARK  status: ('A' for Active; 'I' for Inactive)
ROOT
ATOM      1  O   UNL A   1     -53.503  48.917  10.650  1.00  0.00    -0.648 OA
ATOM      2  O   UNL A   1     -53.789  48.671   8.394  1.00  0.00    -0.648 OA
ATOM      3  C   UNL A   1     -54.136  50.781   9.362  1.00  0.00     0.129 C 
ATOM      4  C   UNL A   1     -53.773  49.311   9.482  1.00  0.00     0.168 C 
ENDROOT
TORSDOF 0
ENDMDL
MODEL 6
REMARK VINA RESULT:      -4.0      1.476      1.774
REMARK  0 active torsions:
REMARK  status: ('A' for Active; 'I' for Inactive)
ROOT
ATOM      1  O   UNL A   1     -54.529  51.309   8.390  1.00  0.00    -0.648 OA
ATOM      2  O   UNL A   1     -54.837  49.047   8.241  1.00  0.00    -0.648 OA
ATOM      3  C   UNL A   1     -54.701  50.040  10.363  1.00  0.00     0.129 C 
ATOM      4  C   UNL A   1     -54.687  50.144   8.848  1.00  0.00     0.168 C 
ENDROOT
TORSDOF 0
ENDMDL
MODEL 7
REMARK VINA RESULT:      -4.0      2.654      2.841
REMARK  0 active torsions:
REMARK  status: ('A' for Active; 'I' for Inactive)
ROOT
ATOM      1  O   UNL A   1     -52.883  48.507   8.359  1.00  0.00    -0.648 OA
ATOM      2  O   UNL A   1     -55.164  48.597   8.195  1.00  0.00    -0.648 OA
ATOM      3  C   UNL A   1     -54.167  48.771  10.313  1.00  0.00     0.129 C 
ATOM      4  C   UNL A   1     -54.059  48.609   8.806  1.00  0.00     0.168 C 
ENDROOT
TORSDOF 0
ENDMDL
MODEL 8
REMARK VINA RESULT:      -4.0      2.641      2.670
REMARK  0 active torsions:
REMARK  status: ('A' for Active; 'I' for Inactive)
ROOT
ATOM      1  O   UNL A   1     -55.209  48.598   8.174  1.00  0.00    -0.648 OA
ATOM      2  O   UNL A   1     -52.933  48.478   8.377  1.00  0.00    -0.648 OA
ATOM      3  C   UNL A   1     -54.232  48.809  10.304  1.00  0.00     0.129 C 
ATOM      4  C   UNL A   1     -54.114  48.609   8.803  1.00  0.00     0.168 C 
ENDROOT
TORSDOF 0
ENDMDL
MODEL 9
REMARK VINA RESULT:      -3.8      2.265      2.696
REMARK  0 active torsions:
REMARK  status: ('A' for Active; 'I' for Inactive)
ROOT
ATOM      1  O   UNL A   1     -53.744  49.995  10.307  1.00  0.00    -0.648 OA
ATOM      2  O   UNL A   1     -53.683  48.686   8.432  1.00  0.00    -0.648 OA
ATOM      3  C   UNL A   1     -53.204  47.715  10.514  1.00  0.00     0.129 C 
ATOM      4  C   UNL A   1     -53.581  48.919   9.668  1.00  0.00     0.168 C 
ENDROOT
TORSDOF 0
ENDMDL
