MODEL 1
REMARK VINA RESULT:      -8.2      0.000      0.000
REMARK  0 active torsions:
REMARK  status: ('A' for Active; 'I' for Inactive)
ROOT
ATOM      1  O   UNL A   1     -53.650  52.087  12.623  1.00  0.00    -0.648 OA
ATOM      2  O   UNL A   1     -53.660  50.407  14.175  1.00  0.00    -0.648 OA
ATOM      3  C   UNL A   1     -53.677  49.850  11.895  1.00  0.00     0.129 C 
ATOM      4  C   UNL A   1     -53.661  50.885  13.007  1.00  0.00     0.168 C 
ENDROOT
TORSDOF 0
ENDMDL
MODEL 2
REMARK VINA RESULT:      -8.2      0.035      1.618
REMARK  0 active torsions:
REMARK  status: ('A' for Active; 'I' for Inactive)
ROOT
ATOM      1  O   UNL A   1     -53.682  50.420  14.152  1.00  0.00    -0.648 OA
ATOM      2  O   UNL A   1     -53.650  52.107  12.607  1.00  0.00    -0.648 OA
ATOM      3  C   UNL A   1     -53.682  49.882  11.862  1.00  0.00     0.129 C 
ATOM      4  C   UNL A   1     -53.670  50.903  12.986  1.00  0.00     0.168 C 
ENDROOT
TORSDOF 0
ENDMDL
MODEL 3
REMARK VINA RESULT:      -7.6      1.320      1.755
REMARK  0 active torsions:
REMARK  status: ('A' for Active; 'I' for Inactive)
ROOT
ATOM      1  O   UNL A   1     -53.674  51.842  12.948  1.00  0.00    -0.648 OA
ATOM      2  O   UNL A   1     -53.714  50.631  11.008  1.00  0.00    -0.648 OA
ATOM      3  C   UNL A   1     -53.468  49.500  13.050  1.00  0.00     0.129 C 
ATOM      4  C   UNL A   1     -53.635  50.786  12.259  1.00  0.00     0.168 C 
ENDROOT
TORSDOF 0
ENDMDL
MODEL 4
REMARK VINA RESULT:      -7.6      1.352      1.626
REMARK  0 active torsions:
REMARK  status: ('A' for Active; 'I' for Inactive)
ROOT
ATOM      1  O   UNL A   1     -53.736  50.516  11.122  1.00  0.00    -0.648 OA
ATOM      2  O   UNL A   1     -53.677  51.838  12.989  1.00  0.00    -0.648 OA
ATOM      3  C   UNL A   1     -53.423  49.517  13.230  1.00  0.00     0.129 C 
ATOM      4  C   UNL A   1     -53.633  50.745  12.359  1.00  0.00     0.168 C 
ENDROOT
TORSDOF 0
ENDMDL
MODEL 5
REMARK VINA RESULT:      -7.3      1.140      1.726
REMARK  0 active torsions:
REMARK  status: ('A' for Active; 'I' for Inactive)
ROOT
ATOM      1  O   UNL A   1     -53.238  49.087  13.228  1.00  0.00    -0.648 OA
ATOM      2  O   UNL A   1     -53.768  51.299  13.466  1.00  0.00    -0.648 OA
ATOM      3  C   UNL A   1     -53.762  50.356  11.317  1.00  0.00     0.129 C 
ATOM      4  C   UNL A   1     -53.570  50.234  12.819  1.00  0.00     0.168 C 
ENDROOT
TORSDOF 0
ENDMDL
MODEL 6
REMARK VINA RESULT:      -7.2      1.626      1.979
REMARK  0 active torsions:
REMARK  status: ('A' for Active; 'I' for Inactive)
ROOT
ATOM      1  O   UNL A   1     -54.024  50.051  14.499  1.00  0.00    -0.648 OA
ATOM      2  O   UNL A   1     -53.165  49.014  12.649  1.00  0.00    -0.648 OA
ATOM      3  C   UNL A   1     -53.740  51.286  12.517  1.00  0.00     0.129 C 
ATOM      4  C   UNL A   1     -53.633  49.989  13.300  1.00  0.00     0.168 C 
ENDROOT
TORSDOF 0
ENDMDL
MODEL 7
REMARK VINA RESULT:      -6.9      1.851      2.130
REMARK  0 active torsions:
REMARK  status: ('A' for Active; 'I' for Inactive)
ROOT
ATOM      1  O   UNL A   1     -53.798  50.864  10.692  1.00  0.00    -0.648 OA
ATOM      2  O   UNL A   1     -53.432  48.866  11.744  1.00  0.00    -0.648 OA
ATOM      3  C   UNL A   1     -53.677  50.806  13.041  1.00  0.00     0.129 C 
ATOM      4  C   UNL A   1     -53.632  50.111  11.691  1.00  0.00     0.168 C 
ENDROOT
TORSDOF 0
ENDMDL
MODEL 8
REMARK VINA RESULT:      -6.6      3.308      3.694
REMARK  0 active torsions:
REMARK  status: ('A' for Active; 'I' for Inactive)
ROOT
ATOM      1  O   UNL A   1     -54.063  51.963   9.251  1.00  0.00    -0.648 OA
ATOM      2  O   UNL A   1     -54.263  49.728   8.802  1.00  0.00    -0.648 OA
ATOM      3  C   UNL A   1     -53.830  50.412  11.005  1.00  0.00     0.129 C 
ATOM      4  C   UNL A   1     -54.076  50.734   9.541  1.00  0.00     0.168 C 
ENDROOT
TORSDOF 0
ENDMDL
MODEL 9
REMARK VINA RESULT:      -6.6      1.604      2.408
REMARK  0 active torsions:
REMARK  status: ('A' for Active; 'I' for Inactive)
ROOT
ATOM      1  O   UNL A   1     -53.862  49.157  15.341  1.00  0.00    -0.648 OA
ATOM      2  O   UNL A   1     -53.420  50.835  13.851  1.00  0.00    -0.648 OA
ATOM      3  C   UNL A   1     -53.014  48.613  13.215  1.00  0.00     0.129 C 
ATOM      4  C   UNL A   1     -53.478  49.635  14.238  1.00  0.00     0.168 C 
ENDROOT
TORSDOF 0
ENDMDL
