MODEL 1
REMARK VINA RESULT:      -8.2      0.000      0.000
REMARK  0 active torsions:
REMARK  status: ('A' for Active; 'I' for Inactive)
ROOT
ATOM      1  O   UNL A   1     -53.669  50.422  14.159  1.00  0.00    -0.648 OA
ATOM      2  O   UNL A   1     -53.651  52.101  12.606  1.00  0.00    -0.648 OA
ATOM      3  C   UNL A   1     -53.683  49.872  11.872  1.00  0.00     0.129 C 
ATOM      4  C   UNL A   1     -53.666  50.899  12.991  1.00  0.00     0.168 C 
ENDROOT
TORSDOF 0
ENDMDL
MODEL 2
REMARK VINA RESULT:      -8.2      0.026      1.618
REMARK  0 active torsions:
REMARK  status: ('A' for Active; 'I' for Inactive)
ROOT
ATOM      1  O   UNL A   1     -53.653  52.088  12.623  1.00  0.00    -0.648 OA
ATOM      2  O   UNL A   1     -53.659  50.409  14.177  1.00  0.00    -0.648 OA
ATOM      3  C   UNL A   1     -53.674  49.850  11.897  1.00  0.00     0.129 C 
ATOM      4  C   UNL A   1     -53.661  50.886  13.008  1.00  0.00     0.168 C 
ENDROOT
TORSDOF 0
ENDMDL
MODEL 3
REMARK VINA RESULT:      -7.6      1.311      1.542
REMARK  0 active torsions:
REMARK  status: ('A' for Active; 'I' for Inactive)
ROOT
ATOM      1  O   UNL A   1     -53.678  51.719  13.026  1.00  0.00    -0.648 OA
ATOM      2  O   UNL A   1     -53.727  50.706  10.974  1.00  0.00    -0.648 OA
ATOM      3  C   UNL A   1     -53.447  49.381  12.891  1.00  0.00     0.129 C 
ATOM      4  C   UNL A   1     -53.636  50.737  12.233  1.00  0.00     0.168 C 
ENDROOT
TORSDOF 0
ENDMDL
MODEL 4
REMARK VINA RESULT:      -7.6      1.307      1.764
REMARK  0 active torsions:
REMARK  status: ('A' for Active; 'I' for Inactive)
ROOT
ATOM      1  O   UNL A   1     -53.699  50.733  11.003  1.00  0.00    -0.648 OA
ATOM      2  O   UNL A   1     -53.700  51.636  13.105  1.00  0.00    -0.648 OA
ATOM      3  C   UNL A   1     -53.435  49.317  12.862  1.00  0.00     0.129 C 
ATOM      4  C   UNL A   1     -53.631  50.698  12.262  1.00  0.00     0.168 C 
ENDROOT
TORSDOF 0
ENDMDL
MODEL 5
REMARK VINA RESULT:      -7.2      1.575      1.944
REMARK  0 active torsions:
REMARK  status: ('A' for Active; 'I' for Inactive)
ROOT
ATOM      1  O   UNL A   1     -53.247  49.017  12.593  1.00  0.00    -0.648 OA
ATOM      2  O   UNL A   1     -53.698  50.185  14.508  1.00  0.00    -0.648 OA
ATOM      3  C   UNL A   1     -53.760  51.308  12.449  1.00  0.00     0.129 C 
ATOM      4  C   UNL A   1     -53.547  50.044  13.263  1.00  0.00     0.168 C 
ENDROOT
TORSDOF 0
ENDMDL
MODEL 6
REMARK VINA RESULT:      -6.7     14.722     15.201
REMARK  0 active torsions:
REMARK  status: ('A' for Active; 'I' for Inactive)
ROOT
ATOM      1  O   UNL A   1     -49.300  39.603   6.128  1.00  0.00    -0.648 OA
ATOM      2  O   UNL A   1     -49.122  37.811   4.716  1.00  0.00    -0.648 OA
ATOM      3  C   UNL A   1     -47.514  38.095   6.403  1.00  0.00     0.129 C 
ATOM      4  C   UNL A   1     -48.769  38.549   5.678  1.00  0.00     0.168 C 
ENDROOT
TORSDOF 0
ENDMDL
MODEL 7
REMARK VINA RESULT:      -6.6      3.167      3.781
REMARK  0 active torsions:
REMARK  status: ('A' for Active; 'I' for Inactive)
ROOT
ATOM      1  O   UNL A   1     -54.020  52.090   9.455  1.00  0.00    -0.648 OA
ATOM      2  O   UNL A   1     -54.233  49.912   8.786  1.00  0.00    -0.648 OA
ATOM      3  C   UNL A   1     -53.800  50.371  11.047  1.00  0.00     0.129 C 
ATOM      4  C   UNL A   1     -54.041  50.839   9.622  1.00  0.00     0.168 C 
ENDROOT
TORSDOF 0
ENDMDL
MODEL 8
REMARK VINA RESULT:      -6.5     11.631     11.939
REMARK  0 active torsions:
REMARK  status: ('A' for Active; 'I' for Inactive)
ROOT
ATOM      1  O   UNL A   1     -52.717  38.461  14.874  1.00  0.00    -0.648 OA
ATOM      2  O   UNL A   1     -54.429  38.675  13.373  1.00  0.00    -0.648 OA
ATOM      3  C   UNL A   1     -52.511  40.001  13.107  1.00  0.00     0.129 C 
ATOM      4  C   UNL A   1     -53.295  38.940  13.860  1.00  0.00     0.168 C 
ENDROOT
TORSDOF 0
ENDMDL
MODEL 9
REMARK VINA RESULT:      -6.3     11.059     11.409
REMARK  0 active torsions:
REMARK  status: ('A' for Active; 'I' for Inactive)
ROOT
ATOM      1  O   UNL A   1     -50.066  42.328   4.622  1.00  0.00    -0.648 OA
ATOM      2  O   UNL A   1     -51.527  44.060   4.306  1.00  0.00    -0.648 OA
ATOM      3  C   UNL A   1     -51.407  43.045   6.418  1.00  0.00     0.129 C 
ATOM      4  C   UNL A   1     -50.954  43.154   4.972  1.00  0.00     0.168 C 
ENDROOT
TORSDOF 0
ENDMDL
