MODEL 1
REMARK VINA RESULT:      -4.7      0.000      0.000
REMARK  0 active torsions:
REMARK  status: ('A' for Active; 'I' for Inactive)
ROOT
ATOM      1  O   UNL A   1     -54.466  51.514   8.326  1.00  0.00    -0.648 OA
ATOM      2  O   UNL A   1     -53.849  51.073  10.484  1.00  0.00    -0.648 OA
ATOM      3  C   UNL A   1     -55.076  49.460   9.299  1.00  0.00     0.129 C 
ATOM      4  C   UNL A   1     -54.397  50.817   9.376  1.00  0.00     0.168 C 
ENDROOT
TORSDOF 0
ENDMDL
MODEL 2
REMARK VINA RESULT:      -4.7      0.031      1.618
REMARK  0 active torsions:
REMARK  status: ('A' for Active; 'I' for Inactive)
ROOT
ATOM      1  O   UNL A   1     -53.850  51.040  10.495  1.00  0.00    -0.648 OA
ATOM      2  O   UNL A   1     -54.459  51.513   8.342  1.00  0.00    -0.648 OA
ATOM      3  C   UNL A   1     -55.059  49.440   9.264  1.00  0.00     0.129 C 
ATOM      4  C   UNL A   1     -54.389  50.799   9.380  1.00  0.00     0.168 C 
ENDROOT
TORSDOF 0
ENDMDL
MODEL 3
REMARK VINA RESULT:      -4.2      1.935      2.150
REMARK  0 active torsions:
REMARK  status: ('A' for Active; 'I' for Inactive)
ROOT
ATOM      1  O   UNL A   1     -53.832  48.668   8.397  1.00  0.00    -0.648 OA
ATOM      2  O   UNL A   1     -53.506  48.940  10.645  1.00  0.00    -0.648 OA
ATOM      3  C   UNL A   1     -54.130  50.798   9.352  1.00  0.00     0.129 C 
ATOM      4  C   UNL A   1     -53.789  49.322   9.475  1.00  0.00     0.168 C 
ENDROOT
TORSDOF 0
ENDMDL
MODEL 4
REMARK VINA RESULT:      -4.2      1.940      2.667
REMARK  0 active torsions:
REMARK  status: ('A' for Active; 'I' for Inactive)
ROOT
ATOM      1  O   UNL A   1     -53.513  48.921  10.651  1.00  0.00    -0.648 OA
ATOM      2  O   UNL A   1     -53.823  48.674   8.397  1.00  0.00    -0.648 OA
ATOM      3  C   UNL A   1     -54.128  50.791   9.363  1.00  0.00     0.129 C 
ATOM      4  C   UNL A   1     -53.787  49.316   9.484  1.00  0.00     0.168 C 
ENDROOT
TORSDOF 0
ENDMDL
MODEL 5
REMARK VINA RESULT:      -4.0      1.478      1.842
REMARK  0 active torsions:
REMARK  status: ('A' for Active; 'I' for Inactive)
ROOT
ATOM      1  O   UNL A   1     -54.820  49.041   8.238  1.00  0.00    -0.648 OA
ATOM      2  O   UNL A   1     -54.534  51.305   8.396  1.00  0.00    -0.648 OA
ATOM      3  C   UNL A   1     -54.688  50.038  10.365  1.00  0.00     0.129 C 
ATOM      4  C   UNL A   1     -54.680  50.136   8.850  1.00  0.00     0.168 C 
ENDROOT
TORSDOF 0
ENDMDL
MODEL 6
REMARK VINA RESULT:      -4.0      2.107      2.148
REMARK  0 active torsions:
REMARK  status: ('A' for Active; 'I' for Inactive)
ROOT
ATOM      1  O   UNL A   1     -53.097  48.584   8.288  1.00  0.00    -0.648 OA
ATOM      2  O   UNL A   1     -53.549  49.358  10.393  1.00  0.00    -0.648 OA
ATOM      3  C   UNL A   1     -55.322  48.600   9.054  1.00  0.00     0.129 C 
ATOM      4  C   UNL A   1     -53.843  48.874   9.264  1.00  0.00     0.168 C 
ENDROOT
TORSDOF 0
ENDMDL
MODEL 7
REMARK VINA RESULT:      -3.7      7.478      7.937
REMARK  0 active torsions:
REMARK  status: ('A' for Active; 'I' for Inactive)
ROOT
ATOM      1  O   UNL A   1     -55.847  44.300   6.742  1.00  0.00    -0.648 OA
ATOM      2  O   UNL A   1     -54.368  44.576   5.019  1.00  0.00    -0.648 OA
ATOM      3  C   UNL A   1     -54.886  42.402   5.737  1.00  0.00     0.129 C 
ATOM      4  C   UNL A   1     -55.051  43.908   5.844  1.00  0.00     0.168 C 
ENDROOT
TORSDOF 0
ENDMDL
MODEL 8
REMARK VINA RESULT:      -3.7      7.415      7.811
REMARK  0 active torsions:
REMARK  status: ('A' for Active; 'I' for Inactive)
ROOT
ATOM      1  O   UNL A   1     -54.276  44.547   5.041  1.00  0.00    -0.648 OA
ATOM      2  O   UNL A   1     -55.706  44.347   6.816  1.00  0.00    -0.648 OA
ATOM      3  C   UNL A   1     -54.922  42.402   5.760  1.00  0.00     0.129 C 
ATOM      4  C   UNL A   1     -54.972  43.915   5.883  1.00  0.00     0.168 C 
ENDROOT
TORSDOF 0
ENDMDL
MODEL 9
REMARK VINA RESULT:      -3.7      4.807      5.164
REMARK  0 active torsions:
REMARK  status: ('A' for Active; 'I' for Inactive)
ROOT
ATOM      1  O   UNL A   1     -54.642  45.890   8.192  1.00  0.00    -0.648 OA
ATOM      2  O   UNL A   1     -56.837  45.356   8.554  1.00  0.00    -0.648 OA
ATOM      3  C   UNL A   1     -56.131  47.567   8.904  1.00  0.00     0.129 C 
ATOM      4  C   UNL A   1     -55.840  46.129   8.511  1.00  0.00     0.168 C 
ENDROOT
TORSDOF 0
ENDMDL
