MODEL 1
REMARK VINA RESULT:      -5.9      0.000      0.000
REMARK  6 active torsions:
REMARK  status: ('A' for Active; 'I' for Inactive)
REMARK    1  A    between atoms: O_1  and  C_5 
REMARK    2  A    between atoms: O_2  and  C_7 
REMARK    3  A    between atoms: O_2  and  C_13 
REMARK    4  A    between atoms: C_4  and  C_5 
REMARK    5  A    between atoms: C_4  and  C_6 
REMARK    6  A    between atoms: C_5  and  C_7 
ROOT
HETATM    1  O   UNL     1      30.196  79.063  20.652  1.00  0.00    -0.385 OA
HETATM    2  H   UNL     1      30.592  79.793  20.151  1.00  0.00     0.210 HD
ENDROOT
BRANCH   1   3
HETATM    3  C   UNL     1      31.186  78.078  20.915  1.00  0.00     0.221 C 
BRANCH   3   4
HETATM    4  C   UNL     1      32.113  77.974  19.701  1.00  0.00     0.080 C 
BRANCH   4   5
HETATM    5  C   UNL     1      31.608  76.977  18.686  1.00  0.00    -0.055 A 
HETATM    6  C   UNL     1      31.817  75.623  18.903  1.00  0.00     0.007 A 
HETATM    7  C   UNL     1      31.351  74.701  17.965  1.00  0.00     0.001 A 
HETATM    8  C   UNL     1      30.684  75.145  16.823  1.00  0.00     0.000 A 
HETATM    9  C   UNL     1      30.481  76.510  16.619  1.00  0.00     0.001 A 
HETATM   10  C   UNL     1      30.947  77.432  17.557  1.00  0.00     0.007 A 
ENDBRANCH   4   5
ENDBRANCH   3   4
BRANCH   3  11
HETATM   11  C   UNL     1      31.956  78.516  22.145  1.00  0.00     0.288 C 
HETATM   12  O   UNL     1      31.855  79.615  22.675  1.00  0.00    -0.262 OA
BRANCH  11  13
HETATM   13  O   UNL     1      32.750  77.492  22.577  1.00  0.00    -0.320 OA
BRANCH  13  14
HETATM   14  C   UNL     1      32.089  76.236  22.766  1.00  0.00     0.174 C 
HETATM   15  C   UNL     1      33.033  75.119  22.373  1.00  0.00     0.034 C 
ENDBRANCH  13  14
ENDBRANCH  11  13
ENDBRANCH   3  11
ENDBRANCH   1   3
TORSDOF 6
ENDMDL
MODEL 2
REMARK VINA RESULT:      -5.9      0.191      1.305
REMARK  6 active torsions:
REMARK  status: ('A' for Active; 'I' for Inactive)
REMARK    1  A    between atoms: O_1  and  C_5 
REMARK    2  A    between atoms: O_2  and  C_7 
REMARK    3  A    between atoms: O_2  and  C_13 
REMARK    4  A    between atoms: C_4  and  C_5 
REMARK    5  A    between atoms: C_4  and  C_6 
REMARK    6  A    between atoms: C_5  and  C_7 
ROOT
HETATM    1  O   UNL     1      30.286  79.063  20.873  1.00  0.00    -0.385 OA
HETATM    2  H   UNL     1      29.799  79.172  21.705  1.00  0.00     0.210 HD
ENDROOT
BRANCH   1   3
HETATM    3  C   UNL     1      31.320  78.104  21.053  1.00  0.00     0.221 C 
BRANCH   3   4
HETATM    4  C   UNL     1      32.189  78.075  19.793  1.00  0.00     0.080 C 
BRANCH   4   5
HETATM    5  C   UNL     1      31.661  77.109  18.761  1.00  0.00    -0.055 A 
HETATM    6  C   UNL     1      30.963  77.599  17.667  1.00  0.00     0.007 A 
HETATM    7  C   UNL     1      30.475  76.706  16.713  1.00  0.00     0.001 A 
HETATM    8  C   UNL     1      30.690  75.336  16.865  1.00  0.00     0.000 A 
HETATM    9  C   UNL     1      31.394  74.859  17.970  1.00  0.00     0.001 A 
HETATM   10  C   UNL     1      31.882  75.751  18.924  1.00  0.00     0.007 A 
ENDBRANCH   4   5
ENDBRANCH   3   4
BRANCH   3  11
HETATM   11  C   UNL     1      32.134  78.524  22.260  1.00  0.00     0.288 C 
HETATM   12  O   UNL     1      32.167  79.660  22.716  1.00  0.00    -0.262 OA
BRANCH  11  13
HETATM   13  O   UNL     1      32.795  77.442  22.767  1.00  0.00    -0.320 OA
BRANCH  13  14
HETATM   14  C   UNL     1      32.065  76.211  22.753  1.00  0.00     0.174 C 
HETATM   15  C   UNL     1      33.012  75.080  22.413  1.00  0.00     0.034 C 
ENDBRANCH  13  14
ENDBRANCH  11  13
ENDBRANCH   3  11
ENDBRANCH   1   3
TORSDOF 6
ENDMDL
MODEL 3
REMARK VINA RESULT:      -5.9      1.473      2.745
REMARK  6 active torsions:
REMARK  status: ('A' for Active; 'I' for Inactive)
REMARK    1  A    between atoms: O_1  and  C_5 
REMARK    2  A    between atoms: O_2  and  C_7 
REMARK    3  A    between atoms: O_2  and  C_13 
REMARK    4  A    between atoms: C_4  and  C_5 
REMARK    5  A    between atoms: C_4  and  C_6 
REMARK    6  A    between atoms: C_5  and  C_7 
ROOT
HETATM    1  O   UNL     1      32.863  75.458  23.120  1.00  0.00    -0.385 OA
HETATM    2  H   UNL     1      32.082  74.922  23.329  1.00  0.00     0.210 HD
ENDROOT
BRANCH   1   3
HETATM    3  C   UNL     1      32.563  76.328  22.037  1.00  0.00     0.221 C 
BRANCH   3   4
HETATM    4  C   UNL     1      31.324  75.801  21.309  1.00  0.00     0.080 C 
BRANCH   4   5
HETATM    5  C   UNL     1      31.407  76.018  19.817  1.00  0.00    -0.055 A 
HETATM    6  C   UNL     1      31.972  75.034  19.019  1.00  0.00     0.007 A 
HETATM    7  C   UNL     1      32.049  75.234  17.641  1.00  0.00     0.001 A 
HETATM    8  C   UNL     1      31.561  76.414  17.079  1.00  0.00     0.000 A 
HETATM    9  C   UNL     1      30.996  77.394  17.895  1.00  0.00     0.001 A 
HETATM   10  C   UNL     1      30.918  77.194  19.273  1.00  0.00     0.007 A 
ENDBRANCH   4   5
ENDBRANCH   3   4
BRANCH   3  11
HETATM   11  C   UNL     1      32.305  77.707  22.612  1.00  0.00     0.288 C 
HETATM   12  O   UNL     1      33.178  78.493  22.955  1.00  0.00    -0.262 OA
BRANCH  11  13
HETATM   13  O   UNL     1      30.960  77.939  22.659  1.00  0.00    -0.320 OA
BRANCH  13  14
HETATM   14  C   UNL     1      30.551  79.272  22.334  1.00  0.00     0.174 C 
HETATM   15  C   UNL     1      29.072  79.418  22.623  1.00  0.00     0.034 C 
ENDBRANCH  13  14
ENDBRANCH  11  13
ENDBRANCH   3  11
ENDBRANCH   1   3
TORSDOF 6
ENDMDL
MODEL 4
REMARK VINA RESULT:      -5.8      2.143      3.526
REMARK  6 active torsions:
REMARK  status: ('A' for Active; 'I' for Inactive)
REMARK    1  A    between atoms: O_1  and  C_5 
REMARK    2  A    between atoms: O_2  and  C_7 
REMARK    3  A    between atoms: O_2  and  C_13 
REMARK    4  A    between atoms: C_4  and  C_5 
REMARK    5  A    between atoms: C_4  and  C_6 
REMARK    6  A    between atoms: C_5  and  C_7 
ROOT
HETATM    1  O   UNL     1      31.626  75.922  23.965  1.00  0.00    -0.385 OA
HETATM    2  H   UNL     1      31.913  75.184  24.525  1.00  0.00     0.210 HD
ENDROOT
BRANCH   1   3
HETATM    3  C   UNL     1      31.775  75.563  22.597  1.00  0.00     0.221 C 
BRANCH   3   4
HETATM    4  C   UNL     1      32.465  76.712  21.858  1.00  0.00     0.080 C 
BRANCH   4   5
HETATM    5  C   UNL     1      31.983  76.841  20.434  1.00  0.00    -0.055 A 
HETATM    6  C   UNL     1      31.039  77.808  20.122  1.00  0.00     0.007 A 
HETATM    7  C   UNL     1      30.593  77.928  18.806  1.00  0.00     0.001 A 
HETATM    8  C   UNL     1      31.096  77.080  17.819  1.00  0.00     0.000 A 
HETATM    9  C   UNL     1      32.046  76.113  18.148  1.00  0.00     0.001 A 
HETATM   10  C   UNL     1      32.492  75.993  19.464  1.00  0.00     0.007 A 
ENDBRANCH   4   5
ENDBRANCH   3   4
BRANCH   3  11
HETATM   11  C   UNL     1      32.616  74.303  22.541  1.00  0.00     0.288 C 
HETATM   12  O   UNL     1      33.839  74.284  22.506  1.00  0.00    -0.262 OA
BRANCH  11  13
HETATM   13  O   UNL     1      31.801  73.207  22.561  1.00  0.00    -0.320 OA
BRANCH  13  14
HETATM   14  C   UNL     1      30.774  73.183  21.564  1.00  0.00     0.174 C 
HETATM   15  C   UNL     1      31.368  72.703  20.257  1.00  0.00     0.034 C 
ENDBRANCH  13  14
ENDBRANCH  11  13
ENDBRANCH   3  11
ENDBRANCH   1   3
TORSDOF 6
ENDMDL
MODEL 5
REMARK VINA RESULT:      -5.8      2.205      3.512
REMARK  6 active torsions:
REMARK  status: ('A' for Active; 'I' for Inactive)
REMARK    1  A    between atoms: O_1  and  C_5 
REMARK    2  A    between atoms: O_2  and  C_7 
REMARK    3  A    between atoms: O_2  and  C_13 
REMARK    4  A    between atoms: C_4  and  C_5 
REMARK    5  A    between atoms: C_4  and  C_6 
REMARK    6  A    between atoms: C_5  and  C_7 
ROOT
HETATM    1  O   UNL     1      31.490  75.933  23.985  1.00  0.00    -0.385 OA
HETATM    2  H   UNL     1      30.627  76.064  24.409  1.00  0.00     0.210 HD
ENDROOT
BRANCH   1   3
HETATM    3  C   UNL     1      31.302  75.643  22.606  1.00  0.00     0.221 C 
BRANCH   3   4
HETATM    4  C   UNL     1      32.340  76.421  21.793  1.00  0.00     0.080 C 
BRANCH   4   5
HETATM    5  C   UNL     1      31.908  76.614  20.359  1.00  0.00    -0.055 A 
HETATM    6  C   UNL     1      31.082  77.680  20.037  1.00  0.00     0.007 A 
HETATM    7  C   UNL     1      30.683  77.859  18.712  1.00  0.00     0.001 A 
HETATM    8  C   UNL     1      31.114  76.969  17.728  1.00  0.00     0.000 A 
HETATM    9  C   UNL     1      31.945  75.902  18.068  1.00  0.00     0.001 A 
HETATM   10  C   UNL     1      32.344  75.723  19.392  1.00  0.00     0.007 A 
ENDBRANCH   4   5
ENDBRANCH   3   4
BRANCH   3  11
HETATM   11  C   UNL     1      31.483  74.149  22.422  1.00  0.00     0.288 C 
HETATM   12  O   UNL     1      30.566  73.348  22.298  1.00  0.00    -0.262 OA
BRANCH  11  13
HETATM   13  O   UNL     1      32.814  73.849  22.390  1.00  0.00    -0.320 OA
BRANCH  13  14
HETATM   14  C   UNL     1      33.178  72.744  21.555  1.00  0.00     0.174 C 
HETATM   15  C   UNL     1      34.460  73.082  20.822  1.00  0.00     0.034 C 
ENDBRANCH  13  14
ENDBRANCH  11  13
ENDBRANCH   3  11
ENDBRANCH   1   3
TORSDOF 6
ENDMDL
MODEL 6
REMARK VINA RESULT:      -5.7      2.488      5.373
REMARK  6 active torsions:
REMARK  status: ('A' for Active; 'I' for Inactive)
REMARK    1  A    between atoms: O_1  and  C_5 
REMARK    2  A    between atoms: O_2  and  C_7 
REMARK    3  A    between atoms: O_2  and  C_13 
REMARK    4  A    between atoms: C_4  and  C_5 
REMARK    5  A    between atoms: C_4  and  C_6 
REMARK    6  A    between atoms: C_5  and  C_7 
ROOT
HETATM    1  O   UNL     1      32.533  78.465  17.833  1.00  0.00    -0.385 OA
HETATM    2  H   UNL     1      33.255  78.067  18.344  1.00  0.00     0.210 HD
ENDROOT
BRANCH   1   3
HETATM    3  C   UNL     1      31.377  77.644  17.929  1.00  0.00     0.221 C 
BRANCH   3   4
HETATM    4  C   UNL     1      30.782  77.793  19.331  1.00  0.00     0.080 C 
BRANCH   4   5
HETATM    5  C   UNL     1      31.536  76.982  20.357  1.00  0.00    -0.055 A 
HETATM    6  C   UNL     1      31.812  75.648  20.098  1.00  0.00     0.007 A 
HETATM    7  C   UNL     1      32.509  74.899  21.046  1.00  0.00     0.001 A 
HETATM    8  C   UNL     1      32.921  75.493  22.239  1.00  0.00     0.000 A 
HETATM    9  C   UNL     1      32.636  76.835  22.485  1.00  0.00     0.001 A 
HETATM   10  C   UNL     1      31.939  77.585  21.537  1.00  0.00     0.007 A 
ENDBRANCH   4   5
ENDBRANCH   3   4
BRANCH   3  11
HETATM   11  C   UNL     1      30.393  78.109  16.873  1.00  0.00     0.288 C 
HETATM   12  O   UNL     1      30.065  79.274  16.693  1.00  0.00    -0.262 OA
BRANCH  11  13
HETATM   13  O   UNL     1      29.958  77.037  16.148  1.00  0.00    -0.320 OA
BRANCH  13  14
HETATM   14  C   UNL     1      29.310  77.350  14.910  1.00  0.00     0.174 C 
HETATM   15  C   UNL     1      28.089  76.468  14.757  1.00  0.00     0.034 C 
ENDBRANCH  13  14
ENDBRANCH  11  13
ENDBRANCH   3  11
ENDBRANCH   1   3
TORSDOF 6
ENDMDL
MODEL 7
REMARK VINA RESULT:      -5.7      3.184      4.745
REMARK  6 active torsions:
REMARK  status: ('A' for Active; 'I' for Inactive)
REMARK    1  A    between atoms: O_1  and  C_5 
REMARK    2  A    between atoms: O_2  and  C_7 
REMARK    3  A    between atoms: O_2  and  C_13 
REMARK    4  A    between atoms: C_4  and  C_5 
REMARK    5  A    between atoms: C_4  and  C_6 
REMARK    6  A    between atoms: C_5  and  C_7 
ROOT
HETATM    1  O   UNL     1      34.442  73.766  22.516  1.00  0.00    -0.385 OA
HETATM    2  H   UNL     1      34.981  73.523  21.748  1.00  0.00     0.210 HD
ENDROOT
BRANCH   1   3
HETATM    3  C   UNL     1      33.101  73.995  22.101  1.00  0.00     0.221 C 
BRANCH   3   4
HETATM    4  C   UNL     1      33.119  74.664  20.725  1.00  0.00     0.080 C 
BRANCH   4   5
HETATM    5  C   UNL     1      32.343  75.959  20.714  1.00  0.00    -0.055 A 
HETATM    6  C   UNL     1      32.315  76.743  21.857  1.00  0.00     0.007 A 
HETATM    7  C   UNL     1      31.598  77.940  21.847  1.00  0.00     0.001 A 
HETATM    8  C   UNL     1      30.919  78.336  20.695  1.00  0.00     0.000 A 
HETATM    9  C   UNL     1      30.957  77.537  19.553  1.00  0.00     0.001 A 
HETATM   10  C   UNL     1      31.674  76.340  19.562  1.00  0.00     0.007 A 
ENDBRANCH   4   5
ENDBRANCH   3   4
BRANCH   3  11
HETATM   11  C   UNL     1      32.403  72.650  22.038  1.00  0.00     0.288 C 
HETATM   12  O   UNL     1      32.728  71.732  21.297  1.00  0.00    -0.262 OA
BRANCH  11  13
HETATM   13  O   UNL     1      31.384  72.620  22.946  1.00  0.00    -0.320 OA
BRANCH  13  14
HETATM   14  C   UNL     1      30.196  73.323  22.563  1.00  0.00     0.174 C 
HETATM   15  C   UNL     1      29.954  74.450  23.545  1.00  0.00     0.034 C 
ENDBRANCH  13  14
ENDBRANCH  11  13
ENDBRANCH   3  11
ENDBRANCH   1   3
TORSDOF 6
ENDMDL
MODEL 8
REMARK VINA RESULT:      -5.7      1.528      4.316
REMARK  6 active torsions:
REMARK  status: ('A' for Active; 'I' for Inactive)
REMARK    1  A    between atoms: O_1  and  C_5 
REMARK    2  A    between atoms: O_2  and  C_7 
REMARK    3  A    between atoms: O_2  and  C_13 
REMARK    4  A    between atoms: C_4  and  C_5 
REMARK    5  A    between atoms: C_4  and  C_6 
REMARK    6  A    between atoms: C_5  and  C_7 
ROOT
HETATM    1  O   UNL     1      32.866  78.272  22.859  1.00  0.00    -0.385 OA
HETATM    2  H   UNL     1      32.527  78.121  23.755  1.00  0.00     0.210 HD
ENDROOT
BRANCH   1   3
HETATM    3  C   UNL     1      32.088  77.532  21.927  1.00  0.00     0.221 C 
BRANCH   3   4
HETATM    4  C   UNL     1      31.253  76.501  22.691  1.00  0.00     0.080 C 
BRANCH   4   5
HETATM    5  C   UNL     1      31.783  75.099  22.515  1.00  0.00    -0.055 A 
HETATM    6  C   UNL     1      33.142  74.906  22.324  1.00  0.00     0.007 A 
HETATM    7  C   UNL     1      33.633  73.610  22.161  1.00  0.00     0.001 A 
HETATM    8  C   UNL     1      32.757  72.525  22.191  1.00  0.00     0.000 A 
HETATM    9  C   UNL     1      31.392  72.735  22.383  1.00  0.00     0.001 A 
HETATM   10  C   UNL     1      30.901  74.030  22.546  1.00  0.00     0.007 A 
ENDBRANCH   4   5
ENDBRANCH   3   4
BRANCH   3  11
HETATM   11  C   UNL     1      31.194  78.512  21.193  1.00  0.00     0.288 C 
HETATM   12  O   UNL     1      30.179  79.012  21.659  1.00  0.00    -0.262 OA
BRANCH  11  13
HETATM   13  O   UNL     1      31.712  78.765  19.955  1.00  0.00    -0.320 OA
BRANCH  13  14
HETATM   14  C   UNL     1      32.137  77.614  19.217  1.00  0.00     0.174 C 
HETATM   15  C   UNL     1      30.958  77.062  18.444  1.00  0.00     0.034 C 
ENDBRANCH  13  14
ENDBRANCH  11  13
ENDBRANCH   3  11
ENDBRANCH   1   3
TORSDOF 6
ENDMDL
MODEL 9
REMARK VINA RESULT:      -5.7      2.547      5.493
REMARK  6 active torsions:
REMARK  status: ('A' for Active; 'I' for Inactive)
REMARK    1  A    between atoms: O_1  and  C_5 
REMARK    2  A    between atoms: O_2  and  C_7 
REMARK    3  A    between atoms: O_2  and  C_13 
REMARK    4  A    between atoms: C_4  and  C_5 
REMARK    5  A    between atoms: C_4  and  C_6 
REMARK    6  A    between atoms: C_5  and  C_7 
ROOT
HETATM    1  O   UNL     1      32.786  78.824  17.760  1.00  0.00    -0.385 OA
HETATM    2  H   UNL     1      32.332  79.665  17.926  1.00  0.00     0.210 HD
ENDROOT
BRANCH   1   3
HETATM    3  C   UNL     1      31.836  77.840  17.375  1.00  0.00     0.221 C 
BRANCH   3   4
HETATM    4  C   UNL     1      30.725  77.789  18.428  1.00  0.00     0.080 C 
BRANCH   4   5
HETATM    5  C   UNL     1      31.250  77.400  19.788  1.00  0.00    -0.055 A 
HETATM    6  C   UNL     1      31.179  78.313  20.830  1.00  0.00     0.007 A 
HETATM    7  C   UNL     1      31.665  77.953  22.087  1.00  0.00     0.001 A 
HETATM    8  C   UNL     1      32.214  76.687  22.287  1.00  0.00     0.000 A 
HETATM    9  C   UNL     1      32.279  75.780  21.230  1.00  0.00     0.001 A 
HETATM   10  C   UNL     1      31.794  76.139  19.972  1.00  0.00     0.007 A 
ENDBRANCH   4   5
ENDBRANCH   3   4
BRANCH   3  11
HETATM   11  C   UNL     1      31.279  78.240  16.023  1.00  0.00     0.288 C 
HETATM   12  O   UNL     1      31.960  78.556  15.057  1.00  0.00    -0.262 OA
BRANCH  11  13
HETATM   13  O   UNL     1      29.916  78.167  16.049  1.00  0.00    -0.320 OA
BRANCH  13  14
HETATM   14  C   UNL     1      29.316  77.436  14.974  1.00  0.00     0.174 C 
HETATM   15  C   UNL     1      29.442  75.954  15.257  1.00  0.00     0.034 C 
ENDBRANCH  13  14
ENDBRANCH  11  13
ENDBRANCH   3  11
ENDBRANCH   1   3
TORSDOF 6
ENDMDL
