MODEL 1
REMARK VINA RESULT:      -5.9      0.000      0.000
REMARK  6 active torsions:
REMARK  status: ('A' for Active; 'I' for Inactive)
REMARK    1  A    between atoms: O_1  and  C_5 
REMARK    2  A    between atoms: O_2  and  C_7 
REMARK    3  A    between atoms: O_2  and  C_13 
REMARK    4  A    between atoms: C_4  and  C_5 
REMARK    5  A    between atoms: C_4  and  C_6 
REMARK    6  A    between atoms: C_5  and  C_7 
ROOT
HETATM    1  O   UNL     1      30.255  79.184  20.960  1.00  0.00    -0.385 OA
HETATM    2  H   UNL     1      30.256  79.560  20.065  1.00  0.00     0.210 HD
ENDROOT
BRANCH   1   3
HETATM    3  C   UNL     1      31.003  77.975  20.967  1.00  0.00     0.221 C 
BRANCH   3   4
HETATM    4  C   UNL     1      31.956  77.979  19.769  1.00  0.00     0.080 C 
BRANCH   4   5
HETATM    5  C   UNL     1      31.497  77.046  18.675  1.00  0.00    -0.055 A 
HETATM    6  C   UNL     1      30.861  77.569  17.560  1.00  0.00     0.007 A 
HETATM    7  C   UNL     1      30.436  76.706  16.548  1.00  0.00     0.001 A 
HETATM    8  C   UNL     1      30.653  75.333  16.667  1.00  0.00     0.000 A 
HETATM    9  C   UNL     1      31.294  74.822  17.795  1.00  0.00     0.001 A 
HETATM   10  C   UNL     1      31.719  75.684  18.806  1.00  0.00     0.007 A 
ENDBRANCH   4   5
ENDBRANCH   3   4
BRANCH   3  11
HETATM   11  C   UNL     1      31.776  77.919  22.270  1.00  0.00     0.288 C 
HETATM   12  O   UNL     1      32.660  78.703  22.588  1.00  0.00    -0.262 OA
BRANCH  11  13
HETATM   13  O   UNL     1      31.313  76.885  23.032  1.00  0.00    -0.320 OA
BRANCH  13  14
HETATM   14  C   UNL     1      31.479  75.580  22.467  1.00  0.00     0.174 C 
HETATM   15  C   UNL     1      32.951  75.223  22.477  1.00  0.00     0.034 C 
ENDBRANCH  13  14
ENDBRANCH  11  13
ENDBRANCH   3  11
ENDBRANCH   1   3
TORSDOF 6
ENDMDL
MODEL 2
REMARK VINA RESULT:      -5.9      1.370      2.668
REMARK  6 active torsions:
REMARK  status: ('A' for Active; 'I' for Inactive)
REMARK    1  A    between atoms: O_1  and  C_5 
REMARK    2  A    between atoms: O_2  and  C_7 
REMARK    3  A    between atoms: O_2  and  C_13 
REMARK    4  A    between atoms: C_4  and  C_5 
REMARK    5  A    between atoms: C_4  and  C_6 
REMARK    6  A    between atoms: C_5  and  C_7 
ROOT
HETATM    1  O   UNL     1      32.925  75.326  23.019  1.00  0.00    -0.385 OA
HETATM    2  H   UNL     1      32.610  74.443  22.772  1.00  0.00     0.210 HD
ENDROOT
BRANCH   1   3
HETATM    3  C   UNL     1      32.591  76.252  21.993  1.00  0.00     0.221 C 
BRANCH   3   4
HETATM    4  C   UNL     1      31.332  75.759  21.276  1.00  0.00     0.080 C 
BRANCH   4   5
HETATM    5  C   UNL     1      31.413  75.964  19.782  1.00  0.00    -0.055 A 
HETATM    6  C   UNL     1      30.934  77.143  19.232  1.00  0.00     0.007 A 
HETATM    7  C   UNL     1      31.009  77.333  17.852  1.00  0.00     0.001 A 
HETATM    8  C   UNL     1      31.562  76.342  17.041  1.00  0.00     0.000 A 
HETATM    9  C   UNL     1      32.040  75.162  17.609  1.00  0.00     0.001 A 
HETATM   10  C   UNL     1      31.965  74.972  18.989  1.00  0.00     0.007 A 
ENDBRANCH   4   5
ENDBRANCH   3   4
BRANCH   3  11
HETATM   11  C   UNL     1      32.346  77.597  22.649  1.00  0.00     0.288 C 
HETATM   12  O   UNL     1      33.226  78.332  23.079  1.00  0.00    -0.262 OA
BRANCH  11  13
HETATM   13  O   UNL     1      31.007  77.866  22.658  1.00  0.00    -0.320 OA
BRANCH  13  14
HETATM   14  C   UNL     1      30.644  79.204  22.300  1.00  0.00     0.174 C 
HETATM   15  C   UNL     1      29.174  79.410  22.598  1.00  0.00     0.034 C 
ENDBRANCH  13  14
ENDBRANCH  11  13
ENDBRANCH   3  11
ENDBRANCH   1   3
TORSDOF 6
ENDMDL
MODEL 3
REMARK VINA RESULT:      -5.8      1.555      4.309
REMARK  6 active torsions:
REMARK  status: ('A' for Active; 'I' for Inactive)
REMARK    1  A    between atoms: O_1  and  C_5 
REMARK    2  A    between atoms: O_2  and  C_7 
REMARK    3  A    between atoms: O_2  and  C_13 
REMARK    4  A    between atoms: C_4  and  C_5 
REMARK    5  A    between atoms: C_4  and  C_6 
REMARK    6  A    between atoms: C_5  and  C_7 
ROOT
HETATM    1  O   UNL     1      32.967  78.163  23.045  1.00  0.00    -0.385 OA
HETATM    2  H   UNL     1      33.853  78.350  22.699  1.00  0.00     0.210 HD
ENDROOT
BRANCH   1   3
HETATM    3  C   UNL     1      32.143  77.670  21.997  1.00  0.00     0.221 C 
BRANCH   3   4
HETATM    4  C   UNL     1      30.966  76.908  22.611  1.00  0.00     0.080 C 
BRANCH   4   5
HETATM    5  C   UNL     1      31.151  75.413  22.524  1.00  0.00    -0.055 A 
HETATM    6  C   UNL     1      30.233  74.578  23.143  1.00  0.00     0.007 A 
HETATM    7  C   UNL     1      30.404  73.196  23.063  1.00  0.00     0.001 A 
HETATM    8  C   UNL     1      31.490  72.667  22.365  1.00  0.00     0.000 A 
HETATM    9  C   UNL     1      32.404  73.519  21.747  1.00  0.00     0.001 A 
HETATM   10  C   UNL     1      32.234  74.901  21.828  1.00  0.00     0.007 A 
ENDBRANCH   4   5
ENDBRANCH   3   4
BRANCH   3  11
HETATM   11  C   UNL     1      31.654  78.862  21.196  1.00  0.00     0.288 C 
HETATM   12  O   UNL     1      31.799  80.030  21.529  1.00  0.00    -0.262 OA
BRANCH  11  13
HETATM   13  O   UNL     1      31.058  78.427  20.046  1.00  0.00    -0.320 OA
BRANCH  13  14
HETATM   14  C   UNL     1      31.910  77.721  19.138  1.00  0.00     0.174 C 
HETATM   15  C   UNL     1      31.163  76.520  18.595  1.00  0.00     0.034 C 
ENDBRANCH  13  14
ENDBRANCH  11  13
ENDBRANCH   3  11
ENDBRANCH   1   3
TORSDOF 6
ENDMDL
MODEL 4
REMARK VINA RESULT:      -5.8      1.974      3.312
REMARK  6 active torsions:
REMARK  status: ('A' for Active; 'I' for Inactive)
REMARK    1  A    between atoms: O_1  and  C_5 
REMARK    2  A    between atoms: O_2  and  C_7 
REMARK    3  A    between atoms: O_2  and  C_13 
REMARK    4  A    between atoms: C_4  and  C_5 
REMARK    5  A    between atoms: C_4  and  C_6 
REMARK    6  A    between atoms: C_5  and  C_7 
ROOT
HETATM    1  O   UNL     1      31.496  75.931  23.949  1.00  0.00    -0.385 OA
HETATM    2  H   UNL     1      31.174  76.826  24.138  1.00  0.00     0.210 HD
ENDROOT
BRANCH   1   3
HETATM    3  C   UNL     1      31.302  75.639  22.571  1.00  0.00     0.221 C 
BRANCH   3   4
HETATM    4  C   UNL     1      32.339  76.412  21.752  1.00  0.00     0.080 C 
BRANCH   4   5
HETATM    5  C   UNL     1      31.902  76.606  20.321  1.00  0.00    -0.055 A 
HETATM    6  C   UNL     1      32.354  75.726  19.348  1.00  0.00     0.007 A 
HETATM    7  C   UNL     1      31.950  75.905  18.025  1.00  0.00     0.001 A 
HETATM    8  C   UNL     1      31.102  76.961  17.692  1.00  0.00     0.000 A 
HETATM    9  C   UNL     1      30.656  77.837  18.680  1.00  0.00     0.001 A 
HETATM   10  C   UNL     1      31.059  77.658  20.004  1.00  0.00     0.007 A 
ENDBRANCH   4   5
ENDBRANCH   3   4
BRANCH   3  11
HETATM   11  C   UNL     1      31.474  74.144  22.388  1.00  0.00     0.288 C 
HETATM   12  O   UNL     1      30.554  73.348  22.259  1.00  0.00    -0.262 OA
BRANCH  11  13
HETATM   13  O   UNL     1      32.805  73.836  22.363  1.00  0.00    -0.320 OA
BRANCH  13  14
HETATM   14  C   UNL     1      33.173  72.758  21.496  1.00  0.00     0.174 C 
HETATM   15  C   UNL     1      34.493  73.090  20.832  1.00  0.00     0.034 C 
ENDBRANCH  13  14
ENDBRANCH  11  13
ENDBRANCH   3  11
ENDBRANCH   1   3
TORSDOF 6
ENDMDL
MODEL 5
REMARK VINA RESULT:      -5.7      2.567      5.481
REMARK  6 active torsions:
REMARK  status: ('A' for Active; 'I' for Inactive)
REMARK    1  A    between atoms: O_1  and  C_5 
REMARK    2  A    between atoms: O_2  and  C_7 
REMARK    3  A    between atoms: O_2  and  C_13 
REMARK    4  A    between atoms: C_4  and  C_5 
REMARK    5  A    between atoms: C_4  and  C_6 
REMARK    6  A    between atoms: C_5  and  C_7 
ROOT
HETATM    1  O   UNL     1      32.580  78.522  17.952  1.00  0.00    -0.385 OA
HETATM    2  H   UNL     1      33.282  78.109  18.479  1.00  0.00     0.210 HD
ENDROOT
BRANCH   1   3
HETATM    3  C   UNL     1      31.449  77.662  17.914  1.00  0.00     0.221 C 
BRANCH   3   4
HETATM    4  C   UNL     1      30.738  77.722  19.268  1.00  0.00     0.080 C 
BRANCH   4   5
HETATM    5  C   UNL     1      31.518  77.014  20.350  1.00  0.00    -0.055 A 
HETATM    6  C   UNL     1      31.819  75.669  20.200  1.00  0.00     0.007 A 
HETATM    7  C   UNL     1      32.540  75.014  21.199  1.00  0.00     0.001 A 
HETATM    8  C   UNL     1      32.950  75.713  22.334  1.00  0.00     0.000 A 
HETATM    9  C   UNL     1      32.640  77.066  22.471  1.00  0.00     0.001 A 
HETATM   10  C   UNL     1      31.920  77.721  21.472  1.00  0.00     0.007 A 
ENDBRANCH   4   5
ENDBRANCH   3   4
BRANCH   3  11
HETATM   11  C   UNL     1      30.537  78.150  16.805  1.00  0.00     0.288 C 
HETATM   12  O   UNL     1      30.262  79.324  16.596  1.00  0.00    -0.262 OA
BRANCH  11  13
HETATM   13  O   UNL     1      30.098  77.085  16.071  1.00  0.00    -0.320 OA
BRANCH  13  14
HETATM   14  C   UNL     1      29.419  77.412  14.854  1.00  0.00     0.174 C 
HETATM   15  C   UNL     1      28.152  76.589  14.761  1.00  0.00     0.034 C 
ENDBRANCH  13  14
ENDBRANCH  11  13
ENDBRANCH   3  11
ENDBRANCH   1   3
TORSDOF 6
ENDMDL
MODEL 6
REMARK VINA RESULT:      -5.6      2.657      5.411
REMARK  6 active torsions:
REMARK  status: ('A' for Active; 'I' for Inactive)
REMARK    1  A    between atoms: O_1  and  C_5 
REMARK    2  A    between atoms: O_2  and  C_7 
REMARK    3  A    between atoms: O_2  and  C_13 
REMARK    4  A    between atoms: C_4  and  C_5 
REMARK    5  A    between atoms: C_4  and  C_6 
REMARK    6  A    between atoms: C_5  and  C_7 
ROOT
HETATM    1  O   UNL     1      32.763  78.867  17.750  1.00  0.00    -0.385 OA
HETATM    2  H   UNL     1      33.405  78.503  18.379  1.00  0.00     0.210 HD
ENDROOT
BRANCH   1   3
HETATM    3  C   UNL     1      31.825  77.860  17.393  1.00  0.00     0.221 C 
BRANCH   3   4
HETATM    4  C   UNL     1      30.726  77.811  18.457  1.00  0.00     0.080 C 
BRANCH   4   5
HETATM    5  C   UNL     1      31.262  77.407  19.809  1.00  0.00    -0.055 A 
HETATM    6  C   UNL     1      31.131  78.279  20.879  1.00  0.00     0.007 A 
HETATM    7  C   UNL     1      31.626  77.907  22.129  1.00  0.00     0.001 A 
HETATM    8  C   UNL     1      32.246  76.668  22.292  1.00  0.00     0.000 A 
HETATM    9  C   UNL     1      32.371  75.801  21.206  1.00  0.00     0.001 A 
HETATM   10  C   UNL     1      31.875  76.174  19.956  1.00  0.00     0.007 A 
ENDBRANCH   4   5
ENDBRANCH   3   4
BRANCH   3  11
HETATM   11  C   UNL     1      31.249  78.226  16.039  1.00  0.00     0.288 C 
HETATM   12  O   UNL     1      31.916  78.530  15.059  1.00  0.00    -0.262 OA
BRANCH  11  13
HETATM   13  O   UNL     1      29.887  78.138  16.082  1.00  0.00    -0.320 OA
BRANCH  13  14
HETATM   14  C   UNL     1      29.280  77.436  14.992  1.00  0.00     0.174 C 
HETATM   15  C   UNL     1      29.429  75.946  15.222  1.00  0.00     0.034 C 
ENDBRANCH  13  14
ENDBRANCH  11  13
ENDBRANCH   3  11
ENDBRANCH   1   3
TORSDOF 6
ENDMDL
MODEL 7
REMARK VINA RESULT:      -5.6      3.405      5.286
REMARK  6 active torsions:
REMARK  status: ('A' for Active; 'I' for Inactive)
REMARK    1  A    between atoms: O_1  and  C_5 
REMARK    2  A    between atoms: O_2  and  C_7 
REMARK    3  A    between atoms: O_2  and  C_13 
REMARK    4  A    between atoms: C_4  and  C_5 
REMARK    5  A    between atoms: C_4  and  C_6 
REMARK    6  A    between atoms: C_5  and  C_7 
ROOT
HETATM    1  O   UNL     1      31.644  72.878  23.312  1.00  0.00    -0.385 OA
HETATM    2  H   UNL     1      31.670  71.966  23.641  1.00  0.00     0.210 HD
ENDROOT
BRANCH   1   3
HETATM    3  C   UNL     1      32.592  73.031  22.264  1.00  0.00     0.221 C 
BRANCH   3   4
HETATM    4  C   UNL     1      33.361  74.336  22.481  1.00  0.00     0.080 C 
BRANCH   4   5
HETATM    5  C   UNL     1      32.703  75.505  21.787  1.00  0.00    -0.055 A 
HETATM    6  C   UNL     1      32.627  76.726  22.439  1.00  0.00     0.007 A 
HETATM    7  C   UNL     1      32.020  77.806  21.799  1.00  0.00     0.001 A 
HETATM    8  C   UNL     1      31.496  77.650  20.516  1.00  0.00     0.000 A 
HETATM    9  C   UNL     1      31.579  76.416  19.872  1.00  0.00     0.001 A 
HETATM   10  C   UNL     1      32.187  75.336  20.513  1.00  0.00     0.007 A 
ENDBRANCH   4   5
ENDBRANCH   3   4
BRANCH   3  11
HETATM   11  C   UNL     1      33.528  71.839  22.312  1.00  0.00     0.288 C 
HETATM   12  O   UNL     1      34.021  71.383  23.335  1.00  0.00    -0.262 OA
BRANCH  11  13
HETATM   13  O   UNL     1      33.708  71.347  21.051  1.00  0.00    -0.320 OA
BRANCH  13  14
HETATM   14  C   UNL     1      35.028  71.492  20.515  1.00  0.00     0.174 C 
HETATM   15  C   UNL     1      35.037  72.645  19.534  1.00  0.00     0.034 C 
ENDBRANCH  13  14
ENDBRANCH  11  13
ENDBRANCH   3  11
ENDBRANCH   1   3
TORSDOF 6
ENDMDL
MODEL 8
REMARK VINA RESULT:      -5.6      2.959      4.418
REMARK  6 active torsions:
REMARK  status: ('A' for Active; 'I' for Inactive)
REMARK    1  A    between atoms: O_1  and  C_5 
REMARK    2  A    between atoms: O_2  and  C_7 
REMARK    3  A    between atoms: O_2  and  C_13 
REMARK    4  A    between atoms: C_4  and  C_5 
REMARK    5  A    between atoms: C_4  and  C_6 
REMARK    6  A    between atoms: C_5  and  C_7 
ROOT
HETATM    1  O   UNL     1      30.356  73.786  24.119  1.00  0.00    -0.385 OA
HETATM    2  H   UNL     1      30.720  72.892  24.219  1.00  0.00     0.210 HD
ENDROOT
BRANCH   1   3
HETATM    3  C   UNL     1      30.590  74.247  22.795  1.00  0.00     0.221 C 
BRANCH   3   4
HETATM    4  C   UNL     1      31.618  75.380  22.842  1.00  0.00     0.080 C 
BRANCH   4   5
HETATM    5  C   UNL     1      31.371  76.416  21.773  1.00  0.00    -0.055 A 
HETATM    6  C   UNL     1      31.564  76.078  20.443  1.00  0.00     0.007 A 
HETATM    7  C   UNL     1      31.336  77.035  19.454  1.00  0.00     0.001 A 
HETATM    8  C   UNL     1      30.917  78.318  19.809  1.00  0.00     0.000 A 
HETATM    9  C   UNL     1      30.727  78.643  21.151  1.00  0.00     0.001 A 
HETATM   10  C   UNL     1      30.955  77.686  22.140  1.00  0.00     0.007 A 
ENDBRANCH   4   5
ENDBRANCH   3   4
BRANCH   3  11
HETATM   11  C   UNL     1      31.114  73.077  21.985  1.00  0.00     0.288 C 
HETATM   12  O   UNL     1      30.711  72.766  20.872  1.00  0.00    -0.262 OA
BRANCH  11  13
HETATM   13  O   UNL     1      32.111  72.452  22.676  1.00  0.00    -0.320 OA
BRANCH  13  14
HETATM   14  C   UNL     1      33.203  71.970  21.885  1.00  0.00     0.174 C 
HETATM   15  C   UNL     1      34.109  73.133  21.538  1.00  0.00     0.034 C 
ENDBRANCH  13  14
ENDBRANCH  11  13
ENDBRANCH   3  11
ENDBRANCH   1   3
TORSDOF 6
ENDMDL
MODEL 9
REMARK VINA RESULT:      -5.6      1.951      3.981
REMARK  6 active torsions:
REMARK  status: ('A' for Active; 'I' for Inactive)
REMARK    1  A    between atoms: O_1  and  C_5 
REMARK    2  A    between atoms: O_2  and  C_7 
REMARK    3  A    between atoms: O_2  and  C_13 
REMARK    4  A    between atoms: C_4  and  C_5 
REMARK    5  A    between atoms: C_4  and  C_6 
REMARK    6  A    between atoms: C_5  and  C_7 
ROOT
HETATM    1  O   UNL     1      31.505  75.931  24.018  1.00  0.00    -0.385 OA
HETATM    2  H   UNL     1      30.597  76.254  23.912  1.00  0.00     0.210 HD
ENDROOT
BRANCH   1   3
HETATM    3  C   UNL     1      32.170  75.963  22.762  1.00  0.00     0.221 C 
BRANCH   3   4
HETATM    4  C   UNL     1      31.530  74.925  21.838  1.00  0.00     0.080 C 
BRANCH   4   5
HETATM    5  C   UNL     1      32.557  74.194  21.008  1.00  0.00    -0.055 A 
HETATM    6  C   UNL     1      33.715  73.732  21.613  1.00  0.00     0.007 A 
HETATM    7  C   UNL     1      34.665  73.056  20.847  1.00  0.00     0.001 A 
HETATM    8  C   UNL     1      34.443  72.852  19.484  1.00  0.00     0.000 A 
HETATM    9  C   UNL     1      33.273  73.322  18.889  1.00  0.00     0.001 A 
HETATM   10  C   UNL     1      32.324  73.998  19.656  1.00  0.00     0.007 A 
ENDBRANCH   4   5
ENDBRANCH   3   4
BRANCH   3  11
HETATM   11  C   UNL     1      32.013  77.360  22.194  1.00  0.00     0.288 C 
HETATM   12  O   UNL     1      32.660  78.335  22.554  1.00  0.00    -0.262 OA
BRANCH  11  13
HETATM   13  O   UNL     1      31.065  77.351  21.211  1.00  0.00    -0.320 OA
BRANCH  13  14
HETATM   14  C   UNL     1      31.285  78.268  20.133  1.00  0.00     0.174 C 
HETATM   15  C   UNL     1      32.160  77.603  19.092  1.00  0.00     0.034 C 
ENDBRANCH  13  14
ENDBRANCH  11  13
ENDBRANCH   3  11
ENDBRANCH   1   3
TORSDOF 6
ENDMDL
