MODEL 1
REMARK VINA RESULT:      -6.0      0.000      0.000
REMARK  6 active torsions:
REMARK  status: ('A' for Active; 'I' for Inactive)
REMARK    1  A    between atoms: O_1  and  C_5 
REMARK    2  A    between atoms: O_2  and  C_7 
REMARK    3  A    between atoms: O_2  and  C_13 
REMARK    4  A    between atoms: C_4  and  C_5 
REMARK    5  A    between atoms: C_4  and  C_6 
REMARK    6  A    between atoms: C_5  and  C_7 
ROOT
HETATM    1  O   UNL     1      32.969  75.569  23.019  1.00  0.00    -0.385 OA
HETATM    2  H   UNL     1      33.777  75.103  22.756  1.00  0.00     0.210 HD
ENDROOT
BRANCH   1   3
HETATM    3  C   UNL     1      32.584  76.469  21.989  1.00  0.00     0.221 C 
BRANCH   3   4
HETATM    4  C   UNL     1      31.332  75.922  21.298  1.00  0.00     0.080 C 
BRANCH   4   5
HETATM    5  C   UNL     1      31.380  76.114  19.802  1.00  0.00    -0.055 A 
HETATM    6  C   UNL     1      31.886  75.099  19.004  1.00  0.00     0.007 A 
HETATM    7  C   UNL     1      31.931  75.276  17.621  1.00  0.00     0.001 A 
HETATM    8  C   UNL     1      31.468  76.464  17.054  1.00  0.00     0.000 A 
HETATM    9  C   UNL     1      30.961  77.475  17.870  1.00  0.00     0.001 A 
HETATM   10  C   UNL     1      30.917  77.298  19.253  1.00  0.00     0.007 A 
ENDBRANCH   4   5
ENDBRANCH   3   4
BRANCH   3  11
HETATM   11  C   UNL     1      32.301  77.813  22.632  1.00  0.00     0.288 C 
HETATM   12  O   UNL     1      33.160  78.591  23.024  1.00  0.00    -0.262 OA
BRANCH  11  13
HETATM   13  O   UNL     1      30.952  78.023  22.679  1.00  0.00    -0.320 OA
BRANCH  13  14
HETATM   14  C   UNL     1      30.527  79.363  22.411  1.00  0.00     0.174 C 
HETATM   15  C   UNL     1      29.024  79.445  22.577  1.00  0.00     0.034 C 
ENDBRANCH  13  14
ENDBRANCH  11  13
ENDBRANCH   3  11
ENDBRANCH   1   3
TORSDOF 6
ENDMDL
MODEL 2
REMARK VINA RESULT:      -6.0      1.475      2.684
REMARK  6 active torsions:
REMARK  status: ('A' for Active; 'I' for Inactive)
REMARK    1  A    between atoms: O_1  and  C_5 
REMARK    2  A    between atoms: O_2  and  C_7 
REMARK    3  A    between atoms: O_2  and  C_13 
REMARK    4  A    between atoms: C_4  and  C_5 
REMARK    5  A    between atoms: C_4  and  C_6 
REMARK    6  A    between atoms: C_5  and  C_7 
ROOT
HETATM    1  O   UNL     1      30.318  79.045  20.853  1.00  0.00    -0.385 OA
HETATM    2  H   UNL     1      30.723  79.920  20.749  1.00  0.00     0.210 HD
ENDROOT
BRANCH   1   3
HETATM    3  C   UNL     1      31.335  78.071  21.046  1.00  0.00     0.221 C 
BRANCH   3   4
HETATM    4  C   UNL     1      32.215  78.024  19.794  1.00  0.00     0.080 C 
BRANCH   4   5
HETATM    5  C   UNL     1      31.665  77.082  18.750  1.00  0.00    -0.055 A 
HETATM    6  C   UNL     1      31.840  75.716  18.910  1.00  0.00     0.007 A 
HETATM    7  C   UNL     1      31.332  74.845  17.945  1.00  0.00     0.001 A 
HETATM    8  C   UNL     1      30.657  75.352  16.834  1.00  0.00     0.000 A 
HETATM    9  C   UNL     1      30.490  76.729  16.688  1.00  0.00     0.001 A 
HETATM   10  C   UNL     1      30.997  77.599  17.652  1.00  0.00     0.007 A 
ENDBRANCH   4   5
ENDBRANCH   3   4
BRANCH   3  11
HETATM   11  C   UNL     1      32.146  78.486  22.259  1.00  0.00     0.288 C 
HETATM   12  O   UNL     1      32.172  79.618  22.723  1.00  0.00    -0.262 OA
BRANCH  11  13
HETATM   13  O   UNL     1      32.811  77.403  22.758  1.00  0.00    -0.320 OA
BRANCH  13  14
HETATM   14  C   UNL     1      32.079  76.172  22.749  1.00  0.00     0.174 C 
HETATM   15  C   UNL     1      33.016  75.045  22.368  1.00  0.00     0.034 C 
ENDBRANCH  13  14
ENDBRANCH  11  13
ENDBRANCH   3  11
ENDBRANCH   1   3
TORSDOF 6
ENDMDL
MODEL 3
REMARK VINA RESULT:      -5.9      2.008      3.868
REMARK  6 active torsions:
REMARK  status: ('A' for Active; 'I' for Inactive)
REMARK    1  A    between atoms: O_1  and  C_5 
REMARK    2  A    between atoms: O_2  and  C_7 
REMARK    3  A    between atoms: O_2  and  C_13 
REMARK    4  A    between atoms: C_4  and  C_5 
REMARK    5  A    between atoms: C_4  and  C_6 
REMARK    6  A    between atoms: C_5  and  C_7 
ROOT
HETATM    1  O   UNL     1      31.499  75.926  23.971  1.00  0.00    -0.385 OA
HETATM    2  H   UNL     1      32.169  76.623  24.049  1.00  0.00     0.210 HD
ENDROOT
BRANCH   1   3
HETATM    3  C   UNL     1      31.298  75.614  22.599  1.00  0.00     0.221 C 
BRANCH   3   4
HETATM    4  C   UNL     1      32.385  76.305  21.772  1.00  0.00     0.080 C 
BRANCH   4   5
HETATM    5  C   UNL     1      31.945  76.553  20.350  1.00  0.00    -0.055 A 
HETATM    6  C   UNL     1      32.405  75.721  19.341  1.00  0.00     0.007 A 
HETATM    7  C   UNL     1      31.998  75.950  18.026  1.00  0.00     0.001 A 
HETATM    8  C   UNL     1      31.137  77.009  17.738  1.00  0.00     0.000 A 
HETATM    9  C   UNL     1      30.682  77.838  18.763  1.00  0.00     0.001 A 
HETATM   10  C   UNL     1      31.089  77.608  20.078  1.00  0.00     0.007 A 
ENDBRANCH   4   5
ENDBRANCH   3   4
BRANCH   3  11
HETATM   11  C   UNL     1      31.384  74.107  22.451  1.00  0.00     0.288 C 
HETATM   12  O   UNL     1      30.418  73.358  22.390  1.00  0.00    -0.262 OA
BRANCH  11  13
HETATM   13  O   UNL     1      32.694  73.729  22.371  1.00  0.00    -0.320 OA
BRANCH  13  14
HETATM   14  C   UNL     1      32.977  72.678  21.441  1.00  0.00     0.174 C 
HETATM   15  C   UNL     1      34.345  72.912  20.836  1.00  0.00     0.034 C 
ENDBRANCH  13  14
ENDBRANCH  11  13
ENDBRANCH   3  11
ENDBRANCH   1   3
TORSDOF 6
ENDMDL
MODEL 4
REMARK VINA RESULT:      -5.8      3.067      5.510
REMARK  6 active torsions:
REMARK  status: ('A' for Active; 'I' for Inactive)
REMARK    1  A    between atoms: O_1  and  C_5 
REMARK    2  A    between atoms: O_2  and  C_7 
REMARK    3  A    between atoms: O_2  and  C_13 
REMARK    4  A    between atoms: C_4  and  C_5 
REMARK    5  A    between atoms: C_4  and  C_6 
REMARK    6  A    between atoms: C_5  and  C_7 
ROOT
HETATM    1  O   UNL     1      32.645  78.576  17.997  1.00  0.00    -0.385 OA
HETATM    2  H   UNL     1      33.396  78.179  18.464  1.00  0.00     0.210 HD
ENDROOT
BRANCH   1   3
HETATM    3  C   UNL     1      31.575  77.643  17.939  1.00  0.00     0.221 C 
BRANCH   3   4
HETATM    4  C   UNL     1      30.799  77.701  19.257  1.00  0.00     0.080 C 
BRANCH   4   5
HETATM    5  C   UNL     1      31.545  77.031  20.385  1.00  0.00    -0.055 A 
HETATM    6  C   UNL     1      31.776  75.665  20.329  1.00  0.00     0.007 A 
HETATM    7  C   UNL     1      32.465  75.044  21.371  1.00  0.00     0.001 A 
HETATM    8  C   UNL     1      32.915  75.798  22.455  1.00  0.00     0.000 A 
HETATM    9  C   UNL     1      32.676  77.171  22.498  1.00  0.00     0.001 A 
HETATM   10  C   UNL     1      31.986  77.792  21.456  1.00  0.00     0.007 A 
ENDBRANCH   4   5
ENDBRANCH   3   4
BRANCH   3  11
HETATM   11  C   UNL     1      30.687  78.031  16.773  1.00  0.00     0.288 C 
HETATM   12  O   UNL     1      30.050  79.074  16.702  1.00  0.00    -0.262 OA
BRANCH  11  13
HETATM   13  O   UNL     1      30.733  77.057  15.818  1.00  0.00    -0.320 OA
BRANCH  13  14
HETATM   14  C   UNL     1      31.809  77.163  14.880  1.00  0.00     0.174 C 
HETATM   15  C   UNL     1      32.514  75.826  14.786  1.00  0.00     0.034 C 
ENDBRANCH  13  14
ENDBRANCH  11  13
ENDBRANCH   3  11
ENDBRANCH   1   3
TORSDOF 6
ENDMDL
MODEL 5
REMARK VINA RESULT:      -5.7      3.207      5.374
REMARK  6 active torsions:
REMARK  status: ('A' for Active; 'I' for Inactive)
REMARK    1  A    between atoms: O_1  and  C_5 
REMARK    2  A    between atoms: O_2  and  C_7 
REMARK    3  A    between atoms: O_2  and  C_13 
REMARK    4  A    between atoms: C_4  and  C_5 
REMARK    5  A    between atoms: C_4  and  C_6 
REMARK    6  A    between atoms: C_5  and  C_7 
ROOT
HETATM    1  O   UNL     1      32.534  78.521  17.869  1.00  0.00    -0.385 OA
HETATM    2  H   UNL     1      32.953  78.448  16.998  1.00  0.00     0.210 HD
ENDROOT
BRANCH   1   3
HETATM    3  C   UNL     1      31.416  77.645  17.933  1.00  0.00     0.221 C 
BRANCH   3   4
HETATM    4  C   UNL     1      30.769  77.771  19.314  1.00  0.00     0.080 C 
BRANCH   4   5
HETATM    5  C   UNL     1      31.518  76.987  20.365  1.00  0.00    -0.055 A 
HETATM    6  C   UNL     1      31.727  75.630  20.178  1.00  0.00     0.007 A 
HETATM    7  C   UNL     1      32.419  74.905  21.149  1.00  0.00     0.001 A 
HETATM    8  C   UNL     1      32.892  75.547  22.293  1.00  0.00     0.000 A 
HETATM    9  C   UNL     1      32.674  76.913  22.467  1.00  0.00     0.001 A 
HETATM   10  C   UNL     1      31.982  77.638  21.496  1.00  0.00     0.007 A 
ENDBRANCH   4   5
ENDBRANCH   3   4
BRANCH   3  11
HETATM   11  C   UNL     1      30.445  78.058  16.843  1.00  0.00     0.288 C 
HETATM   12  O   UNL     1      30.136  79.215  16.590  1.00  0.00    -0.262 OA
BRANCH  11  13
HETATM   13  O   UNL     1      29.999  76.949  16.183  1.00  0.00    -0.320 OA
BRANCH  13  14
HETATM   14  C   UNL     1      29.632  77.152  14.815  1.00  0.00     0.174 C 
HETATM   15  C   UNL     1      28.144  76.914  14.664  1.00  0.00     0.034 C 
ENDBRANCH  13  14
ENDBRANCH  11  13
ENDBRANCH   3  11
ENDBRANCH   1   3
TORSDOF 6
ENDMDL
MODEL 6
REMARK VINA RESULT:      -5.7      3.196      5.477
REMARK  6 active torsions:
REMARK  status: ('A' for Active; 'I' for Inactive)
REMARK    1  A    between atoms: O_1  and  C_5 
REMARK    2  A    between atoms: O_2  and  C_7 
REMARK    3  A    between atoms: O_2  and  C_13 
REMARK    4  A    between atoms: C_4  and  C_5 
REMARK    5  A    between atoms: C_4  and  C_6 
REMARK    6  A    between atoms: C_5  and  C_7 
ROOT
HETATM    1  O   UNL     1      32.554  78.550  17.971  1.00  0.00    -0.385 OA
HETATM    2  H   UNL     1      33.284  78.149  17.474  1.00  0.00     0.210 HD
ENDROOT
BRANCH   1   3
HETATM    3  C   UNL     1      31.432  77.678  17.951  1.00  0.00     0.221 C 
BRANCH   3   4
HETATM    4  C   UNL     1      30.747  77.726  19.319  1.00  0.00     0.080 C 
BRANCH   4   5
HETATM    5  C   UNL     1      31.536  76.989  20.375  1.00  0.00    -0.055 A 
HETATM    6  C   UNL     1      31.923  77.661  21.524  1.00  0.00     0.007 A 
HETATM    7  C   UNL     1      32.652  76.981  22.500  1.00  0.00     0.001 A 
HETATM    8  C   UNL     1      32.985  75.639  22.313  1.00  0.00     0.000 A 
HETATM    9  C   UNL     1      32.589  74.977  21.151  1.00  0.00     0.001 A 
HETATM   10  C   UNL     1      31.860  75.657  20.175  1.00  0.00     0.007 A 
ENDBRANCH   4   5
ENDBRANCH   3   4
BRANCH   3  11
HETATM   11  C   UNL     1      30.493  78.159  16.862  1.00  0.00     0.288 C 
HETATM   12  O   UNL     1      30.314  79.334  16.566  1.00  0.00    -0.262 OA
BRANCH  11  13
HETATM   13  O   UNL     1      29.909  77.086  16.254  1.00  0.00    -0.320 OA
BRANCH  13  14
HETATM   14  C   UNL     1      29.569  77.266  14.875  1.00  0.00     0.174 C 
HETATM   15  C   UNL     1      28.142  76.810  14.655  1.00  0.00     0.034 C 
ENDBRANCH  13  14
ENDBRANCH  11  13
ENDBRANCH   3  11
ENDBRANCH   1   3
TORSDOF 6
ENDMDL
MODEL 7
REMARK VINA RESULT:      -5.7      2.071      3.341
REMARK  6 active torsions:
REMARK  status: ('A' for Active; 'I' for Inactive)
REMARK    1  A    between atoms: O_1  and  C_5 
REMARK    2  A    between atoms: O_2  and  C_7 
REMARK    3  A    between atoms: O_2  and  C_13 
REMARK    4  A    between atoms: C_4  and  C_5 
REMARK    5  A    between atoms: C_4  and  C_6 
REMARK    6  A    between atoms: C_5  and  C_7 
ROOT
HETATM    1  O   UNL     1      31.521  75.895  24.049  1.00  0.00    -0.385 OA
HETATM    2  H   UNL     1      32.303  75.744  24.604  1.00  0.00     0.210 HD
ENDROOT
BRANCH   1   3
HETATM    3  C   UNL     1      31.926  76.075  22.699  1.00  0.00     0.221 C 
BRANCH   3   4
HETATM    4  C   UNL     1      31.396  74.906  21.865  1.00  0.00     0.080 C 
BRANCH   4   5
HETATM    5  C   UNL     1      32.496  74.211  21.099  1.00  0.00    -0.055 A 
HETATM    6  C   UNL     1      33.632  73.791  21.774  1.00  0.00     0.007 A 
HETATM    7  C   UNL     1      34.649  73.149  21.066  1.00  0.00     0.001 A 
HETATM    8  C   UNL     1      34.515  72.935  19.694  1.00  0.00     0.000 A 
HETATM    9  C   UNL     1      33.366  73.363  19.030  1.00  0.00     0.001 A 
HETATM   10  C   UNL     1      32.350  74.005  19.737  1.00  0.00     0.007 A 
ENDBRANCH   4   5
ENDBRANCH   3   4
BRANCH   3  11
HETATM   11  C   UNL     1      31.345  77.390  22.215  1.00  0.00     0.288 C 
HETATM   12  O   UNL     1      30.547  78.071  22.845  1.00  0.00    -0.262 OA
BRANCH  11  13
HETATM   13  O   UNL     1      31.868  77.700  20.993  1.00  0.00    -0.320 OA
BRANCH  13  14
HETATM   14  C   UNL     1      30.931  78.182  20.024  1.00  0.00     0.174 C 
HETATM   15  C   UNL     1      30.931  77.249  18.831  1.00  0.00     0.034 C 
ENDBRANCH  13  14
ENDBRANCH  11  13
ENDBRANCH   3  11
ENDBRANCH   1   3
TORSDOF 6
ENDMDL
MODEL 8
REMARK VINA RESULT:      -5.7      2.707      5.099
REMARK  6 active torsions:
REMARK  status: ('A' for Active; 'I' for Inactive)
REMARK    1  A    between atoms: O_1  and  C_5 
REMARK    2  A    between atoms: O_2  and  C_7 
REMARK    3  A    between atoms: O_2  and  C_13 
REMARK    4  A    between atoms: C_4  and  C_5 
REMARK    5  A    between atoms: C_4  and  C_6 
REMARK    6  A    between atoms: C_5  and  C_7 
ROOT
HETATM    1  O   UNL     1      31.442  75.805  24.044  1.00  0.00    -0.385 OA
HETATM    2  H   UNL     1      32.337  76.132  23.861  1.00  0.00     0.210 HD
ENDROOT
BRANCH   1   3
HETATM    3  C   UNL     1      30.802  75.468  22.820  1.00  0.00     0.221 C 
BRANCH   3   4
HETATM    4  C   UNL     1      31.373  76.349  21.706  1.00  0.00     0.080 C 
BRANCH   4   5
HETATM    5  C   UNL     1      31.400  77.807  22.094  1.00  0.00    -0.055 A 
HETATM    6  C   UNL     1      32.620  78.428  22.314  1.00  0.00     0.007 A 
HETATM    7  C   UNL     1      32.646  79.776  22.672  1.00  0.00     0.001 A 
HETATM    8  C   UNL     1      31.452  80.485  22.806  1.00  0.00     0.000 A 
HETATM    9  C   UNL     1      30.232  79.847  22.582  1.00  0.00     0.001 A 
HETATM   10  C   UNL     1      30.207  78.499  22.223  1.00  0.00     0.007 A 
ENDBRANCH   4   5
ENDBRANCH   3   4
BRANCH   3  11
HETATM   11  C   UNL     1      31.079  74.003  22.545  1.00  0.00     0.288 C 
HETATM   12  O   UNL     1      30.428  73.073  23.004  1.00  0.00    -0.262 OA
BRANCH  11  13
HETATM   13  O   UNL     1      32.140  73.890  21.692  1.00  0.00    -0.320 OA
BRANCH  13  14
HETATM   14  C   UNL     1      33.215  73.063  22.152  1.00  0.00     0.174 C 
HETATM   15  C   UNL     1      34.388  73.211  21.206  1.00  0.00     0.034 C 
ENDBRANCH  13  14
ENDBRANCH  11  13
ENDBRANCH   3  11
ENDBRANCH   1   3
TORSDOF 6
ENDMDL
MODEL 9
REMARK VINA RESULT:      -5.7      3.115      5.397
REMARK  6 active torsions:
REMARK  status: ('A' for Active; 'I' for Inactive)
REMARK    1  A    between atoms: O_1  and  C_5 
REMARK    2  A    between atoms: O_2  and  C_7 
REMARK    3  A    between atoms: O_2  and  C_13 
REMARK    4  A    between atoms: C_4  and  C_5 
REMARK    5  A    between atoms: C_4  and  C_6 
REMARK    6  A    between atoms: C_5  and  C_7 
ROOT
HETATM    1  O   UNL     1      31.637  72.815  23.270  1.00  0.00    -0.385 OA
HETATM    2  H   UNL     1      30.899  73.442  23.223  1.00  0.00     0.210 HD
ENDROOT
BRANCH   1   3
HETATM    3  C   UNL     1      32.554  73.083  22.218  1.00  0.00     0.221 C 
BRANCH   3   4
HETATM    4  C   UNL     1      33.269  74.404  22.513  1.00  0.00     0.080 C 
BRANCH   4   5
HETATM    5  C   UNL     1      32.625  75.569  21.801  1.00  0.00    -0.055 A 
HETATM    6  C   UNL     1      32.073  75.376  20.545  1.00  0.00     0.007 A 
HETATM    7  C   UNL     1      31.478  76.452  19.887  1.00  0.00     0.001 A 
HETATM    8  C   UNL     1      31.443  77.708  20.495  1.00  0.00     0.000 A 
HETATM    9  C   UNL     1      32.002  77.887  21.759  1.00  0.00     0.001 A 
HETATM   10  C   UNL     1      32.598  76.810  22.417  1.00  0.00     0.007 A 
ENDBRANCH   4   5
ENDBRANCH   3   4
BRANCH   3  11
HETATM   11  C   UNL     1      33.543  71.935  22.164  1.00  0.00     0.288 C 
HETATM   12  O   UNL     1      34.135  71.481  23.135  1.00  0.00    -0.262 OA
BRANCH  11  13
HETATM   13  O   UNL     1      33.644  71.477  20.882  1.00  0.00    -0.320 OA
BRANCH  13  14
HETATM   14  C   UNL     1      34.976  71.387  20.363  1.00  0.00     0.174 C 
HETATM   15  C   UNL     1      35.439  72.769  19.951  1.00  0.00     0.034 C 
ENDBRANCH  13  14
ENDBRANCH  11  13
ENDBRANCH   3  11
ENDBRANCH   1   3
TORSDOF 6
ENDMDL
