MODEL 1
REMARK VINA RESULT:      -6.4      0.000      0.000
REMARK  6 active torsions:
REMARK  status: ('A' for Active; 'I' for Inactive)
REMARK    1  A    between atoms: O_1  and  C_11 
REMARK    2  A    between atoms: C_4  and  C_5 
REMARK    3  A    between atoms: C_4  and  C_6 
REMARK    4  A    between atoms: C_5  and  C_7 
REMARK    5  A    between atoms: C_6  and  C_8 
REMARK    6  A    between atoms: C_8  and  C_12 
ROOT
HETATM    1  O   UNL     1     -53.723  51.974   9.307  1.00  0.00    -0.361 OA
HETATM    2  H   UNL     1     -53.226  52.688   9.654  1.00  0.00     0.217 HD
ENDROOT
BRANCH   1   3
HETATM    3  C   UNL     1     -53.549  50.719   9.804  1.00  0.00     0.066 A 
HETATM    4  C   UNL     1     -53.576  50.504  11.182  1.00  0.00     0.043 A 
HETATM    5  C   UNL     1     -53.397  49.220  11.674  1.00  0.00    -0.056 A 
HETATM    6  C   UNL     1     -53.192  48.146  10.821  1.00  0.00     0.007 A 
HETATM    7  C   UNL     1     -53.166  48.361   9.443  1.00  0.00     0.003 A 
HETATM    8  C   UNL     1     -53.345  49.648   8.934  1.00  0.00     0.036 A 
BRANCH   5   9
HETATM    9  C   UNL     1     -53.423  48.987  13.163  1.00  0.00     0.038 C 
BRANCH   9  10
HETATM   10  C   UNL     1     -52.491  47.864  13.634  1.00  0.00     0.005 C 
BRANCH  10  11
HETATM   11  C   UNL     1     -51.568  48.295  14.781  1.00  0.00     0.011 C 
BRANCH  11  12
HETATM   12  C   UNL     1     -50.477  47.261  15.070  1.00  0.00     0.113 C 
BRANCH  12  13
HETATM   13  C   UNL     1     -49.423  47.757  16.035  1.00  0.00     0.172 C 
HETATM   14  O   UNL     1     -49.736  47.439  17.318  1.00  0.00    -0.648 OA
HETATM   15  O   UNL     1     -48.400  48.350  15.725  1.00  0.00    -0.648 OA
ENDBRANCH  12  13
ENDBRANCH  11  12
ENDBRANCH  10  11
ENDBRANCH   9  10
ENDBRANCH   5   9
ENDBRANCH   1   3
TORSDOF 6
ENDMDL
MODEL 2
REMARK VINA RESULT:      -6.2      4.418      6.440
REMARK  6 active torsions:
REMARK  status: ('A' for Active; 'I' for Inactive)
REMARK    1  A    between atoms: O_1  and  C_11 
REMARK    2  A    between atoms: C_4  and  C_5 
REMARK    3  A    between atoms: C_4  and  C_6 
REMARK    4  A    between atoms: C_5  and  C_7 
REMARK    5  A    between atoms: C_6  and  C_8 
REMARK    6  A    between atoms: C_8  and  C_12 
ROOT
HETATM    1  O   UNL     1     -53.720  52.131   9.190  1.00  0.00    -0.361 OA
HETATM    2  H   UNL     1     -54.403  52.728   9.426  1.00  0.00     0.217 HD
ENDROOT
BRANCH   1   3
HETATM    3  C   UNL     1     -53.575  50.961   9.869  1.00  0.00     0.066 A 
HETATM    4  C   UNL     1     -53.464  49.757   9.172  1.00  0.00     0.043 A 
HETATM    5  C   UNL     1     -53.317  48.573   9.879  1.00  0.00    -0.056 A 
HETATM    6  C   UNL     1     -53.278  48.564  11.265  1.00  0.00     0.007 A 
HETATM    7  C   UNL     1     -53.388  49.766  11.962  1.00  0.00     0.003 A 
HETATM    8  C   UNL     1     -53.536  50.966  11.264  1.00  0.00     0.036 A 
BRANCH   5   9
HETATM    9  C   UNL     1     -53.199  47.272   9.127  1.00  0.00     0.038 C 
BRANCH   9  10
HETATM   10  C   UNL     1     -51.831  46.595   9.266  1.00  0.00     0.005 C 
BRANCH  10  11
HETATM   11  C   UNL     1     -50.993  46.668   7.983  1.00  0.00     0.011 C 
BRANCH  11  12
HETATM   12  C   UNL     1     -51.720  47.405   6.855  1.00  0.00     0.113 C 
BRANCH  12  13
HETATM   13  C   UNL     1     -52.042  46.520   5.672  1.00  0.00     0.172 C 
HETATM   14  O   UNL     1     -53.310  46.040   5.742  1.00  0.00    -0.648 OA
HETATM   15  O   UNL     1     -51.284  46.270   4.745  1.00  0.00    -0.648 OA
ENDBRANCH  12  13
ENDBRANCH  11  12
ENDBRANCH  10  11
ENDBRANCH   9  10
ENDBRANCH   5   9
ENDBRANCH   1   3
TORSDOF 6
ENDMDL
MODEL 3
REMARK VINA RESULT:      -6.2      4.802      6.942
REMARK  6 active torsions:
REMARK  status: ('A' for Active; 'I' for Inactive)
REMARK    1  A    between atoms: O_1  and  C_11 
REMARK    2  A    between atoms: C_4  and  C_5 
REMARK    3  A    between atoms: C_4  and  C_6 
REMARK    4  A    between atoms: C_5  and  C_7 
REMARK    5  A    between atoms: C_6  and  C_8 
REMARK    6  A    between atoms: C_8  and  C_12 
ROOT
HETATM    1  O   UNL     1     -53.222  50.753   7.846  1.00  0.00    -0.361 OA
HETATM    2  H   UNL     1     -53.804  51.483   7.770  1.00  0.00     0.217 HD
ENDROOT
BRANCH   1   3
HETATM    3  C   UNL     1     -53.355  49.882   8.882  1.00  0.00     0.066 A 
HETATM    4  C   UNL     1     -53.173  48.514   8.672  1.00  0.00     0.043 A 
HETATM    5  C   UNL     1     -53.313  47.638   9.738  1.00  0.00    -0.056 A 
HETATM    6  C   UNL     1     -53.630  48.096  11.008  1.00  0.00     0.007 A 
HETATM    7  C   UNL     1     -53.812  49.463  11.218  1.00  0.00     0.003 A 
HETATM    8  C   UNL     1     -53.674  50.356  10.155  1.00  0.00     0.036 A 
BRANCH   5   9
HETATM    9  C   UNL     1     -53.118  46.161   9.512  1.00  0.00     0.038 C 
BRANCH   9  10
HETATM   10  C   UNL     1     -54.012  45.577   8.411  1.00  0.00     0.005 C 
BRANCH  10  11
HETATM   11  C   UNL     1     -55.219  44.809   8.965  1.00  0.00     0.011 C 
BRANCH  11  12
HETATM   12  C   UNL     1     -55.103  43.300   8.740  1.00  0.00     0.113 C 
BRANCH  12  13
HETATM   13  C   UNL     1     -56.441  42.595   8.706  1.00  0.00     0.172 C 
HETATM   14  O   UNL     1     -56.971  42.596   7.455  1.00  0.00    -0.648 OA
HETATM   15  O   UNL     1     -56.989  42.065   9.662  1.00  0.00    -0.648 OA
ENDBRANCH  12  13
ENDBRANCH  11  12
ENDBRANCH  10  11
ENDBRANCH   9  10
ENDBRANCH   5   9
ENDBRANCH   1   3
TORSDOF 6
ENDMDL
MODEL 4
REMARK VINA RESULT:      -6.2      1.994      6.029
REMARK  6 active torsions:
REMARK  status: ('A' for Active; 'I' for Inactive)
REMARK    1  A    between atoms: O_1  and  C_11 
REMARK    2  A    between atoms: C_4  and  C_5 
REMARK    3  A    between atoms: C_4  and  C_6 
REMARK    4  A    between atoms: C_5  and  C_7 
REMARK    5  A    between atoms: C_6  and  C_8 
REMARK    6  A    between atoms: C_8  and  C_12 
ROOT
HETATM    1  O   UNL     1     -52.424  49.868  15.220  1.00  0.00    -0.361 OA
HETATM    2  H   UNL     1     -53.272  50.143  15.508  1.00  0.00     0.217 HD
ENDROOT
BRANCH   1   3
HETATM    3  C   UNL     1     -52.304  48.812  14.370  1.00  0.00     0.066 A 
HETATM    4  C   UNL     1     -53.013  48.798  13.169  1.00  0.00     0.043 A 
HETATM    5  C   UNL     1     -52.880  47.715  12.313  1.00  0.00    -0.056 A 
HETATM    6  C   UNL     1     -52.055  46.645  12.630  1.00  0.00     0.007 A 
HETATM    7  C   UNL     1     -51.346  46.660  13.831  1.00  0.00     0.003 A 
HETATM    8  C   UNL     1     -51.470  47.743  14.701  1.00  0.00     0.036 A 
BRANCH   5   9
HETATM    9  C   UNL     1     -53.647  47.698  11.016  1.00  0.00     0.038 C 
BRANCH   9  10
HETATM   10  C   UNL     1     -53.135  48.703   9.977  1.00  0.00     0.005 C 
BRANCH  10  11
HETATM   11  C   UNL     1     -54.071  49.905   9.795  1.00  0.00     0.011 C 
BRANCH  11  12
HETATM   12  C   UNL     1     -53.309  51.193   9.476  1.00  0.00     0.113 C 
BRANCH  12  13
HETATM   13  C   UNL     1     -53.881  52.413  10.164  1.00  0.00     0.172 C 
HETATM   14  O   UNL     1     -53.412  52.532  11.433  1.00  0.00    -0.648 OA
HETATM   15  O   UNL     1     -54.651  53.217   9.659  1.00  0.00    -0.648 OA
ENDBRANCH  12  13
ENDBRANCH  11  12
ENDBRANCH  10  11
ENDBRANCH   9  10
ENDBRANCH   5   9
ENDBRANCH   1   3
TORSDOF 6
ENDMDL
MODEL 5
REMARK VINA RESULT:      -6.1      4.434      5.819
REMARK  6 active torsions:
REMARK  status: ('A' for Active; 'I' for Inactive)
REMARK    1  A    between atoms: O_1  and  C_11 
REMARK    2  A    between atoms: C_4  and  C_5 
REMARK    3  A    between atoms: C_4  and  C_6 
REMARK    4  A    between atoms: C_5  and  C_7 
REMARK    5  A    between atoms: C_6  and  C_8 
REMARK    6  A    between atoms: C_8  and  C_12 
ROOT
HETATM    1  O   UNL     1     -53.554  50.015   7.864  1.00  0.00    -0.361 OA
HETATM    2  H   UNL     1     -53.296  49.384   7.221  1.00  0.00     0.217 HD
ENDROOT
BRANCH   1   3
HETATM    3  C   UNL     1     -53.442  49.721   9.188  1.00  0.00     0.066 A 
HETATM    4  C   UNL     1     -53.097  48.431   9.591  1.00  0.00     0.043 A 
HETATM    5  C   UNL     1     -52.988  48.147  10.944  1.00  0.00    -0.056 A 
HETATM    6  C   UNL     1     -53.216  49.123  11.903  1.00  0.00     0.007 A 
HETATM    7  C   UNL     1     -53.561  50.412  11.501  1.00  0.00     0.003 A 
HETATM    8  C   UNL     1     -53.674  50.712  10.143  1.00  0.00     0.036 A 
BRANCH   5   9
HETATM    9  C   UNL     1     -52.616  46.753  11.380  1.00  0.00     0.038 C 
BRANCH   9  10
HETATM   10  C   UNL     1     -52.194  45.833  10.228  1.00  0.00     0.005 C 
BRANCH  10  11
HETATM   11  C   UNL     1     -53.001  44.529  10.178  1.00  0.00     0.011 C 
BRANCH  11  12
HETATM   12  C   UNL     1     -53.661  44.305   8.816  1.00  0.00     0.113 C 
BRANCH  12  13
HETATM   13  C   UNL     1     -55.097  44.779   8.762  1.00  0.00     0.172 C 
HETATM   14  O   UNL     1     -55.963  43.733   8.711  1.00  0.00    -0.648 OA
HETATM   15  O   UNL     1     -55.461  45.946   8.783  1.00  0.00    -0.648 OA
ENDBRANCH  12  13
ENDBRANCH  11  12
ENDBRANCH  10  11
ENDBRANCH   9  10
ENDBRANCH   5   9
ENDBRANCH   1   3
TORSDOF 6
ENDMDL
MODEL 6
REMARK VINA RESULT:      -6.0      2.743      6.418
REMARK  6 active torsions:
REMARK  status: ('A' for Active; 'I' for Inactive)
REMARK    1  A    between atoms: O_1  and  C_11 
REMARK    2  A    between atoms: C_4  and  C_5 
REMARK    3  A    between atoms: C_4  and  C_6 
REMARK    4  A    between atoms: C_5  and  C_7 
REMARK    5  A    between atoms: C_6  and  C_8 
REMARK    6  A    between atoms: C_8  and  C_12 
ROOT
HETATM    1  O   UNL     1     -52.490  50.134  15.749  1.00  0.00    -0.361 OA
HETATM    2  H   UNL     1     -51.993  50.927  15.696  1.00  0.00     0.217 HD
ENDROOT
BRANCH   1   3
HETATM    3  C   UNL     1     -52.172  49.077  14.955  1.00  0.00     0.066 A 
HETATM    4  C   UNL     1     -52.812  48.909  13.726  1.00  0.00     0.043 A 
HETATM    5  C   UNL     1     -52.478  47.826  12.928  1.00  0.00    -0.056 A 
HETATM    6  C   UNL     1     -51.520  46.906  13.328  1.00  0.00     0.007 A 
HETATM    7  C   UNL     1     -50.880  47.074  14.555  1.00  0.00     0.003 A 
HETATM    8  C   UNL     1     -51.206  48.160  15.369  1.00  0.00     0.036 A 
BRANCH   5   9
HETATM    9  C   UNL     1     -53.170  47.643  11.601  1.00  0.00     0.038 C 
BRANCH   9  10
HETATM   10  C   UNL     1     -53.246  48.922  10.758  1.00  0.00     0.005 C 
BRANCH  10  11
HETATM   11  C   UNL     1     -54.569  49.054   9.991  1.00  0.00     0.011 C 
BRANCH  11  12
HETATM   12  C   UNL     1     -55.410  47.777  10.056  1.00  0.00     0.113 C 
BRANCH  12  13
HETATM   13  C   UNL     1     -55.111  46.806   8.935  1.00  0.00     0.172 C 
HETATM   14  O   UNL     1     -54.406  47.401   7.939  1.00  0.00    -0.648 OA
HETATM   15  O   UNL     1     -55.433  45.626   8.913  1.00  0.00    -0.648 OA
ENDBRANCH  12  13
ENDBRANCH  11  12
ENDBRANCH  10  11
ENDBRANCH   9  10
ENDBRANCH   5   9
ENDBRANCH   1   3
TORSDOF 6
ENDMDL
MODEL 7
REMARK VINA RESULT:      -6.0      3.171      6.323
REMARK  6 active torsions:
REMARK  status: ('A' for Active; 'I' for Inactive)
REMARK    1  A    between atoms: O_1  and  C_11 
REMARK    2  A    between atoms: C_4  and  C_5 
REMARK    3  A    between atoms: C_4  and  C_6 
REMARK    4  A    between atoms: C_5  and  C_7 
REMARK    5  A    between atoms: C_6  and  C_8 
REMARK    6  A    between atoms: C_8  and  C_12 
ROOT
HETATM    1  O   UNL     1     -52.551  49.695  15.169  1.00  0.00    -0.361 OA
HETATM    2  H   UNL     1     -52.060  49.476  15.936  1.00  0.00     0.217 HD
ENDROOT
BRANCH   1   3
HETATM    3  C   UNL     1     -52.536  48.864  14.092  1.00  0.00     0.066 A 
HETATM    4  C   UNL     1     -53.104  49.274  12.885  1.00  0.00     0.043 A 
HETATM    5  C   UNL     1     -53.082  48.415  11.796  1.00  0.00    -0.056 A 
HETATM    6  C   UNL     1     -52.505  47.156  11.885  1.00  0.00     0.007 A 
HETATM    7  C   UNL     1     -51.937  46.747  13.091  1.00  0.00     0.003 A 
HETATM    8  C   UNL     1     -51.952  47.601  14.195  1.00  0.00     0.036 A 
BRANCH   5   9
HETATM    9  C   UNL     1     -53.697  48.856  10.493  1.00  0.00     0.038 C 
BRANCH   9  10
HETATM   10  C   UNL     1     -55.019  48.155  10.160  1.00  0.00     0.005 C 
BRANCH  10  11
HETATM   11  C   UNL     1     -54.863  47.055   9.102  1.00  0.00     0.011 C 
BRANCH  11  12
HETATM   12  C   UNL     1     -53.735  47.355   8.113  1.00  0.00     0.113 C 
BRANCH  12  13
HETATM   13  C   UNL     1     -53.153  46.113   7.474  1.00  0.00     0.172 C 
HETATM   14  O   UNL     1     -54.108  45.169   7.265  1.00  0.00    -0.648 OA
HETATM   15  O   UNL     1     -51.982  45.959   7.156  1.00  0.00    -0.648 OA
ENDBRANCH  12  13
ENDBRANCH  11  12
ENDBRANCH  10  11
ENDBRANCH   9  10
ENDBRANCH   5   9
ENDBRANCH   1   3
TORSDOF 6
ENDMDL
MODEL 8
REMARK VINA RESULT:      -6.0      1.057      6.481
REMARK  6 active torsions:
REMARK  status: ('A' for Active; 'I' for Inactive)
REMARK    1  A    between atoms: O_1  and  C_11 
REMARK    2  A    between atoms: C_4  and  C_5 
REMARK    3  A    between atoms: C_4  and  C_6 
REMARK    4  A    between atoms: C_5  and  C_7 
REMARK    5  A    between atoms: C_6  and  C_8 
REMARK    6  A    between atoms: C_8  and  C_12 
ROOT
HETATM    1  O   UNL     1     -49.608  48.508  16.478  1.00  0.00    -0.361 OA
HETATM    2  H   UNL     1     -49.896  49.289  16.908  1.00  0.00     0.217 HD
ENDROOT
BRANCH   1   3
HETATM    3  C   UNL     1     -50.408  47.904  15.559  1.00  0.00     0.066 A 
HETATM    4  C   UNL     1     -51.489  48.595  15.011  1.00  0.00     0.043 A 
HETATM    5  C   UNL     1     -52.296  47.966  14.075  1.00  0.00    -0.056 A 
HETATM    6  C   UNL     1     -52.047  46.662  13.673  1.00  0.00     0.007 A 
HETATM    7  C   UNL     1     -50.967  45.971  14.220  1.00  0.00     0.003 A 
HETATM    8  C   UNL     1     -50.146  46.592  15.163  1.00  0.00     0.036 A 
BRANCH   5   9
HETATM    9  C   UNL     1     -53.465  48.712  13.484  1.00  0.00     0.038 C 
BRANCH   9  10
HETATM   10  C   UNL     1     -53.099  49.589  12.281  1.00  0.00     0.005 C 
BRANCH  10  11
HETATM   11  C   UNL     1     -53.336  48.889  10.937  1.00  0.00     0.011 C 
BRANCH  11  12
HETATM   12  C   UNL     1     -54.323  49.650  10.049  1.00  0.00     0.113 C 
BRANCH  12  13
HETATM   13  C   UNL     1     -53.659  50.683   9.165  1.00  0.00     0.172 C 
HETATM   14  O   UNL     1     -53.912  51.944   9.601  1.00  0.00    -0.648 OA
HETATM   15  O   UNL     1     -52.962  50.441   8.191  1.00  0.00    -0.648 OA
ENDBRANCH  12  13
ENDBRANCH  11  12
ENDBRANCH  10  11
ENDBRANCH   9  10
ENDBRANCH   5   9
ENDBRANCH   1   3
TORSDOF 6
ENDMDL
MODEL 9
REMARK VINA RESULT:      -6.0      2.313      3.317
REMARK  6 active torsions:
REMARK  status: ('A' for Active; 'I' for Inactive)
REMARK    1  A    between atoms: O_1  and  C_11 
REMARK    2  A    between atoms: C_4  and  C_5 
REMARK    3  A    between atoms: C_4  and  C_6 
REMARK    4  A    between atoms: C_5  and  C_7 
REMARK    5  A    between atoms: C_6  and  C_8 
REMARK    6  A    between atoms: C_8  and  C_12 
ROOT
HETATM    1  O   UNL     1     -52.452  47.486   6.911  1.00  0.00    -0.361 OA
HETATM    2  H   UNL     1     -51.729  46.901   7.030  1.00  0.00     0.217 HD
ENDROOT
BRANCH   1   3
HETATM    3  C   UNL     1     -53.271  47.775   7.958  1.00  0.00     0.066 A 
HETATM    4  C   UNL     1     -53.154  48.998   8.619  1.00  0.00     0.043 A 
HETATM    5  C   UNL     1     -53.996  49.279   9.684  1.00  0.00    -0.056 A 
HETATM    6  C   UNL     1     -54.953  48.366  10.104  1.00  0.00     0.007 A 
HETATM    7  C   UNL     1     -55.071  47.145   9.443  1.00  0.00     0.003 A 
HETATM    8  C   UNL     1     -54.230  46.849   8.369  1.00  0.00     0.036 A 
BRANCH   5   9
HETATM    9  C   UNL     1     -53.869  50.599  10.401  1.00  0.00     0.038 C 
BRANCH   9  10
HETATM   10  C   UNL     1     -53.381  50.476  11.849  1.00  0.00     0.005 C 
BRANCH  10  11
HETATM   11  C   UNL     1     -52.957  49.048  12.218  1.00  0.00     0.011 C 
BRANCH  11  12
HETATM   12  C   UNL     1     -53.387  48.662  13.636  1.00  0.00     0.113 C 
BRANCH  12  13
HETATM   13  C   UNL     1     -52.357  49.010  14.688  1.00  0.00     0.172 C 
HETATM   14  O   UNL     1     -51.346  48.104  14.711  1.00  0.00    -0.648 OA
HETATM   15  O   UNL     1     -52.394  49.988  15.422  1.00  0.00    -0.648 OA
ENDBRANCH  12  13
ENDBRANCH  11  12
ENDBRANCH  10  11
ENDBRANCH   9  10
ENDBRANCH   5   9
ENDBRANCH   1   3
TORSDOF 6
ENDMDL
