MODEL 1
REMARK VINA RESULT:      -6.4      0.000      0.000
REMARK  6 active torsions:
REMARK  status: ('A' for Active; 'I' for Inactive)
REMARK    1  A    between atoms: O_1  and  C_11 
REMARK    2  A    between atoms: C_4  and  C_5 
REMARK    3  A    between atoms: C_4  and  C_6 
REMARK    4  A    between atoms: C_5  and  C_7 
REMARK    5  A    between atoms: C_6  and  C_8 
REMARK    6  A    between atoms: C_8  and  C_12 
ROOT
HETATM    1  O   UNL     1     -53.864  52.099   9.388  1.00  0.00    -0.361 OA
HETATM    2  H   UNL     1     -53.557  52.847   9.862  1.00  0.00     0.217 HD
ENDROOT
BRANCH   1   3
HETATM    3  C   UNL     1     -53.614  50.847   9.859  1.00  0.00     0.066 A 
HETATM    4  C   UNL     1     -53.434  50.638  11.226  1.00  0.00     0.043 A 
HETATM    5  C   UNL     1     -53.179  49.356  11.690  1.00  0.00    -0.056 A 
HETATM    6  C   UNL     1     -53.099  48.279  10.820  1.00  0.00     0.007 A 
HETATM    7  C   UNL     1     -53.279  48.489   9.454  1.00  0.00     0.003 A 
HETATM    8  C   UNL     1     -53.537  49.773   8.972  1.00  0.00     0.036 A 
BRANCH   5   9
HETATM    9  C   UNL     1     -52.984  49.130  13.168  1.00  0.00     0.038 C 
BRANCH   9  10
HETATM   10  C   UNL     1     -52.811  47.656  13.554  1.00  0.00     0.005 C 
BRANCH  10  11
HETATM   11  C   UNL     1     -51.445  47.359  14.186  1.00  0.00     0.011 C 
BRANCH  11  12
HETATM   12  C   UNL     1     -51.117  48.312  15.338  1.00  0.00     0.113 C 
BRANCH  12  13
HETATM   13  C   UNL     1     -49.763  48.054  15.961  1.00  0.00     0.172 C 
HETATM   14  O   UNL     1     -49.881  47.442  17.168  1.00  0.00    -0.648 OA
HETATM   15  O   UNL     1     -48.685  48.330  15.455  1.00  0.00    -0.648 OA
ENDBRANCH  12  13
ENDBRANCH  11  12
ENDBRANCH  10  11
ENDBRANCH   9  10
ENDBRANCH   5   9
ENDBRANCH   1   3
TORSDOF 6
ENDMDL
MODEL 2
REMARK VINA RESULT:      -6.2      1.799      5.982
REMARK  6 active torsions:
REMARK  status: ('A' for Active; 'I' for Inactive)
REMARK    1  A    between atoms: O_1  and  C_11 
REMARK    2  A    between atoms: C_4  and  C_5 
REMARK    3  A    between atoms: C_4  and  C_6 
REMARK    4  A    between atoms: C_5  and  C_7 
REMARK    5  A    between atoms: C_6  and  C_8 
REMARK    6  A    between atoms: C_8  and  C_12 
ROOT
HETATM    1  O   UNL     1     -52.448  50.054  15.682  1.00  0.00    -0.361 OA
HETATM    2  H   UNL     1     -51.791  50.394  16.257  1.00  0.00     0.217 HD
ENDROOT
BRANCH   1   3
HETATM    3  C   UNL     1     -52.165  48.997  14.875  1.00  0.00     0.066 A 
HETATM    4  C   UNL     1     -52.876  48.816  13.687  1.00  0.00     0.043 A 
HETATM    5  C   UNL     1     -52.576  47.733  12.874  1.00  0.00    -0.056 A 
HETATM    6  C   UNL     1     -51.584  46.827  13.220  1.00  0.00     0.007 A 
HETATM    7  C   UNL     1     -50.874  47.009  14.406  1.00  0.00     0.003 A 
HETATM    8  C   UNL     1     -51.164  48.094  15.234  1.00  0.00     0.036 A 
BRANCH   5   9
HETATM    9  C   UNL     1     -53.344  47.535  11.592  1.00  0.00     0.038 C 
BRANCH   9  10
HETATM   10  C   UNL     1     -53.002  48.555  10.499  1.00  0.00     0.005 C 
BRANCH  10  11
HETATM   11  C   UNL     1     -54.080  49.634  10.330  1.00  0.00     0.011 C 
BRANCH  11  12
HETATM   12  C   UNL     1     -53.571  50.848   9.550  1.00  0.00     0.113 C 
BRANCH  12  13
HETATM   13  C   UNL     1     -53.782  52.158  10.277  1.00  0.00     0.172 C 
HETATM   14  O   UNL     1     -54.427  53.061   9.494  1.00  0.00    -0.648 OA
HETATM   15  O   UNL     1     -53.446  52.393  11.429  1.00  0.00    -0.648 OA
ENDBRANCH  12  13
ENDBRANCH  11  12
ENDBRANCH  10  11
ENDBRANCH   9  10
ENDBRANCH   5   9
ENDBRANCH   1   3
TORSDOF 6
ENDMDL
MODEL 3
REMARK VINA RESULT:      -6.2      2.594      6.302
REMARK  6 active torsions:
REMARK  status: ('A' for Active; 'I' for Inactive)
REMARK    1  A    between atoms: O_1  and  C_11 
REMARK    2  A    between atoms: C_4  and  C_5 
REMARK    3  A    between atoms: C_4  and  C_6 
REMARK    4  A    between atoms: C_5  and  C_7 
REMARK    5  A    between atoms: C_6  and  C_8 
REMARK    6  A    between atoms: C_8  and  C_12 
ROOT
HETATM    1  O   UNL     1     -52.194  49.838  15.619  1.00  0.00    -0.361 OA
HETATM    2  H   UNL     1     -52.668  49.665  16.409  1.00  0.00     0.217 HD
ENDROOT
BRANCH   1   3
HETATM    3  C   UNL     1     -52.266  48.966  14.577  1.00  0.00     0.066 A 
HETATM    4  C   UNL     1     -53.058  49.267  13.468  1.00  0.00     0.043 A 
HETATM    5  C   UNL     1     -53.121  48.368  12.414  1.00  0.00    -0.056 A 
HETATM    6  C   UNL     1     -52.413  47.176  12.443  1.00  0.00     0.007 A 
HETATM    7  C   UNL     1     -51.622  46.876  13.551  1.00  0.00     0.003 A 
HETATM    8  C   UNL     1     -51.548  47.771  14.619  1.00  0.00     0.036 A 
BRANCH   5   9
HETATM    9  C   UNL     1     -53.977  48.692  11.216  1.00  0.00     0.038 C 
BRANCH   9  10
HETATM   10  C   UNL     1     -53.419  49.819  10.340  1.00  0.00     0.005 C 
BRANCH  10  11
HETATM   11  C   UNL     1     -53.606  49.558   8.839  1.00  0.00     0.011 C 
BRANCH  11  12
HETATM   12  C   UNL     1     -52.873  48.298   8.372  1.00  0.00     0.113 C 
BRANCH  12  13
HETATM   13  C   UNL     1     -53.800  47.235   7.824  1.00  0.00     0.172 C 
HETATM   14  O   UNL     1     -53.365  46.769   6.625  1.00  0.00    -0.648 OA
HETATM   15  O   UNL     1     -54.805  46.815   8.379  1.00  0.00    -0.648 OA
ENDBRANCH  12  13
ENDBRANCH  11  12
ENDBRANCH  10  11
ENDBRANCH   9  10
ENDBRANCH   5   9
ENDBRANCH   1   3
TORSDOF 6
ENDMDL
MODEL 4
REMARK VINA RESULT:      -6.2      1.120      1.846
REMARK  6 active torsions:
REMARK  status: ('A' for Active; 'I' for Inactive)
REMARK    1  A    between atoms: O_1  and  C_11 
REMARK    2  A    between atoms: C_4  and  C_5 
REMARK    3  A    between atoms: C_4  and  C_6 
REMARK    4  A    between atoms: C_5  and  C_7 
REMARK    5  A    between atoms: C_6  and  C_8 
REMARK    6  A    between atoms: C_8  and  C_12 
ROOT
HETATM    1  O   UNL     1     -53.420  50.515   7.783  1.00  0.00    -0.361 OA
HETATM    2  H   UNL     1     -53.987  51.064   7.278  1.00  0.00     0.217 HD
ENDROOT
BRANCH   1   3
HETATM    3  C   UNL     1     -53.428  50.595   9.141  1.00  0.00     0.066 A 
HETATM    4  C   UNL     1     -53.386  49.431   9.909  1.00  0.00     0.043 A 
HETATM    5  C   UNL     1     -53.396  49.528  11.292  1.00  0.00    -0.056 A 
HETATM    6  C   UNL     1     -53.446  50.761  11.926  1.00  0.00     0.007 A 
HETATM    7  C   UNL     1     -53.487  51.924  11.158  1.00  0.00     0.003 A 
HETATM    8  C   UNL     1     -53.478  51.842   9.765  1.00  0.00     0.036 A 
BRANCH   5   9
HETATM    9  C   UNL     1     -53.352  48.271  12.123  1.00  0.00     0.038 C 
BRANCH   9  10
HETATM   10  C   UNL     1     -52.980  48.509  13.592  1.00  0.00     0.005 C 
BRANCH  10  11
HETATM   11  C   UNL     1     -51.881  47.560  14.091  1.00  0.00     0.011 C 
BRANCH  11  12
HETATM   12  C   UNL     1     -51.067  48.165  15.237  1.00  0.00     0.113 C 
BRANCH  12  13
HETATM   13  C   UNL     1     -49.675  47.586  15.352  1.00  0.00     0.172 C 
HETATM   14  O   UNL     1     -48.829  48.449  15.974  1.00  0.00    -0.648 OA
HETATM   15  O   UNL     1     -49.331  46.479  14.964  1.00  0.00    -0.648 OA
ENDBRANCH  12  13
ENDBRANCH  11  12
ENDBRANCH  10  11
ENDBRANCH   9  10
ENDBRANCH   5   9
ENDBRANCH   1   3
TORSDOF 6
ENDMDL
MODEL 5
REMARK VINA RESULT:      -6.1      2.454      6.088
REMARK  6 active torsions:
REMARK  status: ('A' for Active; 'I' for Inactive)
REMARK    1  A    between atoms: O_1  and  C_11 
REMARK    2  A    between atoms: C_4  and  C_5 
REMARK    3  A    between atoms: C_4  and  C_6 
REMARK    4  A    between atoms: C_5  and  C_7 
REMARK    5  A    between atoms: C_6  and  C_8 
REMARK    6  A    between atoms: C_8  and  C_12 
ROOT
HETATM    1  O   UNL     1     -50.610  48.520  16.100  1.00  0.00    -0.361 OA
HETATM    2  H   UNL     1     -49.785  48.959  16.036  1.00  0.00     0.217 HD
ENDROOT
BRANCH   1   3
HETATM    3  C   UNL     1     -51.215  48.040  14.979  1.00  0.00     0.066 A 
HETATM    4  C   UNL     1     -52.202  48.792  14.342  1.00  0.00     0.043 A 
HETATM    5  C   UNL     1     -52.809  48.289  13.201  1.00  0.00    -0.056 A 
HETATM    6  C   UNL     1     -52.453  47.053  12.682  1.00  0.00     0.007 A 
HETATM    7  C   UNL     1     -51.466  46.302  13.319  1.00  0.00     0.003 A 
HETATM    8  C   UNL     1     -50.846  46.795  14.468  1.00  0.00     0.036 A 
BRANCH   5   9
HETATM    9  C   UNL     1     -53.877  49.101  12.512  1.00  0.00     0.038 C 
BRANCH   9  10
HETATM   10  C   UNL     1     -53.379  49.865  11.280  1.00  0.00     0.005 C 
BRANCH  10  11
HETATM   11  C   UNL     1     -54.185  49.548  10.013  1.00  0.00     0.011 C 
BRANCH  11  12
HETATM   12  C   UNL     1     -55.088  48.324  10.190  1.00  0.00     0.113 C 
BRANCH  12  13
HETATM   13  C   UNL     1     -54.615  47.115   9.414  1.00  0.00     0.172 C 
HETATM   14  O   UNL     1     -55.656  46.453   8.845  1.00  0.00    -0.648 OA
HETATM   15  O   UNL     1     -53.450  46.767   9.281  1.00  0.00    -0.648 OA
ENDBRANCH  12  13
ENDBRANCH  11  12
ENDBRANCH  10  11
ENDBRANCH   9  10
ENDBRANCH   5   9
ENDBRANCH   1   3
TORSDOF 6
ENDMDL
MODEL 6
REMARK VINA RESULT:      -6.1      4.329      5.577
REMARK  6 active torsions:
REMARK  status: ('A' for Active; 'I' for Inactive)
REMARK    1  A    between atoms: O_1  and  C_11 
REMARK    2  A    between atoms: C_4  and  C_5 
REMARK    3  A    between atoms: C_4  and  C_6 
REMARK    4  A    between atoms: C_5  and  C_7 
REMARK    5  A    between atoms: C_6  and  C_8 
REMARK    6  A    between atoms: C_8  and  C_12 
ROOT
HETATM    1  O   UNL     1     -53.483  50.344   7.853  1.00  0.00    -0.361 OA
HETATM    2  H   UNL     1     -52.803  50.127   7.246  1.00  0.00     0.217 HD
ENDROOT
BRANCH   1   3
HETATM    3  C   UNL     1     -53.405  49.919   9.142  1.00  0.00     0.066 A 
HETATM    4  C   UNL     1     -53.046  48.599   9.422  1.00  0.00     0.043 A 
HETATM    5  C   UNL     1     -52.972  48.181  10.742  1.00  0.00    -0.056 A 
HETATM    6  C   UNL     1     -53.247  49.048  11.788  1.00  0.00     0.007 A 
HETATM    7  C   UNL     1     -53.605  50.366  11.509  1.00  0.00     0.003 A 
HETATM    8  C   UNL     1     -53.684  50.802  10.186  1.00  0.00     0.036 A 
BRANCH   5   9
HETATM    9  C   UNL     1     -52.586  46.755  11.045  1.00  0.00     0.038 C 
BRANCH   9  10
HETATM   10  C   UNL     1     -51.704  46.108   9.971  1.00  0.00     0.005 C 
BRANCH  10  11
HETATM   11  C   UNL     1     -52.178  44.704   9.574  1.00  0.00     0.011 C 
BRANCH  11  12
HETATM   12  C   UNL     1     -53.700  44.561   9.648  1.00  0.00     0.113 C 
BRANCH  12  13
HETATM   13  C   UNL     1     -54.413  45.127   8.440  1.00  0.00     0.172 C 
HETATM   14  O   UNL     1     -55.521  45.826   8.801  1.00  0.00    -0.648 OA
HETATM   15  O   UNL     1     -54.050  45.005   7.279  1.00  0.00    -0.648 OA
ENDBRANCH  12  13
ENDBRANCH  11  12
ENDBRANCH  10  11
ENDBRANCH   9  10
ENDBRANCH   5   9
ENDBRANCH   1   3
TORSDOF 6
ENDMDL
MODEL 7
REMARK VINA RESULT:      -6.0      4.243      6.453
REMARK  6 active torsions:
REMARK  status: ('A' for Active; 'I' for Inactive)
REMARK    1  A    between atoms: O_1  and  C_11 
REMARK    2  A    between atoms: C_4  and  C_5 
REMARK    3  A    between atoms: C_4  and  C_6 
REMARK    4  A    between atoms: C_5  and  C_7 
REMARK    5  A    between atoms: C_6  and  C_8 
REMARK    6  A    between atoms: C_8  and  C_12 
ROOT
HETATM    1  O   UNL     1     -53.787  52.229   9.322  1.00  0.00    -0.361 OA
HETATM    2  H   UNL     1     -53.077  52.650   8.880  1.00  0.00     0.217 HD
ENDROOT
BRANCH   1   3
HETATM    3  C   UNL     1     -53.601  51.013   9.904  1.00  0.00     0.066 A 
HETATM    4  C   UNL     1     -53.549  49.862   9.117  1.00  0.00     0.043 A 
HETATM    5  C   UNL     1     -53.359  48.631   9.725  1.00  0.00    -0.056 A 
HETATM    6  C   UNL     1     -53.221  48.522  11.101  1.00  0.00     0.007 A 
HETATM    7  C   UNL     1     -53.274  49.672  11.888  1.00  0.00     0.003 A 
HETATM    8  C   UNL     1     -53.463  50.918  11.289  1.00  0.00     0.036 A 
BRANCH   5   9
HETATM    9  C   UNL     1     -53.303  47.387   8.876  1.00  0.00     0.038 C 
BRANCH   9  10
HETATM   10  C   UNL     1     -52.002  46.590   9.024  1.00  0.00     0.005 C 
BRANCH  10  11
HETATM   11  C   UNL     1     -51.078  46.721   7.805  1.00  0.00     0.011 C 
BRANCH  11  12
HETATM   12  C   UNL     1     -51.839  47.120   6.539  1.00  0.00     0.113 C 
BRANCH  12  13
HETATM   13  C   UNL     1     -52.291  45.934   5.715  1.00  0.00     0.172 C 
HETATM   14  O   UNL     1     -51.237  45.303   5.135  1.00  0.00    -0.648 OA
HETATM   15  O   UNL     1     -53.447  45.558   5.587  1.00  0.00    -0.648 OA
ENDBRANCH  12  13
ENDBRANCH  11  12
ENDBRANCH  10  11
ENDBRANCH   9  10
ENDBRANCH   5   9
ENDBRANCH   1   3
TORSDOF 6
ENDMDL
MODEL 8
REMARK VINA RESULT:      -6.0      1.284      1.957
REMARK  6 active torsions:
REMARK  status: ('A' for Active; 'I' for Inactive)
REMARK    1  A    between atoms: O_1  and  C_11 
REMARK    2  A    between atoms: C_4  and  C_5 
REMARK    3  A    between atoms: C_4  and  C_6 
REMARK    4  A    between atoms: C_5  and  C_7 
REMARK    5  A    between atoms: C_6  and  C_8 
REMARK    6  A    between atoms: C_8  and  C_12 
ROOT
HETATM    1  O   UNL     1     -53.478  48.855   7.998  1.00  0.00    -0.361 OA
HETATM    2  H   UNL     1     -53.265  49.525   7.379  1.00  0.00     0.217 HD
ENDROOT
BRANCH   1   3
HETATM    3  C   UNL     1     -53.410  49.115   9.331  1.00  0.00     0.066 A 
HETATM    4  C   UNL     1     -53.083  48.095  10.226  1.00  0.00     0.043 A 
HETATM    5  C   UNL     1     -53.019  48.375  11.582  1.00  0.00    -0.056 A 
HETATM    6  C   UNL     1     -53.273  49.650  12.066  1.00  0.00     0.007 A 
HETATM    7  C   UNL     1     -53.599  50.669  11.172  1.00  0.00     0.003 A 
HETATM    8  C   UNL     1     -53.668  50.402   9.804  1.00  0.00     0.036 A 
BRANCH   5   9
HETATM    9  C   UNL     1     -52.667  47.273  12.550  1.00  0.00     0.038 C 
BRANCH   9  10
HETATM   10  C   UNL     1     -52.296  47.771  13.951  1.00  0.00     0.005 C 
BRANCH  10  11
HETATM   11  C   UNL     1     -50.923  47.271  14.420  1.00  0.00     0.011 C 
BRANCH  11  12
HETATM   12  C   UNL     1     -50.418  48.024  15.652  1.00  0.00     0.113 C 
BRANCH  12  13
HETATM   13  C   UNL     1     -48.911  48.017  15.783  1.00  0.00     0.172 C 
HETATM   14  O   UNL     1     -48.319  47.530  14.661  1.00  0.00    -0.648 OA
HETATM   15  O   UNL     1     -48.280  48.412  16.753  1.00  0.00    -0.648 OA
ENDBRANCH  12  13
ENDBRANCH  11  12
ENDBRANCH  10  11
ENDBRANCH   9  10
ENDBRANCH   5   9
ENDBRANCH   1   3
TORSDOF 6
ENDMDL
MODEL 9
REMARK VINA RESULT:      -6.0      1.099      6.527
REMARK  6 active torsions:
REMARK  status: ('A' for Active; 'I' for Inactive)
REMARK    1  A    between atoms: O_1  and  C_11 
REMARK    2  A    between atoms: C_4  and  C_5 
REMARK    3  A    between atoms: C_4  and  C_6 
REMARK    4  A    between atoms: C_5  and  C_7 
REMARK    5  A    between atoms: C_6  and  C_8 
REMARK    6  A    between atoms: C_8  and  C_12 
ROOT
HETATM    1  O   UNL     1     -49.092  48.613  16.694  1.00  0.00    -0.361 OA
HETATM    2  H   UNL     1     -49.432  48.813  17.544  1.00  0.00     0.217 HD
ENDROOT
BRANCH   1   3
HETATM    3  C   UNL     1     -49.881  47.996  15.774  1.00  0.00     0.066 A 
HETATM    4  C   UNL     1     -51.047  48.617  15.325  1.00  0.00     0.043 A 
HETATM    5  C   UNL     1     -51.842  47.975  14.387  1.00  0.00    -0.056 A 
HETATM    6  C   UNL     1     -51.498  46.728  13.887  1.00  0.00     0.007 A 
HETATM    7  C   UNL     1     -50.333  46.108  14.335  1.00  0.00     0.003 A 
HETATM    8  C   UNL     1     -49.523  46.742  15.278  1.00  0.00     0.036 A 
BRANCH   5   9
HETATM    9  C   UNL     1     -53.103  48.644  13.903  1.00  0.00     0.038 C 
BRANCH   9  10
HETATM   10  C   UNL     1     -53.329  48.526  12.391  1.00  0.00     0.005 C 
BRANCH  10  11
HETATM   11  C   UNL     1     -53.664  49.869  11.729  1.00  0.00     0.011 C 
BRANCH  11  12
HETATM   12  C   UNL     1     -54.049  49.712  10.256  1.00  0.00     0.113 C 
BRANCH  12  13
HETATM   13  C   UNL     1     -53.648  50.895   9.403  1.00  0.00     0.172 C 
HETATM   14  O   UNL     1     -53.071  50.495   8.241  1.00  0.00    -0.648 OA
HETATM   15  O   UNL     1     -53.828  52.070   9.689  1.00  0.00    -0.648 OA
ENDBRANCH  12  13
ENDBRANCH  11  12
ENDBRANCH  10  11
ENDBRANCH   9  10
ENDBRANCH   5   9
ENDBRANCH   1   3
TORSDOF 6
ENDMDL
