MODEL 1
REMARK VINA RESULT:      -6.4      0.000      0.000
REMARK  6 active torsions:
REMARK  status: ('A' for Active; 'I' for Inactive)
REMARK    1  A    between atoms: O_1  and  C_11 
REMARK    2  A    between atoms: C_4  and  C_5 
REMARK    3  A    between atoms: C_4  and  C_6 
REMARK    4  A    between atoms: C_5  and  C_7 
REMARK    5  A    between atoms: C_6  and  C_8 
REMARK    6  A    between atoms: C_8  and  C_12 
ROOT
HETATM    1  O   UNL     1     -53.820  51.942   9.276  1.00  0.00    -0.361 OA
HETATM    2  H   UNL     1     -53.105  52.541   9.188  1.00  0.00     0.217 HD
ENDROOT
BRANCH   1   3
HETATM    3  C   UNL     1     -53.605  50.692   9.769  1.00  0.00     0.066 A 
HETATM    4  C   UNL     1     -53.593  50.478  11.148  1.00  0.00     0.043 A 
HETATM    5  C   UNL     1     -53.371  49.198  11.635  1.00  0.00    -0.056 A 
HETATM    6  C   UNL     1     -53.162  48.129  10.777  1.00  0.00     0.007 A 
HETATM    7  C   UNL     1     -53.174  48.343   9.400  1.00  0.00     0.003 A 
HETATM    8  C   UNL     1     -53.396  49.625   8.895  1.00  0.00     0.036 A 
BRANCH   5   9
HETATM    9  C   UNL     1     -53.357  48.966  13.124  1.00  0.00     0.038 C 
BRANCH   9  10
HETATM   10  C   UNL     1     -52.396  47.858  13.572  1.00  0.00     0.005 C 
BRANCH  10  11
HETATM   11  C   UNL     1     -51.576  48.242  14.811  1.00  0.00     0.011 C 
BRANCH  11  12
HETATM   12  C   UNL     1     -50.466  47.232  15.110  1.00  0.00     0.113 C 
BRANCH  12  13
HETATM   13  C   UNL     1     -49.310  47.826  15.884  1.00  0.00     0.172 C 
HETATM   14  O   UNL     1     -49.538  47.787  17.223  1.00  0.00    -0.648 OA
HETATM   15  O   UNL     1     -48.281  48.270  15.395  1.00  0.00    -0.648 OA
ENDBRANCH  12  13
ENDBRANCH  11  12
ENDBRANCH  10  11
ENDBRANCH   9  10
ENDBRANCH   5   9
ENDBRANCH   1   3
TORSDOF 6
ENDMDL
MODEL 2
REMARK VINA RESULT:      -6.3      1.054      1.735
REMARK  6 active torsions:
REMARK  status: ('A' for Active; 'I' for Inactive)
REMARK    1  A    between atoms: O_1  and  C_11 
REMARK    2  A    between atoms: C_4  and  C_5 
REMARK    3  A    between atoms: C_4  and  C_6 
REMARK    4  A    between atoms: C_5  and  C_7 
REMARK    5  A    between atoms: C_6  and  C_8 
REMARK    6  A    between atoms: C_8  and  C_12 
ROOT
HETATM    1  O   UNL     1     -53.770  49.285   8.012  1.00  0.00    -0.361 OA
HETATM    2  H   UNL     1     -53.564  48.500   7.542  1.00  0.00     0.217 HD
ENDROOT
BRANCH   1   3
HETATM    3  C   UNL     1     -53.555  49.350   9.353  1.00  0.00     0.066 A 
HETATM    4  C   UNL     1     -53.146  48.213  10.051  1.00  0.00     0.043 A 
HETATM    5  C   UNL     1     -52.931  48.296  11.419  1.00  0.00    -0.056 A 
HETATM    6  C   UNL     1     -53.116  49.487  12.105  1.00  0.00     0.007 A 
HETATM    7  C   UNL     1     -53.525  50.623  11.407  1.00  0.00     0.003 A 
HETATM    8  C   UNL     1     -53.744  50.555  10.031  1.00  0.00     0.036 A 
BRANCH   5   9
HETATM    9  C   UNL     1     -52.491  47.068  12.175  1.00  0.00     0.038 C 
BRANCH   9  10
HETATM   10  C   UNL     1     -52.521  47.231  13.699  1.00  0.00     0.005 C 
BRANCH  10  11
HETATM   11  C   UNL     1     -51.140  47.055  14.346  1.00  0.00     0.011 C 
BRANCH  11  12
HETATM   12  C   UNL     1     -50.833  48.152  15.368  1.00  0.00     0.113 C 
BRANCH  12  13
HETATM   13  C   UNL     1     -49.462  48.018  15.995  1.00  0.00     0.172 C 
HETATM   14  O   UNL     1     -49.547  47.639  17.296  1.00  0.00    -0.648 OA
HETATM   15  O   UNL     1     -48.398  48.201  15.420  1.00  0.00    -0.648 OA
ENDBRANCH  12  13
ENDBRANCH  11  12
ENDBRANCH  10  11
ENDBRANCH   9  10
ENDBRANCH   5   9
ENDBRANCH   1   3
TORSDOF 6
ENDMDL
MODEL 3
REMARK VINA RESULT:      -6.2      4.755      6.891
REMARK  6 active torsions:
REMARK  status: ('A' for Active; 'I' for Inactive)
REMARK    1  A    between atoms: O_1  and  C_11 
REMARK    2  A    between atoms: C_4  and  C_5 
REMARK    3  A    between atoms: C_4  and  C_6 
REMARK    4  A    between atoms: C_5  and  C_7 
REMARK    5  A    between atoms: C_6  and  C_8 
REMARK    6  A    between atoms: C_8  and  C_12 
ROOT
HETATM    1  O   UNL     1     -53.376  50.620   7.884  1.00  0.00    -0.361 OA
HETATM    2  H   UNL     1     -54.155  50.804   7.397  1.00  0.00     0.217 HD
ENDROOT
BRANCH   1   3
HETATM    3  C   UNL     1     -53.445  49.880   9.023  1.00  0.00     0.066 A 
HETATM    4  C   UNL     1     -53.413  48.487   8.954  1.00  0.00     0.043 A 
HETATM    5  C   UNL     1     -53.485  47.746  10.124  1.00  0.00    -0.056 A 
HETATM    6  C   UNL     1     -53.587  48.365  11.361  1.00  0.00     0.007 A 
HETATM    7  C   UNL     1     -53.618  49.757  11.430  1.00  0.00     0.003 A 
HETATM    8  C   UNL     1     -53.546  50.515  10.261  1.00  0.00     0.036 A 
BRANCH   5   9
HETATM    9  C   UNL     1     -53.452  46.241  10.050  1.00  0.00     0.038 C 
BRANCH   9  10
HETATM   10  C   UNL     1     -53.979  45.672   8.727  1.00  0.00     0.005 C 
BRANCH  10  11
HETATM   11  C   UNL     1     -55.273  44.865   8.896  1.00  0.00     0.011 C 
BRANCH  11  12
HETATM   12  C   UNL     1     -55.094  43.392   8.525  1.00  0.00     0.113 C 
BRANCH  12  13
HETATM   13  C   UNL     1     -56.401  42.639   8.415  1.00  0.00     0.172 C 
HETATM   14  O   UNL     1     -56.766  42.102   9.608  1.00  0.00    -0.648 OA
HETATM   15  O   UNL     1     -57.075  42.530   7.400  1.00  0.00    -0.648 OA
ENDBRANCH  12  13
ENDBRANCH  11  12
ENDBRANCH  10  11
ENDBRANCH   9  10
ENDBRANCH   5   9
ENDBRANCH   1   3
TORSDOF 6
ENDMDL
MODEL 4
REMARK VINA RESULT:      -6.2      2.513      6.222
REMARK  6 active torsions:
REMARK  status: ('A' for Active; 'I' for Inactive)
REMARK    1  A    between atoms: O_1  and  C_11 
REMARK    2  A    between atoms: C_4  and  C_5 
REMARK    3  A    between atoms: C_4  and  C_6 
REMARK    4  A    between atoms: C_5  and  C_7 
REMARK    5  A    between atoms: C_6  and  C_8 
REMARK    6  A    between atoms: C_8  and  C_12 
ROOT
HETATM    1  O   UNL     1     -50.886  48.508  16.060  1.00  0.00    -0.361 OA
HETATM    2  H   UNL     1     -50.633  49.403  16.171  1.00  0.00     0.217 HD
ENDROOT
BRANCH   1   3
HETATM    3  C   UNL     1     -51.424  48.094  14.880  1.00  0.00     0.066 A 
HETATM    4  C   UNL     1     -52.339  48.904  14.207  1.00  0.00     0.043 A 
HETATM    5  C   UNL     1     -52.879  48.468  13.007  1.00  0.00    -0.056 A 
HETATM    6  C   UNL     1     -52.526  47.242  12.463  1.00  0.00     0.007 A 
HETATM    7  C   UNL     1     -51.611  46.433  13.135  1.00  0.00     0.003 A 
HETATM    8  C   UNL     1     -51.060  46.858  14.344  1.00  0.00     0.036 A 
BRANCH   5   9
HETATM    9  C   UNL     1     -53.869  49.343  12.280  1.00  0.00     0.038 C 
BRANCH   9  10
HETATM   10  C   UNL     1     -53.369  49.853  10.923  1.00  0.00     0.005 C 
BRANCH  10  11
HETATM   11  C   UNL     1     -54.239  49.381   9.750  1.00  0.00     0.011 C 
BRANCH  11  12
HETATM   12  C   UNL     1     -55.134  48.199  10.128  1.00  0.00     0.113 C 
BRANCH  12  13
HETATM   13  C   UNL     1     -54.845  46.949   9.326  1.00  0.00     0.172 C 
HETATM   14  O   UNL     1     -55.991  46.362   8.893  1.00  0.00    -0.648 OA
HETATM   15  O   UNL     1     -53.733  46.513   9.068  1.00  0.00    -0.648 OA
ENDBRANCH  12  13
ENDBRANCH  11  12
ENDBRANCH  10  11
ENDBRANCH   9  10
ENDBRANCH   5   9
ENDBRANCH   1   3
TORSDOF 6
ENDMDL
MODEL 5
REMARK VINA RESULT:      -6.1      4.513      6.221
REMARK  6 active torsions:
REMARK  status: ('A' for Active; 'I' for Inactive)
REMARK    1  A    between atoms: O_1  and  C_11 
REMARK    2  A    between atoms: C_4  and  C_5 
REMARK    3  A    between atoms: C_4  and  C_6 
REMARK    4  A    between atoms: C_5  and  C_7 
REMARK    5  A    between atoms: C_6  and  C_8 
REMARK    6  A    between atoms: C_8  and  C_12 
ROOT
HETATM    1  O   UNL     1     -53.357  50.664   7.888  1.00  0.00    -0.361 OA
HETATM    2  H   UNL     1     -53.569  50.206   7.099  1.00  0.00     0.217 HD
ENDROOT
BRANCH   1   3
HETATM    3  C   UNL     1     -53.358  50.006   9.079  1.00  0.00     0.066 A 
HETATM    4  C   UNL     1     -53.090  48.637   9.120  1.00  0.00     0.043 A 
HETATM    5  C   UNL     1     -53.095  47.980  10.341  1.00  0.00    -0.056 A 
HETATM    6  C   UNL     1     -53.361  48.658  11.522  1.00  0.00     0.007 A 
HETATM    7  C   UNL     1     -53.629  50.026  11.480  1.00  0.00     0.003 A 
HETATM    8  C   UNL     1     -53.627  50.701  10.259  1.00  0.00     0.036 A 
BRANCH   5   9
HETATM    9  C   UNL     1     -52.807  46.501  10.387  1.00  0.00     0.038 C 
BRANCH   9  10
HETATM   10  C   UNL     1     -51.498  46.101   9.696  1.00  0.00     0.005 C 
BRANCH  10  11
HETATM   11  C   UNL     1     -51.700  45.053   8.593  1.00  0.00     0.011 C 
BRANCH  11  12
HETATM   12  C   UNL     1     -51.783  45.682   7.201  1.00  0.00     0.113 C 
BRANCH  12  13
HETATM   13  C   UNL     1     -53.110  45.444   6.514  1.00  0.00     0.172 C 
HETATM   14  O   UNL     1     -54.077  45.109   7.407  1.00  0.00    -0.648 OA
HETATM   15  O   UNL     1     -53.319  45.553   5.314  1.00  0.00    -0.648 OA
ENDBRANCH  12  13
ENDBRANCH  11  12
ENDBRANCH  10  11
ENDBRANCH   9  10
ENDBRANCH   5   9
ENDBRANCH   1   3
TORSDOF 6
ENDMDL
MODEL 6
REMARK VINA RESULT:      -6.1      2.554      6.428
REMARK  6 active torsions:
REMARK  status: ('A' for Active; 'I' for Inactive)
REMARK    1  A    between atoms: O_1  and  C_11 
REMARK    2  A    between atoms: C_4  and  C_5 
REMARK    3  A    between atoms: C_4  and  C_6 
REMARK    4  A    between atoms: C_5  and  C_7 
REMARK    5  A    between atoms: C_6  and  C_8 
REMARK    6  A    between atoms: C_8  and  C_12 
ROOT
HETATM    1  O   UNL     1     -52.495  50.030  15.696  1.00  0.00    -0.361 OA
HETATM    2  H   UNL     1     -52.407  50.931  15.452  1.00  0.00     0.217 HD
ENDROOT
BRANCH   1   3
HETATM    3  C   UNL     1     -52.322  49.053  14.766  1.00  0.00     0.066 A 
HETATM    4  C   UNL     1     -53.016  49.109  13.557  1.00  0.00     0.043 A 
HETATM    5  C   UNL     1     -52.830  48.104  12.619  1.00  0.00    -0.056 A 
HETATM    6  C   UNL     1     -51.967  47.046  12.861  1.00  0.00     0.007 A 
HETATM    7  C   UNL     1     -51.273  46.991  14.068  1.00  0.00     0.003 A 
HETATM    8  C   UNL     1     -51.450  47.994  15.022  1.00  0.00     0.036 A 
BRANCH   5   9
HETATM    9  C   UNL     1     -53.581  48.163  11.313  1.00  0.00     0.038 C 
BRANCH   9  10
HETATM   10  C   UNL     1     -53.495  49.521  10.607  1.00  0.00     0.005 C 
BRANCH  10  11
HETATM   11  C   UNL     1     -53.656  49.415   9.084  1.00  0.00     0.011 C 
BRANCH  11  12
HETATM   12  C   UNL     1     -52.924  48.202   8.505  1.00  0.00     0.113 C 
BRANCH  12  13
HETATM   13  C   UNL     1     -53.852  47.192   7.867  1.00  0.00     0.172 C 
HETATM   14  O   UNL     1     -53.386  46.785   6.658  1.00  0.00    -0.648 OA
HETATM   15  O   UNL     1     -54.884  46.762   8.363  1.00  0.00    -0.648 OA
ENDBRANCH  12  13
ENDBRANCH  11  12
ENDBRANCH  10  11
ENDBRANCH   9  10
ENDBRANCH   5   9
ENDBRANCH   1   3
TORSDOF 6
ENDMDL
MODEL 7
REMARK VINA RESULT:      -6.1      4.484      5.750
REMARK  6 active torsions:
REMARK  status: ('A' for Active; 'I' for Inactive)
REMARK    1  A    between atoms: O_1  and  C_11 
REMARK    2  A    between atoms: C_4  and  C_5 
REMARK    3  A    between atoms: C_4  and  C_6 
REMARK    4  A    between atoms: C_5  and  C_7 
REMARK    5  A    between atoms: C_6  and  C_8 
REMARK    6  A    between atoms: C_8  and  C_12 
ROOT
HETATM    1  O   UNL     1     -53.414  50.484   7.833  1.00  0.00    -0.361 OA
HETATM    2  H   UNL     1     -53.136  49.942   7.121  1.00  0.00     0.217 HD
ENDROOT
BRANCH   1   3
HETATM    3  C   UNL     1     -53.364  50.013   9.108  1.00  0.00     0.066 A 
HETATM    4  C   UNL     1     -53.025  48.682   9.348  1.00  0.00     0.043 A 
HETATM    5  C   UNL     1     -52.979  48.216  10.653  1.00  0.00    -0.056 A 
HETATM    6  C   UNL     1     -53.264  49.050  11.724  1.00  0.00     0.007 A 
HETATM    7  C   UNL     1     -53.603  50.381  11.484  1.00  0.00     0.003 A 
HETATM    8  C   UNL     1     -53.653  50.864  10.176  1.00  0.00     0.036 A 
BRANCH   5   9
HETATM    9  C   UNL     1     -52.614  46.777  10.913  1.00  0.00     0.038 C 
BRANCH   9  10
HETATM   10  C   UNL     1     -51.708  46.161   9.840  1.00  0.00     0.005 C 
BRANCH  10  11
HETATM   11  C   UNL     1     -52.217  44.805   9.334  1.00  0.00     0.011 C 
BRANCH  11  12
HETATM   12  C   UNL     1     -53.693  44.577   9.665  1.00  0.00     0.113 C 
BRANCH  12  13
HETATM   13  C   UNL     1     -54.635  45.166   8.638  1.00  0.00     0.172 C 
HETATM   14  O   UNL     1     -54.244  44.859   7.374  1.00  0.00    -0.648 OA
HETATM   15  O   UNL     1     -55.638  45.820   8.887  1.00  0.00    -0.648 OA
ENDBRANCH  12  13
ENDBRANCH  11  12
ENDBRANCH  10  11
ENDBRANCH   9  10
ENDBRANCH   5   9
ENDBRANCH   1   3
TORSDOF 6
ENDMDL
MODEL 8
REMARK VINA RESULT:      -6.0      4.178      6.532
REMARK  6 active torsions:
REMARK  status: ('A' for Active; 'I' for Inactive)
REMARK    1  A    between atoms: O_1  and  C_11 
REMARK    2  A    between atoms: C_4  and  C_5 
REMARK    3  A    between atoms: C_4  and  C_6 
REMARK    4  A    between atoms: C_5  and  C_7 
REMARK    5  A    between atoms: C_6  and  C_8 
REMARK    6  A    between atoms: C_8  and  C_12 
ROOT
HETATM    1  O   UNL     1     -53.949  51.797   9.572  1.00  0.00    -0.361 OA
HETATM    2  H   UNL     1     -53.515  52.072   8.789  1.00  0.00     0.217 HD
ENDROOT
BRANCH   1   3
HETATM    3  C   UNL     1     -53.705  50.562  10.087  1.00  0.00     0.066 A 
HETATM    4  C   UNL     1     -53.717  49.442   9.254  1.00  0.00     0.043 A 
HETATM    5  C   UNL     1     -53.466  48.190   9.794  1.00  0.00    -0.056 A 
HETATM    6  C   UNL     1     -53.204  48.030  11.147  1.00  0.00     0.007 A 
HETATM    7  C   UNL     1     -53.192  49.148  11.979  1.00  0.00     0.003 A 
HETATM    8  C   UNL     1     -53.442  50.415  11.450  1.00  0.00     0.036 A 
BRANCH   5   9
HETATM    9  C   UNL     1     -53.481  46.980   8.895  1.00  0.00     0.038 C 
BRANCH   9  10
HETATM   10  C   UNL     1     -52.150  46.220   8.854  1.00  0.00     0.005 C 
BRANCH  10  11
HETATM   11  C   UNL     1     -51.164  46.795   7.827  1.00  0.00     0.011 C 
BRANCH  11  12
HETATM   12  C   UNL     1     -51.861  47.250   6.543  1.00  0.00     0.113 C 
BRANCH  12  13
HETATM   13  C   UNL     1     -52.051  46.135   5.538  1.00  0.00     0.172 C 
HETATM   14  O   UNL     1     -53.329  45.674   5.545  1.00  0.00    -0.648 OA
HETATM   15  O   UNL     1     -51.189  45.700   4.789  1.00  0.00    -0.648 OA
ENDBRANCH  12  13
ENDBRANCH  11  12
ENDBRANCH  10  11
ENDBRANCH   9  10
ENDBRANCH   5   9
ENDBRANCH   1   3
TORSDOF 6
ENDMDL
MODEL 9
REMARK VINA RESULT:      -5.8      4.297      5.821
REMARK  6 active torsions:
REMARK  status: ('A' for Active; 'I' for Inactive)
REMARK    1  A    between atoms: O_1  and  C_11 
REMARK    2  A    between atoms: C_4  and  C_5 
REMARK    3  A    between atoms: C_4  and  C_6 
REMARK    4  A    between atoms: C_5  and  C_7 
REMARK    5  A    between atoms: C_6  and  C_8 
REMARK    6  A    between atoms: C_8  and  C_12 
ROOT
HETATM    1  O   UNL     1     -53.683  51.990   9.235  1.00  0.00    -0.361 OA
HETATM    2  H   UNL     1     -53.765  51.994   8.302  1.00  0.00     0.217 HD
ENDROOT
BRANCH   1   3
HETATM    3  C   UNL     1     -53.635  50.808   9.908  1.00  0.00     0.066 A 
HETATM    4  C   UNL     1     -53.741  49.603   9.213  1.00  0.00     0.043 A 
HETATM    5  C   UNL     1     -53.690  48.407   9.913  1.00  0.00    -0.056 A 
HETATM    6  C   UNL     1     -53.535  48.387  11.291  1.00  0.00     0.007 A 
HETATM    7  C   UNL     1     -53.428  49.591  11.986  1.00  0.00     0.003 A 
HETATM    8  C   UNL     1     -53.478  50.802  11.295  1.00  0.00     0.036 A 
BRANCH   5   9
HETATM    9  C   UNL     1     -53.807  47.105   9.162  1.00  0.00     0.038 C 
BRANCH   9  10
HETATM   10  C   UNL     1     -55.214  46.496   9.189  1.00  0.00     0.005 C 
BRANCH  10  11
HETATM   11  C   UNL     1     -55.223  44.998   8.854  1.00  0.00     0.011 C 
BRANCH  11  12
HETATM   12  C   UNL     1     -53.915  44.538   8.208  1.00  0.00     0.113 C 
BRANCH  12  13
HETATM   13  C   UNL     1     -53.309  43.327   8.881  1.00  0.00     0.172 C 
HETATM   14  O   UNL     1     -53.994  42.989  10.004  1.00  0.00    -0.648 OA
HETATM   15  O   UNL     1     -52.341  42.699   8.475  1.00  0.00    -0.648 OA
ENDBRANCH  12  13
ENDBRANCH  11  12
ENDBRANCH  10  11
ENDBRANCH   9  10
ENDBRANCH   5   9
ENDBRANCH   1   3
TORSDOF 6
ENDMDL
