MODEL 1
REMARK VINA RESULT:      -6.1      0.000      0.000
REMARK  3 active torsions:
REMARK  status: ('A' for Active; 'I' for Inactive)
REMARK    1  A    between atoms: C_3  and  C_4 
REMARK    2  A    between atoms: C_3  and  C_5 
REMARK    3  A    between atoms: C_5  and  C_10 
ROOT
HETATM    1  O   UNL     1      10.273   7.582   5.663  1.00  0.00    -0.648 OA
HETATM    2  O   UNL     1      11.107   5.579   4.991  1.00  0.00    -0.648 OA
HETATM    3  C   UNL     1      10.662   6.301   5.875  1.00  0.00     0.172 C 
ENDROOT
BRANCH   3   4
HETATM    4  C   UNL     1      10.521   5.874   7.316  1.00  0.00     0.117 C 
BRANCH   4   5
HETATM    5  C   UNL     1      10.976   6.975   8.281  1.00  0.00     0.049 C 
BRANCH   5   6
HETATM    6  C   UNL     1      12.438   6.953   8.570  1.00  0.00    -0.058 A 
HETATM    7  C   UNL     1      12.889   6.709   9.868  1.00  0.00     0.007 A 
HETATM    8  C   UNL     1      14.257   6.688  10.140  1.00  0.00     0.001 A 
HETATM    9  C   UNL     1      15.175   6.910   9.113  1.00  0.00     0.000 A 
HETATM   10  C   UNL     1      14.725   7.154   7.815  1.00  0.00     0.001 A 
HETATM   11  C   UNL     1      13.357   7.174   7.544  1.00  0.00     0.007 A 
ENDBRANCH   5   6
ENDBRANCH   4   5
ENDBRANCH   3   4
TORSDOF 3
ENDMDL
MODEL 2
REMARK VINA RESULT:      -6.1      0.162      1.465
REMARK  3 active torsions:
REMARK  status: ('A' for Active; 'I' for Inactive)
REMARK    1  A    between atoms: C_3  and  C_4 
REMARK    2  A    between atoms: C_3  and  C_5 
REMARK    3  A    between atoms: C_5  and  C_10 
ROOT
HETATM    1  O   UNL     1      10.166   7.615   5.755  1.00  0.00    -0.648 OA
HETATM    2  O   UNL     1      10.960   5.629   4.989  1.00  0.00    -0.648 OA
HETATM    3  C   UNL     1      10.571   6.331   5.914  1.00  0.00     0.172 C 
ENDROOT
BRANCH   3   4
HETATM    4  C   UNL     1      10.521   5.872   7.352  1.00  0.00     0.117 C 
BRANCH   4   5
HETATM    5  C   UNL     1      10.934   6.989   8.317  1.00  0.00     0.049 C 
BRANCH   5   6
HETATM    6  C   UNL     1      12.381   6.967   8.676  1.00  0.00    -0.058 A 
HETATM    7  C   UNL     1      13.346   7.210   7.697  1.00  0.00     0.007 A 
HETATM    8  C   UNL     1      14.700   7.190   8.032  1.00  0.00     0.001 A 
HETATM    9  C   UNL     1      15.090   6.926   9.345  1.00  0.00     0.000 A 
HETATM   10  C   UNL     1      14.126   6.683  10.324  1.00  0.00     0.001 A 
HETATM   11  C   UNL     1      12.772   6.704   9.989  1.00  0.00     0.007 A 
ENDBRANCH   5   6
ENDBRANCH   4   5
ENDBRANCH   3   4
TORSDOF 3
ENDMDL
MODEL 3
REMARK VINA RESULT:      -5.7      1.067      2.069
REMARK  3 active torsions:
REMARK  status: ('A' for Active; 'I' for Inactive)
REMARK    1  A    between atoms: C_3  and  C_4 
REMARK    2  A    between atoms: C_3  and  C_5 
REMARK    3  A    between atoms: C_5  and  C_10 
ROOT
HETATM    1  O   UNL     1      11.063   6.094   5.125  1.00  0.00    -0.648 OA
HETATM    2  O   UNL     1      10.102   5.086   6.920  1.00  0.00    -0.648 OA
HETATM    3  C   UNL     1      10.768   5.998   6.445  1.00  0.00     0.172 C 
ENDROOT
BRANCH   3   4
HETATM    4  C   UNL     1      11.371   7.112   7.265  1.00  0.00     0.117 C 
BRANCH   4   5
HETATM    5  C   UNL     1      12.900   7.013   7.317  1.00  0.00     0.049 C 
BRANCH   5   6
HETATM    6  C   UNL     1      13.445   6.856   8.696  1.00  0.00    -0.058 A 
HETATM    7  C   UNL     1      14.818   6.961   8.919  1.00  0.00     0.007 A 
HETATM    8  C   UNL     1      15.329   6.814  10.209  1.00  0.00     0.001 A 
HETATM    9  C   UNL     1      14.466   6.561  11.276  1.00  0.00     0.000 A 
HETATM   10  C   UNL     1      13.093   6.456  11.053  1.00  0.00     0.001 A 
HETATM   11  C   UNL     1      12.583   6.604   9.763  1.00  0.00     0.007 A 
ENDBRANCH   5   6
ENDBRANCH   4   5
ENDBRANCH   3   4
TORSDOF 3
ENDMDL
MODEL 4
REMARK VINA RESULT:      -5.7      5.264      6.460
REMARK  3 active torsions:
REMARK  status: ('A' for Active; 'I' for Inactive)
REMARK    1  A    between atoms: C_3  and  C_4 
REMARK    2  A    between atoms: C_3  and  C_5 
REMARK    3  A    between atoms: C_5  and  C_10 
ROOT
HETATM    1  O   UNL     1      12.988  13.812  12.690  1.00  0.00    -0.648 OA
HETATM    2  O   UNL     1      10.922  13.426  11.827  1.00  0.00    -0.648 OA
HETATM    3  C   UNL     1      11.964  13.006  12.316  1.00  0.00     0.172 C 
ENDROOT
BRANCH   3   4
HETATM    4  C   UNL     1      12.257  11.541  12.537  1.00  0.00     0.117 C 
BRANCH   4   5
HETATM    5  C   UNL     1      11.059  10.661  12.162  1.00  0.00     0.049 C 
BRANCH   5   6
HETATM    6  C   UNL     1      11.410   9.515  11.276  1.00  0.00    -0.058 A 
HETATM    7  C   UNL     1      10.401   8.779  10.654  1.00  0.00     0.007 A 
HETATM    8  C   UNL     1      10.728   7.707   9.824  1.00  0.00     0.001 A 
HETATM    9  C   UNL     1      12.066   7.371   9.615  1.00  0.00     0.000 A 
HETATM   10  C   UNL     1      13.075   8.106  10.236  1.00  0.00     0.001 A 
HETATM   11  C   UNL     1      12.747   9.179  11.065  1.00  0.00     0.007 A 
ENDBRANCH   5   6
ENDBRANCH   4   5
ENDBRANCH   3   4
TORSDOF 3
ENDMDL
MODEL 5
REMARK VINA RESULT:      -5.7      1.888      2.749
REMARK  3 active torsions:
REMARK  status: ('A' for Active; 'I' for Inactive)
REMARK    1  A    between atoms: C_3  and  C_4 
REMARK    2  A    between atoms: C_3  and  C_5 
REMARK    3  A    between atoms: C_5  and  C_10 
ROOT
HETATM    1  O   UNL     1       9.916   7.648   6.026  1.00  0.00    -0.648 OA
HETATM    2  O   UNL     1      10.987   5.799   5.254  1.00  0.00    -0.648 OA
HETATM    3  C   UNL     1      10.609   6.495   6.189  1.00  0.00     0.172 C 
ENDROOT
BRANCH   3   4
HETATM    4  C   UNL     1      10.892   6.178   7.638  1.00  0.00     0.117 C 
BRANCH   4   5
HETATM    5  C   UNL     1      12.150   6.896   8.139  1.00  0.00     0.049 C 
BRANCH   5   6
HETATM    6  C   UNL     1      11.908   7.781   9.314  1.00  0.00    -0.058 A 
HETATM    7  C   UNL     1      10.605   8.016   9.754  1.00  0.00     0.007 A 
HETATM    8  C   UNL     1      10.377   8.843  10.853  1.00  0.00     0.001 A 
HETATM    9  C   UNL     1      11.454   9.436  11.514  1.00  0.00     0.000 A 
HETATM   10  C   UNL     1      12.757   9.202  11.075  1.00  0.00     0.001 A 
HETATM   11  C   UNL     1      12.984   8.374   9.976  1.00  0.00     0.007 A 
ENDBRANCH   5   6
ENDBRANCH   4   5
ENDBRANCH   3   4
TORSDOF 3
ENDMDL
MODEL 6
REMARK VINA RESULT:      -5.6      1.989      2.807
REMARK  3 active torsions:
REMARK  status: ('A' for Active; 'I' for Inactive)
REMARK    1  A    between atoms: C_3  and  C_4 
REMARK    2  A    between atoms: C_3  and  C_5 
REMARK    3  A    between atoms: C_5  and  C_10 
ROOT
HETATM    1  O   UNL     1      10.062   7.595   5.960  1.00  0.00    -0.648 OA
HETATM    2  O   UNL     1      11.115   5.727   5.210  1.00  0.00    -0.648 OA
HETATM    3  C   UNL     1      10.935   6.565   6.085  1.00  0.00     0.172 C 
ENDROOT
BRANCH   3   4
HETATM    4  C   UNL     1      11.678   6.580   7.399  1.00  0.00     0.117 C 
BRANCH   4   5
HETATM    5  C   UNL     1      10.730   6.789   8.584  1.00  0.00     0.049 C 
BRANCH   5   6
HETATM    6  C   UNL     1      11.234   7.766   9.591  1.00  0.00    -0.058 A 
HETATM    7  C   UNL     1      12.607   7.928   9.779  1.00  0.00     0.007 A 
HETATM    8  C   UNL     1      13.081   8.842  10.721  1.00  0.00     0.001 A 
HETATM    9  C   UNL     1      12.180   9.595  11.475  1.00  0.00     0.000 A 
HETATM   10  C   UNL     1      10.807   9.434  11.287  1.00  0.00     0.001 A 
HETATM   11  C   UNL     1      10.335   8.520  10.345  1.00  0.00     0.007 A 
ENDBRANCH   5   6
ENDBRANCH   4   5
ENDBRANCH   3   4
TORSDOF 3
ENDMDL
MODEL 7
REMARK VINA RESULT:      -5.5      2.566      3.501
REMARK  3 active torsions:
REMARK  status: ('A' for Active; 'I' for Inactive)
REMARK    1  A    between atoms: C_3  and  C_4 
REMARK    2  A    between atoms: C_3  and  C_5 
REMARK    3  A    between atoms: C_5  and  C_10 
ROOT
HETATM    1  O   UNL     1      10.790   9.904  11.134  1.00  0.00    -0.648 OA
HETATM    2  O   UNL     1       9.621   8.410   9.884  1.00  0.00    -0.648 OA
HETATM    3  C   UNL     1      10.454   8.647  10.750  1.00  0.00     0.172 C 
ENDROOT
BRANCH   3   4
HETATM    4  C   UNL     1      11.238   7.581  11.476  1.00  0.00     0.117 C 
BRANCH   4   5
HETATM    5  C   UNL     1      11.571   6.399  10.559  1.00  0.00     0.049 C 
BRANCH   5   6
HETATM    6  C   UNL     1      12.692   6.670   9.614  1.00  0.00    -0.058 A 
HETATM    7  C   UNL     1      14.004   6.724  10.086  1.00  0.00     0.007 A 
HETATM    8  C   UNL     1      15.053   6.977   9.202  1.00  0.00     0.001 A 
HETATM    9  C   UNL     1      14.791   7.176   7.847  1.00  0.00     0.000 A 
HETATM   10  C   UNL     1      13.479   7.122   7.375  1.00  0.00     0.001 A 
HETATM   11  C   UNL     1      12.430   6.868   8.258  1.00  0.00     0.007 A 
ENDBRANCH   5   6
ENDBRANCH   4   5
ENDBRANCH   3   4
TORSDOF 3
ENDMDL
MODEL 8
REMARK VINA RESULT:      -5.5      1.082      1.564
REMARK  3 active torsions:
REMARK  status: ('A' for Active; 'I' for Inactive)
REMARK    1  A    between atoms: C_3  and  C_4 
REMARK    2  A    between atoms: C_3  and  C_5 
REMARK    3  A    between atoms: C_5  and  C_10 
ROOT
HETATM    1  O   UNL     1      10.022   6.781   7.273  1.00  0.00    -0.648 OA
HETATM    2  O   UNL     1      10.870   5.973   5.326  1.00  0.00    -0.648 OA
HETATM    3  C   UNL     1      11.040   6.421   6.454  1.00  0.00     0.172 C 
ENDROOT
BRANCH   3   4
HETATM    4  C   UNL     1      12.400   6.661   7.065  1.00  0.00     0.117 C 
BRANCH   4   5
HETATM    5  C   UNL     1      12.290   7.253   8.475  1.00  0.00     0.049 C 
BRANCH   5   6
HETATM    6  C   UNL     1      13.465   6.956   9.343  1.00  0.00    -0.058 A 
HETATM    7  C   UNL     1      13.273   6.588  10.675  1.00  0.00     0.007 A 
HETATM    8  C   UNL     1      14.371   6.310  11.489  1.00  0.00     0.001 A 
HETATM    9  C   UNL     1      15.663   6.400  10.969  1.00  0.00     0.000 A 
HETATM   10  C   UNL     1      15.856   6.768   9.638  1.00  0.00     0.001 A 
HETATM   11  C   UNL     1      14.757   7.045   8.825  1.00  0.00     0.007 A 
ENDBRANCH   5   6
ENDBRANCH   4   5
ENDBRANCH   3   4
TORSDOF 3
ENDMDL
MODEL 9
REMARK VINA RESULT:      -5.4      1.589      2.711
REMARK  3 active torsions:
REMARK  status: ('A' for Active; 'I' for Inactive)
REMARK    1  A    between atoms: C_3  and  C_4 
REMARK    2  A    between atoms: C_3  and  C_5 
REMARK    3  A    between atoms: C_5  and  C_10 
ROOT
HETATM    1  O   UNL     1       9.834   7.544   9.243  1.00  0.00    -0.648 OA
HETATM    2  O   UNL     1      10.132   6.674   7.165  1.00  0.00    -0.648 OA
HETATM    3  C   UNL     1      10.566   6.926   8.283  1.00  0.00     0.172 C 
ENDROOT
BRANCH   3   4
HETATM    4  C   UNL     1      11.974   6.613   8.727  1.00  0.00     0.117 C 
BRANCH   4   5
HETATM    5  C   UNL     1      13.015   7.297   7.833  1.00  0.00     0.049 C 
BRANCH   5   6
HETATM    6  C   UNL     1      14.418   7.128   8.309  1.00  0.00    -0.058 A 
HETATM    7  C   UNL     1      15.479   7.262   7.412  1.00  0.00     0.007 A 
HETATM    8  C   UNL     1      16.792   7.105   7.856  1.00  0.00     0.001 A 
HETATM    9  C   UNL     1      17.044   6.812   9.197  1.00  0.00     0.000 A 
HETATM   10  C   UNL     1      15.984   6.677  10.093  1.00  0.00     0.001 A 
HETATM   11  C   UNL     1      14.671   6.836   9.649  1.00  0.00     0.007 A 
ENDBRANCH   5   6
ENDBRANCH   4   5
ENDBRANCH   3   4
TORSDOF 3
ENDMDL
