MODEL 1
REMARK VINA RESULT:      -6.1      0.000      0.000
REMARK  3 active torsions:
REMARK  status: ('A' for Active; 'I' for Inactive)
REMARK    1  A    between atoms: C_3  and  C_4 
REMARK    2  A    between atoms: C_3  and  C_5 
REMARK    3  A    between atoms: C_5  and  C_10 
ROOT
HETATM    1  O   UNL     1      12.696   4.864   7.949  1.00  0.00    -0.648 OA
HETATM    2  O   UNL     1      13.988   3.006   7.744  1.00  0.00    -0.648 OA
HETATM    3  C   UNL     1      13.281   3.738   8.427  1.00  0.00     0.172 C 
ENDROOT
BRANCH   3   4
HETATM    4  C   UNL     1      12.996   3.502   9.890  1.00  0.00     0.117 C 
BRANCH   4   5
HETATM    5  C   UNL     1      13.060   4.804  10.697  1.00  0.00     0.049 C 
BRANCH   5   6
HETATM    6  C   UNL     1      14.431   5.152  11.167  1.00  0.00    -0.058 A 
HETATM    7  C   UNL     1      14.695   5.252  12.534  1.00  0.00     0.007 A 
HETATM    8  C   UNL     1      15.978   5.577  12.975  1.00  0.00     0.001 A 
HETATM    9  C   UNL     1      16.997   5.802  12.049  1.00  0.00     0.000 A 
HETATM   10  C   UNL     1      16.734   5.703  10.683  1.00  0.00     0.001 A 
HETATM   11  C   UNL     1      15.451   5.377  10.243  1.00  0.00     0.007 A 
ENDBRANCH   5   6
ENDBRANCH   4   5
ENDBRANCH   3   4
TORSDOF 3
ENDMDL
MODEL 2
REMARK VINA RESULT:      -6.1      0.533      1.564
REMARK  3 active torsions:
REMARK  status: ('A' for Active; 'I' for Inactive)
REMARK    1  A    between atoms: C_3  and  C_4 
REMARK    2  A    between atoms: C_3  and  C_5 
REMARK    3  A    between atoms: C_5  and  C_10 
ROOT
HETATM    1  O   UNL     1      12.909   4.806   7.852  1.00  0.00    -0.648 OA
HETATM    2  O   UNL     1      14.083   2.868   7.693  1.00  0.00    -0.648 OA
HETATM    3  C   UNL     1      13.386   3.636   8.344  1.00  0.00     0.172 C 
ENDROOT
BRANCH   3   4
HETATM    4  C   UNL     1      12.994   3.400   9.783  1.00  0.00     0.117 C 
BRANCH   4   5
HETATM    5  C   UNL     1      12.875   4.715  10.561  1.00  0.00     0.049 C 
BRANCH   5   6
HETATM    6  C   UNL     1      14.079   5.039  11.378  1.00  0.00    -0.058 A 
HETATM    7  C   UNL     1      15.289   5.338  10.750  1.00  0.00     0.007 A 
HETATM    8  C   UNL     1      16.416   5.641  11.514  1.00  0.00     0.001 A 
HETATM    9  C   UNL     1      16.333   5.647  12.907  1.00  0.00     0.000 A 
HETATM   10  C   UNL     1      15.125   5.348  13.535  1.00  0.00     0.001 A 
HETATM   11  C   UNL     1      13.998   5.046  12.771  1.00  0.00     0.007 A 
ENDBRANCH   5   6
ENDBRANCH   4   5
ENDBRANCH   3   4
TORSDOF 3
ENDMDL
MODEL 3
REMARK VINA RESULT:      -5.8      1.108      2.121
REMARK  3 active torsions:
REMARK  status: ('A' for Active; 'I' for Inactive)
REMARK    1  A    between atoms: C_3  and  C_4 
REMARK    2  A    between atoms: C_3  and  C_5 
REMARK    3  A    between atoms: C_5  and  C_10 
ROOT
HETATM    1  O   UNL     1      12.849   2.345   9.568  1.00  0.00    -0.648 OA
HETATM    2  O   UNL     1      13.987   3.116   7.759  1.00  0.00    -0.648 OA
HETATM    3  C   UNL     1      13.475   3.313   8.855  1.00  0.00     0.172 C 
ENDROOT
BRANCH   3   4
HETATM    4  C   UNL     1      13.444   4.660   9.537  1.00  0.00     0.117 C 
BRANCH   4   5
HETATM    5  C   UNL     1      14.842   5.102   9.981  1.00  0.00     0.049 C 
BRANCH   5   6
HETATM    6  C   UNL     1      14.993   5.219  11.460  1.00  0.00    -0.058 A 
HETATM    7  C   UNL     1      16.222   5.587  12.008  1.00  0.00     0.007 A 
HETATM    8  C   UNL     1      16.364   5.698  13.392  1.00  0.00     0.001 A 
HETATM    9  C   UNL     1      15.277   5.440  14.226  1.00  0.00     0.000 A 
HETATM   10  C   UNL     1      14.048   5.071  13.679  1.00  0.00     0.001 A 
HETATM   11  C   UNL     1      13.907   4.962  12.295  1.00  0.00     0.007 A 
ENDBRANCH   5   6
ENDBRANCH   4   5
ENDBRANCH   3   4
TORSDOF 3
ENDMDL
MODEL 4
REMARK VINA RESULT:      -5.7      5.161      6.343
REMARK  3 active torsions:
REMARK  status: ('A' for Active; 'I' for Inactive)
REMARK    1  A    between atoms: C_3  and  C_4 
REMARK    2  A    between atoms: C_3  and  C_5 
REMARK    3  A    between atoms: C_5  and  C_10 
ROOT
HETATM    1  O   UNL     1      13.094  12.427  13.963  1.00  0.00    -0.648 OA
HETATM    2  O   UNL     1      11.310  11.630  12.804  1.00  0.00    -0.648 OA
HETATM    3  C   UNL     1      12.270  11.437  13.539  1.00  0.00     0.172 C 
ENDROOT
BRANCH   3   4
HETATM    4  C   UNL     1      12.681  10.074  14.042  1.00  0.00     0.117 C 
BRANCH   4   5
HETATM    5  C   UNL     1      11.834   8.960  13.417  1.00  0.00     0.049 C 
BRANCH   5   6
HETATM    6  C   UNL     1      12.621   7.756  13.023  1.00  0.00    -0.058 A 
HETATM    7  C   UNL     1      11.974   6.649  12.473  1.00  0.00     0.007 A 
HETATM    8  C   UNL     1      12.709   5.523  12.104  1.00  0.00     0.001 A 
HETATM    9  C   UNL     1      14.092   5.504  12.285  1.00  0.00     0.000 A 
HETATM   10  C   UNL     1      14.740   6.610  12.836  1.00  0.00     0.001 A 
HETATM   11  C   UNL     1      14.004   7.736  13.204  1.00  0.00     0.007 A 
ENDBRANCH   5   6
ENDBRANCH   4   5
ENDBRANCH   3   4
TORSDOF 3
ENDMDL
MODEL 5
REMARK VINA RESULT:      -5.7      2.212      3.111
REMARK  3 active torsions:
REMARK  status: ('A' for Active; 'I' for Inactive)
REMARK    1  A    between atoms: C_3  and  C_4 
REMARK    2  A    between atoms: C_3  and  C_5 
REMARK    3  A    between atoms: C_5  and  C_10 
ROOT
HETATM    1  O   UNL     1      12.367   4.243   9.424  1.00  0.00    -0.648 OA
HETATM    2  O   UNL     1      14.175   3.610   8.202  1.00  0.00    -0.648 OA
HETATM    3  C   UNL     1      13.685   4.276   9.106  1.00  0.00     0.172 C 
ENDROOT
BRANCH   3   4
HETATM    4  C   UNL     1      14.472   5.241   9.959  1.00  0.00     0.117 C 
BRANCH   4   5
HETATM    5  C   UNL     1      14.257   4.980  11.454  1.00  0.00     0.049 C 
BRANCH   5   6
HETATM    6  C   UNL     1      13.610   6.114  12.174  1.00  0.00    -0.058 A 
HETATM    7  C   UNL     1      14.393   7.042  12.862  1.00  0.00     0.007 A 
HETATM    8  C   UNL     1      13.788   8.103  13.535  1.00  0.00     0.001 A 
HETATM    9  C   UNL     1      12.400   8.236  13.521  1.00  0.00     0.000 A 
HETATM   10  C   UNL     1      11.616   7.309  12.835  1.00  0.00     0.001 A 
HETATM   11  C   UNL     1      12.222   6.249  12.161  1.00  0.00     0.007 A 
ENDBRANCH   5   6
ENDBRANCH   4   5
ENDBRANCH   3   4
TORSDOF 3
ENDMDL
MODEL 6
REMARK VINA RESULT:      -5.6      1.104      1.529
REMARK  3 active torsions:
REMARK  status: ('A' for Active; 'I' for Inactive)
REMARK    1  A    between atoms: C_3  and  C_4 
REMARK    2  A    between atoms: C_3  and  C_5 
REMARK    3  A    between atoms: C_5  and  C_10 
ROOT
HETATM    1  O   UNL     1      12.305   4.264   9.613  1.00  0.00    -0.648 OA
HETATM    2  O   UNL     1      13.620   3.527   7.914  1.00  0.00    -0.648 OA
HETATM    3  C   UNL     1      13.501   4.069   9.006  1.00  0.00     0.172 C 
ENDROOT
BRANCH   3   4
HETATM    4  C   UNL     1      14.661   4.619   9.801  1.00  0.00     0.117 C 
BRANCH   4   5
HETATM    5  C   UNL     1      14.221   5.094  11.190  1.00  0.00     0.049 C 
BRANCH   5   6
HETATM    6  C   UNL     1      15.355   5.380  12.114  1.00  0.00    -0.058 A 
HETATM    7  C   UNL     1      15.153   5.357  13.495  1.00  0.00     0.007 A 
HETATM    8  C   UNL     1      16.214   5.623  14.360  1.00  0.00     0.001 A 
HETATM    9  C   UNL     1      17.478   5.913  13.845  1.00  0.00     0.000 A 
HETATM   10  C   UNL     1      17.681   5.937  12.465  1.00  0.00     0.001 A 
HETATM   11  C   UNL     1      16.619   5.669  11.600  1.00  0.00     0.007 A 
ENDBRANCH   5   6
ENDBRANCH   4   5
ENDBRANCH   3   4
TORSDOF 3
ENDMDL
MODEL 7
REMARK VINA RESULT:      -5.5      2.555      3.462
REMARK  3 active torsions:
REMARK  status: ('A' for Active; 'I' for Inactive)
REMARK    1  A    between atoms: C_3  and  C_4 
REMARK    2  A    between atoms: C_3  and  C_5 
REMARK    3  A    between atoms: C_5  and  C_10 
ROOT
HETATM    1  O   UNL     1      11.952   8.108  12.871  1.00  0.00    -0.648 OA
HETATM    2  O   UNL     1      11.220   6.302  11.703  1.00  0.00    -0.648 OA
HETATM    3  C   UNL     1      11.850   6.776  12.641  1.00  0.00     0.172 C 
ENDROOT
BRANCH   3   4
HETATM    4  C   UNL     1      12.620   5.946  13.640  1.00  0.00     0.117 C 
BRANCH   4   5
HETATM    5  C   UNL     1      13.293   4.740  12.975  1.00  0.00     0.049 C 
BRANCH   5   6
HETATM    6  C   UNL     1      14.540   5.082  12.233  1.00  0.00    -0.058 A 
HETATM    7  C   UNL     1      15.679   5.484  12.932  1.00  0.00     0.007 A 
HETATM    8  C   UNL     1      16.847   5.804  12.239  1.00  0.00     0.001 A 
HETATM    9  C   UNL     1      16.875   5.721  10.847  1.00  0.00     0.000 A 
HETATM   10  C   UNL     1      15.737   5.320  10.148  1.00  0.00     0.001 A 
HETATM   11  C   UNL     1      14.570   4.999  10.841  1.00  0.00     0.007 A 
ENDBRANCH   5   6
ENDBRANCH   4   5
ENDBRANCH   3   4
TORSDOF 3
ENDMDL
MODEL 8
REMARK VINA RESULT:      -5.5      2.469      3.310
REMARK  3 active torsions:
REMARK  status: ('A' for Active; 'I' for Inactive)
REMARK    1  A    between atoms: C_3  and  C_4 
REMARK    2  A    between atoms: C_3  and  C_5 
REMARK    3  A    between atoms: C_5  and  C_10 
ROOT
HETATM    1  O   UNL     1      15.123   4.775   9.523  1.00  0.00    -0.648 OA
HETATM    2  O   UNL     1      13.239   4.329   8.333  1.00  0.00    -0.648 OA
HETATM    3  C   UNL     1      13.801   4.496   9.409  1.00  0.00     0.172 C 
ENDROOT
BRANCH   3   4
HETATM    4  C   UNL     1      13.107   4.381  10.745  1.00  0.00     0.117 C 
BRANCH   4   5
HETATM    5  C   UNL     1      13.976   4.929  11.883  1.00  0.00     0.049 C 
BRANCH   5   6
HETATM    6  C   UNL     1      13.445   6.181  12.494  1.00  0.00    -0.058 A 
HETATM    7  C   UNL     1      12.104   6.526  12.325  1.00  0.00     0.007 A 
HETATM    8  C   UNL     1      11.607   7.697  12.896  1.00  0.00     0.001 A 
HETATM    9  C   UNL     1      12.451   8.524  13.637  1.00  0.00     0.000 A 
HETATM   10  C   UNL     1      13.792   8.180  13.807  1.00  0.00     0.001 A 
HETATM   11  C   UNL     1      14.289   7.008  13.236  1.00  0.00     0.007 A 
ENDBRANCH   5   6
ENDBRANCH   4   5
ENDBRANCH   3   4
TORSDOF 3
ENDMDL
MODEL 9
REMARK VINA RESULT:      -5.5      1.870      3.129
REMARK  3 active torsions:
REMARK  status: ('A' for Active; 'I' for Inactive)
REMARK    1  A    between atoms: C_3  and  C_4 
REMARK    2  A    between atoms: C_3  and  C_5 
REMARK    3  A    between atoms: C_5  and  C_10 
ROOT
HETATM    1  O   UNL     1      14.145   3.229   7.836  1.00  0.00    -0.648 OA
HETATM    2  O   UNL     1      12.704   4.985   7.852  1.00  0.00    -0.648 OA
HETATM    3  C   UNL     1      13.250   4.055   8.432  1.00  0.00     0.172 C 
ENDROOT
BRANCH   3   4
HETATM    4  C   UNL     1      12.977   3.686   9.870  1.00  0.00     0.117 C 
BRANCH   4   5
HETATM    5  C   UNL     1      13.309   4.839  10.824  1.00  0.00     0.049 C 
BRANCH   5   6
HETATM    6  C   UNL     1      13.213   4.472  12.266  1.00  0.00    -0.058 A 
HETATM    7  C   UNL     1      14.042   5.095  13.200  1.00  0.00     0.007 A 
HETATM    8  C   UNL     1      13.953   4.753  14.550  1.00  0.00     0.001 A 
HETATM    9  C   UNL     1      13.035   3.787  14.965  1.00  0.00     0.000 A 
HETATM   10  C   UNL     1      12.207   3.164  14.031  1.00  0.00     0.001 A 
HETATM   11  C   UNL     1      12.296   3.508  12.682  1.00  0.00     0.007 A 
ENDBRANCH   5   6
ENDBRANCH   4   5
ENDBRANCH   3   4
TORSDOF 3
ENDMDL
