MODEL 1
REMARK VINA RESULT:      -6.0      0.000      0.000
REMARK  3 active torsions:
REMARK  status: ('A' for Active; 'I' for Inactive)
REMARK    1  A    between atoms: C_3  and  C_4 
REMARK    2  A    between atoms: C_3  and  C_5 
REMARK    3  A    between atoms: C_5  and  C_10 
ROOT
HETATM    1  O   UNL     1      10.403   7.603   5.698  1.00  0.00    -0.648 OA
HETATM    2  O   UNL     1      10.974   5.540   4.937  1.00  0.00    -0.648 OA
HETATM    3  C   UNL     1      10.652   6.280   5.859  1.00  0.00     0.172 C 
ENDROOT
BRANCH   3   4
HETATM    4  C   UNL     1      10.523   5.827   7.293  1.00  0.00     0.117 C 
BRANCH   4   5
HETATM    5  C   UNL     1      10.904   6.941   8.275  1.00  0.00     0.049 C 
BRANCH   5   6
HETATM    6  C   UNL     1      12.335   6.910   8.692  1.00  0.00    -0.058 A 
HETATM    7  C   UNL     1      12.669   6.645  10.021  1.00  0.00     0.007 A 
HETATM    8  C   UNL     1      14.008   6.616  10.412  1.00  0.00     0.001 A 
HETATM    9  C   UNL     1      15.013   6.851   9.473  1.00  0.00     0.000 A 
HETATM   10  C   UNL     1      14.680   7.116   8.145  1.00  0.00     0.001 A 
HETATM   11  C   UNL     1      13.341   7.144   7.755  1.00  0.00     0.007 A 
ENDBRANCH   5   6
ENDBRANCH   4   5
ENDBRANCH   3   4
TORSDOF 3
ENDMDL
MODEL 2
REMARK VINA RESULT:      -5.9      0.241      1.754
REMARK  3 active torsions:
REMARK  status: ('A' for Active; 'I' for Inactive)
REMARK    1  A    between atoms: C_3  and  C_4 
REMARK    2  A    between atoms: C_3  and  C_5 
REMARK    3  A    between atoms: C_5  and  C_10 
ROOT
HETATM    1  O   UNL     1      11.291   5.665   5.069  1.00  0.00    -0.648 OA
HETATM    2  O   UNL     1      10.187   7.565   5.645  1.00  0.00    -0.648 OA
HETATM    3  C   UNL     1      10.660   6.478   5.952  1.00  0.00     0.172 C 
ENDROOT
BRANCH   3   4
HETATM    4  C   UNL     1      10.576   5.887   7.339  1.00  0.00     0.117 C 
BRANCH   4   5
HETATM    5  C   UNL     1      10.994   6.898   8.412  1.00  0.00     0.049 C 
BRANCH   5   6
HETATM    6  C   UNL     1      12.459   6.906   8.691  1.00  0.00    -0.058 A 
HETATM    7  C   UNL     1      13.364   7.152   7.658  1.00  0.00     0.007 A 
HETATM    8  C   UNL     1      14.735   7.160   7.918  1.00  0.00     0.001 A 
HETATM    9  C   UNL     1      15.200   6.922   9.211  1.00  0.00     0.000 A 
HETATM   10  C   UNL     1      14.296   6.675  10.244  1.00  0.00     0.001 A 
HETATM   11  C   UNL     1      12.925   6.668   9.983  1.00  0.00     0.007 A 
ENDBRANCH   5   6
ENDBRANCH   4   5
ENDBRANCH   3   4
TORSDOF 3
ENDMDL
MODEL 3
REMARK VINA RESULT:      -5.9      1.029      1.952
REMARK  3 active torsions:
REMARK  status: ('A' for Active; 'I' for Inactive)
REMARK    1  A    between atoms: C_3  and  C_4 
REMARK    2  A    between atoms: C_3  and  C_5 
REMARK    3  A    between atoms: C_5  and  C_10 
ROOT
HETATM    1  O   UNL     1      11.137   5.857   5.102  1.00  0.00    -0.648 OA
HETATM    2  O   UNL     1      10.039   5.059   6.924  1.00  0.00    -0.648 OA
HETATM    3  C   UNL     1      10.744   5.912   6.398  1.00  0.00     0.172 C 
ENDROOT
BRANCH   3   4
HETATM    4  C   UNL     1      11.292   7.115   7.128  1.00  0.00     0.117 C 
BRANCH   4   5
HETATM    5  C   UNL     1      11.783   6.749   8.534  1.00  0.00     0.049 C 
BRANCH   5   6
HETATM    6  C   UNL     1      13.260   6.860   8.701  1.00  0.00    -0.058 A 
HETATM    7  C   UNL     1      14.068   7.136   7.597  1.00  0.00     0.007 A 
HETATM    8  C   UNL     1      15.450   7.241   7.753  1.00  0.00     0.001 A 
HETATM    9  C   UNL     1      16.025   7.069   9.012  1.00  0.00     0.000 A 
HETATM   10  C   UNL     1      15.218   6.792  10.116  1.00  0.00     0.001 A 
HETATM   11  C   UNL     1      13.836   6.689   9.960  1.00  0.00     0.007 A 
ENDBRANCH   5   6
ENDBRANCH   4   5
ENDBRANCH   3   4
TORSDOF 3
ENDMDL
MODEL 4
REMARK VINA RESULT:      -5.7      1.872      2.706
REMARK  3 active torsions:
REMARK  status: ('A' for Active; 'I' for Inactive)
REMARK    1  A    between atoms: C_3  and  C_4 
REMARK    2  A    between atoms: C_3  and  C_5 
REMARK    3  A    between atoms: C_5  and  C_10 
ROOT
HETATM    1  O   UNL     1      10.244   7.722   5.733  1.00  0.00    -0.648 OA
HETATM    2  O   UNL     1      11.063   5.666   5.217  1.00  0.00    -0.648 OA
HETATM    3  C   UNL     1      10.714   6.491   6.053  1.00  0.00     0.172 C 
ENDROOT
BRANCH   3   4
HETATM    4  C   UNL     1      10.790   6.259   7.543  1.00  0.00     0.117 C 
BRANCH   4   5
HETATM    5  C   UNL     1      12.080   6.834   8.140  1.00  0.00     0.049 C 
BRANCH   5   6
HETATM    6  C   UNL     1      11.851   7.748   9.295  1.00  0.00    -0.058 A 
HETATM    7  C   UNL     1      12.930   8.401   9.892  1.00  0.00     0.007 A 
HETATM    8  C   UNL     1      12.717   9.258  10.973  1.00  0.00     0.001 A 
HETATM    9  C   UNL     1      11.424   9.460  11.457  1.00  0.00     0.000 A 
HETATM   10  C   UNL     1      10.345   8.808  10.861  1.00  0.00     0.001 A 
HETATM   11  C   UNL     1      10.559   7.953   9.779  1.00  0.00     0.007 A 
ENDBRANCH   5   6
ENDBRANCH   4   5
ENDBRANCH   3   4
TORSDOF 3
ENDMDL
MODEL 5
REMARK VINA RESULT:      -5.7      1.884      2.604
REMARK  3 active torsions:
REMARK  status: ('A' for Active; 'I' for Inactive)
REMARK    1  A    between atoms: C_3  and  C_4 
REMARK    2  A    between atoms: C_3  and  C_5 
REMARK    3  A    between atoms: C_5  and  C_10 
ROOT
HETATM    1  O   UNL     1      10.246   7.677   5.711  1.00  0.00    -0.648 OA
HETATM    2  O   UNL     1      11.142   5.636   5.271  1.00  0.00    -0.648 OA
HETATM    3  C   UNL     1      10.750   6.473   6.076  1.00  0.00     0.172 C 
ENDROOT
BRANCH   3   4
HETATM    4  C   UNL     1      10.806   6.287   7.573  1.00  0.00     0.117 C 
BRANCH   4   5
HETATM    5  C   UNL     1      12.100   6.855   8.167  1.00  0.00     0.049 C 
BRANCH   5   6
HETATM    6  C   UNL     1      11.879   7.767   9.325  1.00  0.00    -0.058 A 
HETATM    7  C   UNL     1      10.585   8.000   9.793  1.00  0.00     0.007 A 
HETATM    8  C   UNL     1      10.378   8.852  10.878  1.00  0.00     0.001 A 
HETATM    9  C   UNL     1      11.465   9.472  11.495  1.00  0.00     0.000 A 
HETATM   10  C   UNL     1      12.758   9.240  11.028  1.00  0.00     0.001 A 
HETATM   11  C   UNL     1      12.965   8.386   9.944  1.00  0.00     0.007 A 
ENDBRANCH   5   6
ENDBRANCH   4   5
ENDBRANCH   3   4
TORSDOF 3
ENDMDL
MODEL 6
REMARK VINA RESULT:      -5.7      1.058      1.749
REMARK  3 active torsions:
REMARK  status: ('A' for Active; 'I' for Inactive)
REMARK    1  A    between atoms: C_3  and  C_4 
REMARK    2  A    between atoms: C_3  and  C_5 
REMARK    3  A    between atoms: C_5  and  C_10 
ROOT
HETATM    1  O   UNL     1      10.064   5.218   6.967  1.00  0.00    -0.648 OA
HETATM    2  O   UNL     1      11.210   5.894   5.125  1.00  0.00    -0.648 OA
HETATM    3  C   UNL     1      10.921   6.036   6.307  1.00  0.00     0.172 C 
ENDROOT
BRANCH   3   4
HETATM    4  C   UNL     1      11.452   7.153   7.173  1.00  0.00     0.117 C 
BRANCH   4   5
HETATM    5  C   UNL     1      12.967   7.038   7.380  1.00  0.00     0.049 C 
BRANCH   5   6
HETATM    6  C   UNL     1      13.365   6.847   8.803  1.00  0.00    -0.058 A 
HETATM    7  C   UNL     1      12.392   6.596   9.772  1.00  0.00     0.007 A 
HETATM    8  C   UNL     1      12.764   6.417  11.105  1.00  0.00     0.001 A 
HETATM    9  C   UNL     1      14.109   6.488  11.469  1.00  0.00     0.000 A 
HETATM   10  C   UNL     1      15.082   6.738  10.501  1.00  0.00     0.001 A 
HETATM   11  C   UNL     1      14.709   6.917   9.169  1.00  0.00     0.007 A 
ENDBRANCH   5   6
ENDBRANCH   4   5
ENDBRANCH   3   4
TORSDOF 3
ENDMDL
MODEL 7
REMARK VINA RESULT:      -5.6      5.141      6.382
REMARK  3 active torsions:
REMARK  status: ('A' for Active; 'I' for Inactive)
REMARK    1  A    between atoms: C_3  and  C_4 
REMARK    2  A    between atoms: C_3  and  C_5 
REMARK    3  A    between atoms: C_5  and  C_10 
ROOT
HETATM    1  O   UNL     1      10.902  13.252  11.814  1.00  0.00    -0.648 OA
HETATM    2  O   UNL     1      12.942  13.687  12.713  1.00  0.00    -0.648 OA
HETATM    3  C   UNL     1      12.084  12.885  12.366  1.00  0.00     0.172 C 
ENDROOT
BRANCH   3   4
HETATM    4  C   UNL     1      12.214  11.390  12.537  1.00  0.00     0.117 C 
BRANCH   4   5
HETATM    5  C   UNL     1      10.993  10.648  11.981  1.00  0.00     0.049 C 
BRANCH   5   6
HETATM    6  C   UNL     1      11.340   9.454  11.159  1.00  0.00    -0.058 A 
HETATM    7  C   UNL     1      12.674   9.070  11.015  1.00  0.00     0.007 A 
HETATM    8  C   UNL     1      12.999   7.952  10.246  1.00  0.00     0.001 A 
HETATM    9  C   UNL     1      11.990   7.218   9.622  1.00  0.00     0.000 A 
HETATM   10  C   UNL     1      10.657   7.601   9.766  1.00  0.00     0.001 A 
HETATM   11  C   UNL     1      10.332   8.718  10.536  1.00  0.00     0.007 A 
ENDBRANCH   5   6
ENDBRANCH   4   5
ENDBRANCH   3   4
TORSDOF 3
ENDMDL
MODEL 8
REMARK VINA RESULT:      -5.6      5.148      6.337
REMARK  3 active torsions:
REMARK  status: ('A' for Active; 'I' for Inactive)
REMARK    1  A    between atoms: C_3  and  C_4 
REMARK    2  A    between atoms: C_3  and  C_5 
REMARK    3  A    between atoms: C_5  and  C_10 
ROOT
HETATM    1  O   UNL     1      12.979  13.662  12.710  1.00  0.00    -0.648 OA
HETATM    2  O   UNL     1      10.907  13.376  11.821  1.00  0.00    -0.648 OA
HETATM    3  C   UNL     1      11.926  12.905  12.311  1.00  0.00     0.172 C 
ENDROOT
BRANCH   3   4
HETATM    4  C   UNL     1      12.158  11.426  12.506  1.00  0.00     0.117 C 
BRANCH   4   5
HETATM    5  C   UNL     1      10.981  10.595  11.984  1.00  0.00     0.049 C 
BRANCH   5   6
HETATM    6  C   UNL     1      11.392   9.422  11.160  1.00  0.00    -0.058 A 
HETATM    7  C   UNL     1      10.426   8.644  10.522  1.00  0.00     0.007 A 
HETATM    8  C   UNL     1      10.810   7.547   9.751  1.00  0.00     0.001 A 
HETATM    9  C   UNL     1      12.162   7.228   9.617  1.00  0.00     0.000 A 
HETATM   10  C   UNL     1      13.128   8.006  10.255  1.00  0.00     0.001 A 
HETATM   11  C   UNL     1      12.744   9.103  11.025  1.00  0.00     0.007 A 
ENDBRANCH   5   6
ENDBRANCH   4   5
ENDBRANCH   3   4
TORSDOF 3
ENDMDL
MODEL 9
REMARK VINA RESULT:      -5.4      2.631      3.572
REMARK  3 active torsions:
REMARK  status: ('A' for Active; 'I' for Inactive)
REMARK    1  A    between atoms: C_3  and  C_4 
REMARK    2  A    between atoms: C_3  and  C_5 
REMARK    3  A    between atoms: C_5  and  C_10 
ROOT
HETATM    1  O   UNL     1       9.598   8.382   9.895  1.00  0.00    -0.648 OA
HETATM    2  O   UNL     1      10.724   9.870  11.192  1.00  0.00    -0.648 OA
HETATM    3  C   UNL     1      10.541   8.721  10.808  1.00  0.00     0.172 C 
ENDROOT
BRANCH   3   4
HETATM    4  C   UNL     1      11.315   7.531  11.323  1.00  0.00     0.117 C 
BRANCH   4   5
HETATM    5  C   UNL     1      11.568   6.499  10.218  1.00  0.00     0.049 C 
BRANCH   5   6
HETATM    6  C   UNL     1      12.840   6.717   9.472  1.00  0.00    -0.058 A 
HETATM    7  C   UNL     1      14.059   6.700  10.152  1.00  0.00     0.007 A 
HETATM    8  C   UNL     1      15.250   6.904   9.455  1.00  0.00     0.001 A 
HETATM    9  C   UNL     1      15.222   7.126   8.078  1.00  0.00     0.000 A 
HETATM   10  C   UNL     1      14.005   7.143   7.398  1.00  0.00     0.001 A 
HETATM   11  C   UNL     1      12.814   6.938   8.095  1.00  0.00     0.007 A 
ENDBRANCH   5   6
ENDBRANCH   4   5
ENDBRANCH   3   4
TORSDOF 3
ENDMDL
