MODEL 1
REMARK VINA RESULT:      -6.1      0.000      0.000
REMARK  3 active torsions:
REMARK  status: ('A' for Active; 'I' for Inactive)
REMARK    1  A    between atoms: C_3  and  C_4 
REMARK    2  A    between atoms: C_3  and  C_5 
REMARK    3  A    between atoms: C_5  and  C_10 
ROOT
HETATM    1  O   UNL     1      10.437   7.523   5.568  1.00  0.00    -0.648 OA
HETATM    2  O   UNL     1      11.082   5.455   4.884  1.00  0.00    -0.648 OA
HETATM    3  C   UNL     1      10.710   6.210   5.773  1.00  0.00     0.172 C 
ENDROOT
BRANCH   3   4
HETATM    4  C   UNL     1      10.537   5.792   7.213  1.00  0.00     0.117 C 
BRANCH   4   5
HETATM    5  C   UNL     1      10.893   6.927   8.180  1.00  0.00     0.049 C 
BRANCH   5   6
HETATM    6  C   UNL     1      12.314   6.908   8.630  1.00  0.00    -0.058 A 
HETATM    7  C   UNL     1      13.339   7.137   7.712  1.00  0.00     0.007 A 
HETATM    8  C   UNL     1      14.670   7.120   8.132  1.00  0.00     0.001 A 
HETATM    9  C   UNL     1      14.974   6.874   9.471  1.00  0.00     0.000 A 
HETATM   10  C   UNL     1      13.949   6.645  10.390  1.00  0.00     0.001 A 
HETATM   11  C   UNL     1      12.620   6.663   9.969  1.00  0.00     0.007 A 
ENDBRANCH   5   6
ENDBRANCH   4   5
ENDBRANCH   3   4
TORSDOF 3
ENDMDL
MODEL 2
REMARK VINA RESULT:      -5.9      0.863      1.792
REMARK  3 active torsions:
REMARK  status: ('A' for Active; 'I' for Inactive)
REMARK    1  A    between atoms: C_3  and  C_4 
REMARK    2  A    between atoms: C_3  and  C_5 
REMARK    3  A    between atoms: C_5  and  C_10 
ROOT
HETATM    1  O   UNL     1      10.058   4.749   6.677  1.00  0.00    -0.648 OA
HETATM    2  O   UNL     1      11.305   5.437   4.906  1.00  0.00    -0.648 OA
HETATM    3  C   UNL     1      10.758   5.675   5.976  1.00  0.00     0.172 C 
ENDROOT
BRANCH   3   4
HETATM    4  C   UNL     1      10.762   7.033   6.636  1.00  0.00     0.117 C 
BRANCH   4   5
HETATM    5  C   UNL     1      11.036   6.930   8.141  1.00  0.00     0.049 C 
BRANCH   5   6
HETATM    6  C   UNL     1      12.486   6.940   8.489  1.00  0.00    -0.058 A 
HETATM    7  C   UNL     1      12.889   6.701   9.803  1.00  0.00     0.007 A 
HETATM    8  C   UNL     1      14.245   6.709  10.129  1.00  0.00     0.001 A 
HETATM    9  C   UNL     1      15.198   6.957   9.141  1.00  0.00     0.000 A 
HETATM   10  C   UNL     1      14.796   7.196   7.827  1.00  0.00     0.001 A 
HETATM   11  C   UNL     1      13.440   7.186   7.501  1.00  0.00     0.007 A 
ENDBRANCH   5   6
ENDBRANCH   4   5
ENDBRANCH   3   4
TORSDOF 3
ENDMDL
MODEL 3
REMARK VINA RESULT:      -5.9      1.012      1.221
REMARK  3 active torsions:
REMARK  status: ('A' for Active; 'I' for Inactive)
REMARK    1  A    between atoms: C_3  and  C_4 
REMARK    2  A    between atoms: C_3  and  C_5 
REMARK    3  A    between atoms: C_5  and  C_10 
ROOT
HETATM    1  O   UNL     1      10.030   5.023   6.955  1.00  0.00    -0.648 OA
HETATM    2  O   UNL     1      11.089   5.710   5.066  1.00  0.00    -0.648 OA
HETATM    3  C   UNL     1      10.782   5.894   6.237  1.00  0.00     0.172 C 
ENDROOT
BRANCH   3   4
HETATM    4  C   UNL     1      11.170   7.123   7.024  1.00  0.00     0.117 C 
BRANCH   4   5
HETATM    5  C   UNL     1      11.620   6.766   8.445  1.00  0.00     0.049 C 
BRANCH   5   6
HETATM    6  C   UNL     1      13.094   6.861   8.650  1.00  0.00    -0.058 A 
HETATM    7  C   UNL     1      13.932   7.131   7.568  1.00  0.00     0.007 A 
HETATM    8  C   UNL     1      15.312   7.221   7.758  1.00  0.00     0.001 A 
HETATM    9  C   UNL     1      15.852   7.040   9.031  1.00  0.00     0.000 A 
HETATM   10  C   UNL     1      15.015   6.770  10.113  1.00  0.00     0.001 A 
HETATM   11  C   UNL     1      13.636   6.682   9.923  1.00  0.00     0.007 A 
ENDBRANCH   5   6
ENDBRANCH   4   5
ENDBRANCH   3   4
TORSDOF 3
ENDMDL
MODEL 4
REMARK VINA RESULT:      -5.7      1.023      1.675
REMARK  3 active torsions:
REMARK  status: ('A' for Active; 'I' for Inactive)
REMARK    1  A    between atoms: C_3  and  C_4 
REMARK    2  A    between atoms: C_3  and  C_5 
REMARK    3  A    between atoms: C_5  and  C_10 
ROOT
HETATM    1  O   UNL     1      10.067   4.823   6.765  1.00  0.00    -0.648 OA
HETATM    2  O   UNL     1      11.130   5.851   5.040  1.00  0.00    -0.648 OA
HETATM    3  C   UNL     1      10.807   5.821   6.222  1.00  0.00     0.172 C 
ENDROOT
BRANCH   3   4
HETATM    4  C   UNL     1      11.161   6.900   7.216  1.00  0.00     0.117 C 
BRANCH   4   5
HETATM    5  C   UNL     1      12.678   7.055   7.369  1.00  0.00     0.049 C 
BRANCH   5   6
HETATM    6  C   UNL     1      13.163   6.862   8.766  1.00  0.00    -0.058 A 
HETATM    7  C   UNL     1      14.528   6.936   9.046  1.00  0.00     0.007 A 
HETATM    8  C   UNL     1      14.983   6.756  10.353  1.00  0.00     0.001 A 
HETATM    9  C   UNL     1      14.072   6.502  11.379  1.00  0.00     0.000 A 
HETATM   10  C   UNL     1      12.708   6.428  11.099  1.00  0.00     0.001 A 
HETATM   11  C   UNL     1      12.254   6.609   9.793  1.00  0.00     0.007 A 
ENDBRANCH   5   6
ENDBRANCH   4   5
ENDBRANCH   3   4
TORSDOF 3
ENDMDL
MODEL 5
REMARK VINA RESULT:      -5.6      2.211      3.134
REMARK  3 active torsions:
REMARK  status: ('A' for Active; 'I' for Inactive)
REMARK    1  A    between atoms: C_3  and  C_4 
REMARK    2  A    between atoms: C_3  and  C_5 
REMARK    3  A    between atoms: C_5  and  C_10 
ROOT
HETATM    1  O   UNL     1      11.607   5.924   5.516  1.00  0.00    -0.648 OA
HETATM    2  O   UNL     1      10.018   6.583   7.001  1.00  0.00    -0.648 OA
HETATM    3  C   UNL     1      11.187   6.568   6.633  1.00  0.00     0.172 C 
ENDROOT
BRANCH   3   4
HETATM    4  C   UNL     1      12.313   7.234   7.387  1.00  0.00     0.117 C 
BRANCH   4   5
HETATM    5  C   UNL     1      12.374   6.764   8.844  1.00  0.00     0.049 C 
BRANCH   5   6
HETATM    6  C   UNL     1      12.009   7.819   9.832  1.00  0.00    -0.058 A 
HETATM    7  C   UNL     1      10.668   8.145  10.039  1.00  0.00     0.007 A 
HETATM    8  C   UNL     1      10.324   9.132  10.963  1.00  0.00     0.001 A 
HETATM    9  C   UNL     1      11.322   9.794  11.680  1.00  0.00     0.000 A 
HETATM   10  C   UNL     1      12.663   9.468  11.472  1.00  0.00     0.001 A 
HETATM   11  C   UNL     1      13.005   8.481  10.549  1.00  0.00     0.007 A 
ENDBRANCH   5   6
ENDBRANCH   4   5
ENDBRANCH   3   4
TORSDOF 3
ENDMDL
MODEL 6
REMARK VINA RESULT:      -5.6      5.198      6.390
REMARK  3 active torsions:
REMARK  status: ('A' for Active; 'I' for Inactive)
REMARK    1  A    between atoms: C_3  and  C_4 
REMARK    2  A    between atoms: C_3  and  C_5 
REMARK    3  A    between atoms: C_5  and  C_10 
ROOT
HETATM    1  O   UNL     1      12.971  13.643  12.720  1.00  0.00    -0.648 OA
HETATM    2  O   UNL     1      10.878  13.375  11.879  1.00  0.00    -0.648 OA
HETATM    3  C   UNL     1      11.905  12.895  12.341  1.00  0.00     0.172 C 
ENDROOT
BRANCH   3   4
HETATM    4  C   UNL     1      12.133  11.414  12.519  1.00  0.00     0.117 C 
BRANCH   4   5
HETATM    5  C   UNL     1      10.974  10.589  11.948  1.00  0.00     0.049 C 
BRANCH   5   6
HETATM    6  C   UNL     1      11.414   9.410  11.148  1.00  0.00    -0.058 A 
HETATM    7  C   UNL     1      12.771   9.107  11.041  1.00  0.00     0.007 A 
HETATM    8  C   UNL     1      13.184   8.004  10.293  1.00  0.00     0.001 A 
HETATM    9  C   UNL     1      12.238   7.203   9.653  1.00  0.00     0.000 A 
HETATM   10  C   UNL     1      10.880   7.506   9.759  1.00  0.00     0.001 A 
HETATM   11  C   UNL     1      10.469   8.608  10.508  1.00  0.00     0.007 A 
ENDBRANCH   5   6
ENDBRANCH   4   5
ENDBRANCH   3   4
TORSDOF 3
ENDMDL
MODEL 7
REMARK VINA RESULT:      -5.6      2.329      3.212
REMARK  3 active torsions:
REMARK  status: ('A' for Active; 'I' for Inactive)
REMARK    1  A    between atoms: C_3  and  C_4 
REMARK    2  A    between atoms: C_3  and  C_5 
REMARK    3  A    between atoms: C_5  and  C_10 
ROOT
HETATM    1  O   UNL     1      11.630   6.088   5.711  1.00  0.00    -0.648 OA
HETATM    2  O   UNL     1      10.119   6.758   7.270  1.00  0.00    -0.648 OA
HETATM    3  C   UNL     1      11.278   6.680   6.879  1.00  0.00     0.172 C 
ENDROOT
BRANCH   3   4
HETATM    4  C   UNL     1      12.463   7.201   7.656  1.00  0.00     0.117 C 
BRANCH   4   5
HETATM    5  C   UNL     1      12.412   6.768   9.125  1.00  0.00     0.049 C 
BRANCH   5   6
HETATM    6  C   UNL     1      12.041   7.866  10.062  1.00  0.00    -0.058 A 
HETATM    7  C   UNL     1      13.037   8.564  10.748  1.00  0.00     0.007 A 
HETATM    8  C   UNL     1      12.691   9.593  11.624  1.00  0.00     0.001 A 
HETATM    9  C   UNL     1      11.350   9.924  11.816  1.00  0.00     0.000 A 
HETATM   10  C   UNL     1      10.354   9.227  11.131  1.00  0.00     0.001 A 
HETATM   11  C   UNL     1      10.700   8.199  10.254  1.00  0.00     0.007 A 
ENDBRANCH   5   6
ENDBRANCH   4   5
ENDBRANCH   3   4
TORSDOF 3
ENDMDL
MODEL 8
REMARK VINA RESULT:      -5.5      2.618      3.793
REMARK  3 active torsions:
REMARK  status: ('A' for Active; 'I' for Inactive)
REMARK    1  A    between atoms: C_3  and  C_4 
REMARK    2  A    between atoms: C_3  and  C_5 
REMARK    3  A    between atoms: C_5  and  C_10 
ROOT
HETATM    1  O   UNL     1      10.786   9.955  11.169  1.00  0.00    -0.648 OA
HETATM    2  O   UNL     1       9.635   8.435   9.933  1.00  0.00    -0.648 OA
HETATM    3  C   UNL     1      10.476   8.691  10.786  1.00  0.00     0.172 C 
ENDROOT
BRANCH   3   4
HETATM    4  C   UNL     1      11.296   7.643  11.498  1.00  0.00     0.117 C 
BRANCH   4   5
HETATM    5  C   UNL     1      11.598   6.446  10.588  1.00  0.00     0.049 C 
BRANCH   5   6
HETATM    6  C   UNL     1      12.698   6.696   9.614  1.00  0.00    -0.058 A 
HETATM    7  C   UNL     1      14.022   6.744  10.052  1.00  0.00     0.007 A 
HETATM    8  C   UNL     1      15.052   6.977   9.141  1.00  0.00     0.001 A 
HETATM    9  C   UNL     1      14.758   7.163   7.790  1.00  0.00     0.000 A 
HETATM   10  C   UNL     1      13.435   7.116   7.351  1.00  0.00     0.001 A 
HETATM   11  C   UNL     1      12.406   6.882   8.262  1.00  0.00     0.007 A 
ENDBRANCH   5   6
ENDBRANCH   4   5
ENDBRANCH   3   4
TORSDOF 3
ENDMDL
MODEL 9
REMARK VINA RESULT:      -5.4      1.419      2.526
REMARK  3 active torsions:
REMARK  status: ('A' for Active; 'I' for Inactive)
REMARK    1  A    between atoms: C_3  and  C_4 
REMARK    2  A    between atoms: C_3  and  C_5 
REMARK    3  A    between atoms: C_5  and  C_10 
ROOT
HETATM    1  O   UNL     1      10.050   6.861   7.390  1.00  0.00    -0.648 OA
HETATM    2  O   UNL     1      11.661   6.100   5.981  1.00  0.00    -0.648 OA
HETATM    3  C   UNL     1      11.325   6.793   6.933  1.00  0.00     0.172 C 
ENDROOT
BRANCH   3   4
HETATM    4  C   UNL     1      12.273   7.683   7.700  1.00  0.00     0.117 C 
BRANCH   4   5
HETATM    5  C   UNL     1      12.894   6.951   8.896  1.00  0.00     0.049 C 
BRANCH   5   6
HETATM    6  C   UNL     1      14.385   6.949   8.889  1.00  0.00    -0.058 A 
HETATM    7  C   UNL     1      15.087   6.698  10.069  1.00  0.00     0.007 A 
HETATM    8  C   UNL     1      16.482   6.695  10.064  1.00  0.00     0.001 A 
HETATM    9  C   UNL     1      17.175   6.944   8.879  1.00  0.00     0.000 A 
HETATM   10  C   UNL     1      16.474   7.195   7.700  1.00  0.00     0.001 A 
HETATM   11  C   UNL     1      15.079   7.197   7.705  1.00  0.00     0.007 A 
ENDBRANCH   5   6
ENDBRANCH   4   5
ENDBRANCH   3   4
TORSDOF 3
ENDMDL
