MODEL 1
REMARK VINA RESULT:      -6.1      0.000      0.000
REMARK  3 active torsions:
REMARK  status: ('A' for Active; 'I' for Inactive)
REMARK    1  A    between atoms: C_3  and  C_4 
REMARK    2  A    between atoms: C_3  and  C_5 
REMARK    3  A    between atoms: C_5  and  C_10 
ROOT
HETATM    1  O   UNL     1      12.853   4.792   7.855  1.00  0.00    -0.648 OA
HETATM    2  O   UNL     1      14.137   2.924   7.701  1.00  0.00    -0.648 OA
HETATM    3  C   UNL     1      13.402   3.656   8.352  1.00  0.00     0.172 C 
ENDROOT
BRANCH   3   4
HETATM    4  C   UNL     1      13.037   3.410   9.796  1.00  0.00     0.117 C 
BRANCH   4   5
HETATM    5  C   UNL     1      12.990   4.715  10.599  1.00  0.00     0.049 C 
BRANCH   5   6
HETATM    6  C   UNL     1      14.289   5.076  11.235  1.00  0.00    -0.058 A 
HETATM    7  C   UNL     1      14.392   5.139  12.625  1.00  0.00     0.007 A 
HETATM    8  C   UNL     1      15.607   5.477  13.221  1.00  0.00     0.001 A 
HETATM    9  C   UNL     1      16.721   5.751  12.426  1.00  0.00     0.000 A 
HETATM   10  C   UNL     1      16.619   5.688  11.036  1.00  0.00     0.001 A 
HETATM   11  C   UNL     1      15.403   5.350  10.441  1.00  0.00     0.007 A 
ENDBRANCH   5   6
ENDBRANCH   4   5
ENDBRANCH   3   4
TORSDOF 3
ENDMDL
MODEL 2
REMARK VINA RESULT:      -6.0      0.300      1.484
REMARK  3 active torsions:
REMARK  status: ('A' for Active; 'I' for Inactive)
REMARK    1  A    between atoms: C_3  and  C_4 
REMARK    2  A    between atoms: C_3  and  C_5 
REMARK    3  A    between atoms: C_5  and  C_10 
ROOT
HETATM    1  O   UNL     1      12.972   4.884   7.946  1.00  0.00    -0.648 OA
HETATM    2  O   UNL     1      14.027   2.886   7.701  1.00  0.00    -0.648 OA
HETATM    3  C   UNL     1      13.378   3.667   8.386  1.00  0.00     0.172 C 
ENDROOT
BRANCH   3   4
HETATM    4  C   UNL     1      12.973   3.394   9.815  1.00  0.00     0.117 C 
BRANCH   4   5
HETATM    5  C   UNL     1      12.860   4.688  10.629  1.00  0.00     0.049 C 
BRANCH   5   6
HETATM    6  C   UNL     1      14.097   5.030  11.387  1.00  0.00    -0.058 A 
HETATM    7  C   UNL     1      15.277   5.322  10.702  1.00  0.00     0.007 A 
HETATM    8  C   UNL     1      16.435   5.642  11.410  1.00  0.00     0.001 A 
HETATM    9  C   UNL     1      16.413   5.670  12.805  1.00  0.00     0.000 A 
HETATM   10  C   UNL     1      15.234   5.379  13.491  1.00  0.00     0.001 A 
HETATM   11  C   UNL     1      14.077   5.059  12.782  1.00  0.00     0.007 A 
ENDBRANCH   5   6
ENDBRANCH   4   5
ENDBRANCH   3   4
TORSDOF 3
ENDMDL
MODEL 3
REMARK VINA RESULT:      -6.0      0.867      1.795
REMARK  3 active torsions:
REMARK  status: ('A' for Active; 'I' for Inactive)
REMARK    1  A    between atoms: C_3  and  C_4 
REMARK    2  A    between atoms: C_3  and  C_5 
REMARK    3  A    between atoms: C_5  and  C_10 
ROOT
HETATM    1  O   UNL     1      12.933   2.205   9.449  1.00  0.00    -0.648 OA
HETATM    2  O   UNL     1      14.242   2.876   7.717  1.00  0.00    -0.648 OA
HETATM    3  C   UNL     1      13.511   3.146   8.662  1.00  0.00     0.172 C 
ENDROOT
BRANCH   3   4
HETATM    4  C   UNL     1      13.134   4.554   9.056  1.00  0.00     0.117 C 
BRANCH   4   5
HETATM    5  C   UNL     1      13.152   4.741  10.577  1.00  0.00     0.049 C 
BRANCH   5   6
HETATM    6  C   UNL     1      14.490   5.114  11.120  1.00  0.00    -0.058 A 
HETATM    7  C   UNL     1      15.543   5.393  10.249  1.00  0.00     0.007 A 
HETATM    8  C   UNL     1      16.795   5.742  10.755  1.00  0.00     0.001 A 
HETATM    9  C   UNL     1      16.993   5.813  12.135  1.00  0.00     0.000 A 
HETATM   10  C   UNL     1      15.941   5.534  13.006  1.00  0.00     0.001 A 
HETATM   11  C   UNL     1      14.689   5.186  12.499  1.00  0.00     0.007 A 
ENDBRANCH   5   6
ENDBRANCH   4   5
ENDBRANCH   3   4
TORSDOF 3
ENDMDL
MODEL 4
REMARK VINA RESULT:      -5.8      1.060      2.060
REMARK  3 active torsions:
REMARK  status: ('A' for Active; 'I' for Inactive)
REMARK    1  A    between atoms: C_3  and  C_4 
REMARK    2  A    between atoms: C_3  and  C_5 
REMARK    3  A    between atoms: C_5  and  C_10 
ROOT
HETATM    1  O   UNL     1      12.873   2.447   9.570  1.00  0.00    -0.648 OA
HETATM    2  O   UNL     1      14.111   3.146   7.798  1.00  0.00    -0.648 OA
HETATM    3  C   UNL     1      13.553   3.383   8.862  1.00  0.00     0.172 C 
ENDROOT
BRANCH   3   4
HETATM    4  C   UNL     1      13.519   4.748   9.506  1.00  0.00     0.117 C 
BRANCH   4   5
HETATM    5  C   UNL     1      14.900   5.162  10.027  1.00  0.00     0.049 C 
BRANCH   5   6
HETATM    6  C   UNL     1      14.987   5.223  11.514  1.00  0.00    -0.058 A 
HETATM    7  C   UNL     1      16.190   5.573  12.129  1.00  0.00     0.007 A 
HETATM    8  C   UNL     1      16.272   5.631  13.520  1.00  0.00     0.001 A 
HETATM    9  C   UNL     1      15.150   5.340  14.297  1.00  0.00     0.000 A 
HETATM   10  C   UNL     1      13.948   4.990  13.684  1.00  0.00     0.001 A 
HETATM   11  C   UNL     1      13.866   4.933  12.292  1.00  0.00     0.007 A 
ENDBRANCH   5   6
ENDBRANCH   4   5
ENDBRANCH   3   4
TORSDOF 3
ENDMDL
MODEL 5
REMARK VINA RESULT:      -5.7      5.213      6.427
REMARK  3 active torsions:
REMARK  status: ('A' for Active; 'I' for Inactive)
REMARK    1  A    between atoms: C_3  and  C_4 
REMARK    2  A    between atoms: C_3  and  C_5 
REMARK    3  A    between atoms: C_5  and  C_10 
ROOT
HETATM    1  O   UNL     1      13.091  12.477  13.952  1.00  0.00    -0.648 OA
HETATM    2  O   UNL     1      11.325  11.613  12.813  1.00  0.00    -0.648 OA
HETATM    3  C   UNL     1      12.299  11.457  13.540  1.00  0.00     0.172 C 
ENDROOT
BRANCH   3   4
HETATM    4  C   UNL     1      12.761  10.112  14.046  1.00  0.00     0.117 C 
BRANCH   4   5
HETATM    5  C   UNL     1      11.827   8.984  13.592  1.00  0.00     0.049 C 
BRANCH   5   6
HETATM    6  C   UNL     1      12.543   7.787  13.068  1.00  0.00    -0.058 A 
HETATM    7  C   UNL     1      13.927   7.684  13.209  1.00  0.00     0.007 A 
HETATM    8  C   UNL     1      14.599   6.564  12.719  1.00  0.00     0.001 A 
HETATM    9  C   UNL     1      13.885   5.545  12.088  1.00  0.00     0.000 A 
HETATM   10  C   UNL     1      12.501   5.646  11.946  1.00  0.00     0.001 A 
HETATM   11  C   UNL     1      11.831   6.767  12.437  1.00  0.00     0.007 A 
ENDBRANCH   5   6
ENDBRANCH   4   5
ENDBRANCH   3   4
TORSDOF 3
ENDMDL
MODEL 6
REMARK VINA RESULT:      -5.6      2.020      2.577
REMARK  3 active torsions:
REMARK  status: ('A' for Active; 'I' for Inactive)
REMARK    1  A    between atoms: C_3  and  C_4 
REMARK    2  A    between atoms: C_3  and  C_5 
REMARK    3  A    between atoms: C_5  and  C_10 
ROOT
HETATM    1  O   UNL     1      12.356   4.610   8.440  1.00  0.00    -0.648 OA
HETATM    2  O   UNL     1      14.110   3.233   8.001  1.00  0.00    -0.648 OA
HETATM    3  C   UNL     1      13.565   4.062   8.720  1.00  0.00     0.172 C 
ENDROOT
BRANCH   3   4
HETATM    4  C   UNL     1      14.177   4.605   9.989  1.00  0.00     0.117 C 
BRANCH   4   5
HETATM    5  C   UNL     1      13.181   4.582  11.153  1.00  0.00     0.049 C 
BRANCH   5   6
HETATM    6  C   UNL     1      13.147   5.848  11.939  1.00  0.00    -0.058 A 
HETATM    7  C   UNL     1      11.926   6.464  12.218  1.00  0.00     0.007 A 
HETATM    8  C   UNL     1      11.893   7.649  12.954  1.00  0.00     0.001 A 
HETATM    9  C   UNL     1      13.082   8.218  13.410  1.00  0.00     0.000 A 
HETATM   10  C   UNL     1      14.303   7.604  13.132  1.00  0.00     0.001 A 
HETATM   11  C   UNL     1      14.335   6.419  12.397  1.00  0.00     0.007 A 
ENDBRANCH   5   6
ENDBRANCH   4   5
ENDBRANCH   3   4
TORSDOF 3
ENDMDL
MODEL 7
REMARK VINA RESULT:      -5.4      2.649      3.598
REMARK  3 active torsions:
REMARK  status: ('A' for Active; 'I' for Inactive)
REMARK    1  A    between atoms: C_3  and  C_4 
REMARK    2  A    between atoms: C_3  and  C_5 
REMARK    3  A    between atoms: C_5  and  C_10 
ROOT
HETATM    1  O   UNL     1      11.872   8.100  12.910  1.00  0.00    -0.648 OA
HETATM    2  O   UNL     1      11.247   6.240  11.765  1.00  0.00    -0.648 OA
HETATM    3  C   UNL     1      11.863   6.763  12.685  1.00  0.00     0.172 C 
ENDROOT
BRANCH   3   4
HETATM    4  C   UNL     1      12.716   5.996  13.667  1.00  0.00     0.117 C 
BRANCH   4   5
HETATM    5  C   UNL     1      13.397   4.793  13.005  1.00  0.00     0.049 C 
BRANCH   5   6
HETATM    6  C   UNL     1      14.660   5.136  12.291  1.00  0.00    -0.058 A 
HETATM    7  C   UNL     1      15.797   5.495  13.016  1.00  0.00     0.007 A 
HETATM    8  C   UNL     1      16.979   5.815  12.349  1.00  0.00     0.001 A 
HETATM    9  C   UNL     1      17.024   5.777  10.955  1.00  0.00     0.000 A 
HETATM   10  C   UNL     1      15.889   5.419  10.229  1.00  0.00     0.001 A 
HETATM   11  C   UNL     1      14.707   5.097  10.897  1.00  0.00     0.007 A 
ENDBRANCH   5   6
ENDBRANCH   4   5
ENDBRANCH   3   4
TORSDOF 3
ENDMDL
MODEL 8
REMARK VINA RESULT:      -5.3      2.768      3.749
REMARK  3 active torsions:
REMARK  status: ('A' for Active; 'I' for Inactive)
REMARK    1  A    between atoms: C_3  and  C_4 
REMARK    2  A    between atoms: C_3  and  C_5 
REMARK    3  A    between atoms: C_5  and  C_10 
ROOT
HETATM    1  O   UNL     1      14.254   5.837   9.233  1.00  0.00    -0.648 OA
HETATM    2  O   UNL     1      16.301   4.944   9.648  1.00  0.00    -0.648 OA
HETATM    3  C   UNL     1      15.160   5.197  10.013  1.00  0.00     0.172 C 
ENDROOT
BRANCH   3   4
HETATM    4  C   UNL     1      14.623   4.861  11.383  1.00  0.00     0.117 C 
BRANCH   4   5
HETATM    5  C   UNL     1      15.028   5.912  12.424  1.00  0.00     0.049 C 
BRANCH   5   6
HETATM    6  C   UNL     1      13.916   6.821  12.823  1.00  0.00    -0.058 A 
HETATM    7  C   UNL     1      12.614   6.561  12.393  1.00  0.00     0.007 A 
HETATM    8  C   UNL     1      11.572   7.411  12.766  1.00  0.00     0.001 A 
HETATM    9  C   UNL     1      11.833   8.521  13.570  1.00  0.00     0.000 A 
HETATM   10  C   UNL     1      13.134   8.781  14.000  1.00  0.00     0.001 A 
HETATM   11  C   UNL     1      14.175   7.931  13.627  1.00  0.00     0.007 A 
ENDBRANCH   5   6
ENDBRANCH   4   5
ENDBRANCH   3   4
TORSDOF 3
ENDMDL
MODEL 9
REMARK VINA RESULT:      -5.3      2.487      3.462
REMARK  3 active torsions:
REMARK  status: ('A' for Active; 'I' for Inactive)
REMARK    1  A    between atoms: C_3  and  C_4 
REMARK    2  A    between atoms: C_3  and  C_5 
REMARK    3  A    between atoms: C_5  and  C_10 
ROOT
HETATM    1  O   UNL     1      11.285   5.852  11.496  1.00  0.00    -0.648 OA
HETATM    2  O   UNL     1      12.328   6.529  13.397  1.00  0.00    -0.648 OA
HETATM    3  C   UNL     1      12.269   5.785  12.426  1.00  0.00     0.172 C 
ENDROOT
BRANCH   3   4
HETATM    4  C   UNL     1      13.260   4.679  12.154  1.00  0.00     0.117 C 
BRANCH   4   5
HETATM    5  C   UNL     1      14.163   5.009  10.960  1.00  0.00     0.049 C 
BRANCH   5   6
HETATM    6  C   UNL     1      15.555   5.380  11.344  1.00  0.00    -0.058 A 
HETATM    7  C   UNL     1      16.520   5.584  10.357  1.00  0.00     0.007 A 
HETATM    8  C   UNL     1      17.823   5.932  10.716  1.00  0.00     0.001 A 
HETATM    9  C   UNL     1      18.160   6.075  12.062  1.00  0.00     0.000 A 
HETATM   10  C   UNL     1      17.196   5.870  13.049  1.00  0.00     0.001 A 
HETATM   11  C   UNL     1      15.894   5.524  12.690  1.00  0.00     0.007 A 
ENDBRANCH   5   6
ENDBRANCH   4   5
ENDBRANCH   3   4
TORSDOF 3
ENDMDL
