MODEL 1
REMARK VINA RESULT:      -6.1      0.000      0.000
REMARK  3 active torsions:
REMARK  status: ('A' for Active; 'I' for Inactive)
REMARK    1  A    between atoms: C_3  and  C_4 
REMARK    2  A    between atoms: C_3  and  C_5 
REMARK    3  A    between atoms: C_5  and  C_10 
ROOT
HETATM    1  O   UNL     1      12.749   4.802   7.875  1.00  0.00    -0.648 OA
HETATM    2  O   UNL     1      14.031   2.931   7.739  1.00  0.00    -0.648 OA
HETATM    3  C   UNL     1      13.316   3.683   8.390  1.00  0.00     0.172 C 
ENDROOT
BRANCH   3   4
HETATM    4  C   UNL     1      13.000   3.483   9.852  1.00  0.00     0.117 C 
BRANCH   4   5
HETATM    5  C   UNL     1      13.044   4.805  10.627  1.00  0.00     0.049 C 
BRANCH   5   6
HETATM    6  C   UNL     1      14.391   5.137  11.171  1.00  0.00    -0.058 A 
HETATM    7  C   UNL     1      14.591   5.199  12.551  1.00  0.00     0.007 A 
HETATM    8  C   UNL     1      15.852   5.510  13.061  1.00  0.00     0.001 A 
HETATM    9  C   UNL     1      16.914   5.757  12.190  1.00  0.00     0.000 A 
HETATM   10  C   UNL     1      16.715   5.695  10.811  1.00  0.00     0.001 A 
HETATM   11  C   UNL     1      15.454   5.384  10.302  1.00  0.00     0.007 A 
ENDBRANCH   5   6
ENDBRANCH   4   5
ENDBRANCH   3   4
TORSDOF 3
ENDMDL
MODEL 2
REMARK VINA RESULT:      -6.0      0.558      1.581
REMARK  3 active torsions:
REMARK  status: ('A' for Active; 'I' for Inactive)
REMARK    1  A    between atoms: C_3  and  C_4 
REMARK    2  A    between atoms: C_3  and  C_5 
REMARK    3  A    between atoms: C_5  and  C_10 
ROOT
HETATM    1  O   UNL     1      13.011   4.885   7.967  1.00  0.00    -0.648 OA
HETATM    2  O   UNL     1      14.033   2.873   7.702  1.00  0.00    -0.648 OA
HETATM    3  C   UNL     1      13.392   3.655   8.394  1.00  0.00     0.172 C 
ENDROOT
BRANCH   3   4
HETATM    4  C   UNL     1      12.973   3.369   9.815  1.00  0.00     0.117 C 
BRANCH   4   5
HETATM    5  C   UNL     1      12.803   4.659  10.627  1.00  0.00     0.049 C 
BRANCH   5   6
HETATM    6  C   UNL     1      13.986   4.998  11.468  1.00  0.00    -0.058 A 
HETATM    7  C   UNL     1      15.206   5.306  10.865  1.00  0.00     0.007 A 
HETATM    8  C   UNL     1      16.314   5.624  11.652  1.00  0.00     0.001 A 
HETATM    9  C   UNL     1      16.201   5.633  13.042  1.00  0.00     0.000 A 
HETATM   10  C   UNL     1      14.982   5.324  13.646  1.00  0.00     0.001 A 
HETATM   11  C   UNL     1      13.875   5.008  12.859  1.00  0.00     0.007 A 
ENDBRANCH   5   6
ENDBRANCH   4   5
ENDBRANCH   3   4
TORSDOF 3
ENDMDL
MODEL 3
REMARK VINA RESULT:      -6.0      0.918      1.820
REMARK  3 active torsions:
REMARK  status: ('A' for Active; 'I' for Inactive)
REMARK    1  A    between atoms: C_3  and  C_4 
REMARK    2  A    between atoms: C_3  and  C_5 
REMARK    3  A    between atoms: C_5  and  C_10 
ROOT
HETATM    1  O   UNL     1      12.854   2.414   9.582  1.00  0.00    -0.648 OA
HETATM    2  O   UNL     1      14.024   2.932   7.705  1.00  0.00    -0.648 OA
HETATM    3  C   UNL     1      13.494   3.276   8.755  1.00  0.00     0.172 C 
ENDROOT
BRANCH   3   4
HETATM    4  C   UNL     1      13.457   4.702   9.248  1.00  0.00     0.117 C 
BRANCH   4   5
HETATM    5  C   UNL     1      13.567   4.776  10.775  1.00  0.00     0.049 C 
BRANCH   5   6
HETATM    6  C   UNL     1      14.918   5.180  11.260  1.00  0.00    -0.058 A 
HETATM    7  C   UNL     1      15.937   5.445  10.344  1.00  0.00     0.007 A 
HETATM    8  C   UNL     1      17.202   5.824  10.797  1.00  0.00     0.001 A 
HETATM    9  C   UNL     1      17.447   5.937  12.166  1.00  0.00     0.000 A 
HETATM   10  C   UNL     1      16.428   5.672  13.081  1.00  0.00     0.001 A 
HETATM   11  C   UNL     1      15.164   5.295  12.628  1.00  0.00     0.007 A 
ENDBRANCH   5   6
ENDBRANCH   4   5
ENDBRANCH   3   4
TORSDOF 3
ENDMDL
MODEL 4
REMARK VINA RESULT:      -5.8      1.060      1.807
REMARK  3 active torsions:
REMARK  status: ('A' for Active; 'I' for Inactive)
REMARK    1  A    between atoms: C_3  and  C_4 
REMARK    2  A    between atoms: C_3  and  C_5 
REMARK    3  A    between atoms: C_5  and  C_10 
ROOT
HETATM    1  O   UNL     1      12.836   2.338   9.540  1.00  0.00    -0.648 OA
HETATM    2  O   UNL     1      14.085   3.112   7.807  1.00  0.00    -0.648 OA
HETATM    3  C   UNL     1      13.514   3.305   8.874  1.00  0.00     0.172 C 
ENDROOT
BRANCH   3   4
HETATM    4  C   UNL     1      13.463   4.645   9.569  1.00  0.00     0.117 C 
BRANCH   4   5
HETATM    5  C   UNL     1      14.860   5.122   9.981  1.00  0.00     0.049 C 
BRANCH   5   6
HETATM    6  C   UNL     1      15.045   5.235  11.456  1.00  0.00    -0.058 A 
HETATM    7  C   UNL     1      13.977   4.973  12.315  1.00  0.00     0.007 A 
HETATM    8  C   UNL     1      14.148   5.078  13.695  1.00  0.00     0.001 A 
HETATM    9  C   UNL     1      15.388   5.446  14.217  1.00  0.00     0.000 A 
HETATM   10  C   UNL     1      16.456   5.709  13.360  1.00  0.00     0.001 A 
HETATM   11  C   UNL     1      16.284   5.602  11.980  1.00  0.00     0.007 A 
ENDBRANCH   5   6
ENDBRANCH   4   5
ENDBRANCH   3   4
TORSDOF 3
ENDMDL
MODEL 5
REMARK VINA RESULT:      -5.7      1.895      2.757
REMARK  3 active torsions:
REMARK  status: ('A' for Active; 'I' for Inactive)
REMARK    1  A    between atoms: C_3  and  C_4 
REMARK    2  A    between atoms: C_3  and  C_5 
REMARK    3  A    between atoms: C_5  and  C_10 
ROOT
HETATM    1  O   UNL     1      12.676   4.952   7.932  1.00  0.00    -0.648 OA
HETATM    2  O   UNL     1      14.047   3.144   8.053  1.00  0.00    -0.648 OA
HETATM    3  C   UNL     1      13.327   3.969   8.602  1.00  0.00     0.172 C 
ENDROOT
BRANCH   3   4
HETATM    4  C   UNL     1      13.097   4.022  10.093  1.00  0.00     0.117 C 
BRANCH   4   5
HETATM    5  C   UNL     1      14.167   4.860  10.802  1.00  0.00     0.049 C 
BRANCH   5   6
HETATM    6  C   UNL     1      13.609   5.925  11.684  1.00  0.00    -0.058 A 
HETATM    7  C   UNL     1      14.467   6.820  12.325  1.00  0.00     0.007 A 
HETATM    8  C   UNL     1      13.946   7.817  13.150  1.00  0.00     0.001 A 
HETATM    9  C   UNL     1      12.567   7.918  13.334  1.00  0.00     0.000 A 
HETATM   10  C   UNL     1      11.709   7.024  12.694  1.00  0.00     0.001 A 
HETATM   11  C   UNL     1      12.231   6.028  11.868  1.00  0.00     0.007 A 
ENDBRANCH   5   6
ENDBRANCH   4   5
ENDBRANCH   3   4
TORSDOF 3
ENDMDL
MODEL 6
REMARK VINA RESULT:      -5.7      5.245      6.457
REMARK  3 active torsions:
REMARK  status: ('A' for Active; 'I' for Inactive)
REMARK    1  A    between atoms: C_3  and  C_4 
REMARK    2  A    between atoms: C_3  and  C_5 
REMARK    3  A    between atoms: C_5  and  C_10 
ROOT
HETATM    1  O   UNL     1      11.313  11.601  12.877  1.00  0.00    -0.648 OA
HETATM    2  O   UNL     1      13.094  12.507  13.957  1.00  0.00    -0.648 OA
HETATM    3  C   UNL     1      12.433  11.527  13.637  1.00  0.00     0.172 C 
ENDROOT
BRANCH   3   4
HETATM    4  C   UNL     1      12.756  10.118  14.072  1.00  0.00     0.117 C 
BRANCH   4   5
HETATM    5  C   UNL     1      11.816   9.095  13.425  1.00  0.00     0.049 C 
BRANCH   5   6
HETATM    6  C   UNL     1      12.499   7.842  12.993  1.00  0.00    -0.058 A 
HETATM    7  C   UNL     1      13.879   7.712  13.145  1.00  0.00     0.007 A 
HETATM    8  C   UNL     1      14.519   6.540  12.741  1.00  0.00     0.001 A 
HETATM    9  C   UNL     1      13.777   5.497  12.185  1.00  0.00     0.000 A 
HETATM   10  C   UNL     1      12.397   5.627  12.033  1.00  0.00     0.001 A 
HETATM   11  C   UNL     1      11.758   6.799  12.437  1.00  0.00     0.007 A 
ENDBRANCH   5   6
ENDBRANCH   4   5
ENDBRANCH   3   4
TORSDOF 3
ENDMDL
MODEL 7
REMARK VINA RESULT:      -5.6      2.058      2.858
REMARK  3 active torsions:
REMARK  status: ('A' for Active; 'I' for Inactive)
REMARK    1  A    between atoms: C_3  and  C_4 
REMARK    2  A    between atoms: C_3  and  C_5 
REMARK    3  A    between atoms: C_5  and  C_10 
ROOT
HETATM    1  O   UNL     1      14.104   3.180   8.087  1.00  0.00    -0.648 OA
HETATM    2  O   UNL     1      12.366   4.628   8.291  1.00  0.00    -0.648 OA
HETATM    3  C   UNL     1      13.421   4.170   8.712  1.00  0.00     0.172 C 
ENDROOT
BRANCH   3   4
HETATM    4  C   UNL     1      14.081   4.623   9.992  1.00  0.00     0.117 C 
BRANCH   4   5
HETATM    5  C   UNL     1      13.096   4.629  11.166  1.00  0.00     0.049 C 
BRANCH   5   6
HETATM    6  C   UNL     1      13.104   5.898  11.949  1.00  0.00    -0.058 A 
HETATM    7  C   UNL     1      11.903   6.542  12.247  1.00  0.00     0.007 A 
HETATM    8  C   UNL     1      11.909   7.729  12.980  1.00  0.00     0.001 A 
HETATM    9  C   UNL     1      13.118   8.272  13.415  1.00  0.00     0.000 A 
HETATM   10  C   UNL     1      14.320   7.629  13.118  1.00  0.00     0.001 A 
HETATM   11  C   UNL     1      14.312   6.442  12.386  1.00  0.00     0.007 A 
ENDBRANCH   5   6
ENDBRANCH   4   5
ENDBRANCH   3   4
TORSDOF 3
ENDMDL
MODEL 8
REMARK VINA RESULT:      -5.5      1.119      1.590
REMARK  3 active torsions:
REMARK  status: ('A' for Active; 'I' for Inactive)
REMARK    1  A    between atoms: C_3  and  C_4 
REMARK    2  A    between atoms: C_3  and  C_5 
REMARK    3  A    between atoms: C_5  and  C_10 
ROOT
HETATM    1  O   UNL     1      12.296   4.346   9.583  1.00  0.00    -0.648 OA
HETATM    2  O   UNL     1      13.836   3.639   8.070  1.00  0.00    -0.648 OA
HETATM    3  C   UNL     1      13.547   4.299   9.061  1.00  0.00     0.172 C 
ENDROOT
BRANCH   3   4
HETATM    4  C   UNL     1      14.530   5.168   9.807  1.00  0.00     0.117 C 
BRANCH   4   5
HETATM    5  C   UNL     1      14.333   5.070  11.325  1.00  0.00     0.049 C 
BRANCH   5   6
HETATM    6  C   UNL     1      15.564   5.369  12.110  1.00  0.00    -0.058 A 
HETATM    7  C   UNL     1      15.513   5.397  13.504  1.00  0.00     0.007 A 
HETATM    8  C   UNL     1      16.665   5.676  14.240  1.00  0.00     0.001 A 
HETATM    9  C   UNL     1      17.868   5.928  13.581  1.00  0.00     0.000 A 
HETATM   10  C   UNL     1      17.920   5.901  12.187  1.00  0.00     0.001 A 
HETATM   11  C   UNL     1      16.769   5.620  11.452  1.00  0.00     0.007 A 
ENDBRANCH   5   6
ENDBRANCH   4   5
ENDBRANCH   3   4
TORSDOF 3
ENDMDL
MODEL 9
REMARK VINA RESULT:      -5.4      2.590      3.690
REMARK  3 active torsions:
REMARK  status: ('A' for Active; 'I' for Inactive)
REMARK    1  A    between atoms: C_3  and  C_4 
REMARK    2  A    between atoms: C_3  and  C_5 
REMARK    3  A    between atoms: C_5  and  C_10 
ROOT
HETATM    1  O   UNL     1      12.251   8.066  12.801  1.00  0.00    -0.648 OA
HETATM    2  O   UNL     1      11.220   6.341  11.740  1.00  0.00    -0.648 OA
HETATM    3  C   UNL     1      11.939   6.756  12.641  1.00  0.00     0.172 C 
ENDROOT
BRANCH   3   4
HETATM    4  C   UNL     1      12.596   5.866  13.669  1.00  0.00     0.117 C 
BRANCH   4   5
HETATM    5  C   UNL     1      13.321   4.685  13.014  1.00  0.00     0.049 C 
BRANCH   5   6
HETATM    6  C   UNL     1      14.562   5.072  12.284  1.00  0.00    -0.058 A 
HETATM    7  C   UNL     1      14.602   5.006  10.891  1.00  0.00     0.007 A 
HETATM    8  C   UNL     1      15.763   5.369  10.207  1.00  0.00     0.001 A 
HETATM    9  C   UNL     1      16.884   5.798  10.918  1.00  0.00     0.000 A 
HETATM   10  C   UNL     1      16.846   5.863  12.310  1.00  0.00     0.001 A 
HETATM   11  C   UNL     1      15.684   5.502  12.993  1.00  0.00     0.007 A 
ENDBRANCH   5   6
ENDBRANCH   4   5
ENDBRANCH   3   4
TORSDOF 3
ENDMDL
