MODEL 1
REMARK VINA RESULT:      -6.4      0.000      0.000
REMARK  7 active torsions:
REMARK  status: ('A' for Active; 'I' for Inactive)
REMARK    1  A    between atoms: O_1  and  C_2 
REMARK    2  A    between atoms: C_2  and  C_3 
REMARK    3  A    between atoms: C_2  and  C_8 
REMARK    4  A    between atoms: C_3  and  C_4 
REMARK    5  A    between atoms: C_4  and  C_5 
REMARK    6  A    between atoms: C_8  and  C_9 
REMARK    7  A    between atoms: C_11  and  O_15 
ROOT
HETATM    1  O   UNL     1     -55.982  46.228   8.926  1.00  0.00    -0.395 OA
HETATM    2  H   UNL     1     -55.917  47.098   8.502  1.00  0.00     0.210 HD
ENDROOT
BRANCH   1   3
HETATM    3  C   UNL     1     -54.675  45.677   9.082  1.00  0.00     0.122 C 
BRANCH   3   4
HETATM    4  C   UNL     1     -54.560  44.371   8.279  1.00  0.00     0.042 C 
BRANCH   4   5
HETATM    5  C   UNL     1     -54.974  43.131   9.074  1.00  0.00     0.116 C 
BRANCH   5   6
HETATM    6  C   UNL     1     -56.366  42.615   8.814  1.00  0.00     0.172 C 
HETATM    7  O   UNL     1     -57.069  42.043   9.632  1.00  0.00    -0.648 OA
HETATM    8  O   UNL     1     -56.787  42.744   7.540  1.00  0.00    -0.648 OA
ENDBRANCH   5   6
ENDBRANCH   4   5
ENDBRANCH   3   4
BRANCH   3   9
HETATM    9  C   UNL     1     -53.619  46.699   8.615  1.00  0.00     0.070 C 
BRANCH   9  10
HETATM   10  C   UNL     1     -53.581  47.947   9.470  1.00  0.00    -0.053 A 
HETATM   11  C   UNL     1     -53.644  49.218   8.877  1.00  0.00     0.043 A 
HETATM   12  C   UNL     1     -53.610  50.360   9.676  1.00  0.00     0.066 A 
HETATM   13  C   UNL     1     -53.513  50.262  11.059  1.00  0.00     0.036 A 
HETATM   14  C   UNL     1     -53.448  49.005  11.656  1.00  0.00     0.003 A 
HETATM   15  C   UNL     1     -53.482  47.854  10.866  1.00  0.00     0.007 A 
BRANCH  12  16
HETATM   16  O   UNL     1     -53.671  51.609   9.133  1.00  0.00    -0.361 OA
HETATM   17  H   UNL     1     -53.797  52.355   9.685  1.00  0.00     0.217 HD
ENDBRANCH  12  16
ENDBRANCH   9  10
ENDBRANCH   3   9
ENDBRANCH   1   3
TORSDOF 7
ENDMDL
MODEL 2
REMARK VINA RESULT:      -6.3      4.702      7.011
REMARK  7 active torsions:
REMARK  status: ('A' for Active; 'I' for Inactive)
REMARK    1  A    between atoms: O_1  and  C_2 
REMARK    2  A    between atoms: C_2  and  C_3 
REMARK    3  A    between atoms: C_2  and  C_8 
REMARK    4  A    between atoms: C_3  and  C_4 
REMARK    5  A    between atoms: C_4  and  C_5 
REMARK    6  A    between atoms: C_8  and  C_9 
REMARK    7  A    between atoms: C_11  and  O_15 
ROOT
HETATM    1  O   UNL     1     -52.729  49.830  15.543  1.00  0.00    -0.395 OA
HETATM    2  H   UNL     1     -51.957  49.927  16.121  1.00  0.00     0.210 HD
ENDROOT
BRANCH   1   3
HETATM    3  C   UNL     1     -52.349  49.144  14.351  1.00  0.00     0.122 C 
BRANCH   3   4
HETATM    4  C   UNL     1     -51.481  47.925  14.706  1.00  0.00     0.042 C 
BRANCH   4   5
HETATM    5  C   UNL     1     -50.471  48.202  15.821  1.00  0.00     0.116 C 
BRANCH   5   6
HETATM    6  C   UNL     1     -49.043  47.823  15.527  1.00  0.00     0.172 C 
HETATM    7  O   UNL     1     -48.059  48.313  16.058  1.00  0.00    -0.648 OA
HETATM    8  O   UNL     1     -48.891  46.929  14.529  1.00  0.00    -0.648 OA
ENDBRANCH   5   6
ENDBRANCH   4   5
ENDBRANCH   3   4
BRANCH   3   9
HETATM    9  C   UNL     1     -53.608  48.709  13.575  1.00  0.00     0.070 C 
BRANCH   9  10
HETATM   10  C   UNL     1     -53.493  48.931  12.082  1.00  0.00    -0.053 A 
HETATM   11  C   UNL     1     -53.725  50.201  11.531  1.00  0.00     0.043 A 
HETATM   12  C   UNL     1     -53.613  50.392  10.154  1.00  0.00     0.066 A 
HETATM   13  C   UNL     1     -53.275  49.340   9.312  1.00  0.00     0.036 A 
HETATM   14  C   UNL     1     -53.043  48.076   9.850  1.00  0.00     0.003 A 
HETATM   15  C   UNL     1     -53.151  47.873  11.228  1.00  0.00     0.007 A 
BRANCH  12  16
HETATM   16  O   UNL     1     -53.831  51.613   9.587  1.00  0.00    -0.361 OA
HETATM   17  H   UNL     1     -54.519  51.723   8.961  1.00  0.00     0.217 HD
ENDBRANCH  12  16
ENDBRANCH   9  10
ENDBRANCH   3   9
ENDBRANCH   1   3
TORSDOF 7
ENDMDL
MODEL 3
REMARK VINA RESULT:      -6.1      2.290      2.940
REMARK  7 active torsions:
REMARK  status: ('A' for Active; 'I' for Inactive)
REMARK    1  A    between atoms: O_1  and  C_2 
REMARK    2  A    between atoms: C_2  and  C_3 
REMARK    3  A    between atoms: C_2  and  C_8 
REMARK    4  A    between atoms: C_3  and  C_4 
REMARK    5  A    between atoms: C_4  and  C_5 
REMARK    6  A    between atoms: C_8  and  C_9 
REMARK    7  A    between atoms: C_11  and  O_15 
ROOT
HETATM    1  O   UNL     1     -55.336  46.538   8.760  1.00  0.00    -0.395 OA
HETATM    2  H   UNL     1     -55.467  47.430   9.117  1.00  0.00     0.210 HD
ENDROOT
BRANCH   1   3
HETATM    3  C   UNL     1     -53.989  46.127   8.990  1.00  0.00     0.122 C 
BRANCH   3   4
HETATM    4  C   UNL     1     -53.668  44.891   8.134  1.00  0.00     0.042 C 
BRANCH   4   5
HETATM    5  C   UNL     1     -52.310  44.974   7.433  1.00  0.00     0.116 C 
BRANCH   5   6
HETATM    6  C   UNL     1     -52.344  44.966   5.926  1.00  0.00     0.172 C 
HETATM    7  O   UNL     1     -51.412  44.652   5.202  1.00  0.00    -0.648 OA
HETATM    8  O   UNL     1     -53.486  45.434   5.385  1.00  0.00    -0.648 OA
ENDBRANCH   5   6
ENDBRANCH   4   5
ENDBRANCH   3   4
BRANCH   3   9
HETATM    9  C   UNL     1     -53.027  47.284   8.659  1.00  0.00     0.070 C 
BRANCH   9  10
HETATM   10  C   UNL     1     -53.218  48.491   9.554  1.00  0.00    -0.053 A 
HETATM   11  C   UNL     1     -53.439  49.761   8.999  1.00  0.00     0.043 A 
HETATM   12  C   UNL     1     -53.616  50.863   9.834  1.00  0.00     0.066 A 
HETATM   13  C   UNL     1     -53.575  50.726  11.216  1.00  0.00     0.036 A 
HETATM   14  C   UNL     1     -53.354  49.469  11.776  1.00  0.00     0.003 A 
HETATM   15  C   UNL     1     -53.178  48.358  10.950  1.00  0.00     0.007 A 
BRANCH  12  16
HETATM   16  O   UNL     1     -53.834  52.110   9.328  1.00  0.00    -0.361 OA
HETATM   17  H   UNL     1     -53.111  52.633   9.043  1.00  0.00     0.217 HD
ENDBRANCH  12  16
ENDBRANCH   9  10
ENDBRANCH   3   9
ENDBRANCH   1   3
TORSDOF 7
ENDMDL
MODEL 4
REMARK VINA RESULT:      -6.1      1.996      2.175
REMARK  7 active torsions:
REMARK  status: ('A' for Active; 'I' for Inactive)
REMARK    1  A    between atoms: O_1  and  C_2 
REMARK    2  A    between atoms: C_2  and  C_3 
REMARK    3  A    between atoms: C_2  and  C_8 
REMARK    4  A    between atoms: C_3  and  C_4 
REMARK    5  A    between atoms: C_4  and  C_5 
REMARK    6  A    between atoms: C_8  and  C_9 
REMARK    7  A    between atoms: C_11  and  O_15 
ROOT
HETATM    1  O   UNL     1     -53.633  46.415   6.887  1.00  0.00    -0.395 OA
HETATM    2  H   UNL     1     -52.805  46.866   6.661  1.00  0.00     0.210 HD
ENDROOT
BRANCH   1   3
HETATM    3  C   UNL     1     -54.011  46.755   8.220  1.00  0.00     0.122 C 
BRANCH   3   4
HETATM    4  C   UNL     1     -54.596  45.521   8.927  1.00  0.00     0.042 C 
BRANCH   4   5
HETATM    5  C   UNL     1     -53.529  44.594   9.513  1.00  0.00     0.116 C 
BRANCH   5   6
HETATM    6  C   UNL     1     -53.070  43.469   8.621  1.00  0.00     0.172 C 
HETATM    7  O   UNL     1     -53.295  42.284   8.809  1.00  0.00    -0.648 OA
HETATM    8  O   UNL     1     -52.280  43.848   7.597  1.00  0.00    -0.648 OA
ENDBRANCH   5   6
ENDBRANCH   4   5
ENDBRANCH   3   4
BRANCH   3   9
HETATM    9  C   UNL     1     -52.788  47.293   8.988  1.00  0.00     0.070 C 
BRANCH   9  10
HETATM   10  C   UNL     1     -53.087  48.549   9.778  1.00  0.00    -0.053 A 
HETATM   11  C   UNL     1     -53.339  49.763   9.119  1.00  0.00     0.043 A 
HETATM   12  C   UNL     1     -53.616  50.911   9.859  1.00  0.00     0.066 A 
HETATM   13  C   UNL     1     -53.645  50.876  11.248  1.00  0.00     0.036 A 
HETATM   14  C   UNL     1     -53.395  49.677  11.911  1.00  0.00     0.003 A 
HETATM   15  C   UNL     1     -53.118  48.519  11.180  1.00  0.00     0.007 A 
BRANCH  12  16
HETATM   16  O   UNL     1     -53.867  52.105   9.250  1.00  0.00    -0.361 OA
HETATM   17  H   UNL     1     -53.297  52.834   9.394  1.00  0.00     0.217 HD
ENDBRANCH  12  16
ENDBRANCH   9  10
ENDBRANCH   3   9
ENDBRANCH   1   3
TORSDOF 7
ENDMDL
MODEL 5
REMARK VINA RESULT:      -6.0      2.799      3.705
REMARK  7 active torsions:
REMARK  status: ('A' for Active; 'I' for Inactive)
REMARK    1  A    between atoms: O_1  and  C_2 
REMARK    2  A    between atoms: C_2  and  C_3 
REMARK    3  A    between atoms: C_2  and  C_8 
REMARK    4  A    between atoms: C_3  and  C_4 
REMARK    5  A    between atoms: C_4  and  C_5 
REMARK    6  A    between atoms: C_8  and  C_9 
REMARK    7  A    between atoms: C_11  and  O_15 
ROOT
HETATM    1  O   UNL     1     -52.772  44.825   8.709  1.00  0.00    -0.395 OA
HETATM    2  H   UNL     1     -52.138  44.224   9.130  1.00  0.00     0.210 HD
ENDROOT
BRANCH   1   3
HETATM    3  C   UNL     1     -52.422  46.174   9.013  1.00  0.00     0.122 C 
BRANCH   3   4
HETATM    4  C   UNL     1     -51.319  46.656   8.056  1.00  0.00     0.042 C 
BRANCH   4   5
HETATM    5  C   UNL     1     -51.861  47.227   6.744  1.00  0.00     0.116 C 
BRANCH   5   6
HETATM    6  C   UNL     1     -52.090  46.232   5.636  1.00  0.00     0.172 C 
HETATM    7  O   UNL     1     -51.321  46.017   4.712  1.00  0.00    -0.648 OA
HETATM    8  O   UNL     1     -53.291  45.621   5.666  1.00  0.00    -0.648 OA
ENDBRANCH   5   6
ENDBRANCH   4   5
ENDBRANCH   3   4
BRANCH   3   9
HETATM    9  C   UNL     1     -53.669  47.073   8.904  1.00  0.00     0.070 C 
BRANCH   9  10
HETATM   10  C   UNL     1     -53.597  48.301   9.787  1.00  0.00    -0.053 A 
HETATM   11  C   UNL     1     -53.772  49.582   9.240  1.00  0.00     0.043 A 
HETATM   12  C   UNL     1     -53.706  50.705  10.065  1.00  0.00     0.066 A 
HETATM   13  C   UNL     1     -53.466  50.577  11.427  1.00  0.00     0.036 A 
HETATM   14  C   UNL     1     -53.291  49.310  11.978  1.00  0.00     0.003 A 
HETATM   15  C   UNL     1     -53.356  48.178  11.163  1.00  0.00     0.007 A 
BRANCH  12  16
HETATM   16  O   UNL     1     -53.872  51.963   9.566  1.00  0.00    -0.361 OA
HETATM   17  H   UNL     1     -53.294  52.285   8.904  1.00  0.00     0.217 HD
ENDBRANCH  12  16
ENDBRANCH   9  10
ENDBRANCH   3   9
ENDBRANCH   1   3
TORSDOF 7
ENDMDL
MODEL 6
REMARK VINA RESULT:      -6.0      1.881      2.497
REMARK  7 active torsions:
REMARK  status: ('A' for Active; 'I' for Inactive)
REMARK    1  A    between atoms: O_1  and  C_2 
REMARK    2  A    between atoms: C_2  and  C_3 
REMARK    3  A    between atoms: C_2  and  C_8 
REMARK    4  A    between atoms: C_3  and  C_4 
REMARK    5  A    between atoms: C_4  and  C_5 
REMARK    6  A    between atoms: C_8  and  C_9 
REMARK    7  A    between atoms: C_11  and  O_15 
ROOT
HETATM    1  O   UNL     1     -50.743  45.376  10.168  1.00  0.00    -0.395 OA
HETATM    2  H   UNL     1     -50.250  45.752   9.422  1.00  0.00     0.210 HD
ENDROOT
BRANCH   1   3
HETATM    3  C   UNL     1     -52.121  45.728  10.053  1.00  0.00     0.122 C 
BRANCH   3   4
HETATM    4  C   UNL     1     -52.979  44.455   9.970  1.00  0.00     0.042 C 
BRANCH   4   5
HETATM    5  C   UNL     1     -53.776  44.343   8.668  1.00  0.00     0.116 C 
BRANCH   5   6
HETATM    6  C   UNL     1     -55.222  44.759   8.742  1.00  0.00     0.172 C 
HETATM    7  O   UNL     1     -55.620  45.899   8.922  1.00  0.00    -0.648 OA
HETATM    8  O   UNL     1     -56.105  43.742   8.686  1.00  0.00    -0.648 OA
ENDBRANCH   5   6
ENDBRANCH   4   5
ENDBRANCH   3   4
BRANCH   3   9
HETATM    9  C   UNL     1     -52.541  46.591  11.259  1.00  0.00     0.070 C 
BRANCH   9  10
HETATM   10  C   UNL     1     -52.943  47.999  10.872  1.00  0.00    -0.053 A 
HETATM   11  C   UNL     1     -53.072  48.357   9.521  1.00  0.00     0.043 A 
HETATM   12  C   UNL     1     -53.446  49.655   9.179  1.00  0.00     0.066 A 
HETATM   13  C   UNL     1     -53.692  50.609  10.158  1.00  0.00     0.036 A 
HETATM   14  C   UNL     1     -53.565  50.264  11.502  1.00  0.00     0.003 A 
HETATM   15  C   UNL     1     -53.193  48.965  11.857  1.00  0.00     0.007 A 
BRANCH  12  16
HETATM   16  O   UNL     1     -53.582  50.035   7.876  1.00  0.00    -0.361 OA
HETATM   17  H   UNL     1     -53.487  49.403   7.191  1.00  0.00     0.217 HD
ENDBRANCH  12  16
ENDBRANCH   9  10
ENDBRANCH   3   9
ENDBRANCH   1   3
TORSDOF 7
ENDMDL
MODEL 7
REMARK VINA RESULT:      -6.0      1.489      2.087
REMARK  7 active torsions:
REMARK  status: ('A' for Active; 'I' for Inactive)
REMARK    1  A    between atoms: O_1  and  C_2 
REMARK    2  A    between atoms: C_2  and  C_3 
REMARK    3  A    between atoms: C_2  and  C_8 
REMARK    4  A    between atoms: C_3  and  C_4 
REMARK    5  A    between atoms: C_4  and  C_5 
REMARK    6  A    between atoms: C_8  and  C_9 
REMARK    7  A    between atoms: C_11  and  O_15 
ROOT
HETATM    1  O   UNL     1     -54.882  46.191   8.275  1.00  0.00    -0.395 OA
HETATM    2  H   UNL     1     -54.462  46.946   7.833  1.00  0.00     0.210 HD
ENDROOT
BRANCH   1   3
HETATM    3  C   UNL     1     -53.994  45.661   9.258  1.00  0.00     0.122 C 
BRANCH   3   4
HETATM    4  C   UNL     1     -53.584  44.230   8.873  1.00  0.00     0.042 C 
BRANCH   4   5
HETATM    5  C   UNL     1     -54.495  43.156   9.471  1.00  0.00     0.116 C 
BRANCH   5   6
HETATM    6  C   UNL     1     -55.816  42.948   8.775  1.00  0.00     0.172 C 
HETATM    7  O   UNL     1     -56.172  43.516   7.755  1.00  0.00    -0.648 OA
HETATM    8  O   UNL     1     -56.668  42.124   9.417  1.00  0.00    -0.648 OA
ENDBRANCH   5   6
ENDBRANCH   4   5
ENDBRANCH   3   4
BRANCH   3   9
HETATM    9  C   UNL     1     -52.754  46.568   9.382  1.00  0.00     0.070 C 
BRANCH   9  10
HETATM   10  C   UNL     1     -53.044  47.880  10.079  1.00  0.00    -0.053 A 
HETATM   11  C   UNL     1     -52.980  47.972  11.479  1.00  0.00     0.043 A 
HETATM   12  C   UNL     1     -53.246  49.187  12.108  1.00  0.00     0.066 A 
HETATM   13  C   UNL     1     -53.578  50.316  11.370  1.00  0.00     0.036 A 
HETATM   14  C   UNL     1     -53.645  50.234   9.981  1.00  0.00     0.003 A 
HETATM   15  C   UNL     1     -53.378  49.023   9.339  1.00  0.00     0.007 A 
BRANCH  12  16
HETATM   16  O   UNL     1     -53.191  49.311  13.465  1.00  0.00    -0.361 OA
HETATM   17  H   UNL     1     -52.844  48.614  13.985  1.00  0.00     0.217 HD
ENDBRANCH  12  16
ENDBRANCH   9  10
ENDBRANCH   3   9
ENDBRANCH   1   3
TORSDOF 7
ENDMDL
MODEL 8
REMARK VINA RESULT:      -5.9      3.427      4.572
REMARK  7 active torsions:
REMARK  status: ('A' for Active; 'I' for Inactive)
REMARK    1  A    between atoms: O_1  and  C_2 
REMARK    2  A    between atoms: C_2  and  C_3 
REMARK    3  A    between atoms: C_2  and  C_8 
REMARK    4  A    between atoms: C_3  and  C_4 
REMARK    5  A    between atoms: C_4  and  C_5 
REMARK    6  A    between atoms: C_8  and  C_9 
REMARK    7  A    between atoms: C_11  and  O_15 
ROOT
HETATM    1  O   UNL     1     -54.534  47.385   8.156  1.00  0.00    -0.395 OA
HETATM    2  H   UNL     1     -54.681  48.007   7.427  1.00  0.00     0.210 HD
ENDROOT
BRANCH   1   3
HETATM    3  C   UNL     1     -53.334  47.735   8.846  1.00  0.00     0.122 C 
BRANCH   3   4
HETATM    4  C   UNL     1     -52.309  48.305   7.852  1.00  0.00     0.042 C 
BRANCH   4   5
HETATM    5  C   UNL     1     -51.504  47.226   7.125  1.00  0.00     0.116 C 
BRANCH   5   6
HETATM    6  C   UNL     1     -52.097  46.715   5.837  1.00  0.00     0.172 C 
HETATM    7  O   UNL     1     -53.263  46.388   5.680  1.00  0.00    -0.648 OA
HETATM    8  O   UNL     1     -51.211  46.541   4.837  1.00  0.00    -0.648 OA
ENDBRANCH   5   6
ENDBRANCH   4   5
ENDBRANCH   3   4
BRANCH   3   9
HETATM    9  C   UNL     1     -53.650  48.761   9.952  1.00  0.00     0.070 C 
BRANCH   9  10
HETATM   10  C   UNL     1     -53.146  48.340  11.316  1.00  0.00    -0.053 A 
HETATM   11  C   UNL     1     -53.232  49.216  12.409  1.00  0.00     0.043 A 
HETATM   12  C   UNL     1     -52.767  48.815  13.660  1.00  0.00     0.066 A 
HETATM   13  C   UNL     1     -52.214  47.554  13.845  1.00  0.00     0.036 A 
HETATM   14  C   UNL     1     -52.122  46.678  12.766  1.00  0.00     0.003 A 
HETATM   15  C   UNL     1     -52.587  47.068  11.508  1.00  0.00     0.007 A 
BRANCH  12  16
HETATM   16  O   UNL     1     -52.838  49.641  14.742  1.00  0.00    -0.361 OA
HETATM   17  H   UNL     1     -52.080  50.119  15.017  1.00  0.00     0.217 HD
ENDBRANCH  12  16
ENDBRANCH   9  10
ENDBRANCH   3   9
ENDBRANCH   1   3
TORSDOF 7
ENDMDL
MODEL 9
REMARK VINA RESULT:      -5.9      2.225      3.019
REMARK  7 active torsions:
REMARK  status: ('A' for Active; 'I' for Inactive)
REMARK    1  A    between atoms: O_1  and  C_2 
REMARK    2  A    between atoms: C_2  and  C_3 
REMARK    3  A    between atoms: C_2  and  C_8 
REMARK    4  A    between atoms: C_3  and  C_4 
REMARK    5  A    between atoms: C_4  and  C_5 
REMARK    6  A    between atoms: C_8  and  C_9 
REMARK    7  A    between atoms: C_11  and  O_15 
ROOT
HETATM    1  O   UNL     1     -53.943  47.413   7.091  1.00  0.00    -0.395 OA
HETATM    2  H   UNL     1     -54.449  46.653   6.763  1.00  0.00     0.210 HD
ENDROOT
BRANCH   1   3
HETATM    3  C   UNL     1     -54.131  47.536   8.501  1.00  0.00     0.122 C 
BRANCH   3   4
HETATM    4  C   UNL     1     -54.976  46.362   9.019  1.00  0.00     0.042 C 
BRANCH   4   5
HETATM    5  C   UNL     1     -54.215  45.035   9.056  1.00  0.00     0.116 C 
BRANCH   5   6
HETATM    6  C   UNL     1     -54.981  43.822   8.595  1.00  0.00     0.172 C 
HETATM    7  O   UNL     1     -56.133  43.827   8.191  1.00  0.00    -0.648 OA
HETATM    8  O   UNL     1     -54.326  42.652   8.741  1.00  0.00    -0.648 OA
ENDBRANCH   5   6
ENDBRANCH   4   5
ENDBRANCH   3   4
BRANCH   3   9
HETATM    9  C   UNL     1     -52.761  47.576   9.207  1.00  0.00     0.070 C 
BRANCH   9  10
HETATM   10  C   UNL     1     -52.849  48.021  10.651  1.00  0.00    -0.053 A 
HETATM   11  C   UNL     1     -52.504  47.142  11.690  1.00  0.00     0.043 A 
HETATM   12  C   UNL     1     -52.587  47.565  13.015  1.00  0.00     0.066 A 
HETATM   13  C   UNL     1     -53.010  48.850  13.329  1.00  0.00     0.036 A 
HETATM   14  C   UNL     1     -53.356  49.729  12.306  1.00  0.00     0.003 A 
HETATM   15  C   UNL     1     -53.275  49.317  10.974  1.00  0.00     0.007 A 
BRANCH  12  16
HETATM   16  O   UNL     1     -52.257  46.736  14.047  1.00  0.00    -0.361 OA
HETATM   17  H   UNL     1     -52.921  46.429  14.632  1.00  0.00     0.217 HD
ENDBRANCH  12  16
ENDBRANCH   9  10
ENDBRANCH   3   9
ENDBRANCH   1   3
TORSDOF 7
ENDMDL
