MODEL 1
REMARK VINA RESULT:      -7.2      0.000      0.000
REMARK  7 active torsions:
REMARK  status: ('A' for Active; 'I' for Inactive)
REMARK    1  A    between atoms: O_1  and  C_2 
REMARK    2  A    between atoms: C_2  and  C_3 
REMARK    3  A    between atoms: C_2  and  C_8 
REMARK    4  A    between atoms: C_3  and  C_4 
REMARK    5  A    between atoms: C_4  and  C_5 
REMARK    6  A    between atoms: C_8  and  C_9 
REMARK    7  A    between atoms: C_11  and  O_15 
ROOT
HETATM    1  O   UNL     1      11.568   6.265  12.345  1.00  0.00    -0.395 OA
HETATM    2  H   UNL     1      11.841   6.334  13.273  1.00  0.00     0.210 HD
ENDROOT
BRANCH   1   3
HETATM    3  C   UNL     1      12.726   6.133  11.517  1.00  0.00     0.122 C 
BRANCH   3   4
HETATM    4  C   UNL     1      12.328   5.374  10.247  1.00  0.00     0.042 C 
BRANCH   4   5
HETATM    5  C   UNL     1      12.080   6.316   9.072  1.00  0.00     0.116 C 
BRANCH   5   6
HETATM    6  C   UNL     1      12.681   5.756   7.819  1.00  0.00     0.172 C 
HETATM    7  O   UNL     1      13.219   6.393   6.930  1.00  0.00    -0.648 OA
HETATM    8  O   UNL     1      12.608   4.413   7.758  1.00  0.00    -0.648 OA
ENDBRANCH   5   6
ENDBRANCH   4   5
ENDBRANCH   3   4
BRANCH   3   9
HETATM    9  C   UNL     1      13.855   5.398  12.261  1.00  0.00     0.070 C 
BRANCH   9  10
HETATM   10  C   UNL     1      15.232   5.878  11.864  1.00  0.00    -0.053 A 
HETATM   11  C   UNL     1      15.412   6.656  10.713  1.00  0.00     0.043 A 
HETATM   12  C   UNL     1      16.685   7.086  10.353  1.00  0.00     0.066 A 
HETATM   13  C   UNL     1      17.796   6.754  11.122  1.00  0.00     0.036 A 
HETATM   14  C   UNL     1      17.626   5.978  12.267  1.00  0.00     0.003 A 
HETATM   15  C   UNL     1      16.352   5.541  12.638  1.00  0.00     0.007 A 
BRANCH  12  16
HETATM   16  O   UNL     1      16.802   7.843   9.225  1.00  0.00    -0.361 OA
HETATM   17  H   UNL     1      16.035   8.148   8.783  1.00  0.00     0.217 HD
ENDBRANCH  12  16
ENDBRANCH   9  10
ENDBRANCH   3   9
ENDBRANCH   1   3
TORSDOF 7
ENDMDL
MODEL 2
REMARK VINA RESULT:      -7.2      2.344      3.873
REMARK  7 active torsions:
REMARK  status: ('A' for Active; 'I' for Inactive)
REMARK    1  A    between atoms: O_1  and  C_2 
REMARK    2  A    between atoms: C_2  and  C_3 
REMARK    3  A    between atoms: C_2  and  C_8 
REMARK    4  A    between atoms: C_3  and  C_4 
REMARK    5  A    between atoms: C_4  and  C_5 
REMARK    6  A    between atoms: C_8  and  C_9 
REMARK    7  A    between atoms: C_11  and  O_15 
ROOT
HETATM    1  O   UNL     1      11.234   4.695  11.372  1.00  0.00    -0.395 OA
HETATM    2  H   UNL     1      10.837   4.579  10.494  1.00  0.00     0.210 HD
ENDROOT
BRANCH   1   3
HETATM    3  C   UNL     1      12.036   5.878  11.380  1.00  0.00     0.122 C 
BRANCH   3   4
HETATM    4  C   UNL     1      12.093   6.432   9.952  1.00  0.00     0.042 C 
BRANCH   4   5
HETATM    5  C   UNL     1      13.349   5.980   9.213  1.00  0.00     0.116 C 
BRANCH   5   6
HETATM    6  C   UNL     1      12.987   5.390   7.884  1.00  0.00     0.172 C 
HETATM    7  O   UNL     1      12.542   4.272   7.687  1.00  0.00    -0.648 OA
HETATM    8  O   UNL     1      13.170   6.249   6.862  1.00  0.00    -0.648 OA
ENDBRANCH   5   6
ENDBRANCH   4   5
ENDBRANCH   3   4
BRANCH   3   9
HETATM    9  C   UNL     1      13.451   5.581  11.906  1.00  0.00     0.070 C 
BRANCH   9  10
HETATM   10  C   UNL     1      13.619   5.919  13.369  1.00  0.00    -0.053 A 
HETATM   11  C   UNL     1      12.500   6.131  14.185  1.00  0.00     0.043 A 
HETATM   12  C   UNL     1      12.666   6.449  15.529  1.00  0.00     0.066 A 
HETATM   13  C   UNL     1      13.936   6.564  16.085  1.00  0.00     0.036 A 
HETATM   14  C   UNL     1      15.055   6.357  15.280  1.00  0.00     0.003 A 
HETATM   15  C   UNL     1      14.899   6.037  13.929  1.00  0.00     0.007 A 
BRANCH  12  16
HETATM   16  O   UNL     1      11.542   6.642  16.278  1.00  0.00    -0.361 OA
HETATM   17  H   UNL     1      11.550   7.256  16.985  1.00  0.00     0.217 HD
ENDBRANCH  12  16
ENDBRANCH   9  10
ENDBRANCH   3   9
ENDBRANCH   1   3
TORSDOF 7
ENDMDL
MODEL 3
REMARK VINA RESULT:      -7.0      1.994      5.120
REMARK  7 active torsions:
REMARK  status: ('A' for Active; 'I' for Inactive)
REMARK    1  A    between atoms: O_1  and  C_2 
REMARK    2  A    between atoms: C_2  and  C_3 
REMARK    3  A    between atoms: C_2  and  C_8 
REMARK    4  A    between atoms: C_3  and  C_4 
REMARK    5  A    between atoms: C_4  and  C_5 
REMARK    6  A    between atoms: C_8  and  C_9 
REMARK    7  A    between atoms: C_11  and  O_15 
ROOT
HETATM    1  O   UNL     1      16.428   4.782  13.846  1.00  0.00    -0.395 OA
HETATM    2  H   UNL     1      16.339   3.823  13.732  1.00  0.00     0.210 HD
ENDROOT
BRANCH   1   3
HETATM    3  C   UNL     1      16.488   5.411  12.564  1.00  0.00     0.122 C 
BRANCH   3   4
HETATM    4  C   UNL     1      17.874   6.045  12.401  1.00  0.00     0.042 C 
BRANCH   4   5
HETATM    5  C   UNL     1      18.636   5.456  11.217  1.00  0.00     0.116 C 
BRANCH   5   6
HETATM    6  C   UNL     1      18.348   6.238   9.971  1.00  0.00     0.172 C 
HETATM    7  O   UNL     1      18.245   5.787   8.844  1.00  0.00    -0.648 OA
HETATM    8  O   UNL     1      18.168   7.552  10.207  1.00  0.00    -0.648 OA
ENDBRANCH   5   6
ENDBRANCH   4   5
ENDBRANCH   3   4
BRANCH   3   9
HETATM    9  C   UNL     1      15.383   6.472  12.417  1.00  0.00     0.070 C 
BRANCH   9  10
HETATM   10  C   UNL     1      14.359   6.115  11.365  1.00  0.00    -0.053 A 
HETATM   11  C   UNL     1      13.102   5.618  11.732  1.00  0.00     0.043 A 
HETATM   12  C   UNL     1      12.169   5.286  10.755  1.00  0.00     0.066 A 
HETATM   13  C   UNL     1      12.465   5.438   9.404  1.00  0.00     0.036 A 
HETATM   14  C   UNL     1      13.714   5.929   9.029  1.00  0.00     0.003 A 
HETATM   15  C   UNL     1      14.658   6.266  10.003  1.00  0.00     0.007 A 
BRANCH  12  16
HETATM   16  O   UNL     1      10.960   4.810  11.168  1.00  0.00    -0.361 OA
HETATM   17  H   UNL     1      10.310   5.401  11.492  1.00  0.00     0.217 HD
ENDBRANCH  12  16
ENDBRANCH   9  10
ENDBRANCH   3   9
ENDBRANCH   1   3
TORSDOF 7
ENDMDL
MODEL 4
REMARK VINA RESULT:      -6.9      1.371      2.003
REMARK  7 active torsions:
REMARK  status: ('A' for Active; 'I' for Inactive)
REMARK    1  A    between atoms: O_1  and  C_2 
REMARK    2  A    between atoms: C_2  and  C_3 
REMARK    3  A    between atoms: C_2  and  C_8 
REMARK    4  A    between atoms: C_3  and  C_4 
REMARK    5  A    between atoms: C_4  and  C_5 
REMARK    6  A    between atoms: C_8  and  C_9 
REMARK    7  A    between atoms: C_11  and  O_15 
ROOT
HETATM    1  O   UNL     1      11.510   6.491  12.480  1.00  0.00    -0.395 OA
HETATM    2  H   UNL     1      11.856   6.734  13.353  1.00  0.00     0.210 HD
ENDROOT
BRANCH   1   3
HETATM    3  C   UNL     1      12.598   6.179  11.607  1.00  0.00     0.122 C 
BRANCH   3   4
HETATM    4  C   UNL     1      12.035   5.485  10.362  1.00  0.00     0.042 C 
BRANCH   4   5
HETATM    5  C   UNL     1      12.143   6.364   9.120  1.00  0.00     0.116 C 
BRANCH   5   6
HETATM    6  C   UNL     1      12.661   5.567   7.961  1.00  0.00     0.172 C 
HETATM    7  O   UNL     1      12.601   4.357   7.833  1.00  0.00    -0.648 OA
HETATM    8  O   UNL     1      13.202   6.336   6.997  1.00  0.00    -0.648 OA
ENDBRANCH   5   6
ENDBRANCH   4   5
ENDBRANCH   3   4
BRANCH   3   9
HETATM    9  C   UNL     1      13.632   5.283  12.311  1.00  0.00     0.070 C 
BRANCH   9  10
HETATM   10  C   UNL     1      15.058   5.688  12.022  1.00  0.00    -0.053 A 
HETATM   11  C   UNL     1      16.033   5.634  13.027  1.00  0.00     0.043 A 
HETATM   12  C   UNL     1      17.342   6.016  12.752  1.00  0.00     0.066 A 
HETATM   13  C   UNL     1      17.706   6.458  11.484  1.00  0.00     0.036 A 
HETATM   14  C   UNL     1      16.742   6.518  10.479  1.00  0.00     0.003 A 
HETATM   15  C   UNL     1      15.425   6.136  10.744  1.00  0.00     0.007 A 
BRANCH  12  16
HETATM   16  O   UNL     1      18.250   5.941  13.766  1.00  0.00    -0.361 OA
HETATM   17  H   UNL     1      17.982   6.102  14.649  1.00  0.00     0.217 HD
ENDBRANCH  12  16
ENDBRANCH   9  10
ENDBRANCH   3   9
ENDBRANCH   1   3
TORSDOF 7
ENDMDL
MODEL 5
REMARK VINA RESULT:      -6.8      2.087      4.108
REMARK  7 active torsions:
REMARK  status: ('A' for Active; 'I' for Inactive)
REMARK    1  A    between atoms: O_1  and  C_2 
REMARK    2  A    between atoms: C_2  and  C_3 
REMARK    3  A    between atoms: C_2  and  C_8 
REMARK    4  A    between atoms: C_3  and  C_4 
REMARK    5  A    between atoms: C_4  and  C_5 
REMARK    6  A    between atoms: C_8  and  C_9 
REMARK    7  A    between atoms: C_11  and  O_15 
ROOT
HETATM    1  O   UNL     1      11.203   4.993  11.041  1.00  0.00    -0.395 OA
HETATM    2  H   UNL     1      11.428   4.169  10.580  1.00  0.00     0.210 HD
ENDROOT
BRANCH   1   3
HETATM    3  C   UNL     1      12.366   5.506  11.694  1.00  0.00     0.122 C 
BRANCH   3   4
HETATM    4  C   UNL     1      11.916   6.486  12.783  1.00  0.00     0.042 C 
BRANCH   4   5
HETATM    5  C   UNL     1      12.059   5.891  14.181  1.00  0.00     0.116 C 
BRANCH   5   6
HETATM    6  C   UNL     1      12.637   6.904  15.122  1.00  0.00     0.172 C 
HETATM    7  O   UNL     1      13.525   7.701  14.868  1.00  0.00    -0.648 OA
HETATM    8  O   UNL     1      12.046   6.893  16.331  1.00  0.00    -0.648 OA
ENDBRANCH   5   6
ENDBRANCH   4   5
ENDBRANCH   3   4
BRANCH   3   9
HETATM    9  C   UNL     1      13.301   6.200  10.688  1.00  0.00     0.070 C 
BRANCH   9  10
HETATM   10  C   UNL     1      14.763   6.041  11.036  1.00  0.00    -0.053 A 
HETATM   11  C   UNL     1      15.749   6.157  10.046  1.00  0.00     0.043 A 
HETATM   12  C   UNL     1      17.091   6.002  10.376  1.00  0.00     0.066 A 
HETATM   13  C   UNL     1      17.479   5.728  11.684  1.00  0.00     0.036 A 
HETATM   14  C   UNL     1      16.505   5.608  12.674  1.00  0.00     0.003 A 
HETATM   15  C   UNL     1      15.154   5.763  12.354  1.00  0.00     0.007 A 
BRANCH  12  16
HETATM   16  O   UNL     1      18.008   6.127   9.375  1.00  0.00    -0.361 OA
HETATM   17  H   UNL     1      18.369   6.968   9.172  1.00  0.00     0.217 HD
ENDBRANCH  12  16
ENDBRANCH   9  10
ENDBRANCH   3   9
ENDBRANCH   1   3
TORSDOF 7
ENDMDL
MODEL 6
REMARK VINA RESULT:      -6.7      1.870      3.920
REMARK  7 active torsions:
REMARK  status: ('A' for Active; 'I' for Inactive)
REMARK    1  A    between atoms: O_1  and  C_2 
REMARK    2  A    between atoms: C_2  and  C_3 
REMARK    3  A    between atoms: C_2  and  C_8 
REMARK    4  A    between atoms: C_3  and  C_4 
REMARK    5  A    between atoms: C_4  and  C_5 
REMARK    6  A    between atoms: C_8  and  C_9 
REMARK    7  A    between atoms: C_11  and  O_15 
ROOT
HETATM    1  O   UNL     1      15.823   6.675   9.566  1.00  0.00    -0.395 OA
HETATM    2  H   UNL     1      15.960   7.613   9.771  1.00  0.00     0.210 HD
ENDROOT
BRANCH   1   3
HETATM    3  C   UNL     1      14.952   6.098  10.541  1.00  0.00     0.122 C 
BRANCH   3   4
HETATM    4  C   UNL     1      13.526   6.106   9.981  1.00  0.00     0.042 C 
BRANCH   4   5
HETATM    5  C   UNL     1      13.456   5.488   8.587  1.00  0.00     0.116 C 
BRANCH   5   6
HETATM    6  C   UNL     1      12.481   6.239   7.732  1.00  0.00     0.172 C 
HETATM    7  O   UNL     1      12.446   6.247   6.514  1.00  0.00    -0.648 OA
HETATM    8  O   UNL     1      11.570   6.921   8.452  1.00  0.00    -0.648 OA
ENDBRANCH   5   6
ENDBRANCH   4   5
ENDBRANCH   3   4
BRANCH   3   9
HETATM    9  C   UNL     1      15.021   6.872  11.870  1.00  0.00     0.070 C 
BRANCH   9  10
HETATM   10  C   UNL     1      14.366   6.136  13.015  1.00  0.00    -0.053 A 
HETATM   11  C   UNL     1      13.122   6.549  13.510  1.00  0.00     0.043 A 
HETATM   12  C   UNL     1      12.531   5.868  14.569  1.00  0.00     0.066 A 
HETATM   13  C   UNL     1      13.159   4.774  15.156  1.00  0.00     0.036 A 
HETATM   14  C   UNL     1      14.398   4.358  14.672  1.00  0.00     0.003 A 
HETATM   15  C   UNL     1      15.000   5.034  13.608  1.00  0.00     0.007 A 
BRANCH  12  16
HETATM   16  O   UNL     1      11.318   6.311  15.009  1.00  0.00    -0.361 OA
HETATM   17  H   UNL     1      11.000   7.151  14.741  1.00  0.00     0.217 HD
ENDBRANCH  12  16
ENDBRANCH   9  10
ENDBRANCH   3   9
ENDBRANCH   1   3
TORSDOF 7
ENDMDL
MODEL 7
REMARK VINA RESULT:      -6.6      2.379      3.365
REMARK  7 active torsions:
REMARK  status: ('A' for Active; 'I' for Inactive)
REMARK    1  A    between atoms: O_1  and  C_2 
REMARK    2  A    between atoms: C_2  and  C_3 
REMARK    3  A    between atoms: C_2  and  C_8 
REMARK    4  A    between atoms: C_3  and  C_4 
REMARK    5  A    between atoms: C_4  and  C_5 
REMARK    6  A    between atoms: C_8  and  C_9 
REMARK    7  A    between atoms: C_11  and  O_15 
ROOT
HETATM    1  O   UNL     1      11.100   4.740  11.147  1.00  0.00    -0.395 OA
HETATM    2  H   UNL     1      10.228   5.001  11.480  1.00  0.00     0.210 HD
ENDROOT
BRANCH   1   3
HETATM    3  C   UNL     1      11.998   5.847  11.245  1.00  0.00     0.122 C 
BRANCH   3   4
HETATM    4  C   UNL     1      12.120   6.495   9.862  1.00  0.00     0.042 C 
BRANCH   4   5
HETATM    5  C   UNL     1      13.341   5.991   9.100  1.00  0.00     0.116 C 
BRANCH   5   6
HETATM    6  C   UNL     1      12.956   5.577   7.712  1.00  0.00     0.172 C 
HETATM    7  O   UNL     1      13.081   6.244   6.699  1.00  0.00    -0.648 OA
HETATM    8  O   UNL     1      12.461   4.326   7.657  1.00  0.00    -0.648 OA
ENDBRANCH   5   6
ENDBRANCH   4   5
ENDBRANCH   3   4
BRANCH   3   9
HETATM    9  C   UNL     1      13.377   5.396  11.759  1.00  0.00     0.070 C 
BRANCH   9  10
HETATM   10  C   UNL     1      13.693   5.922  13.140  1.00  0.00    -0.053 A 
HETATM   11  C   UNL     1      14.960   5.728  13.705  1.00  0.00     0.043 A 
HETATM   12  C   UNL     1      15.237   6.211  14.980  1.00  0.00     0.066 A 
HETATM   13  C   UNL     1      14.270   6.890  15.714  1.00  0.00     0.036 A 
HETATM   14  C   UNL     1      13.006   7.085  15.161  1.00  0.00     0.003 A 
HETATM   15  C   UNL     1      12.716   6.604  13.881  1.00  0.00     0.007 A 
BRANCH  12  16
HETATM   16  O   UNL     1      16.488   5.996  15.480  1.00  0.00    -0.361 OA
HETATM   17  H   UNL     1      17.070   6.718  15.613  1.00  0.00     0.217 HD
ENDBRANCH  12  16
ENDBRANCH   9  10
ENDBRANCH   3   9
ENDBRANCH   1   3
TORSDOF 7
ENDMDL
MODEL 8
REMARK VINA RESULT:      -6.6      1.755      2.967
REMARK  7 active torsions:
REMARK  status: ('A' for Active; 'I' for Inactive)
REMARK    1  A    between atoms: O_1  and  C_2 
REMARK    2  A    between atoms: C_2  and  C_3 
REMARK    3  A    between atoms: C_2  and  C_8 
REMARK    4  A    between atoms: C_3  and  C_4 
REMARK    5  A    between atoms: C_4  and  C_5 
REMARK    6  A    between atoms: C_8  and  C_9 
REMARK    7  A    between atoms: C_11  and  O_15 
ROOT
HETATM    1  O   UNL     1      11.706   4.268  11.007  1.00  0.00    -0.395 OA
HETATM    2  H   UNL     1      10.766   4.193  11.233  1.00  0.00     0.210 HD
ENDROOT
BRANCH   1   3
HETATM    3  C   UNL     1      11.992   5.607  10.595  1.00  0.00     0.122 C 
BRANCH   3   4
HETATM    4  C   UNL     1      13.103   5.561   9.541  1.00  0.00     0.042 C 
BRANCH   4   5
HETATM    5  C   UNL     1      12.632   4.914   8.242  1.00  0.00     0.116 C 
BRANCH   5   6
HETATM    6  C   UNL     1      12.544   5.937   7.151  1.00  0.00     0.172 C 
HETATM    7  O   UNL     1      11.631   6.065   6.353  1.00  0.00    -0.648 OA
HETATM    8  O   UNL     1      13.596   6.778   7.135  1.00  0.00    -0.648 OA
ENDBRANCH   5   6
ENDBRANCH   4   5
ENDBRANCH   3   4
BRANCH   3   9
HETATM    9  C   UNL     1      12.412   6.475  11.794  1.00  0.00     0.070 C 
BRANCH   9  10
HETATM   10  C   UNL     1      13.729   6.048  12.399  1.00  0.00    -0.053 A 
HETATM   11  C   UNL     1      13.762   5.152  13.476  1.00  0.00     0.043 A 
HETATM   12  C   UNL     1      14.980   4.770  14.029  1.00  0.00     0.066 A 
HETATM   13  C   UNL     1      16.179   5.267  13.530  1.00  0.00     0.036 A 
HETATM   14  C   UNL     1      16.156   6.161  12.460  1.00  0.00     0.003 A 
HETATM   15  C   UNL     1      14.938   6.550  11.897  1.00  0.00     0.007 A 
BRANCH  12  16
HETATM   16  O   UNL     1      14.954   3.894  15.074  1.00  0.00    -0.361 OA
HETATM   17  H   UNL     1      15.658   3.289  15.196  1.00  0.00     0.217 HD
ENDBRANCH  12  16
ENDBRANCH   9  10
ENDBRANCH   3   9
ENDBRANCH   1   3
TORSDOF 7
ENDMDL
MODEL 9
REMARK VINA RESULT:      -6.6      2.382      4.028
REMARK  7 active torsions:
REMARK  status: ('A' for Active; 'I' for Inactive)
REMARK    1  A    between atoms: O_1  and  C_2 
REMARK    2  A    between atoms: C_2  and  C_3 
REMARK    3  A    between atoms: C_2  and  C_8 
REMARK    4  A    between atoms: C_3  and  C_4 
REMARK    5  A    between atoms: C_4  and  C_5 
REMARK    6  A    between atoms: C_8  and  C_9 
REMARK    7  A    between atoms: C_11  and  O_15 
ROOT
HETATM    1  O   UNL     1      12.555   6.127  11.311  1.00  0.00    -0.395 OA
HETATM    2  H   UNL     1      11.926   6.317  12.024  1.00  0.00     0.210 HD
ENDROOT
BRANCH   1   3
HETATM    3  C   UNL     1      13.791   5.680  11.872  1.00  0.00     0.122 C 
BRANCH   3   4
HETATM    4  C   UNL     1      13.526   5.200  13.303  1.00  0.00     0.042 C 
BRANCH   4   5
HETATM    5  C   UNL     1      13.640   6.335  14.316  1.00  0.00     0.116 C 
BRANCH   5   6
HETATM    6  C   UNL     1      12.277   6.796  14.738  1.00  0.00     0.172 C 
HETATM    7  O   UNL     1      11.356   7.097  13.999  1.00  0.00    -0.648 OA
HETATM    8  O   UNL     1      12.125   6.823  16.076  1.00  0.00    -0.648 OA
ENDBRANCH   5   6
ENDBRANCH   4   5
ENDBRANCH   3   4
BRANCH   3   9
HETATM    9  C   UNL     1      14.841   6.805  11.859  1.00  0.00     0.070 C 
BRANCH   9  10
HETATM   10  C   UNL     1      16.237   6.305  11.569  1.00  0.00    -0.053 A 
HETATM   11  C   UNL     1      16.775   6.398  10.279  1.00  0.00     0.043 A 
HETATM   12  C   UNL     1      18.059   5.928  10.022  1.00  0.00     0.066 A 
HETATM   13  C   UNL     1      18.828   5.359  11.032  1.00  0.00     0.036 A 
HETATM   14  C   UNL     1      18.299   5.260  12.318  1.00  0.00     0.003 A 
HETATM   15  C   UNL     1      17.011   5.729  12.587  1.00  0.00     0.007 A 
BRANCH  12  16
HETATM   16  O   UNL     1      18.534   6.046   8.749  1.00  0.00    -0.361 OA
HETATM   17  H   UNL     1      19.051   5.360   8.376  1.00  0.00     0.217 HD
ENDBRANCH  12  16
ENDBRANCH   9  10
ENDBRANCH   3   9
ENDBRANCH   1   3
TORSDOF 7
ENDMDL
