MODEL 1
REMARK VINA RESULT:      -7.1      0.000      0.000
REMARK  7 active torsions:
REMARK  status: ('A' for Active; 'I' for Inactive)
REMARK    1  A    between atoms: O_1  and  C_2 
REMARK    2  A    between atoms: C_2  and  C_3 
REMARK    3  A    between atoms: C_2  and  C_8 
REMARK    4  A    between atoms: C_3  and  C_4 
REMARK    5  A    between atoms: C_4  and  C_5 
REMARK    6  A    between atoms: C_8  and  C_9 
REMARK    7  A    between atoms: C_11  and  O_15 
ROOT
HETATM    1  O   UNL     1      20.015  -1.684  31.224  1.00  0.00    -0.395 OA
HETATM    2  H   UNL     1      19.843  -2.131  30.380  1.00  0.00     0.210 HD
ENDROOT
BRANCH   1   3
HETATM    3  C   UNL     1      20.887  -2.489  32.020  1.00  0.00     0.122 C 
BRANCH   3   4
HETATM    4  C   UNL     1      21.746  -1.561  32.886  1.00  0.00     0.042 C 
BRANCH   4   5
HETATM    5  C   UNL     1      21.328  -1.599  34.353  1.00  0.00     0.116 C 
BRANCH   5   6
HETATM    6  C   UNL     1      22.536  -1.623  35.239  1.00  0.00     0.172 C 
HETATM    7  O   UNL     1      23.645  -1.204  34.958  1.00  0.00    -0.648 OA
HETATM    8  O   UNL     1      22.284  -2.144  36.455  1.00  0.00    -0.648 OA
ENDBRANCH   5   6
ENDBRANCH   4   5
ENDBRANCH   3   4
BRANCH   3   9
HETATM    9  C   UNL     1      21.773  -3.384  31.135  1.00  0.00     0.070 C 
BRANCH   9  10
HETATM   10  C   UNL     1      21.924  -4.785  31.677  1.00  0.00    -0.053 A 
HETATM   11  C   UNL     1      21.664  -5.060  33.026  1.00  0.00     0.043 A 
HETATM   12  C   UNL     1      21.813  -6.353  33.517  1.00  0.00     0.066 A 
HETATM   13  C   UNL     1      22.222  -7.391  32.686  1.00  0.00     0.036 A 
HETATM   14  C   UNL     1      22.485  -7.126  31.343  1.00  0.00     0.003 A 
HETATM   15  C   UNL     1      22.339  -5.831  30.839  1.00  0.00     0.007 A 
BRANCH  12  16
HETATM   16  O   UNL     1      21.544  -6.565  34.837  1.00  0.00    -0.361 OA
HETATM   17  H   UNL     1      20.821  -7.106  35.088  1.00  0.00     0.217 HD
ENDBRANCH  12  16
ENDBRANCH   9  10
ENDBRANCH   3   9
ENDBRANCH   1   3
TORSDOF 7
ENDMDL
MODEL 2
REMARK VINA RESULT:      -6.9      2.335      4.201
REMARK  7 active torsions:
REMARK  status: ('A' for Active; 'I' for Inactive)
REMARK    1  A    between atoms: O_1  and  C_2 
REMARK    2  A    between atoms: C_2  and  C_3 
REMARK    3  A    between atoms: C_2  and  C_8 
REMARK    4  A    between atoms: C_3  and  C_4 
REMARK    5  A    between atoms: C_4  and  C_5 
REMARK    6  A    between atoms: C_8  and  C_9 
REMARK    7  A    between atoms: C_11  and  O_15 
ROOT
HETATM    1  O   UNL     1      21.794  -0.984  31.170  1.00  0.00    -0.395 OA
HETATM    2  H   UNL     1      22.379  -0.829  30.412  1.00  0.00     0.210 HD
ENDROOT
BRANCH   1   3
HETATM    3  C   UNL     1      21.223  -2.291  31.072  1.00  0.00     0.122 C 
BRANCH   3   4
HETATM    4  C   UNL     1      19.754  -2.146  30.661  1.00  0.00     0.042 C 
BRANCH   4   5
HETATM    5  C   UNL     1      19.401  -3.042  29.477  1.00  0.00     0.116 C 
BRANCH   5   6
HETATM    6  C   UNL     1      19.840  -2.407  28.193  1.00  0.00     0.172 C 
HETATM    7  O   UNL     1      20.912  -2.571  27.636  1.00  0.00    -0.648 OA
HETATM    8  O   UNL     1      18.894  -1.619  27.648  1.00  0.00    -0.648 OA
ENDBRANCH   5   6
ENDBRANCH   4   5
ENDBRANCH   3   4
BRANCH   3   9
HETATM    9  C   UNL     1      21.344  -3.048  32.406  1.00  0.00     0.070 C 
BRANCH   9  10
HETATM   10  C   UNL     1      21.915  -4.437  32.246  1.00  0.00    -0.053 A 
HETATM   11  C   UNL     1      22.410  -5.138  33.354  1.00  0.00     0.043 A 
HETATM   12  C   UNL     1      22.940  -6.414  33.194  1.00  0.00     0.066 A 
HETATM   13  C   UNL     1      22.991  -7.015  31.940  1.00  0.00     0.036 A 
HETATM   14  C   UNL     1      22.503  -6.324  30.832  1.00  0.00     0.003 A 
HETATM   15  C   UNL     1      21.969  -5.043  30.981  1.00  0.00     0.007 A 
BRANCH  12  16
HETATM   16  O   UNL     1      23.404  -7.051  34.307  1.00  0.00    -0.361 OA
HETATM   17  H   UNL     1      23.112  -6.785  35.156  1.00  0.00     0.217 HD
ENDBRANCH  12  16
ENDBRANCH   9  10
ENDBRANCH   3   9
ENDBRANCH   1   3
TORSDOF 7
ENDMDL
MODEL 3
REMARK VINA RESULT:      -6.8      2.670      4.436
REMARK  7 active torsions:
REMARK  status: ('A' for Active; 'I' for Inactive)
REMARK    1  A    between atoms: O_1  and  C_2 
REMARK    2  A    between atoms: C_2  and  C_3 
REMARK    3  A    between atoms: C_2  and  C_8 
REMARK    4  A    between atoms: C_3  and  C_4 
REMARK    5  A    between atoms: C_4  and  C_5 
REMARK    6  A    between atoms: C_8  and  C_9 
REMARK    7  A    between atoms: C_11  and  O_15 
ROOT
HETATM    1  O   UNL     1      21.584  -0.839  31.640  1.00  0.00    -0.395 OA
HETATM    2  H   UNL     1      21.871  -0.454  32.483  1.00  0.00     0.210 HD
ENDROOT
BRANCH   1   3
HETATM    3  C   UNL     1      21.075  -2.155  31.868  1.00  0.00     0.122 C 
BRANCH   3   4
HETATM    4  C   UNL     1      21.543  -2.622  33.251  1.00  0.00     0.042 C 
BRANCH   4   5
HETATM    5  C   UNL     1      21.372  -1.536  34.308  1.00  0.00     0.116 C 
BRANCH   5   6
HETATM    6  C   UNL     1      22.436  -1.658  35.357  1.00  0.00     0.172 C 
HETATM    7  O   UNL     1      22.304  -2.147  36.466  1.00  0.00    -0.648 OA
HETATM    8  O   UNL     1      23.630  -1.188  34.949  1.00  0.00    -0.648 OA
ENDBRANCH   5   6
ENDBRANCH   4   5
ENDBRANCH   3   4
BRANCH   3   9
HETATM    9  C   UNL     1      21.551  -3.128  30.774  1.00  0.00     0.070 C 
BRANCH   9  10
HETATM   10  C   UNL     1      20.538  -3.310  29.667  1.00  0.00    -0.053 A 
HETATM   11  C   UNL     1      20.647  -2.585  28.474  1.00  0.00     0.043 A 
HETATM   12  C   UNL     1      19.706  -2.756  27.464  1.00  0.00     0.066 A 
HETATM   13  C   UNL     1      18.645  -3.642  27.618  1.00  0.00     0.036 A 
HETATM   14  C   UNL     1      18.527  -4.366  28.803  1.00  0.00     0.003 A 
HETATM   15  C   UNL     1      19.467  -4.203  29.824  1.00  0.00     0.007 A 
BRANCH  12  16
HETATM   16  O   UNL     1      19.862  -2.026  26.322  1.00  0.00    -0.361 OA
HETATM   17  H   UNL     1      19.949  -1.094  26.370  1.00  0.00     0.217 HD
ENDBRANCH  12  16
ENDBRANCH   9  10
ENDBRANCH   3   9
ENDBRANCH   1   3
TORSDOF 7
ENDMDL
MODEL 4
REMARK VINA RESULT:      -6.7      1.238      1.927
REMARK  7 active torsions:
REMARK  status: ('A' for Active; 'I' for Inactive)
REMARK    1  A    between atoms: O_1  and  C_2 
REMARK    2  A    between atoms: C_2  and  C_3 
REMARK    3  A    between atoms: C_2  and  C_8 
REMARK    4  A    between atoms: C_3  and  C_4 
REMARK    5  A    between atoms: C_4  and  C_5 
REMARK    6  A    between atoms: C_8  and  C_9 
REMARK    7  A    between atoms: C_11  and  O_15 
ROOT
HETATM    1  O   UNL     1      20.097  -1.605  31.215  1.00  0.00    -0.395 OA
HETATM    2  H   UNL     1      19.439  -1.167  31.778  1.00  0.00     0.210 HD
ENDROOT
BRANCH   1   3
HETATM    3  C   UNL     1      20.898  -2.480  32.012  1.00  0.00     0.122 C 
BRANCH   3   4
HETATM    4  C   UNL     1      21.769  -1.627  32.940  1.00  0.00     0.042 C 
BRANCH   4   5
HETATM    5  C   UNL     1      21.266  -1.655  34.380  1.00  0.00     0.116 C 
BRANCH   5   6
HETATM    6  C   UNL     1      22.420  -1.619  35.336  1.00  0.00     0.172 C 
HETATM    7  O   UNL     1      22.412  -2.003  36.493  1.00  0.00    -0.648 OA
HETATM    8  O   UNL     1      23.546  -1.132  34.780  1.00  0.00    -0.648 OA
ENDBRANCH   5   6
ENDBRANCH   4   5
ENDBRANCH   3   4
BRANCH   3   9
HETATM    9  C   UNL     1      21.770  -3.388  31.126  1.00  0.00     0.070 C 
BRANCH   9  10
HETATM   10  C   UNL     1      21.905  -4.790  31.672  1.00  0.00    -0.053 A 
HETATM   11  C   UNL     1      22.496  -5.801  30.902  1.00  0.00     0.043 A 
HETATM   12  C   UNL     1      22.608  -7.091  31.412  1.00  0.00     0.066 A 
HETATM   13  C   UNL     1      22.139  -7.400  32.684  1.00  0.00     0.036 A 
HETATM   14  C   UNL     1      21.547  -6.401  33.456  1.00  0.00     0.003 A 
HETATM   15  C   UNL     1      21.429  -5.103  32.954  1.00  0.00     0.007 A 
BRANCH  12  16
HETATM   16  O   UNL     1      23.194  -8.035  30.621  1.00  0.00    -0.361 OA
HETATM   17  H   UNL     1      22.784  -8.296  29.821  1.00  0.00     0.217 HD
ENDBRANCH  12  16
ENDBRANCH   9  10
ENDBRANCH   3   9
ENDBRANCH   1   3
TORSDOF 7
ENDMDL
MODEL 5
REMARK VINA RESULT:      -6.7      1.808      4.868
REMARK  7 active torsions:
REMARK  status: ('A' for Active; 'I' for Inactive)
REMARK    1  A    between atoms: O_1  and  C_2 
REMARK    2  A    between atoms: C_2  and  C_3 
REMARK    3  A    between atoms: C_2  and  C_8 
REMARK    4  A    between atoms: C_3  and  C_4 
REMARK    5  A    between atoms: C_4  and  C_5 
REMARK    6  A    between atoms: C_8  and  C_9 
REMARK    7  A    between atoms: C_11  and  O_15 
ROOT
HETATM    1  O   UNL     1      22.488  -6.001  29.410  1.00  0.00    -0.395 OA
HETATM    2  H   UNL     1      22.666  -6.905  29.108  1.00  0.00     0.210 HD
ENDROOT
BRANCH   1   3
HETATM    3  C   UNL     1      22.429  -5.979  30.838  1.00  0.00     0.122 C 
BRANCH   3   4
HETATM    4  C   UNL     1      22.537  -7.420  31.348  1.00  0.00     0.042 C 
BRANCH   4   5
HETATM    5  C   UNL     1      23.626  -7.571  32.406  1.00  0.00     0.116 C 
BRANCH   5   6
HETATM    6  C   UNL     1      23.024  -7.566  33.778  1.00  0.00     0.172 C 
HETATM    7  O   UNL     1      23.611  -7.348  34.824  1.00  0.00    -0.648 OA
HETATM    8  O   UNL     1      21.698  -7.802  33.769  1.00  0.00    -0.648 OA
ENDBRANCH   5   6
ENDBRANCH   4   5
ENDBRANCH   3   4
BRANCH   3   9
HETATM    9  C   UNL     1      21.126  -5.323  31.326  1.00  0.00     0.070 C 
BRANCH   9  10
HETATM   10  C   UNL     1      21.357  -4.008  32.034  1.00  0.00    -0.053 A 
HETATM   11  C   UNL     1      21.925  -3.977  33.314  1.00  0.00     0.043 A 
HETATM   12  C   UNL     1      22.127  -2.761  33.959  1.00  0.00     0.066 A 
HETATM   13  C   UNL     1      21.770  -1.562  33.352  1.00  0.00     0.036 A 
HETATM   14  C   UNL     1      21.202  -1.583  32.080  1.00  0.00     0.003 A 
HETATM   15  C   UNL     1      20.995  -2.799  31.423  1.00  0.00     0.007 A 
BRANCH  12  16
HETATM   16  O   UNL     1      22.686  -2.789  35.203  1.00  0.00    -0.361 OA
HETATM   17  H   UNL     1      22.976  -1.994  35.605  1.00  0.00     0.217 HD
ENDBRANCH  12  16
ENDBRANCH   9  10
ENDBRANCH   3   9
ENDBRANCH   1   3
TORSDOF 7
ENDMDL
MODEL 6
REMARK VINA RESULT:      -6.6      2.640      4.139
REMARK  7 active torsions:
REMARK  status: ('A' for Active; 'I' for Inactive)
REMARK    1  A    between atoms: O_1  and  C_2 
REMARK    2  A    between atoms: C_2  and  C_3 
REMARK    3  A    between atoms: C_2  and  C_8 
REMARK    4  A    between atoms: C_3  and  C_4 
REMARK    5  A    between atoms: C_4  and  C_5 
REMARK    6  A    between atoms: C_8  and  C_9 
REMARK    7  A    between atoms: C_11  and  O_15 
ROOT
HETATM    1  O   UNL     1      21.701  -0.859  31.640  1.00  0.00    -0.395 OA
HETATM    2  H   UNL     1      21.075  -0.317  31.137  1.00  0.00     0.210 HD
ENDROOT
BRANCH   1   3
HETATM    3  C   UNL     1      21.149  -2.162  31.842  1.00  0.00     0.122 C 
BRANCH   3   4
HETATM    4  C   UNL     1      21.537  -2.639  33.246  1.00  0.00     0.042 C 
BRANCH   4   5
HETATM    5  C   UNL     1      21.373  -1.538  34.289  1.00  0.00     0.116 C 
BRANCH   5   6
HETATM    6  C   UNL     1      22.418  -1.671  35.356  1.00  0.00     0.172 C 
HETATM    7  O   UNL     1      22.264  -2.166  36.459  1.00  0.00    -0.648 OA
HETATM    8  O   UNL     1      23.621  -1.206  34.971  1.00  0.00    -0.648 OA
ENDBRANCH   5   6
ENDBRANCH   4   5
ENDBRANCH   3   4
BRANCH   3   9
HETATM    9  C   UNL     1      21.653  -3.146  30.772  1.00  0.00     0.070 C 
BRANCH   9  10
HETATM   10  C   UNL     1      20.760  -3.202  29.555  1.00  0.00    -0.053 A 
HETATM   11  C   UNL     1      19.587  -3.968  29.565  1.00  0.00     0.043 A 
HETATM   12  C   UNL     1      18.775  -4.017  28.436  1.00  0.00     0.066 A 
HETATM   13  C   UNL     1      19.110  -3.314  27.283  1.00  0.00     0.036 A 
HETATM   14  C   UNL     1      20.277  -2.552  27.263  1.00  0.00     0.003 A 
HETATM   15  C   UNL     1      21.099  -2.495  28.391  1.00  0.00     0.007 A 
BRANCH  12  16
HETATM   16  O   UNL     1      17.644  -4.776  28.502  1.00  0.00    -0.361 OA
HETATM   17  H   UNL     1      17.690  -5.660  28.809  1.00  0.00     0.217 HD
ENDBRANCH  12  16
ENDBRANCH   9  10
ENDBRANCH   3   9
ENDBRANCH   1   3
TORSDOF 7
ENDMDL
MODEL 7
REMARK VINA RESULT:      -6.5      1.804      2.832
REMARK  7 active torsions:
REMARK  status: ('A' for Active; 'I' for Inactive)
REMARK    1  A    between atoms: O_1  and  C_2 
REMARK    2  A    between atoms: C_2  and  C_3 
REMARK    3  A    between atoms: C_2  and  C_8 
REMARK    4  A    between atoms: C_3  and  C_4 
REMARK    5  A    between atoms: C_4  and  C_5 
REMARK    6  A    between atoms: C_8  and  C_9 
REMARK    7  A    between atoms: C_11  and  O_15 
ROOT
HETATM    1  O   UNL     1      22.199  -0.981  31.116  1.00  0.00    -0.395 OA
HETATM    2  H   UNL     1      22.568  -1.659  30.529  1.00  0.00     0.210 HD
ENDROOT
BRANCH   1   3
HETATM    3  C   UNL     1      21.149  -1.551  31.901  1.00  0.00     0.122 C 
BRANCH   3   4
HETATM    4  C   UNL     1      21.775  -2.236  33.121  1.00  0.00     0.042 C 
BRANCH   4   5
HETATM    5  C   UNL     1      21.352  -1.573  34.428  1.00  0.00     0.116 C 
BRANCH   5   6
HETATM    6  C   UNL     1      22.468  -1.630  35.427  1.00  0.00     0.172 C 
HETATM    7  O   UNL     1      22.395  -2.055  36.567  1.00  0.00    -0.648 OA
HETATM    8  O   UNL     1      23.637  -1.180  34.932  1.00  0.00    -0.648 OA
ENDBRANCH   5   6
ENDBRANCH   4   5
ENDBRANCH   3   4
BRANCH   3   9
HETATM    9  C   UNL     1      20.325  -2.554  31.075  1.00  0.00     0.070 C 
BRANCH   9  10
HETATM   10  C   UNL     1      21.091  -3.813  30.741  1.00  0.00    -0.053 A 
HETATM   11  C   UNL     1      21.687  -3.973  29.483  1.00  0.00     0.043 A 
HETATM   12  C   UNL     1      22.385  -5.138  29.184  1.00  0.00     0.066 A 
HETATM   13  C   UNL     1      22.502  -6.162  30.119  1.00  0.00     0.036 A 
HETATM   14  C   UNL     1      21.909  -6.012  31.372  1.00  0.00     0.003 A 
HETATM   15  C   UNL     1      21.207  -4.846  31.683  1.00  0.00     0.007 A 
BRANCH  12  16
HETATM   16  O   UNL     1      22.947  -5.239  27.946  1.00  0.00    -0.361 OA
HETATM   17  H   UNL     1      22.798  -4.570  27.307  1.00  0.00     0.217 HD
ENDBRANCH  12  16
ENDBRANCH   9  10
ENDBRANCH   3   9
ENDBRANCH   1   3
TORSDOF 7
ENDMDL
MODEL 8
REMARK VINA RESULT:      -6.4      2.866      5.601
REMARK  7 active torsions:
REMARK  status: ('A' for Active; 'I' for Inactive)
REMARK    1  A    between atoms: O_1  and  C_2 
REMARK    2  A    between atoms: C_2  and  C_3 
REMARK    3  A    between atoms: C_2  and  C_8 
REMARK    4  A    between atoms: C_3  and  C_4 
REMARK    5  A    between atoms: C_4  and  C_5 
REMARK    6  A    between atoms: C_8  and  C_9 
REMARK    7  A    between atoms: C_11  and  O_15 
ROOT
HETATM    1  O   UNL     1      21.111  -1.866  28.313  1.00  0.00    -0.395 OA
HETATM    2  H   UNL     1      20.236  -1.450  28.288  1.00  0.00     0.210 HD
ENDROOT
BRANCH   1   3
HETATM    3  C   UNL     1      21.119  -2.902  29.298  1.00  0.00     0.122 C 
BRANCH   3   4
HETATM    4  C   UNL     1      20.585  -4.186  28.653  1.00  0.00     0.042 C 
BRANCH   4   5
HETATM    5  C   UNL     1      19.159  -4.498  29.097  1.00  0.00     0.116 C 
BRANCH   5   6
HETATM    6  C   UNL     1      18.208  -4.329  27.951  1.00  0.00     0.172 C 
HETATM    7  O   UNL     1      17.342  -5.116  27.611  1.00  0.00    -0.648 OA
HETATM    8  O   UNL     1      18.368  -3.158  27.306  1.00  0.00    -0.648 OA
ENDBRANCH   5   6
ENDBRANCH   4   5
ENDBRANCH   3   4
BRANCH   3   9
HETATM    9  C   UNL     1      20.268  -2.509  30.518  1.00  0.00     0.070 C 
BRANCH   9  10
HETATM   10  C   UNL     1      20.987  -2.718  31.830  1.00  0.00    -0.053 A 
HETATM   11  C   UNL     1      21.515  -3.973  32.163  1.00  0.00     0.043 A 
HETATM   12  C   UNL     1      22.170  -4.155  33.377  1.00  0.00     0.066 A 
HETATM   13  C   UNL     1      22.311  -3.105  34.278  1.00  0.00     0.036 A 
HETATM   14  C   UNL     1      21.786  -1.855  33.957  1.00  0.00     0.003 A 
HETATM   15  C   UNL     1      21.127  -1.660  32.740  1.00  0.00     0.007 A 
BRANCH  12  16
HETATM   16  O   UNL     1      22.666  -5.396  33.648  1.00  0.00    -0.361 OA
HETATM   17  H   UNL     1      23.585  -5.513  33.787  1.00  0.00     0.217 HD
ENDBRANCH  12  16
ENDBRANCH   9  10
ENDBRANCH   3   9
ENDBRANCH   1   3
TORSDOF 7
ENDMDL
MODEL 9
REMARK VINA RESULT:      -6.3      3.172      5.832
REMARK  7 active torsions:
REMARK  status: ('A' for Active; 'I' for Inactive)
REMARK    1  A    between atoms: O_1  and  C_2 
REMARK    2  A    between atoms: C_2  and  C_3 
REMARK    3  A    between atoms: C_2  and  C_8 
REMARK    4  A    between atoms: C_3  and  C_4 
REMARK    5  A    between atoms: C_4  and  C_5 
REMARK    6  A    between atoms: C_8  and  C_9 
REMARK    7  A    between atoms: C_11  and  O_15 
ROOT
HETATM    1  O   UNL     1      18.631  -4.264  29.470  1.00  0.00    -0.395 OA
HETATM    2  H   UNL     1      18.385  -3.690  30.212  1.00  0.00     0.210 HD
ENDROOT
BRANCH   1   3
HETATM    3  C   UNL     1      19.941  -3.919  29.014  1.00  0.00     0.122 C 
BRANCH   3   4
HETATM    4  C   UNL     1      20.028  -4.227  27.515  1.00  0.00     0.042 C 
BRANCH   4   5
HETATM    5  C   UNL     1      19.038  -3.398  26.703  1.00  0.00     0.116 C 
BRANCH   5   6
HETATM    6  C   UNL     1      19.495  -1.973  26.622  1.00  0.00     0.172 C 
HETATM    7  O   UNL     1      20.417  -1.548  25.947  1.00  0.00    -0.648 OA
HETATM    8  O   UNL     1      18.746  -1.139  27.369  1.00  0.00    -0.648 OA
ENDBRANCH   5   6
ENDBRANCH   4   5
ENDBRANCH   3   4
BRANCH   3   9
HETATM    9  C   UNL     1      21.019  -4.693  29.794  1.00  0.00     0.070 C 
BRANCH   9  10
HETATM   10  C   UNL     1      21.350  -4.061  31.126  1.00  0.00    -0.053 A 
HETATM   11  C   UNL     1      21.314  -2.670  31.285  1.00  0.00     0.043 A 
HETATM   12  C   UNL     1      21.628  -2.099  32.514  1.00  0.00     0.066 A 
HETATM   13  C   UNL     1      21.981  -2.892  33.601  1.00  0.00     0.036 A 
HETATM   14  C   UNL     1      22.022  -4.277  33.452  1.00  0.00     0.003 A 
HETATM   15  C   UNL     1      21.708  -4.861  32.222  1.00  0.00     0.007 A 
BRANCH  12  16
HETATM   16  O   UNL     1      21.575  -0.740  32.613  1.00  0.00    -0.361 OA
HETATM   17  H   UNL     1      20.758  -0.314  32.787  1.00  0.00     0.217 HD
ENDBRANCH  12  16
ENDBRANCH   9  10
ENDBRANCH   3   9
ENDBRANCH   1   3
TORSDOF 7
ENDMDL
