MODEL 1
REMARK VINA RESULT:      -7.1      0.000      0.000
REMARK  7 active torsions:
REMARK  status: ('A' for Active; 'I' for Inactive)
REMARK    1  A    between atoms: O_1  and  C_2 
REMARK    2  A    between atoms: C_2  and  C_3 
REMARK    3  A    between atoms: C_2  and  C_8 
REMARK    4  A    between atoms: C_3  and  C_4 
REMARK    5  A    between atoms: C_4  and  C_5 
REMARK    6  A    between atoms: C_8  and  C_9 
REMARK    7  A    between atoms: C_11  and  O_15 
ROOT
HETATM    1  O   UNL     1      20.074  -1.634  31.207  1.00  0.00    -0.395 OA
HETATM    2  H   UNL     1      19.146  -1.785  31.445  1.00  0.00     0.210 HD
ENDROOT
BRANCH   1   3
HETATM    3  C   UNL     1      20.912  -2.478  32.000  1.00  0.00     0.122 C 
BRANCH   3   4
HETATM    4  C   UNL     1      21.797  -1.590  32.881  1.00  0.00     0.042 C 
BRANCH   4   5
HETATM    5  C   UNL     1      21.356  -1.612  34.341  1.00  0.00     0.116 C 
BRANCH   5   6
HETATM    6  C   UNL     1      22.550  -1.621  35.247  1.00  0.00     0.172 C 
HETATM    7  O   UNL     1      23.663  -1.205  34.977  1.00  0.00    -0.648 OA
HETATM    8  O   UNL     1      22.278  -2.124  36.466  1.00  0.00    -0.648 OA
ENDBRANCH   5   6
ENDBRANCH   4   5
ENDBRANCH   3   4
BRANCH   3   9
HETATM    9  C   UNL     1      21.771  -3.395  31.111  1.00  0.00     0.070 C 
BRANCH   9  10
HETATM   10  C   UNL     1      21.890  -4.800  31.654  1.00  0.00    -0.053 A 
HETATM   11  C   UNL     1      21.654  -5.063  33.010  1.00  0.00     0.043 A 
HETATM   12  C   UNL     1      21.772  -6.359  33.500  1.00  0.00     0.066 A 
HETATM   13  C   UNL     1      22.127  -7.411  32.662  1.00  0.00     0.036 A 
HETATM   14  C   UNL     1      22.366  -7.158  31.312  1.00  0.00     0.003 A 
HETATM   15  C   UNL     1      22.249  -5.860  30.809  1.00  0.00     0.007 A 
BRANCH  12  16
HETATM   16  O   UNL     1      21.529  -6.559  34.827  1.00  0.00    -0.361 OA
HETATM   17  H   UNL     1      21.225  -5.851  35.360  1.00  0.00     0.217 HD
ENDBRANCH  12  16
ENDBRANCH   9  10
ENDBRANCH   3   9
ENDBRANCH   1   3
TORSDOF 7
ENDMDL
MODEL 2
REMARK VINA RESULT:      -6.8      2.350      4.224
REMARK  7 active torsions:
REMARK  status: ('A' for Active; 'I' for Inactive)
REMARK    1  A    between atoms: O_1  and  C_2 
REMARK    2  A    between atoms: C_2  and  C_3 
REMARK    3  A    between atoms: C_2  and  C_8 
REMARK    4  A    between atoms: C_3  and  C_4 
REMARK    5  A    between atoms: C_4  and  C_5 
REMARK    6  A    between atoms: C_8  and  C_9 
REMARK    7  A    between atoms: C_11  and  O_15 
ROOT
HETATM    1  O   UNL     1      21.914  -1.063  31.152  1.00  0.00    -0.395 OA
HETATM    2  H   UNL     1      22.556  -0.962  30.433  1.00  0.00     0.210 HD
ENDROOT
BRANCH   1   3
HETATM    3  C   UNL     1      21.285  -2.343  31.053  1.00  0.00     0.122 C 
BRANCH   3   4
HETATM    4  C   UNL     1      19.827  -2.134  30.630  1.00  0.00     0.042 C 
BRANCH   4   5
HETATM    5  C   UNL     1      19.449  -3.006  29.436  1.00  0.00     0.116 C 
BRANCH   5   6
HETATM    6  C   UNL     1      19.828  -2.328  28.154  1.00  0.00     0.172 C 
HETATM    7  O   UNL     1      20.942  -2.286  27.662  1.00  0.00    -0.648 OA
HETATM    8  O   UNL     1      18.777  -1.761  27.532  1.00  0.00    -0.648 OA
ENDBRANCH   5   6
ENDBRANCH   4   5
ENDBRANCH   3   4
BRANCH   3   9
HETATM    9  C   UNL     1      21.362  -3.100  32.391  1.00  0.00     0.070 C 
BRANCH   9  10
HETATM   10  C   UNL     1      21.936  -4.491  32.249  1.00  0.00    -0.053 A 
HETATM   11  C   UNL     1      22.430  -5.176  33.366  1.00  0.00     0.043 A 
HETATM   12  C   UNL     1      22.962  -6.454  33.223  1.00  0.00     0.066 A 
HETATM   13  C   UNL     1      23.015  -7.071  31.977  1.00  0.00     0.036 A 
HETATM   14  C   UNL     1      22.528  -6.395  30.860  1.00  0.00     0.003 A 
HETATM   15  C   UNL     1      21.991  -5.112  30.992  1.00  0.00     0.007 A 
BRANCH  12  16
HETATM   16  O   UNL     1      23.427  -7.076  34.345  1.00  0.00    -0.361 OA
HETATM   17  H   UNL     1      23.656  -7.983  34.316  1.00  0.00     0.217 HD
ENDBRANCH  12  16
ENDBRANCH   9  10
ENDBRANCH   3   9
ENDBRANCH   1   3
TORSDOF 7
ENDMDL
MODEL 3
REMARK VINA RESULT:      -6.8      1.368      1.806
REMARK  7 active torsions:
REMARK  status: ('A' for Active; 'I' for Inactive)
REMARK    1  A    between atoms: O_1  and  C_2 
REMARK    2  A    between atoms: C_2  and  C_3 
REMARK    3  A    between atoms: C_2  and  C_8 
REMARK    4  A    between atoms: C_3  and  C_4 
REMARK    5  A    between atoms: C_4  and  C_5 
REMARK    6  A    between atoms: C_8  and  C_9 
REMARK    7  A    between atoms: C_11  and  O_15 
ROOT
HETATM    1  O   UNL     1      19.962  -1.584  31.312  1.00  0.00    -0.395 OA
HETATM    2  H   UNL     1      19.074  -1.692  31.687  1.00  0.00     0.210 HD
ENDROOT
BRANCH   1   3
HETATM    3  C   UNL     1      20.881  -2.421  32.018  1.00  0.00     0.122 C 
BRANCH   3   4
HETATM    4  C   UNL     1      21.746  -1.534  32.921  1.00  0.00     0.042 C 
BRANCH   4   5
HETATM    5  C   UNL     1      21.349  -1.655  34.389  1.00  0.00     0.116 C 
BRANCH   5   6
HETATM    6  C   UNL     1      22.566  -1.622  35.263  1.00  0.00     0.172 C 
HETATM    7  O   UNL     1      23.664  -1.191  34.955  1.00  0.00    -0.648 OA
HETATM    8  O   UNL     1      22.336  -2.103  36.500  1.00  0.00    -0.648 OA
ENDBRANCH   5   6
ENDBRANCH   4   5
ENDBRANCH   3   4
BRANCH   3   9
HETATM    9  C   UNL     1      21.758  -3.224  31.041  1.00  0.00     0.070 C 
BRANCH   9  10
HETATM   10  C   UNL     1      21.915  -4.672  31.444  1.00  0.00    -0.053 A 
HETATM   11  C   UNL     1      21.740  -5.697  30.505  1.00  0.00     0.043 A 
HETATM   12  C   UNL     1      21.881  -7.027  30.888  1.00  0.00     0.066 A 
HETATM   13  C   UNL     1      22.193  -7.363  32.201  1.00  0.00     0.036 A 
HETATM   14  C   UNL     1      22.365  -6.350  33.143  1.00  0.00     0.003 A 
HETATM   15  C   UNL     1      22.227  -5.011  32.769  1.00  0.00     0.007 A 
BRANCH  12  16
HETATM   16  O   UNL     1      21.703  -7.983  29.932  1.00  0.00    -0.361 OA
HETATM   17  H   UNL     1      21.323  -7.756  29.107  1.00  0.00     0.217 HD
ENDBRANCH  12  16
ENDBRANCH   9  10
ENDBRANCH   3   9
ENDBRANCH   1   3
TORSDOF 7
ENDMDL
MODEL 4
REMARK VINA RESULT:      -6.8      2.660      4.415
REMARK  7 active torsions:
REMARK  status: ('A' for Active; 'I' for Inactive)
REMARK    1  A    between atoms: O_1  and  C_2 
REMARK    2  A    between atoms: C_2  and  C_3 
REMARK    3  A    between atoms: C_2  and  C_8 
REMARK    4  A    between atoms: C_3  and  C_4 
REMARK    5  A    between atoms: C_4  and  C_5 
REMARK    6  A    between atoms: C_8  and  C_9 
REMARK    7  A    between atoms: C_11  and  O_15 
ROOT
HETATM    1  O   UNL     1      21.686  -0.838  31.607  1.00  0.00    -0.395 OA
HETATM    2  H   UNL     1      21.515  -0.568  30.691  1.00  0.00     0.210 HD
ENDROOT
BRANCH   1   3
HETATM    3  C   UNL     1      21.133  -2.137  31.831  1.00  0.00     0.122 C 
BRANCH   3   4
HETATM    4  C   UNL     1      21.579  -2.619  33.215  1.00  0.00     0.042 C 
BRANCH   4   5
HETATM    5  C   UNL     1      21.363  -1.555  34.288  1.00  0.00     0.116 C 
BRANCH   5   6
HETATM    6  C   UNL     1      22.420  -1.659  35.345  1.00  0.00     0.172 C 
HETATM    7  O   UNL     1      22.282  -2.135  36.459  1.00  0.00    -0.648 OA
HETATM    8  O   UNL     1      23.615  -1.189  34.939  1.00  0.00    -0.648 OA
ENDBRANCH   5   6
ENDBRANCH   4   5
ENDBRANCH   3   4
BRANCH   3   9
HETATM    9  C   UNL     1      21.583  -3.124  30.738  1.00  0.00     0.070 C 
BRANCH   9  10
HETATM   10  C   UNL     1      20.551  -3.310  29.651  1.00  0.00    -0.053 A 
HETATM   11  C   UNL     1      20.631  -2.579  28.458  1.00  0.00     0.043 A 
HETATM   12  C   UNL     1      19.671  -2.754  27.467  1.00  0.00     0.066 A 
HETATM   13  C   UNL     1      18.620  -3.649  27.638  1.00  0.00     0.036 A 
HETATM   14  C   UNL     1      18.531  -4.378  28.823  1.00  0.00     0.003 A 
HETATM   15  C   UNL     1      19.490  -4.211  29.825  1.00  0.00     0.007 A 
BRANCH  12  16
HETATM   16  O   UNL     1      19.799  -2.019  26.325  1.00  0.00    -0.361 OA
HETATM   17  H   UNL     1      20.348  -2.324  25.630  1.00  0.00     0.217 HD
ENDBRANCH  12  16
ENDBRANCH   9  10
ENDBRANCH   3   9
ENDBRANCH   1   3
TORSDOF 7
ENDMDL
MODEL 5
REMARK VINA RESULT:      -6.7      2.054      5.123
REMARK  7 active torsions:
REMARK  status: ('A' for Active; 'I' for Inactive)
REMARK    1  A    between atoms: O_1  and  C_2 
REMARK    2  A    between atoms: C_2  and  C_3 
REMARK    3  A    between atoms: C_2  and  C_8 
REMARK    4  A    between atoms: C_3  and  C_4 
REMARK    5  A    between atoms: C_4  and  C_5 
REMARK    6  A    between atoms: C_8  and  C_9 
REMARK    7  A    between atoms: C_11  and  O_15 
ROOT
HETATM    1  O   UNL     1      22.102  -6.274  29.256  1.00  0.00    -0.395 OA
HETATM    2  H   UNL     1      22.892  -6.720  28.914  1.00  0.00     0.210 HD
ENDROOT
BRANCH   1   3
HETATM    3  C   UNL     1      22.249  -6.060  30.662  1.00  0.00     0.122 C 
BRANCH   3   4
HETATM    4  C   UNL     1      22.435  -7.421  31.341  1.00  0.00     0.042 C 
BRANCH   4   5
HETATM    5  C   UNL     1      23.491  -7.371  32.441  1.00  0.00     0.116 C 
BRANCH   5   6
HETATM    6  C   UNL     1      22.862  -7.610  33.780  1.00  0.00     0.172 C 
HETATM    7  O   UNL     1      23.436  -7.624  34.855  1.00  0.00    -0.648 OA
HETATM    8  O   UNL     1      21.528  -7.786  33.708  1.00  0.00    -0.648 OA
ENDBRANCH   5   6
ENDBRANCH   4   5
ENDBRANCH   3   4
BRANCH   3   9
HETATM    9  C   UNL     1      21.025  -5.325  31.238  1.00  0.00     0.070 C 
BRANCH   9  10
HETATM   10  C   UNL     1      21.397  -4.091  32.027  1.00  0.00    -0.053 A 
HETATM   11  C   UNL     1      21.320  -2.820  31.443  1.00  0.00     0.043 A 
HETATM   12  C   UNL     1      21.670  -1.691  32.177  1.00  0.00     0.066 A 
HETATM   13  C   UNL     1      22.103  -1.801  33.494  1.00  0.00     0.036 A 
HETATM   14  C   UNL     1      22.185  -3.062  34.083  1.00  0.00     0.003 A 
HETATM   15  C   UNL     1      21.835  -4.202  33.355  1.00  0.00     0.007 A 
BRANCH  12  16
HETATM   16  O   UNL     1      21.574  -0.479  31.559  1.00  0.00    -0.361 OA
HETATM   17  H   UNL     1      21.201   0.250  32.013  1.00  0.00     0.217 HD
ENDBRANCH  12  16
ENDBRANCH   9  10
ENDBRANCH   3   9
ENDBRANCH   1   3
TORSDOF 7
ENDMDL
MODEL 6
REMARK VINA RESULT:      -6.7      1.813      4.828
REMARK  7 active torsions:
REMARK  status: ('A' for Active; 'I' for Inactive)
REMARK    1  A    between atoms: O_1  and  C_2 
REMARK    2  A    between atoms: C_2  and  C_3 
REMARK    3  A    between atoms: C_2  and  C_8 
REMARK    4  A    between atoms: C_3  and  C_4 
REMARK    5  A    between atoms: C_4  and  C_5 
REMARK    6  A    between atoms: C_8  and  C_9 
REMARK    7  A    between atoms: C_11  and  O_15 
ROOT
HETATM    1  O   UNL     1      22.377  -6.279  29.537  1.00  0.00    -0.395 OA
HETATM    2  H   UNL     1      23.242  -6.509  29.163  1.00  0.00     0.210 HD
ENDROOT
BRANCH   1   3
HETATM    3  C   UNL     1      22.530  -5.946  30.918  1.00  0.00     0.122 C 
BRANCH   3   4
HETATM    4  C   UNL     1      22.932  -7.214  31.680  1.00  0.00     0.042 C 
BRANCH   4   5
HETATM    5  C   UNL     1      21.937  -7.557  32.784  1.00  0.00     0.116 C 
BRANCH   5   6
HETATM    6  C   UNL     1      22.638  -7.650  34.106  1.00  0.00     0.172 C 
HETATM    7  O   UNL     1      23.662  -7.070  34.422  1.00  0.00    -0.648 OA
HETATM    8  O   UNL     1      21.996  -8.444  34.984  1.00  0.00    -0.648 OA
ENDBRANCH   5   6
ENDBRANCH   4   5
ENDBRANCH   3   4
BRANCH   3   9
HETATM    9  C   UNL     1      21.228  -5.356  31.490  1.00  0.00     0.070 C 
BRANCH   9  10
HETATM   10  C   UNL     1      21.430  -4.012  32.150  1.00  0.00    -0.053 A 
HETATM   11  C   UNL     1      21.979  -3.924  33.437  1.00  0.00     0.043 A 
HETATM   12  C   UNL     1      22.154  -2.682  34.037  1.00  0.00     0.066 A 
HETATM   13  C   UNL     1      21.790  -1.511  33.379  1.00  0.00     0.036 A 
HETATM   14  C   UNL     1      21.241  -1.590  32.100  1.00  0.00     0.003 A 
HETATM   15  C   UNL     1      21.061  -2.832  31.488  1.00  0.00     0.007 A 
BRANCH  12  16
HETATM   16  O   UNL     1      22.695  -2.654  35.289  1.00  0.00    -0.361 OA
HETATM   17  H   UNL     1      23.625  -2.675  35.399  1.00  0.00     0.217 HD
ENDBRANCH  12  16
ENDBRANCH   9  10
ENDBRANCH   3   9
ENDBRANCH   1   3
TORSDOF 7
ENDMDL
MODEL 7
REMARK VINA RESULT:      -6.6      3.234      5.889
REMARK  7 active torsions:
REMARK  status: ('A' for Active; 'I' for Inactive)
REMARK    1  A    between atoms: O_1  and  C_2 
REMARK    2  A    between atoms: C_2  and  C_3 
REMARK    3  A    between atoms: C_2  and  C_8 
REMARK    4  A    between atoms: C_3  and  C_4 
REMARK    5  A    between atoms: C_4  and  C_5 
REMARK    6  A    between atoms: C_8  and  C_9 
REMARK    7  A    between atoms: C_11  and  O_15 
ROOT
HETATM    1  O   UNL     1      18.491  -4.254  28.697  1.00  0.00    -0.395 OA
HETATM    2  H   UNL     1      18.215  -4.976  29.282  1.00  0.00     0.210 HD
ENDROOT
BRANCH   1   3
HETATM    3  C   UNL     1      19.769  -3.768  29.113  1.00  0.00     0.122 C 
BRANCH   3   4
HETATM    4  C   UNL     1      20.618  -3.510  27.863  1.00  0.00     0.042 C 
BRANCH   4   5
HETATM    5  C   UNL     1      20.669  -2.028  27.502  1.00  0.00     0.116 C 
BRANCH   5   6
HETATM    6  C   UNL     1      19.790  -1.749  26.320  1.00  0.00     0.172 C 
HETATM    7  O   UNL     1      20.163  -1.494  25.188  1.00  0.00    -0.648 OA
HETATM    8  O   UNL     1      18.478  -1.839  26.610  1.00  0.00    -0.648 OA
ENDBRANCH   5   6
ENDBRANCH   4   5
ENDBRANCH   3   4
BRANCH   3   9
HETATM    9  C   UNL     1      20.465  -4.773  30.047  1.00  0.00     0.070 C 
BRANCH   9  10
HETATM   10  C   UNL     1      21.025  -4.129  31.294  1.00  0.00    -0.053 A 
HETATM   11  C   UNL     1      21.058  -2.734  31.423  1.00  0.00     0.043 A 
HETATM   12  C   UNL     1      21.582  -2.151  32.572  1.00  0.00     0.066 A 
HETATM   13  C   UNL     1      22.083  -2.935  33.607  1.00  0.00     0.036 A 
HETATM   14  C   UNL     1      22.057  -4.324  33.485  1.00  0.00     0.003 A 
HETATM   15  C   UNL     1      21.532  -4.919  32.336  1.00  0.00     0.007 A 
BRANCH  12  16
HETATM   16  O   UNL     1      21.586  -0.789  32.647  1.00  0.00    -0.361 OA
HETATM   17  H   UNL     1      21.066  -0.354  33.292  1.00  0.00     0.217 HD
ENDBRANCH  12  16
ENDBRANCH   9  10
ENDBRANCH   3   9
ENDBRANCH   1   3
TORSDOF 7
ENDMDL
MODEL 8
REMARK VINA RESULT:      -6.6      1.548      2.082
REMARK  7 active torsions:
REMARK  status: ('A' for Active; 'I' for Inactive)
REMARK    1  A    between atoms: O_1  and  C_2 
REMARK    2  A    between atoms: C_2  and  C_3 
REMARK    3  A    between atoms: C_2  and  C_8 
REMARK    4  A    between atoms: C_3  and  C_4 
REMARK    5  A    between atoms: C_4  and  C_5 
REMARK    6  A    between atoms: C_8  and  C_9 
REMARK    7  A    between atoms: C_11  and  O_15 
ROOT
HETATM    1  O   UNL     1      20.054  -3.432  30.193  1.00  0.00    -0.395 OA
HETATM    2  H   UNL     1      20.515  -2.773  29.651  1.00  0.00     0.210 HD
ENDROOT
BRANCH   1   3
HETATM    3  C   UNL     1      20.826  -3.710  31.364  1.00  0.00     0.122 C 
BRANCH   3   4
HETATM    4  C   UNL     1      21.540  -2.421  31.789  1.00  0.00     0.042 C 
BRANCH   4   5
HETATM    5  C   UNL     1      21.099  -1.954  33.173  1.00  0.00     0.116 C 
BRANCH   5   6
HETATM    6  C   UNL     1      22.142  -2.294  34.194  1.00  0.00     0.172 C 
HETATM    7  O   UNL     1      22.482  -3.414  34.534  1.00  0.00    -0.648 OA
HETATM    8  O   UNL     1      22.737  -1.205  34.717  1.00  0.00    -0.648 OA
ENDBRANCH   5   6
ENDBRANCH   4   5
ENDBRANCH   3   4
BRANCH   3   9
HETATM    9  C   UNL     1      21.842  -4.835  31.101  1.00  0.00     0.070 C 
BRANCH   9  10
HETATM   10  C   UNL     1      21.907  -5.845  32.223  1.00  0.00    -0.053 A 
HETATM   11  C   UNL     1      23.073  -6.590  32.446  1.00  0.00     0.043 A 
HETATM   12  C   UNL     1      23.119  -7.522  33.477  1.00  0.00     0.066 A 
HETATM   13  C   UNL     1      22.018  -7.733  34.300  1.00  0.00     0.036 A 
HETATM   14  C   UNL     1      20.853  -6.998  34.084  1.00  0.00     0.003 A 
HETATM   15  C   UNL     1      20.796  -6.059  33.051  1.00  0.00     0.007 A 
BRANCH  12  16
HETATM   16  O   UNL     1      24.280  -8.217  33.651  1.00  0.00    -0.361 OA
HETATM   17  H   UNL     1      24.252  -9.125  33.882  1.00  0.00     0.217 HD
ENDBRANCH  12  16
ENDBRANCH   9  10
ENDBRANCH   3   9
ENDBRANCH   1   3
TORSDOF 7
ENDMDL
MODEL 9
REMARK VINA RESULT:      -6.5      2.303      3.302
REMARK  7 active torsions:
REMARK  status: ('A' for Active; 'I' for Inactive)
REMARK    1  A    between atoms: O_1  and  C_2 
REMARK    2  A    between atoms: C_2  and  C_3 
REMARK    3  A    between atoms: C_2  and  C_8 
REMARK    4  A    between atoms: C_3  and  C_4 
REMARK    5  A    between atoms: C_4  and  C_5 
REMARK    6  A    between atoms: C_8  and  C_9 
REMARK    7  A    between atoms: C_11  and  O_15 
ROOT
HETATM    1  O   UNL     1      21.653  -0.937  31.259  1.00  0.00    -0.395 OA
HETATM    2  H   UNL     1      21.192  -0.100  31.427  1.00  0.00     0.210 HD
ENDROOT
BRANCH   1   3
HETATM    3  C   UNL     1      20.995  -1.993  31.962  1.00  0.00     0.122 C 
BRANCH   3   4
HETATM    4  C   UNL     1      21.049  -1.681  33.462  1.00  0.00     0.042 C 
BRANCH   4   5
HETATM    5  C   UNL     1      22.004  -2.611  34.204  1.00  0.00     0.116 C 
BRANCH   5   6
HETATM    6  C   UNL     1      22.640  -1.894  35.357  1.00  0.00     0.172 C 
HETATM    7  O   UNL     1      22.405  -2.077  36.539  1.00  0.00    -0.648 OA
HETATM    8  O   UNL     1      23.570  -1.001  34.969  1.00  0.00    -0.648 OA
ENDBRANCH   5   6
ENDBRANCH   4   5
ENDBRANCH   3   4
BRANCH   3   9
HETATM    9  C   UNL     1      21.655  -3.350  31.663  1.00  0.00     0.070 C 
BRANCH   9  10
HETATM   10  C   UNL     1      21.143  -3.987  30.392  1.00  0.00    -0.053 A 
HETATM   11  C   UNL     1      19.774  -3.977  30.091  1.00  0.00     0.043 A 
HETATM   12  C   UNL     1      19.313  -4.573  28.921  1.00  0.00     0.066 A 
HETATM   13  C   UNL     1      20.192  -5.187  28.036  1.00  0.00     0.036 A 
HETATM   14  C   UNL     1      21.555  -5.204  28.329  1.00  0.00     0.003 A 
HETATM   15  C   UNL     1      22.030  -4.608  29.500  1.00  0.00     0.007 A 
BRANCH  12  16
HETATM   16  O   UNL     1      17.971  -4.531  28.677  1.00  0.00    -0.361 OA
HETATM   17  H   UNL     1      17.646  -4.077  27.925  1.00  0.00     0.217 HD
ENDBRANCH  12  16
ENDBRANCH   9  10
ENDBRANCH   3   9
ENDBRANCH   1   3
TORSDOF 7
ENDMDL
