MODEL 1
REMARK VINA RESULT:      -7.2      0.000      0.000
REMARK  7 active torsions:
REMARK  status: ('A' for Active; 'I' for Inactive)
REMARK    1  A    between atoms: O_1  and  C_2 
REMARK    2  A    between atoms: C_2  and  C_3 
REMARK    3  A    between atoms: C_2  and  C_8 
REMARK    4  A    between atoms: C_3  and  C_4 
REMARK    5  A    between atoms: C_4  and  C_5 
REMARK    6  A    between atoms: C_8  and  C_9 
REMARK    7  A    between atoms: C_11  and  O_15 
ROOT
HETATM    1  O   UNL     1      11.616   6.469  12.312  1.00  0.00    -0.395 OA
HETATM    2  H   UNL     1      10.904   5.855  12.074  1.00  0.00     0.210 HD
ENDROOT
BRANCH   1   3
HETATM    3  C   UNL     1      12.744   6.241  11.464  1.00  0.00     0.122 C 
BRANCH   3   4
HETATM    4  C   UNL     1      12.275   5.445  10.241  1.00  0.00     0.042 C 
BRANCH   4   5
HETATM    5  C   UNL     1      12.034   6.344   9.032  1.00  0.00     0.116 C 
BRANCH   5   6
HETATM    6  C   UNL     1      12.692   5.769   7.814  1.00  0.00     0.172 C 
HETATM    7  O   UNL     1      13.298   6.391   6.959  1.00  0.00    -0.648 OA
HETATM    8  O   UNL     1      12.585   4.428   7.746  1.00  0.00    -0.648 OA
ENDBRANCH   5   6
ENDBRANCH   4   5
ENDBRANCH   3   4
BRANCH   3   9
HETATM    9  C   UNL     1      13.855   5.485  12.214  1.00  0.00     0.070 C 
BRANCH   9  10
HETATM   10  C   UNL     1      15.243   5.928  11.813  1.00  0.00    -0.053 A 
HETATM   11  C   UNL     1      15.438   6.722  10.676  1.00  0.00     0.043 A 
HETATM   12  C   UNL     1      16.721   7.118  10.313  1.00  0.00     0.066 A 
HETATM   13  C   UNL     1      17.827   6.735  11.064  1.00  0.00     0.036 A 
HETATM   14  C   UNL     1      17.643   5.943  12.195  1.00  0.00     0.003 A 
HETATM   15  C   UNL     1      16.359   5.540  12.570  1.00  0.00     0.007 A 
BRANCH  12  16
HETATM   16  O   UNL     1      16.853   7.893   9.198  1.00  0.00    -0.361 OA
HETATM   17  H   UNL     1      16.192   8.522   8.984  1.00  0.00     0.217 HD
ENDBRANCH  12  16
ENDBRANCH   9  10
ENDBRANCH   3   9
ENDBRANCH   1   3
TORSDOF 7
ENDMDL
MODEL 2
REMARK VINA RESULT:      -7.1      2.461      3.797
REMARK  7 active torsions:
REMARK  status: ('A' for Active; 'I' for Inactive)
REMARK    1  A    between atoms: O_1  and  C_2 
REMARK    2  A    between atoms: C_2  and  C_3 
REMARK    3  A    between atoms: C_2  and  C_8 
REMARK    4  A    between atoms: C_3  and  C_4 
REMARK    5  A    between atoms: C_4  and  C_5 
REMARK    6  A    between atoms: C_8  and  C_9 
REMARK    7  A    between atoms: C_11  and  O_15 
ROOT
HETATM    1  O   UNL     1      11.194   4.704  11.160  1.00  0.00    -0.395 OA
HETATM    2  H   UNL     1      10.265   4.929  11.326  1.00  0.00     0.210 HD
ENDROOT
BRANCH   1   3
HETATM    3  C   UNL     1      11.990   5.889  11.228  1.00  0.00     0.122 C 
BRANCH   3   4
HETATM    4  C   UNL     1      12.045   6.514   9.830  1.00  0.00     0.042 C 
BRANCH   4   5
HETATM    5  C   UNL     1      13.249   6.023   9.031  1.00  0.00     0.116 C 
BRANCH   5   6
HETATM    6  C   UNL     1      12.820   5.568   7.669  1.00  0.00     0.172 C 
HETATM    7  O   UNL     1      12.787   6.248   6.658  1.00  0.00    -0.648 OA
HETATM    8  O   UNL     1      12.485   4.264   7.635  1.00  0.00    -0.648 OA
ENDBRANCH   5   6
ENDBRANCH   4   5
ENDBRANCH   3   4
BRANCH   3   9
HETATM    9  C   UNL     1      13.406   5.573  11.740  1.00  0.00     0.070 C 
BRANCH   9  10
HETATM   10  C   UNL     1      13.565   5.816  13.223  1.00  0.00    -0.053 A 
HETATM   11  C   UNL     1      12.449   6.099  14.023  1.00  0.00     0.043 A 
HETATM   12  C   UNL     1      12.608   6.328  15.386  1.00  0.00     0.066 A 
HETATM   13  C   UNL     1      13.866   6.284  15.977  1.00  0.00     0.036 A 
HETATM   14  C   UNL     1      14.981   6.006  15.189  1.00  0.00     0.003 A 
HETATM   15  C   UNL     1      14.834   5.774  13.819  1.00  0.00     0.007 A 
BRANCH  12  16
HETATM   16  O   UNL     1      11.488   6.596  16.117  1.00  0.00    -0.361 OA
HETATM   17  H   UNL     1      11.565   6.978  16.969  1.00  0.00     0.217 HD
ENDBRANCH  12  16
ENDBRANCH   9  10
ENDBRANCH   3   9
ENDBRANCH   1   3
TORSDOF 7
ENDMDL
MODEL 3
REMARK VINA RESULT:      -7.0      1.992      5.094
REMARK  7 active torsions:
REMARK  status: ('A' for Active; 'I' for Inactive)
REMARK    1  A    between atoms: O_1  and  C_2 
REMARK    2  A    between atoms: C_2  and  C_3 
REMARK    3  A    between atoms: C_2  and  C_8 
REMARK    4  A    between atoms: C_3  and  C_4 
REMARK    5  A    between atoms: C_4  and  C_5 
REMARK    6  A    between atoms: C_8  and  C_9 
REMARK    7  A    between atoms: C_11  and  O_15 
ROOT
HETATM    1  O   UNL     1      16.194   4.995  13.948  1.00  0.00    -0.395 OA
HETATM    2  H   UNL     1      15.825   4.098  13.921  1.00  0.00     0.210 HD
ENDROOT
BRANCH   1   3
HETATM    3  C   UNL     1      16.379   5.475  12.614  1.00  0.00     0.122 C 
BRANCH   3   4
HETATM    4  C   UNL     1      17.817   5.986  12.480  1.00  0.00     0.042 C 
BRANCH   4   5
HETATM    5  C   UNL     1      18.488   5.477  11.207  1.00  0.00     0.116 C 
BRANCH   5   6
HETATM    6  C   UNL     1      18.297   6.458  10.090  1.00  0.00     0.172 C 
HETATM    7  O   UNL     1      18.168   7.664  10.203  1.00  0.00    -0.648 OA
HETATM    8  O   UNL     1      18.312   5.877   8.875  1.00  0.00    -0.648 OA
ENDBRANCH   5   6
ENDBRANCH   4   5
ENDBRANCH   3   4
BRANCH   3   9
HETATM    9  C   UNL     1      15.370   6.589  12.284  1.00  0.00     0.070 C 
BRANCH   9  10
HETATM   10  C   UNL     1      14.336   6.166  11.267  1.00  0.00    -0.053 A 
HETATM   11  C   UNL     1      13.091   5.671  11.679  1.00  0.00     0.043 A 
HETATM   12  C   UNL     1      12.149   5.278  10.734  1.00  0.00     0.066 A 
HETATM   13  C   UNL     1      12.422   5.366   9.373  1.00  0.00     0.036 A 
HETATM   14  C   UNL     1      13.658   5.855   8.954  1.00  0.00     0.003 A 
HETATM   15  C   UNL     1      14.612   6.253   9.895  1.00  0.00     0.007 A 
BRANCH  12  16
HETATM   16  O   UNL     1      10.954   4.806  11.190  1.00  0.00    -0.361 OA
HETATM   17  H   UNL     1      10.579   4.034  10.813  1.00  0.00     0.217 HD
ENDBRANCH  12  16
ENDBRANCH   9  10
ENDBRANCH   3   9
ENDBRANCH   1   3
TORSDOF 7
ENDMDL
MODEL 4
REMARK VINA RESULT:      -6.8      1.412      1.854
REMARK  7 active torsions:
REMARK  status: ('A' for Active; 'I' for Inactive)
REMARK    1  A    between atoms: O_1  and  C_2 
REMARK    2  A    between atoms: C_2  and  C_3 
REMARK    3  A    between atoms: C_2  and  C_8 
REMARK    4  A    between atoms: C_3  and  C_4 
REMARK    5  A    between atoms: C_4  and  C_5 
REMARK    6  A    between atoms: C_8  and  C_9 
REMARK    7  A    between atoms: C_11  and  O_15 
ROOT
HETATM    1  O   UNL     1      11.488   6.456  12.245  1.00  0.00    -0.395 OA
HETATM    2  H   UNL     1      11.128   5.622  12.584  1.00  0.00     0.210 HD
ENDROOT
BRANCH   1   3
HETATM    3  C   UNL     1      12.646   6.189  11.452  1.00  0.00     0.122 C 
BRANCH   3   4
HETATM    4  C   UNL     1      12.199   5.488  10.164  1.00  0.00     0.042 C 
BRANCH   4   5
HETATM    5  C   UNL     1      12.114   6.455   8.987  1.00  0.00     0.116 C 
BRANCH   5   6
HETATM    6  C   UNL     1      12.310   5.721   7.695  1.00  0.00     0.172 C 
HETATM    7  O   UNL     1      12.273   6.205   6.577  1.00  0.00    -0.648 OA
HETATM    8  O   UNL     1      12.579   4.413   7.871  1.00  0.00    -0.648 OA
ENDBRANCH   5   6
ENDBRANCH   4   5
ENDBRANCH   3   4
BRANCH   3   9
HETATM    9  C   UNL     1      13.655   5.321  12.224  1.00  0.00     0.070 C 
BRANCH   9  10
HETATM   10  C   UNL     1      15.091   5.711  11.961  1.00  0.00    -0.053 A 
HETATM   11  C   UNL     1      16.043   5.662  12.988  1.00  0.00     0.043 A 
HETATM   12  C   UNL     1      17.361   6.029  12.737  1.00  0.00     0.066 A 
HETATM   13  C   UNL     1      17.757   6.451  11.472  1.00  0.00     0.036 A 
HETATM   14  C   UNL     1      16.816   6.505  10.445  1.00  0.00     0.003 A 
HETATM   15  C   UNL     1      15.490   6.138  10.686  1.00  0.00     0.007 A 
BRANCH  12  16
HETATM   16  O   UNL     1      18.246   5.960  13.773  1.00  0.00    -0.361 OA
HETATM   17  H   UNL     1      18.854   6.658  13.917  1.00  0.00     0.217 HD
ENDBRANCH  12  16
ENDBRANCH   9  10
ENDBRANCH   3   9
ENDBRANCH   1   3
TORSDOF 7
ENDMDL
MODEL 5
REMARK VINA RESULT:      -6.8      1.780      4.866
REMARK  7 active torsions:
REMARK  status: ('A' for Active; 'I' for Inactive)
REMARK    1  A    between atoms: O_1  and  C_2 
REMARK    2  A    between atoms: C_2  and  C_3 
REMARK    3  A    between atoms: C_2  and  C_8 
REMARK    4  A    between atoms: C_3  and  C_4 
REMARK    5  A    between atoms: C_4  and  C_5 
REMARK    6  A    between atoms: C_8  and  C_9 
REMARK    7  A    between atoms: C_11  and  O_15 
ROOT
HETATM    1  O   UNL     1      16.232   4.922  13.834  1.00  0.00    -0.395 OA
HETATM    2  H   UNL     1      16.009   5.616  14.474  1.00  0.00     0.210 HD
ENDROOT
BRANCH   1   3
HETATM    3  C   UNL     1      16.366   5.499  12.534  1.00  0.00     0.122 C 
BRANCH   3   4
HETATM    4  C   UNL     1      17.787   6.056  12.397  1.00  0.00     0.042 C 
BRANCH   4   5
HETATM    5  C   UNL     1      18.533   5.435  11.219  1.00  0.00     0.116 C 
BRANCH   5   6
HETATM    6  C   UNL     1      18.320   6.251   9.979  1.00  0.00     0.172 C 
HETATM    7  O   UNL     1      18.260   5.827   8.838  1.00  0.00    -0.648 OA
HETATM    8  O   UNL     1      18.157   7.562  10.237  1.00  0.00    -0.648 OA
ENDBRANCH   5   6
ENDBRANCH   4   5
ENDBRANCH   3   4
BRANCH   3   9
HETATM    9  C   UNL     1      15.322   6.608  12.312  1.00  0.00     0.070 C 
BRANCH   9  10
HETATM   10  C   UNL     1      14.222   6.200  11.359  1.00  0.00    -0.053 A 
HETATM   11  C   UNL     1      14.440   6.201   9.975  1.00  0.00     0.043 A 
HETATM   12  C   UNL     1      13.419   5.830   9.107  1.00  0.00     0.066 A 
HETATM   13  C   UNL     1      12.170   5.455   9.591  1.00  0.00     0.036 A 
HETATM   14  C   UNL     1      11.943   5.453  10.967  1.00  0.00     0.003 A 
HETATM   15  C   UNL     1      12.962   5.824  11.848  1.00  0.00     0.007 A 
BRANCH  12  16
HETATM   16  O   UNL     1      13.687   5.847   7.770  1.00  0.00    -0.361 OA
HETATM   17  H   UNL     1      13.964   5.064   7.338  1.00  0.00     0.217 HD
ENDBRANCH  12  16
ENDBRANCH   9  10
ENDBRANCH   3   9
ENDBRANCH   1   3
TORSDOF 7
ENDMDL
MODEL 6
REMARK VINA RESULT:      -6.7      2.035      4.059
REMARK  7 active torsions:
REMARK  status: ('A' for Active; 'I' for Inactive)
REMARK    1  A    between atoms: O_1  and  C_2 
REMARK    2  A    between atoms: C_2  and  C_3 
REMARK    3  A    between atoms: C_2  and  C_8 
REMARK    4  A    between atoms: C_3  and  C_4 
REMARK    5  A    between atoms: C_4  and  C_5 
REMARK    6  A    between atoms: C_8  and  C_9 
REMARK    7  A    between atoms: C_11  and  O_15 
ROOT
HETATM    1  O   UNL     1      11.216   4.914  11.095  1.00  0.00    -0.395 OA
HETATM    2  H   UNL     1      11.404   4.008  10.805  1.00  0.00     0.210 HD
ENDROOT
BRANCH   1   3
HETATM    3  C   UNL     1      12.393   5.483  11.673  1.00  0.00     0.122 C 
BRANCH   3   4
HETATM    4  C   UNL     1      11.967   6.496  12.740  1.00  0.00     0.042 C 
BRANCH   4   5
HETATM    5  C   UNL     1      12.045   5.911  14.147  1.00  0.00     0.116 C 
BRANCH   5   6
HETATM    6  C   UNL     1      12.685   6.890  15.084  1.00  0.00     0.172 C 
HETATM    7  O   UNL     1      13.599   7.651  14.818  1.00  0.00    -0.648 OA
HETATM    8  O   UNL     1      12.121   6.891  16.307  1.00  0.00    -0.648 OA
ENDBRANCH   5   6
ENDBRANCH   4   5
ENDBRANCH   3   4
BRANCH   3   9
HETATM    9  C   UNL     1      13.266   6.156  10.599  1.00  0.00     0.070 C 
BRANCH   9  10
HETATM   10  C   UNL     1      14.739   6.130  10.934  1.00  0.00    -0.053 A 
HETATM   11  C   UNL     1      15.692   6.538   9.992  1.00  0.00     0.043 A 
HETATM   12  C   UNL     1      17.046   6.503  10.308  1.00  0.00     0.066 A 
HETATM   13  C   UNL     1      17.478   6.064  11.556  1.00  0.00     0.036 A 
HETATM   14  C   UNL     1      16.536   5.654  12.498  1.00  0.00     0.003 A 
HETATM   15  C   UNL     1      15.174   5.685  12.191  1.00  0.00     0.007 A 
BRANCH  12  16
HETATM   16  O   UNL     1      17.930   6.914   9.355  1.00  0.00    -0.361 OA
HETATM   17  H   UNL     1      18.256   7.792   9.365  1.00  0.00     0.217 HD
ENDBRANCH  12  16
ENDBRANCH   9  10
ENDBRANCH   3   9
ENDBRANCH   1   3
TORSDOF 7
ENDMDL
MODEL 7
REMARK VINA RESULT:      -6.6      2.421      3.389
REMARK  7 active torsions:
REMARK  status: ('A' for Active; 'I' for Inactive)
REMARK    1  A    between atoms: O_1  and  C_2 
REMARK    2  A    between atoms: C_2  and  C_3 
REMARK    3  A    between atoms: C_2  and  C_8 
REMARK    4  A    between atoms: C_3  and  C_4 
REMARK    5  A    between atoms: C_4  and  C_5 
REMARK    6  A    between atoms: C_8  and  C_9 
REMARK    7  A    between atoms: C_11  and  O_15 
ROOT
HETATM    1  O   UNL     1      11.224   4.756  11.120  1.00  0.00    -0.395 OA
HETATM    2  H   UNL     1      10.697   4.724  11.933  1.00  0.00     0.210 HD
ENDROOT
BRANCH   1   3
HETATM    3  C   UNL     1      12.038   5.931  11.126  1.00  0.00     0.122 C 
BRANCH   3   4
HETATM    4  C   UNL     1      12.041   6.525   9.713  1.00  0.00     0.042 C 
BRANCH   4   5
HETATM    5  C   UNL     1      13.217   6.020   8.884  1.00  0.00     0.116 C 
BRANCH   5   6
HETATM    6  C   UNL     1      12.745   5.550   7.541  1.00  0.00     0.172 C 
HETATM    7  O   UNL     1      12.569   6.244   6.555  1.00  0.00    -0.648 OA
HETATM    8  O   UNL     1      12.549   4.218   7.492  1.00  0.00    -0.648 OA
ENDBRANCH   5   6
ENDBRANCH   4   5
ENDBRANCH   3   4
BRANCH   3   9
HETATM    9  C   UNL     1      13.470   5.607  11.585  1.00  0.00     0.070 C 
BRANCH   9  10
HETATM   10  C   UNL     1      13.744   6.032  13.009  1.00  0.00    -0.053 A 
HETATM   11  C   UNL     1      14.974   5.745  13.616  1.00  0.00     0.043 A 
HETATM   12  C   UNL     1      15.212   6.135  14.930  1.00  0.00     0.066 A 
HETATM   13  C   UNL     1      14.241   6.809  15.663  1.00  0.00     0.036 A 
HETATM   14  C   UNL     1      13.013   7.096  15.068  1.00  0.00     0.003 A 
HETATM   15  C   UNL     1      12.764   6.710  13.749  1.00  0.00     0.007 A 
BRANCH  12  16
HETATM   16  O   UNL     1      16.428   5.833  15.469  1.00  0.00    -0.361 OA
HETATM   17  H   UNL     1      16.485   5.523  16.351  1.00  0.00     0.217 HD
ENDBRANCH  12  16
ENDBRANCH   9  10
ENDBRANCH   3   9
ENDBRANCH   1   3
TORSDOF 7
ENDMDL
MODEL 8
REMARK VINA RESULT:      -6.5      1.831      3.030
REMARK  7 active torsions:
REMARK  status: ('A' for Active; 'I' for Inactive)
REMARK    1  A    between atoms: O_1  and  C_2 
REMARK    2  A    between atoms: C_2  and  C_3 
REMARK    3  A    between atoms: C_2  and  C_8 
REMARK    4  A    between atoms: C_3  and  C_4 
REMARK    5  A    between atoms: C_4  and  C_5 
REMARK    6  A    between atoms: C_8  and  C_9 
REMARK    7  A    between atoms: C_11  and  O_15 
ROOT
HETATM    1  O   UNL     1      11.763   4.089  11.251  1.00  0.00    -0.395 OA
HETATM    2  H   UNL     1      12.598   3.791  11.644  1.00  0.00     0.210 HD
ENDROOT
BRANCH   1   3
HETATM    3  C   UNL     1      11.883   5.457  10.856  1.00  0.00     0.122 C 
BRANCH   3   4
HETATM    4  C   UNL     1      12.897   5.541   9.710  1.00  0.00     0.042 C 
BRANCH   4   5
HETATM    5  C   UNL     1      12.349   4.944   8.417  1.00  0.00     0.116 C 
BRANCH   5   6
HETATM    6  C   UNL     1      12.507   5.916   7.286  1.00  0.00     0.172 C 
HETATM    7  O   UNL     1      11.753   6.049   6.338  1.00  0.00    -0.648 OA
HETATM    8  O   UNL     1      13.593   6.701   7.419  1.00  0.00    -0.648 OA
ENDBRANCH   5   6
ENDBRANCH   4   5
ENDBRANCH   3   4
BRANCH   3   9
HETATM    9  C   UNL     1      12.324   6.336  12.039  1.00  0.00     0.070 C 
BRANCH   9  10
HETATM   10  C   UNL     1      13.681   5.957  12.583  1.00  0.00    -0.053 A 
HETATM   11  C   UNL     1      13.795   5.091  13.678  1.00  0.00     0.043 A 
HETATM   12  C   UNL     1      15.050   4.753  14.175  1.00  0.00     0.066 A 
HETATM   13  C   UNL     1      16.208   5.266  13.599  1.00  0.00     0.036 A 
HETATM   14  C   UNL     1      16.104   6.130  12.511  1.00  0.00     0.003 A 
HETATM   15  C   UNL     1      14.849   6.475  12.004  1.00  0.00     0.007 A 
BRANCH  12  16
HETATM   16  O   UNL     1      15.101   3.904  15.241  1.00  0.00    -0.361 OA
HETATM   17  H   UNL     1      15.081   4.245  16.113  1.00  0.00     0.217 HD
ENDBRANCH  12  16
ENDBRANCH   9  10
ENDBRANCH   3   9
ENDBRANCH   1   3
TORSDOF 7
ENDMDL
MODEL 9
REMARK VINA RESULT:      -6.4      2.307      5.657
REMARK  7 active torsions:
REMARK  status: ('A' for Active; 'I' for Inactive)
REMARK    1  A    between atoms: O_1  and  C_2 
REMARK    2  A    between atoms: C_2  and  C_3 
REMARK    3  A    between atoms: C_2  and  C_8 
REMARK    4  A    between atoms: C_3  and  C_4 
REMARK    5  A    between atoms: C_4  and  C_5 
REMARK    6  A    between atoms: C_8  and  C_9 
REMARK    7  A    between atoms: C_11  and  O_15 
ROOT
HETATM    1  O   UNL     1      17.205   7.995   9.329  1.00  0.00    -0.395 OA
HETATM    2  H   UNL     1      17.770   7.424   8.785  1.00  0.00     0.210 HD
ENDROOT
BRANCH   1   3
HETATM    3  C   UNL     1      16.865   7.315  10.539  1.00  0.00     0.122 C 
BRANCH   3   4
HETATM    4  C   UNL     1      18.162   6.883  11.231  1.00  0.00     0.042 C 
BRANCH   4   5
HETATM    5  C   UNL     1      18.276   5.365  11.336  1.00  0.00     0.116 C 
BRANCH   5   6
HETATM    6  C   UNL     1      18.487   4.955  12.762  1.00  0.00     0.172 C 
HETATM    7  O   UNL     1      17.673   5.038  13.665  1.00  0.00    -0.648 OA
HETATM    8  O   UNL     1      19.706   4.424  12.979  1.00  0.00    -0.648 OA
ENDBRANCH   5   6
ENDBRANCH   4   5
ENDBRANCH   3   4
BRANCH   3   9
HETATM    9  C   UNL     1      15.967   6.098  10.254  1.00  0.00     0.070 C 
BRANCH   9  10
HETATM   10  C   UNL     1      14.695   6.099  11.069  1.00  0.00    -0.053 A 
HETATM   11  C   UNL     1      13.483   5.689  10.500  1.00  0.00     0.043 A 
HETATM   12  C   UNL     1      12.316   5.701  11.258  1.00  0.00     0.066 A 
HETATM   13  C   UNL     1      12.330   6.119  12.585  1.00  0.00     0.036 A 
HETATM   14  C   UNL     1      13.531   6.531  13.158  1.00  0.00     0.003 A 
HETATM   15  C   UNL     1      14.708   6.523  12.406  1.00  0.00     0.007 A 
BRANCH  12  16
HETATM   16  O   UNL     1      11.165   5.289  10.654  1.00  0.00    -0.361 OA
HETATM   17  H   UNL     1      10.401   5.830  10.682  1.00  0.00     0.217 HD
ENDBRANCH  12  16
ENDBRANCH   9  10
ENDBRANCH   3   9
ENDBRANCH   1   3
TORSDOF 7
ENDMDL
