MODEL 1
REMARK VINA RESULT:      -7.2      0.000      0.000
REMARK  7 active torsions:
REMARK  status: ('A' for Active; 'I' for Inactive)
REMARK    1  A    between atoms: O_1  and  C_2 
REMARK    2  A    between atoms: C_2  and  C_3 
REMARK    3  A    between atoms: C_2  and  C_8 
REMARK    4  A    between atoms: C_3  and  C_4 
REMARK    5  A    between atoms: C_4  and  C_5 
REMARK    6  A    between atoms: C_8  and  C_9 
REMARK    7  A    between atoms: C_11  and  O_15 
ROOT
HETATM    1  O   UNL     1      11.611   6.468  12.259  1.00  0.00    -0.395 OA
HETATM    2  H   UNL     1      11.463   5.695  12.826  1.00  0.00     0.210 HD
ENDROOT
BRANCH   1   3
HETATM    3  C   UNL     1      12.737   6.228  11.411  1.00  0.00     0.122 C 
BRANCH   3   4
HETATM    4  C   UNL     1      12.262   5.433  10.190  1.00  0.00     0.042 C 
BRANCH   4   5
HETATM    5  C   UNL     1      12.022   6.332   8.981  1.00  0.00     0.116 C 
BRANCH   5   6
HETATM    6  C   UNL     1      12.694   5.764   7.768  1.00  0.00     0.172 C 
HETATM    7  O   UNL     1      13.285   6.394   6.908  1.00  0.00    -0.648 OA
HETATM    8  O   UNL     1      12.621   4.420   7.710  1.00  0.00    -0.648 OA
ENDBRANCH   5   6
ENDBRANCH   4   5
ENDBRANCH   3   4
BRANCH   3   9
HETATM    9  C   UNL     1      13.840   5.464  12.164  1.00  0.00     0.070 C 
BRANCH   9  10
HETATM   10  C   UNL     1      15.232   5.917  11.788  1.00  0.00    -0.053 A 
HETATM   11  C   UNL     1      15.441   6.712  10.654  1.00  0.00     0.043 A 
HETATM   12  C   UNL     1      16.728   7.118  10.313  1.00  0.00     0.066 A 
HETATM   13  C   UNL     1      17.823   6.744  11.085  1.00  0.00     0.036 A 
HETATM   14  C   UNL     1      17.624   5.950  12.213  1.00  0.00     0.003 A 
HETATM   15  C   UNL     1      16.337   5.538  12.565  1.00  0.00     0.007 A 
BRANCH  12  16
HETATM   16  O   UNL     1      16.873   7.893   9.201  1.00  0.00    -0.361 OA
HETATM   17  H   UNL     1      17.730   8.119   8.896  1.00  0.00     0.217 HD
ENDBRANCH  12  16
ENDBRANCH   9  10
ENDBRANCH   3   9
ENDBRANCH   1   3
TORSDOF 7
ENDMDL
MODEL 2
REMARK VINA RESULT:      -7.2      2.338      3.830
REMARK  7 active torsions:
REMARK  status: ('A' for Active; 'I' for Inactive)
REMARK    1  A    between atoms: O_1  and  C_2 
REMARK    2  A    between atoms: C_2  and  C_3 
REMARK    3  A    between atoms: C_2  and  C_8 
REMARK    4  A    between atoms: C_3  and  C_4 
REMARK    5  A    between atoms: C_4  and  C_5 
REMARK    6  A    between atoms: C_8  and  C_9 
REMARK    7  A    between atoms: C_11  and  O_15 
ROOT
HETATM    1  O   UNL     1      11.253   4.770  11.122  1.00  0.00    -0.395 OA
HETATM    2  H   UNL     1      10.348   4.941  10.817  1.00  0.00     0.210 HD
ENDROOT
BRANCH   1   3
HETATM    3  C   UNL     1      11.996   5.991  11.115  1.00  0.00     0.122 C 
BRANCH   3   4
HETATM    4  C   UNL     1      12.003   6.544   9.686  1.00  0.00     0.042 C 
BRANCH   4   5
HETATM    5  C   UNL     1      12.510   5.517   8.678  1.00  0.00     0.116 C 
BRANCH   5   6
HETATM    6  C   UNL     1      12.566   6.118   7.306  1.00  0.00     0.172 C 
HETATM    7  O   UNL     1      11.729   5.994   6.429  1.00  0.00    -0.648 OA
HETATM    8  O   UNL     1      13.661   6.878   7.111  1.00  0.00    -0.648 OA
ENDBRANCH   5   6
ENDBRANCH   4   5
ENDBRANCH   3   4
BRANCH   3   9
HETATM    9  C   UNL     1      13.433   5.765  11.619  1.00  0.00     0.070 C 
BRANCH   9  10
HETATM   10  C   UNL     1      13.580   6.003  13.104  1.00  0.00    -0.053 A 
HETATM   11  C   UNL     1      12.452   6.193  13.912  1.00  0.00     0.043 A 
HETATM   12  C   UNL     1      12.600   6.418  15.277  1.00  0.00     0.066 A 
HETATM   13  C   UNL     1      13.861   6.461  15.862  1.00  0.00     0.036 A 
HETATM   14  C   UNL     1      14.990   6.276  15.065  1.00  0.00     0.003 A 
HETATM   15  C   UNL     1      14.853   6.049  13.693  1.00  0.00     0.007 A 
BRANCH  12  16
HETATM   16  O   UNL     1      11.467   6.594  16.016  1.00  0.00    -0.361 OA
HETATM   17  H   UNL     1      10.631   6.384  15.650  1.00  0.00     0.217 HD
ENDBRANCH  12  16
ENDBRANCH   9  10
ENDBRANCH   3   9
ENDBRANCH   1   3
TORSDOF 7
ENDMDL
MODEL 3
REMARK VINA RESULT:      -7.0      2.008      5.107
REMARK  7 active torsions:
REMARK  status: ('A' for Active; 'I' for Inactive)
REMARK    1  A    between atoms: O_1  and  C_2 
REMARK    2  A    between atoms: C_2  and  C_3 
REMARK    3  A    between atoms: C_2  and  C_8 
REMARK    4  A    between atoms: C_3  and  C_4 
REMARK    5  A    between atoms: C_4  and  C_5 
REMARK    6  A    between atoms: C_8  and  C_9 
REMARK    7  A    between atoms: C_11  and  O_15 
ROOT
HETATM    1  O   UNL     1      16.195   4.951  13.904  1.00  0.00    -0.395 OA
HETATM    2  H   UNL     1      15.731   5.609  14.444  1.00  0.00     0.210 HD
ENDROOT
BRANCH   1   3
HETATM    3  C   UNL     1      16.379   5.463  12.583  1.00  0.00     0.122 C 
BRANCH   3   4
HETATM    4  C   UNL     1      17.814   5.989  12.464  1.00  0.00     0.042 C 
BRANCH   4   5
HETATM    5  C   UNL     1      18.506   5.482  11.202  1.00  0.00     0.116 C 
BRANCH   5   6
HETATM    6  C   UNL     1      18.281   6.435  10.067  1.00  0.00     0.172 C 
HETATM    7  O   UNL     1      18.094   7.635  10.158  1.00  0.00    -0.648 OA
HETATM    8  O   UNL     1      18.337   5.835   8.862  1.00  0.00    -0.648 OA
ENDBRANCH   5   6
ENDBRANCH   4   5
ENDBRANCH   3   4
BRANCH   3   9
HETATM    9  C   UNL     1      15.363   6.578  12.276  1.00  0.00     0.070 C 
BRANCH   9  10
HETATM   10  C   UNL     1      14.319   6.162  11.266  1.00  0.00    -0.053 A 
HETATM   11  C   UNL     1      13.082   5.656  11.686  1.00  0.00     0.043 A 
HETATM   12  C   UNL     1      12.131   5.270  10.747  1.00  0.00     0.066 A 
HETATM   13  C   UNL     1      12.387   5.377   9.384  1.00  0.00     0.036 A 
HETATM   14  C   UNL     1      13.616   5.877   8.958  1.00  0.00     0.003 A 
HETATM   15  C   UNL     1      14.578   6.268   9.892  1.00  0.00     0.007 A 
BRANCH  12  16
HETATM   16  O   UNL     1      10.943   4.787  11.212  1.00  0.00    -0.361 OA
HETATM   17  H   UNL     1      10.933   4.095  11.843  1.00  0.00     0.217 HD
ENDBRANCH  12  16
ENDBRANCH   9  10
ENDBRANCH   3   9
ENDBRANCH   1   3
TORSDOF 7
ENDMDL
MODEL 4
REMARK VINA RESULT:      -6.8      1.313      1.803
REMARK  7 active torsions:
REMARK  status: ('A' for Active; 'I' for Inactive)
REMARK    1  A    between atoms: O_1  and  C_2 
REMARK    2  A    between atoms: C_2  and  C_3 
REMARK    3  A    between atoms: C_2  and  C_8 
REMARK    4  A    between atoms: C_3  and  C_4 
REMARK    5  A    between atoms: C_4  and  C_5 
REMARK    6  A    between atoms: C_8  and  C_9 
REMARK    7  A    between atoms: C_11  and  O_15 
ROOT
HETATM    1  O   UNL     1      11.528   6.384  12.386  1.00  0.00    -0.395 OA
HETATM    2  H   UNL     1      11.537   5.686  13.059  1.00  0.00     0.210 HD
ENDROOT
BRANCH   1   3
HETATM    3  C   UNL     1      12.677   6.251  11.546  1.00  0.00     0.122 C 
BRANCH   3   4
HETATM    4  C   UNL     1      12.259   5.508  10.272  1.00  0.00     0.042 C 
BRANCH   4   5
HETATM    5  C   UNL     1      11.943   6.468   9.128  1.00  0.00     0.116 C 
BRANCH   5   6
HETATM    6  C   UNL     1      12.631   6.027   7.872  1.00  0.00     0.172 C 
HETATM    7  O   UNL     1      12.271   6.262   6.731  1.00  0.00    -0.648 OA
HETATM    8  O   UNL     1      13.763   5.337   8.109  1.00  0.00    -0.648 OA
ENDBRANCH   5   6
ENDBRANCH   4   5
ENDBRANCH   3   4
BRANCH   3   9
HETATM    9  C   UNL     1      13.806   5.498  12.271  1.00  0.00     0.070 C 
BRANCH   9  10
HETATM   10  C   UNL     1      15.184   5.932  11.827  1.00  0.00    -0.053 A 
HETATM   11  C   UNL     1      16.329   5.418  12.450  1.00  0.00     0.043 A 
HETATM   12  C   UNL     1      17.592   5.830  12.038  1.00  0.00     0.066 A 
HETATM   13  C   UNL     1      17.742   6.754  11.009  1.00  0.00     0.036 A 
HETATM   14  C   UNL     1      16.609   7.273  10.386  1.00  0.00     0.003 A 
HETATM   15  C   UNL     1      15.335   6.866  10.791  1.00  0.00     0.007 A 
BRANCH  12  16
HETATM   16  O   UNL     1      18.672   5.296  12.677  1.00  0.00    -0.361 OA
HETATM   17  H   UNL     1      19.470   5.783  12.735  1.00  0.00     0.217 HD
ENDBRANCH  12  16
ENDBRANCH   9  10
ENDBRANCH   3   9
ENDBRANCH   1   3
TORSDOF 7
ENDMDL
MODEL 5
REMARK VINA RESULT:      -6.8      1.770      4.880
REMARK  7 active torsions:
REMARK  status: ('A' for Active; 'I' for Inactive)
REMARK    1  A    between atoms: O_1  and  C_2 
REMARK    2  A    between atoms: C_2  and  C_3 
REMARK    3  A    between atoms: C_2  and  C_8 
REMARK    4  A    between atoms: C_3  and  C_4 
REMARK    5  A    between atoms: C_4  and  C_5 
REMARK    6  A    between atoms: C_8  and  C_9 
REMARK    7  A    between atoms: C_11  and  O_15 
ROOT
HETATM    1  O   UNL     1      16.162   4.965  13.850  1.00  0.00    -0.395 OA
HETATM    2  H   UNL     1      15.951   4.022  13.779  1.00  0.00     0.210 HD
ENDROOT
BRANCH   1   3
HETATM    3  C   UNL     1      16.309   5.521  12.542  1.00  0.00     0.122 C 
BRANCH   3   4
HETATM    4  C   UNL     1      17.727   6.089  12.414  1.00  0.00     0.042 C 
BRANCH   4   5
HETATM    5  C   UNL     1      18.491   5.461  11.252  1.00  0.00     0.116 C 
BRANCH   5   6
HETATM    6  C   UNL     1      18.313   6.279  10.009  1.00  0.00     0.172 C 
HETATM    7  O   UNL     1      18.297   5.859   8.865  1.00  0.00    -0.648 OA
HETATM    8  O   UNL     1      18.129   7.588  10.265  1.00  0.00    -0.648 OA
ENDBRANCH   5   6
ENDBRANCH   4   5
ENDBRANCH   3   4
BRANCH   3   9
HETATM    9  C   UNL     1      15.258   6.615  12.286  1.00  0.00     0.070 C 
BRANCH   9  10
HETATM   10  C   UNL     1      14.175   6.180  11.326  1.00  0.00    -0.053 A 
HETATM   11  C   UNL     1      14.407   6.173   9.944  1.00  0.00     0.043 A 
HETATM   12  C   UNL     1      13.401   5.777   9.069  1.00  0.00     0.066 A 
HETATM   13  C   UNL     1      12.154   5.383   9.544  1.00  0.00     0.036 A 
HETATM   14  C   UNL     1      11.913   5.389  10.917  1.00  0.00     0.003 A 
HETATM   15  C   UNL     1      12.917   5.785  11.805  1.00  0.00     0.007 A 
BRANCH  12  16
HETATM   16  O   UNL     1      13.682   5.787   7.735  1.00  0.00    -0.361 OA
HETATM   17  H   UNL     1      13.142   6.276   7.146  1.00  0.00     0.217 HD
ENDBRANCH  12  16
ENDBRANCH   9  10
ENDBRANCH   3   9
ENDBRANCH   1   3
TORSDOF 7
ENDMDL
MODEL 6
REMARK VINA RESULT:      -6.6      2.605      3.857
REMARK  7 active torsions:
REMARK  status: ('A' for Active; 'I' for Inactive)
REMARK    1  A    between atoms: O_1  and  C_2 
REMARK    2  A    between atoms: C_2  and  C_3 
REMARK    3  A    between atoms: C_2  and  C_8 
REMARK    4  A    between atoms: C_3  and  C_4 
REMARK    5  A    between atoms: C_4  and  C_5 
REMARK    6  A    between atoms: C_8  and  C_9 
REMARK    7  A    between atoms: C_11  and  O_15 
ROOT
HETATM    1  O   UNL     1      11.181   4.804  11.096  1.00  0.00    -0.395 OA
HETATM    2  H   UNL     1      10.547   4.846  10.363  1.00  0.00     0.210 HD
ENDROOT
BRANCH   1   3
HETATM    3  C   UNL     1      11.977   5.991  11.106  1.00  0.00     0.122 C 
BRANCH   3   4
HETATM    4  C   UNL     1      12.030   6.550   9.680  1.00  0.00     0.042 C 
BRANCH   4   5
HETATM    5  C   UNL     1      13.240   6.031   8.908  1.00  0.00     0.116 C 
BRANCH   5   6
HETATM    6  C   UNL     1      12.801   5.360   7.641  1.00  0.00     0.172 C 
HETATM    7  O   UNL     1      12.673   4.161   7.467  1.00  0.00    -0.648 OA
HETATM    8  O   UNL     1      12.511   6.234   6.659  1.00  0.00    -0.648 OA
ENDBRANCH   5   6
ENDBRANCH   4   5
ENDBRANCH   3   4
BRANCH   3   9
HETATM    9  C   UNL     1      13.394   5.701  11.631  1.00  0.00     0.070 C 
BRANCH   9  10
HETATM   10  C   UNL     1      13.491   5.776  13.137  1.00  0.00    -0.053 A 
HETATM   11  C   UNL     1      14.396   4.965  13.835  1.00  0.00     0.043 A 
HETATM   12  C   UNL     1      14.472   5.037  15.222  1.00  0.00     0.066 A 
HETATM   13  C   UNL     1      13.657   5.907  15.939  1.00  0.00     0.036 A 
HETATM   14  C   UNL     1      12.752   6.715  15.253  1.00  0.00     0.003 A 
HETATM   15  C   UNL     1      12.668   6.651  13.860  1.00  0.00     0.007 A 
BRANCH  12  16
HETATM   16  O   UNL     1      15.373   4.227  15.850  1.00  0.00    -0.361 OA
HETATM   17  H   UNL     1      15.177   3.320  15.978  1.00  0.00     0.217 HD
ENDBRANCH  12  16
ENDBRANCH   9  10
ENDBRANCH   3   9
ENDBRANCH   1   3
TORSDOF 7
ENDMDL
MODEL 7
REMARK VINA RESULT:      -6.6      1.951      3.958
REMARK  7 active torsions:
REMARK  status: ('A' for Active; 'I' for Inactive)
REMARK    1  A    between atoms: O_1  and  C_2 
REMARK    2  A    between atoms: C_2  and  C_3 
REMARK    3  A    between atoms: C_2  and  C_8 
REMARK    4  A    between atoms: C_3  and  C_4 
REMARK    5  A    between atoms: C_4  and  C_5 
REMARK    6  A    between atoms: C_8  and  C_9 
REMARK    7  A    between atoms: C_11  and  O_15 
ROOT
HETATM    1  O   UNL     1      15.802   6.687   9.577  1.00  0.00    -0.395 OA
HETATM    2  H   UNL     1      15.366   7.472   9.212  1.00  0.00     0.210 HD
ENDROOT
BRANCH   1   3
HETATM    3  C   UNL     1      14.955   6.086  10.560  1.00  0.00     0.122 C 
BRANCH   3   4
HETATM    4  C   UNL     1      13.530   6.028   9.999  1.00  0.00     0.042 C 
BRANCH   4   5
HETATM    5  C   UNL     1      13.515   5.697   8.510  1.00  0.00     0.116 C 
BRANCH   5   6
HETATM    6  C   UNL     1      12.335   6.339   7.845  1.00  0.00     0.172 C 
HETATM    7  O   UNL     1      11.483   7.021   8.388  1.00  0.00    -0.648 OA
HETATM    8  O   UNL     1      12.301   6.122   6.517  1.00  0.00    -0.648 OA
ENDBRANCH   5   6
ENDBRANCH   4   5
ENDBRANCH   3   4
BRANCH   3   9
HETATM    9  C   UNL     1      14.992   6.880  11.878  1.00  0.00     0.070 C 
BRANCH   9  10
HETATM   10  C   UNL     1      14.358   6.137  13.031  1.00  0.00    -0.053 A 
HETATM   11  C   UNL     1      13.121   6.543  13.549  1.00  0.00     0.043 A 
HETATM   12  C   UNL     1      12.551   5.856  14.615  1.00  0.00     0.066 A 
HETATM   13  C   UNL     1      13.192   4.761  15.185  1.00  0.00     0.036 A 
HETATM   14  C   UNL     1      14.424   4.351  14.678  1.00  0.00     0.003 A 
HETATM   15  C   UNL     1      15.006   5.034  13.607  1.00  0.00     0.007 A 
BRANCH  12  16
HETATM   16  O   UNL     1      11.344   6.293  15.077  1.00  0.00    -0.361 OA
HETATM   17  H   UNL     1      11.226   6.462  15.991  1.00  0.00     0.217 HD
ENDBRANCH  12  16
ENDBRANCH   9  10
ENDBRANCH   3   9
ENDBRANCH   1   3
TORSDOF 7
ENDMDL
MODEL 8
REMARK VINA RESULT:      -6.4      2.236      5.602
REMARK  7 active torsions:
REMARK  status: ('A' for Active; 'I' for Inactive)
REMARK    1  A    between atoms: O_1  and  C_2 
REMARK    2  A    between atoms: C_2  and  C_3 
REMARK    3  A    between atoms: C_2  and  C_8 
REMARK    4  A    between atoms: C_3  and  C_4 
REMARK    5  A    between atoms: C_4  and  C_5 
REMARK    6  A    between atoms: C_8  and  C_9 
REMARK    7  A    between atoms: C_11  and  O_15 
ROOT
HETATM    1  O   UNL     1      17.102   8.007   9.268  1.00  0.00    -0.395 OA
HETATM    2  H   UNL     1      17.812   7.529   8.811  1.00  0.00     0.210 HD
ENDROOT
BRANCH   1   3
HETATM    3  C   UNL     1      16.807   7.352  10.504  1.00  0.00     0.122 C 
BRANCH   3   4
HETATM    4  C   UNL     1      18.129   7.019  11.203  1.00  0.00     0.042 C 
BRANCH   4   5
HETATM    5  C   UNL     1      18.148   5.591  11.740  1.00  0.00     0.116 C 
BRANCH   5   6
HETATM    6  C   UNL     1      18.006   5.593  13.232  1.00  0.00     0.172 C 
HETATM    7  O   UNL     1      18.206   6.539  13.975  1.00  0.00    -0.648 OA
HETATM    8  O   UNL     1      17.585   4.411  13.720  1.00  0.00    -0.648 OA
ENDBRANCH   5   6
ENDBRANCH   4   5
ENDBRANCH   3   4
BRANCH   3   9
HETATM    9  C   UNL     1      15.978   6.077  10.268  1.00  0.00     0.070 C 
BRANCH   9  10
HETATM   10  C   UNL     1      14.664   6.081  11.013  1.00  0.00    -0.053 A 
HETATM   11  C   UNL     1      13.479   5.697  10.373  1.00  0.00     0.043 A 
HETATM   12  C   UNL     1      12.274   5.711  11.067  1.00  0.00     0.066 A 
HETATM   13  C   UNL     1      12.221   6.104  12.400  1.00  0.00     0.036 A 
HETATM   14  C   UNL     1      13.395   6.491  13.045  1.00  0.00     0.003 A 
HETATM   15  C   UNL     1      14.611   6.480  12.357  1.00  0.00     0.007 A 
BRANCH  12  16
HETATM   16  O   UNL     1      11.151   5.325  10.395  1.00  0.00    -0.361 OA
HETATM   17  H   UNL     1      10.698   5.937   9.850  1.00  0.00     0.217 HD
ENDBRANCH  12  16
ENDBRANCH   9  10
ENDBRANCH   3   9
ENDBRANCH   1   3
TORSDOF 7
ENDMDL
MODEL 9
REMARK VINA RESULT:      -6.3      2.336      5.764
REMARK  7 active torsions:
REMARK  status: ('A' for Active; 'I' for Inactive)
REMARK    1  A    between atoms: O_1  and  C_2 
REMARK    2  A    between atoms: C_2  and  C_3 
REMARK    3  A    between atoms: C_2  and  C_8 
REMARK    4  A    between atoms: C_3  and  C_4 
REMARK    5  A    between atoms: C_4  and  C_5 
REMARK    6  A    between atoms: C_8  and  C_9 
REMARK    7  A    between atoms: C_11  and  O_15 
ROOT
HETATM    1  O   UNL     1      16.952   7.966   9.146  1.00  0.00    -0.395 OA
HETATM    2  H   UNL     1      17.582   7.443   8.626  1.00  0.00     0.210 HD
ENDROOT
BRANCH   1   3
HETATM    3  C   UNL     1      16.723   7.323  10.402  1.00  0.00     0.122 C 
BRANCH   3   4
HETATM    4  C   UNL     1      18.081   6.969  11.019  1.00  0.00     0.042 C 
BRANCH   4   5
HETATM    5  C   UNL     1      18.192   5.481  11.339  1.00  0.00     0.116 C 
BRANCH   5   6
HETATM    6  C   UNL     1      18.473   5.282  12.798  1.00  0.00     0.172 C 
HETATM    7  O   UNL     1      19.234   4.461  13.281  1.00  0.00    -0.648 OA
HETATM    8  O   UNL     1      17.808   6.151  13.583  1.00  0.00    -0.648 OA
ENDBRANCH   5   6
ENDBRANCH   4   5
ENDBRANCH   3   4
BRANCH   3   9
HETATM    9  C   UNL     1      15.858   6.063  10.227  1.00  0.00     0.070 C 
BRANCH   9  10
HETATM   10  C   UNL     1      14.536   6.150  10.955  1.00  0.00    -0.053 A 
HETATM   11  C   UNL     1      14.496   6.341  12.342  1.00  0.00     0.043 A 
HETATM   12  C   UNL     1      13.274   6.413  13.002  1.00  0.00     0.066 A 
HETATM   13  C   UNL     1      12.076   6.295  12.304  1.00  0.00     0.036 A 
HETATM   14  C   UNL     1      12.107   6.102  10.924  1.00  0.00     0.003 A 
HETATM   15  C   UNL     1      13.329   6.029  10.251  1.00  0.00     0.007 A 
BRANCH  12  16
HETATM   16  O   UNL     1      13.294   6.602  14.353  1.00  0.00    -0.361 OA
HETATM   17  H   UNL     1      12.579   6.302  14.879  1.00  0.00     0.217 HD
ENDBRANCH  12  16
ENDBRANCH   9  10
ENDBRANCH   3   9
ENDBRANCH   1   3
TORSDOF 7
ENDMDL
