MODEL 1
REMARK VINA RESULT:     -18.5      0.000      0.000
REMARK  7 active torsions:
REMARK  status: ('A' for Active; 'I' for Inactive)
REMARK    1  A    between atoms: O_1  and  C_2 
REMARK    2  A    between atoms: C_2  and  C_3 
REMARK    3  A    between atoms: C_2  and  C_8 
REMARK    4  A    between atoms: C_3  and  C_4 
REMARK    5  A    between atoms: C_4  and  C_5 
REMARK    6  A    between atoms: C_8  and  C_9 
REMARK    7  A    between atoms: C_11  and  O_15 
ROOT
HETATM    1  O   UNL     1     -55.063  47.487   8.027  1.00  0.00    -0.395 OA
HETATM    2  H   UNL     1     -55.757  48.161   8.088  1.00  0.00     0.210 HD
ENDROOT
BRANCH   1   3
HETATM    3  C   UNL     1     -53.923  47.909   8.775  1.00  0.00     0.122 C 
BRANCH   3   4
HETATM    4  C   UNL     1     -52.637  47.458   8.065  1.00  0.00     0.042 C 
BRANCH   4   5
HETATM    5  C   UNL     1     -52.293  48.303   6.836  1.00  0.00     0.116 C 
BRANCH   5   6
HETATM    6  C   UNL     1     -52.797  47.781   5.515  1.00  0.00     0.172 C 
HETATM    7  O   UNL     1     -53.673  46.941   5.377  1.00  0.00    -0.648 OA
HETATM    8  O   UNL     1     -52.137  48.246   4.436  1.00  0.00    -0.648 OA
ENDBRANCH   5   6
ENDBRANCH   4   5
ENDBRANCH   3   4
BRANCH   3   9
HETATM    9  C   UNL     1     -53.947  49.442   8.939  1.00  0.00     0.070 C 
BRANCH   9  10
HETATM   10  C   UNL     1     -53.806  49.889  10.379  1.00  0.00    -0.053 A 
HETATM   11  C   UNL     1     -53.843  51.252  10.708  1.00  0.00     0.043 A 
HETATM   12  C   UNL     1     -53.715  51.650  12.038  1.00  0.00     0.066 A 
HETATM   13  C   UNL     1     -53.547  50.714  13.050  1.00  0.00     0.036 A 
HETATM   14  C   UNL     1     -53.507  49.358  12.733  1.00  0.00     0.003 A 
HETATM   15  C   UNL     1     -53.637  48.948  11.405  1.00  0.00     0.007 A 
BRANCH  12  16
HETATM   16  O   UNL     1     -53.749  52.967  12.392  1.00  0.00    -0.361 OA
HETATM   17  H   UNL     1     -54.456  53.511  12.105  1.00  0.00     0.217 HD
ENDBRANCH  12  16
ENDBRANCH   9  10
ENDBRANCH   3   9
ENDBRANCH   1   3
TORSDOF 7
ENDMDL
MODEL 2
REMARK VINA RESULT:     -18.3      1.590      2.023
REMARK  7 active torsions:
REMARK  status: ('A' for Active; 'I' for Inactive)
REMARK    1  A    between atoms: O_1  and  C_2 
REMARK    2  A    between atoms: C_2  and  C_3 
REMARK    3  A    between atoms: C_2  and  C_8 
REMARK    4  A    between atoms: C_3  and  C_4 
REMARK    5  A    between atoms: C_4  and  C_5 
REMARK    6  A    between atoms: C_8  and  C_9 
REMARK    7  A    between atoms: C_11  and  O_15 
ROOT
HETATM    1  O   UNL     1     -54.924  48.430   7.675  1.00  0.00    -0.395 OA
HETATM    2  H   UNL     1     -54.638  48.569   6.759  1.00  0.00     0.210 HD
ENDROOT
BRANCH   1   3
HETATM    3  C   UNL     1     -53.840  48.716   8.559  1.00  0.00     0.122 C 
BRANCH   3   4
HETATM    4  C   UNL     1     -52.524  48.781   7.767  1.00  0.00     0.042 C 
BRANCH   4   5
HETATM    5  C   UNL     1     -52.248  47.522   6.942  1.00  0.00     0.116 C 
BRANCH   5   6
HETATM    6  C   UNL     1     -52.832  47.501   5.553  1.00  0.00     0.172 C 
HETATM    7  O   UNL     1     -53.757  46.793   5.189  1.00  0.00    -0.648 OA
HETATM    8  O   UNL     1     -52.190  48.281   4.660  1.00  0.00    -0.648 OA
ENDBRANCH   5   6
ENDBRANCH   4   5
ENDBRANCH   3   4
BRANCH   3   9
HETATM    9  C   UNL     1     -54.102  50.046   9.292  1.00  0.00     0.070 C 
BRANCH   9  10
HETATM   10  C   UNL     1     -53.813  49.975  10.776  1.00  0.00    -0.053 A 
HETATM   11  C   UNL     1     -53.443  48.759  11.372  1.00  0.00     0.043 A 
HETATM   12  C   UNL     1     -53.176  48.708  12.739  1.00  0.00     0.066 A 
HETATM   13  C   UNL     1     -53.273  49.847  13.529  1.00  0.00     0.036 A 
HETATM   14  C   UNL     1     -53.641  51.058  12.947  1.00  0.00     0.003 A 
HETATM   15  C   UNL     1     -53.909  51.122  11.578  1.00  0.00     0.007 A 
BRANCH  12  16
HETATM   16  O   UNL     1     -52.813  47.543  13.349  1.00  0.00    -0.361 OA
HETATM   17  H   UNL     1     -52.902  47.453  14.277  1.00  0.00     0.217 HD
ENDBRANCH  12  16
ENDBRANCH   9  10
ENDBRANCH   3   9
ENDBRANCH   1   3
TORSDOF 7
ENDMDL
MODEL 3
REMARK VINA RESULT:     -18.0      3.632      6.986
REMARK  7 active torsions:
REMARK  status: ('A' for Active; 'I' for Inactive)
REMARK    1  A    between atoms: O_1  and  C_2 
REMARK    2  A    between atoms: C_2  and  C_3 
REMARK    3  A    between atoms: C_2  and  C_8 
REMARK    4  A    between atoms: C_3  and  C_4 
REMARK    5  A    between atoms: C_4  and  C_5 
REMARK    6  A    between atoms: C_8  and  C_9 
REMARK    7  A    between atoms: C_11  and  O_15 
ROOT
HETATM    1  O   UNL     1     -54.528  49.740  14.961  1.00  0.00    -0.395 OA
HETATM    2  H   UNL     1     -54.765  48.826  15.186  1.00  0.00     0.210 HD
ENDROOT
BRANCH   1   3
HETATM    3  C   UNL     1     -53.279  49.751  14.272  1.00  0.00     0.122 C 
BRANCH   3   4
HETATM    4  C   UNL     1     -52.238  48.944  15.065  1.00  0.00     0.042 C 
BRANCH   4   5
HETATM    5  C   UNL     1     -52.647  47.487  15.297  1.00  0.00     0.116 C 
BRANCH   5   6
HETATM    6  C   UNL     1     -53.151  47.155  16.678  1.00  0.00     0.172 C 
HETATM    7  O   UNL     1     -54.230  47.496  17.135  1.00  0.00    -0.648 OA
HETATM    8  O   UNL     1     -52.266  46.503  17.459  1.00  0.00    -0.648 OA
ENDBRANCH   5   6
ENDBRANCH   4   5
ENDBRANCH   3   4
BRANCH   3   9
HETATM    9  C   UNL     1     -53.459  49.167  12.857  1.00  0.00     0.070 C 
BRANCH   9  10
HETATM   10  C   UNL     1     -53.662  50.228  11.797  1.00  0.00    -0.053 A 
HETATM   11  C   UNL     1     -53.826  49.868  10.450  1.00  0.00     0.043 A 
HETATM   12  C   UNL     1     -54.015  50.854   9.484  1.00  0.00     0.066 A 
HETATM   13  C   UNL     1     -54.043  52.199   9.833  1.00  0.00     0.036 A 
HETATM   14  C   UNL     1     -53.879  52.567  11.166  1.00  0.00     0.003 A 
HETATM   15  C   UNL     1     -53.691  51.587  12.143  1.00  0.00     0.007 A 
BRANCH  12  16
HETATM   16  O   UNL     1     -54.179  50.538   8.168  1.00  0.00    -0.361 OA
HETATM   17  H   UNL     1     -54.117  51.205   7.514  1.00  0.00     0.217 HD
ENDBRANCH  12  16
ENDBRANCH   9  10
ENDBRANCH   3   9
ENDBRANCH   1   3
TORSDOF 7
ENDMDL
MODEL 4
REMARK VINA RESULT:     -17.8      2.183      3.156
REMARK  7 active torsions:
REMARK  status: ('A' for Active; 'I' for Inactive)
REMARK    1  A    between atoms: O_1  and  C_2 
REMARK    2  A    between atoms: C_2  and  C_3 
REMARK    3  A    between atoms: C_2  and  C_8 
REMARK    4  A    between atoms: C_3  and  C_4 
REMARK    5  A    between atoms: C_4  and  C_5 
REMARK    6  A    between atoms: C_8  and  C_9 
REMARK    7  A    between atoms: C_11  and  O_15 
ROOT
HETATM    1  O   UNL     1     -54.141  48.972   7.895  1.00  0.00    -0.395 OA
HETATM    2  H   UNL     1     -54.864  48.899   7.252  1.00  0.00     0.210 HD
ENDROOT
BRANCH   1   3
HETATM    3  C   UNL     1     -54.583  48.493   9.164  1.00  0.00     0.122 C 
BRANCH   3   4
HETATM    4  C   UNL     1     -55.484  47.262   8.972  1.00  0.00     0.042 C 
BRANCH   4   5
HETATM    5  C   UNL     1     -54.703  45.973   8.707  1.00  0.00     0.116 C 
BRANCH   5   6
HETATM    6  C   UNL     1     -55.425  44.688   9.022  1.00  0.00     0.172 C 
HETATM    7  O   UNL     1     -55.028  43.826   9.790  1.00  0.00    -0.648 OA
HETATM    8  O   UNL     1     -56.550  44.483   8.308  1.00  0.00    -0.648 OA
ENDBRANCH   5   6
ENDBRANCH   4   5
ENDBRANCH   3   4
BRANCH   3   9
HETATM    9  C   UNL     1     -53.365  48.144  10.042  1.00  0.00     0.070 C 
BRANCH   9  10
HETATM   10  C   UNL     1     -53.358  48.877  11.367  1.00  0.00    -0.053 A 
HETATM   11  C   UNL     1     -53.672  50.244  11.427  1.00  0.00     0.043 A 
HETATM   12  C   UNL     1     -53.665  50.906  12.653  1.00  0.00     0.066 A 
HETATM   13  C   UNL     1     -53.347  50.233  13.826  1.00  0.00     0.036 A 
HETATM   14  C   UNL     1     -53.032  48.877  13.777  1.00  0.00     0.003 A 
HETATM   15  C   UNL     1     -53.038  48.202  12.554  1.00  0.00     0.007 A 
BRANCH  12  16
HETATM   16  O   UNL     1     -53.967  52.232  12.746  1.00  0.00    -0.361 OA
HETATM   17  H   UNL     1     -54.823  52.535  12.517  1.00  0.00     0.217 HD
ENDBRANCH  12  16
ENDBRANCH   9  10
ENDBRANCH   3   9
ENDBRANCH   1   3
TORSDOF 7
ENDMDL
MODEL 5
REMARK VINA RESULT:     -17.8      1.157      1.277
REMARK  7 active torsions:
REMARK  status: ('A' for Active; 'I' for Inactive)
REMARK    1  A    between atoms: O_1  and  C_2 
REMARK    2  A    between atoms: C_2  and  C_3 
REMARK    3  A    between atoms: C_2  and  C_8 
REMARK    4  A    between atoms: C_3  and  C_4 
REMARK    5  A    between atoms: C_4  and  C_5 
REMARK    6  A    between atoms: C_8  and  C_9 
REMARK    7  A    between atoms: C_11  and  O_15 
ROOT
HETATM    1  O   UNL     1     -53.766  46.113   9.848  1.00  0.00    -0.395 OA
HETATM    2  H   UNL     1     -53.437  45.470  10.495  1.00  0.00     0.210 HD
ENDROOT
BRANCH   1   3
HETATM    3  C   UNL     1     -52.919  47.262   9.847  1.00  0.00     0.122 C 
BRANCH   3   4
HETATM    4  C   UNL     1     -52.001  47.232   8.615  1.00  0.00     0.042 C 
BRANCH   4   5
HETATM    5  C   UNL     1     -52.572  47.986   7.412  1.00  0.00     0.116 C 
BRANCH   5   6
HETATM    6  C   UNL     1     -53.574  47.231   6.575  1.00  0.00     0.172 C 
HETATM    7  O   UNL     1     -54.303  46.341   6.982  1.00  0.00    -0.648 OA
HETATM    8  O   UNL     1     -53.561  47.543   5.264  1.00  0.00    -0.648 OA
ENDBRANCH   5   6
ENDBRANCH   4   5
ENDBRANCH   3   4
BRANCH   3   9
HETATM    9  C   UNL     1     -53.778  48.542   9.855  1.00  0.00     0.070 C 
BRANCH   9  10
HETATM   10  C   UNL     1     -53.653  49.334  11.139  1.00  0.00    -0.053 A 
HETATM   11  C   UNL     1     -53.784  50.732  11.129  1.00  0.00     0.043 A 
HETATM   12  C   UNL     1     -53.669  51.449  12.318  1.00  0.00     0.066 A 
HETATM   13  C   UNL     1     -53.423  50.801  13.522  1.00  0.00     0.036 A 
HETATM   14  C   UNL     1     -53.290  49.415  13.542  1.00  0.00     0.003 A 
HETATM   15  C   UNL     1     -53.405  48.685  12.357  1.00  0.00     0.007 A 
BRANCH  12  16
HETATM   16  O   UNL     1     -53.794  52.807  12.343  1.00  0.00    -0.361 OA
HETATM   17  H   UNL     1     -54.344  53.215  12.982  1.00  0.00     0.217 HD
ENDBRANCH  12  16
ENDBRANCH   9  10
ENDBRANCH   3   9
ENDBRANCH   1   3
TORSDOF 7
ENDMDL
MODEL 6
REMARK VINA RESULT:     -17.7      3.482      6.842
REMARK  7 active torsions:
REMARK  status: ('A' for Active; 'I' for Inactive)
REMARK    1  A    between atoms: O_1  and  C_2 
REMARK    2  A    between atoms: C_2  and  C_3 
REMARK    3  A    between atoms: C_2  and  C_8 
REMARK    4  A    between atoms: C_3  and  C_4 
REMARK    5  A    between atoms: C_4  and  C_5 
REMARK    6  A    between atoms: C_8  and  C_9 
REMARK    7  A    between atoms: C_11  and  O_15 
ROOT
HETATM    1  O   UNL     1     -52.853  50.712  15.176  1.00  0.00    -0.395 OA
HETATM    2  H   UNL     1     -51.995  51.157  15.248  1.00  0.00     0.210 HD
ENDROOT
BRANCH   1   3
HETATM    3  C   UNL     1     -52.920  50.009  13.935  1.00  0.00     0.122 C 
BRANCH   3   4
HETATM    4  C   UNL     1     -53.338  48.550  14.184  1.00  0.00     0.042 C 
BRANCH   4   5
HETATM    5  C   UNL     1     -52.399  47.803  15.134  1.00  0.00     0.116 C 
BRANCH   5   6
HETATM    6  C   UNL     1     -52.996  47.378  16.451  1.00  0.00     0.172 C 
HETATM    7  O   UNL     1     -54.117  47.661  16.841  1.00  0.00    -0.648 OA
HETATM    8  O   UNL     1     -52.153  46.707  17.262  1.00  0.00    -0.648 OA
ENDBRANCH   5   6
ENDBRANCH   4   5
ENDBRANCH   3   4
BRANCH   3   9
HETATM    9  C   UNL     1     -53.920  50.709  12.994  1.00  0.00     0.070 C 
BRANCH   9  10
HETATM   10  C   UNL     1     -53.815  50.239  11.559  1.00  0.00    -0.053 A 
HETATM   11  C   UNL     1     -54.008  51.138  10.498  1.00  0.00     0.043 A 
HETATM   12  C   UNL     1     -53.906  50.693   9.181  1.00  0.00     0.066 A 
HETATM   13  C   UNL     1     -53.615  49.364   8.897  1.00  0.00     0.036 A 
HETATM   14  C   UNL     1     -53.422  48.464   9.943  1.00  0.00     0.003 A 
HETATM   15  C   UNL     1     -53.521  48.899  11.266  1.00  0.00     0.007 A 
BRANCH  12  16
HETATM   16  O   UNL     1     -54.087  51.541   8.129  1.00  0.00    -0.361 OA
HETATM   17  H   UNL     1     -53.410  51.646   7.490  1.00  0.00     0.217 HD
ENDBRANCH  12  16
ENDBRANCH   9  10
ENDBRANCH   3   9
ENDBRANCH   1   3
TORSDOF 7
ENDMDL
MODEL 7
REMARK VINA RESULT:     -17.7      4.465      7.138
REMARK  7 active torsions:
REMARK  status: ('A' for Active; 'I' for Inactive)
REMARK    1  A    between atoms: O_1  and  C_2 
REMARK    2  A    between atoms: C_2  and  C_3 
REMARK    3  A    between atoms: C_2  and  C_8 
REMARK    4  A    between atoms: C_3  and  C_4 
REMARK    5  A    between atoms: C_4  and  C_5 
REMARK    6  A    between atoms: C_8  and  C_9 
REMARK    7  A    between atoms: C_11  and  O_15 
ROOT
HETATM    1  O   UNL     1     -54.237  49.435  15.543  1.00  0.00    -0.395 OA
HETATM    2  H   UNL     1     -54.186  50.105  16.242  1.00  0.00     0.210 HD
ENDROOT
BRANCH   1   3
HETATM    3  C   UNL     1     -53.003  49.398  14.828  1.00  0.00     0.122 C 
BRANCH   3   4
HETATM    4  C   UNL     1     -51.967  48.582  15.618  1.00  0.00     0.042 C 
BRANCH   4   5
HETATM    5  C   UNL     1     -52.394  47.133  15.865  1.00  0.00     0.116 C 
BRANCH   5   6
HETATM    6  C   UNL     1     -52.994  46.844  17.217  1.00  0.00     0.172 C 
HETATM    7  O   UNL     1     -52.458  46.195  18.101  1.00  0.00    -0.648 OA
HETATM    8  O   UNL     1     -54.258  47.284  17.380  1.00  0.00    -0.648 OA
ENDBRANCH   5   6
ENDBRANCH   4   5
ENDBRANCH   3   4
BRANCH   3   9
HETATM    9  C   UNL     1     -53.228  48.787  13.431  1.00  0.00     0.070 C 
BRANCH   9  10
HETATM   10  C   UNL     1     -53.503  49.826  12.365  1.00  0.00    -0.053 A 
HETATM   11  C   UNL     1     -53.548  51.189  12.694  1.00  0.00     0.043 A 
HETATM   12  C   UNL     1     -53.799  52.136  11.702  1.00  0.00     0.066 A 
HETATM   13  C   UNL     1     -54.010  51.750  10.384  1.00  0.00     0.036 A 
HETATM   14  C   UNL     1     -53.969  50.399  10.048  1.00  0.00     0.003 A 
HETATM   15  C   UNL     1     -53.716  49.442  11.033  1.00  0.00     0.007 A 
BRANCH  12  16
HETATM   16  O   UNL     1     -53.847  53.468  11.987  1.00  0.00    -0.361 OA
HETATM   17  H   UNL     1     -53.136  54.026  11.742  1.00  0.00     0.217 HD
ENDBRANCH  12  16
ENDBRANCH   9  10
ENDBRANCH   3   9
ENDBRANCH   1   3
TORSDOF 7
ENDMDL
MODEL 8
REMARK VINA RESULT:     -17.6      1.443      2.053
REMARK  7 active torsions:
REMARK  status: ('A' for Active; 'I' for Inactive)
REMARK    1  A    between atoms: O_1  and  C_2 
REMARK    2  A    between atoms: C_2  and  C_3 
REMARK    3  A    between atoms: C_2  and  C_8 
REMARK    4  A    between atoms: C_3  and  C_4 
REMARK    5  A    between atoms: C_4  and  C_5 
REMARK    6  A    between atoms: C_8  and  C_9 
REMARK    7  A    between atoms: C_11  and  O_15 
ROOT
HETATM    1  O   UNL     1     -52.456  48.500   8.193  1.00  0.00    -0.395 OA
HETATM    2  H   UNL     1     -52.333  49.303   7.663  1.00  0.00     0.210 HD
ENDROOT
BRANCH   1   3
HETATM    3  C   UNL     1     -53.838  48.349   8.514  1.00  0.00     0.122 C 
BRANCH   3   4
HETATM    4  C   UNL     1     -54.427  47.161   7.737  1.00  0.00     0.042 C 
BRANCH   4   5
HETATM    5  C   UNL     1     -53.384  46.384   6.931  1.00  0.00     0.116 C 
BRANCH   5   6
HETATM    6  C   UNL     1     -53.168  46.846   5.513  1.00  0.00     0.172 C 
HETATM    7  O   UNL     1     -52.637  47.895   5.186  1.00  0.00    -0.648 OA
HETATM    8  O   UNL     1     -53.699  46.040   4.571  1.00  0.00    -0.648 OA
ENDBRANCH   5   6
ENDBRANCH   4   5
ENDBRANCH   3   4
BRANCH   3   9
HETATM    9  C   UNL     1     -54.000  48.142  10.033  1.00  0.00     0.070 C 
BRANCH   9  10
HETATM   10  C   UNL     1     -53.895  49.428  10.824  1.00  0.00    -0.053 A 
HETATM   11  C   UNL     1     -53.678  49.396  12.210  1.00  0.00     0.043 A 
HETATM   12  C   UNL     1     -53.580  50.588  12.926  1.00  0.00     0.066 A 
HETATM   13  C   UNL     1     -53.697  51.817  12.288  1.00  0.00     0.036 A 
HETATM   14  C   UNL     1     -53.915  51.859  10.912  1.00  0.00     0.003 A 
HETATM   15  C   UNL     1     -54.013  50.671  10.184  1.00  0.00     0.007 A 
BRANCH  12  16
HETATM   16  O   UNL     1     -53.368  50.592  14.273  1.00  0.00    -0.361 OA
HETATM   17  H   UNL     1     -52.915  49.879  14.678  1.00  0.00     0.217 HD
ENDBRANCH  12  16
ENDBRANCH   9  10
ENDBRANCH   3   9
ENDBRANCH   1   3
TORSDOF 7
ENDMDL
MODEL 9
REMARK VINA RESULT:     -17.6      2.253      3.151
REMARK  7 active torsions:
REMARK  status: ('A' for Active; 'I' for Inactive)
REMARK    1  A    between atoms: O_1  and  C_2 
REMARK    2  A    between atoms: C_2  and  C_3 
REMARK    3  A    between atoms: C_2  and  C_8 
REMARK    4  A    between atoms: C_3  and  C_4 
REMARK    5  A    between atoms: C_4  and  C_5 
REMARK    6  A    between atoms: C_8  and  C_9 
REMARK    7  A    between atoms: C_11  and  O_15 
ROOT
HETATM    1  O   UNL     1     -51.970  47.175   8.713  1.00  0.00    -0.395 OA
HETATM    2  H   UNL     1     -52.263  46.251   8.732  1.00  0.00     0.210 HD
ENDROOT
BRANCH   1   3
HETATM    3  C   UNL     1     -53.048  48.024   9.105  1.00  0.00     0.122 C 
BRANCH   3   4
HETATM    4  C   UNL     1     -54.277  47.747   8.224  1.00  0.00     0.042 C 
BRANCH   4   5
HETATM    5  C   UNL     1     -55.368  46.945   8.937  1.00  0.00     0.116 C 
BRANCH   5   6
HETATM    6  C   UNL     1     -55.416  45.472   8.622  1.00  0.00     0.172 C 
HETATM    7  O   UNL     1     -56.425  44.784   8.625  1.00  0.00    -0.648 OA
HETATM    8  O   UNL     1     -54.214  44.900   8.412  1.00  0.00    -0.648 OA
ENDBRANCH   5   6
ENDBRANCH   4   5
ENDBRANCH   3   4
BRANCH   3   9
HETATM    9  C   UNL     1     -53.380  47.791  10.592  1.00  0.00     0.070 C 
BRANCH   9  10
HETATM   10  C   UNL     1     -53.496  49.076  11.384  1.00  0.00    -0.053 A 
HETATM   11  C   UNL     1     -53.309  49.075  12.775  1.00  0.00     0.043 A 
HETATM   12  C   UNL     1     -53.416  50.265  13.492  1.00  0.00     0.066 A 
HETATM   13  C   UNL     1     -53.708  51.462  12.850  1.00  0.00     0.036 A 
HETATM   14  C   UNL     1     -53.896  51.473  11.470  1.00  0.00     0.003 A 
HETATM   15  C   UNL     1     -53.790  50.287  10.740  1.00  0.00     0.007 A 
BRANCH  12  16
HETATM   16  O   UNL     1     -53.240  50.298  14.844  1.00  0.00    -0.361 OA
HETATM   17  H   UNL     1     -53.509  49.572  15.370  1.00  0.00     0.217 HD
ENDBRANCH  12  16
ENDBRANCH   9  10
ENDBRANCH   3   9
ENDBRANCH   1   3
TORSDOF 7
ENDMDL
