MODEL 1
REMARK VINA RESULT:     -18.5      0.000      0.000
REMARK  7 active torsions:
REMARK  status: ('A' for Active; 'I' for Inactive)
REMARK    1  A    between atoms: O_1  and  C_2 
REMARK    2  A    between atoms: C_2  and  C_3 
REMARK    3  A    between atoms: C_2  and  C_8 
REMARK    4  A    between atoms: C_3  and  C_4 
REMARK    5  A    between atoms: C_4  and  C_5 
REMARK    6  A    between atoms: C_8  and  C_9 
REMARK    7  A    between atoms: C_11  and  O_15 
ROOT
HETATM    1  O   UNL     1     -55.142  47.441   8.097  1.00  0.00    -0.395 OA
HETATM    2  H   UNL     1     -55.930  47.621   8.633  1.00  0.00     0.210 HD
ENDROOT
BRANCH   1   3
HETATM    3  C   UNL     1     -53.977  47.853   8.813  1.00  0.00     0.122 C 
BRANCH   3   4
HETATM    4  C   UNL     1     -52.716  47.393   8.064  1.00  0.00     0.042 C 
BRANCH   4   5
HETATM    5  C   UNL     1     -52.376  48.264   6.853  1.00  0.00     0.116 C 
BRANCH   5   6
HETATM    6  C   UNL     1     -52.824  47.738   5.514  1.00  0.00     0.172 C 
HETATM    7  O   UNL     1     -53.665  46.869   5.344  1.00  0.00    -0.648 OA
HETATM    8  O   UNL     1     -52.151  48.236   4.458  1.00  0.00    -0.648 OA
ENDBRANCH   5   6
ENDBRANCH   4   5
ENDBRANCH   3   4
BRANCH   3   9
HETATM    9  C   UNL     1     -53.983  49.385   8.980  1.00  0.00     0.070 C 
BRANCH   9  10
HETATM   10  C   UNL     1     -53.814  49.827  10.419  1.00  0.00    -0.053 A 
HETATM   11  C   UNL     1     -53.852  51.189  10.754  1.00  0.00     0.043 A 
HETATM   12  C   UNL     1     -53.699  51.582  12.083  1.00  0.00     0.066 A 
HETATM   13  C   UNL     1     -53.506  50.643  13.088  1.00  0.00     0.036 A 
HETATM   14  C   UNL     1     -53.466  49.288  12.764  1.00  0.00     0.003 A 
HETATM   15  C   UNL     1     -53.620  48.882  11.437  1.00  0.00     0.007 A 
BRANCH  12  16
HETATM   16  O   UNL     1     -53.732  52.897  12.443  1.00  0.00    -0.361 OA
HETATM   17  H   UNL     1     -53.241  53.192  13.184  1.00  0.00     0.217 HD
ENDBRANCH  12  16
ENDBRANCH   9  10
ENDBRANCH   3   9
ENDBRANCH   1   3
TORSDOF 7
ENDMDL
MODEL 2
REMARK VINA RESULT:     -18.4      1.547      1.967
REMARK  7 active torsions:
REMARK  status: ('A' for Active; 'I' for Inactive)
REMARK    1  A    between atoms: O_1  and  C_2 
REMARK    2  A    between atoms: C_2  and  C_3 
REMARK    3  A    between atoms: C_2  and  C_8 
REMARK    4  A    between atoms: C_3  and  C_4 
REMARK    5  A    between atoms: C_4  and  C_5 
REMARK    6  A    between atoms: C_8  and  C_9 
REMARK    7  A    between atoms: C_11  and  O_15 
ROOT
HETATM    1  O   UNL     1     -54.883  48.635   7.397  1.00  0.00    -0.395 OA
HETATM    2  H   UNL     1     -54.459  48.435   6.548  1.00  0.00     0.210 HD
ENDROOT
BRANCH   1   3
HETATM    3  C   UNL     1     -53.882  48.806   8.400  1.00  0.00     0.122 C 
BRANCH   3   4
HETATM    4  C   UNL     1     -52.485  48.696   7.767  1.00  0.00     0.042 C 
BRANCH   4   5
HETATM    5  C   UNL     1     -52.296  47.431   6.928  1.00  0.00     0.116 C 
BRANCH   5   6
HETATM    6  C   UNL     1     -52.867  47.472   5.533  1.00  0.00     0.172 C 
HETATM    7  O   UNL     1     -53.819  46.817   5.142  1.00  0.00    -0.648 OA
HETATM    8  O   UNL     1     -52.181  48.244   4.666  1.00  0.00    -0.648 OA
ENDBRANCH   5   6
ENDBRANCH   4   5
ENDBRANCH   3   4
BRANCH   3   9
HETATM    9  C   UNL     1     -54.063  50.173   9.089  1.00  0.00     0.070 C 
BRANCH   9  10
HETATM   10  C   UNL     1     -53.815  50.124  10.581  1.00  0.00    -0.053 A 
HETATM   11  C   UNL     1     -53.484  48.913  11.209  1.00  0.00     0.043 A 
HETATM   12  C   UNL     1     -53.256  48.883  12.584  1.00  0.00     0.066 A 
HETATM   13  C   UNL     1     -53.353  50.038  13.350  1.00  0.00     0.036 A 
HETATM   14  C   UNL     1     -53.682  51.244  12.736  1.00  0.00     0.003 A 
HETATM   15  C   UNL     1     -53.911  51.287  11.359  1.00  0.00     0.007 A 
BRANCH  12  16
HETATM   16  O   UNL     1     -52.931  47.724  13.225  1.00  0.00    -0.361 OA
HETATM   17  H   UNL     1     -53.599  47.104  13.440  1.00  0.00     0.217 HD
ENDBRANCH  12  16
ENDBRANCH   9  10
ENDBRANCH   3   9
ENDBRANCH   1   3
TORSDOF 7
ENDMDL
MODEL 3
REMARK VINA RESULT:     -17.9      2.141      3.135
REMARK  7 active torsions:
REMARK  status: ('A' for Active; 'I' for Inactive)
REMARK    1  A    between atoms: O_1  and  C_2 
REMARK    2  A    between atoms: C_2  and  C_3 
REMARK    3  A    between atoms: C_2  and  C_8 
REMARK    4  A    between atoms: C_3  and  C_4 
REMARK    5  A    between atoms: C_4  and  C_5 
REMARK    6  A    between atoms: C_8  and  C_9 
REMARK    7  A    between atoms: C_11  and  O_15 
ROOT
HETATM    1  O   UNL     1     -54.229  48.973   7.798  1.00  0.00    -0.395 OA
HETATM    2  H   UNL     1     -54.972  49.441   7.386  1.00  0.00     0.210 HD
ENDROOT
BRANCH   1   3
HETATM    3  C   UNL     1     -54.609  48.527   9.099  1.00  0.00     0.122 C 
BRANCH   3   4
HETATM    4  C   UNL     1     -55.484  47.269   8.984  1.00  0.00     0.042 C 
BRANCH   4   5
HETATM    5  C   UNL     1     -54.698  45.966   9.145  1.00  0.00     0.116 C 
BRANCH   5   6
HETATM    6  C   UNL     1     -55.492  44.693   8.997  1.00  0.00     0.172 C 
HETATM    7  O   UNL     1     -56.476  44.555   8.288  1.00  0.00    -0.648 OA
HETATM    8  O   UNL     1     -55.096  43.685   9.799  1.00  0.00    -0.648 OA
ENDBRANCH   5   6
ENDBRANCH   4   5
ENDBRANCH   3   4
BRANCH   3   9
HETATM    9  C   UNL     1     -53.350  48.241   9.940  1.00  0.00     0.070 C 
BRANCH   9  10
HETATM   10  C   UNL     1     -53.359  48.941  11.283  1.00  0.00    -0.053 A 
HETATM   11  C   UNL     1     -53.672  50.306  11.372  1.00  0.00     0.043 A 
HETATM   12  C   UNL     1     -53.679  50.938  12.614  1.00  0.00     0.066 A 
HETATM   13  C   UNL     1     -53.380  50.235  13.775  1.00  0.00     0.036 A 
HETATM   14  C   UNL     1     -53.068  48.880  13.696  1.00  0.00     0.003 A 
HETATM   15  C   UNL     1     -53.058  48.236  12.457  1.00  0.00     0.007 A 
BRANCH  12  16
HETATM   16  O   UNL     1     -53.980  52.262  12.736  1.00  0.00    -0.361 OA
HETATM   17  H   UNL     1     -54.874  52.537  12.791  1.00  0.00     0.217 HD
ENDBRANCH  12  16
ENDBRANCH   9  10
ENDBRANCH   3   9
ENDBRANCH   1   3
TORSDOF 7
ENDMDL
MODEL 4
REMARK VINA RESULT:     -17.9      1.506      2.108
REMARK  7 active torsions:
REMARK  status: ('A' for Active; 'I' for Inactive)
REMARK    1  A    between atoms: O_1  and  C_2 
REMARK    2  A    between atoms: C_2  and  C_3 
REMARK    3  A    between atoms: C_2  and  C_8 
REMARK    4  A    between atoms: C_3  and  C_4 
REMARK    5  A    between atoms: C_4  and  C_5 
REMARK    6  A    between atoms: C_8  and  C_9 
REMARK    7  A    between atoms: C_11  and  O_15 
ROOT
HETATM    1  O   UNL     1     -52.120  48.162   8.222  1.00  0.00    -0.395 OA
HETATM    2  H   UNL     1     -52.048  48.336   7.271  1.00  0.00     0.210 HD
ENDROOT
BRANCH   1   3
HETATM    3  C   UNL     1     -53.470  48.362   8.641  1.00  0.00     0.122 C 
BRANCH   3   4
HETATM    4  C   UNL     1     -54.407  47.451   7.831  1.00  0.00     0.042 C 
BRANCH   4   5
HETATM    5  C   UNL     1     -53.665  46.418   6.980  1.00  0.00     0.116 C 
BRANCH   5   6
HETATM    6  C   UNL     1     -53.354  46.831   5.565  1.00  0.00     0.172 C 
HETATM    7  O   UNL     1     -52.793  47.865   5.239  1.00  0.00    -0.648 OA
HETATM    8  O   UNL     1     -53.830  45.999   4.617  1.00  0.00    -0.648 OA
ENDBRANCH   5   6
ENDBRANCH   4   5
ENDBRANCH   3   4
BRANCH   3   9
HETATM    9  C   UNL     1     -53.596  48.072  10.149  1.00  0.00     0.070 C 
BRANCH   9  10
HETATM   10  C   UNL     1     -53.648  49.326  10.994  1.00  0.00    -0.053 A 
HETATM   11  C   UNL     1     -53.477  49.255  12.386  1.00  0.00     0.043 A 
HETATM   12  C   UNL     1     -53.524  50.419  13.152  1.00  0.00     0.066 A 
HETATM   13  C   UNL     1     -53.741  51.656  12.559  1.00  0.00     0.036 A 
HETATM   14  C   UNL     1     -53.912  51.737  11.179  1.00  0.00     0.003 A 
HETATM   15  C   UNL     1     -53.865  50.578  10.401  1.00  0.00     0.007 A 
BRANCH  12  16
HETATM   16  O   UNL     1     -53.361  50.385  14.505  1.00  0.00    -0.361 OA
HETATM   17  H   UNL     1     -53.938  49.870  15.034  1.00  0.00     0.217 HD
ENDBRANCH  12  16
ENDBRANCH   9  10
ENDBRANCH   3   9
ENDBRANCH   1   3
TORSDOF 7
ENDMDL
MODEL 5
REMARK VINA RESULT:     -17.8      3.381      6.764
REMARK  7 active torsions:
REMARK  status: ('A' for Active; 'I' for Inactive)
REMARK    1  A    between atoms: O_1  and  C_2 
REMARK    2  A    between atoms: C_2  and  C_3 
REMARK    3  A    between atoms: C_2  and  C_8 
REMARK    4  A    between atoms: C_3  and  C_4 
REMARK    5  A    between atoms: C_4  and  C_5 
REMARK    6  A    between atoms: C_8  and  C_9 
REMARK    7  A    between atoms: C_11  and  O_15 
ROOT
HETATM    1  O   UNL     1     -52.919  50.566  15.251  1.00  0.00    -0.395 OA
HETATM    2  H   UNL     1     -53.704  51.128  15.342  1.00  0.00     0.210 HD
ENDROOT
BRANCH   1   3
HETATM    3  C   UNL     1     -52.889  50.002  13.940  1.00  0.00     0.122 C 
BRANCH   3   4
HETATM    4  C   UNL     1     -53.218  48.502  14.011  1.00  0.00     0.042 C 
BRANCH   4   5
HETATM    5  C   UNL     1     -52.322  47.728  14.980  1.00  0.00     0.116 C 
BRANCH   5   6
HETATM    6  C   UNL     1     -52.909  47.447  16.340  1.00  0.00     0.172 C 
HETATM    7  O   UNL     1     -52.434  46.687  17.169  1.00  0.00    -0.648 OA
HETATM    8  O   UNL     1     -54.096  48.040  16.575  1.00  0.00    -0.648 OA
ENDBRANCH   5   6
ENDBRANCH   4   5
ENDBRANCH   3   4
BRANCH   3   9
HETATM    9  C   UNL     1     -53.893  50.738  13.032  1.00  0.00     0.070 C 
BRANCH   9  10
HETATM   10  C   UNL     1     -53.814  50.305  11.584  1.00  0.00    -0.053 A 
HETATM   11  C   UNL     1     -53.980  51.240  10.551  1.00  0.00     0.043 A 
HETATM   12  C   UNL     1     -53.902  50.829   9.221  1.00  0.00     0.066 A 
HETATM   13  C   UNL     1     -53.664  49.499   8.898  1.00  0.00     0.036 A 
HETATM   14  C   UNL     1     -53.499  48.563   9.916  1.00  0.00     0.003 A 
HETATM   15  C   UNL     1     -53.573  48.964  11.252  1.00  0.00     0.007 A 
BRANCH  12  16
HETATM   16  O   UNL     1     -54.057  51.712   8.194  1.00  0.00    -0.361 OA
HETATM   17  H   UNL     1     -54.863  51.741   7.718  1.00  0.00     0.217 HD
ENDBRANCH  12  16
ENDBRANCH   9  10
ENDBRANCH   3   9
ENDBRANCH   1   3
TORSDOF 7
ENDMDL
MODEL 6
REMARK VINA RESULT:     -17.8      3.516      7.055
REMARK  7 active torsions:
REMARK  status: ('A' for Active; 'I' for Inactive)
REMARK    1  A    between atoms: O_1  and  C_2 
REMARK    2  A    between atoms: C_2  and  C_3 
REMARK    3  A    between atoms: C_2  and  C_8 
REMARK    4  A    between atoms: C_3  and  C_4 
REMARK    5  A    between atoms: C_4  and  C_5 
REMARK    6  A    between atoms: C_8  and  C_9 
REMARK    7  A    between atoms: C_11  and  O_15 
ROOT
HETATM    1  O   UNL     1     -54.578  49.733  14.904  1.00  0.00    -0.395 OA
HETATM    2  H   UNL     1     -54.732  50.585  15.340  1.00  0.00     0.210 HD
ENDROOT
BRANCH   1   3
HETATM    3  C   UNL     1     -53.289  49.737  14.291  1.00  0.00     0.122 C 
BRANCH   3   4
HETATM    4  C   UNL     1     -52.239  49.206  15.281  1.00  0.00     0.042 C 
BRANCH   4   5
HETATM    5  C   UNL     1     -52.272  47.684  15.442  1.00  0.00     0.116 C 
BRANCH   5   6
HETATM    6  C   UNL     1     -52.900  47.169  16.711  1.00  0.00     0.172 C 
HETATM    7  O   UNL     1     -52.390  46.360  17.471  1.00  0.00    -0.648 OA
HETATM    8  O   UNL     1     -54.158  47.599  16.934  1.00  0.00    -0.648 OA
ENDBRANCH   5   6
ENDBRANCH   4   5
ENDBRANCH   3   4
BRANCH   3   9
HETATM    9  C   UNL     1     -53.317  48.878  13.012  1.00  0.00     0.070 C 
BRANCH   9  10
HETATM   10  C   UNL     1     -53.578  49.685  11.758  1.00  0.00    -0.053 A 
HETATM   11  C   UNL     1     -53.710  49.047  10.515  1.00  0.00     0.043 A 
HETATM   12  C   UNL     1     -53.953  49.802   9.369  1.00  0.00     0.066 A 
HETATM   13  C   UNL     1     -54.067  51.185   9.435  1.00  0.00     0.036 A 
HETATM   14  C   UNL     1     -53.937  51.827  10.664  1.00  0.00     0.003 A 
HETATM   15  C   UNL     1     -53.695  51.081  11.820  1.00  0.00     0.007 A 
BRANCH  12  16
HETATM   16  O   UNL     1     -54.087  49.213   8.146  1.00  0.00    -0.361 OA
HETATM   17  H   UNL     1     -54.935  48.969   7.834  1.00  0.00     0.217 HD
ENDBRANCH  12  16
ENDBRANCH   9  10
ENDBRANCH   3   9
ENDBRANCH   1   3
TORSDOF 7
ENDMDL
MODEL 7
REMARK VINA RESULT:     -17.7      2.697      3.863
REMARK  7 active torsions:
REMARK  status: ('A' for Active; 'I' for Inactive)
REMARK    1  A    between atoms: O_1  and  C_2 
REMARK    2  A    between atoms: C_2  and  C_3 
REMARK    3  A    between atoms: C_2  and  C_8 
REMARK    4  A    between atoms: C_3  and  C_4 
REMARK    5  A    between atoms: C_4  and  C_5 
REMARK    6  A    between atoms: C_8  and  C_9 
REMARK    7  A    between atoms: C_11  and  O_15 
ROOT
HETATM    1  O   UNL     1     -54.287  46.876   7.373  1.00  0.00    -0.395 OA
HETATM    2  H   UNL     1     -54.912  46.824   6.633  1.00  0.00     0.210 HD
ENDROOT
BRANCH   1   3
HETATM    3  C   UNL     1     -54.981  47.274   8.554  1.00  0.00     0.122 C 
BRANCH   3   4
HETATM    4  C   UNL     1     -56.014  46.203   8.939  1.00  0.00     0.042 C 
BRANCH   4   5
HETATM    5  C   UNL     1     -55.518  44.773   8.716  1.00  0.00     0.116 C 
BRANCH   5   6
HETATM    6  C   UNL     1     -56.584  43.710   8.634  1.00  0.00     0.172 C 
HETATM    7  O   UNL     1     -57.156  43.363   7.613  1.00  0.00    -0.648 OA
HETATM    8  O   UNL     1     -56.959  43.194   9.822  1.00  0.00    -0.648 OA
ENDBRANCH   5   6
ENDBRANCH   4   5
ENDBRANCH   3   4
BRANCH   3   9
HETATM    9  C   UNL     1     -53.974  47.497   9.700  1.00  0.00     0.070 C 
BRANCH   9  10
HETATM   10  C   UNL     1     -53.923  48.932  10.177  1.00  0.00    -0.053 A 
HETATM   11  C   UNL     1     -54.109  49.990   9.274  1.00  0.00     0.043 A 
HETATM   12  C   UNL     1     -54.062  51.308   9.726  1.00  0.00     0.066 A 
HETATM   13  C   UNL     1     -53.833  51.595  11.066  1.00  0.00     0.036 A 
HETATM   14  C   UNL     1     -53.646  50.552  11.971  1.00  0.00     0.003 A 
HETATM   15  C   UNL     1     -53.692  49.228  11.529  1.00  0.00     0.007 A 
BRANCH  12  16
HETATM   16  O   UNL     1     -54.240  52.358   8.875  1.00  0.00    -0.361 OA
HETATM   17  H   UNL     1     -53.496  52.800   8.515  1.00  0.00     0.217 HD
ENDBRANCH  12  16
ENDBRANCH   9  10
ENDBRANCH   3   9
ENDBRANCH   1   3
TORSDOF 7
ENDMDL
MODEL 8
REMARK VINA RESULT:     -17.6      1.733      2.399
REMARK  7 active torsions:
REMARK  status: ('A' for Active; 'I' for Inactive)
REMARK    1  A    between atoms: O_1  and  C_2 
REMARK    2  A    between atoms: C_2  and  C_3 
REMARK    3  A    between atoms: C_2  and  C_8 
REMARK    4  A    between atoms: C_3  and  C_4 
REMARK    5  A    between atoms: C_4  and  C_5 
REMARK    6  A    between atoms: C_8  and  C_9 
REMARK    7  A    between atoms: C_11  and  O_15 
ROOT
HETATM    1  O   UNL     1     -53.886  51.360   8.141  1.00  0.00    -0.395 OA
HETATM    2  H   UNL     1     -54.462  52.137   8.077  1.00  0.00     0.210 HD
ENDROOT
BRANCH   1   3
HETATM    3  C   UNL     1     -54.298  50.552   9.243  1.00  0.00     0.122 C 
BRANCH   3   4
HETATM    4  C   UNL     1     -53.545  49.213   9.218  1.00  0.00     0.042 C 
BRANCH   4   5
HETATM    5  C   UNL     1     -53.031  48.830   7.828  1.00  0.00     0.116 C 
BRANCH   5   6
HETATM    6  C   UNL     1     -53.791  47.736   7.123  1.00  0.00     0.172 C 
HETATM    7  O   UNL     1     -54.664  47.047   7.626  1.00  0.00    -0.648 OA
HETATM    8  O   UNL     1     -53.375  47.481   5.866  1.00  0.00    -0.648 OA
ENDBRANCH   5   6
ENDBRANCH   4   5
ENDBRANCH   3   4
BRANCH   3   9
HETATM    9  C   UNL     1     -54.036  51.301  10.564  1.00  0.00     0.070 C 
BRANCH   9  10
HETATM   10  C   UNL     1     -53.648  50.381  11.702  1.00  0.00    -0.053 A 
HETATM   11  C   UNL     1     -53.503  50.883  13.005  1.00  0.00     0.043 A 
HETATM   12  C   UNL     1     -53.148  50.025  14.045  1.00  0.00     0.066 A 
HETATM   13  C   UNL     1     -52.932  48.672  13.812  1.00  0.00     0.036 A 
HETATM   14  C   UNL     1     -53.072  48.165  12.522  1.00  0.00     0.003 A 
HETATM   15  C   UNL     1     -53.429  49.015  11.473  1.00  0.00     0.007 A 
BRANCH  12  16
HETATM   16  O   UNL     1     -53.001  50.479  15.322  1.00  0.00    -0.361 OA
HETATM   17  H   UNL     1     -52.503  49.983  15.941  1.00  0.00     0.217 HD
ENDBRANCH  12  16
ENDBRANCH   9  10
ENDBRANCH   3   9
ENDBRANCH   1   3
TORSDOF 7
ENDMDL
MODEL 9
REMARK VINA RESULT:     -17.4      3.848      6.944
REMARK  7 active torsions:
REMARK  status: ('A' for Active; 'I' for Inactive)
REMARK    1  A    between atoms: O_1  and  C_2 
REMARK    2  A    between atoms: C_2  and  C_3 
REMARK    3  A    between atoms: C_2  and  C_8 
REMARK    4  A    between atoms: C_3  and  C_4 
REMARK    5  A    between atoms: C_4  and  C_5 
REMARK    6  A    between atoms: C_8  and  C_9 
REMARK    7  A    between atoms: C_11  and  O_15 
ROOT
HETATM    1  O   UNL     1     -54.405  49.742  14.921  1.00  0.00    -0.395 OA
HETATM    2  H   UNL     1     -54.939  50.431  14.494  1.00  0.00     0.210 HD
ENDROOT
BRANCH   1   3
HETATM    3  C   UNL     1     -53.180  49.580  14.208  1.00  0.00     0.122 C 
BRANCH   3   4
HETATM    4  C   UNL     1     -52.283  48.564  14.935  1.00  0.00     0.042 C 
BRANCH   4   5
HETATM    5  C   UNL     1     -53.042  47.695  15.941  1.00  0.00     0.116 C 
BRANCH   5   6
HETATM    6  C   UNL     1     -52.259  46.567  16.560  1.00  0.00     0.172 C 
HETATM    7  O   UNL     1     -51.823  45.598  15.959  1.00  0.00    -0.648 OA
HETATM    8  O   UNL     1     -52.131  46.639  17.901  1.00  0.00    -0.648 OA
ENDBRANCH   5   6
ENDBRANCH   4   5
ENDBRANCH   3   4
BRANCH   3   9
HETATM    9  C   UNL     1     -53.472  49.116  12.767  1.00  0.00     0.070 C 
BRANCH   9  10
HETATM   10  C   UNL     1     -53.662  50.264  11.799  1.00  0.00    -0.053 A 
HETATM   11  C   UNL     1     -53.843  50.017  10.429  1.00  0.00     0.043 A 
HETATM   12  C   UNL     1     -54.019  51.083   9.548  1.00  0.00     0.066 A 
HETATM   13  C   UNL     1     -54.018  52.395  10.006  1.00  0.00     0.036 A 
HETATM   14  C   UNL     1     -53.837  52.650  11.363  1.00  0.00     0.003 A 
HETATM   15  C   UNL     1     -53.661  51.590  12.255  1.00  0.00     0.007 A 
BRANCH  12  16
HETATM   16  O   UNL     1     -54.199  50.879   8.213  1.00  0.00    -0.361 OA
HETATM   17  H   UNL     1     -54.036  51.573   7.606  1.00  0.00     0.217 HD
ENDBRANCH  12  16
ENDBRANCH   9  10
ENDBRANCH   3   9
ENDBRANCH   1   3
TORSDOF 7
ENDMDL
