MODEL 1
REMARK VINA RESULT:     -19.1      0.000      0.000
REMARK  7 active torsions:
REMARK  status: ('A' for Active; 'I' for Inactive)
REMARK    1  A    between atoms: O_1  and  C_12 
REMARK    2  A    between atoms: O_3  and  C_15 
REMARK    3  A    between atoms: C_5  and  C_6 
REMARK    4  A    between atoms: C_5  and  C_7 
REMARK    5  A    between atoms: C_6  and  C_8 
REMARK    6  A    between atoms: C_7  and  C_9 
REMARK    7  A    between atoms: C_9  and  C_14 
ROOT
HETATM    1  O   UNL     1     -54.159  51.685   8.153  1.00  0.00    -0.358 OA
HETATM    2  H   UNL     1     -54.905  51.623   7.589  1.00  0.00     0.217 HD
ENDROOT
BRANCH   1   3
HETATM    3  C   UNL     1     -53.999  50.793   9.172  1.00  0.00     0.099 A 
HETATM    4  C   UNL     1     -53.885  51.262  10.481  1.00  0.00     0.046 A 
HETATM    5  C   UNL     1     -53.719  50.361  11.532  1.00  0.00    -0.055 A 
HETATM    6  C   UNL     1     -53.666  48.990  11.275  1.00  0.00     0.010 A 
HETATM    7  C   UNL     1     -53.781  48.522   9.965  1.00  0.00     0.040 A 
HETATM    8  C   UNL     1     -53.947  49.424   8.914  1.00  0.00     0.098 A 
BRANCH   5   9
HETATM    9  C   UNL     1     -53.595  50.867  12.947  1.00  0.00     0.038 C 
BRANCH   9  10
HETATM   10  C   UNL     1     -53.895  49.810  14.015  1.00  0.00     0.005 C 
BRANCH  10  11
HETATM   11  C   UNL     1     -52.649  49.380  14.801  1.00  0.00     0.011 C 
BRANCH  11  12
HETATM   12  C   UNL     1     -52.596  47.870  15.030  1.00  0.00     0.113 C 
BRANCH  12  13
HETATM   13  C   UNL     1     -53.044  47.458  16.414  1.00  0.00     0.172 C 
HETATM   14  O   UNL     1     -52.017  46.932  17.132  1.00  0.00    -0.648 OA
HETATM   15  O   UNL     1     -54.174  47.588  16.864  1.00  0.00    -0.648 OA
ENDBRANCH  12  13
ENDBRANCH  11  12
ENDBRANCH  10  11
ENDBRANCH   9  10
ENDBRANCH   5   9
BRANCH   8  16
HETATM   16  O   UNL     1     -54.057  48.955   7.640  1.00  0.00    -0.358 OA
HETATM   17  H   UNL     1     -53.320  48.993   7.062  1.00  0.00     0.217 HD
ENDBRANCH   8  16
ENDBRANCH   1   3
TORSDOF 7
ENDMDL
MODEL 2
REMARK VINA RESULT:     -18.9      0.621      1.922
REMARK  7 active torsions:
REMARK  status: ('A' for Active; 'I' for Inactive)
REMARK    1  A    between atoms: O_1  and  C_12 
REMARK    2  A    between atoms: O_3  and  C_15 
REMARK    3  A    between atoms: C_5  and  C_6 
REMARK    4  A    between atoms: C_5  and  C_7 
REMARK    5  A    between atoms: C_6  and  C_8 
REMARK    6  A    between atoms: C_7  and  C_9 
REMARK    7  A    between atoms: C_9  and  C_14 
ROOT
HETATM    1  O   UNL     1     -54.128  49.172   7.947  1.00  0.00    -0.358 OA
HETATM    2  H   UNL     1     -54.832  49.379   7.363  1.00  0.00     0.217 HD
ENDROOT
BRANCH   1   3
HETATM    3  C   UNL     1     -53.988  49.859   9.116  1.00  0.00     0.099 A 
HETATM    4  C   UNL     1     -53.782  49.156  10.303  1.00  0.00     0.046 A 
HETATM    5  C   UNL     1     -53.639  49.848  11.506  1.00  0.00    -0.055 A 
HETATM    6  C   UNL     1     -53.703  51.241  11.522  1.00  0.00     0.010 A 
HETATM    7  C   UNL     1     -53.907  51.943  10.334  1.00  0.00     0.040 A 
HETATM    8  C   UNL     1     -54.051  51.251   9.131  1.00  0.00     0.098 A 
BRANCH   5   9
HETATM    9  C   UNL     1     -53.418  49.088  12.790  1.00  0.00     0.038 C 
BRANCH   9  10
HETATM   10  C   UNL     1     -53.453  49.967  14.046  1.00  0.00     0.005 C 
BRANCH  10  11
HETATM   11  C   UNL     1     -52.595  49.411  15.190  1.00  0.00     0.011 C 
BRANCH  11  12
HETATM   12  C   UNL     1     -52.566  47.882  15.208  1.00  0.00     0.113 C 
BRANCH  12  13
HETATM   13  C   UNL     1     -53.023  47.290  16.522  1.00  0.00     0.172 C 
HETATM   14  O   UNL     1     -54.275  47.706  16.846  1.00  0.00    -0.648 OA
HETATM   15  O   UNL     1     -52.377  46.516  17.215  1.00  0.00    -0.648 OA
ENDBRANCH  12  13
ENDBRANCH  11  12
ENDBRANCH  10  11
ENDBRANCH   9  10
ENDBRANCH   5   9
BRANCH   8  16
HETATM   16  O   UNL     1     -54.251  51.948   7.977  1.00  0.00    -0.358 OA
HETATM   17  H   UNL     1     -54.647  51.528   7.239  1.00  0.00     0.217 HD
ENDBRANCH   8  16
ENDBRANCH   1   3
TORSDOF 7
ENDMDL
MODEL 3
REMARK VINA RESULT:     -18.9      2.571      6.941
REMARK  7 active torsions:
REMARK  status: ('A' for Active; 'I' for Inactive)
REMARK    1  A    between atoms: O_1  and  C_12 
REMARK    2  A    between atoms: O_3  and  C_15 
REMARK    3  A    between atoms: C_5  and  C_6 
REMARK    4  A    between atoms: C_5  and  C_7 
REMARK    5  A    between atoms: C_6  and  C_8 
REMARK    6  A    between atoms: C_7  and  C_9 
REMARK    7  A    between atoms: C_9  and  C_14 
ROOT
HETATM    1  O   UNL     1     -53.956  52.043  12.815  1.00  0.00    -0.358 OA
HETATM    2  H   UNL     1     -53.939  52.402  13.681  1.00  0.00     0.217 HD
ENDROOT
BRANCH   1   3
HETATM    3  C   UNL     1     -53.653  50.729  12.618  1.00  0.00     0.099 A 
HETATM    4  C   UNL     1     -53.788  50.179  11.343  1.00  0.00     0.046 A 
HETATM    5  C   UNL     1     -53.484  48.835  11.127  1.00  0.00    -0.055 A 
HETATM    6  C   UNL     1     -53.045  48.040  12.187  1.00  0.00     0.010 A 
HETATM    7  C   UNL     1     -52.909  48.591  13.462  1.00  0.00     0.040 A 
HETATM    8  C   UNL     1     -53.214  49.935  13.676  1.00  0.00     0.098 A 
BRANCH   5   9
HETATM    9  C   UNL     1     -53.631  48.240   9.749  1.00  0.00     0.038 C 
BRANCH   9  10
HETATM   10  C   UNL     1     -53.292  49.211   8.614  1.00  0.00     0.005 C 
BRANCH  10  11
HETATM   11  C   UNL     1     -52.346  48.604   7.568  1.00  0.00     0.011 C 
BRANCH  11  12
HETATM   12  C   UNL     1     -52.908  47.325   6.947  1.00  0.00     0.113 C 
BRANCH  12  13
HETATM   13  C   UNL     1     -52.938  47.356   5.436  1.00  0.00     0.172 C 
HETATM   14  O   UNL     1     -53.749  46.388   4.935  1.00  0.00    -0.648 OA
HETATM   15  O   UNL     1     -52.336  48.153   4.729  1.00  0.00    -0.648 OA
ENDBRANCH  12  13
ENDBRANCH  11  12
ENDBRANCH  10  11
ENDBRANCH   9  10
ENDBRANCH   5   9
BRANCH   8  16
HETATM   16  O   UNL     1     -53.079  50.461  14.926  1.00  0.00    -0.358 OA
HETATM   17  H   UNL     1     -52.243  50.450  15.350  1.00  0.00     0.217 HD
ENDBRANCH   8  16
ENDBRANCH   1   3
TORSDOF 7
ENDMDL
MODEL 4
REMARK VINA RESULT:     -18.5      2.406      7.104
REMARK  7 active torsions:
REMARK  status: ('A' for Active; 'I' for Inactive)
REMARK    1  A    between atoms: O_1  and  C_12 
REMARK    2  A    between atoms: O_3  and  C_15 
REMARK    3  A    between atoms: C_5  and  C_6 
REMARK    4  A    between atoms: C_5  and  C_7 
REMARK    5  A    between atoms: C_6  and  C_8 
REMARK    6  A    between atoms: C_7  and  C_9 
REMARK    7  A    between atoms: C_9  and  C_14 
ROOT
HETATM    1  O   UNL     1     -52.792  47.836  13.947  1.00  0.00    -0.358 OA
HETATM    2  H   UNL     1     -53.119  47.757  14.822  1.00  0.00     0.217 HD
ENDROOT
BRANCH   1   3
HETATM    3  C   UNL     1     -53.144  48.909  13.184  1.00  0.00     0.099 A 
HETATM    4  C   UNL     1     -53.391  48.730  11.823  1.00  0.00     0.046 A 
HETATM    5  C   UNL     1     -53.750  49.820  11.030  1.00  0.00    -0.055 A 
HETATM    6  C   UNL     1     -53.860  51.090  11.598  1.00  0.00     0.010 A 
HETATM    7  C   UNL     1     -53.613  51.268  12.960  1.00  0.00     0.040 A 
HETATM    8  C   UNL     1     -53.255  50.177  13.752  1.00  0.00     0.098 A 
BRANCH   5   9
HETATM    9  C   UNL     1     -54.015  49.627   9.558  1.00  0.00     0.038 C 
BRANCH   9  10
HETATM   10  C   UNL     1     -54.331  48.179   9.168  1.00  0.00     0.005 C 
BRANCH  10  11
HETATM   11  C   UNL     1     -54.433  47.975   7.651  1.00  0.00     0.011 C 
BRANCH  11  12
HETATM   12  C   UNL     1     -53.062  47.835   6.988  1.00  0.00     0.113 C 
BRANCH  12  13
HETATM   13  C   UNL     1     -53.138  47.406   5.540  1.00  0.00     0.172 C 
HETATM   14  O   UNL     1     -52.323  48.158   4.756  1.00  0.00    -0.648 OA
HETATM   15  O   UNL     1     -53.821  46.489   5.105  1.00  0.00    -0.648 OA
ENDBRANCH  12  13
ENDBRANCH  11  12
ENDBRANCH  10  11
ENDBRANCH   9  10
ENDBRANCH   5   9
BRANCH   8  16
HETATM   16  O   UNL     1     -53.015  50.364  15.080  1.00  0.00    -0.358 OA
HETATM   17  H   UNL     1     -53.133  51.212  15.462  1.00  0.00     0.217 HD
ENDBRANCH   8  16
ENDBRANCH   1   3
TORSDOF 7
ENDMDL
MODEL 5
REMARK VINA RESULT:     -17.9      3.033      5.852
REMARK  7 active torsions:
REMARK  status: ('A' for Active; 'I' for Inactive)
REMARK    1  A    between atoms: O_1  and  C_12 
REMARK    2  A    between atoms: O_3  and  C_15 
REMARK    3  A    between atoms: C_5  and  C_6 
REMARK    4  A    between atoms: C_5  and  C_7 
REMARK    5  A    between atoms: C_6  and  C_8 
REMARK    6  A    between atoms: C_7  and  C_9 
REMARK    7  A    between atoms: C_9  and  C_14 
ROOT
HETATM    1  O   UNL     1     -54.010  51.906  12.998  1.00  0.00    -0.358 OA
HETATM    2  H   UNL     1     -53.678  52.347  13.756  1.00  0.00     0.217 HD
ENDROOT
BRANCH   1   3
HETATM    3  C   UNL     1     -53.661  50.612  12.754  1.00  0.00     0.099 A 
HETATM    4  C   UNL     1     -53.735  50.116  11.453  1.00  0.00     0.046 A 
HETATM    5  C   UNL     1     -53.382  48.792  11.190  1.00  0.00    -0.055 A 
HETATM    6  C   UNL     1     -52.956  47.964  12.230  1.00  0.00     0.010 A 
HETATM    7  C   UNL     1     -52.881  48.462  13.531  1.00  0.00     0.040 A 
HETATM    8  C   UNL     1     -53.234  49.785  13.793  1.00  0.00     0.098 A 
BRANCH   5   9
HETATM    9  C   UNL     1     -53.463  48.255   9.783  1.00  0.00     0.038 C 
BRANCH   9  10
HETATM   10  C   UNL     1     -54.837  48.435   9.128  1.00  0.00     0.005 C 
BRANCH  10  11
HETATM   11  C   UNL     1     -55.667  47.144   9.113  1.00  0.00     0.011 C 
BRANCH  11  12
HETATM   12  C   UNL     1     -54.798  45.894   8.970  1.00  0.00     0.113 C 
BRANCH  12  13
HETATM   13  C   UNL     1     -55.600  44.616   8.869  1.00  0.00     0.172 C 
HETATM   14  O   UNL     1     -55.147  43.675   9.738  1.00  0.00    -0.648 OA
HETATM   15  O   UNL     1     -56.553  44.432   8.124  1.00  0.00    -0.648 OA
ENDBRANCH  12  13
ENDBRANCH  11  12
ENDBRANCH  10  11
ENDBRANCH   9  10
ENDBRANCH   5   9
BRANCH   8  16
HETATM   16  O   UNL     1     -53.158  50.259  15.068  1.00  0.00    -0.358 OA
HETATM   17  H   UNL     1     -52.838  49.707  15.754  1.00  0.00     0.217 HD
ENDBRANCH   8  16
ENDBRANCH   1   3
TORSDOF 7
ENDMDL
MODEL 6
REMARK VINA RESULT:     -17.9      3.570      6.652
REMARK  7 active torsions:
REMARK  status: ('A' for Active; 'I' for Inactive)
REMARK    1  A    between atoms: O_1  and  C_12 
REMARK    2  A    between atoms: O_3  and  C_15 
REMARK    3  A    between atoms: C_5  and  C_6 
REMARK    4  A    between atoms: C_5  and  C_7 
REMARK    5  A    between atoms: C_6  and  C_8 
REMARK    6  A    between atoms: C_7  and  C_9 
REMARK    7  A    between atoms: C_9  and  C_14 
ROOT
HETATM    1  O   UNL     1     -54.076  52.684   9.312  1.00  0.00    -0.358 OA
HETATM    2  H   UNL     1     -54.902  53.117   9.213  1.00  0.00     0.217 HD
ENDROOT
BRANCH   1   3
HETATM    3  C   UNL     1     -53.952  51.646  10.187  1.00  0.00     0.099 A 
HETATM    4  C   UNL     1     -53.992  50.337   9.706  1.00  0.00     0.046 A 
HETATM    5  C   UNL     1     -53.868  49.266  10.592  1.00  0.00    -0.055 A 
HETATM    6  C   UNL     1     -53.706  49.503  11.957  1.00  0.00     0.010 A 
HETATM    7  C   UNL     1     -53.666  50.813  12.436  1.00  0.00     0.040 A 
HETATM    8  C   UNL     1     -53.790  51.884  11.551  1.00  0.00     0.098 A 
BRANCH   5   9
HETATM    9  C   UNL     1     -53.912  47.850  10.073  1.00  0.00     0.038 C 
BRANCH   9  10
HETATM   10  C   UNL     1     -54.652  47.700   8.739  1.00  0.00     0.005 C 
BRANCH  10  11
HETATM   11  C   UNL     1     -53.943  46.751   7.764  1.00  0.00     0.011 C 
BRANCH  11  12
HETATM   12  C   UNL     1     -52.866  47.459   6.941  1.00  0.00     0.113 C 
BRANCH  12  13
HETATM   13  C   UNL     1     -53.023  47.258   5.451  1.00  0.00     0.172 C 
HETATM   14  O   UNL     1     -52.323  48.188   4.749  1.00  0.00    -0.648 OA
HETATM   15  O   UNL     1     -53.672  46.369   4.917  1.00  0.00    -0.648 OA
ENDBRANCH  12  13
ENDBRANCH  11  12
ENDBRANCH  10  11
ENDBRANCH   9  10
ENDBRANCH   5   9
BRANCH   8  16
HETATM   16  O   UNL     1     -53.750  53.158  12.031  1.00  0.00    -0.358 OA
HETATM   17  H   UNL     1     -54.020  53.872  11.487  1.00  0.00     0.217 HD
ENDBRANCH   8  16
ENDBRANCH   1   3
TORSDOF 7
ENDMDL
MODEL 7
REMARK VINA RESULT:     -17.9      3.007      6.790
REMARK  7 active torsions:
REMARK  status: ('A' for Active; 'I' for Inactive)
REMARK    1  A    between atoms: O_1  and  C_12 
REMARK    2  A    between atoms: O_3  and  C_15 
REMARK    3  A    between atoms: C_5  and  C_6 
REMARK    4  A    between atoms: C_5  and  C_7 
REMARK    5  A    between atoms: C_6  and  C_8 
REMARK    6  A    between atoms: C_7  and  C_9 
REMARK    7  A    between atoms: C_9  and  C_14 
ROOT
HETATM    1  O   UNL     1     -53.532  50.850  13.768  1.00  0.00    -0.358 OA
HETATM    2  H   UNL     1     -54.228  51.188  14.299  1.00  0.00     0.217 HD
ENDROOT
BRANCH   1   3
HETATM    3  C   UNL     1     -53.684  50.771  12.416  1.00  0.00     0.099 A 
HETATM    4  C   UNL     1     -53.733  49.518  11.805  1.00  0.00     0.046 A 
HETATM    5  C   UNL     1     -53.885  49.423  10.421  1.00  0.00    -0.055 A 
HETATM    6  C   UNL     1     -53.988  50.581   9.650  1.00  0.00     0.010 A 
HETATM    7  C   UNL     1     -53.939  51.834  10.262  1.00  0.00     0.040 A 
HETATM    8  C   UNL     1     -53.787  51.928  11.645  1.00  0.00     0.098 A 
BRANCH   5   9
HETATM    9  C   UNL     1     -53.937  48.069   9.760  1.00  0.00     0.038 C 
BRANCH   9  10
HETATM   10  C   UNL     1     -52.561  47.506   9.389  1.00  0.00     0.005 C 
BRANCH  10  11
HETATM   11  C   UNL     1     -52.260  47.600   7.887  1.00  0.00     0.011 C 
BRANCH  11  12
HETATM   12  C   UNL     1     -53.527  47.544   7.034  1.00  0.00     0.113 C 
BRANCH  12  13
HETATM   13  C   UNL     1     -53.253  47.268   5.573  1.00  0.00     0.172 C 
HETATM   14  O   UNL     1     -52.404  48.188   5.044  1.00  0.00    -0.648 OA
HETATM   15  O   UNL     1     -53.706  46.332   4.929  1.00  0.00    -0.648 OA
ENDBRANCH  12  13
ENDBRANCH  11  12
ENDBRANCH  10  11
ENDBRANCH   9  10
ENDBRANCH   5   9
BRANCH   8  16
HETATM   16  O   UNL     1     -53.740  53.157  12.232  1.00  0.00    -0.358 OA
HETATM   17  H   UNL     1     -54.535  53.602  12.451  1.00  0.00     0.217 HD
ENDBRANCH   8  16
ENDBRANCH   1   3
TORSDOF 7
ENDMDL
MODEL 8
REMARK VINA RESULT:     -17.8      0.917      1.999
REMARK  7 active torsions:
REMARK  status: ('A' for Active; 'I' for Inactive)
REMARK    1  A    between atoms: O_1  and  C_12 
REMARK    2  A    between atoms: O_3  and  C_15 
REMARK    3  A    between atoms: C_5  and  C_6 
REMARK    4  A    between atoms: C_5  and  C_7 
REMARK    5  A    between atoms: C_6  and  C_8 
REMARK    6  A    between atoms: C_7  and  C_9 
REMARK    7  A    between atoms: C_9  and  C_14 
ROOT
HETATM    1  O   UNL     1     -53.764  47.090   9.692  1.00  0.00    -0.358 OA
HETATM    2  H   UNL     1     -53.713  46.726   8.830  1.00  0.00     0.217 HD
ENDROOT
BRANCH   1   3
HETATM    3  C   UNL     1     -53.821  48.441   9.860  1.00  0.00     0.099 A 
HETATM    4  C   UNL     1     -53.675  48.979  11.139  1.00  0.00     0.046 A 
HETATM    5  C   UNL     1     -53.733  50.361  11.324  1.00  0.00    -0.055 A 
HETATM    6  C   UNL     1     -53.939  51.203  10.232  1.00  0.00     0.010 A 
HETATM    7  C   UNL     1     -54.084  50.664   8.953  1.00  0.00     0.040 A 
HETATM    8  C   UNL     1     -54.026  49.283   8.768  1.00  0.00     0.098 A 
BRANCH   5   9
HETATM    9  C   UNL     1     -53.576  50.943  12.707  1.00  0.00     0.038 C 
BRANCH   9  10
HETATM   10  C   UNL     1     -53.969  49.981  13.834  1.00  0.00     0.005 C 
BRANCH  10  11
HETATM   11  C   UNL     1     -52.826  49.718  14.823  1.00  0.00     0.011 C 
BRANCH  11  12
HETATM   12  C   UNL     1     -52.419  48.245  14.865  1.00  0.00     0.113 C 
BRANCH  12  13
HETATM   13  C   UNL     1     -52.201  47.724  16.268  1.00  0.00     0.172 C 
HETATM   14  O   UNL     1     -53.370  47.331  16.839  1.00  0.00    -0.648 OA
HETATM   15  O   UNL     1     -51.120  47.637  16.834  1.00  0.00    -0.648 OA
ENDBRANCH  12  13
ENDBRANCH  11  12
ENDBRANCH  10  11
ENDBRANCH   9  10
ENDBRANCH   5   9
BRANCH   8  16
HETATM   16  O   UNL     1     -54.171  48.768   7.515  1.00  0.00    -0.358 OA
HETATM   17  H   UNL     1     -54.991  48.401   7.251  1.00  0.00     0.217 HD
ENDBRANCH   8  16
ENDBRANCH   1   3
TORSDOF 7
ENDMDL
MODEL 9
REMARK VINA RESULT:     -17.8      2.830      6.229
REMARK  7 active torsions:
REMARK  status: ('A' for Active; 'I' for Inactive)
REMARK    1  A    between atoms: O_1  and  C_12 
REMARK    2  A    between atoms: O_3  and  C_15 
REMARK    3  A    between atoms: C_5  and  C_6 
REMARK    4  A    between atoms: C_5  and  C_7 
REMARK    5  A    between atoms: C_6  and  C_8 
REMARK    6  A    between atoms: C_7  and  C_9 
REMARK    7  A    between atoms: C_9  and  C_14 
ROOT
HETATM    1  O   UNL     1     -52.684  47.822  14.157  1.00  0.00    -0.358 OA
HETATM    2  H   UNL     1     -51.774  47.616  14.248  1.00  0.00     0.217 HD
ENDROOT
BRANCH   1   3
HETATM    3  C   UNL     1     -53.072  48.856  13.357  1.00  0.00     0.099 A 
HETATM    4  C   UNL     1     -53.347  48.614  12.012  1.00  0.00     0.046 A 
HETATM    5  C   UNL     1     -53.743  49.663  11.182  1.00  0.00    -0.055 A 
HETATM    6  C   UNL     1     -53.862  50.954  11.697  1.00  0.00     0.010 A 
HETATM    7  C   UNL     1     -53.587  51.195  13.044  1.00  0.00     0.040 A 
HETATM    8  C   UNL     1     -53.191  50.145  13.873  1.00  0.00     0.098 A 
BRANCH   5   9
HETATM    9  C   UNL     1     -54.040  49.402   9.726  1.00  0.00     0.038 C 
BRANCH   9  10
HETATM   10  C   UNL     1     -55.221  48.454   9.493  1.00  0.00     0.005 C 
BRANCH  10  11
HETATM   11  C   UNL     1     -54.804  47.123   8.852  1.00  0.00     0.011 C 
BRANCH  11  12
HETATM   12  C   UNL     1     -55.934  46.093   8.859  1.00  0.00     0.113 C 
BRANCH  12  13
HETATM   13  C   UNL     1     -55.449  44.672   8.686  1.00  0.00     0.172 C 
HETATM   14  O   UNL     1     -56.470  43.834   8.366  1.00  0.00    -0.648 OA
HETATM   15  O   UNL     1     -54.289  44.298   8.793  1.00  0.00    -0.648 OA
ENDBRANCH  12  13
ENDBRANCH  11  12
ENDBRANCH  10  11
ENDBRANCH   9  10
ENDBRANCH   5   9
BRANCH   8  16
HETATM   16  O   UNL     1     -52.924  50.393  15.186  1.00  0.00    -0.358 OA
HETATM   17  H   UNL     1     -53.392  49.932  15.854  1.00  0.00     0.217 HD
ENDBRANCH   8  16
ENDBRANCH   1   3
TORSDOF 7
ENDMDL
