MODEL 1
REMARK VINA RESULT:     -19.1      0.000      0.000
REMARK  7 active torsions:
REMARK  status: ('A' for Active; 'I' for Inactive)
REMARK    1  A    between atoms: O_1  and  C_12 
REMARK    2  A    between atoms: O_3  and  C_15 
REMARK    3  A    between atoms: C_5  and  C_6 
REMARK    4  A    between atoms: C_5  and  C_7 
REMARK    5  A    between atoms: C_6  and  C_8 
REMARK    6  A    between atoms: C_7  and  C_9 
REMARK    7  A    between atoms: C_9  and  C_14 
ROOT
HETATM    1  O   UNL     1     -54.096  51.729   8.145  1.00  0.00    -0.358 OA
HETATM    2  H   UNL     1     -53.902  51.471   7.266  1.00  0.00     0.217 HD
ENDROOT
BRANCH   1   3
HETATM    3  C   UNL     1     -53.962  50.834   9.164  1.00  0.00     0.099 A 
HETATM    4  C   UNL     1     -53.871  51.299  10.476  1.00  0.00     0.046 A 
HETATM    5  C   UNL     1     -53.731  50.393  11.528  1.00  0.00    -0.055 A 
HETATM    6  C   UNL     1     -53.681  49.023  11.268  1.00  0.00     0.010 A 
HETATM    7  C   UNL     1     -53.774  48.560   9.955  1.00  0.00     0.040 A 
HETATM    8  C   UNL     1     -53.913  49.466   8.904  1.00  0.00     0.098 A 
BRANCH   5   9
HETATM    9  C   UNL     1     -53.630  50.895  12.947  1.00  0.00     0.038 C 
BRANCH   9  10
HETATM   10  C   UNL     1     -53.916  49.825  14.006  1.00  0.00     0.005 C 
BRANCH  10  11
HETATM   11  C   UNL     1     -52.673  49.440  14.820  1.00  0.00     0.011 C 
BRANCH  11  12
HETATM   12  C   UNL     1     -52.556  47.930  15.027  1.00  0.00     0.113 C 
BRANCH  12  13
HETATM   13  C   UNL     1     -53.015  47.476  16.394  1.00  0.00     0.172 C 
HETATM   14  O   UNL     1     -52.003  46.894  17.090  1.00  0.00    -0.648 OA
HETATM   15  O   UNL     1     -54.140  47.620  16.851  1.00  0.00    -0.648 OA
ENDBRANCH  12  13
ENDBRANCH  11  12
ENDBRANCH  10  11
ENDBRANCH   9  10
ENDBRANCH   5   9
BRANCH   8  16
HETATM   16  O   UNL     1     -54.002  49.001   7.626  1.00  0.00    -0.358 OA
HETATM   17  H   UNL     1     -53.227  48.742   7.167  1.00  0.00     0.217 HD
ENDBRANCH   8  16
ENDBRANCH   1   3
TORSDOF 7
ENDMDL
MODEL 2
REMARK VINA RESULT:     -18.9      0.629      1.932
REMARK  7 active torsions:
REMARK  status: ('A' for Active; 'I' for Inactive)
REMARK    1  A    between atoms: O_1  and  C_12 
REMARK    2  A    between atoms: O_3  and  C_15 
REMARK    3  A    between atoms: C_5  and  C_6 
REMARK    4  A    between atoms: C_5  and  C_7 
REMARK    5  A    between atoms: C_6  and  C_8 
REMARK    6  A    between atoms: C_7  and  C_9 
REMARK    7  A    between atoms: C_9  and  C_14 
ROOT
HETATM    1  O   UNL     1     -54.194  49.204   8.018  1.00  0.00    -0.358 OA
HETATM    2  H   UNL     1     -54.111  49.648   7.197  1.00  0.00     0.217 HD
ENDROOT
BRANCH   1   3
HETATM    3  C   UNL     1     -54.024  49.888   9.184  1.00  0.00     0.099 A 
HETATM    4  C   UNL     1     -53.821  49.182  10.369  1.00  0.00     0.046 A 
HETATM    5  C   UNL     1     -53.648  49.871  11.570  1.00  0.00    -0.055 A 
HETATM    6  C   UNL     1     -53.679  51.265  11.585  1.00  0.00     0.010 A 
HETATM    7  C   UNL     1     -53.881  51.971  10.399  1.00  0.00     0.040 A 
HETATM    8  C   UNL     1     -54.054  51.282   9.199  1.00  0.00     0.098 A 
BRANCH   5   9
HETATM    9  C   UNL     1     -53.430  49.107  12.853  1.00  0.00     0.038 C 
BRANCH   9  10
HETATM   10  C   UNL     1     -53.375  49.993  14.102  1.00  0.00     0.005 C 
BRANCH  10  11
HETATM   11  C   UNL     1     -52.575  49.363  15.249  1.00  0.00     0.011 C 
BRANCH  11  12
HETATM   12  C   UNL     1     -52.666  47.837  15.254  1.00  0.00     0.113 C 
BRANCH  12  13
HETATM   13  C   UNL     1     -53.031  47.263  16.605  1.00  0.00     0.172 C 
HETATM   14  O   UNL     1     -54.297  47.601  16.963  1.00  0.00    -0.648 OA
HETATM   15  O   UNL     1     -52.306  46.564  17.300  1.00  0.00    -0.648 OA
ENDBRANCH  12  13
ENDBRANCH  11  12
ENDBRANCH  10  11
ENDBRANCH   9  10
ENDBRANCH   5   9
BRANCH   8  16
HETATM   16  O   UNL     1     -54.252  51.982   8.046  1.00  0.00    -0.358 OA
HETATM   17  H   UNL     1     -54.301  51.531   7.227  1.00  0.00     0.217 HD
ENDBRANCH   8  16
ENDBRANCH   1   3
TORSDOF 7
ENDMDL
MODEL 3
REMARK VINA RESULT:     -18.8      2.533      6.931
REMARK  7 active torsions:
REMARK  status: ('A' for Active; 'I' for Inactive)
REMARK    1  A    between atoms: O_1  and  C_12 
REMARK    2  A    between atoms: O_3  and  C_15 
REMARK    3  A    between atoms: C_5  and  C_6 
REMARK    4  A    between atoms: C_5  and  C_7 
REMARK    5  A    between atoms: C_6  and  C_8 
REMARK    6  A    between atoms: C_7  and  C_9 
REMARK    7  A    between atoms: C_9  and  C_14 
ROOT
HETATM    1  O   UNL     1     -53.868  52.018  12.973  1.00  0.00    -0.358 OA
HETATM    2  H   UNL     1     -53.265  52.677  12.686  1.00  0.00     0.217 HD
ENDROOT
BRANCH   1   3
HETATM    3  C   UNL     1     -53.567  50.700  12.803  1.00  0.00     0.099 A 
HETATM    4  C   UNL     1     -53.694  50.126  11.539  1.00  0.00     0.046 A 
HETATM    5  C   UNL     1     -53.392  48.776  11.352  1.00  0.00    -0.055 A 
HETATM    6  C   UNL     1     -52.964  48.002  12.431  1.00  0.00     0.010 A 
HETATM    7  C   UNL     1     -52.837  48.577  13.696  1.00  0.00     0.040 A 
HETATM    8  C   UNL     1     -53.139  49.926  13.881  1.00  0.00     0.098 A 
BRANCH   5   9
HETATM    9  C   UNL     1     -53.530  48.154   9.985  1.00  0.00     0.038 C 
BRANCH   9  10
HETATM   10  C   UNL     1     -53.462  49.164   8.834  1.00  0.00     0.005 C 
BRANCH  10  11
HETATM   11  C   UNL     1     -52.567  48.695   7.679  1.00  0.00     0.011 C 
BRANCH  11  12
HETATM   12  C   UNL     1     -53.082  47.412   7.026  1.00  0.00     0.113 C 
BRANCH  12  13
HETATM   13  C   UNL     1     -52.954  47.414   5.519  1.00  0.00     0.172 C 
HETATM   14  O   UNL     1     -53.669  46.404   4.958  1.00  0.00    -0.648 OA
HETATM   15  O   UNL     1     -52.312  48.221   4.861  1.00  0.00    -0.648 OA
ENDBRANCH  12  13
ENDBRANCH  11  12
ENDBRANCH  10  11
ENDBRANCH   9  10
ENDBRANCH   5   9
BRANCH   8  16
HETATM   16  O   UNL     1     -53.012  50.477  15.121  1.00  0.00    -0.358 OA
HETATM   17  H   UNL     1     -53.163  49.954  15.884  1.00  0.00     0.217 HD
ENDBRANCH   8  16
ENDBRANCH   1   3
TORSDOF 7
ENDMDL
MODEL 4
REMARK VINA RESULT:     -18.5      2.495      7.063
REMARK  7 active torsions:
REMARK  status: ('A' for Active; 'I' for Inactive)
REMARK    1  A    between atoms: O_1  and  C_12 
REMARK    2  A    between atoms: O_3  and  C_15 
REMARK    3  A    between atoms: C_5  and  C_6 
REMARK    4  A    between atoms: C_5  and  C_7 
REMARK    5  A    between atoms: C_6  and  C_8 
REMARK    6  A    between atoms: C_7  and  C_9 
REMARK    7  A    between atoms: C_9  and  C_14 
ROOT
HETATM    1  O   UNL     1     -53.000  48.027  13.689  1.00  0.00    -0.358 OA
HETATM    2  H   UNL     1     -53.564  47.278  13.651  1.00  0.00     0.217 HD
ENDROOT
BRANCH   1   3
HETATM    3  C   UNL     1     -53.305  49.147  12.975  1.00  0.00     0.099 A 
HETATM    4  C   UNL     1     -53.578  49.037  11.612  1.00  0.00     0.046 A 
HETATM    5  C   UNL     1     -53.889  50.176  10.869  1.00  0.00    -0.055 A 
HETATM    6  C   UNL     1     -53.927  51.425  11.490  1.00  0.00     0.010 A 
HETATM    7  C   UNL     1     -53.655  51.534  12.854  1.00  0.00     0.040 A 
HETATM    8  C   UNL     1     -53.343  50.394  13.596  1.00  0.00     0.098 A 
BRANCH   5   9
HETATM    9  C   UNL     1     -54.183  50.058   9.395  1.00  0.00     0.038 C 
BRANCH   9  10
HETATM   10  C   UNL     1     -53.195  49.167   8.634  1.00  0.00     0.005 C 
BRANCH  10  11
HETATM   11  C   UNL     1     -53.887  48.168   7.696  1.00  0.00     0.011 C 
BRANCH  11  12
HETATM   12  C   UNL     1     -52.897  47.221   7.019  1.00  0.00     0.113 C 
BRANCH  12  13
HETATM   13  C   UNL     1     -53.068  47.148   5.519  1.00  0.00     0.172 C 
HETATM   14  O   UNL     1     -52.355  48.119   4.889  1.00  0.00    -0.648 OA
HETATM   15  O   UNL     1     -53.740  46.320   4.919  1.00  0.00    -0.648 OA
ENDBRANCH  12  13
ENDBRANCH  11  12
ENDBRANCH  10  11
ENDBRANCH   9  10
ENDBRANCH   5   9
BRANCH   8  16
HETATM   16  O   UNL     1     -53.079  50.514  14.927  1.00  0.00    -0.358 OA
HETATM   17  H   UNL     1     -53.566  51.121  15.449  1.00  0.00     0.217 HD
ENDBRANCH   8  16
ENDBRANCH   1   3
TORSDOF 7
ENDMDL
MODEL 5
REMARK VINA RESULT:     -18.1      2.822      6.120
REMARK  7 active torsions:
REMARK  status: ('A' for Active; 'I' for Inactive)
REMARK    1  A    between atoms: O_1  and  C_12 
REMARK    2  A    between atoms: O_3  and  C_15 
REMARK    3  A    between atoms: C_5  and  C_6 
REMARK    4  A    between atoms: C_5  and  C_7 
REMARK    5  A    between atoms: C_6  and  C_8 
REMARK    6  A    between atoms: C_7  and  C_9 
REMARK    7  A    between atoms: C_9  and  C_14 
ROOT
HETATM    1  O   UNL     1     -52.631  47.851  14.304  1.00  0.00    -0.358 OA
HETATM    2  H   UNL     1     -51.928  47.996  14.907  1.00  0.00     0.217 HD
ENDROOT
BRANCH   1   3
HETATM    3  C   UNL     1     -53.025  48.850  13.464  1.00  0.00     0.099 A 
HETATM    4  C   UNL     1     -53.263  48.561  12.121  1.00  0.00     0.046 A 
HETATM    5  C   UNL     1     -53.665  49.575  11.251  1.00  0.00    -0.055 A 
HETATM    6  C   UNL     1     -53.829  50.877  11.724  1.00  0.00     0.010 A 
HETATM    7  C   UNL     1     -53.591  51.164  13.069  1.00  0.00     0.040 A 
HETATM    8  C   UNL     1     -53.189  50.150  13.938  1.00  0.00     0.098 A 
BRANCH   5   9
HETATM    9  C   UNL     1     -53.922  49.263   9.797  1.00  0.00     0.038 C 
BRANCH   9  10
HETATM   10  C   UNL     1     -55.219  48.486   9.548  1.00  0.00     0.005 C 
BRANCH  10  11
HETATM   11  C   UNL     1     -55.037  47.315   8.573  1.00  0.00     0.011 C 
BRANCH  11  12
HETATM   12  C   UNL     1     -54.641  46.021   9.285  1.00  0.00     0.113 C 
BRANCH  12  13
HETATM   13  C   UNL     1     -55.462  44.826   8.856  1.00  0.00     0.172 C 
HETATM   14  O   UNL     1     -54.707  43.697   8.803  1.00  0.00    -0.648 OA
HETATM   15  O   UNL     1     -56.659  44.840   8.602  1.00  0.00    -0.648 OA
ENDBRANCH  12  13
ENDBRANCH  11  12
ENDBRANCH  10  11
ENDBRANCH   9  10
ENDBRANCH   5   9
BRANCH   8  16
HETATM   16  O   UNL     1     -52.959  50.444  15.249  1.00  0.00    -0.358 OA
HETATM   17  H   UNL     1     -53.663  50.411  15.866  1.00  0.00     0.217 HD
ENDBRANCH   8  16
ENDBRANCH   1   3
TORSDOF 7
ENDMDL
MODEL 6
REMARK VINA RESULT:     -17.9      3.519      6.676
REMARK  7 active torsions:
REMARK  status: ('A' for Active; 'I' for Inactive)
REMARK    1  A    between atoms: O_1  and  C_12 
REMARK    2  A    between atoms: O_3  and  C_15 
REMARK    3  A    between atoms: C_5  and  C_6 
REMARK    4  A    between atoms: C_5  and  C_7 
REMARK    5  A    between atoms: C_6  and  C_8 
REMARK    6  A    between atoms: C_7  and  C_9 
REMARK    7  A    between atoms: C_9  and  C_14 
ROOT
HETATM    1  O   UNL     1     -54.081  52.635   9.341  1.00  0.00    -0.358 OA
HETATM    2  H   UNL     1     -53.650  52.636   8.509  1.00  0.00     0.217 HD
ENDROOT
BRANCH   1   3
HETATM    3  C   UNL     1     -53.944  51.569  10.179  1.00  0.00     0.099 A 
HETATM    4  C   UNL     1     -53.954  50.278   9.652  1.00  0.00     0.046 A 
HETATM    5  C   UNL     1     -53.817  49.178  10.500  1.00  0.00    -0.055 A 
HETATM    6  C   UNL     1     -53.670  49.371  11.874  1.00  0.00     0.010 A 
HETATM    7  C   UNL     1     -53.659  50.663  12.400  1.00  0.00     0.040 A 
HETATM    8  C   UNL     1     -53.797  51.762  11.552  1.00  0.00     0.098 A 
BRANCH   5   9
HETATM    9  C   UNL     1     -53.829  47.782   9.931  1.00  0.00     0.038 C 
BRANCH   9  10
HETATM   10  C   UNL     1     -54.765  47.609   8.730  1.00  0.00     0.005 C 
BRANCH  10  11
HETATM   11  C   UNL     1     -54.134  46.794   7.592  1.00  0.00     0.011 C 
BRANCH  11  12
HETATM   12  C   UNL     1     -52.960  47.520   6.936  1.00  0.00     0.113 C 
BRANCH  12  13
HETATM   13  C   UNL     1     -52.973  47.436   5.426  1.00  0.00     0.172 C 
HETATM   14  O   UNL     1     -53.745  46.406   4.992  1.00  0.00    -0.648 OA
HETATM   15  O   UNL     1     -52.389  48.197   4.667  1.00  0.00    -0.648 OA
ENDBRANCH  12  13
ENDBRANCH  11  12
ENDBRANCH  10  11
ENDBRANCH   9  10
ENDBRANCH   5   9
BRANCH   8  16
HETATM   16  O   UNL     1     -53.786  53.019  12.078  1.00  0.00    -0.358 OA
HETATM   17  H   UNL     1     -54.031  53.751  11.546  1.00  0.00     0.217 HD
ENDBRANCH   8  16
ENDBRANCH   1   3
TORSDOF 7
ENDMDL
MODEL 7
REMARK VINA RESULT:     -17.8      2.820      4.312
REMARK  7 active torsions:
REMARK  status: ('A' for Active; 'I' for Inactive)
REMARK    1  A    between atoms: O_1  and  C_12 
REMARK    2  A    between atoms: O_3  and  C_15 
REMARK    3  A    between atoms: C_5  and  C_6 
REMARK    4  A    between atoms: C_5  and  C_7 
REMARK    5  A    between atoms: C_6  and  C_8 
REMARK    6  A    between atoms: C_7  and  C_9 
REMARK    7  A    between atoms: C_9  and  C_14 
ROOT
HETATM    1  O   UNL     1     -53.588  47.926   5.143  1.00  0.00    -0.358 OA
HETATM    2  H   UNL     1     -53.281  48.802   5.015  1.00  0.00     0.217 HD
ENDROOT
BRANCH   1   3
HETATM    3  C   UNL     1     -53.690  47.417   6.403  1.00  0.00     0.099 A 
HETATM    4  C   UNL     1     -54.173  48.225   7.431  1.00  0.00     0.046 A 
HETATM    5  C   UNL     1     -54.280  47.717   8.726  1.00  0.00    -0.055 A 
HETATM    6  C   UNL     1     -53.903  46.400   8.992  1.00  0.00     0.010 A 
HETATM    7  C   UNL     1     -53.421  45.591   7.962  1.00  0.00     0.040 A 
HETATM    8  C   UNL     1     -53.314  46.101   6.668  1.00  0.00     0.098 A 
BRANCH   5   9
HETATM    9  C   UNL     1     -54.801  48.591   9.839  1.00  0.00     0.038 C 
BRANCH   9  10
HETATM   10  C   UNL     1     -54.551  50.087   9.622  1.00  0.00     0.005 C 
BRANCH  10  11
HETATM   11  C   UNL     1     -53.878  50.763  10.825  1.00  0.00     0.011 C 
BRANCH  11  12
HETATM   12  C   UNL     1     -53.694  49.806  12.003  1.00  0.00     0.113 C 
BRANCH  12  13
HETATM   13  C   UNL     1     -53.702  50.501  13.346  1.00  0.00     0.172 C 
HETATM   14  O   UNL     1     -53.493  51.837  13.215  1.00  0.00    -0.648 OA
HETATM   15  O   UNL     1     -53.890  49.958  14.426  1.00  0.00    -0.648 OA
ENDBRANCH  12  13
ENDBRANCH  11  12
ENDBRANCH  10  11
ENDBRANCH   9  10
ENDBRANCH   5   9
BRANCH   8  16
HETATM   16  O   UNL     1     -52.841  45.302   5.670  1.00  0.00    -0.358 OA
HETATM   17  H   UNL     1     -52.053  45.533   5.220  1.00  0.00     0.217 HD
ENDBRANCH   8  16
ENDBRANCH   1   3
TORSDOF 7
ENDMDL
MODEL 8
REMARK VINA RESULT:     -17.8      2.943      6.835
REMARK  7 active torsions:
REMARK  status: ('A' for Active; 'I' for Inactive)
REMARK    1  A    between atoms: O_1  and  C_12 
REMARK    2  A    between atoms: O_3  and  C_15 
REMARK    3  A    between atoms: C_5  and  C_6 
REMARK    4  A    between atoms: C_5  and  C_7 
REMARK    5  A    between atoms: C_6  and  C_8 
REMARK    6  A    between atoms: C_7  and  C_9 
REMARK    7  A    between atoms: C_9  and  C_14 
ROOT
HETATM    1  O   UNL     1     -53.459  50.854  13.854  1.00  0.00    -0.358 OA
HETATM    2  H   UNL     1     -53.494  50.100  14.410  1.00  0.00     0.217 HD
ENDROOT
BRANCH   1   3
HETATM    3  C   UNL     1     -53.610  50.715  12.507  1.00  0.00     0.099 A 
HETATM    4  C   UNL     1     -53.603  49.439  11.945  1.00  0.00     0.046 A 
HETATM    5  C   UNL     1     -53.756  49.283  10.566  1.00  0.00    -0.055 A 
HETATM    6  C   UNL     1     -53.914  50.404   9.751  1.00  0.00     0.010 A 
HETATM    7  C   UNL     1     -53.922  51.681  10.315  1.00  0.00     0.040 A 
HETATM    8  C   UNL     1     -53.769  51.835  11.692  1.00  0.00     0.098 A 
BRANCH   5   9
HETATM    9  C   UNL     1     -53.747  47.903   9.958  1.00  0.00     0.038 C 
BRANCH   9  10
HETATM   10  C   UNL     1     -52.405  47.509   9.332  1.00  0.00     0.005 C 
BRANCH  10  11
HETATM   11  C   UNL     1     -52.336  47.803   7.827  1.00  0.00     0.011 C 
BRANCH  11  12
HETATM   12  C   UNL     1     -53.061  46.745   6.993  1.00  0.00     0.113 C 
BRANCH  12  13
HETATM   13  C   UNL     1     -53.073  47.055   5.513  1.00  0.00     0.172 C 
HETATM   14  O   UNL     1     -53.906  46.220   4.838  1.00  0.00    -0.648 OA
HETATM   15  O   UNL     1     -52.439  47.949   4.969  1.00  0.00    -0.648 OA
ENDBRANCH  12  13
ENDBRANCH  11  12
ENDBRANCH  10  11
ENDBRANCH   9  10
ENDBRANCH   5   9
BRANCH   8  16
HETATM   16  O   UNL     1     -53.777  53.087  12.231  1.00  0.00    -0.358 OA
HETATM   17  H   UNL     1     -53.816  53.837  11.671  1.00  0.00     0.217 HD
ENDBRANCH   8  16
ENDBRANCH   1   3
TORSDOF 7
ENDMDL
MODEL 9
REMARK VINA RESULT:     -17.7      3.346      5.951
REMARK  7 active torsions:
REMARK  status: ('A' for Active; 'I' for Inactive)
REMARK    1  A    between atoms: O_1  and  C_12 
REMARK    2  A    between atoms: O_3  and  C_15 
REMARK    3  A    between atoms: C_5  and  C_6 
REMARK    4  A    between atoms: C_5  and  C_7 
REMARK    5  A    between atoms: C_6  and  C_8 
REMARK    6  A    between atoms: C_7  and  C_9 
REMARK    7  A    between atoms: C_9  and  C_14 
ROOT
HETATM    1  O   UNL     1     -53.807  52.521  12.494  1.00  0.00    -0.358 OA
HETATM    2  H   UNL     1     -53.907  53.076  11.746  1.00  0.00     0.217 HD
ENDROOT
BRANCH   1   3
HETATM    3  C   UNL     1     -53.669  51.175  12.331  1.00  0.00     0.099 A 
HETATM    4  C   UNL     1     -53.874  50.614  11.070  1.00  0.00     0.046 A 
HETATM    5  C   UNL     1     -53.738  49.237  10.889  1.00  0.00    -0.055 A 
HETATM    6  C   UNL     1     -53.400  48.422  11.970  1.00  0.00     0.010 A 
HETATM    7  C   UNL     1     -53.195  48.984  13.230  1.00  0.00     0.040 A 
HETATM    8  C   UNL     1     -53.331  50.361  13.410  1.00  0.00     0.098 A 
BRANCH   5   9
HETATM    9  C   UNL     1     -53.960  48.630   9.527  1.00  0.00     0.038 C 
BRANCH   9  10
HETATM   10  C   UNL     1     -53.791  47.108   9.490  1.00  0.00     0.005 C 
BRANCH  10  11
HETATM   11  C   UNL     1     -55.069  46.373   9.062  1.00  0.00     0.011 C 
BRANCH  11  12
HETATM   12  C   UNL     1     -54.882  44.856   9.018  1.00  0.00     0.113 C 
BRANCH  12  13
HETATM   13  C   UNL     1     -56.166  44.102   8.758  1.00  0.00     0.172 C 
HETATM   14  O   UNL     1     -56.477  43.279   9.794  1.00  0.00    -0.648 OA
HETATM   15  O   UNL     1     -56.867  44.214   7.761  1.00  0.00    -0.648 OA
ENDBRANCH  12  13
ENDBRANCH  11  12
ENDBRANCH  10  11
ENDBRANCH   9  10
ENDBRANCH   5   9
BRANCH   8  16
HETATM   16  O   UNL     1     -53.129  50.898  14.646  1.00  0.00    -0.358 OA
HETATM   17  H   UNL     1     -52.781  51.764  14.729  1.00  0.00     0.217 HD
ENDBRANCH   8  16
ENDBRANCH   1   3
TORSDOF 7
ENDMDL
