MODEL 1
REMARK VINA RESULT:      -7.8      0.000      0.000
REMARK  11 active torsions:
REMARK  status: ('A' for Active; 'I' for Inactive)
REMARK    1  A    between atoms: C1_1  and  C2_2 
REMARK    2  A    between atoms: C1_1  and  C10_13 
REMARK    3  A    between atoms: C2_2  and  C3_3 
REMARK    4  A    between atoms: C3_3  and  C4_4 
REMARK    5  A    between atoms: C6_6  and  O1_7 
REMARK    6  A    between atoms: C7_8  and  O2_9 
REMARK    7  A    between atoms: C10_13  and  O4_14 
REMARK    8  A    between atoms: C10_13  and  C11_15 
REMARK    9  A    between atoms: C11_15  and  O5_16 
REMARK   10  A    between atoms: C11_15  and  C12_17 
REMARK   11  A    between atoms: C12_17  and  O6_18 
ROOT
HETATM    1  C1  UNL     1      19.452  -2.853  28.290  1.00  0.00     0.158 C 
HETATM    2  O3  UNL     1      18.852  -2.010  28.965  1.00  0.00    -0.295 OA
ENDROOT
BRANCH   1   3
HETATM    3  C2  UNL     1      20.795  -3.394  28.747  1.00  0.00     0.086 C 
BRANCH   3   4
HETATM    4  C3  UNL     1      20.690  -4.440  29.853  1.00  0.00     0.046 C 
BRANCH   4   5
HETATM    5  C4  UNL     1      21.163  -3.949  31.201  1.00  0.00    -0.055 A 
HETATM    6  C5  UNL     1      21.169  -2.578  31.503  1.00  0.00     0.046 A 
HETATM    7  C6  UNL     1      21.620  -2.150  32.748  1.00  0.00     0.099 A 
HETATM    8  C7  UNL     1      22.056  -3.071  33.695  1.00  0.00     0.098 A 
HETATM    9  C8  UNL     1      22.052  -4.428  33.417  1.00  0.00     0.040 A 
HETATM   10  C9  UNL     1      21.603  -4.868  32.171  1.00  0.00     0.010 A 
BRANCH   7  11
HETATM   11  O1  UNL     1      21.652  -0.825  33.088  1.00  0.00    -0.358 OA
HETATM   12  H   UNL     1      21.245  -0.535  33.881  1.00  0.00     0.217 HD
ENDBRANCH   7  11
BRANCH   8  13
HETATM   13  O2  UNL     1      22.497  -2.640  34.914  1.00  0.00    -0.358 OA
HETATM   14  H   UNL     1      22.420  -3.197  35.663  1.00  0.00     0.217 HD
ENDBRANCH   8  13
ENDBRANCH   4   5
ENDBRANCH   3   4
ENDBRANCH   1   3
BRANCH   1  15
HETATM   15  C10 UNL     1      18.850  -3.426  27.005  1.00  0.00     0.218 C 
BRANCH  15  16
HETATM   16  O4  UNL     1      17.532  -3.888  27.301  1.00  0.00    -0.385 OA
HETATM   17  H   UNL     1      17.049  -4.040  26.473  1.00  0.00     0.210 HD
ENDBRANCH  15  16
BRANCH  15  18
HETATM   18  C11 UNL     1      18.837  -2.374  25.876  1.00  0.00     0.177 C 
BRANCH  18  19
HETATM   19  O5  UNL     1      17.751  -1.447  26.037  1.00  0.00    -0.390 OA
HETATM   20  H   UNL     1      17.733  -0.837  25.284  1.00  0.00     0.210 HD
ENDBRANCH  18  19
BRANCH  18  21
HETATM   21  C12 UNL     1      20.126  -1.543  25.873  1.00  0.00     0.198 C 
BRANCH  21  22
HETATM   22  O6  UNL     1      20.222  -0.804  24.653  1.00  0.00    -0.398 OA
HETATM   23  H   UNL     1      19.341  -0.488  24.396  1.00  0.00     0.209 HD
ENDBRANCH  21  22
ENDBRANCH  18  21
ENDBRANCH  15  18
ENDBRANCH   1  15
TORSDOF 11
ENDMDL
MODEL 2
REMARK VINA RESULT:      -7.3      1.591      2.067
REMARK  11 active torsions:
REMARK  status: ('A' for Active; 'I' for Inactive)
REMARK    1  A    between atoms: C1_1  and  C2_2 
REMARK    2  A    between atoms: C1_1  and  C10_13 
REMARK    3  A    between atoms: C2_2  and  C3_3 
REMARK    4  A    between atoms: C3_3  and  C4_4 
REMARK    5  A    between atoms: C6_6  and  O1_7 
REMARK    6  A    between atoms: C7_8  and  O2_9 
REMARK    7  A    between atoms: C10_13  and  O4_14 
REMARK    8  A    between atoms: C10_13  and  C11_15 
REMARK    9  A    between atoms: C11_15  and  O5_16 
REMARK   10  A    between atoms: C11_15  and  C12_17 
REMARK   11  A    between atoms: C12_17  and  O6_18 
ROOT
HETATM    1  C1  UNL     1      19.546  -2.726  28.890  1.00  0.00     0.158 C 
HETATM    2  O3  UNL     1      18.787  -2.134  29.662  1.00  0.00    -0.295 OA
ENDROOT
BRANCH   1   3
HETATM    3  C2  UNL     1      20.905  -3.212  29.363  1.00  0.00     0.086 C 
BRANCH   3   4
HETATM    4  C3  UNL     1      21.019  -4.732  29.440  1.00  0.00     0.046 C 
BRANCH   4   5
HETATM    5  C4  UNL     1      21.670  -5.230  30.709  1.00  0.00    -0.055 A 
HETATM    6  C5  UNL     1      21.686  -4.434  31.867  1.00  0.00     0.046 A 
HETATM    7  C6  UNL     1      22.301  -4.910  33.020  1.00  0.00     0.099 A 
HETATM    8  C7  UNL     1      22.892  -6.169  33.036  1.00  0.00     0.098 A 
HETATM    9  C8  UNL     1      22.882  -6.970  31.906  1.00  0.00     0.040 A 
HETATM   10  C9  UNL     1      22.269  -6.502  30.743  1.00  0.00     0.010 A 
BRANCH   7  11
HETATM   11  O1  UNL     1      22.349  -4.171  34.170  1.00  0.00    -0.358 OA
HETATM   12  H   UNL     1      22.472  -4.597  34.996  1.00  0.00     0.217 HD
ENDBRANCH   7  11
BRANCH   8  13
HETATM   13  O2  UNL     1      23.493  -6.627  34.173  1.00  0.00    -0.358 OA
HETATM   14  H   UNL     1      23.566  -6.068  34.922  1.00  0.00     0.217 HD
ENDBRANCH   8  13
ENDBRANCH   4   5
ENDBRANCH   3   4
ENDBRANCH   1   3
BRANCH   1  15
HETATM   15  C10 UNL     1      19.136  -3.045  27.450  1.00  0.00     0.218 C 
BRANCH  15  16
HETATM   16  O4  UNL     1      17.866  -3.696  27.485  1.00  0.00    -0.385 OA
HETATM   17  H   UNL     1      17.944  -4.578  27.088  1.00  0.00     0.210 HD
ENDBRANCH  15  16
BRANCH  15  18
HETATM   18  C11 UNL     1      19.089  -1.767  26.586  1.00  0.00     0.177 C 
BRANCH  18  19
HETATM   19  O5  UNL     1      18.889  -0.596  27.395  1.00  0.00    -0.390 OA
HETATM   20  H   UNL     1      17.964  -0.558  27.684  1.00  0.00     0.210 HD
ENDBRANCH  18  19
BRANCH  18  21
HETATM   21  C12 UNL     1      20.407  -1.556  25.829  1.00  0.00     0.198 C 
BRANCH  21  22
HETATM   22  O6  UNL     1      20.166  -0.795  24.643  1.00  0.00    -0.398 OA
HETATM   23  H   UNL     1      19.450  -0.162  24.805  1.00  0.00     0.209 HD
ENDBRANCH  21  22
ENDBRANCH  18  21
ENDBRANCH  15  18
ENDBRANCH   1  15
TORSDOF 11
ENDMDL
MODEL 3
REMARK VINA RESULT:      -7.3      1.139      1.350
REMARK  11 active torsions:
REMARK  status: ('A' for Active; 'I' for Inactive)
REMARK    1  A    between atoms: C1_1  and  C2_2 
REMARK    2  A    between atoms: C1_1  and  C10_13 
REMARK    3  A    between atoms: C2_2  and  C3_3 
REMARK    4  A    between atoms: C3_3  and  C4_4 
REMARK    5  A    between atoms: C6_6  and  O1_7 
REMARK    6  A    between atoms: C7_8  and  O2_9 
REMARK    7  A    between atoms: C10_13  and  O4_14 
REMARK    8  A    between atoms: C10_13  and  C11_15 
REMARK    9  A    between atoms: C11_15  and  O5_16 
REMARK   10  A    between atoms: C11_15  and  C12_17 
REMARK   11  A    between atoms: C12_17  and  O6_18 
ROOT
HETATM    1  C1  UNL     1      18.584  -4.168  28.188  1.00  0.00     0.158 C 
HETATM    2  O3  UNL     1      17.482  -4.724  28.145  1.00  0.00    -0.295 OA
ENDROOT
BRANCH   1   3
HETATM    3  C2  UNL     1      19.156  -3.690  29.510  1.00  0.00     0.086 C 
BRANCH   3   4
HETATM    4  C3  UNL     1      20.334  -4.525  30.006  1.00  0.00     0.046 C 
BRANCH   4   5
HETATM    5  C4  UNL     1      20.950  -4.010  31.285  1.00  0.00    -0.055 A 
HETATM    6  C5  UNL     1      20.981  -2.633  31.563  1.00  0.00     0.046 A 
HETATM    7  C6  UNL     1      21.563  -2.183  32.743  1.00  0.00     0.099 A 
HETATM    8  C7  UNL     1      22.107  -3.086  33.651  1.00  0.00     0.098 A 
HETATM    9  C8  UNL     1      22.081  -4.447  33.397  1.00  0.00     0.040 A 
HETATM   10  C9  UNL     1      21.500  -4.910  32.215  1.00  0.00     0.010 A 
BRANCH   7  11
HETATM   11  O1  UNL     1      21.624  -0.853  33.057  1.00  0.00    -0.358 OA
HETATM   12  H   UNL     1      21.675  -0.212  32.374  1.00  0.00     0.217 HD
ENDBRANCH   7  11
BRANCH   8  13
HETATM   13  O2  UNL     1      22.676  -2.633  34.807  1.00  0.00    -0.358 OA
HETATM   14  H   UNL     1      23.590  -2.431  34.831  1.00  0.00     0.217 HD
ENDBRANCH   8  13
ENDBRANCH   4   5
ENDBRANCH   3   4
ENDBRANCH   1   3
BRANCH   1  15
HETATM   15  C10 UNL     1      19.439  -3.988  26.932  1.00  0.00     0.218 C 
BRANCH  15  16
HETATM   16  O4  UNL     1      19.177  -5.084  26.056  1.00  0.00    -0.385 OA
HETATM   17  H   UNL     1      18.836  -5.834  26.569  1.00  0.00     0.210 HD
ENDBRANCH  15  16
BRANCH  15  18
HETATM   18  C11 UNL     1      19.147  -2.637  26.245  1.00  0.00     0.177 C 
BRANCH  18  19
HETATM   19  O5  UNL     1      17.775  -2.248  26.419  1.00  0.00    -0.390 OA
HETATM   20  H   UNL     1      17.261  -3.009  26.734  1.00  0.00     0.210 HD
ENDBRANCH  18  19
BRANCH  18  21
HETATM   21  C12 UNL     1      20.001  -1.511  26.842  1.00  0.00     0.198 C 
BRANCH  21  22
HETATM   22  O6  UNL     1      19.155  -0.459  27.311  1.00  0.00    -0.398 OA
HETATM   23  H   UNL     1      18.277  -0.817  27.516  1.00  0.00     0.209 HD
ENDBRANCH  21  22
ENDBRANCH  18  21
ENDBRANCH  15  18
ENDBRANCH   1  15
TORSDOF 11
ENDMDL
MODEL 4
REMARK VINA RESULT:      -7.2      1.343      2.089
REMARK  11 active torsions:
REMARK  status: ('A' for Active; 'I' for Inactive)
REMARK    1  A    between atoms: C1_1  and  C2_2 
REMARK    2  A    between atoms: C1_1  and  C10_13 
REMARK    3  A    between atoms: C2_2  and  C3_3 
REMARK    4  A    between atoms: C3_3  and  C4_4 
REMARK    5  A    between atoms: C6_6  and  O1_7 
REMARK    6  A    between atoms: C7_8  and  O2_9 
REMARK    7  A    between atoms: C10_13  and  O4_14 
REMARK    8  A    between atoms: C10_13  and  C11_15 
REMARK    9  A    between atoms: C11_15  and  O5_16 
REMARK   10  A    between atoms: C11_15  and  C12_17 
REMARK   11  A    between atoms: C12_17  and  O6_18 
ROOT
HETATM    1  C1  UNL     1      18.656  -4.114  28.304  1.00  0.00     0.158 C 
HETATM    2  O3  UNL     1      17.583  -4.715  28.203  1.00  0.00    -0.295 OA
ENDROOT
BRANCH   1   3
HETATM    3  C2  UNL     1      19.107  -3.558  29.643  1.00  0.00     0.086 C 
BRANCH   3   4
HETATM    4  C3  UNL     1      20.616  -3.348  29.743  1.00  0.00     0.046 C 
BRANCH   4   5
HETATM    5  C4  UNL     1      21.121  -3.227  31.161  1.00  0.00    -0.055 A 
HETATM    6  C5  UNL     1      21.620  -4.349  31.843  1.00  0.00     0.046 A 
HETATM    7  C6  UNL     1      22.069  -4.214  33.153  1.00  0.00     0.099 A 
HETATM    8  C7  UNL     1      22.034  -2.976  33.786  1.00  0.00     0.098 A 
HETATM    9  C8  UNL     1      21.550  -1.858  33.128  1.00  0.00     0.040 A 
HETATM   10  C9  UNL     1      21.096  -1.982  31.815  1.00  0.00     0.010 A 
BRANCH   7  11
HETATM   11  O1  UNL     1      22.558  -5.277  33.862  1.00  0.00    -0.358 OA
HETATM   12  H   UNL     1      22.751  -5.183  34.774  1.00  0.00     0.217 HD
ENDBRANCH   7  11
BRANCH   8  13
HETATM   13  O2  UNL     1      22.478  -2.855  35.072  1.00  0.00    -0.358 OA
HETATM   14  H   UNL     1      23.289  -3.250  35.327  1.00  0.00     0.217 HD
ENDBRANCH   8  13
ENDBRANCH   4   5
ENDBRANCH   3   4
ENDBRANCH   1   3
BRANCH   1  15
HETATM   15  C10 UNL     1      19.598  -3.950  27.109  1.00  0.00     0.218 C 
BRANCH  15  16
HETATM   16  O4  UNL     1      19.502  -5.125  26.305  1.00  0.00    -0.385 OA
HETATM   17  H   UNL     1      18.655  -5.566  26.476  1.00  0.00     0.210 HD
ENDBRANCH  15  16
BRANCH  15  18
HETATM   18  C11 UNL     1      19.256  -2.683  26.297  1.00  0.00     0.177 C 
BRANCH  18  19
HETATM   19  O5  UNL     1      17.922  -2.228  26.575  1.00  0.00    -0.390 OA
HETATM   20  H   UNL     1      17.464  -2.043  25.741  1.00  0.00     0.210 HD
ENDBRANCH  18  19
BRANCH  18  21
HETATM   21  C12 UNL     1      20.197  -1.523  26.648  1.00  0.00     0.198 C 
BRANCH  21  22
HETATM   22  O6  UNL     1      19.442  -0.432  27.178  1.00  0.00    -0.398 OA
HETATM   23  H   UNL     1      19.732  -0.249  28.086  1.00  0.00     0.209 HD
ENDBRANCH  21  22
ENDBRANCH  18  21
ENDBRANCH  15  18
ENDBRANCH   1  15
TORSDOF 11
ENDMDL
MODEL 5
REMARK VINA RESULT:      -7.0      1.290      6.960
REMARK  11 active torsions:
REMARK  status: ('A' for Active; 'I' for Inactive)
REMARK    1  A    between atoms: C1_1  and  C2_2 
REMARK    2  A    between atoms: C1_1  and  C10_13 
REMARK    3  A    between atoms: C2_2  and  C3_3 
REMARK    4  A    between atoms: C3_3  and  C4_4 
REMARK    5  A    between atoms: C6_6  and  O1_7 
REMARK    6  A    between atoms: C7_8  and  O2_9 
REMARK    7  A    between atoms: C10_13  and  O4_14 
REMARK    8  A    between atoms: C10_13  and  C11_15 
REMARK    9  A    between atoms: C11_15  and  O5_16 
REMARK   10  A    between atoms: C11_15  and  C12_17 
REMARK   11  A    between atoms: C12_17  and  O6_18 
ROOT
HETATM    1  C1  UNL     1      20.865  -2.580  31.612  1.00  0.00     0.158 C 
HETATM    2  O3  UNL     1      19.855  -1.944  31.295  1.00  0.00    -0.295 OA
ENDROOT
BRANCH   1   3
HETATM    3  C2  UNL     1      21.140  -3.945  31.007  1.00  0.00     0.086 C 
BRANCH   3   4
HETATM    4  C3  UNL     1      21.775  -3.884  29.620  1.00  0.00     0.046 C 
BRANCH   4   5
HETATM    5  C4  UNL     1      20.816  -3.466  28.530  1.00  0.00    -0.055 A 
HETATM    6  C5  UNL     1      21.065  -2.321  27.756  1.00  0.00     0.046 A 
HETATM    7  C6  UNL     1      20.161  -1.951  26.765  1.00  0.00     0.099 A 
HETATM    8  C7  UNL     1      19.019  -2.711  26.533  1.00  0.00     0.098 A 
HETATM    9  C8  UNL     1      18.760  -3.846  27.283  1.00  0.00     0.040 A 
HETATM   10  C9  UNL     1      19.659  -4.225  28.280  1.00  0.00     0.010 A 
BRANCH   7  11
HETATM   11  O1  UNL     1      20.355  -0.841  25.989  1.00  0.00    -0.358 OA
HETATM   12  H   UNL     1      19.830  -0.077  26.125  1.00  0.00     0.217 HD
ENDBRANCH   7  11
BRANCH   8  13
HETATM   13  O2  UNL     1      18.139  -2.338  25.558  1.00  0.00    -0.358 OA
HETATM   14  H   UNL     1      18.438  -2.217  24.678  1.00  0.00     0.217 HD
ENDBRANCH   8  13
ENDBRANCH   4   5
ENDBRANCH   3   4
ENDBRANCH   1   3
BRANCH   1  15
HETATM   15  C10 UNL     1      21.904  -2.005  32.577  1.00  0.00     0.218 C 
BRANCH  15  16
HETATM   16  O4  UNL     1      21.810  -0.581  32.531  1.00  0.00    -0.385 OA
HETATM   17  H   UNL     1      22.497  -0.230  31.943  1.00  0.00     0.210 HD
ENDBRANCH  15  16
BRANCH  15  18
HETATM   18  C11 UNL     1      21.692  -2.536  34.010  1.00  0.00     0.177 C 
BRANCH  18  19
HETATM   19  O5  UNL     1      22.415  -3.759  34.226  1.00  0.00    -0.390 OA
HETATM   20  H   UNL     1      22.554  -3.887  35.177  1.00  0.00     0.210 HD
ENDBRANCH  18  19
BRANCH  18  21
HETATM   21  C12 UNL     1      22.198  -1.536  35.057  1.00  0.00     0.198 C 
BRANCH  21  22
HETATM   22  O6  UNL     1      22.533  -2.227  36.263  1.00  0.00    -0.398 OA
HETATM   23  H   UNL     1      23.436  -1.993  36.530  1.00  0.00     0.209 HD
ENDBRANCH  21  22
ENDBRANCH  18  21
ENDBRANCH  15  18
ENDBRANCH   1  15
TORSDOF 11
ENDMDL
MODEL 6
REMARK VINA RESULT:      -7.0      3.550      6.253
REMARK  11 active torsions:
REMARK  status: ('A' for Active; 'I' for Inactive)
REMARK    1  A    between atoms: C1_1  and  C2_2 
REMARK    2  A    between atoms: C1_1  and  C10_13 
REMARK    3  A    between atoms: C2_2  and  C3_3 
REMARK    4  A    between atoms: C3_3  and  C4_4 
REMARK    5  A    between atoms: C6_6  and  O1_7 
REMARK    6  A    between atoms: C7_8  and  O2_9 
REMARK    7  A    between atoms: C10_13  and  O4_14 
REMARK    8  A    between atoms: C10_13  and  C11_15 
REMARK    9  A    between atoms: C11_15  and  O5_16 
REMARK   10  A    between atoms: C11_15  and  C12_17 
REMARK   11  A    between atoms: C12_17  and  O6_18 
ROOT
HETATM    1  C1  UNL     1      21.148  -2.654  31.549  1.00  0.00     0.158 C 
HETATM    2  O3  UNL     1      19.993  -2.285  31.317  1.00  0.00    -0.295 OA
ENDROOT
BRANCH   1   3
HETATM    3  C2  UNL     1      21.782  -3.766  30.731  1.00  0.00     0.086 C 
BRANCH   3   4
HETATM    4  C3  UNL     1      21.054  -5.102  30.845  1.00  0.00     0.046 C 
BRANCH   4   5
HETATM    5  C4  UNL     1      21.502  -5.941  32.019  1.00  0.00    -0.055 A 
HETATM    6  C5  UNL     1      22.756  -6.574  32.012  1.00  0.00     0.046 A 
HETATM    7  C6  UNL     1      23.141  -7.349  33.100  1.00  0.00     0.099 A 
HETATM    8  C7  UNL     1      22.297  -7.495  34.197  1.00  0.00     0.098 A 
HETATM    9  C8  UNL     1      21.059  -6.874  34.224  1.00  0.00     0.040 A 
HETATM   10  C9  UNL     1      20.662  -6.095  33.137  1.00  0.00     0.010 A 
BRANCH   7  11
HETATM   11  O1  UNL     1      24.348  -7.991  33.139  1.00  0.00    -0.358 OA
HETATM   12  H   UNL     1      24.927  -7.946  32.403  1.00  0.00     0.217 HD
ENDBRANCH   7  11
BRANCH   8  13
HETATM   13  O2  UNL     1      22.685  -8.259  35.260  1.00  0.00    -0.358 OA
HETATM   14  H   UNL     1      22.124  -8.938  35.579  1.00  0.00     0.217 HD
ENDBRANCH   8  13
ENDBRANCH   4   5
ENDBRANCH   3   4
ENDBRANCH   1   3
BRANCH   1  15
HETATM   15  C10 UNL     1      22.005  -1.980  32.623  1.00  0.00     0.218 C 
BRANCH  15  16
HETATM   16  O4  UNL     1      21.743  -0.577  32.582  1.00  0.00    -0.385 OA
HETATM   17  H   UNL     1      21.201  -0.327  33.346  1.00  0.00     0.210 HD
ENDBRANCH  15  16
BRANCH  15  18
HETATM   18  C11 UNL     1      21.713  -2.566  34.020  1.00  0.00     0.177 C 
BRANCH  18  19
HETATM   19  O5  UNL     1      22.582  -3.671  34.316  1.00  0.00    -0.390 OA
HETATM   20  H   UNL     1      22.049  -4.457  34.512  1.00  0.00     0.210 HD
ENDBRANCH  18  19
BRANCH  18  21
HETATM   21  C12 UNL     1      21.940  -1.522  35.122  1.00  0.00     0.198 C 
BRANCH  21  22
HETATM   22  O6  UNL     1      22.488  -2.153  36.280  1.00  0.00    -0.398 OA
HETATM   23  H   UNL     1      23.453  -2.051  36.278  1.00  0.00     0.209 HD
ENDBRANCH  21  22
ENDBRANCH  18  21
ENDBRANCH  15  18
ENDBRANCH   1  15
TORSDOF 11
ENDMDL
MODEL 7
REMARK VINA RESULT:      -6.9      1.985      2.793
REMARK  11 active torsions:
REMARK  status: ('A' for Active; 'I' for Inactive)
REMARK    1  A    between atoms: C1_1  and  C2_2 
REMARK    2  A    between atoms: C1_1  and  C10_13 
REMARK    3  A    between atoms: C2_2  and  C3_3 
REMARK    4  A    between atoms: C3_3  and  C4_4 
REMARK    5  A    between atoms: C6_6  and  O1_7 
REMARK    6  A    between atoms: C7_8  and  O2_9 
REMARK    7  A    between atoms: C10_13  and  O4_14 
REMARK    8  A    between atoms: C10_13  and  C11_15 
REMARK    9  A    between atoms: C11_15  and  O5_16 
REMARK   10  A    between atoms: C11_15  and  C12_17 
REMARK   11  A    between atoms: C12_17  and  O6_18 
ROOT
HETATM    1  C1  UNL     1      20.469  -3.515  28.807  1.00  0.00     0.158 C 
HETATM    2  O3  UNL     1      21.496  -2.850  28.976  1.00  0.00    -0.295 OA
ENDROOT
BRANCH   1   3
HETATM    3  C2  UNL     1      20.380  -4.942  29.320  1.00  0.00     0.086 C 
BRANCH   3   4
HETATM    4  C3  UNL     1      21.717  -5.678  29.318  1.00  0.00     0.046 C 
BRANCH   4   5
HETATM    5  C4  UNL     1      22.229  -6.012  30.700  1.00  0.00    -0.055 A 
HETATM    6  C5  UNL     1      22.017  -5.133  31.775  1.00  0.00     0.046 A 
HETATM    7  C6  UNL     1      22.507  -5.458  33.036  1.00  0.00     0.099 A 
HETATM    8  C7  UNL     1      23.199  -6.648  33.238  1.00  0.00     0.098 A 
HETATM    9  C8  UNL     1      23.414  -7.529  32.191  1.00  0.00     0.040 A 
HETATM   10  C9  UNL     1      22.927  -7.212  30.922  1.00  0.00     0.010 A 
BRANCH   7  11
HETATM   11  O1  UNL     1      22.333  -4.634  34.113  1.00  0.00    -0.358 OA
HETATM   12  H   UNL     1      22.201  -3.715  33.984  1.00  0.00     0.217 HD
ENDBRANCH   7  11
BRANCH   8  13
HETATM   13  O2  UNL     1      23.677  -6.957  34.480  1.00  0.00    -0.358 OA
HETATM   14  H   UNL     1      23.591  -7.829  34.811  1.00  0.00     0.217 HD
ENDBRANCH   8  13
ENDBRANCH   4   5
ENDBRANCH   3   4
ENDBRANCH   1   3
BRANCH   1  15
HETATM   15  C10 UNL     1      19.232  -2.921  28.130  1.00  0.00     0.218 C 
BRANCH  15  16
HETATM   16  O4  UNL     1      19.138  -1.547  28.507  1.00  0.00    -0.385 OA
HETATM   17  H   UNL     1      19.399  -0.987  27.759  1.00  0.00     0.210 HD
ENDBRANCH  15  16
BRANCH  15  18
HETATM   18  C11 UNL     1      19.303  -3.079  26.597  1.00  0.00     0.177 C 
BRANCH  18  19
HETATM   19  O5  UNL     1      18.275  -3.959  26.114  1.00  0.00    -0.390 OA
HETATM   20  H   UNL     1      17.414  -3.518  26.184  1.00  0.00     0.210 HD
ENDBRANCH  18  19
BRANCH  18  21
HETATM   21  C12 UNL     1      19.099  -1.735  25.887  1.00  0.00     0.198 C 
BRANCH  21  22
HETATM   22  O6  UNL     1      17.703  -1.446  25.789  1.00  0.00    -0.398 OA
HETATM   23  H   UNL     1      17.582  -0.552  25.433  1.00  0.00     0.209 HD
ENDBRANCH  21  22
ENDBRANCH  18  21
ENDBRANCH  15  18
ENDBRANCH   1  15
TORSDOF 11
ENDMDL
MODEL 8
REMARK VINA RESULT:      -6.8      2.939      4.263
REMARK  11 active torsions:
REMARK  status: ('A' for Active; 'I' for Inactive)
REMARK    1  A    between atoms: C1_1  and  C2_2 
REMARK    2  A    between atoms: C1_1  and  C10_13 
REMARK    3  A    between atoms: C2_2  and  C3_3 
REMARK    4  A    between atoms: C3_3  and  C4_4 
REMARK    5  A    between atoms: C6_6  and  O1_7 
REMARK    6  A    between atoms: C7_8  and  O2_9 
REMARK    7  A    between atoms: C10_13  and  O4_14 
REMARK    8  A    between atoms: C10_13  and  C11_15 
REMARK    9  A    between atoms: C11_15  and  O5_16 
REMARK   10  A    between atoms: C11_15  and  C12_17 
REMARK   11  A    between atoms: C12_17  and  O6_18 
ROOT
HETATM    1  C1  UNL     1      21.017  -2.359  31.259  1.00  0.00     0.158 C 
HETATM    2  O3  UNL     1      21.044  -1.195  31.672  1.00  0.00    -0.295 OA
ENDROOT
BRANCH   1   3
HETATM    3  C2  UNL     1      21.541  -3.496  32.118  1.00  0.00     0.086 C 
BRANCH   3   4
HETATM    4  C3  UNL     1      21.160  -4.880  31.599  1.00  0.00     0.046 C 
BRANCH   4   5
HETATM    5  C4  UNL     1      22.146  -5.962  31.972  1.00  0.00    -0.055 A 
HETATM    6  C5  UNL     1      22.456  -6.217  33.318  1.00  0.00     0.046 A 
HETATM    7  C6  UNL     1      23.375  -7.211  33.636  1.00  0.00     0.099 A 
HETATM    8  C7  UNL     1      23.982  -7.958  32.631  1.00  0.00     0.098 A 
HETATM    9  C8  UNL     1      23.685  -7.725  31.299  1.00  0.00     0.040 A 
HETATM   10  C9  UNL     1      22.765  -6.729  30.969  1.00  0.00     0.010 A 
BRANCH   7  11
HETATM   11  O1  UNL     1      23.716  -7.493  34.931  1.00  0.00    -0.358 OA
HETATM   12  H   UNL     1      24.550  -7.226  35.264  1.00  0.00     0.217 HD
ENDBRANCH   7  11
BRANCH   8  13
HETATM   13  O2  UNL     1      24.883  -8.932  32.955  1.00  0.00    -0.358 OA
HETATM   14  H   UNL     1      25.775  -8.855  32.680  1.00  0.00     0.217 HD
ENDBRANCH   8  13
ENDBRANCH   4   5
ENDBRANCH   3   4
ENDBRANCH   1   3
BRANCH   1  15
HETATM   15  C10 UNL     1      20.411  -2.711  29.898  1.00  0.00     0.218 C 
BRANCH  15  16
HETATM   16  O4  UNL     1      19.225  -1.935  29.727  1.00  0.00    -0.385 OA
HETATM   17  H   UNL     1      19.214  -1.554  28.836  1.00  0.00     0.210 HD
ENDBRANCH  15  16
BRANCH  15  18
HETATM   18  C11 UNL     1      21.417  -2.460  28.756  1.00  0.00     0.177 C 
BRANCH  18  19
HETATM   19  O5  UNL     1      22.265  -3.600  28.545  1.00  0.00    -0.390 OA
HETATM   20  H   UNL     1      22.021  -4.303  29.167  1.00  0.00     0.210 HD
ENDBRANCH  18  19
BRANCH  18  21
HETATM   21  C12 UNL     1      20.698  -2.196  27.426  1.00  0.00     0.198 C 
BRANCH  21  22
HETATM   22  O6  UNL     1      20.652  -0.791  27.172  1.00  0.00    -0.398 OA
HETATM   23  H   UNL     1      19.912  -0.398  27.661  1.00  0.00     0.209 HD
ENDBRANCH  21  22
ENDBRANCH  18  21
ENDBRANCH  15  18
ENDBRANCH   1  15
TORSDOF 11
ENDMDL
MODEL 9
REMARK VINA RESULT:      -6.8      1.276      7.071
REMARK  11 active torsions:
REMARK  status: ('A' for Active; 'I' for Inactive)
REMARK    1  A    between atoms: C1_1  and  C2_2 
REMARK    2  A    between atoms: C1_1  and  C10_13 
REMARK    3  A    between atoms: C2_2  and  C3_3 
REMARK    4  A    between atoms: C3_3  and  C4_4 
REMARK    5  A    between atoms: C6_6  and  O1_7 
REMARK    6  A    between atoms: C7_8  and  O2_9 
REMARK    7  A    between atoms: C10_13  and  O4_14 
REMARK    8  A    between atoms: C10_13  and  C11_15 
REMARK    9  A    between atoms: C11_15  and  O5_16 
REMARK   10  A    between atoms: C11_15  and  C12_17 
REMARK   11  A    between atoms: C12_17  and  O6_18 
ROOT
HETATM    1  C1  UNL     1      20.872  -2.581  31.646  1.00  0.00     0.158 C 
HETATM    2  O3  UNL     1      19.861  -1.949  31.326  1.00  0.00    -0.295 OA
ENDROOT
BRANCH   1   3
HETATM    3  C2  UNL     1      21.138  -3.959  31.066  1.00  0.00     0.086 C 
BRANCH   3   4
HETATM    4  C3  UNL     1      21.770  -3.927  29.677  1.00  0.00     0.046 C 
BRANCH   4   5
HETATM    5  C4  UNL     1      20.821  -3.489  28.586  1.00  0.00    -0.055 A 
HETATM    6  C5  UNL     1      19.614  -4.173  28.369  1.00  0.00     0.046 A 
HETATM    7  C6  UNL     1      18.761  -3.757  27.351  1.00  0.00     0.099 A 
HETATM    8  C7  UNL     1      19.093  -2.666  26.555  1.00  0.00     0.098 A 
HETATM    9  C8  UNL     1      20.276  -1.975  26.758  1.00  0.00     0.040 A 
HETATM   10  C9  UNL     1      21.139  -2.385  27.775  1.00  0.00     0.010 A 
BRANCH   7  11
HETATM   11  O1  UNL     1      17.578  -4.394  27.095  1.00  0.00    -0.358 OA
HETATM   12  H   UNL     1      17.362  -4.646  26.218  1.00  0.00     0.217 HD
ENDBRANCH   7  11
BRANCH   8  13
HETATM   13  O2  UNL     1      18.249  -2.266  25.559  1.00  0.00    -0.358 OA
HETATM   14  H   UNL     1      18.058  -1.356  25.444  1.00  0.00     0.217 HD
ENDBRANCH   8  13
ENDBRANCH   4   5
ENDBRANCH   3   4
ENDBRANCH   1   3
BRANCH   1  15
HETATM   15  C10 UNL     1      21.921  -1.990  32.591  1.00  0.00     0.218 C 
BRANCH  15  16
HETATM   16  O4  UNL     1      21.807  -0.567  32.545  1.00  0.00    -0.385 OA
HETATM   17  H   UNL     1      21.724  -0.221  33.447  1.00  0.00     0.210 HD
ENDBRANCH  15  16
BRANCH  15  18
HETATM   18  C11 UNL     1      21.743  -2.522  34.028  1.00  0.00     0.177 C 
BRANCH  18  19
HETATM   19  O5  UNL     1      22.434  -3.768  34.214  1.00  0.00    -0.390 OA
HETATM   20  H   UNL     1      23.163  -3.642  34.842  1.00  0.00     0.210 HD
ENDBRANCH  18  19
BRANCH  18  21
HETATM   21  C12 UNL     1      22.317  -1.544  35.061  1.00  0.00     0.198 C 
BRANCH  21  22
HETATM   22  O6  UNL     1      22.547  -2.224  36.296  1.00  0.00    -0.398 OA
HETATM   23  H   UNL     1      21.861  -1.976  36.936  1.00  0.00     0.209 HD
ENDBRANCH  21  22
ENDBRANCH  18  21
ENDBRANCH  15  18
ENDBRANCH   1  15
TORSDOF 11
ENDMDL
