MODEL 1
REMARK VINA RESULT:      -7.2      0.000      0.000
REMARK  11 active torsions:
REMARK  status: ('A' for Active; 'I' for Inactive)
REMARK    1  A    between atoms: C1_1  and  C2_2 
REMARK    2  A    between atoms: C1_1  and  C10_13 
REMARK    3  A    between atoms: C2_2  and  C3_3 
REMARK    4  A    between atoms: C3_3  and  C4_4 
REMARK    5  A    between atoms: C6_6  and  O1_7 
REMARK    6  A    between atoms: C7_8  and  O2_9 
REMARK    7  A    between atoms: C10_13  and  O4_14 
REMARK    8  A    between atoms: C10_13  and  C11_15 
REMARK    9  A    between atoms: C11_15  and  O5_16 
REMARK   10  A    between atoms: C11_15  and  C12_17 
REMARK   11  A    between atoms: C12_17  and  O6_18 
ROOT
HETATM    1  C1  UNL     1      14.581   6.148  10.306  1.00  0.00     0.158 C 
HETATM    2  O3  UNL     1      15.325   6.088   9.322  1.00  0.00    -0.295 OA
ENDROOT
BRANCH   1   3
HETATM    3  C2  UNL     1      15.059   6.791  11.596  1.00  0.00     0.086 C 
BRANCH   3   4
HETATM    4  C3  UNL     1      15.362   5.787  12.705  1.00  0.00     0.046 C 
BRANCH   4   5
HETATM    5  C4  UNL     1      14.577   6.025  13.973  1.00  0.00    -0.055 A 
HETATM    6  C5  UNL     1      13.173   6.064  13.951  1.00  0.00     0.046 A 
HETATM    7  C6  UNL     1      12.473   6.295  15.131  1.00  0.00     0.099 A 
HETATM    8  C7  UNL     1      13.154   6.482  16.330  1.00  0.00     0.098 A 
HETATM    9  C8  UNL     1      14.538   6.442  16.372  1.00  0.00     0.040 A 
HETATM   10  C9  UNL     1      15.250   6.212  15.194  1.00  0.00     0.010 A 
BRANCH   7  11
HETATM   11  O1  UNL     1      11.107   6.349  15.161  1.00  0.00    -0.358 OA
HETATM   12  H   UNL     1      10.602   5.663  14.770  1.00  0.00     0.217 HD
ENDBRANCH   7  11
BRANCH   8  13
HETATM   13  O2  UNL     1      12.457   6.709  17.482  1.00  0.00    -0.358 OA
HETATM   14  H   UNL     1      11.785   6.112  17.749  1.00  0.00     0.217 HD
ENDBRANCH   8  13
ENDBRANCH   4   5
ENDBRANCH   3   4
ENDBRANCH   1   3
BRANCH   1  15
HETATM   15  C10 UNL     1      13.141   5.633  10.255  1.00  0.00     0.218 C 
BRANCH  15  16
HETATM   16  O4  UNL     1      12.271   6.719  10.575  1.00  0.00    -0.385 OA
HETATM   17  H   UNL     1      12.796   7.473  10.886  1.00  0.00     0.210 HD
ENDBRANCH  15  16
BRANCH  15  18
HETATM   18  C11 UNL     1      12.809   5.036   8.872  1.00  0.00     0.177 C 
BRANCH  18  19
HETATM   19  O5  UNL     1      11.742   4.079   8.958  1.00  0.00    -0.390 OA
HETATM   20  H   UNL     1      11.191   4.277   9.732  1.00  0.00     0.210 HD
ENDBRANCH  18  19
BRANCH  18  21
HETATM   21  C12 UNL     1      12.347   6.121   7.891  1.00  0.00     0.198 C 
BRANCH  21  22
HETATM   22  O6  UNL     1      13.394   6.414   6.964  1.00  0.00    -0.398 OA
HETATM   23  H   UNL     1      13.126   6.132   6.074  1.00  0.00     0.209 HD
ENDBRANCH  21  22
ENDBRANCH  18  21
ENDBRANCH  15  18
ENDBRANCH   1  15
TORSDOF 11
ENDMDL
MODEL 2
REMARK VINA RESULT:      -6.9      2.279      4.798
REMARK  11 active torsions:
REMARK  status: ('A' for Active; 'I' for Inactive)
REMARK    1  A    between atoms: C1_1  and  C2_2 
REMARK    2  A    between atoms: C1_1  and  C10_13 
REMARK    3  A    between atoms: C2_2  and  C3_3 
REMARK    4  A    between atoms: C3_3  and  C4_4 
REMARK    5  A    between atoms: C6_6  and  O1_7 
REMARK    6  A    between atoms: C7_8  and  O2_9 
REMARK    7  A    between atoms: C10_13  and  O4_14 
REMARK    8  A    between atoms: C10_13  and  C11_15 
REMARK    9  A    between atoms: C11_15  and  O5_16 
REMARK   10  A    between atoms: C11_15  and  C12_17 
REMARK   11  A    between atoms: C12_17  and  O6_18 
ROOT
HETATM    1  C1  UNL     1      12.636   5.869  11.940  1.00  0.00     0.158 C 
HETATM    2  O3  UNL     1      11.842   6.729  12.334  1.00  0.00    -0.295 OA
ENDROOT
BRANCH   1   3
HETATM    3  C2  UNL     1      13.716   5.333  12.864  1.00  0.00     0.086 C 
BRANCH   3   4
HETATM    4  C3  UNL     1      14.812   6.349  13.178  1.00  0.00     0.046 C 
BRANCH   4   5
HETATM    5  C4  UNL     1      15.978   6.301  12.219  1.00  0.00    -0.055 A 
HETATM    6  C5  UNL     1      16.010   7.130  11.086  1.00  0.00     0.046 A 
HETATM    7  C6  UNL     1      17.090   7.060  10.212  1.00  0.00     0.099 A 
HETATM    8  C7  UNL     1      18.139   6.180  10.457  1.00  0.00     0.098 A 
HETATM    9  C8  UNL     1      18.128   5.358  11.572  1.00  0.00     0.040 A 
HETATM   10  C9  UNL     1      17.048   5.420  12.454  1.00  0.00     0.010 A 
BRANCH   7  11
HETATM   11  O1  UNL     1      17.165   7.841   9.091  1.00  0.00    -0.358 OA
HETATM   12  H   UNL     1      17.191   8.775   9.172  1.00  0.00     0.217 HD
ENDBRANCH   7  11
BRANCH   8  13
HETATM   13  O2  UNL     1      19.194   6.119   9.592  1.00  0.00    -0.358 OA
HETATM   14  H   UNL     1      19.733   5.353   9.564  1.00  0.00     0.217 HD
ENDBRANCH   8  13
ENDBRANCH   4   5
ENDBRANCH   3   4
ENDBRANCH   1   3
BRANCH   1  15
HETATM   15  C10 UNL     1      12.535   5.268  10.536  1.00  0.00     0.218 C 
BRANCH  15  16
HETATM   16  O4  UNL     1      11.183   4.862  10.324  1.00  0.00    -0.385 OA
HETATM   17  H   UNL     1      10.654   5.627  10.050  1.00  0.00     0.210 HD
ENDBRANCH  15  16
BRANCH  15  18
HETATM   18  C11 UNL     1      12.993   6.277   9.462  1.00  0.00     0.177 C 
BRANCH  18  19
HETATM   19  O5  UNL     1      14.060   5.741   8.662  1.00  0.00    -0.390 OA
HETATM   20  H   UNL     1      14.135   6.252   7.841  1.00  0.00     0.210 HD
ENDBRANCH  18  19
BRANCH  18  21
HETATM   21  C12 UNL     1      11.852   6.622   8.497  1.00  0.00     0.198 C 
BRANCH  21  22
HETATM   22  O6  UNL     1      11.811   5.666   7.435  1.00  0.00    -0.398 OA
HETATM   23  H   UNL     1      12.573   5.801   6.849  1.00  0.00     0.209 HD
ENDBRANCH  21  22
ENDBRANCH  18  21
ENDBRANCH  15  18
ENDBRANCH   1  15
TORSDOF 11
ENDMDL
MODEL 3
REMARK VINA RESULT:      -6.7      1.568      6.035
REMARK  11 active torsions:
REMARK  status: ('A' for Active; 'I' for Inactive)
REMARK    1  A    between atoms: C1_1  and  C2_2 
REMARK    2  A    between atoms: C1_1  and  C10_13 
REMARK    3  A    between atoms: C2_2  and  C3_3 
REMARK    4  A    between atoms: C3_3  and  C4_4 
REMARK    5  A    between atoms: C6_6  and  O1_7 
REMARK    6  A    between atoms: C7_8  and  O2_9 
REMARK    7  A    between atoms: C10_13  and  O4_14 
REMARK    8  A    between atoms: C10_13  and  C11_15 
REMARK    9  A    between atoms: C11_15  and  O5_16 
REMARK   10  A    between atoms: C11_15  and  C12_17 
REMARK   11  A    between atoms: C12_17  and  O6_18 
ROOT
HETATM    1  C1  UNL     1      15.142   5.685  15.167  1.00  0.00     0.158 C 
HETATM    2  O3  UNL     1      15.405   4.479  15.136  1.00  0.00    -0.295 OA
ENDROOT
BRANCH   1   3
HETATM    3  C2  UNL     1      15.371   6.558  13.946  1.00  0.00     0.086 C 
BRANCH   3   4
HETATM    4  C3  UNL     1      15.736   5.770  12.690  1.00  0.00     0.046 C 
BRANCH   4   5
HETATM    5  C4  UNL     1      14.657   5.780  11.632  1.00  0.00    -0.055 A 
HETATM    6  C5  UNL     1      13.342   5.399  11.945  1.00  0.00     0.046 A 
HETATM    7  C6  UNL     1      12.369   5.405  10.951  1.00  0.00     0.099 A 
HETATM    8  C7  UNL     1      12.689   5.793   9.653  1.00  0.00     0.098 A 
HETATM    9  C8  UNL     1      13.980   6.176   9.327  1.00  0.00     0.040 A 
HETATM   10  C9  UNL     1      14.964   6.172  10.317  1.00  0.00     0.010 A 
BRANCH   7  11
HETATM   11  O1  UNL     1      11.076   5.037  11.203  1.00  0.00    -0.358 OA
HETATM   12  H   UNL     1      10.782   4.935  12.087  1.00  0.00     0.217 HD
ENDBRANCH   7  11
BRANCH   8  13
HETATM   13  O2  UNL     1      11.727   5.796   8.685  1.00  0.00    -0.358 OA
HETATM   14  H   UNL     1      11.502   6.594   8.250  1.00  0.00     0.217 HD
ENDBRANCH   8  13
ENDBRANCH   4   5
ENDBRANCH   3   4
ENDBRANCH   1   3
BRANCH   1  15
HETATM   15  C10 UNL     1      14.527   6.339  16.407  1.00  0.00     0.218 C 
BRANCH  15  16
HETATM   16  O4  UNL     1      14.915   7.713  16.421  1.00  0.00    -0.385 OA
HETATM   17  H   UNL     1      14.480   8.164  17.162  1.00  0.00     0.210 HD
ENDBRANCH  15  16
BRANCH  15  18
HETATM   18  C11 UNL     1      12.991   6.189  16.415  1.00  0.00     0.177 C 
BRANCH  18  19
HETATM   19  O5  UNL     1      12.413   6.795  17.582  1.00  0.00    -0.390 OA
HETATM   20  H   UNL     1      11.462   6.607  17.606  1.00  0.00     0.210 HD
ENDBRANCH  18  19
BRANCH  18  21
HETATM   21  C12 UNL     1      12.356   6.879  15.201  1.00  0.00     0.198 C 
BRANCH  21  22
HETATM   22  O6  UNL     1      11.086   6.289  14.919  1.00  0.00    -0.398 OA
HETATM   23  H   UNL     1      10.393   6.965  14.982  1.00  0.00     0.209 HD
ENDBRANCH  21  22
ENDBRANCH  18  21
ENDBRANCH  15  18
ENDBRANCH   1  15
TORSDOF 11
ENDMDL
MODEL 4
REMARK VINA RESULT:      -6.7      2.595      4.723
REMARK  11 active torsions:
REMARK  status: ('A' for Active; 'I' for Inactive)
REMARK    1  A    between atoms: C1_1  and  C2_2 
REMARK    2  A    between atoms: C1_1  and  C10_13 
REMARK    3  A    between atoms: C2_2  and  C3_3 
REMARK    4  A    between atoms: C3_3  and  C4_4 
REMARK    5  A    between atoms: C6_6  and  O1_7 
REMARK    6  A    between atoms: C7_8  and  O2_9 
REMARK    7  A    between atoms: C10_13  and  O4_14 
REMARK    8  A    between atoms: C10_13  and  C11_15 
REMARK    9  A    between atoms: C11_15  and  O5_16 
REMARK   10  A    between atoms: C11_15  and  C12_17 
REMARK   11  A    between atoms: C12_17  and  O6_18 
ROOT
HETATM    1  C1  UNL     1      13.141   6.111  11.057  1.00  0.00     0.158 C 
HETATM    2  O3  UNL     1      12.091   6.538  11.548  1.00  0.00    -0.295 OA
ENDROOT
BRANCH   1   3
HETATM    3  C2  UNL     1      14.176   5.421  11.927  1.00  0.00     0.086 C 
BRANCH   3   4
HETATM    4  C3  UNL     1      15.256   6.362  12.456  1.00  0.00     0.046 C 
BRANCH   4   5
HETATM    5  C4  UNL     1      16.645   5.769  12.429  1.00  0.00    -0.055 A 
HETATM    6  C5  UNL     1      17.427   5.826  11.264  1.00  0.00     0.046 A 
HETATM    7  C6  UNL     1      18.699   5.264  11.260  1.00  0.00     0.099 A 
HETATM    8  C7  UNL     1      19.203   4.653  12.404  1.00  0.00     0.098 A 
HETATM    9  C8  UNL     1      18.449   4.592  13.565  1.00  0.00     0.040 A 
HETATM   10  C9  UNL     1      17.171   5.152  13.578  1.00  0.00     0.010 A 
BRANCH   7  11
HETATM   11  O1  UNL     1      19.497   5.288  10.149  1.00  0.00    -0.358 OA
HETATM   12  H   UNL     1      19.929   6.081   9.900  1.00  0.00     0.217 HD
ENDBRANCH   7  11
BRANCH   8  13
HETATM   13  O2  UNL     1      20.453   4.104  12.390  1.00  0.00    -0.358 OA
HETATM   14  H   UNL     1      21.156   4.526  12.844  1.00  0.00     0.217 HD
ENDBRANCH   8  13
ENDBRANCH   4   5
ENDBRANCH   3   4
ENDBRANCH   1   3
BRANCH   1  15
HETATM   15  C10 UNL     1      13.420   6.207   9.555  1.00  0.00     0.218 C 
BRANCH  15  16
HETATM   16  O4  UNL     1      14.833   6.148   9.363  1.00  0.00    -0.385 OA
HETATM   17  H   UNL     1      15.172   7.037   9.175  1.00  0.00     0.210 HD
ENDBRANCH  15  16
BRANCH  15  18
HETATM   18  C11 UNL     1      12.699   5.085   8.780  1.00  0.00     0.177 C 
BRANCH  18  19
HETATM   19  O5  UNL     1      11.546   4.613   9.495  1.00  0.00    -0.390 OA
HETATM   20  H   UNL     1      11.432   3.663   9.332  1.00  0.00     0.210 HD
ENDBRANCH  18  19
BRANCH  18  21
HETATM   21  C12 UNL     1      12.197   5.582   7.417  1.00  0.00     0.198 C 
BRANCH  21  22
HETATM   22  O6  UNL     1      13.269   6.201   6.703  1.00  0.00    -0.398 OA
HETATM   23  H   UNL     1      13.998   6.390   7.314  1.00  0.00     0.209 HD
ENDBRANCH  21  22
ENDBRANCH  18  21
ENDBRANCH  15  18
ENDBRANCH   1  15
TORSDOF 11
ENDMDL
MODEL 5
REMARK VINA RESULT:      -6.7      2.305      5.050
REMARK  11 active torsions:
REMARK  status: ('A' for Active; 'I' for Inactive)
REMARK    1  A    between atoms: C1_1  and  C2_2 
REMARK    2  A    between atoms: C1_1  and  C10_13 
REMARK    3  A    between atoms: C2_2  and  C3_3 
REMARK    4  A    between atoms: C3_3  and  C4_4 
REMARK    5  A    between atoms: C6_6  and  O1_7 
REMARK    6  A    between atoms: C7_8  and  O2_9 
REMARK    7  A    between atoms: C10_13  and  O4_14 
REMARK    8  A    between atoms: C10_13  and  C11_15 
REMARK    9  A    between atoms: C11_15  and  O5_16 
REMARK   10  A    between atoms: C11_15  and  C12_17 
REMARK   11  A    between atoms: C12_17  and  O6_18 
ROOT
HETATM    1  C1  UNL     1      12.783   5.754  11.833  1.00  0.00     0.158 C 
HETATM    2  O3  UNL     1      11.996   6.559  12.341  1.00  0.00    -0.295 OA
ENDROOT
BRANCH   1   3
HETATM    3  C2  UNL     1      13.983   5.249  12.614  1.00  0.00     0.086 C 
BRANCH   3   4
HETATM    4  C3  UNL     1      14.996   6.340  12.954  1.00  0.00     0.046 C 
BRANCH   4   5
HETATM    5  C4  UNL     1      16.092   6.493  11.926  1.00  0.00    -0.055 A 
HETATM    6  C5  UNL     1      17.187   5.613  11.908  1.00  0.00     0.046 A 
HETATM    7  C6  UNL     1      18.189   5.781  10.958  1.00  0.00     0.099 A 
HETATM    8  C7  UNL     1      18.110   6.809  10.024  1.00  0.00     0.098 A 
HETATM    9  C8  UNL     1      17.036   7.684  10.023  1.00  0.00     0.040 A 
HETATM   10  C9  UNL     1      16.026   7.525  10.972  1.00  0.00     0.010 A 
BRANCH   7  11
HETATM   11  O1  UNL     1      19.278   4.955  10.903  1.00  0.00    -0.358 OA
HETATM   12  H   UNL     1      19.780   4.789  11.677  1.00  0.00     0.217 HD
ENDBRANCH   7  11
BRANCH   8  13
HETATM   13  O2  UNL     1      19.100   6.965   9.096  1.00  0.00    -0.358 OA
HETATM   14  H   UNL     1      19.211   7.789   8.664  1.00  0.00     0.217 HD
ENDBRANCH   8  13
ENDBRANCH   4   5
ENDBRANCH   3   4
ENDBRANCH   1   3
BRANCH   1  15
HETATM   15  C10 UNL     1      12.557   5.191  10.428  1.00  0.00     0.218 C 
BRANCH  15  16
HETATM   16  O4  UNL     1      11.152   5.012  10.244  1.00  0.00    -0.385 OA
HETATM   17  H   UNL     1      10.800   4.457  10.957  1.00  0.00     0.210 HD
ENDBRANCH  15  16
BRANCH  15  18
HETATM   18  C11 UNL     1      13.152   6.121   9.351  1.00  0.00     0.177 C 
BRANCH  18  19
HETATM   19  O5  UNL     1      14.442   5.661   8.917  1.00  0.00    -0.390 OA
HETATM   20  H   UNL     1      15.081   6.388   8.976  1.00  0.00     0.210 HD
ENDBRANCH  18  19
BRANCH  18  21
HETATM   21  C12 UNL     1      12.261   6.169   8.102  1.00  0.00     0.198 C 
BRANCH  21  22
HETATM   22  O6  UNL     1      13.071   6.346   6.937  1.00  0.00    -0.398 OA
HETATM   23  H   UNL     1      12.842   5.671   6.279  1.00  0.00     0.209 HD
ENDBRANCH  21  22
ENDBRANCH  18  21
ENDBRANCH  15  18
ENDBRANCH   1  15
TORSDOF 11
ENDMDL
MODEL 6
REMARK VINA RESULT:      -6.6      2.815      4.641
REMARK  11 active torsions:
REMARK  status: ('A' for Active; 'I' for Inactive)
REMARK    1  A    between atoms: C1_1  and  C2_2 
REMARK    2  A    between atoms: C1_1  and  C10_13 
REMARK    3  A    between atoms: C2_2  and  C3_3 
REMARK    4  A    between atoms: C3_3  and  C4_4 
REMARK    5  A    between atoms: C6_6  and  O1_7 
REMARK    6  A    between atoms: C7_8  and  O2_9 
REMARK    7  A    between atoms: C10_13  and  O4_14 
REMARK    8  A    between atoms: C10_13  and  C11_15 
REMARK    9  A    between atoms: C11_15  and  O5_16 
REMARK   10  A    between atoms: C11_15  and  C12_17 
REMARK   11  A    between atoms: C12_17  and  O6_18 
ROOT
HETATM    1  C1  UNL     1      12.746   5.831  11.834  1.00  0.00     0.158 C 
HETATM    2  O3  UNL     1      11.921   6.630  12.290  1.00  0.00    -0.295 OA
ENDROOT
BRANCH   1   3
HETATM    3  C2  UNL     1      13.960   5.424  12.650  1.00  0.00     0.086 C 
BRANCH   3   4
HETATM    4  C3  UNL     1      15.087   6.454  12.626  1.00  0.00     0.046 C 
BRANCH   4   5
HETATM    5  C4  UNL     1      16.465   5.844  12.526  1.00  0.00    -0.055 A 
HETATM    6  C5  UNL     1      17.023   5.150  13.613  1.00  0.00     0.046 A 
HETATM    7  C6  UNL     1      18.299   4.607  13.500  1.00  0.00     0.099 A 
HETATM    8  C7  UNL     1      19.021   4.742  12.318  1.00  0.00     0.098 A 
HETATM    9  C8  UNL     1      18.486   5.419  11.235  1.00  0.00     0.040 A 
HETATM   10  C9  UNL     1      17.207   5.968  11.338  1.00  0.00     0.010 A 
BRANCH   7  11
HETATM   11  O1  UNL     1      18.888   3.927  14.531  1.00  0.00    -0.358 OA
HETATM   12  H   UNL     1      19.516   3.255  14.350  1.00  0.00     0.217 HD
ENDBRANCH   7  11
BRANCH   8  13
HETATM   13  O2  UNL     1      20.272   4.205  12.219  1.00  0.00    -0.358 OA
HETATM   14  H   UNL     1      20.728   3.931  12.991  1.00  0.00     0.217 HD
ENDBRANCH   8  13
ENDBRANCH   4   5
ENDBRANCH   3   4
ENDBRANCH   1   3
BRANCH   1  15
HETATM   15  C10 UNL     1      12.556   5.179  10.462  1.00  0.00     0.218 C 
BRANCH  15  16
HETATM   16  O4  UNL     1      11.174   4.852  10.315  1.00  0.00    -0.385 OA
HETATM   17  H   UNL     1      11.090   3.933  10.014  1.00  0.00     0.210 HD
ENDBRANCH  15  16
BRANCH  15  18
HETATM   18  C11 UNL     1      13.037   6.110   9.329  1.00  0.00     0.177 C 
BRANCH  18  19
HETATM   19  O5  UNL     1      14.464   6.054   9.177  1.00  0.00    -0.390 OA
HETATM   20  H   UNL     1      14.808   6.948   9.024  1.00  0.00     0.210 HD
ENDBRANCH  18  19
BRANCH  18  21
HETATM   21  C12 UNL     1      12.436   5.701   7.978  1.00  0.00     0.198 C 
BRANCH  21  22
HETATM   22  O6  UNL     1      13.272   6.166   6.916  1.00  0.00    -0.398 OA
HETATM   23  H   UNL     1      14.077   5.626   6.878  1.00  0.00     0.209 HD
ENDBRANCH  21  22
ENDBRANCH  18  21
ENDBRANCH  15  18
ENDBRANCH   1  15
TORSDOF 11
ENDMDL
MODEL 7
REMARK VINA RESULT:      -6.6      2.734      6.432
REMARK  11 active torsions:
REMARK  status: ('A' for Active; 'I' for Inactive)
REMARK    1  A    between atoms: C1_1  and  C2_2 
REMARK    2  A    between atoms: C1_1  and  C10_13 
REMARK    3  A    between atoms: C2_2  and  C3_3 
REMARK    4  A    between atoms: C3_3  and  C4_4 
REMARK    5  A    between atoms: C6_6  and  O1_7 
REMARK    6  A    between atoms: C7_8  and  O2_9 
REMARK    7  A    between atoms: C10_13  and  O4_14 
REMARK    8  A    between atoms: C10_13  and  C11_15 
REMARK    9  A    between atoms: C11_15  and  O5_16 
REMARK   10  A    between atoms: C11_15  and  C12_17 
REMARK   11  A    between atoms: C12_17  and  O6_18 
ROOT
HETATM    1  C1  UNL     1      13.622   5.015  13.959  1.00  0.00     0.158 C 
HETATM    2  O3  UNL     1      12.799   4.099  14.052  1.00  0.00    -0.295 OA
ENDROOT
BRANCH   1   3
HETATM    3  C2  UNL     1      15.108   4.735  14.101  1.00  0.00     0.086 C 
BRANCH   3   4
HETATM    4  C3  UNL     1      15.985   5.966  13.888  1.00  0.00     0.046 C 
BRANCH   4   5
HETATM    5  C4  UNL     1      16.687   5.990  12.551  1.00  0.00    -0.055 A 
HETATM    6  C5  UNL     1      17.927   5.353  12.379  1.00  0.00     0.046 A 
HETATM    7  C6  UNL     1      18.558   5.398  11.140  1.00  0.00     0.099 A 
HETATM    8  C7  UNL     1      17.966   6.063  10.071  1.00  0.00     0.098 A 
HETATM    9  C8  UNL     1      16.741   6.692  10.220  1.00  0.00     0.040 A 
HETATM   10  C9  UNL     1      16.100   6.654  11.459  1.00  0.00     0.010 A 
BRANCH   7  11
HETATM   11  O1  UNL     1      19.769   4.800  10.924  1.00  0.00    -0.358 OA
HETATM   12  H   UNL     1      19.849   3.868  10.985  1.00  0.00     0.217 HD
ENDBRANCH   7  11
BRANCH   8  13
HETATM   13  O2  UNL     1      18.594   6.101   8.859  1.00  0.00    -0.358 OA
HETATM   14  H   UNL     1      18.590   5.345   8.306  1.00  0.00     0.217 HD
ENDBRANCH   8  13
ENDBRANCH   4   5
ENDBRANCH   3   4
ENDBRANCH   1   3
BRANCH   1  15
HETATM   15  C10 UNL     1      13.192   6.450  13.646  1.00  0.00     0.218 C 
BRANCH  15  16
HETATM   16  O4  UNL     1      12.487   6.440  12.404  1.00  0.00    -0.385 OA
HETATM   17  H   UNL     1      12.800   5.700  11.861  1.00  0.00     0.210 HD
ENDBRANCH  15  16
BRANCH  15  18
HETATM   18  C11 UNL     1      12.325   7.035  14.780  1.00  0.00     0.177 C 
BRANCH  18  19
HETATM   19  O5  UNL     1      11.006   6.465  14.776  1.00  0.00    -0.390 OA
HETATM   20  H   UNL     1      10.915   5.856  15.526  1.00  0.00     0.210 HD
ENDBRANCH  18  19
BRANCH  18  21
HETATM   21  C12 UNL     1      12.928   6.733  16.157  1.00  0.00     0.198 C 
BRANCH  21  22
HETATM   22  O6  UNL     1      11.935   6.908  17.170  1.00  0.00    -0.398 OA
HETATM   23  H   UNL     1      11.400   7.691  16.965  1.00  0.00     0.209 HD
ENDBRANCH  21  22
ENDBRANCH  18  21
ENDBRANCH  15  18
ENDBRANCH   1  15
TORSDOF 11
ENDMDL
MODEL 8
REMARK VINA RESULT:      -6.5      2.697      6.467
REMARK  11 active torsions:
REMARK  status: ('A' for Active; 'I' for Inactive)
REMARK    1  A    between atoms: C1_1  and  C2_2 
REMARK    2  A    between atoms: C1_1  and  C10_13 
REMARK    3  A    between atoms: C2_2  and  C3_3 
REMARK    4  A    between atoms: C3_3  and  C4_4 
REMARK    5  A    between atoms: C6_6  and  O1_7 
REMARK    6  A    between atoms: C7_8  and  O2_9 
REMARK    7  A    between atoms: C10_13  and  O4_14 
REMARK    8  A    between atoms: C10_13  and  C11_15 
REMARK    9  A    between atoms: C11_15  and  O5_16 
REMARK   10  A    between atoms: C11_15  and  C12_17 
REMARK   11  A    between atoms: C12_17  and  O6_18 
ROOT
HETATM    1  C1  UNL     1      12.632   5.932  13.842  1.00  0.00     0.158 C 
HETATM    2  O3  UNL     1      11.807   6.850  13.866  1.00  0.00    -0.295 OA
ENDROOT
BRANCH   1   3
HETATM    3  C2  UNL     1      13.243   5.475  12.529  1.00  0.00     0.086 C 
BRANCH   3   4
HETATM    4  C3  UNL     1      14.100   6.540  11.850  1.00  0.00     0.046 C 
BRANCH   4   5
HETATM    5  C4  UNL     1      15.548   6.140  11.683  1.00  0.00    -0.055 A 
HETATM    6  C5  UNL     1      16.175   6.227  10.429  1.00  0.00     0.046 A 
HETATM    7  C6  UNL     1      17.506   5.842  10.299  1.00  0.00     0.099 A 
HETATM    8  C7  UNL     1      18.218   5.380  11.401  1.00  0.00     0.098 A 
HETATM    9  C8  UNL     1      17.617   5.292  12.646  1.00  0.00     0.040 A 
HETATM   10  C9  UNL     1      16.283   5.675  12.788  1.00  0.00     0.010 A 
BRANCH   7  11
HETATM   11  O1  UNL     1      18.160   5.901   9.099  1.00  0.00    -0.358 OA
HETATM   12  H   UNL     1      18.011   6.622   8.519  1.00  0.00     0.217 HD
ENDBRANCH   7  11
BRANCH   8  13
HETATM   13  O2  UNL     1      19.524   5.005  11.261  1.00  0.00    -0.358 OA
HETATM   14  H   UNL     1      19.985   4.635  11.988  1.00  0.00     0.217 HD
ENDBRANCH   8  13
ENDBRANCH   4   5
ENDBRANCH   3   4
ENDBRANCH   1   3
BRANCH   1  15
HETATM   15  C10 UNL     1      13.113   5.255  15.128  1.00  0.00     0.218 C 
BRANCH  15  16
HETATM   16  O4  UNL     1      13.869   4.099  14.763  1.00  0.00    -0.385 OA
HETATM   17  H   UNL     1      13.342   3.542  14.170  1.00  0.00     0.210 HD
ENDBRANCH  15  16
BRANCH  15  18
HETATM   18  C11 UNL     1      13.948   6.223  15.991  1.00  0.00     0.177 C 
BRANCH  18  19
HETATM   19  O5  UNL     1      14.153   7.477  15.321  1.00  0.00    -0.390 OA
HETATM   20  H   UNL     1      14.587   7.320  14.468  1.00  0.00     0.210 HD
ENDBRANCH  18  19
BRANCH  18  21
HETATM   21  C12 UNL     1      13.239   6.544  17.314  1.00  0.00     0.198 C 
BRANCH  21  22
HETATM   22  O6  UNL     1      11.883   6.918  17.058  1.00  0.00    -0.398 OA
HETATM   23  H   UNL     1      11.295   6.433  17.659  1.00  0.00     0.209 HD
ENDBRANCH  21  22
ENDBRANCH  18  21
ENDBRANCH  15  18
ENDBRANCH   1  15
TORSDOF 11
ENDMDL
MODEL 9
REMARK VINA RESULT:      -6.4      2.420      5.474
REMARK  11 active torsions:
REMARK  status: ('A' for Active; 'I' for Inactive)
REMARK    1  A    between atoms: C1_1  and  C2_2 
REMARK    2  A    between atoms: C1_1  and  C10_13 
REMARK    3  A    between atoms: C2_2  and  C3_3 
REMARK    4  A    between atoms: C3_3  and  C4_4 
REMARK    5  A    between atoms: C6_6  and  O1_7 
REMARK    6  A    between atoms: C7_8  and  O2_9 
REMARK    7  A    between atoms: C10_13  and  O4_14 
REMARK    8  A    between atoms: C10_13  and  C11_15 
REMARK    9  A    between atoms: C11_15  and  O5_16 
REMARK   10  A    between atoms: C11_15  and  C12_17 
REMARK   11  A    between atoms: C12_17  and  O6_18 
ROOT
HETATM    1  C1  UNL     1      13.666   6.047  14.173  1.00  0.00     0.158 C 
HETATM    2  O3  UNL     1      13.793   7.126  14.759  1.00  0.00    -0.295 OA
ENDROOT
BRANCH   1   3
HETATM    3  C2  UNL     1      14.830   5.076  14.081  1.00  0.00     0.086 C 
BRANCH   3   4
HETATM    4  C3  UNL     1      16.194   5.760  14.020  1.00  0.00     0.046 C 
BRANCH   4   5
HETATM    5  C4  UNL     1      16.790   5.806  12.633  1.00  0.00    -0.055 A 
HETATM    6  C5  UNL     1      18.081   5.309  12.390  1.00  0.00     0.046 A 
HETATM    7  C6  UNL     1      18.612   5.373  11.105  1.00  0.00     0.099 A 
HETATM    8  C7  UNL     1      17.870   5.918  10.062  1.00  0.00     0.098 A 
HETATM    9  C8  UNL     1      16.594   6.408  10.282  1.00  0.00     0.040 A 
HETATM   10  C9  UNL     1      16.052   6.350  11.567  1.00  0.00     0.010 A 
BRANCH   7  11
HETATM   11  O1  UNL     1      19.866   4.908  10.819  1.00  0.00    -0.358 OA
HETATM   12  H   UNL     1      20.567   5.046  11.426  1.00  0.00     0.217 HD
ENDBRANCH   7  11
BRANCH   8  13
HETATM   13  O2  UNL     1      18.401   5.976   8.805  1.00  0.00    -0.358 OA
HETATM   14  H   UNL     1      17.859   6.210   8.078  1.00  0.00     0.217 HD
ENDBRANCH   8  13
ENDBRANCH   4   5
ENDBRANCH   3   4
ENDBRANCH   1   3
BRANCH   1  15
HETATM   15  C10 UNL     1      12.329   5.617  13.566  1.00  0.00     0.218 C 
BRANCH  15  16
HETATM   16  O4  UNL     1      11.451   6.743  13.588  1.00  0.00    -0.385 OA
HETATM   17  H   UNL     1      11.732   7.359  14.282  1.00  0.00     0.210 HD
ENDBRANCH  15  16
BRANCH  15  18
HETATM   18  C11 UNL     1      12.513   5.076  12.133  1.00  0.00     0.177 C 
BRANCH  18  19
HETATM   19  O5  UNL     1      11.604   3.998  11.860  1.00  0.00    -0.390 OA
HETATM   20  H   UNL     1      12.069   3.152  11.955  1.00  0.00     0.210 HD
ENDBRANCH  18  19
BRANCH  18  21
HETATM   21  C12 UNL     1      12.232   6.162  11.085  1.00  0.00     0.198 C 
BRANCH  21  22
HETATM   22  O6  UNL     1      11.429   5.622  10.033  1.00  0.00    -0.398 OA
HETATM   23  H   UNL     1      11.366   4.659  10.136  1.00  0.00     0.209 HD
ENDBRANCH  21  22
ENDBRANCH  18  21
ENDBRANCH  15  18
ENDBRANCH   1  15
TORSDOF 11
ENDMDL
