MODEL 1
REMARK VINA RESULT:      -7.7      0.000      0.000
REMARK  11 active torsions:
REMARK  status: ('A' for Active; 'I' for Inactive)
REMARK    1  A    between atoms: C1_1  and  C2_2 
REMARK    2  A    between atoms: C1_1  and  C10_13 
REMARK    3  A    between atoms: C2_2  and  C3_3 
REMARK    4  A    between atoms: C3_3  and  C4_4 
REMARK    5  A    between atoms: C6_6  and  O1_7 
REMARK    6  A    between atoms: C7_8  and  O2_9 
REMARK    7  A    between atoms: C10_13  and  O4_14 
REMARK    8  A    between atoms: C10_13  and  C11_15 
REMARK    9  A    between atoms: C11_15  and  O5_16 
REMARK   10  A    between atoms: C11_15  and  C12_17 
REMARK   11  A    between atoms: C12_17  and  O6_18 
ROOT
HETATM    1  C1  UNL     1      19.468  -2.799  28.269  1.00  0.00     0.158 C 
HETATM    2  O3  UNL     1      18.823  -1.997  28.952  1.00  0.00    -0.295 OA
ENDROOT
BRANCH   1   3
HETATM    3  C2  UNL     1      20.845  -3.259  28.713  1.00  0.00     0.086 C 
BRANCH   3   4
HETATM    4  C3  UNL     1      20.812  -4.365  29.764  1.00  0.00     0.046 C 
BRANCH   4   5
HETATM    5  C4  UNL     1      21.235  -3.908  31.141  1.00  0.00    -0.055 A 
HETATM    6  C5  UNL     1      21.244  -2.543  31.472  1.00  0.00     0.046 A 
HETATM    7  C6  UNL     1      21.647  -2.146  32.743  1.00  0.00     0.099 A 
HETATM    8  C7  UNL     1      22.035  -3.092  33.687  1.00  0.00     0.098 A 
HETATM    9  C8  UNL     1      22.027  -4.443  33.380  1.00  0.00     0.040 A 
HETATM   10  C9  UNL     1      21.625  -4.851  32.108  1.00  0.00     0.010 A 
BRANCH   7  11
HETATM   11  O1  UNL     1      21.680  -0.830  33.113  1.00  0.00    -0.358 OA
HETATM   12  H   UNL     1      22.254  -0.550  33.799  1.00  0.00     0.217 HD
ENDBRANCH   7  11
BRANCH   8  13
HETATM   13  O2  UNL     1      22.429  -2.692  34.932  1.00  0.00    -0.358 OA
HETATM   14  H   UNL     1      22.063  -3.098  35.693  1.00  0.00     0.217 HD
ENDBRANCH   8  13
ENDBRANCH   4   5
ENDBRANCH   3   4
ENDBRANCH   1   3
BRANCH   1  15
HETATM   15  C10 UNL     1      18.892  -3.402  26.986  1.00  0.00     0.218 C 
BRANCH  15  16
HETATM   16  O4  UNL     1      17.591  -3.912  27.282  1.00  0.00    -0.385 OA
HETATM   17  H   UNL     1      17.645  -4.517  28.038  1.00  0.00     0.210 HD
ENDBRANCH  15  16
BRANCH  15  18
HETATM   18  C11 UNL     1      18.842  -2.359  25.851  1.00  0.00     0.177 C 
BRANCH  18  19
HETATM   19  O5  UNL     1      17.747  -1.446  26.027  1.00  0.00    -0.390 OA
HETATM   20  H   UNL     1      17.237  -1.701  26.812  1.00  0.00     0.210 HD
ENDBRANCH  18  19
BRANCH  18  21
HETATM   21  C12 UNL     1      20.119  -1.510  25.816  1.00  0.00     0.198 C 
BRANCH  21  22
HETATM   22  O6  UNL     1      20.141  -0.717  24.627  1.00  0.00    -0.398 OA
HETATM   23  H   UNL     1      19.695  -1.196  23.911  1.00  0.00     0.209 HD
ENDBRANCH  21  22
ENDBRANCH  18  21
ENDBRANCH  15  18
ENDBRANCH   1  15
TORSDOF 11
ENDMDL
MODEL 2
REMARK VINA RESULT:      -7.3      1.384      2.542
REMARK  11 active torsions:
REMARK  status: ('A' for Active; 'I' for Inactive)
REMARK    1  A    between atoms: C1_1  and  C2_2 
REMARK    2  A    between atoms: C1_1  and  C10_13 
REMARK    3  A    between atoms: C2_2  and  C3_3 
REMARK    4  A    between atoms: C3_3  and  C4_4 
REMARK    5  A    between atoms: C6_6  and  O1_7 
REMARK    6  A    between atoms: C7_8  and  O2_9 
REMARK    7  A    between atoms: C10_13  and  O4_14 
REMARK    8  A    between atoms: C10_13  and  C11_15 
REMARK    9  A    between atoms: C11_15  and  O5_16 
REMARK   10  A    between atoms: C11_15  and  C12_17 
REMARK   11  A    between atoms: C12_17  and  O6_18 
ROOT
HETATM    1  C1  UNL     1      20.795  -1.992  27.677  1.00  0.00     0.158 C 
HETATM    2  O3  UNL     1      21.465  -1.509  26.759  1.00  0.00    -0.295 OA
ENDROOT
BRANCH   1   3
HETATM    3  C2  UNL     1      21.473  -2.676  28.851  1.00  0.00     0.086 C 
BRANCH   3   4
HETATM    4  C3  UNL     1      20.500  -3.146  29.930  1.00  0.00     0.046 C 
BRANCH   4   5
HETATM    5  C4  UNL     1      21.057  -3.054  31.332  1.00  0.00    -0.055 A 
HETATM    6  C5  UNL     1      21.576  -4.191  31.973  1.00  0.00     0.046 A 
HETATM    7  C6  UNL     1      22.073  -4.083  33.268  1.00  0.00     0.099 A 
HETATM    8  C7  UNL     1      22.064  -2.858  33.927  1.00  0.00     0.098 A 
HETATM    9  C8  UNL     1      21.560  -1.725  33.309  1.00  0.00     0.040 A 
HETATM   10  C9  UNL     1      21.059  -1.823  32.010  1.00  0.00     0.010 A 
BRANCH   7  11
HETATM   11  O1  UNL     1      22.583  -5.161  33.938  1.00  0.00    -0.358 OA
HETATM   12  H   UNL     1      23.359  -5.583  33.624  1.00  0.00     0.217 HD
ENDBRANCH   7  11
BRANCH   8  13
HETATM   13  O2  UNL     1      22.554  -2.764  35.198  1.00  0.00    -0.358 OA
HETATM   14  H   UNL     1      22.870  -1.942  35.519  1.00  0.00     0.217 HD
ENDBRANCH   8  13
ENDBRANCH   4   5
ENDBRANCH   3   4
ENDBRANCH   1   3
BRANCH   1  15
HETATM   15  C10 UNL     1      19.269  -1.877  27.701  1.00  0.00     0.218 C 
BRANCH  15  16
HETATM   16  O4  UNL     1      18.928  -0.492  27.631  1.00  0.00    -0.385 OA
HETATM   17  H   UNL     1      19.620  -0.013  27.148  1.00  0.00     0.210 HD
ENDBRANCH  15  16
BRANCH  15  18
HETATM   18  C11 UNL     1      18.630  -2.673  26.543  1.00  0.00     0.177 C 
BRANCH  18  19
HETATM   19  O5  UNL     1      19.160  -2.263  25.272  1.00  0.00    -0.390 OA
HETATM   20  H   UNL     1      19.130  -3.010  24.654  1.00  0.00     0.210 HD
ENDBRANCH  18  19
BRANCH  18  21
HETATM   21  C12 UNL     1      18.915  -4.175  26.674  1.00  0.00     0.198 C 
BRANCH  21  22
HETATM   22  O6  UNL     1      17.992  -4.913  25.870  1.00  0.00    -0.398 OA
HETATM   23  H   UNL     1      18.325  -5.816  25.742  1.00  0.00     0.209 HD
ENDBRANCH  21  22
ENDBRANCH  18  21
ENDBRANCH  15  18
ENDBRANCH   1  15
TORSDOF 11
ENDMDL
MODEL 3
REMARK VINA RESULT:      -7.3      1.293      1.978
REMARK  11 active torsions:
REMARK  status: ('A' for Active; 'I' for Inactive)
REMARK    1  A    between atoms: C1_1  and  C2_2 
REMARK    2  A    between atoms: C1_1  and  C10_13 
REMARK    3  A    between atoms: C2_2  and  C3_3 
REMARK    4  A    between atoms: C3_3  and  C4_4 
REMARK    5  A    between atoms: C6_6  and  O1_7 
REMARK    6  A    between atoms: C7_8  and  O2_9 
REMARK    7  A    between atoms: C10_13  and  O4_14 
REMARK    8  A    between atoms: C10_13  and  C11_15 
REMARK    9  A    between atoms: C11_15  and  O5_16 
REMARK   10  A    between atoms: C11_15  and  C12_17 
REMARK   11  A    between atoms: C12_17  and  O6_18 
ROOT
HETATM    1  C1  UNL     1      18.909  -3.770  28.587  1.00  0.00     0.158 C 
HETATM    2  O3  UNL     1      17.927  -4.504  28.737  1.00  0.00    -0.295 OA
ENDROOT
BRANCH   1   3
HETATM    3  C2  UNL     1      19.348  -2.831  29.697  1.00  0.00     0.086 C 
BRANCH   3   4
HETATM    4  C3  UNL     1      20.862  -2.767  29.881  1.00  0.00     0.046 C 
BRANCH   4   5
HETATM    5  C4  UNL     1      21.299  -2.781  31.327  1.00  0.00    -0.055 A 
HETATM    6  C5  UNL     1      21.643  -3.987  31.961  1.00  0.00     0.046 A 
HETATM    7  C6  UNL     1      22.032  -3.975  33.297  1.00  0.00     0.099 A 
HETATM    8  C7  UNL     1      22.089  -2.778  34.004  1.00  0.00     0.098 A 
HETATM    9  C8  UNL     1      21.759  -1.579  33.394  1.00  0.00     0.040 A 
HETATM   10  C9  UNL     1      21.366  -1.580  32.055  1.00  0.00     0.010 A 
BRANCH   7  11
HETATM   11  O1  UNL     1      22.370  -5.122  33.961  1.00  0.00    -0.358 OA
HETATM   12  H   UNL     1      22.336  -5.947  33.518  1.00  0.00     0.217 HD
ENDBRANCH   7  11
BRANCH   8  13
HETATM   13  O2  UNL     1      22.473  -2.778  35.315  1.00  0.00    -0.358 OA
HETATM   14  H   UNL     1      21.874  -3.061  35.978  1.00  0.00     0.217 HD
ENDBRANCH   8  13
ENDBRANCH   4   5
ENDBRANCH   3   4
ENDBRANCH   1   3
BRANCH   1  15
HETATM   15  C10 UNL     1      19.753  -3.812  27.311  1.00  0.00     0.218 C 
BRANCH  15  16
HETATM   16  O4  UNL     1      19.728  -5.148  26.807  1.00  0.00    -0.385 OA
HETATM   17  H   UNL     1      20.039  -5.153  25.889  1.00  0.00     0.210 HD
ENDBRANCH  15  16
BRANCH  15  18
HETATM   18  C11 UNL     1      19.232  -2.807  26.263  1.00  0.00     0.177 C 
BRANCH  18  19
HETATM   19  O5  UNL     1      17.900  -2.368  26.575  1.00  0.00    -0.390 OA
HETATM   20  H   UNL     1      17.632  -2.737  27.432  1.00  0.00     0.210 HD
ENDBRANCH  18  19
BRANCH  18  21
HETATM   21  C12 UNL     1      20.108  -1.548  26.214  1.00  0.00     0.198 C 
BRANCH  21  22
HETATM   22  O6  UNL     1      20.110  -1.012  24.889  1.00  0.00    -0.398 OA
HETATM   23  H   UNL     1      20.865  -0.410  24.785  1.00  0.00     0.209 HD
ENDBRANCH  21  22
ENDBRANCH  18  21
ENDBRANCH  15  18
ENDBRANCH   1  15
TORSDOF 11
ENDMDL
MODEL 4
REMARK VINA RESULT:      -7.3      1.591      2.061
REMARK  11 active torsions:
REMARK  status: ('A' for Active; 'I' for Inactive)
REMARK    1  A    between atoms: C1_1  and  C2_2 
REMARK    2  A    between atoms: C1_1  and  C10_13 
REMARK    3  A    between atoms: C2_2  and  C3_3 
REMARK    4  A    between atoms: C3_3  and  C4_4 
REMARK    5  A    between atoms: C6_6  and  O1_7 
REMARK    6  A    between atoms: C7_8  and  O2_9 
REMARK    7  A    between atoms: C10_13  and  O4_14 
REMARK    8  A    between atoms: C10_13  and  C11_15 
REMARK    9  A    between atoms: C11_15  and  O5_16 
REMARK   10  A    between atoms: C11_15  and  C12_17 
REMARK   11  A    between atoms: C12_17  and  O6_18 
ROOT
HETATM    1  C1  UNL     1      19.553  -2.693  28.911  1.00  0.00     0.158 C 
HETATM    2  O3  UNL     1      18.765  -2.159  29.698  1.00  0.00    -0.295 OA
ENDROOT
BRANCH   1   3
HETATM    3  C2  UNL     1      20.958  -3.059  29.354  1.00  0.00     0.086 C 
BRANCH   3   4
HETATM    4  C3  UNL     1      21.245  -4.557  29.305  1.00  0.00     0.046 C 
BRANCH   4   5
HETATM    5  C4  UNL     1      21.807  -5.112  30.593  1.00  0.00    -0.055 A 
HETATM    6  C5  UNL     1      21.740  -4.369  31.783  1.00  0.00     0.046 A 
HETATM    7  C6  UNL     1      22.275  -4.897  32.954  1.00  0.00     0.099 A 
HETATM    8  C7  UNL     1      22.868  -6.156  32.954  1.00  0.00     0.098 A 
HETATM    9  C8  UNL     1      22.939  -6.904  31.791  1.00  0.00     0.040 A 
HETATM   10  C9  UNL     1      22.407  -6.384  30.610  1.00  0.00     0.010 A 
BRANCH   7  11
HETATM   11  O1  UNL     1      22.241  -4.211  34.137  1.00  0.00    -0.358 OA
HETATM   12  H   UNL     1      21.428  -3.876  34.461  1.00  0.00     0.217 HD
ENDBRANCH   7  11
BRANCH   8  13
HETATM   13  O2  UNL     1      23.390  -6.664  34.109  1.00  0.00    -0.358 OA
HETATM   14  H   UNL     1      22.824  -7.043  34.752  1.00  0.00     0.217 HD
ENDBRANCH   8  13
ENDBRANCH   4   5
ENDBRANCH   3   4
ENDBRANCH   1   3
BRANCH   1  15
HETATM   15  C10 UNL     1      19.137  -3.057  27.484  1.00  0.00     0.218 C 
BRANCH  15  16
HETATM   16  O4  UNL     1      17.876  -3.725  27.547  1.00  0.00    -0.385 OA
HETATM   17  H   UNL     1      17.452  -3.699  26.675  1.00  0.00     0.210 HD
ENDBRANCH  15  16
BRANCH  15  18
HETATM   18  C11 UNL     1      19.065  -1.805  26.585  1.00  0.00     0.177 C 
BRANCH  18  19
HETATM   19  O5  UNL     1      18.884  -0.612  27.364  1.00  0.00    -0.390 OA
HETATM   20  H   UNL     1      19.172   0.158  26.848  1.00  0.00     0.210 HD
ENDBRANCH  18  19
BRANCH  18  21
HETATM   21  C12 UNL     1      20.362  -1.615  25.788  1.00  0.00     0.198 C 
BRANCH  21  22
HETATM   22  O6  UNL     1      20.108  -0.808  24.636  1.00  0.00    -0.398 OA
HETATM   23  H   UNL     1      19.319  -1.138  24.178  1.00  0.00     0.209 HD
ENDBRANCH  21  22
ENDBRANCH  18  21
ENDBRANCH  15  18
ENDBRANCH   1  15
TORSDOF 11
ENDMDL
MODEL 5
REMARK VINA RESULT:      -7.1      1.370      1.747
REMARK  11 active torsions:
REMARK  status: ('A' for Active; 'I' for Inactive)
REMARK    1  A    between atoms: C1_1  and  C2_2 
REMARK    2  A    between atoms: C1_1  and  C10_13 
REMARK    3  A    between atoms: C2_2  and  C3_3 
REMARK    4  A    between atoms: C3_3  and  C4_4 
REMARK    5  A    between atoms: C6_6  and  O1_7 
REMARK    6  A    between atoms: C7_8  and  O2_9 
REMARK    7  A    between atoms: C10_13  and  O4_14 
REMARK    8  A    between atoms: C10_13  and  C11_15 
REMARK    9  A    between atoms: C11_15  and  O5_16 
REMARK   10  A    between atoms: C11_15  and  C12_17 
REMARK   11  A    between atoms: C12_17  and  O6_18 
ROOT
HETATM    1  C1  UNL     1      20.531  -4.299  28.219  1.00  0.00     0.158 C 
HETATM    2  O3  UNL     1      21.741  -4.316  27.977  1.00  0.00    -0.295 OA
ENDROOT
BRANCH   1   3
HETATM    3  C2  UNL     1      20.000  -4.825  29.541  1.00  0.00     0.086 C 
BRANCH   3   4
HETATM    4  C3  UNL     1      21.097  -5.225  30.525  1.00  0.00     0.046 C 
BRANCH   4   5
HETATM    5  C4  UNL     1      21.400  -4.168  31.561  1.00  0.00    -0.055 A 
HETATM    6  C5  UNL     1      21.335  -2.804  31.233  1.00  0.00     0.046 A 
HETATM    7  C6  UNL     1      21.629  -1.849  32.201  1.00  0.00     0.099 A 
HETATM    8  C7  UNL     1      21.980  -2.237  33.490  1.00  0.00     0.098 A 
HETATM    9  C8  UNL     1      22.044  -3.577  33.833  1.00  0.00     0.040 A 
HETATM   10  C9  UNL     1      21.752  -4.543  32.869  1.00  0.00     0.010 A 
BRANCH   7  11
HETATM   11  O1  UNL     1      21.586  -0.509  31.931  1.00  0.00    -0.358 OA
HETATM   12  H   UNL     1      21.089  -0.194  31.201  1.00  0.00     0.217 HD
ENDBRANCH   7  11
BRANCH   8  13
HETATM   13  O2  UNL     1      22.267  -1.292  34.433  1.00  0.00    -0.358 OA
HETATM   14  H   UNL     1      23.031  -1.380  34.968  1.00  0.00     0.217 HD
ENDBRANCH   8  13
ENDBRANCH   4   5
ENDBRANCH   3   4
ENDBRANCH   1   3
BRANCH   1  15
HETATM   15  C10 UNL     1      19.525  -3.702  27.233  1.00  0.00     0.218 C 
BRANCH  15  16
HETATM   16  O4  UNL     1      18.232  -4.216  27.553  1.00  0.00    -0.385 OA
HETATM   17  H   UNL     1      17.643  -3.484  27.793  1.00  0.00     0.210 HD
ENDBRANCH  15  16
BRANCH  15  18
HETATM   18  C11 UNL     1      19.543  -2.160  27.279  1.00  0.00     0.177 C 
BRANCH  18  19
HETATM   19  O5  UNL     1      20.851  -1.662  27.606  1.00  0.00    -0.390 OA
HETATM   20  H   UNL     1      20.779  -0.749  27.925  1.00  0.00     0.210 HD
ENDBRANCH  18  19
BRANCH  18  21
HETATM   21  C12 UNL     1      19.172  -1.556  25.918  1.00  0.00     0.198 C 
BRANCH  21  22
HETATM   22  O6  UNL     1      17.751  -1.546  25.765  1.00  0.00    -0.398 OA
HETATM   23  H   UNL     1      17.412  -0.655  25.947  1.00  0.00     0.209 HD
ENDBRANCH  21  22
ENDBRANCH  18  21
ENDBRANCH  15  18
ENDBRANCH   1  15
TORSDOF 11
ENDMDL
MODEL 6
REMARK VINA RESULT:      -7.1      1.929      2.461
REMARK  11 active torsions:
REMARK  status: ('A' for Active; 'I' for Inactive)
REMARK    1  A    between atoms: C1_1  and  C2_2 
REMARK    2  A    between atoms: C1_1  and  C10_13 
REMARK    3  A    between atoms: C2_2  and  C3_3 
REMARK    4  A    between atoms: C3_3  and  C4_4 
REMARK    5  A    between atoms: C6_6  and  O1_7 
REMARK    6  A    between atoms: C7_8  and  O2_9 
REMARK    7  A    between atoms: C10_13  and  O4_14 
REMARK    8  A    between atoms: C10_13  and  C11_15 
REMARK    9  A    between atoms: C11_15  and  O5_16 
REMARK   10  A    between atoms: C11_15  and  C12_17 
REMARK   11  A    between atoms: C12_17  and  O6_18 
ROOT
HETATM    1  C1  UNL     1      19.484  -2.765  28.794  1.00  0.00     0.158 C 
HETATM    2  O3  UNL     1      18.661  -2.362  29.621  1.00  0.00    -0.295 OA
ENDROOT
BRANCH   1   3
HETATM    3  C2  UNL     1      20.921  -3.038  29.203  1.00  0.00     0.086 C 
BRANCH   3   4
HETATM    4  C3  UNL     1      21.239  -2.616  30.636  1.00  0.00     0.046 C 
BRANCH   4   5
HETATM    5  C4  UNL     1      21.705  -3.753  31.515  1.00  0.00    -0.055 A 
HETATM    6  C5  UNL     1      22.069  -4.989  30.956  1.00  0.00     0.046 A 
HETATM    7  C6  UNL     1      22.484  -6.024  31.788  1.00  0.00     0.099 A 
HETATM    8  C7  UNL     1      22.547  -5.839  33.166  1.00  0.00     0.098 A 
HETATM    9  C8  UNL     1      22.197  -4.626  33.734  1.00  0.00     0.040 A 
HETATM   10  C9  UNL     1      21.778  -3.581  32.909  1.00  0.00     0.010 A 
BRANCH   7  11
HETATM   11  O1  UNL     1      22.843  -7.248  31.294  1.00  0.00    -0.358 OA
HETATM   12  H   UNL     1      23.049  -7.948  31.882  1.00  0.00     0.217 HD
ENDBRANCH   7  11
BRANCH   8  13
HETATM   13  O2  UNL     1      22.956  -6.862  33.973  1.00  0.00    -0.358 OA
HETATM   14  H   UNL     1      23.834  -7.184  33.913  1.00  0.00     0.217 HD
ENDBRANCH   8  13
ENDBRANCH   4   5
ENDBRANCH   3   4
ENDBRANCH   1   3
BRANCH   1  15
HETATM   15  C10 UNL     1      19.087  -3.057  27.345  1.00  0.00     0.218 C 
BRANCH  15  16
HETATM   16  O4  UNL     1      17.818  -3.713  27.358  1.00  0.00    -0.385 OA
HETATM   17  H   UNL     1      17.300  -3.400  28.115  1.00  0.00     0.210 HD
ENDBRANCH  15  16
BRANCH  15  18
HETATM   18  C11 UNL     1      19.042  -1.764  26.505  1.00  0.00     0.177 C 
BRANCH  18  19
HETATM   19  O5  UNL     1      18.831  -0.609  27.334  1.00  0.00    -0.390 OA
HETATM   20  H   UNL     1      18.836   0.189  26.783  1.00  0.00     0.210 HD
ENDBRANCH  18  19
BRANCH  18  21
HETATM   21  C12 UNL     1      20.365  -1.534  25.763  1.00  0.00     0.198 C 
BRANCH  21  22
HETATM   22  O6  UNL     1      20.142  -0.704  24.621  1.00  0.00    -0.398 OA
HETATM   23  H   UNL     1      20.970  -0.262  24.375  1.00  0.00     0.209 HD
ENDBRANCH  21  22
ENDBRANCH  18  21
ENDBRANCH  15  18
ENDBRANCH   1  15
TORSDOF 11
ENDMDL
MODEL 7
REMARK VINA RESULT:      -7.0      1.391      2.203
REMARK  11 active torsions:
REMARK  status: ('A' for Active; 'I' for Inactive)
REMARK    1  A    between atoms: C1_1  and  C2_2 
REMARK    2  A    between atoms: C1_1  and  C10_13 
REMARK    3  A    between atoms: C2_2  and  C3_3 
REMARK    4  A    between atoms: C3_3  and  C4_4 
REMARK    5  A    between atoms: C6_6  and  O1_7 
REMARK    6  A    between atoms: C7_8  and  O2_9 
REMARK    7  A    between atoms: C10_13  and  O4_14 
REMARK    8  A    between atoms: C10_13  and  C11_15 
REMARK    9  A    between atoms: C11_15  and  O5_16 
REMARK   10  A    between atoms: C11_15  and  C12_17 
REMARK   11  A    between atoms: C12_17  and  O6_18 
ROOT
HETATM    1  C1  UNL     1      20.542  -3.830  27.833  1.00  0.00     0.158 C 
HETATM    2  O3  UNL     1      21.095  -4.934  27.824  1.00  0.00    -0.295 OA
ENDROOT
BRANCH   1   3
HETATM    3  C2  UNL     1      20.866  -2.812  28.912  1.00  0.00     0.086 C 
BRANCH   3   4
HETATM    4  C3  UNL     1      19.966  -2.913  30.140  1.00  0.00     0.046 C 
BRANCH   4   5
HETATM    5  C4  UNL     1      20.721  -2.924  31.448  1.00  0.00    -0.055 A 
HETATM    6  C5  UNL     1      21.318  -4.104  31.922  1.00  0.00     0.046 A 
HETATM    7  C6  UNL     1      21.999  -4.091  33.135  1.00  0.00     0.099 A 
HETATM    8  C7  UNL     1      22.097  -2.918  33.876  1.00  0.00     0.098 A 
HETATM    9  C8  UNL     1      21.520  -1.743  33.423  1.00  0.00     0.040 A 
HETATM   10  C9  UNL     1      20.833  -1.746  32.208  1.00  0.00     0.010 A 
BRANCH   7  11
HETATM   11  O1  UNL     1      22.591  -5.215  33.643  1.00  0.00    -0.358 OA
HETATM   12  H   UNL     1      22.949  -5.858  33.063  1.00  0.00     0.217 HD
ENDBRANCH   7  11
BRANCH   8  13
HETATM   13  O2  UNL     1      22.768  -2.916  35.066  1.00  0.00    -0.358 OA
HETATM   14  H   UNL     1      23.291  -2.178  35.308  1.00  0.00     0.217 HD
ENDBRANCH   8  13
ENDBRANCH   4   5
ENDBRANCH   3   4
ENDBRANCH   1   3
BRANCH   1  15
HETATM   15  C10 UNL     1      19.554  -3.421  26.738  1.00  0.00     0.218 C 
BRANCH  15  16
HETATM   16  O4  UNL     1      18.231  -3.609  27.241  1.00  0.00    -0.385 OA
HETATM   17  H   UNL     1      17.641  -2.941  26.858  1.00  0.00     0.210 HD
ENDBRANCH  15  16
BRANCH  15  18
HETATM   18  C11 UNL     1      19.784  -1.961  26.295  1.00  0.00     0.177 C 
BRANCH  18  19
HETATM   19  O5  UNL     1      19.926  -1.863  24.869  1.00  0.00    -0.390 OA
HETATM   20  H   UNL     1      20.088  -2.745  24.499  1.00  0.00     0.210 HD
ENDBRANCH  18  19
BRANCH  18  21
HETATM   21  C12 UNL     1      18.598  -1.067  26.680  1.00  0.00     0.198 C 
BRANCH  21  22
HETATM   22  O6  UNL     1      17.518  -1.277  25.768  1.00  0.00    -0.398 OA
HETATM   23  H   UNL     1      16.988  -2.034  26.064  1.00  0.00     0.209 HD
ENDBRANCH  21  22
ENDBRANCH  18  21
ENDBRANCH  15  18
ENDBRANCH   1  15
TORSDOF 11
ENDMDL
MODEL 8
REMARK VINA RESULT:      -7.0      1.428      7.158
REMARK  11 active torsions:
REMARK  status: ('A' for Active; 'I' for Inactive)
REMARK    1  A    between atoms: C1_1  and  C2_2 
REMARK    2  A    between atoms: C1_1  and  C10_13 
REMARK    3  A    between atoms: C2_2  and  C3_3 
REMARK    4  A    between atoms: C3_3  and  C4_4 
REMARK    5  A    between atoms: C6_6  and  O1_7 
REMARK    6  A    between atoms: C7_8  and  O2_9 
REMARK    7  A    between atoms: C10_13  and  O4_14 
REMARK    8  A    between atoms: C10_13  and  C11_15 
REMARK    9  A    between atoms: C11_15  and  O5_16 
REMARK   10  A    between atoms: C11_15  and  C12_17 
REMARK   11  A    between atoms: C12_17  and  O6_18 
ROOT
HETATM    1  C1  UNL     1      21.291  -3.189  31.782  1.00  0.00     0.158 C 
HETATM    2  O3  UNL     1      21.548  -4.387  31.932  1.00  0.00    -0.295 OA
ENDROOT
BRANCH   1   3
HETATM    3  C2  UNL     1      20.213  -2.745  30.809  1.00  0.00     0.086 C 
BRANCH   3   4
HETATM    4  C3  UNL     1      20.073  -3.658  29.593  1.00  0.00     0.046 C 
BRANCH   4   5
HETATM    5  C4  UNL     1      20.076  -2.919  28.275  1.00  0.00    -0.055 A 
HETATM    6  C5  UNL     1      18.970  -2.989  27.411  1.00  0.00     0.046 A 
HETATM    7  C6  UNL     1      19.001  -2.309  26.198  1.00  0.00     0.099 A 
HETATM    8  C7  UNL     1      20.115  -1.556  25.840  1.00  0.00     0.098 A 
HETATM    9  C8  UNL     1      21.212  -1.471  26.681  1.00  0.00     0.040 A 
HETATM   10  C9  UNL     1      21.192  -2.151  27.900  1.00  0.00     0.010 A 
BRANCH   7  11
HETATM   11  O1  UNL     1      17.953  -2.350  25.320  1.00  0.00    -0.358 OA
HETATM   12  H   UNL     1      17.104  -2.614  25.616  1.00  0.00     0.217 HD
ENDBRANCH   7  11
BRANCH   8  13
HETATM   13  O2  UNL     1      20.135  -0.892  24.647  1.00  0.00    -0.358 OA
HETATM   14  H   UNL     1      20.843  -1.026  24.048  1.00  0.00     0.217 HD
ENDBRANCH   8  13
ENDBRANCH   4   5
ENDBRANCH   3   4
ENDBRANCH   1   3
BRANCH   1  15
HETATM   15  C10 UNL     1      22.000  -2.109  32.602  1.00  0.00     0.218 C 
BRANCH  15  16
HETATM   16  O4  UNL     1      21.405  -0.850  32.285  1.00  0.00    -0.385 OA
HETATM   17  H   UNL     1      21.595  -0.626  31.361  1.00  0.00     0.210 HD
ENDBRANCH  15  16
BRANCH  15  18
HETATM   18  C11 UNL     1      21.914  -2.407  34.113  1.00  0.00     0.177 C 
BRANCH  18  19
HETATM   19  O5  UNL     1      22.451  -3.703  34.422  1.00  0.00    -0.390 OA
HETATM   20  H   UNL     1      23.027  -3.637  35.200  1.00  0.00     0.210 HD
ENDBRANCH  18  19
BRANCH  18  21
HETATM   21  C12 UNL     1      22.724  -1.391  34.930  1.00  0.00     0.198 C 
BRANCH  21  22
HETATM   22  O6  UNL     1      23.534  -0.603  34.055  1.00  0.00    -0.398 OA
HETATM   23  H   UNL     1      23.449   0.334  34.293  1.00  0.00     0.209 HD
ENDBRANCH  21  22
ENDBRANCH  18  21
ENDBRANCH  15  18
ENDBRANCH   1  15
TORSDOF 11
ENDMDL
MODEL 9
REMARK VINA RESULT:      -6.9      3.476      6.221
REMARK  11 active torsions:
REMARK  status: ('A' for Active; 'I' for Inactive)
REMARK    1  A    between atoms: C1_1  and  C2_2 
REMARK    2  A    between atoms: C1_1  and  C10_13 
REMARK    3  A    between atoms: C2_2  and  C3_3 
REMARK    4  A    between atoms: C3_3  and  C4_4 
REMARK    5  A    between atoms: C6_6  and  O1_7 
REMARK    6  A    between atoms: C7_8  and  O2_9 
REMARK    7  A    between atoms: C10_13  and  O4_14 
REMARK    8  A    between atoms: C10_13  and  C11_15 
REMARK    9  A    between atoms: C11_15  and  O5_16 
REMARK   10  A    between atoms: C11_15  and  C12_17 
REMARK   11  A    between atoms: C12_17  and  O6_18 
ROOT
HETATM    1  C1  UNL     1      20.999  -2.696  31.384  1.00  0.00     0.158 C 
HETATM    2  O3  UNL     1      19.917  -2.246  30.994  1.00  0.00    -0.295 OA
ENDROOT
BRANCH   1   3
HETATM    3  C2  UNL     1      21.552  -3.987  30.806  1.00  0.00     0.086 C 
BRANCH   3   4
HETATM    4  C3  UNL     1      21.000  -5.243  31.477  1.00  0.00     0.046 C 
BRANCH   4   5
HETATM    5  C4  UNL     1      22.067  -6.228  31.895  1.00  0.00    -0.055 A 
HETATM    6  C5  UNL     1      22.346  -6.450  33.253  1.00  0.00     0.046 A 
HETATM    7  C6  UNL     1      23.341  -7.354  33.612  1.00  0.00     0.099 A 
HETATM    8  C7  UNL     1      24.054  -8.043  32.635  1.00  0.00     0.098 A 
HETATM    9  C8  UNL     1      23.789  -7.840  31.291  1.00  0.00     0.040 A 
HETATM   10  C9  UNL     1      22.794  -6.934  30.920  1.00  0.00     0.010 A 
BRANCH   7  11
HETATM   11  O1  UNL     1      23.655  -7.601  34.920  1.00  0.00    -0.358 OA
HETATM   12  H   UNL     1      23.280  -8.339  35.361  1.00  0.00     0.217 HD
ENDBRANCH   7  11
BRANCH   8  13
HETATM   13  O2  UNL     1      25.028  -8.928  32.998  1.00  0.00    -0.358 OA
HETATM   14  H   UNL     1      25.015  -9.802  32.662  1.00  0.00     0.217 HD
ENDBRANCH   8  13
ENDBRANCH   4   5
ENDBRANCH   3   4
ENDBRANCH   1   3
BRANCH   1  15
HETATM   15  C10 UNL     1      21.851  -1.952  32.415  1.00  0.00     0.218 C 
BRANCH  15  16
HETATM   16  O4  UNL     1      21.620  -0.552  32.254  1.00  0.00    -0.385 OA
HETATM   17  H   UNL     1      20.816  -0.416  31.728  1.00  0.00     0.210 HD
ENDBRANCH  15  16
BRANCH  15  18
HETATM   18  C11 UNL     1      21.524  -2.415  33.850  1.00  0.00     0.177 C 
BRANCH  18  19
HETATM   19  O5  UNL     1      22.390  -3.483  34.265  1.00  0.00    -0.390 OA
HETATM   20  H   UNL     1      22.027  -4.330  33.961  1.00  0.00     0.210 HD
ENDBRANCH  18  19
BRANCH  18  21
HETATM   21  C12 UNL     1      21.715  -1.278  34.861  1.00  0.00     0.198 C 
BRANCH  21  22
HETATM   22  O6  UNL     1      23.075  -0.839  34.844  1.00  0.00    -0.398 OA
HETATM   23  H   UNL     1      23.663  -1.610  34.825  1.00  0.00     0.209 HD
ENDBRANCH  21  22
ENDBRANCH  18  21
ENDBRANCH  15  18
ENDBRANCH   1  15
TORSDOF 11
ENDMDL
