MODEL 1
REMARK VINA RESULT:      -7.2      0.000      0.000
REMARK  11 active torsions:
REMARK  status: ('A' for Active; 'I' for Inactive)
REMARK    1  A    between atoms: C1_1  and  C2_2 
REMARK    2  A    between atoms: C1_1  and  C10_13 
REMARK    3  A    between atoms: C2_2  and  C3_3 
REMARK    4  A    between atoms: C3_3  and  C4_4 
REMARK    5  A    between atoms: C6_6  and  O1_7 
REMARK    6  A    between atoms: C7_8  and  O2_9 
REMARK    7  A    between atoms: C10_13  and  O4_14 
REMARK    8  A    between atoms: C10_13  and  C11_15 
REMARK    9  A    between atoms: C11_15  and  O5_16 
REMARK   10  A    between atoms: C11_15  and  C12_17 
REMARK   11  A    between atoms: C12_17  and  O6_18 
ROOT
HETATM    1  C1  UNL     1      14.566   6.148  10.275  1.00  0.00     0.158 C 
HETATM    2  O3  UNL     1      15.301   6.088   9.285  1.00  0.00    -0.295 OA
ENDROOT
BRANCH   1   3
HETATM    3  C2  UNL     1      15.055   6.788  11.562  1.00  0.00     0.086 C 
BRANCH   3   4
HETATM    4  C3  UNL     1      15.356   5.782  12.670  1.00  0.00     0.046 C 
BRANCH   4   5
HETATM    5  C4  UNL     1      14.575   6.024  13.940  1.00  0.00    -0.055 A 
HETATM    6  C5  UNL     1      13.170   6.061  13.923  1.00  0.00     0.046 A 
HETATM    7  C6  UNL     1      12.474   6.296  15.104  1.00  0.00     0.099 A 
HETATM    8  C7  UNL     1      13.158   6.488  16.300  1.00  0.00     0.098 A 
HETATM    9  C8  UNL     1      14.542   6.450  16.338  1.00  0.00     0.040 A 
HETATM   10  C9  UNL     1      15.251   6.216  15.158  1.00  0.00     0.010 A 
BRANCH   7  11
HETATM   11  O1  UNL     1      11.107   6.347  15.138  1.00  0.00    -0.358 OA
HETATM   12  H   UNL     1      10.617   6.326  14.340  1.00  0.00     0.217 HD
ENDBRANCH   7  11
BRANCH   8  13
HETATM   13  O2  UNL     1      12.464   6.718  17.453  1.00  0.00    -0.358 OA
HETATM   14  H   UNL     1      11.720   6.190  17.666  1.00  0.00     0.217 HD
ENDBRANCH   8  13
ENDBRANCH   4   5
ENDBRANCH   3   4
ENDBRANCH   1   3
BRANCH   1  15
HETATM   15  C10 UNL     1      13.124   5.636  10.235  1.00  0.00     0.218 C 
BRANCH  15  16
HETATM   16  O4  UNL     1      12.256   6.732  10.524  1.00  0.00    -0.385 OA
HETATM   17  H   UNL     1      12.775   7.551  10.574  1.00  0.00     0.210 HD
ENDBRANCH  15  16
BRANCH  15  18
HETATM   18  C11 UNL     1      12.793   5.003   8.868  1.00  0.00     0.177 C 
BRANCH  18  19
HETATM   19  O5  UNL     1      11.738   4.035   8.981  1.00  0.00    -0.390 OA
HETATM   20  H   UNL     1      11.182   4.069   8.188  1.00  0.00     0.210 HD
ENDBRANCH  18  19
BRANCH  18  21
HETATM   21  C12 UNL     1      12.313   6.059   7.865  1.00  0.00     0.198 C 
BRANCH  21  22
HETATM   22  O6  UNL     1      13.375   6.397   6.971  1.00  0.00    -0.398 OA
HETATM   23  H   UNL     1      13.418   7.361   6.868  1.00  0.00     0.209 HD
ENDBRANCH  21  22
ENDBRANCH  18  21
ENDBRANCH  15  18
ENDBRANCH   1  15
TORSDOF 11
ENDMDL
MODEL 2
REMARK VINA RESULT:      -7.0      1.113      1.818
REMARK  11 active torsions:
REMARK  status: ('A' for Active; 'I' for Inactive)
REMARK    1  A    between atoms: C1_1  and  C2_2 
REMARK    2  A    between atoms: C1_1  and  C10_13 
REMARK    3  A    between atoms: C2_2  and  C3_3 
REMARK    4  A    between atoms: C3_3  and  C4_4 
REMARK    5  A    between atoms: C6_6  and  O1_7 
REMARK    6  A    between atoms: C7_8  and  O2_9 
REMARK    7  A    between atoms: C10_13  and  O4_14 
REMARK    8  A    between atoms: C10_13  and  C11_15 
REMARK    9  A    between atoms: C11_15  and  O5_16 
REMARK   10  A    between atoms: C11_15  and  C12_17 
REMARK   11  A    between atoms: C12_17  and  O6_18 
ROOT
HETATM    1  C1  UNL     1      15.094   6.243   9.988  1.00  0.00     0.158 C 
HETATM    2  O3  UNL     1      16.164   5.738   9.633  1.00  0.00    -0.295 OA
ENDROOT
BRANCH   1   3
HETATM    3  C2  UNL     1      14.966   6.907  11.347  1.00  0.00     0.086 C 
BRANCH   3   4
HETATM    4  C3  UNL     1      15.271   5.973  12.516  1.00  0.00     0.046 C 
BRANCH   4   5
HETATM    5  C4  UNL     1      14.393   6.203  13.723  1.00  0.00    -0.055 A 
HETATM    6  C5  UNL     1      13.003   6.346  13.582  1.00  0.00     0.046 A 
HETATM    7  C6  UNL     1      12.216   6.567  14.708  1.00  0.00     0.099 A 
HETATM    8  C7  UNL     1      12.797   6.640  15.970  1.00  0.00     0.098 A 
HETATM    9  C8  UNL     1      14.165   6.496  16.130  1.00  0.00     0.040 A 
HETATM   10  C9  UNL     1      14.963   6.275  15.006  1.00  0.00     0.010 A 
BRANCH   7  11
HETATM   11  O1  UNL     1      10.860   6.720  14.623  1.00  0.00    -0.358 OA
HETATM   12  H   UNL     1      10.475   7.567  14.740  1.00  0.00     0.217 HD
ENDBRANCH   7  11
BRANCH   8  13
HETATM   13  O2  UNL     1      12.015   6.858  17.069  1.00  0.00    -0.358 OA
HETATM   14  H   UNL     1      11.087   6.942  16.974  1.00  0.00     0.217 HD
ENDBRANCH   8  13
ENDBRANCH   4   5
ENDBRANCH   3   4
ENDBRANCH   1   3
BRANCH   1  15
HETATM   15  C10 UNL     1      13.876   6.272   9.061  1.00  0.00     0.218 C 
BRANCH  15  16
HETATM   16  O4  UNL     1      13.963   5.152   8.180  1.00  0.00    -0.385 OA
HETATM   17  H   UNL     1      14.003   5.465   7.263  1.00  0.00     0.210 HD
ENDBRANCH  15  16
BRANCH  15  18
HETATM   18  C11 UNL     1      12.560   6.252   9.867  1.00  0.00     0.177 C 
BRANCH  18  19
HETATM   19  O5  UNL     1      11.476   6.816   9.111  1.00  0.00    -0.390 OA
HETATM   20  H   UNL     1      10.961   7.409   9.679  1.00  0.00     0.210 HD
ENDBRANCH  18  19
BRANCH  18  21
HETATM   21  C12 UNL     1      12.146   4.819  10.225  1.00  0.00     0.198 C 
BRANCH  21  22
HETATM   22  O6  UNL     1      11.034   4.847  11.122  1.00  0.00    -0.398 OA
HETATM   23  H   UNL     1      11.349   5.024  12.022  1.00  0.00     0.209 HD
ENDBRANCH  21  22
ENDBRANCH  18  21
ENDBRANCH  15  18
ENDBRANCH   1  15
TORSDOF 11
ENDMDL
MODEL 3
REMARK VINA RESULT:      -7.0      2.263      4.825
REMARK  11 active torsions:
REMARK  status: ('A' for Active; 'I' for Inactive)
REMARK    1  A    between atoms: C1_1  and  C2_2 
REMARK    2  A    between atoms: C1_1  and  C10_13 
REMARK    3  A    between atoms: C2_2  and  C3_3 
REMARK    4  A    between atoms: C3_3  and  C4_4 
REMARK    5  A    between atoms: C6_6  and  O1_7 
REMARK    6  A    between atoms: C7_8  and  O2_9 
REMARK    7  A    between atoms: C10_13  and  O4_14 
REMARK    8  A    between atoms: C10_13  and  C11_15 
REMARK    9  A    between atoms: C11_15  and  O5_16 
REMARK   10  A    between atoms: C11_15  and  C12_17 
REMARK   11  A    between atoms: C12_17  and  O6_18 
ROOT
HETATM    1  C1  UNL     1      12.604   5.865  12.026  1.00  0.00     0.158 C 
HETATM    2  O3  UNL     1      11.768   6.663  12.461  1.00  0.00    -0.295 OA
ENDROOT
BRANCH   1   3
HETATM    3  C2  UNL     1      13.754   5.397  12.901  1.00  0.00     0.086 C 
BRANCH   3   4
HETATM    4  C3  UNL     1      14.820   6.465  13.133  1.00  0.00     0.046 C 
BRANCH   4   5
HETATM    5  C4  UNL     1      15.977   6.389  12.165  1.00  0.00    -0.055 A 
HETATM    6  C5  UNL     1      16.025   7.226  11.038  1.00  0.00     0.046 A 
HETATM    7  C6  UNL     1      17.096   7.130  10.155  1.00  0.00     0.099 A 
HETATM    8  C7  UNL     1      18.120   6.217  10.385  1.00  0.00     0.098 A 
HETATM    9  C8  UNL     1      18.093   5.387  11.494  1.00  0.00     0.040 A 
HETATM   10  C9  UNL     1      17.022   5.475  12.385  1.00  0.00     0.010 A 
BRANCH   7  11
HETATM   11  O1  UNL     1      17.186   7.917   9.040  1.00  0.00    -0.358 OA
HETATM   12  H   UNL     1      16.407   8.197   8.599  1.00  0.00     0.217 HD
ENDBRANCH   7  11
BRANCH   8  13
HETATM   13  O2  UNL     1      19.166   6.131   9.512  1.00  0.00    -0.358 OA
HETATM   14  H   UNL     1      19.540   6.911   9.150  1.00  0.00     0.217 HD
ENDBRANCH   8  13
ENDBRANCH   4   5
ENDBRANCH   3   4
ENDBRANCH   1   3
BRANCH   1  15
HETATM   15  C10 UNL     1      12.492   5.275  10.619  1.00  0.00     0.218 C 
BRANCH  15  16
HETATM   16  O4  UNL     1      11.129   4.913  10.397  1.00  0.00    -0.385 OA
HETATM   17  H   UNL     1      11.091   4.094   9.880  1.00  0.00     0.210 HD
ENDBRANCH  15  16
BRANCH  15  18
HETATM   18  C11 UNL     1      12.989   6.273   9.552  1.00  0.00     0.177 C 
BRANCH  18  19
HETATM   19  O5  UNL     1      14.061   5.716   8.774  1.00  0.00    -0.390 OA
HETATM   20  H   UNL     1      14.825   6.313   8.802  1.00  0.00     0.210 HD
ENDBRANCH  18  19
BRANCH  18  21
HETATM   21  C12 UNL     1      11.873   6.636   8.564  1.00  0.00     0.198 C 
BRANCH  21  22
HETATM   22  O6  UNL     1      11.807   5.654   7.527  1.00  0.00    -0.398 OA
HETATM   23  H   UNL     1      12.305   5.965   6.755  1.00  0.00     0.209 HD
ENDBRANCH  21  22
ENDBRANCH  18  21
ENDBRANCH  15  18
ENDBRANCH   1  15
TORSDOF 11
ENDMDL
MODEL 4
REMARK VINA RESULT:      -6.8      2.661      4.856
REMARK  11 active torsions:
REMARK  status: ('A' for Active; 'I' for Inactive)
REMARK    1  A    between atoms: C1_1  and  C2_2 
REMARK    2  A    between atoms: C1_1  and  C10_13 
REMARK    3  A    between atoms: C2_2  and  C3_3 
REMARK    4  A    between atoms: C3_3  and  C4_4 
REMARK    5  A    between atoms: C6_6  and  O1_7 
REMARK    6  A    between atoms: C7_8  and  O2_9 
REMARK    7  A    between atoms: C10_13  and  O4_14 
REMARK    8  A    between atoms: C10_13  and  C11_15 
REMARK    9  A    between atoms: C11_15  and  O5_16 
REMARK   10  A    between atoms: C11_15  and  C12_17 
REMARK   11  A    between atoms: C12_17  and  O6_18 
ROOT
HETATM    1  C1  UNL     1      12.803   5.868  11.911  1.00  0.00     0.158 C 
HETATM    2  O3  UNL     1      11.928   6.553  12.449  1.00  0.00    -0.295 OA
ENDROOT
BRANCH   1   3
HETATM    3  C2  UNL     1      14.099   5.561  12.639  1.00  0.00     0.086 C 
BRANCH   3   4
HETATM    4  C3  UNL     1      15.223   6.547  12.330  1.00  0.00     0.046 C 
BRANCH   4   5
HETATM    5  C4  UNL     1      16.593   5.912  12.285  1.00  0.00    -0.055 A 
HETATM    6  C5  UNL     1      17.369   5.963  11.114  1.00  0.00     0.046 A 
HETATM    7  C6  UNL     1      18.623   5.362  11.094  1.00  0.00     0.099 A 
HETATM    8  C7  UNL     1      19.115   4.718  12.225  1.00  0.00     0.098 A 
HETATM    9  C8  UNL     1      18.367   4.662  13.389  1.00  0.00     0.040 A 
HETATM   10  C9  UNL     1      17.107   5.261  13.420  1.00  0.00     0.010 A 
BRANCH   7  11
HETATM   11  O1  UNL     1      19.414   5.379   9.978  1.00  0.00    -0.358 OA
HETATM   12  H   UNL     1      19.022   5.389   9.126  1.00  0.00     0.217 HD
ENDBRANCH   7  11
BRANCH   8  13
HETATM   13  O2  UNL     1      20.348   4.131  12.193  1.00  0.00    -0.358 OA
HETATM   14  H   UNL     1      20.435   3.239  11.922  1.00  0.00     0.217 HD
ENDBRANCH   8  13
ENDBRANCH   4   5
ENDBRANCH   3   4
ENDBRANCH   1   3
BRANCH   1  15
HETATM   15  C10 UNL     1      12.601   5.256  10.523  1.00  0.00     0.218 C 
BRANCH  15  16
HETATM   16  O4  UNL     1      11.204   5.029  10.338  1.00  0.00    -0.385 OA
HETATM   17  H   UNL     1      10.923   4.277  10.883  1.00  0.00     0.210 HD
ENDBRANCH  15  16
BRANCH  15  18
HETATM   18  C11 UNL     1      13.173   6.171   9.420  1.00  0.00     0.177 C 
BRANCH  18  19
HETATM   19  O5  UNL     1      14.538   5.839   9.121  1.00  0.00    -0.390 OA
HETATM   20  H   UNL     1      14.808   5.073   9.651  1.00  0.00     0.210 HD
ENDBRANCH  18  19
BRANCH  18  21
HETATM   21  C12 UNL     1      12.388   6.023   8.110  1.00  0.00     0.198 C 
BRANCH  21  22
HETATM   22  O6  UNL     1      11.301   6.950   8.090  1.00  0.00    -0.398 OA
HETATM   23  H   UNL     1      11.567   7.750   7.610  1.00  0.00     0.209 HD
ENDBRANCH  21  22
ENDBRANCH  18  21
ENDBRANCH  15  18
ENDBRANCH   1  15
TORSDOF 11
ENDMDL
MODEL 5
REMARK VINA RESULT:      -6.8      1.588      5.931
REMARK  11 active torsions:
REMARK  status: ('A' for Active; 'I' for Inactive)
REMARK    1  A    between atoms: C1_1  and  C2_2 
REMARK    2  A    between atoms: C1_1  and  C10_13 
REMARK    3  A    between atoms: C2_2  and  C3_3 
REMARK    4  A    between atoms: C3_3  and  C4_4 
REMARK    5  A    between atoms: C6_6  and  O1_7 
REMARK    6  A    between atoms: C7_8  and  O2_9 
REMARK    7  A    between atoms: C10_13  and  O4_14 
REMARK    8  A    between atoms: C10_13  and  C11_15 
REMARK    9  A    between atoms: C11_15  and  O5_16 
REMARK   10  A    between atoms: C11_15  and  C12_17 
REMARK   11  A    between atoms: C12_17  and  O6_18 
ROOT
HETATM    1  C1  UNL     1      14.909   5.533  14.998  1.00  0.00     0.158 C 
HETATM    2  O3  UNL     1      14.942   4.304  14.874  1.00  0.00    -0.295 OA
ENDROOT
BRANCH   1   3
HETATM    3  C2  UNL     1      15.407   6.435  13.883  1.00  0.00     0.086 C 
BRANCH   3   4
HETATM    4  C3  UNL     1      15.743   5.689  12.595  1.00  0.00     0.046 C 
BRANCH   4   5
HETATM    5  C4  UNL     1      14.651   5.754  11.552  1.00  0.00    -0.055 A 
HETATM    6  C5  UNL     1      13.338   5.364  11.864  1.00  0.00     0.046 A 
HETATM    7  C6  UNL     1      12.353   5.423  10.883  1.00  0.00     0.099 A 
HETATM    8  C7  UNL     1      12.658   5.871   9.602  1.00  0.00     0.098 A 
HETATM    9  C8  UNL     1      13.946   6.264   9.278  1.00  0.00     0.040 A 
HETATM   10  C9  UNL     1      14.943   6.208  10.254  1.00  0.00     0.010 A 
BRANCH   7  11
HETATM   11  O1  UNL     1      11.061   5.048  11.134  1.00  0.00    -0.358 OA
HETATM   12  H   UNL     1      10.735   5.050  12.013  1.00  0.00     0.217 HD
ENDBRANCH   7  11
BRANCH   8  13
HETATM   13  O2  UNL     1      11.683   5.924   8.648  1.00  0.00    -0.358 OA
HETATM   14  H   UNL     1      10.782   5.974   8.900  1.00  0.00     0.217 HD
ENDBRANCH   8  13
ENDBRANCH   4   5
ENDBRANCH   3   4
ENDBRANCH   1   3
BRANCH   1  15
HETATM   15  C10 UNL     1      14.318   6.196  16.244  1.00  0.00     0.218 C 
BRANCH  15  16
HETATM   16  O4  UNL     1      14.915   7.485  16.384  1.00  0.00    -0.385 OA
HETATM   17  H   UNL     1      15.342   7.551  17.253  1.00  0.00     0.210 HD
ENDBRANCH  15  16
BRANCH  15  18
HETATM   18  C11 UNL     1      12.781   6.296  16.150  1.00  0.00     0.177 C 
BRANCH  18  19
HETATM   19  O5  UNL     1      12.225   6.921  17.317  1.00  0.00    -0.390 OA
HETATM   20  H   UNL     1      11.371   6.512  17.527  1.00  0.00     0.210 HD
ENDBRANCH  18  19
BRANCH  18  21
HETATM   21  C12 UNL     1      12.349   7.147  14.949  1.00  0.00     0.198 C 
BRANCH  21  22
HETATM   22  O6  UNL     1      11.124   6.642  14.413  1.00  0.00    -0.398 OA
HETATM   23  H   UNL     1      10.436   7.322  14.484  1.00  0.00     0.209 HD
ENDBRANCH  21  22
ENDBRANCH  18  21
ENDBRANCH  15  18
ENDBRANCH   1  15
TORSDOF 11
ENDMDL
MODEL 6
REMARK VINA RESULT:      -6.8      2.489      6.203
REMARK  11 active torsions:
REMARK  status: ('A' for Active; 'I' for Inactive)
REMARK    1  A    between atoms: C1_1  and  C2_2 
REMARK    2  A    between atoms: C1_1  and  C10_13 
REMARK    3  A    between atoms: C2_2  and  C3_3 
REMARK    4  A    between atoms: C3_3  and  C4_4 
REMARK    5  A    between atoms: C6_6  and  O1_7 
REMARK    6  A    between atoms: C7_8  and  O2_9 
REMARK    7  A    between atoms: C10_13  and  O4_14 
REMARK    8  A    between atoms: C10_13  and  C11_15 
REMARK    9  A    between atoms: C11_15  and  O5_16 
REMARK   10  A    between atoms: C11_15  and  C12_17 
REMARK   11  A    between atoms: C12_17  and  O6_18 
ROOT
HETATM    1  C1  UNL     1      12.758   5.428  12.753  1.00  0.00     0.158 C 
HETATM    2  O3  UNL     1      12.244   4.312  12.631  1.00  0.00    -0.295 OA
ENDROOT
BRANCH   1   3
HETATM    3  C2  UNL     1      13.561   6.036  11.616  1.00  0.00     0.086 C 
BRANCH   3   4
HETATM    4  C3  UNL     1      14.708   6.928  12.085  1.00  0.00     0.046 C 
BRANCH   4   5
HETATM    5  C4  UNL     1      16.077   6.345  11.825  1.00  0.00    -0.055 A 
HETATM    6  C5  UNL     1      16.640   6.382  10.538  1.00  0.00     0.046 A 
HETATM    7  C6  UNL     1      17.898   5.829  10.322  1.00  0.00     0.099 A 
HETATM    8  C7  UNL     1      18.602   5.247  11.371  1.00  0.00     0.098 A 
HETATM    9  C8  UNL     1      18.066   5.206  12.647  1.00  0.00     0.040 A 
HETATM   10  C9  UNL     1      16.804   5.757  12.875  1.00  0.00     0.010 A 
BRANCH   7  11
HETATM   11  O1  UNL     1      18.486   5.833   9.087  1.00  0.00    -0.358 OA
HETATM   12  H   UNL     1      17.989   6.084   8.332  1.00  0.00     0.217 HD
ENDBRANCH   7  11
BRANCH   8  13
HETATM   13  O2  UNL     1      19.836   4.707  11.147  1.00  0.00    -0.358 OA
HETATM   14  H   UNL     1      19.914   3.883  10.706  1.00  0.00     0.217 HD
ENDBRANCH   8  13
ENDBRANCH   4   5
ENDBRANCH   3   4
ENDBRANCH   1   3
BRANCH   1  15
HETATM   15  C10 UNL     1      12.567   6.265  14.019  1.00  0.00     0.218 C 
BRANCH  15  16
HETATM   16  O4  UNL     1      11.200   6.672  14.079  1.00  0.00    -0.385 OA
HETATM   17  H   UNL     1      10.953   6.841  15.002  1.00  0.00     0.210 HD
ENDBRANCH  15  16
BRANCH  15  18
HETATM   18  C11 UNL     1      12.973   5.473  15.280  1.00  0.00     0.177 C 
BRANCH  18  19
HETATM   19  O5  UNL     1      14.171   4.712  15.056  1.00  0.00    -0.390 OA
HETATM   20  H   UNL     1      14.091   3.849  15.490  1.00  0.00     0.210 HD
ENDBRANCH  18  19
BRANCH  18  21
HETATM   21  C12 UNL     1      13.264   6.411  16.459  1.00  0.00     0.198 C 
BRANCH  21  22
HETATM   22  O6  UNL     1      12.037   6.921  16.985  1.00  0.00    -0.398 OA
HETATM   23  H   UNL     1      12.085   6.944  17.954  1.00  0.00     0.209 HD
ENDBRANCH  21  22
ENDBRANCH  18  21
ENDBRANCH  15  18
ENDBRANCH   1  15
TORSDOF 11
ENDMDL
MODEL 7
REMARK VINA RESULT:      -6.7      1.130      1.837
REMARK  11 active torsions:
REMARK  status: ('A' for Active; 'I' for Inactive)
REMARK    1  A    between atoms: C1_1  and  C2_2 
REMARK    2  A    between atoms: C1_1  and  C10_13 
REMARK    3  A    between atoms: C2_2  and  C3_3 
REMARK    4  A    between atoms: C3_3  and  C4_4 
REMARK    5  A    between atoms: C6_6  and  O1_7 
REMARK    6  A    between atoms: C7_8  and  O2_9 
REMARK    7  A    between atoms: C10_13  and  O4_14 
REMARK    8  A    between atoms: C10_13  and  C11_15 
REMARK    9  A    between atoms: C11_15  and  O5_16 
REMARK   10  A    between atoms: C11_15  and  C12_17 
REMARK   11  A    between atoms: C12_17  and  O6_18 
ROOT
HETATM    1  C1  UNL     1      12.988   6.118  10.511  1.00  0.00     0.158 C 
HETATM    2  O3  UNL     1      11.781   6.315  10.679  1.00  0.00    -0.295 OA
ENDROOT
BRANCH   1   3
HETATM    3  C2  UNL     1      13.887   5.783  11.688  1.00  0.00     0.086 C 
BRANCH   3   4
HETATM    4  C3  UNL     1      13.165   5.066  12.826  1.00  0.00     0.046 C 
BRANCH   4   5
HETATM    5  C4  UNL     1      13.524   5.586  14.198  1.00  0.00    -0.055 A 
HETATM    6  C5  UNL     1      12.528   6.042  15.076  1.00  0.00     0.046 A 
HETATM    7  C6  UNL     1      12.885   6.527  16.330  1.00  0.00     0.099 A 
HETATM    8  C7  UNL     1      14.220   6.556  16.721  1.00  0.00     0.098 A 
HETATM    9  C8  UNL     1      15.216   6.106  15.870  1.00  0.00     0.040 A 
HETATM   10  C9  UNL     1      14.869   5.619  14.609  1.00  0.00     0.010 A 
BRANCH   7  11
HETATM   11  O1  UNL     1      11.953   6.988  17.219  1.00  0.00    -0.358 OA
HETATM   12  H   UNL     1      11.771   7.905  17.273  1.00  0.00     0.217 HD
ENDBRANCH   7  11
BRANCH   8  13
HETATM   13  O2  UNL     1      14.560   7.033  17.954  1.00  0.00    -0.358 OA
HETATM   14  H   UNL     1      15.361   7.506  18.069  1.00  0.00     0.217 HD
ENDBRANCH   8  13
ENDBRANCH   4   5
ENDBRANCH   3   4
ENDBRANCH   1   3
BRANCH   1  15
HETATM   15  C10 UNL     1      13.618   6.148   9.117  1.00  0.00     0.218 C 
BRANCH  15  16
HETATM   16  O4  UNL     1      15.010   5.857   9.253  1.00  0.00    -0.385 OA
HETATM   17  H   UNL     1      15.502   6.292   8.539  1.00  0.00     0.210 HD
ENDBRANCH  15  16
BRANCH  15  18
HETATM   18  C11 UNL     1      12.926   5.147   8.168  1.00  0.00     0.177 C 
BRANCH  18  19
HETATM   19  O5  UNL     1      11.998   4.310   8.878  1.00  0.00    -0.390 OA
HETATM   20  H   UNL     1      11.651   4.791   9.645  1.00  0.00     0.210 HD
ENDBRANCH  18  19
BRANCH  18  21
HETATM   21  C12 UNL     1      12.120   5.872   7.083  1.00  0.00     0.198 C 
BRANCH  21  22
HETATM   22  O6  UNL     1      11.293   6.872   7.681  1.00  0.00    -0.398 OA
HETATM   23  H   UNL     1      11.849   7.510   8.157  1.00  0.00     0.209 HD
ENDBRANCH  21  22
ENDBRANCH  18  21
ENDBRANCH  15  18
ENDBRANCH   1  15
TORSDOF 11
ENDMDL
MODEL 8
REMARK VINA RESULT:      -6.6      1.817      6.181
REMARK  11 active torsions:
REMARK  status: ('A' for Active; 'I' for Inactive)
REMARK    1  A    between atoms: C1_1  and  C2_2 
REMARK    2  A    between atoms: C1_1  and  C10_13 
REMARK    3  A    between atoms: C2_2  and  C3_3 
REMARK    4  A    between atoms: C3_3  and  C4_4 
REMARK    5  A    between atoms: C6_6  and  O1_7 
REMARK    6  A    between atoms: C7_8  and  O2_9 
REMARK    7  A    between atoms: C10_13  and  O4_14 
REMARK    8  A    between atoms: C10_13  and  C11_15 
REMARK    9  A    between atoms: C11_15  and  O5_16 
REMARK   10  A    between atoms: C11_15  and  C12_17 
REMARK   11  A    between atoms: C12_17  and  O6_18 
ROOT
HETATM    1  C1  UNL     1      15.375   5.341  14.252  1.00  0.00     0.158 C 
HETATM    2  O3  UNL     1      16.307   4.531  14.274  1.00  0.00    -0.295 OA
ENDROOT
BRANCH   1   3
HETATM    3  C2  UNL     1      15.250   6.346  13.120  1.00  0.00     0.086 C 
BRANCH   3   4
HETATM    4  C3  UNL     1      15.464   5.738  11.736  1.00  0.00     0.046 C 
BRANCH   4   5
HETATM    5  C4  UNL     1      14.319   5.983  10.781  1.00  0.00    -0.055 A 
HETATM    6  C5  UNL     1      14.538   6.023   9.394  1.00  0.00     0.046 A 
HETATM    7  C6  UNL     1      13.470   6.261   8.536  1.00  0.00     0.099 A 
HETATM    8  C7  UNL     1      12.188   6.453   9.042  1.00  0.00     0.098 A 
HETATM    9  C8  UNL     1      11.952   6.413  10.406  1.00  0.00     0.040 A 
HETATM   10  C9  UNL     1      13.017   6.175  11.276  1.00  0.00     0.010 A 
BRANCH   7  11
HETATM   11  O1  UNL     1      13.632   6.316   7.179  1.00  0.00    -0.358 OA
HETATM   12  H   UNL     1      12.881   6.332   6.617  1.00  0.00     0.217 HD
ENDBRANCH   7  11
BRANCH   8  13
HETATM   13  O2  UNL     1      11.146   6.687   8.190  1.00  0.00    -0.358 OA
HETATM   14  H   UNL     1      10.956   7.561   7.912  1.00  0.00     0.217 HD
ENDBRANCH   8  13
ENDBRANCH   4   5
ENDBRANCH   3   4
ENDBRANCH   1   3
BRANCH   1  15
HETATM   15  C10 UNL     1      14.283   5.334  15.324  1.00  0.00     0.218 C 
BRANCH  15  16
HETATM   16  O4  UNL     1      14.630   6.301  16.316  1.00  0.00    -0.385 OA
HETATM   17  H   UNL     1      15.381   6.830  16.004  1.00  0.00     0.210 HD
ENDBRANCH  15  16
BRANCH  15  18
HETATM   18  C11 UNL     1      12.897   5.629  14.713  1.00  0.00     0.177 C 
BRANCH  18  19
HETATM   19  O5  UNL     1      11.955   4.591  15.028  1.00  0.00    -0.390 OA
HETATM   20  H   UNL     1      11.815   4.035  14.246  1.00  0.00     0.210 HD
ENDBRANCH  18  19
BRANCH  18  21
HETATM   21  C12 UNL     1      12.310   6.935  15.265  1.00  0.00     0.198 C 
BRANCH  21  22
HETATM   22  O6  UNL     1      11.951   6.762  16.637  1.00  0.00    -0.398 OA
HETATM   23  H   UNL     1      12.436   6.007  17.006  1.00  0.00     0.209 HD
ENDBRANCH  21  22
ENDBRANCH  18  21
ENDBRANCH  15  18
ENDBRANCH   1  15
TORSDOF 11
ENDMDL
MODEL 9
REMARK VINA RESULT:      -6.5      2.774      6.489
REMARK  11 active torsions:
REMARK  status: ('A' for Active; 'I' for Inactive)
REMARK    1  A    between atoms: C1_1  and  C2_2 
REMARK    2  A    between atoms: C1_1  and  C10_13 
REMARK    3  A    between atoms: C2_2  and  C3_3 
REMARK    4  A    between atoms: C3_3  and  C4_4 
REMARK    5  A    between atoms: C6_6  and  O1_7 
REMARK    6  A    between atoms: C7_8  and  O2_9 
REMARK    7  A    between atoms: C10_13  and  O4_14 
REMARK    8  A    between atoms: C10_13  and  C11_15 
REMARK    9  A    between atoms: C11_15  and  O5_16 
REMARK   10  A    between atoms: C11_15  and  C12_17 
REMARK   11  A    between atoms: C12_17  and  O6_18 
ROOT
HETATM    1  C1  UNL     1      13.727   4.966  14.154  1.00  0.00     0.158 C 
HETATM    2  O3  UNL     1      12.913   4.062  14.367  1.00  0.00    -0.295 OA
ENDROOT
BRANCH   1   3
HETATM    3  C2  UNL     1      15.219   4.686  14.179  1.00  0.00     0.086 C 
BRANCH   3   4
HETATM    4  C3  UNL     1      16.079   5.926  13.953  1.00  0.00     0.046 C 
BRANCH   4   5
HETATM    5  C4  UNL     1      16.753   5.960  12.601  1.00  0.00    -0.055 A 
HETATM    6  C5  UNL     1      17.988   5.322  12.398  1.00  0.00     0.046 A 
HETATM    7  C6  UNL     1      18.593   5.376  11.147  1.00  0.00     0.099 A 
HETATM    8  C7  UNL     1      17.980   6.052  10.096  1.00  0.00     0.098 A 
HETATM    9  C8  UNL     1      16.760   6.683  10.276  1.00  0.00     0.040 A 
HETATM   10  C9  UNL     1      16.145   6.635  11.527  1.00  0.00     0.010 A 
BRANCH   7  11
HETATM   11  O1  UNL     1      19.798   4.777  10.901  1.00  0.00    -0.358 OA
HETATM   12  H   UNL     1      19.899   3.855  11.035  1.00  0.00     0.217 HD
ENDBRANCH   7  11
BRANCH   8  13
HETATM   13  O2  UNL     1      18.584   6.099   8.872  1.00  0.00    -0.358 OA
HETATM   14  H   UNL     1      18.802   6.926   8.489  1.00  0.00     0.217 HD
ENDBRANCH   8  13
ENDBRANCH   4   5
ENDBRANCH   3   4
ENDBRANCH   1   3
BRANCH   1  15
HETATM   15  C10 UNL     1      13.273   6.386  13.805  1.00  0.00     0.218 C 
BRANCH  15  16
HETATM   16  O4  UNL     1      12.614   6.341  12.539  1.00  0.00    -0.385 OA
HETATM   17  H   UNL     1      13.277   6.308  11.831  1.00  0.00     0.210 HD
ENDBRANCH  15  16
BRANCH  15  18
HETATM   18  C11 UNL     1      12.350   6.963  14.898  1.00  0.00     0.177 C 
BRANCH  18  19
HETATM   19  O5  UNL     1      11.096   6.264  14.947  1.00  0.00    -0.390 OA
HETATM   20  H   UNL     1      10.471   6.678  14.332  1.00  0.00     0.210 HD
ENDBRANCH  18  19
BRANCH  18  21
HETATM   21  C12 UNL     1      12.982   6.829  16.290  1.00  0.00     0.198 C 
BRANCH  21  22
HETATM   22  O6  UNL     1      11.970   6.944  17.293  1.00  0.00    -0.398 OA
HETATM   23  H   UNL     1      11.474   7.767  17.159  1.00  0.00     0.209 HD
ENDBRANCH  21  22
ENDBRANCH  18  21
ENDBRANCH  15  18
ENDBRANCH   1  15
TORSDOF 11
ENDMDL
