MODEL 1
REMARK VINA RESULT:      -7.7      0.000      0.000
REMARK  11 active torsions:
REMARK  status: ('A' for Active; 'I' for Inactive)
REMARK    1  A    between atoms: C1_1  and  C2_2 
REMARK    2  A    between atoms: C1_1  and  C10_13 
REMARK    3  A    between atoms: C2_2  and  C3_3 
REMARK    4  A    between atoms: C3_3  and  C4_4 
REMARK    5  A    between atoms: C6_6  and  O1_7 
REMARK    6  A    between atoms: C7_8  and  O2_9 
REMARK    7  A    between atoms: C10_13  and  O4_14 
REMARK    8  A    between atoms: C10_13  and  C11_15 
REMARK    9  A    between atoms: C11_15  and  O5_16 
REMARK   10  A    between atoms: C11_15  and  C12_17 
REMARK   11  A    between atoms: C12_17  and  O6_18 
ROOT
HETATM    1  C1  UNL     1      19.467  -2.783  28.271  1.00  0.00     0.158 C 
HETATM    2  O3  UNL     1      18.827  -1.966  28.940  1.00  0.00    -0.295 OA
ENDROOT
BRANCH   1   3
HETATM    3  C2  UNL     1      20.840  -3.248  28.724  1.00  0.00     0.086 C 
BRANCH   3   4
HETATM    4  C3  UNL     1      20.796  -4.354  29.775  1.00  0.00     0.046 C 
BRANCH   4   5
HETATM    5  C4  UNL     1      21.224  -3.902  31.151  1.00  0.00    -0.055 A 
HETATM    6  C5  UNL     1      21.238  -2.538  31.487  1.00  0.00     0.046 A 
HETATM    7  C6  UNL     1      21.646  -2.146  32.757  1.00  0.00     0.099 A 
HETATM    8  C7  UNL     1      22.033  -3.096  33.698  1.00  0.00     0.098 A 
HETATM    9  C8  UNL     1      22.021  -4.445  33.387  1.00  0.00     0.040 A 
HETATM   10  C9  UNL     1      21.615  -4.849  32.115  1.00  0.00     0.010 A 
BRANCH   7  11
HETATM   11  O1  UNL     1      21.683  -0.831  33.131  1.00  0.00    -0.358 OA
HETATM   12  H   UNL     1      21.005  -0.478  33.674  1.00  0.00     0.217 HD
ENDBRANCH   7  11
BRANCH   8  13
HETATM   13  O2  UNL     1      22.432  -2.700  34.942  1.00  0.00    -0.358 OA
HETATM   14  H   UNL     1      22.310  -3.269  35.677  1.00  0.00     0.217 HD
ENDBRANCH   8  13
ENDBRANCH   4   5
ENDBRANCH   3   4
ENDBRANCH   1   3
BRANCH   1  15
HETATM   15  C10 UNL     1      18.889  -3.402  26.996  1.00  0.00     0.218 C 
BRANCH  15  16
HETATM   16  O4  UNL     1      17.582  -3.893  27.295  1.00  0.00    -0.385 OA
HETATM   17  H   UNL     1      16.919  -3.243  27.014  1.00  0.00     0.210 HD
ENDBRANCH  15  16
BRANCH  15  18
HETATM   18  C11 UNL     1      18.853  -2.376  25.843  1.00  0.00     0.177 C 
BRANCH  18  19
HETATM   19  O5  UNL     1      17.773  -1.443  26.007  1.00  0.00    -0.390 OA
HETATM   20  H   UNL     1      18.043  -0.739  26.616  1.00  0.00     0.210 HD
ENDBRANCH  18  19
BRANCH  18  21
HETATM   21  C12 UNL     1      20.143  -1.548  25.793  1.00  0.00     0.198 C 
BRANCH  21  22
HETATM   22  O6  UNL     1      20.145  -0.726  24.624  1.00  0.00    -0.398 OA
HETATM   23  H   UNL     1      19.966  -1.274  23.843  1.00  0.00     0.209 HD
ENDBRANCH  21  22
ENDBRANCH  18  21
ENDBRANCH  15  18
ENDBRANCH   1  15
TORSDOF 11
ENDMDL
MODEL 2
REMARK VINA RESULT:      -7.3      0.913      1.526
REMARK  11 active torsions:
REMARK  status: ('A' for Active; 'I' for Inactive)
REMARK    1  A    between atoms: C1_1  and  C2_2 
REMARK    2  A    between atoms: C1_1  and  C10_13 
REMARK    3  A    between atoms: C2_2  and  C3_3 
REMARK    4  A    between atoms: C3_3  and  C4_4 
REMARK    5  A    between atoms: C6_6  and  O1_7 
REMARK    6  A    between atoms: C7_8  and  O2_9 
REMARK    7  A    between atoms: C10_13  and  O4_14 
REMARK    8  A    between atoms: C10_13  and  C11_15 
REMARK    9  A    between atoms: C11_15  and  O5_16 
REMARK   10  A    between atoms: C11_15  and  C12_17 
REMARK   11  A    between atoms: C12_17  and  O6_18 
ROOT
HETATM    1  C1  UNL     1      21.041  -2.698  27.868  1.00  0.00     0.158 C 
HETATM    2  O3  UNL     1      21.585  -1.884  27.116  1.00  0.00    -0.295 OA
ENDROOT
BRANCH   1   3
HETATM    3  C2  UNL     1      21.870  -3.702  28.649  1.00  0.00     0.086 C 
BRANCH   3   4
HETATM    4  C3  UNL     1      21.088  -4.420  29.746  1.00  0.00     0.046 C 
BRANCH   4   5
HETATM    5  C4  UNL     1      21.414  -3.938  31.140  1.00  0.00    -0.055 A 
HETATM    6  C5  UNL     1      21.351  -2.572  31.460  1.00  0.00     0.046 A 
HETATM    7  C6  UNL     1      21.667  -2.152  32.748  1.00  0.00     0.099 A 
HETATM    8  C7  UNL     1      22.037  -3.075  33.720  1.00  0.00     0.098 A 
HETATM    9  C8  UNL     1      22.100  -4.427  33.425  1.00  0.00     0.040 A 
HETATM   10  C9  UNL     1      21.787  -4.859  32.135  1.00  0.00     0.010 A 
BRANCH   7  11
HETATM   11  O1  UNL     1      21.627  -0.832  33.108  1.00  0.00    -0.358 OA
HETATM   12  H   UNL     1      22.358  -0.275  32.926  1.00  0.00     0.217 HD
ENDBRANCH   7  11
BRANCH   8  13
HETATM   13  O2  UNL     1      22.345  -2.652  34.982  1.00  0.00    -0.358 OA
HETATM   14  H   UNL     1      23.176  -2.253  35.152  1.00  0.00     0.217 HD
ENDBRANCH   8  13
ENDBRANCH   4   5
ENDBRANCH   3   4
ENDBRANCH   1   3
BRANCH   1  15
HETATM   15  C10 UNL     1      19.526  -2.698  28.087  1.00  0.00     0.218 C 
BRANCH  15  16
HETATM   16  O4  UNL     1      19.127  -1.368  28.421  1.00  0.00    -0.385 OA
HETATM   17  H   UNL     1      19.789  -0.970  29.008  1.00  0.00     0.210 HD
ENDBRANCH  15  16
BRANCH  15  18
HETATM   18  C11 UNL     1      18.780  -3.212  26.839  1.00  0.00     0.177 C 
BRANCH  18  19
HETATM   19  O5  UNL     1      17.612  -3.966  27.201  1.00  0.00    -0.390 OA
HETATM   20  H   UNL     1      16.890  -3.357  27.421  1.00  0.00     0.210 HD
ENDBRANCH  18  19
BRANCH  18  21
HETATM   21  C12 UNL     1      18.297  -2.051  25.960  1.00  0.00     0.198 C 
BRANCH  21  22
HETATM   22  O6  UNL     1      19.388  -1.540  25.190  1.00  0.00    -0.398 OA
HETATM   23  H   UNL     1      19.043  -1.038  24.434  1.00  0.00     0.209 HD
ENDBRANCH  21  22
ENDBRANCH  18  21
ENDBRANCH  15  18
ENDBRANCH   1  15
TORSDOF 11
ENDMDL
MODEL 3
REMARK VINA RESULT:      -7.2      1.194      1.902
REMARK  11 active torsions:
REMARK  status: ('A' for Active; 'I' for Inactive)
REMARK    1  A    between atoms: C1_1  and  C2_2 
REMARK    2  A    between atoms: C1_1  and  C10_13 
REMARK    3  A    between atoms: C2_2  and  C3_3 
REMARK    4  A    between atoms: C3_3  and  C4_4 
REMARK    5  A    between atoms: C6_6  and  O1_7 
REMARK    6  A    between atoms: C7_8  and  O2_9 
REMARK    7  A    between atoms: C10_13  and  O4_14 
REMARK    8  A    between atoms: C10_13  and  C11_15 
REMARK    9  A    between atoms: C11_15  and  O5_16 
REMARK   10  A    between atoms: C11_15  and  C12_17 
REMARK   11  A    between atoms: C12_17  and  O6_18 
ROOT
HETATM    1  C1  UNL     1      19.024  -3.891  28.493  1.00  0.00     0.158 C 
HETATM    2  O3  UNL     1      17.846  -3.924  28.861  1.00  0.00    -0.295 OA
ENDROOT
BRANCH   1   3
HETATM    3  C2  UNL     1      20.150  -4.152  29.478  1.00  0.00     0.086 C 
BRANCH   3   4
HETATM    4  C3  UNL     1      20.902  -2.892  29.897  1.00  0.00     0.046 C 
BRANCH   4   5
HETATM    5  C4  UNL     1      21.322  -2.888  31.348  1.00  0.00    -0.055 A 
HETATM    6  C5  UNL     1      21.692  -4.081  31.990  1.00  0.00     0.046 A 
HETATM    7  C6  UNL     1      22.065  -4.054  33.330  1.00  0.00     0.099 A 
HETATM    8  C7  UNL     1      22.080  -2.853  34.033  1.00  0.00     0.098 A 
HETATM    9  C8  UNL     1      21.724  -1.666  33.415  1.00  0.00     0.040 A 
HETATM   10  C9  UNL     1      21.347  -1.683  32.072  1.00  0.00     0.010 A 
BRANCH   7  11
HETATM   11  O1  UNL     1      22.427  -5.188  34.003  1.00  0.00    -0.358 OA
HETATM   12  H   UNL     1      21.789  -5.852  34.180  1.00  0.00     0.217 HD
ENDBRANCH   7  11
BRANCH   8  13
HETATM   13  O2  UNL     1      22.448  -2.838  35.348  1.00  0.00    -0.358 OA
HETATM   14  H   UNL     1      21.794  -2.779  36.017  1.00  0.00     0.217 HD
ENDBRANCH   8  13
ENDBRANCH   4   5
ENDBRANCH   3   4
ENDBRANCH   1   3
BRANCH   1  15
HETATM   15  C10 UNL     1      19.399  -3.642  27.030  1.00  0.00     0.218 C 
BRANCH  15  16
HETATM   16  O4  UNL     1      18.654  -4.552  26.221  1.00  0.00    -0.385 OA
HETATM   17  H   UNL     1      18.545  -5.392  26.694  1.00  0.00     0.210 HD
ENDBRANCH  15  16
BRANCH  15  18
HETATM   18  C11 UNL     1      19.128  -2.178  26.624  1.00  0.00     0.177 C 
BRANCH  18  19
HETATM   19  O5  UNL     1      18.848  -1.361  27.772  1.00  0.00    -0.390 OA
HETATM   20  H   UNL     1      19.194  -0.467  27.624  1.00  0.00     0.210 HD
ENDBRANCH  18  19
BRANCH  18  21
HETATM   21  C12 UNL     1      20.348  -1.556  25.931  1.00  0.00     0.198 C 
BRANCH  21  22
HETATM   22  O6  UNL     1      19.936  -0.883  24.740  1.00  0.00    -0.398 OA
HETATM   23  H   UNL     1      19.138  -1.308  24.387  1.00  0.00     0.209 HD
ENDBRANCH  21  22
ENDBRANCH  18  21
ENDBRANCH  15  18
ENDBRANCH   1  15
TORSDOF 11
ENDMDL
MODEL 4
REMARK VINA RESULT:      -7.2      1.308      7.130
REMARK  11 active torsions:
REMARK  status: ('A' for Active; 'I' for Inactive)
REMARK    1  A    between atoms: C1_1  and  C2_2 
REMARK    2  A    between atoms: C1_1  and  C10_13 
REMARK    3  A    between atoms: C2_2  and  C3_3 
REMARK    4  A    between atoms: C3_3  and  C4_4 
REMARK    5  A    between atoms: C6_6  and  O1_7 
REMARK    6  A    between atoms: C7_8  and  O2_9 
REMARK    7  A    between atoms: C10_13  and  O4_14 
REMARK    8  A    between atoms: C10_13  and  C11_15 
REMARK    9  A    between atoms: C11_15  and  O5_16 
REMARK   10  A    between atoms: C11_15  and  C12_17 
REMARK   11  A    between atoms: C12_17  and  O6_18 
ROOT
HETATM    1  C1  UNL     1      20.955  -2.593  31.857  1.00  0.00     0.158 C 
HETATM    2  O3  UNL     1      20.213  -1.615  31.728  1.00  0.00    -0.295 OA
ENDROOT
BRANCH   1   3
HETATM    3  C2  UNL     1      21.421  -3.375  30.642  1.00  0.00     0.086 C 
BRANCH   3   4
HETATM    4  C3  UNL     1      20.284  -3.813  29.722  1.00  0.00     0.046 C 
BRANCH   4   5
HETATM    5  C4  UNL     1      20.220  -3.042  28.425  1.00  0.00    -0.055 A 
HETATM    6  C5  UNL     1      19.105  -3.155  27.578  1.00  0.00     0.046 A 
HETATM    7  C6  UNL     1      19.074  -2.444  26.383  1.00  0.00     0.099 A 
HETATM    8  C7  UNL     1      20.135  -1.617  26.027  1.00  0.00     0.098 A 
HETATM    9  C8  UNL     1      21.240  -1.489  26.852  1.00  0.00     0.040 A 
HETATM   10  C9  UNL     1      21.282  -2.200  28.052  1.00  0.00     0.010 A 
BRANCH   7  11
HETATM   11  O1  UNL     1      18.015  -2.525  25.521  1.00  0.00    -0.358 OA
HETATM   12  H   UNL     1      17.950  -3.245  24.925  1.00  0.00     0.217 HD
ENDBRANCH   7  11
BRANCH   8  13
HETATM   13  O2  UNL     1      20.095  -0.923  24.851  1.00  0.00    -0.358 OA
HETATM   14  H   UNL     1      19.324  -0.948  24.319  1.00  0.00     0.217 HD
ENDBRANCH   8  13
ENDBRANCH   4   5
ENDBRANCH   3   4
ENDBRANCH   1   3
BRANCH   1  15
HETATM   15  C10 UNL     1      21.478  -3.026  33.229  1.00  0.00     0.218 C 
BRANCH  15  16
HETATM   16  O4  UNL     1      22.197  -4.249  33.063  1.00  0.00    -0.385 OA
HETATM   17  H   UNL     1      23.049  -4.067  32.637  1.00  0.00     0.210 HD
ENDBRANCH  15  16
BRANCH  15  18
HETATM   18  C11 UNL     1      22.366  -1.933  33.860  1.00  0.00     0.177 C 
BRANCH  18  19
HETATM   19  O5  UNL     1      22.402  -0.753  33.042  1.00  0.00    -0.390 OA
HETATM   20  H   UNL     1      22.687  -0.990  32.145  1.00  0.00     0.210 HD
ENDBRANCH  18  19
BRANCH  18  21
HETATM   21  C12 UNL     1      21.829  -1.500  35.230  1.00  0.00     0.198 C 
BRANCH  21  22
HETATM   22  O6  UNL     1      22.527  -2.196  36.265  1.00  0.00    -0.398 OA
HETATM   23  H   UNL     1      22.861  -1.558  36.915  1.00  0.00     0.209 HD
ENDBRANCH  21  22
ENDBRANCH  18  21
ENDBRANCH  15  18
ENDBRANCH   1  15
TORSDOF 11
ENDMDL
MODEL 5
REMARK VINA RESULT:      -7.2      1.319      7.189
REMARK  11 active torsions:
REMARK  status: ('A' for Active; 'I' for Inactive)
REMARK    1  A    between atoms: C1_1  and  C2_2 
REMARK    2  A    between atoms: C1_1  and  C10_13 
REMARK    3  A    between atoms: C2_2  and  C3_3 
REMARK    4  A    between atoms: C3_3  and  C4_4 
REMARK    5  A    between atoms: C6_6  and  O1_7 
REMARK    6  A    between atoms: C7_8  and  O2_9 
REMARK    7  A    between atoms: C10_13  and  O4_14 
REMARK    8  A    between atoms: C10_13  and  C11_15 
REMARK    9  A    between atoms: C11_15  and  O5_16 
REMARK   10  A    between atoms: C11_15  and  C12_17 
REMARK   11  A    between atoms: C12_17  and  O6_18 
ROOT
HETATM    1  C1  UNL     1      20.924  -2.460  31.533  1.00  0.00     0.158 C 
HETATM    2  O3  UNL     1      19.774  -2.011  31.525  1.00  0.00    -0.295 OA
ENDROOT
BRANCH   1   3
HETATM    3  C2  UNL     1      21.368  -3.464  30.484  1.00  0.00     0.086 C 
BRANCH   3   4
HETATM    4  C3  UNL     1      21.888  -2.820  29.201  1.00  0.00     0.046 C 
BRANCH   4   5
HETATM    5  C4  UNL     1      20.837  -2.670  28.127  1.00  0.00    -0.055 A 
HETATM    6  C5  UNL     1      21.045  -1.813  27.034  1.00  0.00     0.046 A 
HETATM    7  C6  UNL     1      20.057  -1.684  26.063  1.00  0.00     0.099 A 
HETATM    8  C7  UNL     1      18.870  -2.403  26.164  1.00  0.00     0.098 A 
HETATM    9  C8  UNL     1      18.649  -3.257  27.232  1.00  0.00     0.040 A 
HETATM   10  C9  UNL     1      19.633  -3.393  28.212  1.00  0.00     0.010 A 
BRANCH   7  11
HETATM   11  O1  UNL     1      20.209  -0.857  24.983  1.00  0.00    -0.358 OA
HETATM   12  H   UNL     1      20.170  -1.209  24.115  1.00  0.00     0.217 HD
ENDBRANCH   7  11
BRANCH   8  13
HETATM   13  O2  UNL     1      17.907  -2.269  25.205  1.00  0.00    -0.358 OA
HETATM   14  H   UNL     1      17.105  -2.748  25.276  1.00  0.00     0.217 HD
ENDBRANCH   8  13
ENDBRANCH   4   5
ENDBRANCH   3   4
ENDBRANCH   1   3
BRANCH   1  15
HETATM   15  C10 UNL     1      21.961  -1.988  32.555  1.00  0.00     0.218 C 
BRANCH  15  16
HETATM   16  O4  UNL     1      21.932  -0.561  32.589  1.00  0.00    -0.385 OA
HETATM   17  H   UNL     1      22.687  -0.211  32.091  1.00  0.00     0.210 HD
ENDBRANCH  15  16
BRANCH  15  18
HETATM   18  C11 UNL     1      21.686  -2.590  33.949  1.00  0.00     0.177 C 
BRANCH  18  19
HETATM   19  O5  UNL     1      22.406  -3.818  34.139  1.00  0.00    -0.390 OA
HETATM   20  H   UNL     1      22.665  -4.179  33.277  1.00  0.00     0.210 HD
ENDBRANCH  18  19
BRANCH  18  21
HETATM   21  C12 UNL     1      22.138  -1.640  35.066  1.00  0.00     0.198 C 
BRANCH  21  22
HETATM   22  O6  UNL     1      22.440  -2.388  36.245  1.00  0.00    -0.398 OA
HETATM   23  H   UNL     1      23.174  -1.964  36.718  1.00  0.00     0.209 HD
ENDBRANCH  21  22
ENDBRANCH  18  21
ENDBRANCH  15  18
ENDBRANCH   1  15
TORSDOF 11
ENDMDL
MODEL 6
REMARK VINA RESULT:      -7.1      3.584      6.451
REMARK  11 active torsions:
REMARK  status: ('A' for Active; 'I' for Inactive)
REMARK    1  A    between atoms: C1_1  and  C2_2 
REMARK    2  A    between atoms: C1_1  and  C10_13 
REMARK    3  A    between atoms: C2_2  and  C3_3 
REMARK    4  A    between atoms: C3_3  and  C4_4 
REMARK    5  A    between atoms: C6_6  and  O1_7 
REMARK    6  A    between atoms: C7_8  and  O2_9 
REMARK    7  A    between atoms: C10_13  and  O4_14 
REMARK    8  A    between atoms: C10_13  and  C11_15 
REMARK    9  A    between atoms: C11_15  and  O5_16 
REMARK   10  A    between atoms: C11_15  and  C12_17 
REMARK   11  A    between atoms: C12_17  and  O6_18 
ROOT
HETATM    1  C1  UNL     1      21.049  -2.627  31.600  1.00  0.00     0.158 C 
HETATM    2  O3  UNL     1      19.969  -2.137  31.257  1.00  0.00    -0.295 OA
ENDROOT
BRANCH   1   3
HETATM    3  C2  UNL     1      21.556  -3.907  30.960  1.00  0.00     0.086 C 
BRANCH   3   4
HETATM    4  C3  UNL     1      20.997  -5.175  31.600  1.00  0.00     0.046 C 
BRANCH   4   5
HETATM    5  C4  UNL     1      22.058  -6.177  31.991  1.00  0.00    -0.055 A 
HETATM    6  C5  UNL     1      22.347  -6.425  33.343  1.00  0.00     0.046 A 
HETATM    7  C6  UNL     1      23.336  -7.344  33.677  1.00  0.00     0.099 A 
HETATM    8  C7  UNL     1      24.033  -8.023  32.683  1.00  0.00     0.098 A 
HETATM    9  C8  UNL     1      23.758  -7.796  31.345  1.00  0.00     0.040 A 
HETATM   10  C9  UNL     1      22.769  -6.874  30.998  1.00  0.00     0.010 A 
BRANCH   7  11
HETATM   11  O1  UNL     1      23.659  -7.616  34.978  1.00  0.00    -0.358 OA
HETATM   12  H   UNL     1      24.532  -7.875  35.200  1.00  0.00     0.217 HD
ENDBRANCH   7  11
BRANCH   8  13
HETATM   13  O2  UNL     1      25.002  -8.924  33.023  1.00  0.00    -0.358 OA
HETATM   14  H   UNL     1      24.814  -9.842  33.008  1.00  0.00     0.217 HD
ENDBRANCH   8  13
ENDBRANCH   4   5
ENDBRANCH   3   4
ENDBRANCH   1   3
BRANCH   1  15
HETATM   15  C10 UNL     1      21.944  -1.944  32.637  1.00  0.00     0.218 C 
BRANCH  15  16
HETATM   16  O4  UNL     1      21.751  -0.534  32.529  1.00  0.00    -0.385 OA
HETATM   17  H   UNL     1      22.131  -0.218  31.695  1.00  0.00     0.210 HD
ENDBRANCH  15  16
BRANCH  15  18
HETATM   18  C11 UNL     1      21.633  -2.447  34.062  1.00  0.00     0.177 C 
BRANCH  18  19
HETATM   19  O5  UNL     1      22.610  -3.402  34.505  1.00  0.00    -0.390 OA
HETATM   20  H   UNL     1      22.415  -4.268  34.114  1.00  0.00     0.210 HD
ENDBRANCH  18  19
BRANCH  18  21
HETATM   21  C12 UNL     1      21.654  -1.296  35.077  1.00  0.00     0.198 C 
BRANCH  21  22
HETATM   22  O6  UNL     1      22.157  -1.766  36.330  1.00  0.00    -0.398 OA
HETATM   23  H   UNL     1      21.589  -2.481  36.659  1.00  0.00     0.209 HD
ENDBRANCH  21  22
ENDBRANCH  18  21
ENDBRANCH  15  18
ENDBRANCH   1  15
TORSDOF 11
ENDMDL
MODEL 7
REMARK VINA RESULT:      -7.0      3.574      6.285
REMARK  11 active torsions:
REMARK  status: ('A' for Active; 'I' for Inactive)
REMARK    1  A    between atoms: C1_1  and  C2_2 
REMARK    2  A    between atoms: C1_1  and  C10_13 
REMARK    3  A    between atoms: C2_2  and  C3_3 
REMARK    4  A    between atoms: C3_3  and  C4_4 
REMARK    5  A    between atoms: C6_6  and  O1_7 
REMARK    6  A    between atoms: C7_8  and  O2_9 
REMARK    7  A    between atoms: C10_13  and  O4_14 
REMARK    8  A    between atoms: C10_13  and  C11_15 
REMARK    9  A    between atoms: C11_15  and  O5_16 
REMARK   10  A    between atoms: C11_15  and  C12_17 
REMARK   11  A    between atoms: C12_17  and  O6_18 
ROOT
HETATM    1  C1  UNL     1      21.147  -2.665  31.548  1.00  0.00     0.158 C 
HETATM    2  O3  UNL     1      20.006  -2.279  31.278  1.00  0.00    -0.295 OA
ENDROOT
BRANCH   1   3
HETATM    3  C2  UNL     1      21.780  -3.808  30.775  1.00  0.00     0.086 C 
BRANCH   3   4
HETATM    4  C3  UNL     1      21.013  -5.123  30.890  1.00  0.00     0.046 C 
BRANCH   4   5
HETATM    5  C4  UNL     1      21.463  -5.991  32.041  1.00  0.00    -0.055 A 
HETATM    6  C5  UNL     1      22.726  -6.608  32.024  1.00  0.00     0.046 A 
HETATM    7  C6  UNL     1      23.113  -7.411  33.091  1.00  0.00     0.099 A 
HETATM    8  C7  UNL     1      22.263  -7.602  34.176  1.00  0.00     0.098 A 
HETATM    9  C8  UNL     1      21.016  -6.999  34.213  1.00  0.00     0.040 A 
HETATM   10  C9  UNL     1      20.617  -6.191  33.146  1.00  0.00     0.010 A 
BRANCH   7  11
HETATM   11  O1  UNL     1      24.328  -8.039  33.119  1.00  0.00    -0.358 OA
HETATM   12  H   UNL     1      24.745  -8.218  33.940  1.00  0.00     0.217 HD
ENDBRANCH   7  11
BRANCH   8  13
HETATM   13  O2  UNL     1      22.653  -8.393  35.218  1.00  0.00    -0.358 OA
HETATM   14  H   UNL     1      22.090  -8.504  35.958  1.00  0.00     0.217 HD
ENDBRANCH   8  13
ENDBRANCH   4   5
ENDBRANCH   3   4
ENDBRANCH   1   3
BRANCH   1  15
HETATM   15  C10 UNL     1      21.990  -1.979  32.627  1.00  0.00     0.218 C 
BRANCH  15  16
HETATM   16  O4  UNL     1      21.711  -0.580  32.584  1.00  0.00    -0.385 OA
HETATM   17  H   UNL     1      20.773  -0.443  32.379  1.00  0.00     0.210 HD
ENDBRANCH  15  16
BRANCH  15  18
HETATM   18  C11 UNL     1      21.698  -2.568  34.023  1.00  0.00     0.177 C 
BRANCH  18  19
HETATM   19  O5  UNL     1      22.565  -3.676  34.314  1.00  0.00    -0.390 OA
HETATM   20  H   UNL     1      22.137  -4.502  34.041  1.00  0.00     0.210 HD
ENDBRANCH  18  19
BRANCH  18  21
HETATM   21  C12 UNL     1      21.930  -1.528  35.127  1.00  0.00     0.198 C 
BRANCH  21  22
HETATM   22  O6  UNL     1      22.530  -2.154  36.263  1.00  0.00    -0.398 OA
HETATM   23  H   UNL     1      23.381  -2.543  36.006  1.00  0.00     0.209 HD
ENDBRANCH  21  22
ENDBRANCH  18  21
ENDBRANCH  15  18
ENDBRANCH   1  15
TORSDOF 11
ENDMDL
MODEL 8
REMARK VINA RESULT:      -7.0      2.375      2.865
REMARK  11 active torsions:
REMARK  status: ('A' for Active; 'I' for Inactive)
REMARK    1  A    between atoms: C1_1  and  C2_2 
REMARK    2  A    between atoms: C1_1  and  C10_13 
REMARK    3  A    between atoms: C2_2  and  C3_3 
REMARK    4  A    between atoms: C3_3  and  C4_4 
REMARK    5  A    between atoms: C6_6  and  O1_7 
REMARK    6  A    between atoms: C7_8  and  O2_9 
REMARK    7  A    between atoms: C10_13  and  O4_14 
REMARK    8  A    between atoms: C10_13  and  C11_15 
REMARK    9  A    between atoms: C11_15  and  O5_16 
REMARK   10  A    between atoms: C11_15  and  C12_17 
REMARK   11  A    between atoms: C12_17  and  O6_18 
ROOT
HETATM    1  C1  UNL     1      19.569  -2.506  29.103  1.00  0.00     0.158 C 
HETATM    2  O3  UNL     1      18.693  -1.996  29.809  1.00  0.00    -0.295 OA
ENDROOT
BRANCH   1   3
HETATM    3  C2  UNL     1      20.975  -2.704  29.641  1.00  0.00     0.086 C 
BRANCH   3   4
HETATM    4  C3  UNL     1      21.028  -2.928  31.150  1.00  0.00     0.046 C 
BRANCH   4   5
HETATM    5  C4  UNL     1      21.687  -4.227  31.550  1.00  0.00    -0.055 A 
HETATM    6  C5  UNL     1      21.993  -5.202  30.586  1.00  0.00     0.046 A 
HETATM    7  C6  UNL     1      22.590  -6.395  30.981  1.00  0.00     0.099 A 
HETATM    8  C7  UNL     1      22.891  -6.624  32.320  1.00  0.00     0.098 A 
HETATM    9  C8  UNL     1      22.601  -5.672  33.283  1.00  0.00     0.040 A 
HETATM   10  C9  UNL     1      22.001  -4.473  32.898  1.00  0.00     0.010 A 
BRANCH   7  11
HETATM   11  O1  UNL     1      22.902  -7.379  30.083  1.00  0.00    -0.358 OA
HETATM   12  H   UNL     1      23.752  -7.773  30.096  1.00  0.00     0.217 HD
ENDBRANCH   7  11
BRANCH   8  13
HETATM   13  O2  UNL     1      23.476  -7.799  32.696  1.00  0.00    -0.358 OA
HETATM   14  H   UNL     1      23.788  -7.907  33.573  1.00  0.00     0.217 HD
ENDBRANCH   8  13
ENDBRANCH   4   5
ENDBRANCH   3   4
ENDBRANCH   1   3
BRANCH   1  15
HETATM   15  C10 UNL     1      19.268  -3.006  27.689  1.00  0.00     0.218 C 
BRANCH  15  16
HETATM   16  O4  UNL     1      18.084  -3.802  27.743  1.00  0.00    -0.385 OA
HETATM   17  H   UNL     1      17.459  -3.409  28.372  1.00  0.00     0.210 HD
ENDBRANCH  15  16
BRANCH  15  18
HETATM   18  C11 UNL     1      19.110  -1.831  26.701  1.00  0.00     0.177 C 
BRANCH  18  19
HETATM   19  O5  UNL     1      18.893  -0.591  27.394  1.00  0.00    -0.390 OA
HETATM   20  H   UNL     1      19.409   0.111  26.970  1.00  0.00     0.210 HD
ENDBRANCH  18  19
BRANCH  18  21
HETATM   21  C12 UNL     1      20.373  -1.642  25.851  1.00  0.00     0.198 C 
BRANCH  21  22
HETATM   22  O6  UNL     1      20.067  -0.858  24.697  1.00  0.00    -0.398 OA
HETATM   23  H   UNL     1      20.734  -1.017  24.011  1.00  0.00     0.209 HD
ENDBRANCH  21  22
ENDBRANCH  18  21
ENDBRANCH  15  18
ENDBRANCH   1  15
TORSDOF 11
ENDMDL
MODEL 9
REMARK VINA RESULT:      -7.0      1.654      2.109
REMARK  11 active torsions:
REMARK  status: ('A' for Active; 'I' for Inactive)
REMARK    1  A    between atoms: C1_1  and  C2_2 
REMARK    2  A    between atoms: C1_1  and  C10_13 
REMARK    3  A    between atoms: C2_2  and  C3_3 
REMARK    4  A    between atoms: C3_3  and  C4_4 
REMARK    5  A    between atoms: C6_6  and  O1_7 
REMARK    6  A    between atoms: C7_8  and  O2_9 
REMARK    7  A    between atoms: C10_13  and  O4_14 
REMARK    8  A    between atoms: C10_13  and  C11_15 
REMARK    9  A    between atoms: C11_15  and  O5_16 
REMARK   10  A    between atoms: C11_15  and  C12_17 
REMARK   11  A    between atoms: C12_17  and  O6_18 
ROOT
HETATM    1  C1  UNL     1      19.519  -2.708  28.888  1.00  0.00     0.158 C 
HETATM    2  O3  UNL     1      18.727  -2.145  29.651  1.00  0.00    -0.295 OA
ENDROOT
BRANCH   1   3
HETATM    3  C2  UNL     1      20.892  -3.134  29.377  1.00  0.00     0.086 C 
BRANCH   3   4
HETATM    4  C3  UNL     1      21.097  -4.647  29.382  1.00  0.00     0.046 C 
BRANCH   4   5
HETATM    5  C4  UNL     1      21.712  -5.173  30.658  1.00  0.00    -0.055 A 
HETATM    6  C5  UNL     1      21.735  -4.385  31.821  1.00  0.00     0.046 A 
HETATM    7  C6  UNL     1      22.317  -4.888  32.980  1.00  0.00     0.099 A 
HETATM    8  C7  UNL     1      22.869  -6.165  32.996  1.00  0.00     0.098 A 
HETATM    9  C8  UNL     1      22.851  -6.957  31.860  1.00  0.00     0.040 A 
HETATM   10  C9  UNL     1      22.271  -6.463  30.692  1.00  0.00     0.010 A 
BRANCH   7  11
HETATM   11  O1  UNL     1      22.370  -4.159  34.136  1.00  0.00    -0.358 OA
HETATM   12  H   UNL     1      23.102  -4.250  34.715  1.00  0.00     0.217 HD
ENDBRANCH   7  11
BRANCH   8  13
HETATM   13  O2  UNL     1      23.437  -6.648  34.140  1.00  0.00    -0.358 OA
HETATM   14  H   UNL     1      23.176  -7.482  34.477  1.00  0.00     0.217 HD
ENDBRANCH   8  13
ENDBRANCH   4   5
ENDBRANCH   3   4
ENDBRANCH   1   3
BRANCH   1  15
HETATM   15  C10 UNL     1      19.137  -3.047  27.446  1.00  0.00     0.218 C 
BRANCH  15  16
HETATM   16  O4  UNL     1      17.908  -3.774  27.472  1.00  0.00    -0.385 OA
HETATM   17  H   UNL     1      17.210  -3.243  27.056  1.00  0.00     0.210 HD
ENDBRANCH  15  16
BRANCH  15  18
HETATM   18  C11 UNL     1      19.019  -1.773  26.583  1.00  0.00     0.177 C 
BRANCH  18  19
HETATM   19  O5  UNL     1      18.997  -0.591  27.399  1.00  0.00    -0.390 OA
HETATM   20  H   UNL     1      19.618  -0.696  28.137  1.00  0.00     0.210 HD
ENDBRANCH  18  19
BRANCH  18  21
HETATM   21  C12 UNL     1      20.214  -1.629  25.633  1.00  0.00     0.198 C 
BRANCH  21  22
HETATM   22  O6  UNL     1      21.261  -0.902  26.279  1.00  0.00    -0.398 OA
HETATM   23  H   UNL     1      20.875  -0.260  26.897  1.00  0.00     0.209 HD
ENDBRANCH  21  22
ENDBRANCH  18  21
ENDBRANCH  15  18
ENDBRANCH   1  15
TORSDOF 11
ENDMDL
