MODEL 1
REMARK VINA RESULT:      -7.2      0.000      0.000
REMARK  11 active torsions:
REMARK  status: ('A' for Active; 'I' for Inactive)
REMARK    1  A    between atoms: C1_1  and  C2_2 
REMARK    2  A    between atoms: C1_1  and  C10_13 
REMARK    3  A    between atoms: C2_2  and  C3_3 
REMARK    4  A    between atoms: C3_3  and  C4_4 
REMARK    5  A    between atoms: C6_6  and  O1_7 
REMARK    6  A    between atoms: C7_8  and  O2_9 
REMARK    7  A    between atoms: C10_13  and  O4_14 
REMARK    8  A    between atoms: C10_13  and  C11_15 
REMARK    9  A    between atoms: C11_15  and  O5_16 
REMARK   10  A    between atoms: C11_15  and  C12_17 
REMARK   11  A    between atoms: C12_17  and  O6_18 
ROOT
HETATM    1  C1  UNL     1      14.577   6.176  10.301  1.00  0.00     0.158 C 
HETATM    2  O3  UNL     1      15.296   6.154   9.298  1.00  0.00    -0.295 OA
ENDROOT
BRANCH   1   3
HETATM    3  C2  UNL     1      15.076   6.790  11.597  1.00  0.00     0.086 C 
BRANCH   3   4
HETATM    4  C3  UNL     1      15.342   5.766  12.697  1.00  0.00     0.046 C 
BRANCH   4   5
HETATM    5  C4  UNL     1      14.564   6.021  13.966  1.00  0.00    -0.055 A 
HETATM    6  C5  UNL     1      13.160   6.056  13.953  1.00  0.00     0.046 A 
HETATM    7  C6  UNL     1      12.467   6.304  15.133  1.00  0.00     0.099 A 
HETATM    8  C7  UNL     1      13.154   6.510  16.325  1.00  0.00     0.098 A 
HETATM    9  C8  UNL     1      14.539   6.474  16.359  1.00  0.00     0.040 A 
HETATM   10  C9  UNL     1      15.244   6.228  15.180  1.00  0.00     0.010 A 
BRANCH   7  11
HETATM   11  O1  UNL     1      11.100   6.354  15.171  1.00  0.00    -0.358 OA
HETATM   12  H   UNL     1      10.601   6.117  14.414  1.00  0.00     0.217 HD
ENDBRANCH   7  11
BRANCH   8  13
HETATM   13  O2  UNL     1      12.464   6.753  17.478  1.00  0.00    -0.358 OA
HETATM   14  H   UNL     1      12.567   7.571  17.922  1.00  0.00     0.217 HD
ENDBRANCH   8  13
ENDBRANCH   4   5
ENDBRANCH   3   4
ENDBRANCH   1   3
BRANCH   1  15
HETATM   15  C10 UNL     1      13.143   5.642  10.270  1.00  0.00     0.218 C 
BRANCH  15  16
HETATM   16  O4  UNL     1      12.261   6.720  10.582  1.00  0.00    -0.385 OA
HETATM   17  H   UNL     1      11.349   6.393  10.616  1.00  0.00     0.210 HD
ENDBRANCH  15  16
BRANCH  15  18
HETATM   18  C11 UNL     1      12.807   5.020   8.899  1.00  0.00     0.177 C 
BRANCH  18  19
HETATM   19  O5  UNL     1      11.751   4.052   9.008  1.00  0.00    -0.390 OA
HETATM   20  H   UNL     1      11.067   4.245   8.348  1.00  0.00     0.210 HD
ENDBRANCH  18  19
BRANCH  18  21
HETATM   21  C12 UNL     1      12.325   6.085   7.906  1.00  0.00     0.198 C 
BRANCH  21  22
HETATM   22  O6  UNL     1      13.356   6.365   6.957  1.00  0.00    -0.398 OA
HETATM   23  H   UNL     1      12.986   6.346   6.061  1.00  0.00     0.209 HD
ENDBRANCH  21  22
ENDBRANCH  18  21
ENDBRANCH  15  18
ENDBRANCH   1  15
TORSDOF 11
ENDMDL
MODEL 2
REMARK VINA RESULT:      -7.0      2.300      4.822
REMARK  11 active torsions:
REMARK  status: ('A' for Active; 'I' for Inactive)
REMARK    1  A    between atoms: C1_1  and  C2_2 
REMARK    2  A    between atoms: C1_1  and  C10_13 
REMARK    3  A    between atoms: C2_2  and  C3_3 
REMARK    4  A    between atoms: C3_3  and  C4_4 
REMARK    5  A    between atoms: C6_6  and  O1_7 
REMARK    6  A    between atoms: C7_8  and  O2_9 
REMARK    7  A    between atoms: C10_13  and  O4_14 
REMARK    8  A    between atoms: C10_13  and  C11_15 
REMARK    9  A    between atoms: C11_15  and  O5_16 
REMARK   10  A    between atoms: C11_15  and  C12_17 
REMARK   11  A    between atoms: C12_17  and  O6_18 
ROOT
HETATM    1  C1  UNL     1      12.663   5.871  11.764  1.00  0.00     0.158 C 
HETATM    2  O3  UNL     1      11.856   6.744  12.096  1.00  0.00    -0.295 OA
ENDROOT
BRANCH   1   3
HETATM    3  C2  UNL     1      13.721   5.386  12.740  1.00  0.00     0.086 C 
BRANCH   3   4
HETATM    4  C3  UNL     1      14.799   6.425  13.041  1.00  0.00     0.046 C 
BRANCH   4   5
HETATM    5  C4  UNL     1      15.970   6.381  12.087  1.00  0.00    -0.055 A 
HETATM    6  C5  UNL     1      16.020   7.234  10.973  1.00  0.00     0.046 A 
HETATM    7  C6  UNL     1      17.104   7.167  10.104  1.00  0.00     0.099 A 
HETATM    8  C7  UNL     1      18.139   6.266  10.335  1.00  0.00     0.098 A 
HETATM    9  C8  UNL     1      18.109   5.421  11.432  1.00  0.00     0.040 A 
HETATM   10  C9  UNL     1      17.025   5.479  12.309  1.00  0.00     0.010 A 
BRANCH   7  11
HETATM   11  O1  UNL     1      17.197   7.972   9.001  1.00  0.00    -0.358 OA
HETATM   12  H   UNL     1      17.657   7.674   8.241  1.00  0.00     0.217 HD
ENDBRANCH   7  11
BRANCH   8  13
HETATM   13  O2  UNL     1      19.198   6.209   9.475  1.00  0.00    -0.358 OA
HETATM   14  H   UNL     1      19.983   5.765   9.728  1.00  0.00     0.217 HD
ENDBRANCH   8  13
ENDBRANCH   4   5
ENDBRANCH   3   4
ENDBRANCH   1   3
BRANCH   1  15
HETATM   15  C10 UNL     1      12.602   5.204  10.388  1.00  0.00     0.218 C 
BRANCH  15  16
HETATM   16  O4  UNL     1      11.256   4.790  10.156  1.00  0.00    -0.385 OA
HETATM   17  H   UNL     1      10.861   5.344   9.464  1.00  0.00     0.210 HD
ENDBRANCH  15  16
BRANCH  15  18
HETATM   18  C11 UNL     1      13.095   6.160   9.281  1.00  0.00     0.177 C 
BRANCH  18  19
HETATM   19  O5  UNL     1      14.206   5.600   8.564  1.00  0.00    -0.390 OA
HETATM   20  H   UNL     1      14.355   6.108   7.751  1.00  0.00     0.210 HD
ENDBRANCH  18  19
BRANCH  18  21
HETATM   21  C12 UNL     1      11.995   6.429   8.246  1.00  0.00     0.198 C 
BRANCH  21  22
HETATM   22  O6  UNL     1      12.559   6.439   6.933  1.00  0.00    -0.398 OA
HETATM   23  H   UNL     1      12.212   7.198   6.437  1.00  0.00     0.209 HD
ENDBRANCH  21  22
ENDBRANCH  18  21
ENDBRANCH  15  18
ENDBRANCH   1  15
TORSDOF 11
ENDMDL
MODEL 3
REMARK VINA RESULT:      -6.9      2.586      4.843
REMARK  11 active torsions:
REMARK  status: ('A' for Active; 'I' for Inactive)
REMARK    1  A    between atoms: C1_1  and  C2_2 
REMARK    2  A    between atoms: C1_1  and  C10_13 
REMARK    3  A    between atoms: C2_2  and  C3_3 
REMARK    4  A    between atoms: C3_3  and  C4_4 
REMARK    5  A    between atoms: C6_6  and  O1_7 
REMARK    6  A    between atoms: C7_8  and  O2_9 
REMARK    7  A    between atoms: C10_13  and  O4_14 
REMARK    8  A    between atoms: C10_13  and  C11_15 
REMARK    9  A    between atoms: C11_15  and  O5_16 
REMARK   10  A    between atoms: C11_15  and  C12_17 
REMARK   11  A    between atoms: C12_17  and  O6_18 
ROOT
HETATM    1  C1  UNL     1      12.812   5.895  11.790  1.00  0.00     0.158 C 
HETATM    2  O3  UNL     1      11.918   6.573  12.308  1.00  0.00    -0.295 OA
ENDROOT
BRANCH   1   3
HETATM    3  C2  UNL     1      14.097   5.605  12.546  1.00  0.00     0.086 C 
BRANCH   3   4
HETATM    4  C3  UNL     1      15.226   6.582  12.230  1.00  0.00     0.046 C 
BRANCH   4   5
HETATM    5  C4  UNL     1      16.594   5.943  12.205  1.00  0.00    -0.055 A 
HETATM    6  C5  UNL     1      17.380   5.975  11.041  1.00  0.00     0.046 A 
HETATM    7  C6  UNL     1      18.633   5.370  11.039  1.00  0.00     0.099 A 
HETATM    8  C7  UNL     1      19.113   4.740  12.183  1.00  0.00     0.098 A 
HETATM    9  C8  UNL     1      18.354   4.701  13.342  1.00  0.00     0.040 A 
HETATM   10  C9  UNL     1      17.096   5.305  13.353  1.00  0.00     0.010 A 
BRANCH   7  11
HETATM   11  O1  UNL     1      19.433   5.369   9.930  1.00  0.00    -0.358 OA
HETATM   12  H   UNL     1      19.996   6.098   9.758  1.00  0.00     0.217 HD
ENDBRANCH   7  11
BRANCH   8  13
HETATM   13  O2  UNL     1      20.343   4.148  12.171  1.00  0.00    -0.358 OA
HETATM   14  H   UNL     1      20.543   3.469  12.784  1.00  0.00     0.217 HD
ENDBRANCH   8  13
ENDBRANCH   4   5
ENDBRANCH   3   4
ENDBRANCH   1   3
BRANCH   1  15
HETATM   15  C10 UNL     1      12.645   5.277  10.401  1.00  0.00     0.218 C 
BRANCH  15  16
HETATM   16  O4  UNL     1      11.264   4.964  10.217  1.00  0.00    -0.385 OA
HETATM   17  H   UNL     1      11.147   4.001  10.214  1.00  0.00     0.210 HD
ENDBRANCH  15  16
BRANCH  15  18
HETATM   18  C11 UNL     1      13.156   6.229   9.299  1.00  0.00     0.177 C 
BRANCH  18  19
HETATM   19  O5  UNL     1      14.521   5.943   8.954  1.00  0.00    -0.390 OA
HETATM   20  H   UNL     1      14.594   5.829   7.994  1.00  0.00     0.210 HD
ENDBRANCH  18  19
BRANCH  18  21
HETATM   21  C12 UNL     1      12.338   6.082   8.010  1.00  0.00     0.198 C 
BRANCH  21  22
HETATM   22  O6  UNL     1      13.208   6.129   6.877  1.00  0.00    -0.398 OA
HETATM   23  H   UNL     1      13.242   5.254   6.459  1.00  0.00     0.209 HD
ENDBRANCH  21  22
ENDBRANCH  18  21
ENDBRANCH  15  18
ENDBRANCH   1  15
TORSDOF 11
ENDMDL
MODEL 4
REMARK VINA RESULT:      -6.8      2.317      5.037
REMARK  11 active torsions:
REMARK  status: ('A' for Active; 'I' for Inactive)
REMARK    1  A    between atoms: C1_1  and  C2_2 
REMARK    2  A    between atoms: C1_1  and  C10_13 
REMARK    3  A    between atoms: C2_2  and  C3_3 
REMARK    4  A    between atoms: C3_3  and  C4_4 
REMARK    5  A    between atoms: C6_6  and  O1_7 
REMARK    6  A    between atoms: C7_8  and  O2_9 
REMARK    7  A    between atoms: C10_13  and  O4_14 
REMARK    8  A    between atoms: C10_13  and  C11_15 
REMARK    9  A    between atoms: C11_15  and  O5_16 
REMARK   10  A    between atoms: C11_15  and  C12_17 
REMARK   11  A    between atoms: C12_17  and  O6_18 
ROOT
HETATM    1  C1  UNL     1      12.752   5.760  11.814  1.00  0.00     0.158 C 
HETATM    2  O3  UNL     1      11.954   6.581  12.278  1.00  0.00    -0.295 OA
ENDROOT
BRANCH   1   3
HETATM    3  C2  UNL     1      13.913   5.254  12.651  1.00  0.00     0.086 C 
BRANCH   3   4
HETATM    4  C3  UNL     1      14.951   6.327  12.972  1.00  0.00     0.046 C 
BRANCH   4   5
HETATM    5  C4  UNL     1      16.024   6.469  11.919  1.00  0.00    -0.055 A 
HETATM    6  C5  UNL     1      17.136   5.611  11.907  1.00  0.00     0.046 A 
HETATM    7  C6  UNL     1      18.117   5.768  10.934  1.00  0.00     0.099 A 
HETATM    8  C7  UNL     1      18.000   6.765   9.970  1.00  0.00     0.098 A 
HETATM    9  C8  UNL     1      16.909   7.618   9.962  1.00  0.00     0.040 A 
HETATM   10  C9  UNL     1      15.919   7.469  10.935  1.00  0.00     0.010 A 
BRANCH   7  11
HETATM   11  O1  UNL     1      19.221   4.963  10.883  1.00  0.00    -0.358 OA
HETATM   12  H   UNL     1      19.124   4.032  10.931  1.00  0.00     0.217 HD
ENDBRANCH   7  11
BRANCH   8  13
HETATM   13  O2  UNL     1      18.969   6.911   9.019  1.00  0.00    -0.358 OA
HETATM   14  H   UNL     1      18.757   7.290   8.188  1.00  0.00     0.217 HD
ENDBRANCH   8  13
ENDBRANCH   4   5
ENDBRANCH   3   4
ENDBRANCH   1   3
BRANCH   1  15
HETATM   15  C10 UNL     1      12.578   5.180  10.408  1.00  0.00     0.218 C 
BRANCH  15  16
HETATM   16  O4  UNL     1      11.201   4.846  10.234  1.00  0.00    -0.385 OA
HETATM   17  H   UNL     1      10.761   4.827  11.099  1.00  0.00     0.210 HD
ENDBRANCH  15  16
BRANCH  15  18
HETATM   18  C11 UNL     1      13.056   6.175   9.330  1.00  0.00     0.177 C 
BRANCH  18  19
HETATM   19  O5  UNL     1      14.190   5.663   8.612  1.00  0.00    -0.390 OA
HETATM   20  H   UNL     1      15.006   5.925   9.067  1.00  0.00     0.210 HD
ENDBRANCH  18  19
BRANCH  18  21
HETATM   21  C12 UNL     1      11.961   6.437   8.288  1.00  0.00     0.198 C 
BRANCH  21  22
HETATM   22  O6  UNL     1      12.532   6.449   6.978  1.00  0.00    -0.398 OA
HETATM   23  H   UNL     1      12.437   5.571   6.576  1.00  0.00     0.209 HD
ENDBRANCH  21  22
ENDBRANCH  18  21
ENDBRANCH  15  18
ENDBRANCH   1  15
TORSDOF 11
ENDMDL
MODEL 5
REMARK VINA RESULT:      -6.7      1.581      5.980
REMARK  11 active torsions:
REMARK  status: ('A' for Active; 'I' for Inactive)
REMARK    1  A    between atoms: C1_1  and  C2_2 
REMARK    2  A    between atoms: C1_1  and  C10_13 
REMARK    3  A    between atoms: C2_2  and  C3_3 
REMARK    4  A    between atoms: C3_3  and  C4_4 
REMARK    5  A    between atoms: C6_6  and  O1_7 
REMARK    6  A    between atoms: C7_8  and  O2_9 
REMARK    7  A    between atoms: C10_13  and  O4_14 
REMARK    8  A    between atoms: C10_13  and  C11_15 
REMARK    9  A    between atoms: C11_15  and  O5_16 
REMARK   10  A    between atoms: C11_15  and  C12_17 
REMARK   11  A    between atoms: C12_17  and  O6_18 
ROOT
HETATM    1  C1  UNL     1      15.095   5.633  15.138  1.00  0.00     0.158 C 
HETATM    2  O3  UNL     1      15.345   4.424  15.095  1.00  0.00    -0.295 OA
ENDROOT
BRANCH   1   3
HETATM    3  C2  UNL     1      15.370   6.522  13.939  1.00  0.00     0.086 C 
BRANCH   3   4
HETATM    4  C3  UNL     1      15.732   5.748  12.673  1.00  0.00     0.046 C 
BRANCH   4   5
HETATM    5  C4  UNL     1      14.649   5.765  11.620  1.00  0.00    -0.055 A 
HETATM    6  C5  UNL     1      13.334   5.388  11.936  1.00  0.00     0.046 A 
HETATM    7  C6  UNL     1      12.357   5.401  10.946  1.00  0.00     0.099 A 
HETATM    8  C7  UNL     1      12.674   5.791   9.649  1.00  0.00     0.098 A 
HETATM    9  C8  UNL     1      13.964   6.171   9.319  1.00  0.00     0.040 A 
HETATM   10  C9  UNL     1      14.952   6.161  10.305  1.00  0.00     0.010 A 
BRANCH   7  11
HETATM   11  O1  UNL     1      11.064   5.037  11.202  1.00  0.00    -0.358 OA
HETATM   12  H   UNL     1      10.766   4.957  12.087  1.00  0.00     0.217 HD
ENDBRANCH   7  11
BRANCH   8  13
HETATM   13  O2  UNL     1      11.707   5.801   8.684  1.00  0.00    -0.358 OA
HETATM   14  H   UNL     1      11.767   6.400   7.966  1.00  0.00     0.217 HD
ENDBRANCH   8  13
ENDBRANCH   4   5
ENDBRANCH   3   4
ENDBRANCH   1   3
BRANCH   1  15
HETATM   15  C10 UNL     1      14.452   6.274  16.370  1.00  0.00     0.218 C 
BRANCH  15  16
HETATM   16  O4  UNL     1      14.943   7.610  16.481  1.00  0.00    -0.385 OA
HETATM   17  H   UNL     1      14.739   7.957  17.364  1.00  0.00     0.210 HD
ENDBRANCH  15  16
BRANCH  15  18
HETATM   18  C11 UNL     1      12.912   6.247  16.276  1.00  0.00     0.177 C 
BRANCH  18  19
HETATM   19  O5  UNL     1      12.307   6.820  17.445  1.00  0.00    -0.390 OA
HETATM   20  H   UNL     1      11.656   6.200  17.809  1.00  0.00     0.210 HD
ENDBRANCH  18  19
BRANCH  18  21
HETATM   21  C12 UNL     1      12.412   7.064  15.078  1.00  0.00     0.198 C 
BRANCH  21  22
HETATM   22  O6  UNL     1      11.159   6.544  14.627  1.00  0.00    -0.398 OA
HETATM   23  H   UNL     1      10.537   7.275  14.486  1.00  0.00     0.209 HD
ENDBRANCH  21  22
ENDBRANCH  18  21
ENDBRANCH  15  18
ENDBRANCH   1  15
TORSDOF 11
ENDMDL
MODEL 6
REMARK VINA RESULT:      -6.7      1.647      6.347
REMARK  11 active torsions:
REMARK  status: ('A' for Active; 'I' for Inactive)
REMARK    1  A    between atoms: C1_1  and  C2_2 
REMARK    2  A    between atoms: C1_1  and  C10_13 
REMARK    3  A    between atoms: C2_2  and  C3_3 
REMARK    4  A    between atoms: C3_3  and  C4_4 
REMARK    5  A    between atoms: C6_6  and  O1_7 
REMARK    6  A    between atoms: C7_8  and  O2_9 
REMARK    7  A    between atoms: C10_13  and  O4_14 
REMARK    8  A    between atoms: C10_13  and  C11_15 
REMARK    9  A    between atoms: C11_15  and  O5_16 
REMARK   10  A    between atoms: C11_15  and  C12_17 
REMARK   11  A    between atoms: C12_17  and  O6_18 
ROOT
HETATM    1  C1  UNL     1      14.640   5.247  14.041  1.00  0.00     0.158 C 
HETATM    2  O3  UNL     1      15.460   4.482  14.558  1.00  0.00    -0.295 OA
ENDROOT
BRANCH   1   3
HETATM    3  C2  UNL     1      15.089   6.305  13.049  1.00  0.00     0.086 C 
BRANCH   3   4
HETATM    4  C3  UNL     1      15.367   5.756  11.652  1.00  0.00     0.046 C 
BRANCH   4   5
HETATM    5  C4  UNL     1      14.244   5.994  10.670  1.00  0.00    -0.055 A 
HETATM    6  C5  UNL     1      14.485   5.975   9.286  1.00  0.00     0.046 A 
HETATM    7  C6  UNL     1      13.436   6.208   8.402  1.00  0.00     0.099 A 
HETATM    8  C7  UNL     1      12.152   6.452   8.880  1.00  0.00     0.098 A 
HETATM    9  C8  UNL     1      11.895   6.470  10.241  1.00  0.00     0.040 A 
HETATM   10  C9  UNL     1      12.940   6.239  11.136  1.00  0.00     0.010 A 
BRANCH   7  11
HETATM   11  O1  UNL     1      13.620   6.206   7.047  1.00  0.00    -0.358 OA
HETATM   12  H   UNL     1      14.021   6.942   6.627  1.00  0.00     0.217 HD
ENDBRANCH   7  11
BRANCH   8  13
HETATM   13  O2  UNL     1      11.130   6.679   8.003  1.00  0.00    -0.358 OA
HETATM   14  H   UNL     1      10.618   5.962   7.685  1.00  0.00     0.217 HD
ENDBRANCH   8  13
ENDBRANCH   4   5
ENDBRANCH   3   4
ENDBRANCH   1   3
BRANCH   1  15
HETATM   15  C10 UNL     1      13.142   5.129  14.330  1.00  0.00     0.218 C 
BRANCH  15  16
HETATM   16  O4  UNL     1      12.941   3.991  15.170  1.00  0.00    -0.385 OA
HETATM   17  H   UNL     1      12.130   3.532  14.903  1.00  0.00     0.210 HD
ENDBRANCH  15  16
BRANCH  15  18
HETATM   18  C11 UNL     1      12.596   6.414  14.985  1.00  0.00     0.177 C 
BRANCH  18  19
HETATM   19  O5  UNL     1      11.160   6.403  15.041  1.00  0.00    -0.390 OA
HETATM   20  H   UNL     1      10.843   5.487  15.027  1.00  0.00     0.210 HD
ENDBRANCH  18  19
BRANCH  18  21
HETATM   21  C12 UNL     1      13.089   6.558  16.431  1.00  0.00     0.198 C 
BRANCH  21  22
HETATM   22  O6  UNL     1      12.004   6.942  17.277  1.00  0.00    -0.398 OA
HETATM   23  H   UNL     1      11.179   6.556  16.941  1.00  0.00     0.209 HD
ENDBRANCH  21  22
ENDBRANCH  18  21
ENDBRANCH  15  18
ENDBRANCH   1  15
TORSDOF 11
ENDMDL
MODEL 7
REMARK VINA RESULT:      -6.4      2.237      5.218
REMARK  11 active torsions:
REMARK  status: ('A' for Active; 'I' for Inactive)
REMARK    1  A    between atoms: C1_1  and  C2_2 
REMARK    2  A    between atoms: C1_1  and  C10_13 
REMARK    3  A    between atoms: C2_2  and  C3_3 
REMARK    4  A    between atoms: C3_3  and  C4_4 
REMARK    5  A    between atoms: C6_6  and  O1_7 
REMARK    6  A    between atoms: C7_8  and  O2_9 
REMARK    7  A    between atoms: C10_13  and  O4_14 
REMARK    8  A    between atoms: C10_13  and  C11_15 
REMARK    9  A    between atoms: C11_15  and  O5_16 
REMARK   10  A    between atoms: C11_15  and  C12_17 
REMARK   11  A    between atoms: C12_17  and  O6_18 
ROOT
HETATM    1  C1  UNL     1      13.745   6.013  14.115  1.00  0.00     0.158 C 
HETATM    2  O3  UNL     1      13.896   7.075  14.726  1.00  0.00    -0.295 OA
ENDROOT
BRANCH   1   3
HETATM    3  C2  UNL     1      14.905   5.049  13.943  1.00  0.00     0.086 C 
BRANCH   3   4
HETATM    4  C3  UNL     1      16.273   5.725  13.980  1.00  0.00     0.046 C 
BRANCH   4   5
HETATM    5  C4  UNL     1      16.910   5.884  12.619  1.00  0.00    -0.055 A 
HETATM    6  C5  UNL     1      16.297   6.667  11.627  1.00  0.00     0.046 A 
HETATM    7  C6  UNL     1      16.897   6.790  10.378  1.00  0.00     0.099 A 
HETATM    8  C7  UNL     1      18.102   6.149  10.109  1.00  0.00     0.098 A 
HETATM    9  C8  UNL     1      18.724   5.376  11.076  1.00  0.00     0.040 A 
HETATM   10  C9  UNL     1      18.130   5.246  12.332  1.00  0.00     0.010 A 
BRANCH   7  11
HETATM   11  O1  UNL     1      16.337   7.535   9.378  1.00  0.00    -0.358 OA
HETATM   12  H   UNL     1      16.852   8.174   8.925  1.00  0.00     0.217 HD
ENDBRANCH   7  11
BRANCH   8  13
HETATM   13  O2  UNL     1      18.683   6.276   8.880  1.00  0.00    -0.358 OA
HETATM   14  H   UNL     1      18.150   6.295   8.110  1.00  0.00     0.217 HD
ENDBRANCH   8  13
ENDBRANCH   4   5
ENDBRANCH   3   4
ENDBRANCH   1   3
BRANCH   1  15
HETATM   15  C10 UNL     1      12.382   5.597  13.557  1.00  0.00     0.218 C 
BRANCH  15  16
HETATM   16  O4  UNL     1      11.519   6.734  13.604  1.00  0.00    -0.385 OA
HETATM   17  H   UNL     1      12.052   7.544  13.633  1.00  0.00     0.210 HD
ENDBRANCH  15  16
BRANCH  15  18
HETATM   18  C11 UNL     1      12.509   5.047  12.121  1.00  0.00     0.177 C 
BRANCH  18  19
HETATM   19  O5  UNL     1      11.536   4.021  11.866  1.00  0.00    -0.390 OA
HETATM   20  H   UNL     1      11.911   3.364  11.260  1.00  0.00     0.210 HD
ENDBRANCH  18  19
BRANCH  18  21
HETATM   21  C12 UNL     1      12.271   6.147  11.079  1.00  0.00     0.198 C 
BRANCH  21  22
HETATM   22  O6  UNL     1      11.419   5.654  10.042  1.00  0.00    -0.398 OA
HETATM   23  H   UNL     1      11.196   6.378   9.435  1.00  0.00     0.209 HD
ENDBRANCH  21  22
ENDBRANCH  18  21
ENDBRANCH  15  18
ENDBRANCH   1  15
TORSDOF 11
ENDMDL
MODEL 8
REMARK VINA RESULT:      -6.4      2.466      5.979
REMARK  11 active torsions:
REMARK  status: ('A' for Active; 'I' for Inactive)
REMARK    1  A    between atoms: C1_1  and  C2_2 
REMARK    2  A    between atoms: C1_1  and  C10_13 
REMARK    3  A    between atoms: C2_2  and  C3_3 
REMARK    4  A    between atoms: C3_3  and  C4_4 
REMARK    5  A    between atoms: C6_6  and  O1_7 
REMARK    6  A    between atoms: C7_8  and  O2_9 
REMARK    7  A    between atoms: C10_13  and  O4_14 
REMARK    8  A    between atoms: C10_13  and  C11_15 
REMARK    9  A    between atoms: C11_15  and  O5_16 
REMARK   10  A    between atoms: C11_15  and  C12_17 
REMARK   11  A    between atoms: C12_17  and  O6_18 
ROOT
HETATM    1  C1  UNL     1      12.592   5.395  12.459  1.00  0.00     0.158 C 
HETATM    2  O3  UNL     1      11.887   4.411  12.214  1.00  0.00    -0.295 OA
ENDROOT
BRANCH   1   3
HETATM    3  C2  UNL     1      13.513   5.969  11.397  1.00  0.00     0.086 C 
BRANCH   3   4
HETATM    4  C3  UNL     1      14.618   6.858  11.961  1.00  0.00     0.046 C 
BRANCH   4   5
HETATM    5  C4  UNL     1      16.008   6.304  11.756  1.00  0.00    -0.055 A 
HETATM    6  C5  UNL     1      16.611   6.329  10.488  1.00  0.00     0.046 A 
HETATM    7  C6  UNL     1      17.888   5.803  10.323  1.00  0.00     0.099 A 
HETATM    8  C7  UNL     1      18.573   5.260  11.405  1.00  0.00     0.098 A 
HETATM    9  C8  UNL     1      17.997   5.231  12.665  1.00  0.00     0.040 A 
HETATM   10  C9  UNL     1      16.715   5.755  12.841  1.00  0.00     0.010 A 
BRANCH   7  11
HETATM   11  O1  UNL     1      18.515   5.797   9.107  1.00  0.00    -0.358 OA
HETATM   12  H   UNL     1      18.045   5.540   8.338  1.00  0.00     0.217 HD
ENDBRANCH   7  11
BRANCH   8  13
HETATM   13  O2  UNL     1      19.826   4.746  11.232  1.00  0.00    -0.358 OA
HETATM   14  H   UNL     1      20.577   5.257  11.459  1.00  0.00     0.217 HD
ENDBRANCH   8  13
ENDBRANCH   4   5
ENDBRANCH   3   4
ENDBRANCH   1   3
BRANCH   1  15
HETATM   15  C10 UNL     1      12.530   6.108  13.811  1.00  0.00     0.218 C 
BRANCH  15  16
HETATM   16  O4  UNL     1      11.181   6.523  14.032  1.00  0.00    -0.385 OA
HETATM   17  H   UNL     1      11.177   7.355  14.530  1.00  0.00     0.210 HD
ENDBRANCH  15  16
BRANCH  15  18
HETATM   18  C11 UNL     1      13.029   5.193  14.949  1.00  0.00     0.177 C 
BRANCH  18  19
HETATM   19  O5  UNL     1      13.917   4.179  14.453  1.00  0.00    -0.390 OA
HETATM   20  H   UNL     1      14.290   3.684  15.199  1.00  0.00     0.210 HD
ENDBRANCH  18  19
BRANCH  18  21
HETATM   21  C12 UNL     1      13.814   5.988  16.001  1.00  0.00     0.198 C 
BRANCH  21  22
HETATM   22  O6  UNL     1      13.768   7.381  15.688  1.00  0.00    -0.398 OA
HETATM   23  H   UNL     1      12.866   7.713  15.822  1.00  0.00     0.209 HD
ENDBRANCH  21  22
ENDBRANCH  18  21
ENDBRANCH  15  18
ENDBRANCH   1  15
TORSDOF 11
ENDMDL
MODEL 9
REMARK VINA RESULT:      -6.4      2.636      6.325
REMARK  11 active torsions:
REMARK  status: ('A' for Active; 'I' for Inactive)
REMARK    1  A    between atoms: C1_1  and  C2_2 
REMARK    2  A    between atoms: C1_1  and  C10_13 
REMARK    3  A    between atoms: C2_2  and  C3_3 
REMARK    4  A    between atoms: C3_3  and  C4_4 
REMARK    5  A    between atoms: C6_6  and  O1_7 
REMARK    6  A    between atoms: C7_8  and  O2_9 
REMARK    7  A    between atoms: C10_13  and  O4_14 
REMARK    8  A    between atoms: C10_13  and  C11_15 
REMARK    9  A    between atoms: C11_15  and  O5_16 
REMARK   10  A    between atoms: C11_15  and  C12_17 
REMARK   11  A    between atoms: C12_17  and  O6_18 
ROOT
HETATM    1  C1  UNL     1      14.415   4.991  14.461  1.00  0.00     0.158 C 
HETATM    2  O3  UNL     1      14.383   3.831  14.883  1.00  0.00    -0.295 OA
ENDROOT
BRANCH   1   3
HETATM    3  C2  UNL     1      15.697   5.802  14.528  1.00  0.00     0.086 C 
BRANCH   3   4
HETATM    4  C3  UNL     1      16.932   5.036  14.060  1.00  0.00     0.046 C 
BRANCH   4   5
HETATM    5  C4  UNL     1      17.349   5.361  12.645  1.00  0.00    -0.055 A 
HETATM    6  C5  UNL     1      16.455   5.984  11.759  1.00  0.00     0.046 A 
HETATM    7  C6  UNL     1      16.860   6.264  10.457  1.00  0.00     0.099 A 
HETATM    8  C7  UNL     1      18.144   5.936  10.032  1.00  0.00     0.098 A 
HETATM    9  C8  UNL     1      19.040   5.326  10.894  1.00  0.00     0.040 A 
HETATM   10  C9  UNL     1      18.644   5.041  12.201  1.00  0.00     0.010 A 
BRANCH   7  11
HETATM   11  O1  UNL     1      16.025   6.863   9.555  1.00  0.00    -0.358 OA
HETATM   12  H   UNL     1      15.567   7.647   9.788  1.00  0.00     0.217 HD
ENDBRANCH   7  11
BRANCH   8  13
HETATM   13  O2  UNL     1      18.530   6.215   8.753  1.00  0.00    -0.358 OA
HETATM   14  H   UNL     1      18.399   5.581   8.075  1.00  0.00     0.217 HD
ENDBRANCH   8  13
ENDBRANCH   4   5
ENDBRANCH   3   4
ENDBRANCH   1   3
BRANCH   1  15
HETATM   15  C10 UNL     1      13.193   5.639  13.806  1.00  0.00     0.218 C 
BRANCH  15  16
HETATM   16  O4  UNL     1      12.264   4.605  13.480  1.00  0.00    -0.385 OA
HETATM   17  H   UNL     1      11.660   4.467  14.226  1.00  0.00     0.210 HD
ENDBRANCH  15  16
BRANCH  15  18
HETATM   18  C11 UNL     1      12.556   6.695  14.734  1.00  0.00     0.177 C 
BRANCH  18  19
HETATM   19  O5  UNL     1      11.123   6.675  14.641  1.00  0.00    -0.390 OA
HETATM   20  H   UNL     1      10.833   7.322  13.979  1.00  0.00     0.210 HD
ENDBRANCH  18  19
BRANCH  18  21
HETATM   21  C12 UNL     1      12.904   6.429  16.204  1.00  0.00     0.198 C 
BRANCH  21  22
HETATM   22  O6  UNL     1      11.878   6.958  17.047  1.00  0.00    -0.398 OA
HETATM   23  H   UNL     1      11.824   7.920  16.925  1.00  0.00     0.209 HD
ENDBRANCH  21  22
ENDBRANCH  18  21
ENDBRANCH  15  18
ENDBRANCH   1  15
TORSDOF 11
ENDMDL
