MODEL 1
REMARK VINA RESULT:      -4.3      0.000      0.000
REMARK  6 active torsions:
REMARK  status: ('A' for Active; 'I' for Inactive)
REMARK    1  A    between atoms: N_3  and  CA_7 
REMARK    2  A    between atoms: N_4  and  C_8 
REMARK    3  A    between atoms: C_5  and  C_6 
REMARK    4  A    between atoms: C_5  and  CA_7 
REMARK    5  A    between atoms: C_6  and  C_8 
REMARK    6  A    between atoms: CA_7  and  C_9 
ROOT
HETATM    1  O   UNL     1       5.530  -9.552  58.111  1.00  0.00    -0.646 OA
HETATM    2  OXT UNL     1       3.905  -9.809  56.551  1.00  0.00    -0.646 OA
HETATM    3  C   UNL     1       4.818  -9.146  57.025  1.00  0.00     0.204 C 
ENDROOT
BRANCH   3   4
HETATM    4  CA  UNL     1       5.297  -7.804  56.501  1.00  0.00     0.283 C 
BRANCH   4   5
HETATM    5  N   UNL     1       6.575  -8.013  55.819  1.00  0.00    -0.065 N 
HETATM    6  H   UNL     1       6.618  -8.969  55.463  1.00  0.00     0.275 HD
HETATM    7  H   UNL     1       7.340  -7.861  56.477  1.00  0.00     0.275 HD
HETATM    8  H   UNL     1       6.657  -7.356  55.043  1.00  0.00     0.275 HD
ENDBRANCH   4   5
BRANCH   4   9
HETATM    9  C   UNL     1       4.254  -7.121  55.604  1.00  0.00     0.045 C 
BRANCH   9  10
HETATM   10  C   UNL     1       3.793  -5.738  56.084  1.00  0.00     0.030 C 
BRANCH  10  11
HETATM   11  C   UNL     1       3.897  -4.707  54.959  1.00  0.00     0.230 C 
BRANCH  11  12
HETATM   12  N   UNL     1       5.101  -4.939  54.169  1.00  0.00    -0.079 N 
HETATM   13  H   UNL     1       5.923  -4.840  54.764  1.00  0.00     0.274 HD
HETATM   14  H   UNL     1       5.147  -4.257  53.412  1.00  0.00     0.274 HD
HETATM   15  H   UNL     1       5.075  -5.881  53.778  1.00  0.00     0.274 HD
ENDBRANCH  11  12
ENDBRANCH  10  11
ENDBRANCH   9  10
ENDBRANCH   4   9
ENDBRANCH   3   4
TORSDOF 6
ENDMDL
MODEL 2
REMARK VINA RESULT:      -4.2      2.641      4.606
REMARK  6 active torsions:
REMARK  status: ('A' for Active; 'I' for Inactive)
REMARK    1  A    between atoms: N_3  and  CA_7 
REMARK    2  A    between atoms: N_4  and  C_8 
REMARK    3  A    between atoms: C_5  and  C_6 
REMARK    4  A    between atoms: C_5  and  CA_7 
REMARK    5  A    between atoms: C_6  and  C_8 
REMARK    6  A    between atoms: CA_7  and  C_9 
ROOT
HETATM    1  O   UNL     1       4.824  -6.256  57.035  1.00  0.00    -0.646 OA
HETATM    2  OXT UNL     1       3.977  -6.393  54.937  1.00  0.00    -0.646 OA
HETATM    3  C   UNL     1       4.623  -6.891  55.849  1.00  0.00     0.204 C 
ENDROOT
BRANCH   3   4
HETATM    4  CA  UNL     1       5.289  -8.255  55.816  1.00  0.00     0.283 C 
BRANCH   4   5
HETATM    5  N   UNL     1       6.737  -8.055  55.869  1.00  0.00    -0.065 N 
HETATM    6  H   UNL     1       6.941  -7.056  55.906  1.00  0.00     0.275 HD
HETATM    7  H   UNL     1       7.167  -8.459  55.037  1.00  0.00     0.275 HD
HETATM    8  H   UNL     1       7.113  -8.510  56.701  1.00  0.00     0.275 HD
ENDBRANCH   4   5
BRANCH   4   9
HETATM    9  C   UNL     1       4.779  -9.181  56.931  1.00  0.00     0.045 C 
BRANCH   9  10
HETATM   10  C   UNL     1       5.868  -9.984  57.656  1.00  0.00     0.030 C 
BRANCH  10  11
HETATM   11  C   UNL     1       5.287 -10.730  58.858  1.00  0.00     0.230 C 
BRANCH  11  12
HETATM   12  N   UNL     1       5.375 -12.171  58.650  1.00  0.00    -0.079 N 
HETATM   13  H   UNL     1       6.334 -12.423  58.415  1.00  0.00     0.274 HD
HETATM   14  H   UNL     1       4.755 -12.443  57.887  1.00  0.00     0.274 HD
HETATM   15  H   UNL     1       5.096 -12.655  59.503  1.00  0.00     0.274 HD
ENDBRANCH  11  12
ENDBRANCH  10  11
ENDBRANCH   9  10
ENDBRANCH   4   9
ENDBRANCH   3   4
TORSDOF 6
ENDMDL
MODEL 3
REMARK VINA RESULT:      -4.1     15.114     16.305
REMARK  6 active torsions:
REMARK  status: ('A' for Active; 'I' for Inactive)
REMARK    1  A    between atoms: N_3  and  CA_7 
REMARK    2  A    between atoms: N_4  and  C_8 
REMARK    3  A    between atoms: C_5  and  C_6 
REMARK    4  A    between atoms: C_5  and  CA_7 
REMARK    5  A    between atoms: C_6  and  C_8 
REMARK    6  A    between atoms: CA_7  and  C_9 
ROOT
HETATM    1  O   UNL     1      -5.907  -3.219  46.441  1.00  0.00    -0.646 OA
HETATM    2  OXT UNL     1      -6.055  -4.820  48.039  1.00  0.00    -0.646 OA
HETATM    3  C   UNL     1      -6.426  -4.361  46.967  1.00  0.00     0.204 C 
ENDROOT
BRANCH   3   4
HETATM    4  CA  UNL     1      -7.493  -4.965  46.072  1.00  0.00     0.283 C 
BRANCH   4   5
HETATM    5  N   UNL     1      -7.411  -6.421  46.187  1.00  0.00    -0.065 N 
HETATM    6  H   UNL     1      -7.056  -6.812  45.313  1.00  0.00     0.275 HD
HETATM    7  H   UNL     1      -8.338  -6.800  46.377  1.00  0.00     0.275 HD
HETATM    8  H   UNL     1      -6.780  -6.666  46.950  1.00  0.00     0.275 HD
ENDBRANCH   4   5
BRANCH   4   9
HETATM    9  C   UNL     1      -8.896  -4.425  46.388  1.00  0.00     0.045 C 
BRANCH   9  10
HETATM   10  C   UNL     1      -9.343  -3.237  45.526  1.00  0.00     0.030 C 
BRANCH  10  11
HETATM   11  C   UNL     1      -9.252  -1.927  46.310  1.00  0.00     0.230 C 
BRANCH  11  12
HETATM   12  N   UNL     1      -8.080  -1.167  45.892  1.00  0.00    -0.079 N 
HETATM   13  H   UNL     1      -7.957  -1.258  44.884  1.00  0.00     0.274 HD
HETATM   14  H   UNL     1      -7.254  -1.527  46.369  1.00  0.00     0.274 HD
HETATM   15  H   UNL     1      -8.210  -0.183  46.131  1.00  0.00     0.274 HD
ENDBRANCH  11  12
ENDBRANCH  10  11
ENDBRANCH   9  10
ENDBRANCH   4   9
ENDBRANCH   3   4
TORSDOF 6
ENDMDL
MODEL 4
REMARK VINA RESULT:      -4.1      2.517      3.881
REMARK  6 active torsions:
REMARK  status: ('A' for Active; 'I' for Inactive)
REMARK    1  A    between atoms: N_3  and  CA_7 
REMARK    2  A    between atoms: N_4  and  C_8 
REMARK    3  A    between atoms: C_5  and  C_6 
REMARK    4  A    between atoms: C_5  and  CA_7 
REMARK    5  A    between atoms: C_6  and  C_8 
REMARK    6  A    between atoms: CA_7  and  C_9 
ROOT
HETATM    1  O   UNL     1       2.972  -5.054  56.279  1.00  0.00    -0.646 OA
HETATM    2  OXT UNL     1       4.769  -6.256  56.965  1.00  0.00    -0.646 OA
HETATM    3  C   UNL     1       4.071  -5.825  56.057  1.00  0.00     0.204 C 
ENDROOT
BRANCH   3   4
HETATM    4  CA  UNL     1       4.302  -6.070  54.576  1.00  0.00     0.283 C 
BRANCH   4   5
HETATM    5  N   UNL     1       5.103  -4.963  54.053  1.00  0.00    -0.065 N 
HETATM    6  H   UNL     1       5.230  -4.261  54.783  1.00  0.00     0.275 HD
HETATM    7  H   UNL     1       4.623  -4.543  53.257  1.00  0.00     0.275 HD
HETATM    8  H   UNL     1       6.013  -5.314  53.754  1.00  0.00     0.275 HD
ENDBRANCH   4   5
BRANCH   4   9
HETATM    9  C   UNL     1       4.939  -7.441  54.303  1.00  0.00     0.045 C 
BRANCH   9  10
HETATM   10  C   UNL     1       6.341  -7.393  53.681  1.00  0.00     0.030 C 
BRANCH  10  11
HETATM   11  C   UNL     1       7.375  -8.025  54.613  1.00  0.00     0.230 C 
BRANCH  11  12
HETATM   12  N   UNL     1       6.831  -8.154  55.960  1.00  0.00    -0.079 N 
HETATM   13  H   UNL     1       6.606  -9.131  56.144  1.00  0.00     0.274 HD
HETATM   14  H   UNL     1       5.985  -7.590  56.040  1.00  0.00     0.274 HD
HETATM   15  H   UNL     1       7.521  -7.831  56.638  1.00  0.00     0.274 HD
ENDBRANCH  11  12
ENDBRANCH  10  11
ENDBRANCH   9  10
ENDBRANCH   4   9
ENDBRANCH   3   4
TORSDOF 6
ENDMDL
MODEL 5
REMARK VINA RESULT:      -4.1     15.596     16.569
REMARK  6 active torsions:
REMARK  status: ('A' for Active; 'I' for Inactive)
REMARK    1  A    between atoms: N_3  and  CA_7 
REMARK    2  A    between atoms: N_4  and  C_8 
REMARK    3  A    between atoms: C_5  and  C_6 
REMARK    4  A    between atoms: C_5  and  CA_7 
REMARK    5  A    between atoms: C_6  and  C_8 
REMARK    6  A    between atoms: CA_7  and  C_9 
ROOT
HETATM    1  O   UNL     1      -6.164  -6.155  45.016  1.00  0.00    -0.646 OA
HETATM    2  OXT UNL     1      -6.411  -5.273  47.090  1.00  0.00    -0.646 OA
HETATM    3  C   UNL     1      -6.909  -5.660  46.041  1.00  0.00     0.204 C 
ENDROOT
BRANCH   3   4
HETATM    4  CA  UNL     1      -8.392  -5.653  45.715  1.00  0.00     0.283 C 
BRANCH   4   5
HETATM    5  N   UNL     1      -8.953  -6.941  46.124  1.00  0.00    -0.065 N 
HETATM    6  H   UNL     1      -8.895  -7.600  45.347  1.00  0.00     0.275 HD
HETATM    7  H   UNL     1      -9.928  -6.816  46.393  1.00  0.00     0.275 HD
HETATM    8  H   UNL     1      -8.425  -7.304  46.918  1.00  0.00     0.275 HD
ENDBRANCH   4   5
BRANCH   4   9
HETATM    9  C   UNL     1      -9.124  -4.460  46.348  1.00  0.00     0.045 C 
BRANCH   9  10
HETATM   10  C   UNL     1      -9.236  -3.218  45.454  1.00  0.00     0.030 C 
BRANCH  10  11
HETATM   11  C   UNL     1      -8.559  -2.012  46.106  1.00  0.00     0.230 C 
BRANCH  11  12
HETATM   12  N   UNL     1      -7.652  -2.450  47.161  1.00  0.00    -0.079 N 
HETATM   13  H   UNL     1      -6.688  -2.315  46.859  1.00  0.00     0.274 HD
HETATM   14  H   UNL     1      -7.811  -3.439  47.357  1.00  0.00     0.274 HD
HETATM   15  H   UNL     1      -7.823  -1.904  48.005  1.00  0.00     0.274 HD
ENDBRANCH  11  12
ENDBRANCH  10  11
ENDBRANCH   9  10
ENDBRANCH   4   9
ENDBRANCH   3   4
TORSDOF 6
ENDMDL
MODEL 6
REMARK VINA RESULT:      -4.0      3.167      4.590
REMARK  6 active torsions:
REMARK  status: ('A' for Active; 'I' for Inactive)
REMARK    1  A    between atoms: N_3  and  CA_7 
REMARK    2  A    between atoms: N_4  and  C_8 
REMARK    3  A    between atoms: C_5  and  C_6 
REMARK    4  A    between atoms: C_5  and  CA_7 
REMARK    5  A    between atoms: C_6  and  C_8 
REMARK    6  A    between atoms: CA_7  and  C_9 
ROOT
HETATM    1  O   UNL     1       1.253  -9.813  56.208  1.00  0.00    -0.646 OA
HETATM    2  OXT UNL     1       2.615 -11.581  56.603  1.00  0.00    -0.646 OA
HETATM    3  C   UNL     1       2.458 -10.442  56.185  1.00  0.00     0.204 C 
ENDROOT
BRANCH   3   4
HETATM    4  CA  UNL     1       3.545  -9.565  55.588  1.00  0.00     0.283 C 
BRANCH   4   5
HETATM    5  N   UNL     1       2.920  -8.662  54.622  1.00  0.00    -0.065 N 
HETATM    6  H   UNL     1       1.933  -8.900  54.523  1.00  0.00     0.275 HD
HETATM    7  H   UNL     1       3.385  -8.755  53.720  1.00  0.00     0.275 HD
HETATM    8  H   UNL     1       3.006  -7.700  54.952  1.00  0.00     0.275 HD
ENDBRANCH   4   5
BRANCH   4   9
HETATM    9  C   UNL     1       4.348  -8.817  56.664  1.00  0.00     0.045 C 
BRANCH   9  10
HETATM   10  C   UNL     1       5.516  -9.608  57.269  1.00  0.00     0.030 C 
BRANCH  10  11
HETATM   11  C   UNL     1       5.148 -10.161  58.645  1.00  0.00     0.230 C 
BRANCH  11  12
HETATM   12  N   UNL     1       5.108 -11.619  58.612  1.00  0.00    -0.079 N 
HETATM   13  H   UNL     1       5.112 -11.981  59.565  1.00  0.00     0.274 HD
HETATM   14  H   UNL     1       5.925 -11.969  58.111  1.00  0.00     0.274 HD
HETATM   15  H   UNL     1       4.260 -11.925  58.135  1.00  0.00     0.274 HD
ENDBRANCH  11  12
ENDBRANCH  10  11
ENDBRANCH   9  10
ENDBRANCH   4   9
ENDBRANCH   3   4
TORSDOF 6
ENDMDL
MODEL 7
REMARK VINA RESULT:      -4.0      2.371      3.791
REMARK  6 active torsions:
REMARK  status: ('A' for Active; 'I' for Inactive)
REMARK    1  A    between atoms: N_3  and  CA_7 
REMARK    2  A    between atoms: N_4  and  C_8 
REMARK    3  A    between atoms: C_5  and  C_6 
REMARK    4  A    between atoms: C_5  and  CA_7 
REMARK    5  A    between atoms: C_6  and  C_8 
REMARK    6  A    between atoms: CA_7  and  C_9 
ROOT
HETATM    1  O   UNL     1       4.849  -6.273  57.026  1.00  0.00    -0.646 OA
HETATM    2  OXT UNL     1       3.072  -5.077  56.283  1.00  0.00    -0.646 OA
HETATM    3  C   UNL     1       4.004  -5.836  56.053  1.00  0.00     0.204 C 
ENDROOT
BRANCH   3   4
HETATM    4  CA  UNL     1       4.366  -6.401  54.691  1.00  0.00     0.283 C 
BRANCH   4   5
HETATM    5  N   UNL     1       5.385  -5.535  54.097  1.00  0.00    -0.065 N 
HETATM    6  H   UNL     1       5.004  -5.081  53.267  1.00  0.00     0.275 HD
HETATM    7  H   UNL     1       6.197  -6.096  53.836  1.00  0.00     0.275 HD
HETATM    8  H   UNL     1       5.665  -4.826  54.775  1.00  0.00     0.275 HD
ENDBRANCH   4   5
BRANCH   4   9
HETATM    9  C   UNL     1       4.809  -7.870  54.767  1.00  0.00     0.045 C 
BRANCH   9  10
HETATM   10  C   UNL     1       3.666  -8.886  54.898  1.00  0.00     0.030 C 
BRANCH  10  11
HETATM   11  C   UNL     1       3.662  -9.529  56.285  1.00  0.00     0.230 C 
BRANCH  11  12
HETATM   12  N   UNL     1       4.924  -9.267  56.968  1.00  0.00    -0.079 N 
HETATM   13  H   UNL     1       5.534  -8.721  56.359  1.00  0.00     0.274 HD
HETATM   14  H   UNL     1       5.378 -10.152  57.196  1.00  0.00     0.274 HD
HETATM   15  H   UNL     1       4.745  -8.746  57.826  1.00  0.00     0.274 HD
ENDBRANCH  11  12
ENDBRANCH  10  11
ENDBRANCH   9  10
ENDBRANCH   4   9
ENDBRANCH   3   4
TORSDOF 6
ENDMDL
MODEL 8
REMARK VINA RESULT:      -4.0      3.001      4.359
REMARK  6 active torsions:
REMARK  status: ('A' for Active; 'I' for Inactive)
REMARK    1  A    between atoms: N_3  and  CA_7 
REMARK    2  A    between atoms: N_4  and  C_8 
REMARK    3  A    between atoms: C_5  and  C_6 
REMARK    4  A    between atoms: C_5  and  CA_7 
REMARK    5  A    between atoms: C_6  and  C_8 
REMARK    6  A    between atoms: CA_7  and  C_9 
ROOT
HETATM    1  O   UNL     1       5.166  -6.865  52.840  1.00  0.00    -0.646 OA
HETATM    2  OXT UNL     1       3.174  -6.145  52.031  1.00  0.00    -0.646 OA
HETATM    3  C   UNL     1       4.137  -5.978  52.768  1.00  0.00     0.204 C 
ENDROOT
BRANCH   3   4
HETATM    4  CA  UNL     1       4.341  -4.794  53.697  1.00  0.00     0.283 C 
BRANCH   4   5
HETATM    5  N   UNL     1       4.402  -3.582  52.880  1.00  0.00    -0.065 N 
HETATM    6  H   UNL     1       4.987  -2.887  53.345  1.00  0.00     0.275 HD
HETATM    7  H   UNL     1       3.461  -3.208  52.757  1.00  0.00     0.275 HD
HETATM    8  H   UNL     1       4.800  -3.807  51.967  1.00  0.00     0.275 HD
ENDBRANCH   4   5
BRANCH   4   9
HETATM    9  C   UNL     1       3.265  -4.717  54.791  1.00  0.00     0.045 C 
BRANCH   9  10
HETATM   10  C   UNL     1       3.117  -5.984  55.644  1.00  0.00     0.030 C 
BRANCH  10  11
HETATM   11  C   UNL     1       4.356  -6.208  56.511  1.00  0.00     0.230 C 
BRANCH  11  12
HETATM   12  N   UNL     1       5.143  -7.321  55.993  1.00  0.00    -0.079 N 
HETATM   13  H   UNL     1       4.981  -7.415  54.990  1.00  0.00     0.274 HD
HETATM   14  H   UNL     1       4.863  -8.183  56.463  1.00  0.00     0.274 HD
HETATM   15  H   UNL     1       6.133  -7.147  56.163  1.00  0.00     0.274 HD
ENDBRANCH  11  12
ENDBRANCH  10  11
ENDBRANCH   9  10
ENDBRANCH   4   9
ENDBRANCH   3   4
TORSDOF 6
ENDMDL
MODEL 9
REMARK VINA RESULT:      -3.9     14.171     15.082
REMARK  6 active torsions:
REMARK  status: ('A' for Active; 'I' for Inactive)
REMARK    1  A    between atoms: N_3  and  CA_7 
REMARK    2  A    between atoms: N_4  and  C_8 
REMARK    3  A    between atoms: C_5  and  C_6 
REMARK    4  A    between atoms: C_5  and  CA_7 
REMARK    5  A    between atoms: C_6  and  C_8 
REMARK    6  A    between atoms: CA_7  and  C_9 
ROOT
HETATM    1  O   UNL     1      -4.640  -3.483  47.525  1.00  0.00    -0.646 OA
HETATM    2  OXT UNL     1      -6.257  -2.524  46.258  1.00  0.00    -0.646 OA
HETATM    3  C   UNL     1      -5.849  -3.482  46.901  1.00  0.00     0.204 C 
ENDROOT
BRANCH   3   4
HETATM    4  CA  UNL     1      -6.594  -4.788  47.106  1.00  0.00     0.283 C 
BRANCH   4   5
HETATM    5  N   UNL     1      -8.011  -4.550  46.830  1.00  0.00    -0.065 N 
HETATM    6  H   UNL     1      -8.576  -5.226  47.345  1.00  0.00     0.275 HD
HETATM    7  H   UNL     1      -8.185  -4.653  45.830  1.00  0.00     0.275 HD
HETATM    8  H   UNL     1      -8.260  -3.605  47.122  1.00  0.00     0.275 HD
ENDBRANCH   4   5
BRANCH   4   9
HETATM    9  C   UNL     1      -6.011  -5.932  46.262  1.00  0.00     0.045 C 
BRANCH   9  10
HETATM   10  C   UNL     1      -5.494  -7.133  47.065  1.00  0.00     0.030 C 
BRANCH  10  11
HETATM   11  C   UNL     1      -5.487  -8.400  46.210  1.00  0.00     0.230 C 
BRANCH  11  12
HETATM   12  N   UNL     1      -4.978  -8.108  44.875  1.00  0.00    -0.079 N 
HETATM   13  H   UNL     1      -5.191  -7.140  44.634  1.00  0.00     0.274 HD
HETATM   14  H   UNL     1      -5.421  -8.731  44.199  1.00  0.00     0.274 HD
HETATM   15  H   UNL     1      -3.968  -8.248  44.857  1.00  0.00     0.274 HD
ENDBRANCH  11  12
ENDBRANCH  10  11
ENDBRANCH   9  10
ENDBRANCH   4   9
ENDBRANCH   3   4
TORSDOF 6
ENDMDL
