MODEL 1
REMARK VINA RESULT:      -4.3      0.000      0.000
REMARK  6 active torsions:
REMARK  status: ('A' for Active; 'I' for Inactive)
REMARK    1  A    between atoms: N_3  and  CA_7 
REMARK    2  A    between atoms: N_4  and  C_8 
REMARK    3  A    between atoms: C_5  and  C_6 
REMARK    4  A    between atoms: C_5  and  CA_7 
REMARK    5  A    between atoms: C_6  and  C_8 
REMARK    6  A    between atoms: CA_7  and  C_9 
ROOT
HETATM    1  O   UNL     1       5.528  -9.552  58.119  1.00  0.00    -0.646 OA
HETATM    2  OXT UNL     1       3.930  -9.874  56.544  1.00  0.00    -0.646 OA
HETATM    3  C   UNL     1       4.797  -9.166  57.039  1.00  0.00     0.204 C 
ENDROOT
BRANCH   3   4
HETATM    4  CA  UNL     1       5.192  -7.784  56.550  1.00  0.00     0.283 C 
BRANCH   4   5
HETATM    5  N   UNL     1       6.449  -7.906  55.812  1.00  0.00    -0.065 N 
HETATM    6  H   UNL     1       6.275  -8.367  54.918  1.00  0.00     0.275 HD
HETATM    7  H   UNL     1       7.111  -8.457  56.357  1.00  0.00     0.275 HD
HETATM    8  H   UNL     1       6.836  -6.976  55.645  1.00  0.00     0.275 HD
ENDBRANCH   4   5
BRANCH   4   9
HETATM    9  C   UNL     1       4.081  -7.118  55.722  1.00  0.00     0.045 C 
BRANCH   9  10
HETATM   10  C   UNL     1       3.824  -5.641  56.052  1.00  0.00     0.030 C 
BRANCH  10  11
HETATM   11  C   UNL     1       3.883  -4.781  54.789  1.00  0.00     0.230 C 
BRANCH  11  12
HETATM   12  N   UNL     1       5.180  -4.926  54.138  1.00  0.00    -0.079 N 
HETATM   13  H   UNL     1       5.533  -5.870  54.290  1.00  0.00     0.274 HD
HETATM   14  H   UNL     1       5.835  -4.251  54.532  1.00  0.00     0.274 HD
HETATM   15  H   UNL     1       5.078  -4.759  53.137  1.00  0.00     0.274 HD
ENDBRANCH  11  12
ENDBRANCH  10  11
ENDBRANCH   9  10
ENDBRANCH   4   9
ENDBRANCH   3   4
TORSDOF 6
ENDMDL
MODEL 2
REMARK VINA RESULT:      -4.2     14.671     15.920
REMARK  6 active torsions:
REMARK  status: ('A' for Active; 'I' for Inactive)
REMARK    1  A    between atoms: N_3  and  CA_7 
REMARK    2  A    between atoms: N_4  and  C_8 
REMARK    3  A    between atoms: C_5  and  C_6 
REMARK    4  A    between atoms: C_5  and  CA_7 
REMARK    5  A    between atoms: C_6  and  C_8 
REMARK    6  A    between atoms: CA_7  and  C_9 
ROOT
HETATM    1  O   UNL     1      -4.662  -3.477  47.436  1.00  0.00    -0.646 OA
HETATM    2  OXT UNL     1      -5.768  -5.187  48.433  1.00  0.00    -0.646 OA
HETATM    3  C   UNL     1      -5.722  -4.318  47.572  1.00  0.00     0.204 C 
ENDROOT
BRANCH   3   4
HETATM    4  CA  UNL     1      -6.803  -4.039  46.542  1.00  0.00     0.283 C 
BRANCH   4   5
HETATM    5  N   UNL     1      -7.788  -5.118  46.615  1.00  0.00    -0.065 N 
HETATM    6  H   UNL     1      -8.667  -4.752  46.983  1.00  0.00     0.275 HD
HETATM    7  H   UNL     1      -7.442  -5.854  47.231  1.00  0.00     0.275 HD
HETATM    8  H   UNL     1      -7.943  -5.501  45.682  1.00  0.00     0.275 HD
ENDBRANCH   4   5
BRANCH   4   9
HETATM    9  C   UNL     1      -7.433  -2.649  46.719  1.00  0.00     0.045 C 
BRANCH   9  10
HETATM   10  C   UNL     1      -8.915  -2.554  46.328  1.00  0.00     0.030 C 
BRANCH  10  11
HETATM   11  C   UNL     1      -9.429  -1.122  46.478  1.00  0.00     0.230 C 
BRANCH  11  12
HETATM   12  N   UNL     1      -9.235  -0.382  45.236  1.00  0.00    -0.079 N 
HETATM   13  H   UNL     1      -9.523   0.587  45.369  1.00  0.00     0.274 HD
HETATM   14  H   UNL     1      -9.797  -0.805  44.497  1.00  0.00     0.274 HD
HETATM   15  H   UNL     1      -8.250  -0.410  44.973  1.00  0.00     0.274 HD
ENDBRANCH  11  12
ENDBRANCH  10  11
ENDBRANCH   9  10
ENDBRANCH   4   9
ENDBRANCH   3   4
TORSDOF 6
ENDMDL
MODEL 3
REMARK VINA RESULT:      -4.2      2.922      3.526
REMARK  6 active torsions:
REMARK  status: ('A' for Active; 'I' for Inactive)
REMARK    1  A    between atoms: N_3  and  CA_7 
REMARK    2  A    between atoms: N_4  and  C_8 
REMARK    3  A    between atoms: C_5  and  C_6 
REMARK    4  A    between atoms: C_5  and  CA_7 
REMARK    5  A    between atoms: C_6  and  C_8 
REMARK    6  A    between atoms: CA_7  and  C_9 
ROOT
HETATM    1  O   UNL     1       2.498 -10.225  54.603  1.00  0.00    -0.646 OA
HETATM    2  OXT UNL     1       1.871 -11.728  56.180  1.00  0.00    -0.646 OA
HETATM    3  C   UNL     1       2.436 -10.684  55.882  1.00  0.00     0.204 C 
ENDROOT
BRANCH   3   4
HETATM    4  CA  UNL     1       3.141  -9.755  56.854  1.00  0.00     0.283 C 
BRANCH   4   5
HETATM    5  N   UNL     1       4.000 -10.566  57.716  1.00  0.00    -0.065 N 
HETATM    6  H   UNL     1       4.931 -10.151  57.756  1.00  0.00     0.275 HD
HETATM    7  H   UNL     1       4.065 -11.511  57.338  1.00  0.00     0.275 HD
HETATM    8  H   UNL     1       3.602 -10.602  58.655  1.00  0.00     0.275 HD
ENDBRANCH   4   5
BRANCH   4   9
HETATM    9  C   UNL     1       3.910  -8.635  56.137  1.00  0.00     0.045 C 
BRANCH   9  10
HETATM   10  C   UNL     1       5.406  -8.557  56.475  1.00  0.00     0.030 C 
BRANCH  10  11
HETATM   11  C   UNL     1       6.204  -8.003  55.294  1.00  0.00     0.230 C 
BRANCH  11  12
HETATM   12  N   UNL     1       7.635  -8.130  55.546  1.00  0.00    -0.079 N 
HETATM   13  H   UNL     1       8.147  -8.004  54.674  1.00  0.00     0.274 HD
HETATM   14  H   UNL     1       7.833  -9.057  55.925  1.00  0.00     0.274 HD
HETATM   15  H   UNL     1       7.927  -7.419  56.217  1.00  0.00     0.274 HD
ENDBRANCH  11  12
ENDBRANCH  10  11
ENDBRANCH   9  10
ENDBRANCH   4   9
ENDBRANCH   3   4
TORSDOF 6
ENDMDL
MODEL 4
REMARK VINA RESULT:      -4.2      1.813      2.120
REMARK  6 active torsions:
REMARK  status: ('A' for Active; 'I' for Inactive)
REMARK    1  A    between atoms: N_3  and  CA_7 
REMARK    2  A    between atoms: N_4  and  C_8 
REMARK    3  A    between atoms: C_5  and  C_6 
REMARK    4  A    between atoms: C_5  and  CA_7 
REMARK    5  A    between atoms: C_6  and  C_8 
REMARK    6  A    between atoms: CA_7  and  C_9 
ROOT
HETATM    1  O   UNL     1       6.316  -8.039  55.228  1.00  0.00    -0.646 OA
HETATM    2  OXT UNL     1       5.411  -8.508  57.253  1.00  0.00    -0.646 OA
HETATM    3  C   UNL     1       5.313  -7.995  56.147  1.00  0.00     0.204 C 
ENDROOT
BRANCH   3   4
HETATM    4  CA  UNL     1       4.099  -7.246  55.626  1.00  0.00     0.283 C 
BRANCH   4   5
HETATM    5  N   UNL     1       2.913  -8.058  55.900  1.00  0.00    -0.065 N 
HETATM    6  H   UNL     1       2.156  -7.456  56.225  1.00  0.00     0.275 HD
HETATM    7  H   UNL     1       3.132  -8.748  56.619  1.00  0.00     0.275 HD
HETATM    8  H   UNL     1       2.625  -8.537  55.047  1.00  0.00     0.275 HD
ENDBRANCH   4   5
BRANCH   4   9
HETATM    9  C   UNL     1       3.993  -5.829  56.210  1.00  0.00     0.045 C 
BRANCH   9  10
HETATM   10  C   UNL     1       3.626  -4.736  55.196  1.00  0.00     0.030 C 
BRANCH  10  11
HETATM   11  C   UNL     1       4.223  -5.042  53.822  1.00  0.00     0.230 C 
BRANCH  11  12
HETATM   12  N   UNL     1       4.536  -3.804  53.118  1.00  0.00    -0.079 N 
HETATM   13  H   UNL     1       4.100  -3.817  52.197  1.00  0.00     0.274 HD
HETATM   14  H   UNL     1       5.548  -3.719  53.013  1.00  0.00     0.274 HD
HETATM   15  H   UNL     1       4.182  -3.010  53.652  1.00  0.00     0.274 HD
ENDBRANCH  11  12
ENDBRANCH  10  11
ENDBRANCH   9  10
ENDBRANCH   4   9
ENDBRANCH   3   4
TORSDOF 6
ENDMDL
MODEL 5
REMARK VINA RESULT:      -4.1     15.657     16.537
REMARK  6 active torsions:
REMARK  status: ('A' for Active; 'I' for Inactive)
REMARK    1  A    between atoms: N_3  and  CA_7 
REMARK    2  A    between atoms: N_4  and  C_8 
REMARK    3  A    between atoms: C_5  and  C_6 
REMARK    4  A    between atoms: C_5  and  CA_7 
REMARK    5  A    between atoms: C_6  and  C_8 
REMARK    6  A    between atoms: CA_7  and  C_9 
ROOT
HETATM    1  O   UNL     1      -6.590  -5.405  47.091  1.00  0.00    -0.646 OA
HETATM    2  OXT UNL     1      -6.196  -6.119  44.976  1.00  0.00    -0.646 OA
HETATM    3  C   UNL     1      -6.987  -5.777  45.845  1.00  0.00     0.204 C 
ENDROOT
BRANCH   3   4
HETATM    4  CA  UNL     1      -8.496  -5.713  45.688  1.00  0.00     0.283 C 
BRANCH   4   5
HETATM    5  N   UNL     1      -9.059  -6.966  46.193  1.00  0.00    -0.065 N 
HETATM    6  H   UNL     1      -9.070  -7.660  45.444  1.00  0.00     0.275 HD
HETATM    7  H   UNL     1     -10.011  -6.803  46.520  1.00  0.00     0.275 HD
HETATM    8  H   UNL     1      -8.487  -7.308  46.965  1.00  0.00     0.275 HD
ENDBRANCH   4   5
BRANCH   4   9
HETATM    9  C   UNL     1      -9.102  -4.476  46.368  1.00  0.00     0.045 C 
BRANCH   9  10
HETATM   10  C   UNL     1      -9.192  -3.227  45.481  1.00  0.00     0.030 C 
BRANCH  10  11
HETATM   11  C   UNL     1      -8.426  -2.059  46.102  1.00  0.00     0.230 C 
BRANCH  11  12
HETATM   12  N   UNL     1      -7.551  -2.536  47.167  1.00  0.00    -0.079 N 
HETATM   13  H   UNL     1      -6.802  -3.100  46.766  1.00  0.00     0.274 HD
HETATM   14  H   UNL     1      -8.091  -3.105  47.821  1.00  0.00     0.274 HD
HETATM   15  H   UNL     1      -7.149  -1.739  47.661  1.00  0.00     0.274 HD
ENDBRANCH  11  12
ENDBRANCH  10  11
ENDBRANCH   9  10
ENDBRANCH   4   9
ENDBRANCH   3   4
TORSDOF 6
ENDMDL
MODEL 6
REMARK VINA RESULT:      -4.0      3.259      4.646
REMARK  6 active torsions:
REMARK  status: ('A' for Active; 'I' for Inactive)
REMARK    1  A    between atoms: N_3  and  CA_7 
REMARK    2  A    between atoms: N_4  and  C_8 
REMARK    3  A    between atoms: C_5  and  C_6 
REMARK    4  A    between atoms: C_5  and  CA_7 
REMARK    5  A    between atoms: C_6  and  C_8 
REMARK    6  A    between atoms: CA_7  and  C_9 
ROOT
HETATM    1  O   UNL     1       2.639  -6.646  52.716  1.00  0.00    -0.646 OA
HETATM    2  OXT UNL     1       4.229  -5.838  51.316  1.00  0.00    -0.646 OA
HETATM    3  C   UNL     1       3.677  -5.823  52.409  1.00  0.00     0.204 C 
ENDROOT
BRANCH   3   4
HETATM    4  CA  UNL     1       4.043  -4.913  53.568  1.00  0.00     0.283 C 
BRANCH   4   5
HETATM    5  N   UNL     1       4.530  -3.649  53.016  1.00  0.00    -0.065 N 
HETATM    6  H   UNL     1       4.089  -3.479  52.112  1.00  0.00     0.275 HD
HETATM    7  H   UNL     1       5.542  -3.697  52.898  1.00  0.00     0.275 HD
HETATM    8  H   UNL     1       4.299  -2.888  53.656  1.00  0.00     0.275 HD
ENDBRANCH   4   5
BRANCH   4   9
HETATM    9  C   UNL     1       2.876  -4.720  54.549  1.00  0.00     0.045 C 
BRANCH   9  10
HETATM   10  C   UNL     1       3.166  -5.148  55.994  1.00  0.00     0.030 C 
BRANCH  10  11
HETATM   11  C   UNL     1       3.834  -6.523  56.033  1.00  0.00     0.230 C 
BRANCH  11  12
HETATM   12  N   UNL     1       5.132  -6.438  56.692  1.00  0.00    -0.079 N 
HETATM   13  H   UNL     1       5.008  -6.100  57.646  1.00  0.00     0.274 HD
HETATM   14  H   UNL     1       5.732  -5.791  56.178  1.00  0.00     0.274 HD
HETATM   15  H   UNL     1       5.565  -7.361  56.712  1.00  0.00     0.274 HD
ENDBRANCH  11  12
ENDBRANCH  10  11
ENDBRANCH   9  10
ENDBRANCH   4   9
ENDBRANCH   3   4
TORSDOF 6
ENDMDL
MODEL 7
REMARK VINA RESULT:      -4.0      3.212      4.579
REMARK  6 active torsions:
REMARK  status: ('A' for Active; 'I' for Inactive)
REMARK    1  A    between atoms: N_3  and  CA_7 
REMARK    2  A    between atoms: N_4  and  C_8 
REMARK    3  A    between atoms: C_5  and  C_6 
REMARK    4  A    between atoms: C_5  and  CA_7 
REMARK    5  A    between atoms: C_6  and  C_8 
REMARK    6  A    between atoms: CA_7  and  C_9 
ROOT
HETATM    1  O   UNL     1       2.303 -11.548  56.332  1.00  0.00    -0.646 OA
HETATM    2  OXT UNL     1       1.299  -9.526  56.542  1.00  0.00    -0.646 OA
HETATM    3  C   UNL     1       2.270 -10.193  56.212  1.00  0.00     0.204 C 
ENDROOT
BRANCH   3   4
HETATM    4  CA  UNL     1       3.561  -9.643  55.631  1.00  0.00     0.283 C 
BRANCH   4   5
HETATM    5  N   UNL     1       3.228  -8.866  54.438  1.00  0.00    -0.065 N 
HETATM    6  H   UNL     1       3.030  -9.500  53.663  1.00  0.00     0.275 HD
HETATM    7  H   UNL     1       4.014  -8.265  54.193  1.00  0.00     0.275 HD
HETATM    8  H   UNL     1       2.406  -8.291  54.626  1.00  0.00     0.275 HD
ENDBRANCH   4   5
BRANCH   4   9
HETATM    9  C   UNL     1       4.365  -8.833  56.660  1.00  0.00     0.045 C 
BRANCH   9  10
HETATM   10  C   UNL     1       5.492  -9.607  57.359  1.00  0.00     0.030 C 
BRANCH  10  11
HETATM   11  C   UNL     1       5.008 -10.199  58.683  1.00  0.00     0.230 C 
BRANCH  11  12
HETATM   12  N   UNL     1       5.219 -11.642  58.700  1.00  0.00    -0.079 N 
HETATM   13  H   UNL     1       5.571 -11.946  57.793  1.00  0.00     0.274 HD
HETATM   14  H   UNL     1       4.335 -12.113  58.896  1.00  0.00     0.274 HD
HETATM   15  H   UNL     1       5.898 -11.878  59.424  1.00  0.00     0.274 HD
ENDBRANCH  11  12
ENDBRANCH  10  11
ENDBRANCH   9  10
ENDBRANCH   4   9
ENDBRANCH   3   4
TORSDOF 6
ENDMDL
MODEL 8
REMARK VINA RESULT:      -4.0      2.571      4.621
REMARK  6 active torsions:
REMARK  status: ('A' for Active; 'I' for Inactive)
REMARK    1  A    between atoms: N_3  and  CA_7 
REMARK    2  A    between atoms: N_4  and  C_8 
REMARK    3  A    between atoms: C_5  and  C_6 
REMARK    4  A    between atoms: C_5  and  CA_7 
REMARK    5  A    between atoms: C_6  and  C_8 
REMARK    6  A    between atoms: CA_7  and  C_9 
ROOT
HETATM    1  O   UNL     1       3.377  -6.703  55.353  1.00  0.00    -0.646 OA
HETATM    2  OXT UNL     1       4.797  -6.187  57.043  1.00  0.00    -0.646 OA
HETATM    3  C   UNL     1       4.441  -6.957  56.161  1.00  0.00     0.204 C 
ENDROOT
BRANCH   3   4
HETATM    4  CA  UNL     1       5.102  -8.283  55.829  1.00  0.00     0.283 C 
BRANCH   4   5
HETATM    5  N   UNL     1       6.544  -8.135  56.033  1.00  0.00    -0.065 N 
HETATM    6  H   UNL     1       7.039  -8.438  55.193  1.00  0.00     0.275 HD
HETATM    7  H   UNL     1       6.835  -8.707  56.825  1.00  0.00     0.275 HD
HETATM    8  H   UNL     1       6.761  -7.156  56.221  1.00  0.00     0.275 HD
ENDBRANCH   4   5
BRANCH   4   9
HETATM    9  C   UNL     1       4.508  -9.450  56.632  1.00  0.00     0.045 C 
BRANCH   9  10
HETATM   10  C   UNL     1       5.070  -9.613  58.051  1.00  0.00     0.030 C 
BRANCH  10  11
HETATM   11  C   UNL     1       5.933 -10.871  58.156  1.00  0.00     0.230 C 
BRANCH  11  12
HETATM   12  N   UNL     1       5.134 -11.996  58.626  1.00  0.00    -0.079 N 
HETATM   13  H   UNL     1       4.806 -11.809  59.573  1.00  0.00     0.274 HD
HETATM   14  H   UNL     1       5.705 -12.842  58.626  1.00  0.00     0.274 HD
HETATM   15  H   UNL     1       4.333 -12.127  58.008  1.00  0.00     0.274 HD
ENDBRANCH  11  12
ENDBRANCH  10  11
ENDBRANCH   9  10
ENDBRANCH   4   9
ENDBRANCH   3   4
TORSDOF 6
ENDMDL
MODEL 9
REMARK VINA RESULT:      -4.0      1.413      1.706
REMARK  6 active torsions:
REMARK  status: ('A' for Active; 'I' for Inactive)
REMARK    1  A    between atoms: N_3  and  CA_7 
REMARK    2  A    between atoms: N_4  and  C_8 
REMARK    3  A    between atoms: C_5  and  C_6 
REMARK    4  A    between atoms: C_5  and  CA_7 
REMARK    5  A    between atoms: C_6  and  C_8 
REMARK    6  A    between atoms: CA_7  and  C_9 
ROOT
HETATM    1  O   UNL     1       3.653 -10.149  57.094  1.00  0.00    -0.646 OA
HETATM    2  OXT UNL     1       5.443  -8.811  57.477  1.00  0.00    -0.646 OA
HETATM    3  C   UNL     1       4.478  -9.111  56.788  1.00  0.00     0.204 C 
ENDROOT
BRANCH   3   4
HETATM    4  CA  UNL     1       4.049  -8.401  55.515  1.00  0.00     0.283 C 
BRANCH   4   5
HETATM    5  N   UNL     1       3.342  -9.367  54.673  1.00  0.00    -0.065 N 
HETATM    6  H   UNL     1       2.947 -10.103  55.259  1.00  0.00     0.275 HD
HETATM    7  H   UNL     1       3.994  -9.776  54.005  1.00  0.00     0.275 HD
HETATM    8  H   UNL     1       2.592  -8.893  54.170  1.00  0.00     0.275 HD
ENDBRANCH   4   5
BRANCH   4   9
HETATM    9  C   UNL     1       3.214  -7.143  55.801  1.00  0.00     0.045 C 
BRANCH   9  10
HETATM   10  C   UNL     1       4.029  -5.889  56.145  1.00  0.00     0.030 C 
BRANCH  10  11
HETATM   11  C   UNL     1       3.898  -4.834  55.045  1.00  0.00     0.230 C 
BRANCH  11  12
HETATM   12  N   UNL     1       5.079  -4.844  54.189  1.00  0.00    -0.079 N 
HETATM   13  H   UNL     1       5.424  -5.799  54.098  1.00  0.00     0.274 HD
HETATM   14  H   UNL     1       5.804  -4.259  54.604  1.00  0.00     0.274 HD
HETATM   15  H   UNL     1       4.834  -4.482  53.268  1.00  0.00     0.274 HD
ENDBRANCH  11  12
ENDBRANCH  10  11
ENDBRANCH   9  10
ENDBRANCH   4   9
ENDBRANCH   3   4
TORSDOF 6
ENDMDL
