MODEL 1
REMARK VINA RESULT:     -19.4      0.000      0.000
REMARK  4 active torsions:
REMARK  status: ('A' for Active; 'I' for Inactive)
REMARK    1  A    between atoms: O_1  and  C_8 
REMARK    2  A    between atoms: O_2  and  C_9 
REMARK    3  A    between atoms: C_5  and  C_11 
REMARK    4  A    between atoms: C_12  and  C_13 
ROOT
ATOM      1  O   UNL A   1     -54.226  49.177   8.109  1.00  0.00    -0.358 OA
ATOM      2  H   UNL A   1     -53.565  48.567   7.845  1.00  0.00     0.217 HD
ENDROOT
BRANCH   1   3
ATOM      3  C   UNL A   1     -54.056  49.917   9.239  1.00  0.00     0.099 A 
ATOM      4  C   UNL A   1     -53.852  49.273  10.459  1.00  0.00     0.050 A 
ATOM      5  C   UNL A   1     -53.675  50.021  11.623  1.00  0.00    -0.033 A 
ATOM      6  C   UNL A   1     -53.700  51.415  11.566  1.00  0.00     0.014 A 
ATOM      7  C   UNL A   1     -53.903  52.059  10.346  1.00  0.00     0.040 A 
ATOM      8  C   UNL A   1     -54.081  51.311   9.183  1.00  0.00     0.098 A 
BRANCH   5   9
ATOM      9  C   UNL A   1     -53.465  49.348  12.895  1.00  0.00     0.018 C 
ATOM     10  C   UNL A   1     -53.249  50.006  14.031  1.00  0.00     0.085 C 
BRANCH  10  11
ATOM     11  C   UNL A   1     -53.029  49.226  15.266  1.00  0.00     0.198 C 
ATOM     12  O   UNL A   1     -54.226  49.015  15.865  1.00  0.00    -0.645 OA
ATOM     13  O   UNL A   1     -51.958  48.829  15.693  1.00  0.00    -0.645 OA
ENDBRANCH  10  11
ENDBRANCH   5   9
BRANCH   8  14
ATOM     14  O   UNL A   1     -54.277  51.952   7.997  1.00  0.00    -0.358 OA
ATOM     15  H   UNL A   1     -54.817  52.717   7.962  1.00  0.00     0.217 HD
ENDBRANCH   8  14
ENDBRANCH   1   3
TORSDOF 4
ENDMDL
MODEL 2
REMARK VINA RESULT:     -18.6      2.014      5.587
REMARK  4 active torsions:
REMARK  status: ('A' for Active; 'I' for Inactive)
REMARK    1  A    between atoms: O_1  and  C_8 
REMARK    2  A    between atoms: O_2  and  C_9 
REMARK    3  A    between atoms: C_5  and  C_11 
REMARK    4  A    between atoms: C_12  and  C_13 
ROOT
ATOM      1  O   UNL A   1     -53.837  52.036  13.053  1.00  0.00    -0.358 OA
ATOM      2  H   UNL A   1     -53.889  52.421  13.906  1.00  0.00     0.217 HD
ENDROOT
BRANCH   1   3
ATOM      3  C   UNL A   1     -53.549  50.711  12.921  1.00  0.00     0.099 A 
ATOM      4  C   UNL A   1     -53.713  50.093  11.681  1.00  0.00     0.050 A 
ATOM      5  C   UNL A   1     -53.418  48.737  11.533  1.00  0.00    -0.033 A 
ATOM      6  C   UNL A   1     -52.959  48.001  12.625  1.00  0.00     0.014 A 
ATOM      7  C   UNL A   1     -52.794  48.619  13.864  1.00  0.00     0.040 A 
ATOM      8  C   UNL A   1     -53.089  49.974  14.012  1.00  0.00     0.098 A 
BRANCH   5   9
ATOM      9  C   UNL A   1     -53.591  48.093  10.241  1.00  0.00     0.018 C 
ATOM     10  C   UNL A   1     -54.701  48.213   9.518  1.00  0.00     0.085 C 
BRANCH  10  11
ATOM     11  C   UNL A   1     -54.781  47.503   8.225  1.00  0.00     0.198 C 
ATOM     12  O   UNL A   1     -55.338  46.286   8.433  1.00  0.00    -0.645 OA
ATOM     13  O   UNL A   1     -54.413  47.925   7.142  1.00  0.00    -0.645 OA
ENDBRANCH  10  11
ENDBRANCH   5   9
BRANCH   8  14
ATOM     14  O   UNL A   1     -52.924  50.567  15.227  1.00  0.00    -0.358 OA
ATOM     15  H   UNL A   1     -52.524  51.413  15.285  1.00  0.00     0.217 HD
ENDBRANCH   8  14
ENDBRANCH   1   3
TORSDOF 4
ENDMDL
MODEL 3
REMARK VINA RESULT:     -18.5      0.882      1.878
REMARK  4 active torsions:
REMARK  status: ('A' for Active; 'I' for Inactive)
REMARK    1  A    between atoms: O_1  and  C_8 
REMARK    2  A    between atoms: O_2  and  C_9 
REMARK    3  A    between atoms: C_5  and  C_11 
REMARK    4  A    between atoms: C_12  and  C_13 
ROOT
ATOM      1  O   UNL A   1     -54.004  52.833   9.700  1.00  0.00    -0.358 OA
ATOM      2  H   UNL A   1     -53.962  53.575  10.271  1.00  0.00     0.217 HD
ENDROOT
BRANCH   1   3
ATOM      3  C   UNL A   1     -53.922  51.574  10.213  1.00  0.00     0.099 A 
ATOM      4  C   UNL A   1     -53.713  51.402  11.581  1.00  0.00     0.050 A 
ATOM      5  C   UNL A   1     -53.628  50.116  12.118  1.00  0.00    -0.033 A 
ATOM      6  C   UNL A   1     -53.755  49.004  11.286  1.00  0.00     0.014 A 
ATOM      7  C   UNL A   1     -53.965  49.177   9.918  1.00  0.00     0.040 A 
ATOM      8  C   UNL A   1     -54.048  50.462   9.382  1.00  0.00     0.098 A 
BRANCH   5   9
ATOM      9  C   UNL A   1     -53.408  49.937  13.544  1.00  0.00     0.018 C 
ATOM     10  C   UNL A   1     -52.965  48.797  14.067  1.00  0.00     0.085 C 
BRANCH  10  11
ATOM     11  C   UNL A   1     -52.792  48.714  15.532  1.00  0.00     0.198 C 
ATOM     12  O   UNL A   1     -54.014  48.729  16.115  1.00  0.00    -0.645 OA
ATOM     13  O   UNL A   1     -51.734  48.642  16.134  1.00  0.00    -0.645 OA
ENDBRANCH  10  11
ENDBRANCH   5   9
BRANCH   8  14
ATOM     14  O   UNL A   1     -54.255  50.617   8.044  1.00  0.00    -0.358 OA
ATOM     15  H   UNL A   1     -54.866  51.257   7.736  1.00  0.00     0.217 HD
ENDBRANCH   8  14
ENDBRANCH   1   3
TORSDOF 4
ENDMDL
MODEL 4
REMARK VINA RESULT:     -18.5      1.053      2.137
REMARK  4 active torsions:
REMARK  status: ('A' for Active; 'I' for Inactive)
REMARK    1  A    between atoms: O_1  and  C_8 
REMARK    2  A    between atoms: O_2  and  C_9 
REMARK    3  A    between atoms: C_5  and  C_11 
REMARK    4  A    between atoms: C_12  and  C_13 
ROOT
ATOM      1  O   UNL A   1     -54.079  51.534   8.197  1.00  0.00    -0.358 OA
ATOM      2  H   UNL A   1     -53.590  52.327   8.295  1.00  0.00     0.217 HD
ENDROOT
BRANCH   1   3
ATOM      3  C   UNL A   1     -53.858  50.490   9.044  1.00  0.00     0.099 A 
ATOM      4  C   UNL A   1     -53.885  50.705  10.422  1.00  0.00     0.050 A 
ATOM      5  C   UNL A   1     -53.662  49.643  11.298  1.00  0.00    -0.033 A 
ATOM      6  C   UNL A   1     -53.414  48.365  10.796  1.00  0.00     0.014 A 
ATOM      7  C   UNL A   1     -53.389  48.150   9.418  1.00  0.00     0.040 A 
ATOM      8  C   UNL A   1     -53.611  49.213   8.542  1.00  0.00     0.098 A 
BRANCH   5   9
ATOM      9  C   UNL A   1     -53.688  49.868  12.734  1.00  0.00     0.018 C 
ATOM     10  C   UNL A   1     -53.263  48.964  13.614  1.00  0.00     0.085 C 
BRANCH  10  11
ATOM     11  C   UNL A   1     -53.348  49.285  15.052  1.00  0.00     0.198 C 
ATOM     12  O   UNL A   1     -52.862  50.534  15.248  1.00  0.00    -0.645 OA
ATOM     13  O   UNL A   1     -53.781  48.561  15.933  1.00  0.00    -0.645 OA
ENDBRANCH  10  11
ENDBRANCH   5   9
BRANCH   8  14
ATOM     14  O   UNL A   1     -53.585  48.989   7.199  1.00  0.00    -0.358 OA
ATOM     15  H   UNL A   1     -53.776  49.688   6.604  1.00  0.00     0.217 HD
ENDBRANCH   8  14
ENDBRANCH   1   3
TORSDOF 4
ENDMDL
MODEL 5
REMARK VINA RESULT:     -18.0      1.751      5.620
REMARK  4 active torsions:
REMARK  status: ('A' for Active; 'I' for Inactive)
REMARK    1  A    between atoms: O_1  and  C_8 
REMARK    2  A    between atoms: O_2  and  C_9 
REMARK    3  A    between atoms: C_5  and  C_11 
REMARK    4  A    between atoms: C_12  and  C_13 
ROOT
ATOM      1  O   UNL A   1     -52.737  47.884  14.253  1.00  0.00    -0.358 OA
ATOM      2  H   UNL A   1     -53.052  47.014  14.102  1.00  0.00     0.217 HD
ENDROOT
BRANCH   1   3
ATOM      3  C   UNL A   1     -53.083  48.890  13.404  1.00  0.00     0.099 A 
ATOM      4  C   UNL A   1     -53.294  48.609  12.054  1.00  0.00     0.050 A 
ATOM      5  C   UNL A   1     -53.650  49.632  11.175  1.00  0.00    -0.033 A 
ATOM      6  C   UNL A   1     -53.797  50.936  11.647  1.00  0.00     0.014 A 
ATOM      7  C   UNL A   1     -53.587  51.217  12.997  1.00  0.00     0.040 A 
ATOM      8  C   UNL A   1     -53.230  50.195  13.875  1.00  0.00     0.098 A 
BRANCH   5   9
ATOM      9  C   UNL A   1     -53.868  49.338   9.768  1.00  0.00     0.018 C 
ATOM     10  C   UNL A   1     -53.176  48.412   9.109  1.00  0.00     0.085 C 
BRANCH  10  11
ATOM     11  C   UNL A   1     -53.463  48.203   7.676  1.00  0.00     0.198 C 
ATOM     12  O   UNL A   1     -52.339  48.458   6.966  1.00  0.00    -0.645 OA
ATOM     13  O   UNL A   1     -54.528  47.859   7.192  1.00  0.00    -0.645 OA
ENDBRANCH  10  11
ENDBRANCH   5   9
BRANCH   8  14
ATOM     14  O   UNL A   1     -53.029  50.482  15.191  1.00  0.00    -0.358 OA
ATOM     15  H   UNL A   1     -52.176  50.387  15.566  1.00  0.00     0.217 HD
ENDBRANCH   8  14
ENDBRANCH   1   3
TORSDOF 4
ENDMDL
MODEL 6
REMARK VINA RESULT:     -18.0      2.446      3.618
REMARK  4 active torsions:
REMARK  status: ('A' for Active; 'I' for Inactive)
REMARK    1  A    between atoms: O_1  and  C_8 
REMARK    2  A    between atoms: O_2  and  C_9 
REMARK    3  A    between atoms: C_5  and  C_11 
REMARK    4  A    between atoms: C_12  and  C_13 
ROOT
ATOM      1  O   UNL A   1     -52.553  48.337   6.430  1.00  0.00    -0.358 OA
ATOM      2  H   UNL A   1     -51.853  48.959   6.412  1.00  0.00     0.217 HD
ENDROOT
BRANCH   1   3
ATOM      3  C   UNL A   1     -53.356  48.247   7.527  1.00  0.00     0.099 A 
ATOM      4  C   UNL A   1     -53.296  49.239   8.505  1.00  0.00     0.050 A 
ATOM      5  C   UNL A   1     -54.115  49.158   9.632  1.00  0.00    -0.033 A 
ATOM      6  C   UNL A   1     -54.996  48.087   9.778  1.00  0.00     0.014 A 
ATOM      7  C   UNL A   1     -55.057  47.095   8.798  1.00  0.00     0.040 A 
ATOM      8  C   UNL A   1     -54.237  47.176   7.673  1.00  0.00     0.098 A 
BRANCH   5   9
ATOM      9  C   UNL A   1     -54.051  50.191  10.653  1.00  0.00     0.018 C 
ATOM     10  C   UNL A   1     -53.673  49.946  11.904  1.00  0.00     0.085 C 
BRANCH  10  11
ATOM     11  C   UNL A   1     -53.659  51.064  12.869  1.00  0.00     0.198 C 
ATOM     12  O   UNL A   1     -53.641  50.554  14.124  1.00  0.00    -0.645 OA
ATOM     13  O   UNL A   1     -53.662  52.253  12.602  1.00  0.00    -0.645 OA
ENDBRANCH  10  11
ENDBRANCH   5   9
BRANCH   8  14
ATOM     14  O   UNL A   1     -54.307  46.202   6.723  1.00  0.00    -0.358 OA
ATOM     15  H   UNL A   1     -54.767  46.361   5.922  1.00  0.00     0.217 HD
ENDBRANCH   8  14
ENDBRANCH   1   3
TORSDOF 4
ENDMDL
MODEL 7
REMARK VINA RESULT:     -18.0      2.587      3.701
REMARK  4 active torsions:
REMARK  status: ('A' for Active; 'I' for Inactive)
REMARK    1  A    between atoms: O_1  and  C_8 
REMARK    2  A    between atoms: O_2  and  C_9 
REMARK    3  A    between atoms: C_5  and  C_11 
REMARK    4  A    between atoms: C_12  and  C_13 
ROOT
ATOM      1  O   UNL A   1     -56.143  46.170   8.748  1.00  0.00    -0.358 OA
ATOM      2  H   UNL A   1     -56.829  46.159   8.110  1.00  0.00     0.217 HD
ENDROOT
BRANCH   1   3
ATOM      3  C   UNL A   1     -55.165  47.115   8.679  1.00  0.00     0.099 A 
ATOM      4  C   UNL A   1     -55.112  48.120   9.645  1.00  0.00     0.050 A 
ATOM      5  C   UNL A   1     -54.113  49.093   9.586  1.00  0.00    -0.033 A 
ATOM      6  C   UNL A   1     -53.167  49.059   8.562  1.00  0.00     0.014 A 
ATOM      7  C   UNL A   1     -53.220  48.053   7.596  1.00  0.00     0.040 A 
ATOM      8  C   UNL A   1     -54.219  47.082   7.655  1.00  0.00     0.098 A 
BRANCH   5   9
ATOM      9  C   UNL A   1     -54.059  50.141  10.592  1.00  0.00     0.018 C 
ATOM     10  C   UNL A   1     -53.672  49.918  11.845  1.00  0.00     0.085 C 
BRANCH  10  11
ATOM     11  C   UNL A   1     -53.670  51.050  12.794  1.00  0.00     0.198 C 
ATOM     12  O   UNL A   1     -53.671  50.558  14.056  1.00  0.00    -0.645 OA
ATOM     13  O   UNL A   1     -53.667  52.236  12.510  1.00  0.00    -0.645 OA
ENDBRANCH  10  11
ENDBRANCH   5   9
BRANCH   8  14
ATOM     14  O   UNL A   1     -54.259  46.104   6.708  1.00  0.00    -0.358 OA
ATOM     15  H   UNL A   1     -53.508  45.939   6.173  1.00  0.00     0.217 HD
ENDBRANCH   8  14
ENDBRANCH   1   3
TORSDOF 4
ENDMDL
MODEL 8
REMARK VINA RESULT:     -17.7      2.455      5.075
REMARK  4 active torsions:
REMARK  status: ('A' for Active; 'I' for Inactive)
REMARK    1  A    between atoms: O_1  and  C_8 
REMARK    2  A    between atoms: O_2  and  C_9 
REMARK    3  A    between atoms: C_5  and  C_11 
REMARK    4  A    between atoms: C_12  and  C_13 
ROOT
ATOM      1  O   UNL A   1     -53.458  50.820  13.855  1.00  0.00    -0.358 OA
ATOM      2  H   UNL A   1     -52.725  51.303  14.183  1.00  0.00     0.217 HD
ENDROOT
BRANCH   1   3
ATOM      3  C   UNL A   1     -53.658  50.715  12.512  1.00  0.00     0.099 A 
ATOM      4  C   UNL A   1     -53.785  49.453  11.932  1.00  0.00     0.050 A 
ATOM      5  C   UNL A   1     -53.993  49.334  10.558  1.00  0.00    -0.033 A 
ATOM      6  C   UNL A   1     -54.075  50.478   9.764  1.00  0.00     0.014 A 
ATOM      7  C   UNL A   1     -53.949  51.740  10.344  1.00  0.00     0.040 A 
ATOM      8  C   UNL A   1     -53.740  51.858  11.718  1.00  0.00     0.098 A 
BRANCH   5   9
ATOM      9  C   UNL A   1     -54.123  48.018   9.954  1.00  0.00     0.018 C 
ATOM     10  C   UNL A   1     -55.075  47.720   9.073  1.00  0.00     0.085 C 
BRANCH  10  11
ATOM     11  C   UNL A   1     -55.130  46.347   8.532  1.00  0.00     0.198 C 
ATOM     12  O   UNL A   1     -54.291  46.264   7.471  1.00  0.00    -0.645 OA
ATOM     13  O   UNL A   1     -55.811  45.428   8.954  1.00  0.00    -0.645 OA
ENDBRANCH  10  11
ENDBRANCH   5   9
BRANCH   8  14
ATOM     14  O   UNL A   1     -53.620  53.097  12.272  1.00  0.00    -0.358 OA
ATOM     15  H   UNL A   1     -52.893  53.291  12.831  1.00  0.00     0.217 HD
ENDBRANCH   8  14
ENDBRANCH   1   3
TORSDOF 4
ENDMDL
MODEL 9
REMARK VINA RESULT:     -17.7      1.812      2.748
REMARK  4 active torsions:
REMARK  status: ('A' for Active; 'I' for Inactive)
REMARK    1  A    between atoms: O_1  and  C_8 
REMARK    2  A    between atoms: O_2  and  C_9 
REMARK    3  A    between atoms: C_5  and  C_11 
REMARK    4  A    between atoms: C_12  and  C_13 
ROOT
ATOM      1  O   UNL A   1     -53.857  52.790  12.323  1.00  0.00    -0.358 OA
ATOM      2  H   UNL A   1     -53.151  53.303  12.665  1.00  0.00     0.217 HD
ENDROOT
BRANCH   1   3
ATOM      3  C   UNL A   1     -53.715  51.443  12.187  1.00  0.00     0.099 A 
ATOM      4  C   UNL A   1     -53.466  50.661  13.315  1.00  0.00     0.050 A 
ATOM      5  C   UNL A   1     -53.320  49.279  13.188  1.00  0.00    -0.033 A 
ATOM      6  C   UNL A   1     -53.426  48.679  11.933  1.00  0.00     0.014 A 
ATOM      7  C   UNL A   1     -53.675  49.462  10.805  1.00  0.00     0.040 A 
ATOM      8  C   UNL A   1     -53.820  50.843  10.933  1.00  0.00     0.098 A 
BRANCH   5   9
ATOM      9  C   UNL A   1     -53.059  48.464  14.364  1.00  0.00     0.018 C 
ATOM     10  C   UNL A   1     -52.125  48.771  15.260  1.00  0.00     0.085 C 
BRANCH  10  11
ATOM     11  C   UNL A   1     -51.928  47.867  16.411  1.00  0.00     0.198 C 
ATOM     12  O   UNL A   1     -53.079  47.188  16.632  1.00  0.00    -0.645 OA
ATOM     13  O   UNL A   1     -50.907  47.738  17.066  1.00  0.00    -0.645 OA
ENDBRANCH  10  11
ENDBRANCH   5   9
BRANCH   8  14
ATOM     14  O   UNL A   1     -54.065  51.595   9.824  1.00  0.00    -0.358 OA
ATOM     15  H   UNL A   1     -54.940  51.864   9.624  1.00  0.00     0.217 HD
ENDBRANCH   8  14
ENDBRANCH   1   3
TORSDOF 4
ENDMDL
