MODEL 1
REMARK VINA RESULT:     -19.4      0.000      0.000
REMARK  4 active torsions:
REMARK  status: ('A' for Active; 'I' for Inactive)
REMARK    1  A    between atoms: O_1  and  C_8 
REMARK    2  A    between atoms: O_2  and  C_9 
REMARK    3  A    between atoms: C_5  and  C_11 
REMARK    4  A    between atoms: C_12  and  C_13 
ROOT
ATOM      1  O   UNL A   1     -54.154  49.190   8.107  1.00  0.00    -0.358 OA
ATOM      2  H   UNL A   1     -54.980  48.792   7.914  1.00  0.00     0.217 HD
ENDROOT
BRANCH   1   3
ATOM      3  C   UNL A   1     -54.002  49.926   9.243  1.00  0.00     0.099 A 
ATOM      4  C   UNL A   1     -53.804  49.278  10.461  1.00  0.00     0.050 A 
ATOM      5  C   UNL A   1     -53.645  50.022  11.631  1.00  0.00    -0.033 A 
ATOM      6  C   UNL A   1     -53.683  51.415  11.580  1.00  0.00     0.014 A 
ATOM      7  C   UNL A   1     -53.880  52.064  10.361  1.00  0.00     0.040 A 
ATOM      8  C   UNL A   1     -54.039  51.320   9.193  1.00  0.00     0.098 A 
BRANCH   5   9
ATOM      9  C   UNL A   1     -53.441  49.345  12.901  1.00  0.00     0.018 C 
ATOM     10  C   UNL A   1     -53.237  49.998  14.042  1.00  0.00     0.085 C 
BRANCH  10  11
ATOM     11  C   UNL A   1     -53.023  49.215  15.275  1.00  0.00     0.198 C 
ATOM     12  O   UNL A   1     -54.224  48.984  15.857  1.00  0.00    -0.645 OA
ATOM     13  O   UNL A   1     -51.952  48.831  15.714  1.00  0.00    -0.645 OA
ENDBRANCH  10  11
ENDBRANCH   5   9
BRANCH   8  14
ATOM     14  O   UNL A   1     -54.230  51.965   8.009  1.00  0.00    -0.358 OA
ATOM     15  H   UNL A   1     -54.712  51.549   7.321  1.00  0.00     0.217 HD
ENDBRANCH   8  14
ENDBRANCH   1   3
TORSDOF 4
ENDMDL
MODEL 2
REMARK VINA RESULT:     -18.6      2.026      5.583
REMARK  4 active torsions:
REMARK  status: ('A' for Active; 'I' for Inactive)
REMARK    1  A    between atoms: O_1  and  C_8 
REMARK    2  A    between atoms: O_2  and  C_9 
REMARK    3  A    between atoms: C_5  and  C_11 
REMARK    4  A    between atoms: C_12  and  C_13 
ROOT
ATOM      1  O   UNL A   1     -53.837  52.048  13.055  1.00  0.00    -0.358 OA
ATOM      2  H   UNL A   1     -53.223  52.619  13.472  1.00  0.00     0.217 HD
ENDROOT
BRANCH   1   3
ATOM      3  C   UNL A   1     -53.551  50.723  12.918  1.00  0.00     0.099 A 
ATOM      4  C   UNL A   1     -53.712  50.110  11.676  1.00  0.00     0.050 A 
ATOM      5  C   UNL A   1     -53.420  48.755  11.523  1.00  0.00    -0.033 A 
ATOM      6  C   UNL A   1     -52.965  48.013  12.613  1.00  0.00     0.014 A 
ATOM      7  C   UNL A   1     -52.802  48.626  13.855  1.00  0.00     0.040 A 
ATOM      8  C   UNL A   1     -53.095  49.981  14.007  1.00  0.00     0.098 A 
BRANCH   5   9
ATOM      9  C   UNL A   1     -53.591  48.116  10.228  1.00  0.00     0.018 C 
ATOM     10  C   UNL A   1     -54.714  48.206   9.522  1.00  0.00     0.085 C 
BRANCH  10  11
ATOM     11  C   UNL A   1     -54.790  47.505   8.224  1.00  0.00     0.198 C 
ATOM     12  O   UNL A   1     -55.352  46.289   8.421  1.00  0.00    -0.645 OA
ATOM     13  O   UNL A   1     -54.416  47.932   7.145  1.00  0.00    -0.645 OA
ENDBRANCH  10  11
ENDBRANCH   5   9
BRANCH   8  14
ATOM     14  O   UNL A   1     -52.931  50.569  15.225  1.00  0.00    -0.358 OA
ATOM     15  H   UNL A   1     -52.315  51.267  15.329  1.00  0.00     0.217 HD
ENDBRANCH   8  14
ENDBRANCH   1   3
TORSDOF 4
ENDMDL
MODEL 3
REMARK VINA RESULT:     -18.6      0.841      1.850
REMARK  4 active torsions:
REMARK  status: ('A' for Active; 'I' for Inactive)
REMARK    1  A    between atoms: O_1  and  C_8 
REMARK    2  A    between atoms: O_2  and  C_9 
REMARK    3  A    between atoms: C_5  and  C_11 
REMARK    4  A    between atoms: C_12  and  C_13 
ROOT
ATOM      1  O   UNL A   1     -54.052  52.783   9.569  1.00  0.00    -0.358 OA
ATOM      2  H   UNL A   1     -54.848  53.269   9.658  1.00  0.00     0.217 HD
ENDROOT
BRANCH   1   3
ATOM      3  C   UNL A   1     -53.954  51.533  10.101  1.00  0.00     0.099 A 
ATOM      4  C   UNL A   1     -53.761  51.385  11.474  1.00  0.00     0.050 A 
ATOM      5  C   UNL A   1     -53.661  50.109  12.031  1.00  0.00    -0.033 A 
ATOM      6  C   UNL A   1     -53.756  48.983  11.214  1.00  0.00     0.014 A 
ATOM      7  C   UNL A   1     -53.950  49.132   9.840  1.00  0.00     0.040 A 
ATOM      8  C   UNL A   1     -54.049  50.407   9.285  1.00  0.00     0.098 A 
BRANCH   5   9
ATOM      9  C   UNL A   1     -53.458  49.955  13.462  1.00  0.00     0.018 C 
ATOM     10  C   UNL A   1     -52.940  48.855  14.003  1.00  0.00     0.085 C 
BRANCH  10  11
ATOM     11  C   UNL A   1     -52.791  48.792  15.471  1.00  0.00     0.198 C 
ATOM     12  O   UNL A   1     -54.020  48.873  16.035  1.00  0.00    -0.645 OA
ATOM     13  O   UNL A   1     -51.746  48.687  16.090  1.00  0.00    -0.645 OA
ENDBRANCH  10  11
ENDBRANCH   5   9
BRANCH   8  14
ATOM     14  O   UNL A   1     -54.239  50.539   7.942  1.00  0.00    -0.358 OA
ATOM     15  H   UNL A   1     -54.320  49.777   7.403  1.00  0.00     0.217 HD
ENDBRANCH   8  14
ENDBRANCH   1   3
TORSDOF 4
ENDMDL
MODEL 4
REMARK VINA RESULT:     -18.5      1.039      2.138
REMARK  4 active torsions:
REMARK  status: ('A' for Active; 'I' for Inactive)
REMARK    1  A    between atoms: O_1  and  C_8 
REMARK    2  A    between atoms: O_2  and  C_9 
REMARK    3  A    between atoms: C_5  and  C_11 
REMARK    4  A    between atoms: C_12  and  C_13 
ROOT
ATOM      1  O   UNL A   1     -54.238  51.463   8.225  1.00  0.00    -0.358 OA
ATOM      2  H   UNL A   1     -54.906  52.083   8.442  1.00  0.00     0.217 HD
ENDROOT
BRANCH   1   3
ATOM      3  C   UNL A   1     -53.959  50.438   9.077  1.00  0.00     0.099 A 
ATOM      4  C   UNL A   1     -53.950  50.670  10.452  1.00  0.00     0.050 A 
ATOM      5  C   UNL A   1     -53.667  49.627  11.334  1.00  0.00    -0.033 A 
ATOM      6  C   UNL A   1     -53.395  48.351  10.841  1.00  0.00     0.014 A 
ATOM      7  C   UNL A   1     -53.405  48.119   9.466  1.00  0.00     0.040 A 
ATOM      8  C   UNL A   1     -53.688  49.162   8.584  1.00  0.00     0.098 A 
BRANCH   5   9
ATOM      9  C   UNL A   1     -53.655  49.871  12.768  1.00  0.00     0.018 C 
ATOM     10  C   UNL A   1     -53.293  48.947  13.653  1.00  0.00     0.085 C 
BRANCH  10  11
ATOM     11  C   UNL A   1     -53.333  49.291  15.089  1.00  0.00     0.198 C 
ATOM     12  O   UNL A   1     -52.821  50.534  15.251  1.00  0.00    -0.645 OA
ATOM     13  O   UNL A   1     -53.753  48.588  15.992  1.00  0.00    -0.645 OA
ENDBRANCH  10  11
ENDBRANCH   5   9
BRANCH   8  14
ATOM     14  O   UNL A   1     -53.696  48.921   7.243  1.00  0.00    -0.358 OA
ATOM     15  H   UNL A   1     -52.908  48.661   6.809  1.00  0.00     0.217 HD
ENDBRANCH   8  14
ENDBRANCH   1   3
TORSDOF 4
ENDMDL
MODEL 5
REMARK VINA RESULT:     -18.0      1.761      5.616
REMARK  4 active torsions:
REMARK  status: ('A' for Active; 'I' for Inactive)
REMARK    1  A    between atoms: O_1  and  C_8 
REMARK    2  A    between atoms: O_2  and  C_9 
REMARK    3  A    between atoms: C_5  and  C_11 
REMARK    4  A    between atoms: C_12  and  C_13 
ROOT
ATOM      1  O   UNL A   1     -52.745  47.897  14.254  1.00  0.00    -0.358 OA
ATOM      2  H   UNL A   1     -51.923  47.458  14.156  1.00  0.00     0.217 HD
ENDROOT
BRANCH   1   3
ATOM      3  C   UNL A   1     -53.089  48.898  13.397  1.00  0.00     0.099 A 
ATOM      4  C   UNL A   1     -53.290  48.609  12.048  1.00  0.00     0.050 A 
ATOM      5  C   UNL A   1     -53.644  49.627  11.161  1.00  0.00    -0.033 A 
ATOM      6  C   UNL A   1     -53.799  50.933  11.626  1.00  0.00     0.014 A 
ATOM      7  C   UNL A   1     -53.599  51.221  12.976  1.00  0.00     0.040 A 
ATOM      8  C   UNL A   1     -53.244  50.204  13.861  1.00  0.00     0.098 A 
BRANCH   5   9
ATOM      9  C   UNL A   1     -53.852  49.326   9.754  1.00  0.00     0.018 C 
ATOM     10  C   UNL A   1     -53.146  48.405   9.102  1.00  0.00     0.085 C 
BRANCH  10  11
ATOM     11  C   UNL A   1     -53.424  48.188   7.668  1.00  0.00     0.198 C 
ATOM     12  O   UNL A   1     -52.303  48.465   6.962  1.00  0.00    -0.645 OA
ATOM     13  O   UNL A   1     -54.481  47.822   7.181  1.00  0.00    -0.645 OA
ENDBRANCH  10  11
ENDBRANCH   5   9
BRANCH   8  14
ATOM     14  O   UNL A   1     -53.053  50.498  15.177  1.00  0.00    -0.358 OA
ATOM     15  H   UNL A   1     -52.728  51.341  15.426  1.00  0.00     0.217 HD
ENDBRANCH   8  14
ENDBRANCH   1   3
TORSDOF 4
ENDMDL
MODEL 6
REMARK VINA RESULT:     -18.0      2.584      3.708
REMARK  4 active torsions:
REMARK  status: ('A' for Active; 'I' for Inactive)
REMARK    1  A    between atoms: O_1  and  C_8 
REMARK    2  A    between atoms: O_2  and  C_9 
REMARK    3  A    between atoms: C_5  and  C_11 
REMARK    4  A    between atoms: C_12  and  C_13 
ROOT
ATOM      1  O   UNL A   1     -56.138  46.214   8.762  1.00  0.00    -0.358 OA
ATOM      2  H   UNL A   1     -56.949  46.421   9.183  1.00  0.00     0.217 HD
ENDROOT
BRANCH   1   3
ATOM      3  C   UNL A   1     -55.152  47.149   8.688  1.00  0.00     0.099 A 
ATOM      4  C   UNL A   1     -55.086  48.157   9.650  1.00  0.00     0.050 A 
ATOM      5  C   UNL A   1     -54.078  49.120   9.585  1.00  0.00    -0.033 A 
ATOM      6  C   UNL A   1     -53.136  49.074   8.558  1.00  0.00     0.014 A 
ATOM      7  C   UNL A   1     -53.201  48.065   7.596  1.00  0.00     0.040 A 
ATOM      8  C   UNL A   1     -54.209  47.104   7.661  1.00  0.00     0.098 A 
BRANCH   5   9
ATOM      9  C   UNL A   1     -54.012  50.171  10.587  1.00  0.00     0.018 C 
ATOM     10  C   UNL A   1     -53.684  49.938  11.855  1.00  0.00     0.085 C 
BRANCH  10  11
ATOM     11  C   UNL A   1     -53.662  51.074  12.798  1.00  0.00     0.198 C 
ATOM     12  O   UNL A   1     -53.643  50.589  14.062  1.00  0.00    -0.645 OA
ATOM     13  O   UNL A   1     -53.660  52.259  12.508  1.00  0.00    -0.645 OA
ENDBRANCH  10  11
ENDBRANCH   5   9
BRANCH   8  14
ATOM     14  O   UNL A   1     -54.261  46.123   6.717  1.00  0.00    -0.358 OA
ATOM     15  H   UNL A   1     -54.637  46.301   5.877  1.00  0.00     0.217 HD
ENDBRANCH   8  14
ENDBRANCH   1   3
TORSDOF 4
ENDMDL
MODEL 7
REMARK VINA RESULT:     -17.9      2.435      3.613
REMARK  4 active torsions:
REMARK  status: ('A' for Active; 'I' for Inactive)
REMARK    1  A    between atoms: O_1  and  C_8 
REMARK    2  A    between atoms: O_2  and  C_9 
REMARK    3  A    between atoms: C_5  and  C_11 
REMARK    4  A    between atoms: C_12  and  C_13 
ROOT
ATOM      1  O   UNL A   1     -52.533  48.460   6.372  1.00  0.00    -0.358 OA
ATOM      2  H   UNL A   1     -52.818  48.131   5.543  1.00  0.00     0.217 HD
ENDROOT
BRANCH   1   3
ATOM      3  C   UNL A   1     -53.320  48.309   7.473  1.00  0.00     0.099 A 
ATOM      4  C   UNL A   1     -53.288  49.275   8.478  1.00  0.00     0.050 A 
ATOM      5  C   UNL A   1     -54.092  49.132   9.610  1.00  0.00    -0.033 A 
ATOM      6  C   UNL A   1     -54.929  48.023   9.734  1.00  0.00     0.014 A 
ATOM      7  C   UNL A   1     -54.961  47.057   8.728  1.00  0.00     0.040 A 
ATOM      8  C   UNL A   1     -54.157  47.200   7.598  1.00  0.00     0.098 A 
BRANCH   5   9
ATOM      9  C   UNL A   1     -54.058  50.139  10.658  1.00  0.00     0.018 C 
ATOM     10  C   UNL A   1     -53.661  49.873  11.900  1.00  0.00     0.085 C 
BRANCH  10  11
ATOM     11  C   UNL A   1     -53.680  50.964  12.895  1.00  0.00     0.198 C 
ATOM     12  O   UNL A   1     -53.717  50.420  14.135  1.00  0.00    -0.645 OA
ATOM     13  O   UNL A   1     -53.665  52.160  12.661  1.00  0.00    -0.645 OA
ENDBRANCH  10  11
ENDBRANCH   5   9
BRANCH   8  14
ATOM     14  O   UNL A   1     -54.198  46.251   6.622  1.00  0.00    -0.358 OA
ATOM     15  H   UNL A   1     -53.847  45.398   6.783  1.00  0.00     0.217 HD
ENDBRANCH   8  14
ENDBRANCH   1   3
TORSDOF 4
ENDMDL
MODEL 8
REMARK VINA RESULT:     -17.8      1.657      2.716
REMARK  4 active torsions:
REMARK  status: ('A' for Active; 'I' for Inactive)
REMARK    1  A    between atoms: O_1  and  C_8 
REMARK    2  A    between atoms: O_2  and  C_9 
REMARK    3  A    between atoms: C_5  and  C_11 
REMARK    4  A    between atoms: C_12  and  C_13 
ROOT
ATOM      1  O   UNL A   1     -53.978  53.178  11.680  1.00  0.00    -0.358 OA
ATOM      2  H   UNL A   1     -54.080  53.577  10.838  1.00  0.00     0.217 HD
ENDROOT
BRANCH   1   3
ATOM      3  C   UNL A   1     -53.827  51.829  11.780  1.00  0.00     0.099 A 
ATOM      4  C   UNL A   1     -53.597  51.254  13.030  1.00  0.00     0.050 A 
ATOM      5  C   UNL A   1     -53.442  49.872  13.146  1.00  0.00    -0.033 A 
ATOM      6  C   UNL A   1     -53.520  49.065  12.011  1.00  0.00     0.014 A 
ATOM      7  C   UNL A   1     -53.750  49.640  10.761  1.00  0.00     0.040 A 
ATOM      8  C   UNL A   1     -53.904  51.021  10.646  1.00  0.00     0.098 A 
BRANCH   5   9
ATOM      9  C   UNL A   1     -53.201  49.274  14.449  1.00  0.00     0.018 C 
ATOM     10  C   UNL A   1     -52.725  48.041  14.599  1.00  0.00     0.085 C 
BRANCH  10  11
ATOM     11  C   UNL A   1     -52.532  47.521  15.968  1.00  0.00     0.198 C 
ATOM     12  O   UNL A   1     -51.209  47.321  16.174  1.00  0.00    -0.645 OA
ATOM     13  O   UNL A   1     -53.405  47.302  16.791  1.00  0.00    -0.645 OA
ENDBRANCH  10  11
ENDBRANCH   5   9
BRANCH   8  14
ATOM     14  O   UNL A   1     -54.130  51.570   9.420  1.00  0.00    -0.358 OA
ATOM     15  H   UNL A   1     -54.070  51.039   8.650  1.00  0.00     0.217 HD
ENDBRANCH   8  14
ENDBRANCH   1   3
TORSDOF 4
ENDMDL
MODEL 9
REMARK VINA RESULT:     -17.7      2.477      5.083
REMARK  4 active torsions:
REMARK  status: ('A' for Active; 'I' for Inactive)
REMARK    1  A    between atoms: O_1  and  C_8 
REMARK    2  A    between atoms: O_2  and  C_9 
REMARK    3  A    between atoms: C_5  and  C_11 
REMARK    4  A    between atoms: C_12  and  C_13 
ROOT
ATOM      1  O   UNL A   1     -53.462  50.708  13.876  1.00  0.00    -0.358 OA
ATOM      2  H   UNL A   1     -52.660  51.049  14.219  1.00  0.00     0.217 HD
ENDROOT
BRANCH   1   3
ATOM      3  C   UNL A   1     -53.655  50.645  12.530  1.00  0.00     0.099 A 
ATOM      4  C   UNL A   1     -53.788  49.402  11.912  1.00  0.00     0.050 A 
ATOM      5  C   UNL A   1     -53.987  49.325  10.533  1.00  0.00    -0.033 A 
ATOM      6  C   UNL A   1     -54.055  50.493   9.773  1.00  0.00     0.014 A 
ATOM      7  C   UNL A   1     -53.922  51.736  10.391  1.00  0.00     0.040 A 
ATOM      8  C   UNL A   1     -53.722  51.812  11.769  1.00  0.00     0.098 A 
BRANCH   5   9
ATOM      9  C   UNL A   1     -54.124  48.029   9.889  1.00  0.00     0.018 C 
ATOM     10  C   UNL A   1     -55.185  47.695   9.159  1.00  0.00     0.085 C 
BRANCH  10  11
ATOM     11  C   UNL A   1     -55.234  46.345   8.562  1.00  0.00     0.198 C 
ATOM     12  O   UNL A   1     -54.303  46.270   7.582  1.00  0.00    -0.645 OA
ATOM     13  O   UNL A   1     -55.981  45.436   8.884  1.00  0.00    -0.645 OA
ENDBRANCH  10  11
ENDBRANCH   5   9
BRANCH   8  14
ATOM     14  O   UNL A   1     -53.596  53.032  12.361  1.00  0.00    -0.358 OA
ATOM     15  H   UNL A   1     -54.336  53.431  12.775  1.00  0.00     0.217 HD
ENDBRANCH   8  14
ENDBRANCH   1   3
TORSDOF 4
ENDMDL
