MODEL 1
REMARK VINA RESULT:      -6.7      0.000      0.000
REMARK  5 active torsions:
REMARK  status: ('A' for Active; 'I' for Inactive)
REMARK    1  A    between atoms: O_1  and  C_10 
REMARK    2  A    between atoms: O_2  and  C_12 
REMARK    3  A    between atoms: C_5  and  C_6 
REMARK    4  A    between atoms: C_5  and  C_7 
REMARK    5  A    between atoms: C_7  and  C_13 
ROOT
HETATM    1  O   UNL     1     -53.782  52.262   9.731  1.00  0.00    -0.358 OA
HETATM    2  H   UNL     1     -54.575  52.705   9.961  1.00  0.00     0.217 HD
ENDROOT
BRANCH   1   3
HETATM    3  C   UNL     1     -53.608  50.954  10.071  1.00  0.00     0.099 A 
HETATM    4  C   UNL     1     -53.684  50.579  11.411  1.00  0.00     0.046 A 
HETATM    5  C   UNL     1     -53.507  49.243  11.772  1.00  0.00    -0.055 A 
HETATM    6  C   UNL     1     -53.254  48.284  10.792  1.00  0.00     0.010 A 
HETATM    7  C   UNL     1     -53.178  48.659   9.452  1.00  0.00     0.040 A 
HETATM    8  C   UNL     1     -53.355  49.995   9.090  1.00  0.00     0.098 A 
BRANCH   5   9
HETATM    9  C   UNL     1     -53.588  48.842  13.206  1.00  0.00     0.049 C 
BRANCH   9  10
HETATM   10  C   UNL     1     -52.268  48.306  13.774  1.00  0.00     0.117 C 
BRANCH  10  11
HETATM   11  C   UNL     1     -51.907  48.978  15.077  1.00  0.00     0.172 C 
HETATM   12  O   UNL     1     -50.799  48.451  15.652  1.00  0.00    -0.648 OA
HETATM   13  O   UNL     1     -52.532  49.917  15.553  1.00  0.00    -0.648 OA
ENDBRANCH  10  11
ENDBRANCH   9  10
ENDBRANCH   5   9
BRANCH   8  14
HETATM   14  O   UNL     1     -53.277  50.351   7.778  1.00  0.00    -0.358 OA
HETATM   15  H   UNL     1     -52.974  49.733   7.142  1.00  0.00     0.217 HD
ENDBRANCH   8  14
ENDBRANCH   1   3
TORSDOF 5
ENDMDL
MODEL 2
REMARK VINA RESULT:      -6.4      0.781      2.080
REMARK  5 active torsions:
REMARK  status: ('A' for Active; 'I' for Inactive)
REMARK    1  A    between atoms: O_1  and  C_10 
REMARK    2  A    between atoms: O_2  and  C_12 
REMARK    3  A    between atoms: C_5  and  C_6 
REMARK    4  A    between atoms: C_5  and  C_7 
REMARK    5  A    between atoms: C_7  and  C_13 
ROOT
HETATM    1  O   UNL     1     -53.328  47.696   8.525  1.00  0.00    -0.358 OA
HETATM    2  H   UNL     1     -53.066  47.941   7.659  1.00  0.00     0.217 HD
ENDROOT
BRANCH   1   3
HETATM    3  C   UNL     1     -53.402  48.639   9.506  1.00  0.00     0.099 A 
HETATM    4  C   UNL     1     -53.442  48.238  10.840  1.00  0.00     0.046 A 
HETATM    5  C   UNL     1     -53.519  49.193  11.854  1.00  0.00    -0.055 A 
HETATM    6  C   UNL     1     -53.554  50.550  11.532  1.00  0.00     0.010 A 
HETATM    7  C   UNL     1     -53.514  50.951  10.197  1.00  0.00     0.040 A 
HETATM    8  C   UNL     1     -53.438  49.996   9.183  1.00  0.00     0.098 A 
BRANCH   5   9
HETATM    9  C   UNL     1     -53.561  48.764  13.281  1.00  0.00     0.049 C 
BRANCH   9  10
HETATM   10  C   UNL     1     -52.251  48.140  13.778  1.00  0.00     0.117 C 
BRANCH  10  11
HETATM   11  C   UNL     1     -51.775  48.786  15.056  1.00  0.00     0.172 C 
HETATM   12  O   UNL     1     -52.525  49.856  15.417  1.00  0.00    -0.648 OA
HETATM   13  O   UNL     1     -50.828  48.376  15.714  1.00  0.00    -0.648 OA
ENDBRANCH  10  11
ENDBRANCH   9  10
ENDBRANCH   5   9
BRANCH   8  14
HETATM   14  O   UNL     1     -53.401  50.399   7.883  1.00  0.00    -0.358 OA
HETATM   15  H   UNL     1     -54.147  50.819   7.501  1.00  0.00     0.217 HD
ENDBRANCH   8  14
ENDBRANCH   1   3
TORSDOF 5
ENDMDL
MODEL 3
REMARK VINA RESULT:      -6.1      1.393      2.441
REMARK  5 active torsions:
REMARK  status: ('A' for Active; 'I' for Inactive)
REMARK    1  A    between atoms: O_1  and  C_10 
REMARK    2  A    between atoms: O_2  and  C_12 
REMARK    3  A    between atoms: C_5  and  C_6 
REMARK    4  A    between atoms: C_5  and  C_7 
REMARK    5  A    between atoms: C_7  and  C_13 
ROOT
HETATM    1  O   UNL     1     -53.538  49.978   7.854  1.00  0.00    -0.358 OA
HETATM    2  H   UNL     1     -53.827  49.207   7.407  1.00  0.00     0.217 HD
ENDROOT
BRANCH   1   3
HETATM    3  C   UNL     1     -53.463  49.988   9.214  1.00  0.00     0.099 A 
HETATM    4  C   UNL     1     -53.214  48.798   9.896  1.00  0.00     0.046 A 
HETATM    5  C   UNL     1     -53.135  48.795  11.289  1.00  0.00    -0.055 A 
HETATM    6  C   UNL     1     -53.306  49.983  11.999  1.00  0.00     0.010 A 
HETATM    7  C   UNL     1     -53.555  51.174  11.317  1.00  0.00     0.040 A 
HETATM    8  C   UNL     1     -53.633  51.176   9.924  1.00  0.00     0.098 A 
BRANCH   5   9
HETATM    9  C   UNL     1     -52.869  47.521  12.018  1.00  0.00     0.049 C 
BRANCH   9  10
HETATM   10  C   UNL     1     -52.511  47.720  13.496  1.00  0.00     0.117 C 
BRANCH  10  11
HETATM   11  C   UNL     1     -51.659  46.589  14.020  1.00  0.00     0.172 C 
HETATM   12  O   UNL     1     -50.615  47.019  14.769  1.00  0.00    -0.648 OA
HETATM   13  O   UNL     1     -51.898  45.406  13.815  1.00  0.00    -0.648 OA
ENDBRANCH  10  11
ENDBRANCH   9  10
ENDBRANCH   5   9
BRANCH   8  14
HETATM   14  O   UNL     1     -53.879  52.345   9.269  1.00  0.00    -0.358 OA
HETATM   15  H   UNL     1     -53.392  53.115   9.486  1.00  0.00     0.217 HD
ENDBRANCH   8  14
ENDBRANCH   1   3
TORSDOF 5
ENDMDL
MODEL 4
REMARK VINA RESULT:      -6.0      2.969      4.700
REMARK  5 active torsions:
REMARK  status: ('A' for Active; 'I' for Inactive)
REMARK    1  A    between atoms: O_1  and  C_10 
REMARK    2  A    between atoms: O_2  and  C_12 
REMARK    3  A    between atoms: C_5  and  C_6 
REMARK    4  A    between atoms: C_5  and  C_7 
REMARK    5  A    between atoms: C_7  and  C_13 
ROOT
HETATM    1  O   UNL     1     -53.327  50.748   7.812  1.00  0.00    -0.358 OA
HETATM    2  H   UNL     1     -53.567  50.270   7.043  1.00  0.00     0.217 HD
ENDROOT
BRANCH   1   3
HETATM    3  C   UNL     1     -53.345  50.135   9.029  1.00  0.00     0.099 A 
HETATM    4  C   UNL     1     -53.196  48.751   9.101  1.00  0.00     0.046 A 
HETATM    5  C   UNL     1     -53.213  48.111  10.341  1.00  0.00    -0.055 A 
HETATM    6  C   UNL     1     -53.380  48.857  11.507  1.00  0.00     0.010 A 
HETATM    7  C   UNL     1     -53.530  50.241  11.435  1.00  0.00     0.040 A 
HETATM    8  C   UNL     1     -53.512  50.881  10.196  1.00  0.00     0.098 A 
BRANCH   5   9
HETATM    9  C   UNL     1     -53.053  46.630  10.418  1.00  0.00     0.049 C 
BRANCH   9  10
HETATM   10  C   UNL     1     -53.280  45.914   9.081  1.00  0.00     0.117 C 
BRANCH  10  11
HETATM   11  C   UNL     1     -54.681  45.360   8.976  1.00  0.00     0.172 C 
HETATM   12  O   UNL     1     -54.716  44.006   9.015  1.00  0.00    -0.648 OA
HETATM   13  O   UNL     1     -55.684  46.057   8.892  1.00  0.00    -0.648 OA
ENDBRANCH  10  11
ENDBRANCH   9  10
ENDBRANCH   5   9
BRANCH   8  14
HETATM   14  O   UNL     1     -53.661  52.233  10.136  1.00  0.00    -0.358 OA
HETATM   15  H   UNL     1     -54.332  52.653  10.638  1.00  0.00     0.217 HD
ENDBRANCH   8  14
ENDBRANCH   1   3
TORSDOF 5
ENDMDL
MODEL 5
REMARK VINA RESULT:      -5.9      2.574      5.296
REMARK  5 active torsions:
REMARK  status: ('A' for Active; 'I' for Inactive)
REMARK    1  A    between atoms: O_1  and  C_10 
REMARK    2  A    between atoms: O_2  and  C_12 
REMARK    3  A    between atoms: C_5  and  C_6 
REMARK    4  A    between atoms: C_5  and  C_7 
REMARK    5  A    between atoms: C_7  and  C_13 
ROOT
HETATM    1  O   UNL     1     -53.690  52.065   9.019  1.00  0.00    -0.358 OA
HETATM    2  H   UNL     1     -53.405  52.078   8.127  1.00  0.00     0.217 HD
ENDROOT
BRANCH   1   3
HETATM    3  C   UNL     1     -53.531  50.939   9.770  1.00  0.00     0.099 A 
HETATM    4  C   UNL     1     -53.457  49.699   9.138  1.00  0.00     0.046 A 
HETATM    5  C   UNL     1     -53.296  48.539   9.895  1.00  0.00    -0.055 A 
HETATM    6  C   UNL     1     -53.207  48.620  11.285  1.00  0.00     0.010 A 
HETATM    7  C   UNL     1     -53.281  49.861  11.917  1.00  0.00     0.040 A 
HETATM    8  C   UNL     1     -53.443  51.021  11.159  1.00  0.00     0.098 A 
BRANCH   5   9
HETATM    9  C   UNL     1     -53.217  47.212   9.218  1.00  0.00     0.049 C 
BRANCH   9  10
HETATM   10  C   UNL     1     -53.722  47.226   7.771  1.00  0.00     0.117 C 
BRANCH  10  11
HETATM   11  C   UNL     1     -52.928  46.288   6.894  1.00  0.00     0.172 C 
HETATM   12  O   UNL     1     -51.590  46.390   7.089  1.00  0.00    -0.648 OA
HETATM   13  O   UNL     1     -53.434  45.500   6.106  1.00  0.00    -0.648 OA
ENDBRANCH  10  11
ENDBRANCH   9  10
ENDBRANCH   5   9
BRANCH   8  14
HETATM   14  O   UNL     1     -53.515  52.227  11.787  1.00  0.00    -0.358 OA
HETATM   15  H   UNL     1     -52.786  52.540  12.287  1.00  0.00     0.217 HD
ENDBRANCH   8  14
ENDBRANCH   1   3
TORSDOF 5
ENDMDL
MODEL 6
REMARK VINA RESULT:      -5.8      2.833      3.829
REMARK  5 active torsions:
REMARK  status: ('A' for Active; 'I' for Inactive)
REMARK    1  A    between atoms: O_1  and  C_10 
REMARK    2  A    between atoms: O_2  and  C_12 
REMARK    3  A    between atoms: C_5  and  C_6 
REMARK    4  A    between atoms: C_5  and  C_7 
REMARK    5  A    between atoms: C_7  and  C_13 
ROOT
HETATM    1  O   UNL     1     -53.548  49.768   7.870  1.00  0.00    -0.358 OA
HETATM    2  H   UNL     1     -53.629  48.965   7.396  1.00  0.00     0.217 HD
ENDROOT
BRANCH   1   3
HETATM    3  C   UNL     1     -53.451  49.750   9.229  1.00  0.00     0.099 A 
HETATM    4  C   UNL     1     -53.179  48.549   9.881  1.00  0.00     0.046 A 
HETATM    5  C   UNL     1     -53.079  48.517  11.272  1.00  0.00    -0.055 A 
HETATM    6  C   UNL     1     -53.250  49.688  12.010  1.00  0.00     0.010 A 
HETATM    7  C   UNL     1     -53.522  50.890  11.358  1.00  0.00     0.040 A 
HETATM    8  C   UNL     1     -53.622  50.922   9.967  1.00  0.00     0.098 A 
BRANCH   5   9
HETATM    9  C   UNL     1     -52.788  47.231  11.969  1.00  0.00     0.049 C 
BRANCH   9  10
HETATM   10  C   UNL     1     -51.793  46.335  11.222  1.00  0.00     0.117 C 
BRANCH  10  11
HETATM   11  C   UNL     1     -52.366  44.962  10.961  1.00  0.00     0.172 C 
HETATM   12  O   UNL     1     -53.343  44.969  10.022  1.00  0.00    -0.648 OA
HETATM   13  O   UNL     1     -51.975  43.945  11.518  1.00  0.00    -0.648 OA
ENDBRANCH  10  11
ENDBRANCH   9  10
ENDBRANCH   5   9
BRANCH   8  14
HETATM   14  O   UNL     1     -53.890  52.101   9.341  1.00  0.00    -0.358 OA
HETATM   15  H   UNL     1     -54.559  52.667   9.673  1.00  0.00     0.217 HD
ENDBRANCH   8  14
ENDBRANCH   1   3
TORSDOF 5
ENDMDL
MODEL 7
REMARK VINA RESULT:      -5.8      3.030      5.289
REMARK  5 active torsions:
REMARK  status: ('A' for Active; 'I' for Inactive)
REMARK    1  A    between atoms: O_1  and  C_10 
REMARK    2  A    between atoms: O_2  and  C_12 
REMARK    3  A    between atoms: C_5  and  C_6 
REMARK    4  A    between atoms: C_5  and  C_7 
REMARK    5  A    between atoms: C_7  and  C_13 
ROOT
HETATM    1  O   UNL     1     -52.841  49.790  13.396  1.00  0.00    -0.358 OA
HETATM    2  H   UNL     1     -52.402  50.575  13.655  1.00  0.00     0.217 HD
ENDROOT
BRANCH   1   3
HETATM    3  C   UNL     1     -53.145  49.581  12.084  1.00  0.00     0.099 A 
HETATM    4  C   UNL     1     -53.129  48.283  11.575  1.00  0.00     0.046 A 
HETATM    5  C   UNL     1     -53.437  48.055  10.234  1.00  0.00    -0.055 A 
HETATM    6  C   UNL     1     -53.761  49.127   9.402  1.00  0.00     0.010 A 
HETATM    7  C   UNL     1     -53.777  50.425   9.911  1.00  0.00     0.040 A 
HETATM    8  C   UNL     1     -53.470  50.652  11.252  1.00  0.00     0.098 A 
BRANCH   5   9
HETATM    9  C   UNL     1     -53.420  46.667   9.690  1.00  0.00     0.049 C 
BRANCH   9  10
HETATM   10  C   UNL     1     -54.783  46.188   9.178  1.00  0.00     0.117 C 
BRANCH  10  11
HETATM   11  C   UNL     1     -54.679  44.854   8.478  1.00  0.00     0.172 C 
HETATM   12  O   UNL     1     -54.044  44.934   7.284  1.00  0.00    -0.648 OA
HETATM   13  O   UNL     1     -55.099  43.804   8.948  1.00  0.00    -0.648 OA
ENDBRANCH  10  11
ENDBRANCH   9  10
ENDBRANCH   5   9
BRANCH   8  14
HETATM   14  O   UNL     1     -53.487  51.924  11.738  1.00  0.00    -0.358 OA
HETATM   15  H   UNL     1     -52.771  52.503  11.561  1.00  0.00     0.217 HD
ENDBRANCH   8  14
ENDBRANCH   1   3
TORSDOF 5
ENDMDL
MODEL 8
REMARK VINA RESULT:      -5.6      1.162      5.322
REMARK  5 active torsions:
REMARK  status: ('A' for Active; 'I' for Inactive)
REMARK    1  A    between atoms: O_1  and  C_10 
REMARK    2  A    between atoms: O_2  and  C_12 
REMARK    3  A    between atoms: C_5  and  C_6 
REMARK    4  A    between atoms: C_5  and  C_7 
REMARK    5  A    between atoms: C_7  and  C_13 
ROOT
HETATM    1  O   UNL     1     -52.592  49.687  15.169  1.00  0.00    -0.358 OA
HETATM    2  H   UNL     1     -51.858  49.746  15.749  1.00  0.00     0.217 HD
ENDROOT
BRANCH   1   3
HETATM    3  C   UNL     1     -52.563  48.819  14.120  1.00  0.00     0.099 A 
HETATM    4  C   UNL     1     -53.397  49.039  13.024  1.00  0.00     0.046 A 
HETATM    5  C   UNL     1     -53.377  48.157  11.944  1.00  0.00    -0.055 A 
HETATM    6  C   UNL     1     -52.522  47.055  11.960  1.00  0.00     0.010 A 
HETATM    7  C   UNL     1     -51.688  46.834  13.055  1.00  0.00     0.040 A 
HETATM    8  C   UNL     1     -51.708  47.716  14.135  1.00  0.00     0.098 A 
BRANCH   5   9
HETATM    9  C   UNL     1     -54.269  48.394  10.772  1.00  0.00     0.049 C 
BRANCH   9  10
HETATM   10  C   UNL     1     -54.122  49.790  10.157  1.00  0.00     0.117 C 
BRANCH  10  11
HETATM   11  C   UNL     1     -53.351  49.750   8.860  1.00  0.00     0.172 C 
HETATM   12  O   UNL     1     -53.022  48.491   8.481  1.00  0.00    -0.648 OA
HETATM   13  O   UNL     1     -53.073  50.745   8.202  1.00  0.00    -0.648 OA
ENDBRANCH  10  11
ENDBRANCH   9  10
ENDBRANCH   5   9
BRANCH   8  14
HETATM   14  O   UNL     1     -50.891  47.490  15.201  1.00  0.00    -0.358 OA
HETATM   15  H   UNL     1     -50.497  46.648  15.319  1.00  0.00     0.217 HD
ENDBRANCH   8  14
ENDBRANCH   1   3
TORSDOF 5
ENDMDL
MODEL 9
REMARK VINA RESULT:      -5.6      3.076      5.028
REMARK  5 active torsions:
REMARK  status: ('A' for Active; 'I' for Inactive)
REMARK    1  A    between atoms: O_1  and  C_10 
REMARK    2  A    between atoms: O_2  and  C_12 
REMARK    3  A    between atoms: C_5  and  C_6 
REMARK    4  A    between atoms: C_5  and  C_7 
REMARK    5  A    between atoms: C_7  and  C_13 
ROOT
HETATM    1  O   UNL     1     -52.865  45.174   8.491  1.00  0.00    -0.358 OA
HETATM    2  H   UNL     1     -53.191  44.314   8.316  1.00  0.00     0.217 HD
ENDROOT
BRANCH   1   3
HETATM    3  C   UNL     1     -53.690  46.122   9.017  1.00  0.00     0.099 A 
HETATM    4  C   UNL     1     -53.146  47.308   9.510  1.00  0.00     0.046 A 
HETATM    5  C   UNL     1     -53.981  48.285  10.052  1.00  0.00    -0.055 A 
HETATM    6  C   UNL     1     -55.359  48.076  10.100  1.00  0.00     0.010 A 
HETATM    7  C   UNL     1     -55.903  46.891   9.608  1.00  0.00     0.040 A 
HETATM    8  C   UNL     1     -55.068  45.913   9.066  1.00  0.00     0.098 A 
BRANCH   5   9
HETATM    9  C   UNL     1     -53.399  49.554  10.578  1.00  0.00     0.049 C 
BRANCH   9  10
HETATM   10  C   UNL     1     -53.502  50.732   9.601  1.00  0.00     0.117 C 
BRANCH  10  11
HETATM   11  C   UNL     1     -53.741  52.035  10.324  1.00  0.00     0.172 C 
HETATM   12  O   UNL     1     -54.323  52.974   9.539  1.00  0.00    -0.648 OA
HETATM   13  O   UNL     1     -53.464  52.221  11.502  1.00  0.00    -0.648 OA
ENDBRANCH  10  11
ENDBRANCH   9  10
ENDBRANCH   5   9
BRANCH   8  14
HETATM   14  O   UNL     1     -55.610  44.758   8.590  1.00  0.00    -0.358 OA
HETATM   15  H   UNL     1     -55.413  44.472   7.719  1.00  0.00     0.217 HD
ENDBRANCH   8  14
ENDBRANCH   1   3
TORSDOF 5
ENDMDL
