MODEL 1
REMARK VINA RESULT:      -6.4      0.000      0.000
REMARK  4 active torsions:
REMARK  status: ('A' for Active; 'I' for Inactive)
REMARK    1  A    between atoms: O_1  and  C_8 
REMARK    2  A    between atoms: O_2  and  C_9 
REMARK    3  A    between atoms: C_5  and  C_11 
REMARK    4  A    between atoms: C_12  and  C_13 
ROOT
ATOM      1  O   UNL A   1       5.866  -9.539  58.270  1.00  0.00    -0.358 OA
ATOM      2  H   UNL A   1       5.949  -8.874  58.925  1.00  0.00     0.217 HD
ENDROOT
BRANCH   1   3
ATOM      3  C   UNL A   1       5.114  -9.310  57.159  1.00  0.00     0.099 A 
ATOM      4  C   UNL A   1       3.938 -10.034  56.963  1.00  0.00     0.050 A 
ATOM      5  C   UNL A   1       3.158  -9.806  55.829  1.00  0.00    -0.033 A 
ATOM      6  C   UNL A   1       3.555  -8.853  54.891  1.00  0.00     0.014 A 
ATOM      7  C   UNL A   1       4.731  -8.128  55.087  1.00  0.00     0.040 A 
ATOM      8  C   UNL A   1       5.510  -8.357  56.220  1.00  0.00     0.098 A 
BRANCH   5   9
ATOM      9  C   UNL A   1       1.933 -10.562  55.625  1.00  0.00     0.018 C 
ATOM     10  C   UNL A   1       0.761  -9.983  55.379  1.00  0.00     0.085 C 
BRANCH  10  11
ATOM     11  C   UNL A   1      -0.427 -10.842  55.204  1.00  0.00     0.198 C 
ATOM     12  O   UNL A   1      -1.149 -10.823  56.350  1.00  0.00    -0.645 OA
ATOM     13  O   UNL A   1      -0.727 -11.472  54.203  1.00  0.00    -0.645 OA
ENDBRANCH  10  11
ENDBRANCH   5   9
BRANCH   8  14
ATOM     14  O   UNL A   1       6.655  -7.643  56.401  1.00  0.00    -0.358 OA
ATOM     15  H   UNL A   1       7.241  -7.507  55.682  1.00  0.00     0.217 HD
ENDBRANCH   8  14
ENDBRANCH   1   3
TORSDOF 4
ENDMDL
MODEL 2
REMARK VINA RESULT:      -6.4      1.397      2.014
REMARK  4 active torsions:
REMARK  status: ('A' for Active; 'I' for Inactive)
REMARK    1  A    between atoms: O_1  and  C_8 
REMARK    2  A    between atoms: O_2  and  C_9 
REMARK    3  A    between atoms: C_5  and  C_11 
REMARK    4  A    between atoms: C_12  and  C_13 
ROOT
ATOM      1  O   UNL A   1       6.334  -7.538  56.494  1.00  0.00    -0.358 OA
ATOM      2  H   UNL A   1       7.121  -7.126  56.196  1.00  0.00     0.217 HD
ENDROOT
BRANCH   1   3
ATOM      3  C   UNL A   1       5.380  -7.912  55.597  1.00  0.00     0.099 A 
ATOM      4  C   UNL A   1       4.431  -8.867  55.960  1.00  0.00     0.050 A 
ATOM      5  C   UNL A   1       3.448  -9.256  55.050  1.00  0.00    -0.033 A 
ATOM      6  C   UNL A   1       3.413  -8.687  53.777  1.00  0.00     0.014 A 
ATOM      7  C   UNL A   1       4.361  -7.731  53.414  1.00  0.00     0.040 A 
ATOM      8  C   UNL A   1       5.344  -7.344  54.324  1.00  0.00     0.098 A 
BRANCH   5   9
ATOM      9  C   UNL A   1       2.460 -10.253  55.429  1.00  0.00     0.018 C 
ATOM     10  C   UNL A   1       1.645 -10.831  54.551  1.00  0.00     0.085 C 
BRANCH  10  11
ATOM     11  C   UNL A   1       0.665 -11.820  55.043  1.00  0.00     0.198 C 
ATOM     12  O   UNL A   1       0.275 -12.598  54.005  1.00  0.00    -0.645 OA
ATOM     13  O   UNL A   1       0.261 -11.935  56.188  1.00  0.00    -0.645 OA
ENDBRANCH  10  11
ENDBRANCH   5   9
BRANCH   8  14
ATOM     14  O   UNL A   1       6.264  -6.408  53.957  1.00  0.00    -0.358 OA
ATOM     15  H   UNL A   1       6.060  -5.497  54.030  1.00  0.00     0.217 HD
ENDBRANCH   8  14
ENDBRANCH   1   3
TORSDOF 4
ENDMDL
MODEL 3
REMARK VINA RESULT:      -6.3      3.101      4.758
REMARK  4 active torsions:
REMARK  status: ('A' for Active; 'I' for Inactive)
REMARK    1  A    between atoms: O_1  and  C_8 
REMARK    2  A    between atoms: O_2  and  C_9 
REMARK    3  A    between atoms: C_5  and  C_11 
REMARK    4  A    between atoms: C_12  and  C_13 
ROOT
ATOM      1  O   UNL A   1       4.824  -6.054  51.822  1.00  0.00    -0.358 OA
ATOM      2  H   UNL A   1       4.307  -5.701  51.125  1.00  0.00     0.217 HD
ENDROOT
BRANCH   1   3
ATOM      3  C   UNL A   1       4.392  -5.950  53.110  1.00  0.00     0.099 A 
ATOM      4  C   UNL A   1       4.113  -7.107  53.836  1.00  0.00     0.050 A 
ATOM      5  C   UNL A   1       3.671  -7.013  55.157  1.00  0.00    -0.033 A 
ATOM      6  C   UNL A   1       3.511  -5.760  55.750  1.00  0.00     0.014 A 
ATOM      7  C   UNL A   1       3.791  -4.603  55.023  1.00  0.00     0.040 A 
ATOM      8  C   UNL A   1       4.231  -4.698  53.703  1.00  0.00     0.098 A 
BRANCH   5   9
ATOM      9  C   UNL A   1       3.379  -8.219  55.913  1.00  0.00     0.018 C 
ATOM     10  C   UNL A   1       4.321  -8.935  56.521  1.00  0.00     0.085 C 
BRANCH  10  11
ATOM     11  C   UNL A   1       3.920 -10.156  57.249  1.00  0.00     0.198 C 
ATOM     12  O   UNL A   1       4.678 -10.263  58.366  1.00  0.00    -0.645 OA
ATOM     13  O   UNL A   1       3.054 -10.947  56.918  1.00  0.00    -0.645 OA
ENDBRANCH  10  11
ENDBRANCH   5   9
BRANCH   8  14
ATOM     14  O   UNL A   1       4.503  -3.561  53.005  1.00  0.00    -0.358 OA
ATOM     15  H   UNL A   1       4.421  -3.554  52.071  1.00  0.00     0.217 HD
ENDBRANCH   8  14
ENDBRANCH   1   3
TORSDOF 4
ENDMDL
MODEL 4
REMARK VINA RESULT:      -6.1      2.934      4.664
REMARK  4 active torsions:
REMARK  status: ('A' for Active; 'I' for Inactive)
REMARK    1  A    between atoms: O_1  and  C_8 
REMARK    2  A    between atoms: O_2  and  C_9 
REMARK    3  A    between atoms: C_5  and  C_11 
REMARK    4  A    between atoms: C_12  and  C_13 
ROOT
ATOM      1  O   UNL A   1       6.402  -9.613  57.816  1.00  0.00    -0.358 OA
ATOM      2  H   UNL A   1       6.513  -9.781  58.731  1.00  0.00     0.217 HD
ENDROOT
BRANCH   1   3
ATOM      3  C   UNL A   1       5.150  -9.474  57.297  1.00  0.00     0.099 A 
ATOM      4  C   UNL A   1       4.803  -8.288  56.651  1.00  0.00     0.050 A 
ATOM      5  C   UNL A   1       3.524  -8.134  56.114  1.00  0.00    -0.033 A 
ATOM      6  C   UNL A   1       2.594  -9.168  56.222  1.00  0.00     0.014 A 
ATOM      7  C   UNL A   1       2.942 -10.355  56.868  1.00  0.00     0.040 A 
ATOM      8  C   UNL A   1       4.220 -10.507  57.405  1.00  0.00     0.098 A 
BRANCH   5   9
ATOM      9  C   UNL A   1       3.162  -6.897  55.442  1.00  0.00     0.018 C 
ATOM     10  C   UNL A   1       3.318  -5.700  56.001  1.00  0.00     0.085 C 
BRANCH  10  11
ATOM     11  C   UNL A   1       2.902  -4.505  55.239  1.00  0.00     0.198 C 
ATOM     12  O   UNL A   1       3.717  -4.370  54.166  1.00  0.00    -0.645 OA
ATOM     13  O   UNL A   1       1.982  -3.754  55.514  1.00  0.00    -0.645 OA
ENDBRANCH  10  11
ENDBRANCH   5   9
BRANCH   8  14
ATOM     14  O   UNL A   1       4.548 -11.671  58.032  1.00  0.00    -0.358 OA
ATOM     15  H   UNL A   1       3.970 -12.407  57.986  1.00  0.00     0.217 HD
ENDBRANCH   8  14
ENDBRANCH   1   3
TORSDOF 4
ENDMDL
MODEL 5
REMARK VINA RESULT:      -6.1      2.724      4.817
REMARK  4 active torsions:
REMARK  status: ('A' for Active; 'I' for Inactive)
REMARK    1  A    between atoms: O_1  and  C_8 
REMARK    2  A    between atoms: O_2  and  C_9 
REMARK    3  A    between atoms: C_5  and  C_11 
REMARK    4  A    between atoms: C_12  and  C_13 
ROOT
ATOM      1  O   UNL A   1       2.612 -11.788  56.817  1.00  0.00    -0.358 OA
ATOM      2  H   UNL A   1       2.612 -12.449  57.482  1.00  0.00     0.217 HD
ENDROOT
BRANCH   1   3
ATOM      3  C   UNL A   1       3.473 -10.737  56.904  1.00  0.00     0.099 A 
ATOM      4  C   UNL A   1       3.209  -9.571  56.184  1.00  0.00     0.050 A 
ATOM      5  C   UNL A   1       4.082  -8.486  56.267  1.00  0.00    -0.033 A 
ATOM      6  C   UNL A   1       5.219  -8.567  57.071  1.00  0.00     0.014 A 
ATOM      7  C   UNL A   1       5.483  -9.733  57.791  1.00  0.00     0.040 A 
ATOM      8  C   UNL A   1       4.610 -10.817  57.707  1.00  0.00     0.098 A 
BRANCH   5   9
ATOM      9  C   UNL A   1       3.807  -7.273  55.515  1.00  0.00     0.018 C 
ATOM     10  C   UNL A   1       3.954  -6.056  56.032  1.00  0.00     0.085 C 
BRANCH  10  11
ATOM     11  C   UNL A   1       3.631  -4.887  55.189  1.00  0.00     0.198 C 
ATOM     12  O   UNL A   1       2.474  -4.339  55.632  1.00  0.00    -0.645 OA
ATOM     13  O   UNL A   1       4.283  -4.470  54.247  1.00  0.00    -0.645 OA
ENDBRANCH  10  11
ENDBRANCH   5   9
BRANCH   8  14
ATOM     14  O   UNL A   1       4.878 -11.948  58.416  1.00  0.00    -0.358 OA
ATOM     15  H   UNL A   1       4.684 -11.984  59.333  1.00  0.00     0.217 HD
ENDBRANCH   8  14
ENDBRANCH   1   3
TORSDOF 4
ENDMDL
MODEL 6
REMARK VINA RESULT:      -6.1      2.407      3.116
REMARK  4 active torsions:
REMARK  status: ('A' for Active; 'I' for Inactive)
REMARK    1  A    between atoms: O_1  and  C_8 
REMARK    2  A    between atoms: O_2  and  C_9 
REMARK    3  A    between atoms: C_5  and  C_11 
REMARK    4  A    between atoms: C_12  and  C_13 
ROOT
ATOM      1  O   UNL A   1       6.186  -6.456  53.606  1.00  0.00    -0.358 OA
ATOM      2  H   UNL A   1       6.133  -6.236  52.697  1.00  0.00     0.217 HD
ENDROOT
BRANCH   1   3
ATOM      3  C   UNL A   1       5.050  -6.711  54.313  1.00  0.00     0.099 A 
ATOM      4  C   UNL A   1       4.599  -8.025  54.437  1.00  0.00     0.050 A 
ATOM      5  C   UNL A   1       3.438  -8.298  55.160  1.00  0.00    -0.033 A 
ATOM      6  C   UNL A   1       2.729  -7.257  55.760  1.00  0.00     0.014 A 
ATOM      7  C   UNL A   1       3.181  -5.944  55.636  1.00  0.00     0.040 A 
ATOM      8  C   UNL A   1       4.341  -5.671  54.912  1.00  0.00     0.098 A 
BRANCH   5   9
ATOM      9  C   UNL A   1       2.967  -9.668  55.288  1.00  0.00     0.018 C 
ATOM     10  C   UNL A   1       1.776 -10.065  54.847  1.00  0.00     0.085 C 
BRANCH  10  11
ATOM     11  C   UNL A   1       1.387 -11.476  55.042  1.00  0.00     0.198 C 
ATOM     12  O   UNL A   1       1.034 -11.999  53.843  1.00  0.00    -0.645 OA
ATOM     13  O   UNL A   1       1.377 -12.087  56.097  1.00  0.00    -0.645 OA
ENDBRANCH  10  11
ENDBRANCH   5   9
BRANCH   8  14
ATOM     14  O   UNL A   1       4.773  -4.384  54.800  1.00  0.00    -0.358 OA
ATOM     15  H   UNL A   1       5.651  -4.207  54.523  1.00  0.00     0.217 HD
ENDBRANCH   8  14
ENDBRANCH   1   3
TORSDOF 4
ENDMDL
MODEL 7
REMARK VINA RESULT:      -6.0      1.470      2.423
REMARK  4 active torsions:
REMARK  status: ('A' for Active; 'I' for Inactive)
REMARK    1  A    between atoms: O_1  and  C_8 
REMARK    2  A    between atoms: O_2  and  C_9 
REMARK    3  A    between atoms: C_5  and  C_11 
REMARK    4  A    between atoms: C_12  and  C_13 
ROOT
ATOM      1  O   UNL A   1       6.232  -7.662  56.487  1.00  0.00    -0.358 OA
ATOM      2  H   UNL A   1       6.528  -7.354  57.321  1.00  0.00     0.217 HD
ENDROOT
BRANCH   1   3
ATOM      3  C   UNL A   1       5.166  -8.506  56.413  1.00  0.00     0.099 A 
ATOM      4  C   UNL A   1       4.242  -8.356  55.378  1.00  0.00     0.050 A 
ATOM      5  C   UNL A   1       3.146  -9.215  55.291  1.00  0.00    -0.033 A 
ATOM      6  C   UNL A   1       2.977 -10.226  56.237  1.00  0.00     0.014 A 
ATOM      7  C   UNL A   1       3.901 -10.377  57.270  1.00  0.00     0.040 A 
ATOM      8  C   UNL A   1       4.995  -9.517  57.358  1.00  0.00     0.098 A 
BRANCH   5   9
ATOM      9  C   UNL A   1       2.183  -9.057  54.214  1.00  0.00     0.018 C 
ATOM     10  C   UNL A   1       1.123  -9.848  54.073  1.00  0.00     0.085 C 
BRANCH  10  11
ATOM     11  C   UNL A   1       0.213  -9.613  52.933  1.00  0.00     0.198 C 
ATOM     12  O   UNL A   1      -1.001 -10.133  53.232  1.00  0.00    -0.645 OA
ATOM     13  O   UNL A   1       0.490  -9.048  51.888  1.00  0.00    -0.645 OA
ENDBRANCH  10  11
ENDBRANCH   5   9
BRANCH   8  14
ATOM     14  O   UNL A   1       5.892  -9.675  58.371  1.00  0.00    -0.358 OA
ATOM     15  H   UNL A   1       5.601  -9.965  59.213  1.00  0.00     0.217 HD
ENDBRANCH   8  14
ENDBRANCH   1   3
TORSDOF 4
ENDMDL
MODEL 8
REMARK VINA RESULT:      -6.0      1.381      1.839
REMARK  4 active torsions:
REMARK  status: ('A' for Active; 'I' for Inactive)
REMARK    1  A    between atoms: O_1  and  C_8 
REMARK    2  A    between atoms: O_2  and  C_9 
REMARK    3  A    between atoms: C_5  and  C_11 
REMARK    4  A    between atoms: C_12  and  C_13 
ROOT
ATOM      1  O   UNL A   1       4.195 -10.476  58.347  1.00  0.00    -0.358 OA
ATOM      2  H   UNL A   1       4.800 -11.183  58.459  1.00  0.00     0.217 HD
ENDROOT
BRANCH   1   3
ATOM      3  C   UNL A   1       3.983  -9.951  57.109  1.00  0.00     0.099 A 
ATOM      4  C   UNL A   1       2.928 -10.429  56.332  1.00  0.00     0.050 A 
ATOM      5  C   UNL A   1       2.699  -9.898  55.062  1.00  0.00    -0.033 A 
ATOM      6  C   UNL A   1       3.525  -8.887  54.571  1.00  0.00     0.014 A 
ATOM      7  C   UNL A   1       4.580  -8.408  55.348  1.00  0.00     0.040 A 
ATOM      8  C   UNL A   1       4.808  -8.941  56.617  1.00  0.00     0.098 A 
BRANCH   5   9
ATOM      9  C   UNL A   1       1.600 -10.398  54.252  1.00  0.00     0.018 C 
ATOM     10  C   UNL A   1       1.115 -11.630  54.377  1.00  0.00     0.085 C 
BRANCH  10  11
ATOM     11  C   UNL A   1       0.007 -12.045  53.492  1.00  0.00     0.198 C 
ATOM     12  O   UNL A   1       0.518 -12.768  52.468  1.00  0.00    -0.645 OA
ATOM     13  O   UNL A   1      -1.176 -11.789  53.642  1.00  0.00    -0.645 OA
ENDBRANCH  10  11
ENDBRANCH   5   9
BRANCH   8  14
ATOM     14  O   UNL A   1       5.840  -8.464  57.367  1.00  0.00    -0.358 OA
ATOM     15  H   UNL A   1       5.672  -7.869  58.071  1.00  0.00     0.217 HD
ENDBRANCH   8  14
ENDBRANCH   1   3
TORSDOF 4
ENDMDL
MODEL 9
REMARK VINA RESULT:      -6.0      1.048      2.157
REMARK  4 active torsions:
REMARK  status: ('A' for Active; 'I' for Inactive)
REMARK    1  A    between atoms: O_1  and  C_8 
REMARK    2  A    between atoms: O_2  and  C_9 
REMARK    3  A    between atoms: C_5  and  C_11 
REMARK    4  A    between atoms: C_12  and  C_13 
ROOT
ATOM      1  O   UNL A   1       4.943  -7.313  54.236  1.00  0.00    -0.358 OA
ATOM      2  H   UNL A   1       4.322  -6.769  53.793  1.00  0.00     0.217 HD
ENDROOT
BRANCH   1   3
ATOM      3  C   UNL A   1       4.514  -8.256  55.119  1.00  0.00     0.099 A 
ATOM      4  C   UNL A   1       3.421  -9.059  54.790  1.00  0.00     0.050 A 
ATOM      5  C   UNL A   1       2.974 -10.031  55.686  1.00  0.00    -0.033 A 
ATOM      6  C   UNL A   1       3.621 -10.200  56.910  1.00  0.00     0.014 A 
ATOM      7  C   UNL A   1       4.714  -9.398  57.238  1.00  0.00     0.040 A 
ATOM      8  C   UNL A   1       5.160  -8.427  56.343  1.00  0.00     0.098 A 
BRANCH   5   9
ATOM      9  C   UNL A   1       1.834 -10.866  55.344  1.00  0.00     0.018 C 
ATOM     10  C   UNL A   1       0.861 -10.460  54.533  1.00  0.00     0.085 C 
BRANCH  10  11
ATOM     11  C   UNL A   1      -0.262 -11.380  54.263  1.00  0.00     0.198 C 
ATOM     12  O   UNL A   1       0.240 -12.572  53.861  1.00  0.00    -0.645 OA
ATOM     13  O   UNL A   1      -1.450 -11.128  54.376  1.00  0.00    -0.645 OA
ENDBRANCH  10  11
ENDBRANCH   5   9
BRANCH   8  14
ATOM     14  O   UNL A   1       6.229  -7.651  56.674  1.00  0.00    -0.358 OA
ATOM     15  H   UNL A   1       7.021  -8.049  56.980  1.00  0.00     0.217 HD
ENDBRANCH   8  14
ENDBRANCH   1   3
TORSDOF 4
ENDMDL
