MODEL 1
REMARK VINA RESULT:      -6.3      0.000      0.000
REMARK  4 active torsions:
REMARK  status: ('A' for Active; 'I' for Inactive)
REMARK    1  A    between atoms: O_1  and  C_8 
REMARK    2  A    between atoms: O_2  and  C_9 
REMARK    3  A    between atoms: C_5  and  C_11 
REMARK    4  A    between atoms: C_12  and  C_13 
ROOT
ATOM      1  O   UNL A   1       6.317  -7.503  56.491  1.00  0.00    -0.358 OA
ATOM      2  H   UNL A   1       6.114  -7.477  57.405  1.00  0.00     0.217 HD
ENDROOT
BRANCH   1   3
ATOM      3  C   UNL A   1       5.368  -7.888  55.594  1.00  0.00     0.099 A 
ATOM      4  C   UNL A   1       4.430  -8.854  55.957  1.00  0.00     0.050 A 
ATOM      5  C   UNL A   1       3.451  -9.254  55.047  1.00  0.00    -0.033 A 
ATOM      6  C   UNL A   1       3.410  -8.686  53.773  1.00  0.00     0.014 A 
ATOM      7  C   UNL A   1       4.347  -7.719  53.410  1.00  0.00     0.040 A 
ATOM      8  C   UNL A   1       5.326  -7.320  54.321  1.00  0.00     0.098 A 
BRANCH   5   9
ATOM      9  C   UNL A   1       2.475 -10.263  55.425  1.00  0.00     0.018 C 
ATOM     10  C   UNL A   1       1.631 -10.812  54.556  1.00  0.00     0.085 C 
BRANCH  10  11
ATOM     11  C   UNL A   1       0.666 -11.816  55.047  1.00  0.00     0.198 C 
ATOM     12  O   UNL A   1       0.305 -12.613  54.013  1.00  0.00    -0.645 OA
ATOM     13  O   UNL A   1       0.251 -11.927  56.189  1.00  0.00    -0.645 OA
ENDBRANCH  10  11
ENDBRANCH   5   9
BRANCH   8  14
ATOM     14  O   UNL A   1       6.234  -6.373  53.955  1.00  0.00    -0.358 OA
ATOM     15  H   UNL A   1       6.467  -5.692  54.554  1.00  0.00     0.217 HD
ENDBRANCH   8  14
ENDBRANCH   1   3
TORSDOF 4
ENDMDL
MODEL 2
REMARK VINA RESULT:      -6.3      2.816      3.740
REMARK  4 active torsions:
REMARK  status: ('A' for Active; 'I' for Inactive)
REMARK    1  A    between atoms: O_1  and  C_8 
REMARK    2  A    between atoms: O_2  and  C_9 
REMARK    3  A    between atoms: C_5  and  C_11 
REMARK    4  A    between atoms: C_12  and  C_13 
ROOT
ATOM      1  O   UNL A   1       5.145  -6.145  52.095  1.00  0.00    -0.358 OA
ATOM      2  H   UNL A   1       5.944  -6.623  51.991  1.00  0.00     0.217 HD
ENDROOT
BRANCH   1   3
ATOM      3  C   UNL A   1       4.590  -6.007  53.331  1.00  0.00     0.099 A 
ATOM      4  C   UNL A   1       4.377  -7.138  54.118  1.00  0.00     0.050 A 
ATOM      5  C   UNL A   1       3.811  -7.009  55.387  1.00  0.00    -0.033 A 
ATOM      6  C   UNL A   1       3.460  -5.748  55.868  1.00  0.00     0.014 A 
ATOM      7  C   UNL A   1       3.674  -4.616  55.081  1.00  0.00     0.040 A 
ATOM      8  C   UNL A   1       4.239  -4.746  53.812  1.00  0.00     0.098 A 
BRANCH   5   9
ATOM      9  C   UNL A   1       3.588  -8.189  56.207  1.00  0.00     0.018 C 
ATOM     10  C   UNL A   1       4.578  -8.965  56.639  1.00  0.00     0.085 C 
BRANCH  10  11
ATOM     11  C   UNL A   1       4.242 -10.151  57.452  1.00  0.00     0.198 C 
ATOM     12  O   UNL A   1       3.015 -10.593  57.089  1.00  0.00    -0.645 OA
ATOM     13  O   UNL A   1       4.939 -10.662  58.312  1.00  0.00    -0.645 OA
ENDBRANCH  10  11
ENDBRANCH   5   9
BRANCH   8  14
ATOM     14  O   UNL A   1       4.444  -3.634  53.053  1.00  0.00    -0.358 OA
ATOM     15  H   UNL A   1       4.733  -3.719  52.166  1.00  0.00     0.217 HD
ENDBRANCH   8  14
ENDBRANCH   1   3
TORSDOF 4
ENDMDL
MODEL 3
REMARK VINA RESULT:      -6.3      1.407      1.993
REMARK  4 active torsions:
REMARK  status: ('A' for Active; 'I' for Inactive)
REMARK    1  A    between atoms: O_1  and  C_8 
REMARK    2  A    between atoms: O_2  and  C_9 
REMARK    3  A    between atoms: C_5  and  C_11 
REMARK    4  A    between atoms: C_12  and  C_13 
ROOT
ATOM      1  O   UNL A   1       5.912  -9.536  58.238  1.00  0.00    -0.358 OA
ATOM      2  H   UNL A   1       5.527  -9.877  59.021  1.00  0.00     0.217 HD
ENDROOT
BRANCH   1   3
ATOM      3  C   UNL A   1       5.135  -9.292  57.147  1.00  0.00     0.099 A 
ATOM      4  C   UNL A   1       3.925  -9.971  56.999  1.00  0.00     0.050 A 
ATOM      5  C   UNL A   1       3.120  -9.727  55.887  1.00  0.00    -0.033 A 
ATOM      6  C   UNL A   1       3.523  -8.803  54.923  1.00  0.00     0.014 A 
ATOM      7  C   UNL A   1       4.733  -8.123  55.072  1.00  0.00     0.040 A 
ATOM      8  C   UNL A   1       5.538  -8.368  56.184  1.00  0.00     0.098 A 
BRANCH   5   9
ATOM      9  C   UNL A   1       1.860 -10.436  55.732  1.00  0.00     0.018 C 
ATOM     10  C   UNL A   1       0.875  -9.995  54.955  1.00  0.00     0.085 C 
BRANCH  10  11
ATOM     11  C   UNL A   1      -0.372 -10.782  54.881  1.00  0.00     0.198 C 
ATOM     12  O   UNL A   1      -0.765 -11.093  56.139  1.00  0.00    -0.645 OA
ATOM     13  O   UNL A   1      -0.965 -11.109  53.866  1.00  0.00    -0.645 OA
ENDBRANCH  10  11
ENDBRANCH   5   9
BRANCH   8  14
ATOM     14  O   UNL A   1       6.716  -7.697  56.318  1.00  0.00    -0.358 OA
ATOM     15  H   UNL A   1       7.157  -7.686  57.145  1.00  0.00     0.217 HD
ENDBRANCH   8  14
ENDBRANCH   1   3
TORSDOF 4
ENDMDL
MODEL 4
REMARK VINA RESULT:      -6.0      1.542      2.076
REMARK  4 active torsions:
REMARK  status: ('A' for Active; 'I' for Inactive)
REMARK    1  A    between atoms: O_1  and  C_8 
REMARK    2  A    between atoms: O_2  and  C_9 
REMARK    3  A    between atoms: C_5  and  C_11 
REMARK    4  A    between atoms: C_12  and  C_13 
ROOT
ATOM      1  O   UNL A   1       6.224  -6.489  53.636  1.00  0.00    -0.358 OA
ATOM      2  H   UNL A   1       6.800  -5.805  53.916  1.00  0.00     0.217 HD
ENDROOT
BRANCH   1   3
ATOM      3  C   UNL A   1       5.073  -6.733  54.320  1.00  0.00     0.099 A 
ATOM      4  C   UNL A   1       4.615  -8.044  54.450  1.00  0.00     0.050 A 
ATOM      5  C   UNL A   1       3.437  -8.306  55.151  1.00  0.00    -0.033 A 
ATOM      6  C   UNL A   1       2.719  -7.257  55.724  1.00  0.00     0.014 A 
ATOM      7  C   UNL A   1       3.177  -5.946  55.595  1.00  0.00     0.040 A 
ATOM      8  C   UNL A   1       4.354  -5.684  54.893  1.00  0.00     0.098 A 
BRANCH   5   9
ATOM      9  C   UNL A   1       2.960  -9.673  55.284  1.00  0.00     0.018 C 
ATOM     10  C   UNL A   1       1.785 -10.076  54.808  1.00  0.00     0.085 C 
BRANCH  10  11
ATOM     11  C   UNL A   1       1.386 -11.483  55.011  1.00  0.00     0.198 C 
ATOM     12  O   UNL A   1       1.849 -11.896  56.215  1.00  0.00    -0.645 OA
ATOM     13  O   UNL A   1       0.748 -12.176  54.237  1.00  0.00    -0.645 OA
ENDBRANCH  10  11
ENDBRANCH   5   9
BRANCH   8  14
ATOM     14  O   UNL A   1       4.792  -4.400  54.776  1.00  0.00    -0.358 OA
ATOM     15  H   UNL A   1       4.703  -3.947  53.960  1.00  0.00     0.217 HD
ENDBRANCH   8  14
ENDBRANCH   1   3
TORSDOF 4
ENDMDL
MODEL 5
REMARK VINA RESULT:      -6.0      2.040      3.142
REMARK  4 active torsions:
REMARK  status: ('A' for Active; 'I' for Inactive)
REMARK    1  A    between atoms: O_1  and  C_8 
REMARK    2  A    between atoms: O_2  and  C_9 
REMARK    3  A    between atoms: C_5  and  C_11 
REMARK    4  A    between atoms: C_12  and  C_13 
ROOT
ATOM      1  O   UNL A   1       6.215  -7.675  56.500  1.00  0.00    -0.358 OA
ATOM      2  H   UNL A   1       6.629  -7.358  55.721  1.00  0.00     0.217 HD
ENDROOT
BRANCH   1   3
ATOM      3  C   UNL A   1       5.149  -8.517  56.410  1.00  0.00     0.099 A 
ATOM      4  C   UNL A   1       4.265  -8.395  55.338  1.00  0.00     0.050 A 
ATOM      5  C   UNL A   1       3.171  -9.254  55.235  1.00  0.00    -0.033 A 
ATOM      6  C   UNL A   1       2.961 -10.236  56.203  1.00  0.00     0.014 A 
ATOM      7  C   UNL A   1       3.845 -10.358  57.275  1.00  0.00     0.040 A 
ATOM      8  C   UNL A   1       4.939  -9.499  57.378  1.00  0.00     0.098 A 
BRANCH   5   9
ATOM      9  C   UNL A   1       2.249  -9.125  54.118  1.00  0.00     0.018 C 
ATOM     10  C   UNL A   1       1.076  -9.752  54.075  1.00  0.00     0.085 C 
BRANCH  10  11
ATOM     11  C   UNL A   1       0.221  -9.567  52.885  1.00  0.00     0.198 C 
ATOM     12  O   UNL A   1      -0.992 -10.116  53.133  1.00  0.00    -0.645 OA
ATOM     13  O   UNL A   1       0.535  -9.016  51.844  1.00  0.00    -0.645 OA
ENDBRANCH  10  11
ENDBRANCH   5   9
BRANCH   8  14
ATOM     14  O   UNL A   1       5.796  -9.629  58.429  1.00  0.00    -0.358 OA
ATOM     15  H   UNL A   1       6.534 -10.203  58.363  1.00  0.00     0.217 HD
ENDBRANCH   8  14
ENDBRANCH   1   3
TORSDOF 4
ENDMDL
MODEL 6
REMARK VINA RESULT:      -6.0      2.810      3.771
REMARK  4 active torsions:
REMARK  status: ('A' for Active; 'I' for Inactive)
REMARK    1  A    between atoms: O_1  and  C_8 
REMARK    2  A    between atoms: O_2  and  C_9 
REMARK    3  A    between atoms: C_5  and  C_11 
REMARK    4  A    between atoms: C_12  and  C_13 
ROOT
ATOM      1  O   UNL A   1       2.313  -3.890  54.828  1.00  0.00    -0.358 OA
ATOM      2  H   UNL A   1       2.661  -3.025  54.921  1.00  0.00     0.217 HD
ENDROOT
BRANCH   1   3
ATOM      3  C   UNL A   1       3.153  -4.949  54.662  1.00  0.00     0.099 A 
ATOM      4  C   UNL A   1       2.919  -6.128  55.369  1.00  0.00     0.050 A 
ATOM      5  C   UNL A   1       3.772  -7.220  55.206  1.00  0.00    -0.033 A 
ATOM      6  C   UNL A   1       4.857  -7.132  54.335  1.00  0.00     0.014 A 
ATOM      7  C   UNL A   1       5.090  -5.953  53.627  1.00  0.00     0.040 A 
ATOM      8  C   UNL A   1       4.238  -4.862  53.791  1.00  0.00     0.098 A 
BRANCH   5   9
ATOM      9  C   UNL A   1       3.529  -8.449  55.945  1.00  0.00     0.018 C 
ATOM     10  C   UNL A   1       4.440  -9.005  56.738  1.00  0.00     0.085 C 
BRANCH  10  11
ATOM     11  C   UNL A   1       4.098 -10.264  57.430  1.00  0.00     0.198 C 
ATOM     12  O   UNL A   1       4.886 -10.385  58.525  1.00  0.00    -0.645 OA
ATOM     13  O   UNL A   1       3.252 -11.073  57.090  1.00  0.00    -0.645 OA
ENDBRANCH  10  11
ENDBRANCH   5   9
BRANCH   8  14
ATOM     14  O   UNL A   1       4.475  -3.716  53.094  1.00  0.00    -0.358 OA
ATOM     15  H   UNL A   1       4.723  -3.760  52.191  1.00  0.00     0.217 HD
ENDBRANCH   8  14
ENDBRANCH   1   3
TORSDOF 4
ENDMDL
MODEL 7
REMARK VINA RESULT:      -5.9      2.972      5.298
REMARK  4 active torsions:
REMARK  status: ('A' for Active; 'I' for Inactive)
REMARK    1  A    between atoms: O_1  and  C_8 
REMARK    2  A    between atoms: O_2  and  C_9 
REMARK    3  A    between atoms: C_5  and  C_11 
REMARK    4  A    between atoms: C_12  and  C_13 
ROOT
ATOM      1  O   UNL A   1       6.441  -9.659  57.737  1.00  0.00    -0.358 OA
ATOM      2  H   UNL A   1       7.105  -9.054  57.468  1.00  0.00     0.217 HD
ENDROOT
BRANCH   1   3
ATOM      3  C   UNL A   1       5.169  -9.526  57.270  1.00  0.00     0.099 A 
ATOM      4  C   UNL A   1       4.792  -8.347  56.628  1.00  0.00     0.050 A 
ATOM      5  C   UNL A   1       3.492  -8.200  56.143  1.00  0.00    -0.033 A 
ATOM      6  C   UNL A   1       2.569  -9.235  56.300  1.00  0.00     0.014 A 
ATOM      7  C   UNL A   1       2.947 -10.415  56.942  1.00  0.00     0.040 A 
ATOM      8  C   UNL A   1       4.246 -10.560  57.427  1.00  0.00     0.098 A 
BRANCH   5   9
ATOM      9  C   UNL A   1       3.099  -6.970  55.476  1.00  0.00     0.018 C 
ATOM     10  C   UNL A   1       3.792  -5.840  55.581  1.00  0.00     0.085 C 
BRANCH  10  11
ATOM     11  C   UNL A   1       3.298  -4.640  54.875  1.00  0.00     0.198 C 
ATOM     12  O   UNL A   1       4.186  -4.308  53.909  1.00  0.00    -0.645 OA
ATOM     13  O   UNL A   1       2.264  -4.036  55.108  1.00  0.00    -0.645 OA
ENDBRANCH  10  11
ENDBRANCH   5   9
BRANCH   8  14
ATOM     14  O   UNL A   1       4.603 -11.717  58.050  1.00  0.00    -0.358 OA
ATOM     15  H   UNL A   1       5.457 -11.803  58.426  1.00  0.00     0.217 HD
ENDBRANCH   8  14
ENDBRANCH   1   3
TORSDOF 4
ENDMDL
MODEL 8
REMARK VINA RESULT:      -5.9      1.217      2.329
REMARK  4 active torsions:
REMARK  status: ('A' for Active; 'I' for Inactive)
REMARK    1  A    between atoms: O_1  and  C_8 
REMARK    2  A    between atoms: O_2  and  C_9 
REMARK    3  A    between atoms: C_5  and  C_11 
REMARK    4  A    between atoms: C_12  and  C_13 
ROOT
ATOM      1  O   UNL A   1       5.169  -7.116  54.181  1.00  0.00    -0.358 OA
ATOM      2  H   UNL A   1       6.095  -6.978  54.165  1.00  0.00     0.217 HD
ENDROOT
BRANCH   1   3
ATOM      3  C   UNL A   1       4.637  -8.077  54.987  1.00  0.00     0.099 A 
ATOM      4  C   UNL A   1       3.541  -8.817  54.542  1.00  0.00     0.050 A 
ATOM      5  C   UNL A   1       2.989  -9.805  55.358  1.00  0.00    -0.033 A 
ATOM      6  C   UNL A   1       3.535 -10.054  56.617  1.00  0.00     0.014 A 
ATOM      7  C   UNL A   1       4.631  -9.314  57.061  1.00  0.00     0.040 A 
ATOM      8  C   UNL A   1       5.181  -8.326  56.246  1.00  0.00     0.098 A 
BRANCH   5   9
ATOM      9  C   UNL A   1       1.846 -10.575  54.894  1.00  0.00     0.018 C 
ATOM     10  C   UNL A   1       0.589 -10.217  55.140  1.00  0.00     0.085 C 
BRANCH  10  11
ATOM     11  C   UNL A   1      -0.500 -11.080  54.638  1.00  0.00     0.198 C 
ATOM     12  O   UNL A   1      -1.647 -10.744  55.276  1.00  0.00    -0.645 OA
ATOM     13  O   UNL A   1      -0.404 -11.953  53.793  1.00  0.00    -0.645 OA
ENDBRANCH  10  11
ENDBRANCH   5   9
BRANCH   8  14
ATOM     14  O   UNL A   1       6.252  -7.611  56.691  1.00  0.00    -0.358 OA
ATOM     15  H   UNL A   1       6.686  -7.861  57.483  1.00  0.00     0.217 HD
ENDBRANCH   8  14
ENDBRANCH   1   3
TORSDOF 4
ENDMDL
MODEL 9
REMARK VINA RESULT:      -5.9      1.651      5.623
REMARK  4 active torsions:
REMARK  status: ('A' for Active; 'I' for Inactive)
REMARK    1  A    between atoms: O_1  and  C_8 
REMARK    2  A    between atoms: O_2  and  C_9 
REMARK    3  A    between atoms: C_5  and  C_11 
REMARK    4  A    between atoms: C_12  and  C_13 
ROOT
ATOM      1  O   UNL A   1       0.958 -12.542  56.220  1.00  0.00    -0.358 OA
ATOM      2  H   UNL A   1       1.132 -12.477  57.138  1.00  0.00     0.217 HD
ENDROOT
BRANCH   1   3
ATOM      3  C   UNL A   1       1.410 -11.577  55.372  1.00  0.00     0.099 A 
ATOM      4  C   UNL A   1       2.237 -10.565  55.860  1.00  0.00     0.050 A 
ATOM      5  C   UNL A   1       2.708  -9.572  55.000  1.00  0.00    -0.033 A 
ATOM      6  C   UNL A   1       2.353  -9.593  53.652  1.00  0.00     0.014 A 
ATOM      7  C   UNL A   1       1.528 -10.606  53.163  1.00  0.00     0.040 A 
ATOM      8  C   UNL A   1       1.057 -11.598  54.023  1.00  0.00     0.098 A 
BRANCH   5   9
ATOM      9  C   UNL A   1       3.567  -8.517  55.511  1.00  0.00     0.018 C 
ATOM     10  C   UNL A   1       3.160  -7.258  55.648  1.00  0.00     0.085 C 
BRANCH  10  11
ATOM     11  C   UNL A   1       4.118  -6.258  56.160  1.00  0.00     0.198 C 
ATOM     12  O   UNL A   1       3.844  -5.061  55.587  1.00  0.00    -0.645 OA
ATOM     13  O   UNL A   1       5.013  -6.456  56.963  1.00  0.00    -0.645 OA
ENDBRANCH  10  11
ENDBRANCH   5   9
BRANCH   8  14
ATOM     14  O   UNL A   1       0.252 -12.582  53.534  1.00  0.00    -0.358 OA
ATOM     15  H   UNL A   1      -0.618 -12.379  53.252  1.00  0.00     0.217 HD
ENDBRANCH   8  14
ENDBRANCH   1   3
TORSDOF 4
ENDMDL
