MODEL 1
REMARK VINA RESULT:      -5.6      0.000      0.000
REMARK  3 active torsions:
REMARK  status: ('A' for Active; 'I' for Inactive)
REMARK    1  A    between atoms: C_3  and  C_4 
REMARK    2  A    between atoms: C_3  and  C_5 
REMARK    3  A    between atoms: C_5  and  C_10 
ROOT
HETATM    1  O   UNL     1       6.575 -10.322  57.690  1.00  0.00    -0.648 OA
HETATM    2  O   UNL     1       5.537 -11.980  58.845  1.00  0.00    -0.648 OA
HETATM    3  C   UNL     1       5.483 -10.934  58.210  1.00  0.00     0.172 C 
ENDROOT
BRANCH   3   4
HETATM    4  C   UNL     1       4.204 -10.175  57.951  1.00  0.00     0.117 C 
BRANCH   4   5
HETATM    5  C   UNL     1       4.333  -9.244  56.739  1.00  0.00     0.049 C 
BRANCH   5   6
HETATM    6  C   UNL     1       3.400  -9.576  55.625  1.00  0.00    -0.058 A 
HETATM    7  C   UNL     1       2.466 -10.601  55.780  1.00  0.00     0.007 A 
HETATM    8  C   UNL     1       1.592 -10.912  54.738  1.00  0.00     0.001 A 
HETATM    9  C   UNL     1       1.653 -10.199  53.541  1.00  0.00     0.000 A 
HETATM   10  C   UNL     1       2.587  -9.174  53.385  1.00  0.00     0.001 A 
HETATM   11  C   UNL     1       3.459  -8.863  54.428  1.00  0.00     0.007 A 
ENDBRANCH   5   6
ENDBRANCH   4   5
ENDBRANCH   3   4
TORSDOF 3
ENDMDL
MODEL 2
REMARK VINA RESULT:      -5.6      3.343      4.746
REMARK  3 active torsions:
REMARK  status: ('A' for Active; 'I' for Inactive)
REMARK    1  A    between atoms: C_3  and  C_4 
REMARK    2  A    between atoms: C_3  and  C_5 
REMARK    3  A    between atoms: C_5  and  C_10 
ROOT
HETATM    1  O   UNL     1      -0.556 -10.287  56.626  1.00  0.00    -0.648 OA
HETATM    2  O   UNL     1      -1.437 -10.916  54.628  1.00  0.00    -0.648 OA
HETATM    3  C   UNL     1      -0.492 -10.879  55.408  1.00  0.00     0.172 C 
ENDROOT
BRANCH   3   4
HETATM    4  C   UNL     1       0.869 -11.456  55.105  1.00  0.00     0.117 C 
BRANCH   4   5
HETATM    5  C   UNL     1       1.787 -10.423  54.441  1.00  0.00     0.049 C 
BRANCH   5   6
HETATM    6  C   UNL     1       2.882  -9.935  55.328  1.00  0.00    -0.058 A 
HETATM    7  C   UNL     1       3.096 -10.539  56.568  1.00  0.00     0.007 A 
HETATM    8  C   UNL     1       4.121 -10.084  57.398  1.00  0.00     0.001 A 
HETATM    9  C   UNL     1       4.930  -9.024  56.989  1.00  0.00     0.000 A 
HETATM   10  C   UNL     1       4.716  -8.420  55.750  1.00  0.00     0.001 A 
HETATM   11  C   UNL     1       3.693  -8.876  54.920  1.00  0.00     0.007 A 
ENDBRANCH   5   6
ENDBRANCH   4   5
ENDBRANCH   3   4
TORSDOF 3
ENDMDL
MODEL 3
REMARK VINA RESULT:      -5.6      3.319      4.972
REMARK  3 active torsions:
REMARK  status: ('A' for Active; 'I' for Inactive)
REMARK    1  A    between atoms: C_3  and  C_4 
REMARK    2  A    between atoms: C_3  and  C_5 
REMARK    3  A    between atoms: C_5  and  C_10 
ROOT
HETATM    1  O   UNL     1      -1.014 -10.983  54.114  1.00  0.00    -0.648 OA
HETATM    2  O   UNL     1      -0.474 -10.529  56.273  1.00  0.00    -0.648 OA
HETATM    3  C   UNL     1      -0.138 -10.851  55.140  1.00  0.00     0.172 C 
ENDROOT
BRANCH   3   4
HETATM    4  C   UNL     1       1.283 -11.174  54.746  1.00  0.00     0.117 C 
BRANCH   4   5
HETATM    5  C   UNL     1       2.103  -9.903  54.495  1.00  0.00     0.049 C 
BRANCH   5   6
HETATM    6  C   UNL     1       3.182  -9.678  55.500  1.00  0.00    -0.058 A 
HETATM    7  C   UNL     1       4.135  -8.681  55.288  1.00  0.00     0.007 A 
HETATM    8  C   UNL     1       5.144  -8.469  56.227  1.00  0.00     0.001 A 
HETATM    9  C   UNL     1       5.199  -9.253  57.380  1.00  0.00     0.000 A 
HETATM   10  C   UNL     1       4.247 -10.249  57.592  1.00  0.00     0.001 A 
HETATM   11  C   UNL     1       3.238 -10.461  56.653  1.00  0.00     0.007 A 
ENDBRANCH   5   6
ENDBRANCH   4   5
ENDBRANCH   3   4
TORSDOF 3
ENDMDL
MODEL 4
REMARK VINA RESULT:      -5.6      3.386      5.001
REMARK  3 active torsions:
REMARK  status: ('A' for Active; 'I' for Inactive)
REMARK    1  A    between atoms: C_3  and  C_4 
REMARK    2  A    between atoms: C_3  and  C_5 
REMARK    3  A    between atoms: C_5  and  C_10 
ROOT
HETATM    1  O   UNL     1      -0.768 -10.459  56.629  1.00  0.00    -0.648 OA
HETATM    2  O   UNL     1      -1.353 -10.706  54.447  1.00  0.00    -0.648 OA
HETATM    3  C   UNL     1      -0.536 -10.846  55.350  1.00  0.00     0.172 C 
ENDROOT
BRANCH   3   4
HETATM    4  C   UNL     1       0.840 -11.434  55.153  1.00  0.00     0.117 C 
BRANCH   4   5
HETATM    5  C   UNL     1       1.783 -10.447  54.455  1.00  0.00     0.049 C 
BRANCH   5   6
HETATM    6  C   UNL     1       2.879  -9.943  55.332  1.00  0.00    -0.058 A 
HETATM    7  C   UNL     1       3.689  -8.892  54.901  1.00  0.00     0.007 A 
HETATM    8  C   UNL     1       4.714  -8.419  55.720  1.00  0.00     0.001 A 
HETATM    9  C   UNL     1       4.930  -8.999  56.971  1.00  0.00     0.000 A 
HETATM   10  C   UNL     1       4.121 -10.050  57.402  1.00  0.00     0.001 A 
HETATM   11  C   UNL     1       3.096 -10.521  56.582  1.00  0.00     0.007 A 
ENDBRANCH   5   6
ENDBRANCH   4   5
ENDBRANCH   3   4
TORSDOF 3
ENDMDL
MODEL 5
REMARK VINA RESULT:      -5.5      1.027      1.897
REMARK  3 active torsions:
REMARK  status: ('A' for Active; 'I' for Inactive)
REMARK    1  A    between atoms: C_3  and  C_4 
REMARK    2  A    between atoms: C_3  and  C_5 
REMARK    3  A    between atoms: C_5  and  C_10 
ROOT
HETATM    1  O   UNL     1       5.524  -8.799  57.631  1.00  0.00    -0.648 OA
HETATM    2  O   UNL     1       5.706 -10.911  58.449  1.00  0.00    -0.648 OA
HETATM    3  C   UNL     1       5.069 -10.059  57.841  1.00  0.00     0.172 C 
ENDROOT
BRANCH   3   4
HETATM    4  C   UNL     1       3.688 -10.288  57.276  1.00  0.00     0.117 C 
BRANCH   4   5
HETATM    5  C   UNL     1       3.407  -9.375  56.078  1.00  0.00     0.049 C 
BRANCH   5   6
HETATM    6  C   UNL     1       2.566 -10.010  55.023  1.00  0.00    -0.058 A 
HETATM    7  C   UNL     1       2.565  -9.493  53.727  1.00  0.00     0.007 A 
HETATM    8  C   UNL     1       1.779 -10.086  52.739  1.00  0.00     0.001 A 
HETATM    9  C   UNL     1       0.994 -11.198  53.048  1.00  0.00     0.000 A 
HETATM   10  C   UNL     1       0.995 -11.715  54.343  1.00  0.00     0.001 A 
HETATM   11  C   UNL     1       1.782 -11.122  55.330  1.00  0.00     0.007 A 
ENDBRANCH   5   6
ENDBRANCH   4   5
ENDBRANCH   3   4
TORSDOF 3
ENDMDL
MODEL 6
REMARK VINA RESULT:      -5.5      0.956      1.083
REMARK  3 active torsions:
REMARK  status: ('A' for Active; 'I' for Inactive)
REMARK    1  A    between atoms: C_3  and  C_4 
REMARK    2  A    between atoms: C_3  and  C_5 
REMARK    3  A    between atoms: C_5  and  C_10 
ROOT
HETATM    1  O   UNL     1       5.839  -9.133  57.350  1.00  0.00    -0.648 OA
HETATM    2  O   UNL     1       5.497 -10.672  58.986  1.00  0.00    -0.648 OA
HETATM    3  C   UNL     1       5.107 -10.080  57.986  1.00  0.00     0.172 C 
ENDROOT
BRANCH   3   4
HETATM    4  C   UNL     1       3.755 -10.303  57.353  1.00  0.00     0.117 C 
BRANCH   4   5
HETATM    5  C   UNL     1       3.526  -9.365  56.162  1.00  0.00     0.049 C 
BRANCH   5   6
HETATM    6  C   UNL     1       2.669  -9.952  55.092  1.00  0.00    -0.058 A 
HETATM    7  C   UNL     1       1.869 -11.061  55.370  1.00  0.00     0.007 A 
HETATM    8  C   UNL     1       1.066 -11.611  54.370  1.00  0.00     0.001 A 
HETATM    9  C   UNL     1       1.064 -11.051  53.092  1.00  0.00     0.000 A 
HETATM   10  C   UNL     1       1.863  -9.943  52.814  1.00  0.00     0.001 A 
HETATM   11  C   UNL     1       2.665  -9.393  53.815  1.00  0.00     0.007 A 
ENDBRANCH   5   6
ENDBRANCH   4   5
ENDBRANCH   3   4
TORSDOF 3
ENDMDL
MODEL 7
REMARK VINA RESULT:      -5.4      3.659      4.640
REMARK  3 active torsions:
REMARK  status: ('A' for Active; 'I' for Inactive)
REMARK    1  A    between atoms: C_3  and  C_4 
REMARK    2  A    between atoms: C_3  and  C_5 
REMARK    3  A    between atoms: C_5  and  C_10 
ROOT
HETATM    1  O   UNL     1       3.078  -5.039  54.218  1.00  0.00    -0.648 OA
HETATM    2  O   UNL     1       2.227  -4.302  56.191  1.00  0.00    -0.648 OA
HETATM    3  C   UNL     1       3.024  -4.997  55.572  1.00  0.00     0.172 C 
ENDROOT
BRANCH   3   4
HETATM    4  C   UNL     1       4.024  -5.917  56.230  1.00  0.00     0.117 C 
BRANCH   4   5
HETATM    5  C   UNL     1       4.521  -6.997  55.263  1.00  0.00     0.049 C 
BRANCH   5   6
HETATM    6  C   UNL     1       3.779  -8.286  55.371  1.00  0.00    -0.058 A 
HETATM    7  C   UNL     1       2.987  -8.726  54.311  1.00  0.00     0.007 A 
HETATM    8  C   UNL     1       2.293  -9.932  54.411  1.00  0.00     0.001 A 
HETATM    9  C   UNL     1       2.392 -10.699  55.573  1.00  0.00     0.000 A 
HETATM   10  C   UNL     1       3.184 -10.260  56.633  1.00  0.00     0.001 A 
HETATM   11  C   UNL     1       3.878  -9.054  56.532  1.00  0.00     0.007 A 
ENDBRANCH   5   6
ENDBRANCH   4   5
ENDBRANCH   3   4
TORSDOF 3
ENDMDL
MODEL 8
REMARK VINA RESULT:      -5.4      2.923      4.598
REMARK  3 active torsions:
REMARK  status: ('A' for Active; 'I' for Inactive)
REMARK    1  A    between atoms: C_3  and  C_4 
REMARK    2  A    between atoms: C_3  and  C_5 
REMARK    3  A    between atoms: C_5  and  C_10 
ROOT
HETATM    1  O   UNL     1       0.299 -12.539  53.955  1.00  0.00    -0.648 OA
HETATM    2  O   UNL     1       0.841 -12.130  56.123  1.00  0.00    -0.648 OA
HETATM    3  C   UNL     1       0.884 -11.814  54.940  1.00  0.00     0.172 C 
ENDROOT
BRANCH   3   4
HETATM    4  C   UNL     1       1.618 -10.601  54.422  1.00  0.00     0.117 C 
BRANCH   4   5
HETATM    5  C   UNL     1       1.792  -9.536  55.511  1.00  0.00     0.049 C 
BRANCH   5   6
HETATM    6  C   UNL     1       3.206  -9.113  55.717  1.00  0.00    -0.058 A 
HETATM    7  C   UNL     1       3.840  -8.312  54.767  1.00  0.00     0.007 A 
HETATM    8  C   UNL     1       5.164  -7.915  54.958  1.00  0.00     0.001 A 
HETATM    9  C   UNL     1       5.854  -8.320  56.101  1.00  0.00     0.000 A 
HETATM   10  C   UNL     1       5.221  -9.121  57.051  1.00  0.00     0.001 A 
HETATM   11  C   UNL     1       3.898  -9.517  56.859  1.00  0.00     0.007 A 
ENDBRANCH   5   6
ENDBRANCH   4   5
ENDBRANCH   3   4
TORSDOF 3
ENDMDL
MODEL 9
REMARK VINA RESULT:      -5.3      3.149      4.573
REMARK  3 active torsions:
REMARK  status: ('A' for Active; 'I' for Inactive)
REMARK    1  A    between atoms: C_3  and  C_4 
REMARK    2  A    between atoms: C_3  and  C_5 
REMARK    3  A    between atoms: C_5  and  C_10 
ROOT
HETATM    1  O   UNL     1      -0.730 -10.534  56.239  1.00  0.00    -0.648 OA
HETATM    2  O   UNL     1       0.825 -12.152  55.884  1.00  0.00    -0.648 OA
HETATM    3  C   UNL     1       0.420 -11.011  55.701  1.00  0.00     0.172 C 
ENDROOT
BRANCH   3   4
HETATM    4  C   UNL     1       1.127  -9.998  54.833  1.00  0.00     0.117 C 
BRANCH   4   5
HETATM    5  C   UNL     1       2.646 -10.040  55.036  1.00  0.00     0.049 C 
BRANCH   5   6
HETATM    6  C   UNL     1       3.231  -8.736  55.461  1.00  0.00    -0.058 A 
HETATM    7  C   UNL     1       2.511  -7.555  55.275  1.00  0.00     0.007 A 
HETATM    8  C   UNL     1       3.057  -6.335  55.673  1.00  0.00     0.001 A 
HETATM    9  C   UNL     1       4.323  -6.295  56.257  1.00  0.00     0.000 A 
HETATM   10  C   UNL     1       5.043  -7.475  56.443  1.00  0.00     0.001 A 
HETATM   11  C   UNL     1       4.496  -8.695  56.046  1.00  0.00     0.007 A 
ENDBRANCH   5   6
ENDBRANCH   4   5
ENDBRANCH   3   4
TORSDOF 3
ENDMDL
