MODEL 1
REMARK VINA RESULT:      -8.2      0.000      0.000
REMARK  4 active torsions:
REMARK  status: ('A' for Active; 'I' for Inactive)
REMARK    1  A    between atoms: O_1  and  C_5 
REMARK    2  A    between atoms: O_1  and  C_14 
REMARK    3  A    between atoms: O_2  and  C_18 
REMARK    4  A    between atoms: C_10  and  C_13 
ROOT
HETATM    1  O   UNL     1      31.085  77.542  18.897  1.00  0.00    -0.343 OA
ENDROOT
BRANCH   1   2
HETATM    2  C   UNL     1      31.718  77.040  17.727  1.00  0.00     0.129 C 
HETATM    3  C   UNL     1      32.140  78.202  16.841  1.00  0.00     0.032 C 
HETATM    4  C   UNL     1      30.860  78.616  16.118  1.00  0.00     0.002 C 
HETATM    5  C   UNL     1      29.934  77.401  16.156  1.00  0.00     0.002 C 
HETATM    6  C   UNL     1      30.716  76.294  16.860  1.00  0.00     0.032 C 
ENDBRANCH   1   2
BRANCH   1   7
HETATM    7  C   UNL     1      31.567  77.096  20.100  1.00  0.00     0.103 A 
HETATM    8  C   UNL     1      31.725  75.729  20.302  1.00  0.00     0.047 A 
HETATM    9  C   UNL     1      32.213  75.263  21.522  1.00  0.00    -0.049 A 
HETATM   10  C   UNL     1      32.540  76.165  22.534  1.00  0.00     0.010 A 
HETATM   11  C   UNL     1      32.380  77.535  22.324  1.00  0.00     0.040 A 
HETATM   12  C   UNL     1      31.891  78.001  21.104  1.00  0.00     0.101 A 
BRANCH   9  13
HETATM   13  C   UNL     1      32.388  73.776  21.749  1.00  0.00     0.045 C 
HETATM   14  C   UNL     1      31.348  73.113  22.655  1.00  0.00     0.132 C 
HETATM   15  N   UNL     1      32.006  71.925  23.119  1.00  0.00    -0.360 N 
HETATM   16  C   UNL     1      33.389  72.005  23.013  1.00  0.00     0.218 C 
HETATM   17  H   UNL     1      31.530  71.140  23.474  1.00  0.00     0.162 HD
HETATM   18  O   UNL     1      34.209  71.173  23.367  1.00  0.00    -0.274 OA
HETATM   19  C   UNL     1      33.710  73.352  22.416  1.00  0.00     0.113 C 
ENDBRANCH   9  13
BRANCH  12  20
HETATM   20  O   UNL     1      31.737  79.341  20.912  1.00  0.00    -0.353 OA
HETATM   21  C   UNL     1      31.871  80.179  22.059  1.00  0.00     0.210 C 
ENDBRANCH  12  20
ENDBRANCH   1   7
TORSDOF 4
ENDMDL
MODEL 2
REMARK VINA RESULT:      -7.7      1.314      4.024
REMARK  4 active torsions:
REMARK  status: ('A' for Active; 'I' for Inactive)
REMARK    1  A    between atoms: O_1  and  C_5 
REMARK    2  A    between atoms: O_1  and  C_14 
REMARK    3  A    between atoms: O_2  and  C_18 
REMARK    4  A    between atoms: C_10  and  C_13 
ROOT
HETATM    1  O   UNL     1      30.884  78.546  20.461  1.00  0.00    -0.343 OA
ENDROOT
BRANCH   1   2
HETATM    2  C   UNL     1      30.847  78.350  21.869  1.00  0.00     0.129 C 
HETATM    3  C   UNL     1      30.201  79.557  22.532  1.00  0.00     0.032 C 
HETATM    4  C   UNL     1      31.313  80.603  22.585  1.00  0.00     0.002 C 
HETATM    5  C   UNL     1      32.630  79.835  22.497  1.00  0.00     0.002 C 
HETATM    6  C   UNL     1      32.255  78.355  22.442  1.00  0.00     0.032 C 
ENDBRANCH   1   2
BRANCH   1   7
HETATM    7  C   UNL     1      31.077  77.433  19.686  1.00  0.00     0.103 A 
HETATM    8  C   UNL     1      31.525  76.259  20.285  1.00  0.00     0.047 A 
HETATM    9  C   UNL     1      31.727  75.120  19.508  1.00  0.00    -0.049 A 
HETATM   10  C   UNL     1      31.479  75.158  18.136  1.00  0.00     0.010 A 
HETATM   11  C   UNL     1      31.029  76.337  17.542  1.00  0.00     0.040 A 
HETATM   12  C   UNL     1      30.828  77.478  18.319  1.00  0.00     0.101 A 
BRANCH   9  13
HETATM   13  C   UNL     1      32.214  73.840  20.153  1.00  0.00     0.045 C 
HETATM   14  C   UNL     1      31.183  73.081  20.990  1.00  0.00     0.132 C 
HETATM   15  N   UNL     1      31.981  72.276  21.871  1.00  0.00    -0.360 N 
HETATM   16  C   UNL     1      33.275  72.762  22.010  1.00  0.00     0.218 C 
HETATM   17  H   UNL     1      31.649  71.470  22.326  1.00  0.00     0.162 HD
HETATM   18  O   UNL     1      34.162  72.317  22.722  1.00  0.00    -0.274 OA
HETATM   19  C   UNL     1      33.381  73.994  21.147  1.00  0.00     0.113 C 
ENDBRANCH   9  13
BRANCH  12  20
HETATM   20  O   UNL     1      30.390  78.624  17.727  1.00  0.00    -0.353 OA
HETATM   21  C   UNL     1      30.067  78.553  16.339  1.00  0.00     0.210 C 
ENDBRANCH  12  20
ENDBRANCH   1   7
TORSDOF 4
ENDMDL
MODEL 3
REMARK VINA RESULT:      -7.5      1.101      1.158
REMARK  4 active torsions:
REMARK  status: ('A' for Active; 'I' for Inactive)
REMARK    1  A    between atoms: O_1  and  C_5 
REMARK    2  A    between atoms: O_1  and  C_14 
REMARK    3  A    between atoms: O_2  and  C_18 
REMARK    4  A    between atoms: C_10  and  C_13 
ROOT
HETATM    1  O   UNL     1      30.839  77.117  18.708  1.00  0.00    -0.343 OA
ENDROOT
BRANCH   1   2
HETATM    2  C   UNL     1      31.541  76.845  17.502  1.00  0.00     0.129 C 
HETATM    3  C   UNL     1      31.887  78.155  16.810  1.00  0.00     0.032 C 
HETATM    4  C   UNL     1      30.595  78.569  16.108  1.00  0.00     0.002 C 
HETATM    5  C   UNL     1      29.772  77.293  15.936  1.00  0.00     0.002 C 
HETATM    6  C   UNL     1      30.626  76.159  16.500  1.00  0.00     0.032 C 
ENDBRANCH   1   2
BRANCH   1   7
HETATM    7  C   UNL     1      31.433  76.709  19.874  1.00  0.00     0.103 A 
HETATM    8  C   UNL     1      32.125  75.502  19.896  1.00  0.00     0.047 A 
HETATM    9  C   UNL     1      32.731  75.074  21.076  1.00  0.00    -0.049 A 
HETATM   10  C   UNL     1      32.644  75.855  22.228  1.00  0.00     0.010 A 
HETATM   11  C   UNL     1      31.949  77.064  22.199  1.00  0.00     0.040 A 
HETATM   12  C   UNL     1      31.341  77.492  21.019  1.00  0.00     0.101 A 
BRANCH   9  13
HETATM   13  C   UNL     1      33.486  73.763  21.106  1.00  0.00     0.045 C 
HETATM   14  C   UNL     1      32.858  72.613  20.317  1.00  0.00     0.132 C 
HETATM   15  N   UNL     1      33.421  71.437  20.916  1.00  0.00    -0.360 N 
HETATM   16  C   UNL     1      33.908  71.672  22.195  1.00  0.00     0.218 C 
HETATM   17  H   UNL     1      33.458  70.560  20.470  1.00  0.00     0.162 HD
HETATM   18  O   UNL     1      34.400  70.859  22.963  1.00  0.00    -0.274 OA
HETATM   19  C   UNL     1      33.672  73.130  22.499  1.00  0.00     0.113 C 
ENDBRANCH   9  13
BRANCH  12  20
HETATM   20  O   UNL     1      30.664  78.674  21.004  1.00  0.00    -0.353 OA
HETATM   21  C   UNL     1      30.156  79.145  22.251  1.00  0.00     0.210 C 
ENDBRANCH  12  20
ENDBRANCH   1   7
TORSDOF 4
ENDMDL
MODEL 4
REMARK VINA RESULT:      -7.4      1.210      1.307
REMARK  4 active torsions:
REMARK  status: ('A' for Active; 'I' for Inactive)
REMARK    1  A    between atoms: O_1  and  C_5 
REMARK    2  A    between atoms: O_1  and  C_14 
REMARK    3  A    between atoms: O_2  and  C_18 
REMARK    4  A    between atoms: C_10  and  C_13 
ROOT
HETATM    1  O   UNL     1      31.430  77.938  18.676  1.00  0.00    -0.343 OA
ENDROOT
BRANCH   1   2
HETATM    2  C   UNL     1      31.833  77.324  17.458  1.00  0.00     0.129 C 
HETATM    3  C   UNL     1      32.245  78.397  16.462  1.00  0.00     0.032 C 
HETATM    4  C   UNL     1      30.926  78.925  15.901  1.00  0.00     0.002 C 
HETATM    5  C   UNL     1      29.891  77.825  16.131  1.00  0.00     0.002 C 
HETATM    6  C   UNL     1      30.643  76.664  16.778  1.00  0.00     0.032 C 
ENDBRANCH   1   2
BRANCH   1   7
HETATM    7  C   UNL     1      31.844  77.339  19.836  1.00  0.00     0.103 A 
HETATM    8  C   UNL     1      32.162  75.985  19.825  1.00  0.00     0.047 A 
HETATM    9  C   UNL     1      32.584  75.364  20.999  1.00  0.00    -0.049 A 
HETATM   10  C   UNL     1      32.686  76.099  22.180  1.00  0.00     0.010 A 
HETATM   11  C   UNL     1      32.367  77.457  22.185  1.00  0.00     0.040 A 
HETATM   12  C   UNL     1      31.944  78.078  21.010  1.00  0.00     0.101 A 
BRANCH   9  13
HETATM   13  C   UNL     1      32.931  73.891  20.993  1.00  0.00     0.045 C 
HETATM   14  C   UNL     1      33.197  73.263  22.363  1.00  0.00     0.132 C 
HETATM   15  N   UNL     1      33.984  72.101  22.060  1.00  0.00    -0.360 N 
HETATM   16  C   UNL     1      34.603  72.184  20.820  1.00  0.00     0.218 C 
HETATM   17  H   UNL     1      34.075  71.330  22.665  1.00  0.00     0.162 HD
HETATM   18  O   UNL     1      35.365  71.375  20.314  1.00  0.00    -0.274 OA
HETATM   19  C   UNL     1      34.202  73.505  20.212  1.00  0.00     0.113 C 
ENDBRANCH   9  13
BRANCH  12  20
HETATM   20  O   UNL     1      31.634  79.405  21.028  1.00  0.00    -0.353 OA
HETATM   21  C   UNL     1      31.829  80.099  22.259  1.00  0.00     0.210 C 
ENDBRANCH  12  20
ENDBRANCH   1   7
TORSDOF 4
ENDMDL
MODEL 5
REMARK VINA RESULT:      -7.2      2.990      5.017
REMARK  4 active torsions:
REMARK  status: ('A' for Active; 'I' for Inactive)
REMARK    1  A    between atoms: O_1  and  C_5 
REMARK    2  A    between atoms: O_1  and  C_14 
REMARK    3  A    between atoms: O_2  and  C_18 
REMARK    4  A    between atoms: C_10  and  C_13 
ROOT
HETATM    1  O   UNL     1      30.748  76.352  17.389  1.00  0.00    -0.343 OA
ENDROOT
BRANCH   1   2
HETATM    2  C   UNL     1      31.226  77.416  16.577  1.00  0.00     0.129 C 
HETATM    3  C   UNL     1      30.060  78.299  16.160  1.00  0.00     0.032 C 
HETATM    4  C   UNL     1      29.406  77.548  15.002  1.00  0.00     0.002 C 
HETATM    5  C   UNL     1      30.476  76.615  14.437  1.00  0.00     0.002 C 
HETATM    6  C   UNL     1      31.742  76.880  15.250  1.00  0.00     0.032 C 
ENDBRANCH   1   2
BRANCH   1   7
HETATM    7  C   UNL     1      31.323  76.211  18.625  1.00  0.00     0.103 A 
HETATM    8  C   UNL     1      31.058  77.159  19.608  1.00  0.00     0.047 A 
HETATM    9  C   UNL     1      31.638  77.028  20.869  1.00  0.00    -0.049 A 
HETATM   10  C   UNL     1      32.480  75.951  21.142  1.00  0.00     0.010 A 
HETATM   11  C   UNL     1      32.741  75.003  20.152  1.00  0.00     0.040 A 
HETATM   12  C   UNL     1      32.162  75.134  18.890  1.00  0.00     0.101 A 
BRANCH   9  13
HETATM   13  C   UNL     1      31.353  78.056  21.943  1.00  0.00     0.045 C 
HETATM   14  C   UNL     1      29.962  78.690  21.907  1.00  0.00     0.132 C 
HETATM   15  N   UNL     1      30.129  79.926  22.619  1.00  0.00    -0.360 N 
HETATM   16  C   UNL     1      31.455  80.336  22.669  1.00  0.00     0.218 C 
HETATM   17  H   UNL     1      29.387  80.426  23.027  1.00  0.00     0.162 HD
HETATM   18  O   UNL     1      31.896  81.362  23.164  1.00  0.00    -0.274 OA
HETATM   19  C   UNL     1      32.270  79.295  21.943  1.00  0.00     0.113 C 
ENDBRANCH   9  13
BRANCH  12  20
HETATM   20  O   UNL     1      32.426  74.203  17.931  1.00  0.00    -0.353 OA
HETATM   21  C   UNL     1      32.673  72.870  18.374  1.00  0.00     0.210 C 
ENDBRANCH  12  20
ENDBRANCH   1   7
TORSDOF 4
ENDMDL
MODEL 6
REMARK VINA RESULT:      -7.2      2.928      6.507
REMARK  4 active torsions:
REMARK  status: ('A' for Active; 'I' for Inactive)
REMARK    1  A    between atoms: O_1  and  C_5 
REMARK    2  A    between atoms: O_1  and  C_14 
REMARK    3  A    between atoms: O_2  and  C_18 
REMARK    4  A    between atoms: C_10  and  C_13 
ROOT
HETATM    1  O   UNL     1      31.875  73.034  21.594  1.00  0.00    -0.343 OA
ENDROOT
BRANCH   1   2
HETATM    2  C   UNL     1      33.015  72.868  22.428  1.00  0.00     0.129 C 
HETATM    3  C   UNL     1      34.270  73.231  21.649  1.00  0.00     0.032 C 
HETATM    4  C   UNL     1      34.562  71.997  20.798  1.00  0.00     0.002 C 
HETATM    5  C   UNL     1      33.866  70.825  21.488  1.00  0.00     0.002 C 
HETATM    6  C   UNL     1      33.225  71.397  22.751  1.00  0.00     0.032 C 
ENDBRANCH   1   2
BRANCH   1   7
HETATM    7  C   UNL     1      31.692  74.272  21.037  1.00  0.00     0.103 A 
HETATM    8  C   UNL     1      31.545  75.376  21.871  1.00  0.00     0.047 A 
HETATM    9  C   UNL     1      31.357  76.641  21.316  1.00  0.00    -0.049 A 
HETATM   10  C   UNL     1      31.318  76.798  19.931  1.00  0.00     0.010 A 
HETATM   11  C   UNL     1      31.467  75.687  19.100  1.00  0.00     0.040 A 
HETATM   12  C   UNL     1      31.654  74.421  19.655  1.00  0.00     0.101 A 
BRANCH   9  13
HETATM   13  C   UNL     1      31.197  77.846  22.218  1.00  0.00     0.045 C 
HETATM   14  C   UNL     1      29.850  78.567  22.135  1.00  0.00     0.132 C 
HETATM   15  N   UNL     1      30.134  79.885  22.628  1.00  0.00    -0.360 N 
HETATM   16  C   UNL     1      31.485  80.200  22.556  1.00  0.00     0.218 C 
HETATM   17  H   UNL     1      29.448  80.497  22.977  1.00  0.00     0.162 HD
HETATM   18  O   UNL     1      32.017  81.257  22.858  1.00  0.00    -0.274 OA
HETATM   19  C   UNL     1      32.191  78.999  21.978  1.00  0.00     0.113 C 
ENDBRANCH   9  13
BRANCH  12  20
HETATM   20  O   UNL     1      31.796  73.344  18.833  1.00  0.00    -0.353 OA
HETATM   21  C   UNL     1      30.601  72.693  18.406  1.00  0.00     0.210 C 
ENDBRANCH  12  20
ENDBRANCH   1   7
TORSDOF 4
ENDMDL
MODEL 7
REMARK VINA RESULT:      -6.9      2.976      6.600
REMARK  4 active torsions:
REMARK  status: ('A' for Active; 'I' for Inactive)
REMARK    1  A    between atoms: O_1  and  C_5 
REMARK    2  A    between atoms: O_1  and  C_14 
REMARK    3  A    between atoms: O_2  and  C_18 
REMARK    4  A    between atoms: C_10  and  C_13 
ROOT
HETATM    1  O   UNL     1      32.929  74.934  21.336  1.00  0.00    -0.343 OA
ENDROOT
BRANCH   1   2
HETATM    2  C   UNL     1      32.956  73.660  20.704  1.00  0.00     0.129 C 
HETATM    3  C   UNL     1      31.705  72.881  21.081  1.00  0.00     0.032 C 
HETATM    4  C   UNL     1      32.002  72.332  22.475  1.00  0.00     0.002 C 
HETATM    5  C   UNL     1      33.524  72.313  22.613  1.00  0.00     0.002 C 
HETATM    6  C   UNL     1      34.077  72.808  21.278  1.00  0.00     0.032 C 
ENDBRANCH   1   2
BRANCH   1   7
HETATM    7  C   UNL     1      32.267  75.936  20.677  1.00  0.00     0.103 A 
HETATM    8  C   UNL     1      32.341  76.000  19.289  1.00  0.00     0.047 A 
HETATM    9  C   UNL     1      31.673  77.016  18.607  1.00  0.00    -0.049 A 
HETATM   10  C   UNL     1      30.934  77.964  19.315  1.00  0.00     0.010 A 
HETATM   11  C   UNL     1      30.863  77.894  20.706  1.00  0.00     0.040 A 
HETATM   12  C   UNL     1      31.532  76.878  21.389  1.00  0.00     0.101 A 
BRANCH   9  13
HETATM   13  C   UNL     1      31.749  77.090  17.097  1.00  0.00     0.045 C 
HETATM   14  C   UNL     1      32.271  78.407  16.520  1.00  0.00     0.132 C 
HETATM   15  N   UNL     1      31.759  78.421  15.179  1.00  0.00    -0.360 N 
HETATM   16  C   UNL     1      30.667  77.578  15.016  1.00  0.00     0.218 C 
HETATM   17  H   UNL     1      32.139  78.967  14.454  1.00  0.00     0.162 HD
HETATM   18  O   UNL     1      29.998  77.415  14.008  1.00  0.00    -0.274 OA
HETATM   19  C   UNL     1      30.412  76.921  16.350  1.00  0.00     0.113 C 
ENDBRANCH   9  13
BRANCH  12  20
HETATM   20  O   UNL     1      31.457  76.822  22.748  1.00  0.00    -0.353 OA
HETATM   21  C   UNL     1      30.626  75.807  23.309  1.00  0.00     0.210 C 
ENDBRANCH  12  20
ENDBRANCH   1   7
TORSDOF 4
ENDMDL
MODEL 8
REMARK VINA RESULT:      -6.9      2.473      3.715
REMARK  4 active torsions:
REMARK  status: ('A' for Active; 'I' for Inactive)
REMARK    1  A    between atoms: O_1  and  C_5 
REMARK    2  A    between atoms: O_1  and  C_14 
REMARK    3  A    between atoms: O_2  and  C_18 
REMARK    4  A    between atoms: C_10  and  C_13 
ROOT
HETATM    1  O   UNL     1      31.303  75.251  16.057  1.00  0.00    -0.343 OA
ENDROOT
BRANCH   1   2
HETATM    2  C   UNL     1      32.588  74.784  15.669  1.00  0.00     0.129 C 
HETATM    3  C   UNL     1      33.038  75.520  14.416  1.00  0.00     0.032 C 
HETATM    4  C   UNL     1      32.304  74.816  13.276  1.00  0.00     0.002 C 
HETATM    5  C   UNL     1      31.938  73.426  13.794  1.00  0.00     0.002 C 
HETATM    6  C   UNL     1      32.510  73.337  15.208  1.00  0.00     0.032 C 
ENDBRANCH   1   2
BRANCH   1   7
HETATM    7  C   UNL     1      31.224  75.926  17.247  1.00  0.00     0.103 A 
HETATM    8  C   UNL     1      31.539  75.260  18.427  1.00  0.00     0.047 A 
HETATM    9  C   UNL     1      31.461  75.935  19.644  1.00  0.00    -0.049 A 
HETATM   10  C   UNL     1      31.068  77.273  19.676  1.00  0.00     0.010 A 
HETATM   11  C   UNL     1      30.754  77.935  18.489  1.00  0.00     0.040 A 
HETATM   12  C   UNL     1      30.831  77.260  17.272  1.00  0.00     0.101 A 
BRANCH   9  13
HETATM   13  C   UNL     1      31.803  75.217  20.931  1.00  0.00     0.045 C 
HETATM   14  C   UNL     1      32.036  76.109  22.152  1.00  0.00     0.132 C 
HETATM   15  N   UNL     1      32.825  75.292  23.029  1.00  0.00    -0.360 N 
HETATM   16  C   UNL     1      33.473  74.262  22.359  1.00  0.00     0.218 C 
HETATM   17  H   UNL     1      32.899  75.444  23.998  1.00  0.00     0.162 HD
HETATM   18  O   UNL     1      34.244  73.440  22.829  1.00  0.00    -0.274 OA
HETATM   19  C   UNL     1      33.091  74.371  20.904  1.00  0.00     0.113 C 
ENDBRANCH   9  13
BRANCH  12  20
HETATM   20  O   UNL     1      30.520  77.917  16.120  1.00  0.00    -0.353 OA
HETATM   21  C   UNL     1      31.541  78.729  15.541  1.00  0.00     0.210 C 
ENDBRANCH  12  20
ENDBRANCH   1   7
TORSDOF 4
ENDMDL
MODEL 9
REMARK VINA RESULT:      -6.8      3.298      4.501
REMARK  4 active torsions:
REMARK  status: ('A' for Active; 'I' for Inactive)
REMARK    1  A    between atoms: O_1  and  C_5 
REMARK    2  A    between atoms: O_1  and  C_14 
REMARK    3  A    between atoms: O_2  and  C_18 
REMARK    4  A    between atoms: C_10  and  C_13 
ROOT
HETATM    1  O   UNL     1      31.876  75.265  19.893  1.00  0.00    -0.343 OA
ENDROOT
BRANCH   1   2
HETATM    2  C   UNL     1      32.550  76.479  19.587  1.00  0.00     0.129 C 
HETATM    3  C   UNL     1      32.080  77.573  20.534  1.00  0.00     0.032 C 
HETATM    4  C   UNL     1      30.741  78.029  19.956  1.00  0.00     0.002 C 
HETATM    5  C   UNL     1      30.754  77.632  18.480  1.00  0.00     0.002 C 
HETATM    6  C   UNL     1      32.119  76.997  18.224  1.00  0.00     0.032 C 
ENDBRANCH   1   2
BRANCH   1   7
HETATM    7  C   UNL     1      32.629  74.262  20.442  1.00  0.00     0.103 A 
HETATM    8  C   UNL     1      33.625  73.664  19.676  1.00  0.00     0.047 A 
HETATM    9  C   UNL     1      34.397  72.641  20.223  1.00  0.00    -0.049 A 
HETATM   10  C   UNL     1      34.171  72.219  21.533  1.00  0.00     0.010 A 
HETATM   11  C   UNL     1      33.171  72.823  22.296  1.00  0.00     0.040 A 
HETATM   12  C   UNL     1      32.398  73.846  21.749  1.00  0.00     0.101 A 
BRANCH   9  13
HETATM   13  C   UNL     1      35.483  71.987  19.395  1.00  0.00     0.045 C 
HETATM   14  C   UNL     1      35.534  70.459  19.450  1.00  0.00     0.132 C 
HETATM   15  N   UNL     1      36.880  70.146  19.062  1.00  0.00    -0.360 N 
HETATM   16  C   UNL     1      37.746  71.219  19.229  1.00  0.00     0.218 C 
HETATM   17  H   UNL     1      37.159  69.268  18.716  1.00  0.00     0.162 HD
HETATM   18  O   UNL     1      38.950  71.240  19.028  1.00  0.00    -0.274 OA
HETATM   19  C   UNL     1      36.929  72.368  19.766  1.00  0.00     0.113 C 
ENDBRANCH   9  13
BRANCH  12  20
HETATM   20  O   UNL     1      31.424  74.426  22.504  1.00  0.00    -0.353 OA
HETATM   21  C   UNL     1      30.350  73.590  22.930  1.00  0.00     0.210 C 
ENDBRANCH  12  20
ENDBRANCH   1   7
TORSDOF 4
ENDMDL
