MODEL 1
REMARK VINA RESULT:      -4.9      0.000      0.000
REMARK  6 active torsions:
REMARK  status: ('A' for Active; 'I' for Inactive)
REMARK    1  A    between atoms: N_3  and  CA_7 
REMARK    2  A    between atoms: N_4  and  C_8 
REMARK    3  A    between atoms: C_5  and  C_6 
REMARK    4  A    between atoms: C_5  and  CA_7 
REMARK    5  A    between atoms: C_6  and  C_8 
REMARK    6  A    between atoms: CA_7  and  C_9 
ROOT
HETATM    1  O   UNL     1      23.670  -1.172  34.914  1.00  0.00    -0.646 OA
HETATM    2  OXT UNL     1      22.197  -2.107  36.362  1.00  0.00    -0.646 OA
HETATM    3  C   UNL     1      22.494  -1.783  35.220  1.00  0.00     0.204 C 
ENDROOT
BRANCH   3   4
HETATM    4  CA  UNL     1      21.630  -2.000  33.990  1.00  0.00     0.283 C 
BRANCH   4   5
HETATM    5  N   UNL     1      21.877  -0.896  33.061  1.00  0.00    -0.065 N 
HETATM    6  H   UNL     1      22.077  -1.271  32.133  1.00  0.00     0.275 HD
HETATM    7  H   UNL     1      22.675  -0.351  33.387  1.00  0.00     0.275 HD
HETATM    8  H   UNL     1      21.052  -0.298  33.017  1.00  0.00     0.275 HD
ENDBRANCH   4   5
BRANCH   4   9
HETATM    9  C   UNL     1      21.862  -3.376  33.348  1.00  0.00     0.045 C 
BRANCH   9  10
HETATM   10  C   UNL     1      21.454  -3.481  31.872  1.00  0.00     0.030 C 
BRANCH  10  11
HETATM   11  C   UNL     1      21.869  -4.830  31.285  1.00  0.00     0.230 C 
BRANCH  11  12
HETATM   12  N   UNL     1      22.623  -5.600  32.268  1.00  0.00    -0.079 N 
HETATM   13  H   UNL     1      23.603  -5.640  31.990  1.00  0.00     0.274 HD
HETATM   14  H   UNL     1      22.246  -6.547  32.318  1.00  0.00     0.274 HD
HETATM   15  H   UNL     1      22.545  -5.154  33.182  1.00  0.00     0.274 HD
ENDBRANCH  11  12
ENDBRANCH  10  11
ENDBRANCH   9  10
ENDBRANCH   4   9
ENDBRANCH   3   4
TORSDOF 6
ENDMDL
MODEL 2
REMARK VINA RESULT:      -4.8      2.085      2.426
REMARK  6 active torsions:
REMARK  status: ('A' for Active; 'I' for Inactive)
REMARK    1  A    between atoms: N_3  and  CA_7 
REMARK    2  A    between atoms: N_4  and  C_8 
REMARK    3  A    between atoms: C_5  and  C_6 
REMARK    4  A    between atoms: C_5  and  CA_7 
REMARK    5  A    between atoms: C_6  and  C_8 
REMARK    6  A    between atoms: CA_7  and  C_9 
ROOT
HETATM    1  O   UNL     1      22.496  -3.115  34.479  1.00  0.00    -0.646 OA
HETATM    2  OXT UNL     1      21.500  -1.198  35.170  1.00  0.00    -0.646 OA
HETATM    3  C   UNL     1      21.712  -2.020  34.287  1.00  0.00     0.204 C 
ENDROOT
BRANCH   3   4
HETATM    4  CA  UNL     1      21.155  -1.960  32.876  1.00  0.00     0.283 C 
BRANCH   4   5
HETATM    5  N   UNL     1      21.726  -0.787  32.212  1.00  0.00    -0.065 N 
HETATM    6  H   UNL     1      20.976  -0.234  31.796  1.00  0.00     0.275 HD
HETATM    7  H   UNL     1      22.370  -1.090  31.483  1.00  0.00     0.275 HD
HETATM    8  H   UNL     1      22.228  -0.221  32.896  1.00  0.00     0.275 HD
ENDBRANCH   4   5
BRANCH   4   9
HETATM    9  C   UNL     1      21.401  -3.260  32.095  1.00  0.00     0.045 C 
BRANCH   9  10
HETATM   10  C   UNL     1      21.382  -3.113  30.568  1.00  0.00     0.030 C 
BRANCH  10  11
HETATM   11  C   UNL     1      19.967  -3.299  30.019  1.00  0.00     0.230 C 
BRANCH  11  12
HETATM   12  N   UNL     1      19.349  -2.003  29.760  1.00  0.00    -0.079 N 
HETATM   13  H   UNL     1      19.279  -1.855  28.754  1.00  0.00     0.274 HD
HETATM   14  H   UNL     1      19.921  -1.266  30.173  1.00  0.00     0.274 HD
HETATM   15  H   UNL     1      18.417  -1.982  30.173  1.00  0.00     0.274 HD
ENDBRANCH  11  12
ENDBRANCH  10  11
ENDBRANCH   9  10
ENDBRANCH   4   9
ENDBRANCH   3   4
TORSDOF 6
ENDMDL
MODEL 3
REMARK VINA RESULT:      -4.6      2.113      2.520
REMARK  6 active torsions:
REMARK  status: ('A' for Active; 'I' for Inactive)
REMARK    1  A    between atoms: N_3  and  CA_7 
REMARK    2  A    between atoms: N_4  and  C_8 
REMARK    3  A    between atoms: C_5  and  C_6 
REMARK    4  A    between atoms: C_5  and  CA_7 
REMARK    5  A    between atoms: C_6  and  C_8 
REMARK    6  A    between atoms: CA_7  and  C_9 
ROOT
HETATM    1  O   UNL     1      21.739  -1.269  35.165  1.00  0.00    -0.646 OA
HETATM    2  OXT UNL     1      22.605  -3.283  34.585  1.00  0.00    -0.646 OA
HETATM    3  C   UNL     1      21.944  -2.295  34.294  1.00  0.00     0.204 C 
ENDROOT
BRANCH   3   4
HETATM    4  CA  UNL     1      21.264  -2.050  32.959  1.00  0.00     0.283 C 
BRANCH   4   5
HETATM    5  N   UNL     1      21.780  -0.796  32.409  1.00  0.00    -0.065 N 
HETATM    6  H   UNL     1      21.244  -0.014  32.786  1.00  0.00     0.275 HD
HETATM    7  H   UNL     1      21.694  -0.810  31.393  1.00  0.00     0.275 HD
HETATM    8  H   UNL     1      22.762  -0.691  32.667  1.00  0.00     0.275 HD
ENDBRANCH   4   5
BRANCH   4   9
HETATM    9  C   UNL     1      21.432  -3.233  31.993  1.00  0.00     0.045 C 
BRANCH   9  10
HETATM   10  C   UNL     1      21.335  -2.873  30.504  1.00  0.00     0.030 C 
BRANCH  10  11
HETATM   11  C   UNL     1      19.909  -3.065  29.987  1.00  0.00     0.230 C 
BRANCH  11  12
HETATM   12  N   UNL     1      19.568  -2.011  29.038  1.00  0.00    -0.079 N 
HETATM   13  H   UNL     1      18.709  -1.550  29.336  1.00  0.00     0.274 HD
HETATM   14  H   UNL     1      19.431  -2.419  28.113  1.00  0.00     0.274 HD
HETATM   15  H   UNL     1      20.325  -1.329  29.001  1.00  0.00     0.274 HD
ENDBRANCH  11  12
ENDBRANCH  10  11
ENDBRANCH   9  10
ENDBRANCH   4   9
ENDBRANCH   3   4
TORSDOF 6
ENDMDL
MODEL 4
REMARK VINA RESULT:      -4.5      3.516      4.331
REMARK  6 active torsions:
REMARK  status: ('A' for Active; 'I' for Inactive)
REMARK    1  A    between atoms: N_3  and  CA_7 
REMARK    2  A    between atoms: N_4  and  C_8 
REMARK    3  A    between atoms: C_5  and  C_6 
REMARK    4  A    between atoms: C_5  and  CA_7 
REMARK    5  A    between atoms: C_6  and  C_8 
REMARK    6  A    between atoms: CA_7  and  C_9 
ROOT
HETATM    1  O   UNL     1      20.959  -3.951  30.456  1.00  0.00    -0.646 OA
HETATM    2  OXT UNL     1      19.600  -2.139  30.561  1.00  0.00    -0.646 OA
HETATM    3  C   UNL     1      20.629  -2.709  30.901  1.00  0.00     0.204 C 
ENDROOT
BRANCH   3   4
HETATM    4  CA  UNL     1      21.677  -2.147  31.846  1.00  0.00     0.283 C 
BRANCH   4   5
HETATM    5  N   UNL     1      21.635  -0.687  31.753  1.00  0.00    -0.065 N 
HETATM    6  H   UNL     1      21.295  -0.415  30.831  1.00  0.00     0.275 HD
HETATM    7  H   UNL     1      22.572  -0.311  31.896  1.00  0.00     0.275 HD
HETATM    8  H   UNL     1      21.009  -0.320  32.470  1.00  0.00     0.275 HD
ENDBRANCH   4   5
BRANCH   4   9
HETATM    9  C   UNL     1      21.497  -2.654  33.285  1.00  0.00     0.045 C 
BRANCH   9  10
HETATM   10  C   UNL     1      21.349  -1.555  34.346  1.00  0.00     0.030 C 
BRANCH  10  11
HETATM   11  C   UNL     1      22.207  -1.862  35.574  1.00  0.00     0.230 C 
BRANCH  11  12
HETATM   12  N   UNL     1      23.611  -1.584  35.293  1.00  0.00    -0.079 N 
HETATM   13  H   UNL     1      24.182  -1.888  36.081  1.00  0.00     0.274 HD
HETATM   14  H   UNL     1      23.737  -0.582  35.150  1.00  0.00     0.274 HD
HETATM   15  H   UNL     1      23.896  -2.087  34.453  1.00  0.00     0.274 HD
ENDBRANCH  11  12
ENDBRANCH  10  11
ENDBRANCH   9  10
ENDBRANCH   4   9
ENDBRANCH   3   4
TORSDOF 6
ENDMDL
MODEL 5
REMARK VINA RESULT:      -4.4      3.566      4.481
REMARK  6 active torsions:
REMARK  status: ('A' for Active; 'I' for Inactive)
REMARK    1  A    between atoms: N_3  and  CA_7 
REMARK    2  A    between atoms: N_4  and  C_8 
REMARK    3  A    between atoms: C_5  and  C_6 
REMARK    4  A    between atoms: C_5  and  CA_7 
REMARK    5  A    between atoms: C_6  and  C_8 
REMARK    6  A    between atoms: CA_7  and  C_9 
ROOT
HETATM    1  O   UNL     1      19.405  -2.056  30.748  1.00  0.00    -0.646 OA
HETATM    2  OXT UNL     1      20.774  -3.703  30.005  1.00  0.00    -0.646 OA
HETATM    3  C   UNL     1      20.588  -2.726  30.719  1.00  0.00     0.204 C 
ENDROOT
BRANCH   3   4
HETATM    4  CA  UNL     1      21.609  -2.116  31.662  1.00  0.00     0.283 C 
BRANCH   4   5
HETATM    5  N   UNL     1      22.001  -0.813  31.124  1.00  0.00    -0.065 N 
HETATM    6  H   UNL     1      21.658  -0.075  31.740  1.00  0.00     0.275 HD
HETATM    7  H   UNL     1      21.601  -0.695  30.194  1.00  0.00     0.275 HD
HETATM    8  H   UNL     1      23.019  -0.762  31.066  1.00  0.00     0.275 HD
ENDBRANCH   4   5
BRANCH   4   9
HETATM    9  C   UNL     1      21.093  -2.030  33.106  1.00  0.00     0.045 C 
BRANCH   9  10
HETATM   10  C   UNL     1      22.028  -2.626  34.167  1.00  0.00     0.030 C 
BRANCH  10  11
HETATM   11  C   UNL     1      22.763  -1.523  34.929  1.00  0.00     0.230 C 
BRANCH  11  12
HETATM   12  N   UNL     1      22.673  -1.754  36.366  1.00  0.00    -0.079 N 
HETATM   13  H   UNL     1      23.568  -2.099  36.712  1.00  0.00     0.274 HD
HETATM   14  H   UNL     1      21.947  -2.446  36.554  1.00  0.00     0.274 HD
HETATM   15  H   UNL     1      22.440  -0.880  36.838  1.00  0.00     0.274 HD
ENDBRANCH  11  12
ENDBRANCH  10  11
ENDBRANCH   9  10
ENDBRANCH   4   9
ENDBRANCH   3   4
TORSDOF 6
ENDMDL
MODEL 6
REMARK VINA RESULT:      -4.4      2.062      2.308
REMARK  6 active torsions:
REMARK  status: ('A' for Active; 'I' for Inactive)
REMARK    1  A    between atoms: N_3  and  CA_7 
REMARK    2  A    between atoms: N_4  and  C_8 
REMARK    3  A    between atoms: C_5  and  C_6 
REMARK    4  A    between atoms: C_5  and  CA_7 
REMARK    5  A    between atoms: C_6  and  C_8 
REMARK    6  A    between atoms: CA_7  and  C_9 
ROOT
HETATM    1  O   UNL     1      22.467  -2.769  34.695  1.00  0.00    -0.646 OA
HETATM    2  OXT UNL     1      21.952  -4.282  33.087  1.00  0.00    -0.646 OA
HETATM    3  C   UNL     1      21.867  -3.146  33.534  1.00  0.00     0.204 C 
ENDROOT
BRANCH   3   4
HETATM    4  CA  UNL     1      21.102  -2.001  32.893  1.00  0.00     0.283 C 
BRANCH   4   5
HETATM    5  N   UNL     1      21.975  -0.827  32.874  1.00  0.00    -0.065 N 
HETATM    6  H   UNL     1      21.582  -0.101  33.475  1.00  0.00     0.275 HD
HETATM    7  H   UNL     1      22.050  -0.475  31.920  1.00  0.00     0.275 HD
HETATM    8  H   UNL     1      22.901  -1.086  33.215  1.00  0.00     0.275 HD
ENDBRANCH   4   5
BRANCH   4   9
HETATM    9  C   UNL     1      20.568  -2.364  31.499  1.00  0.00     0.045 C 
BRANCH   9  10
HETATM   10  C   UNL     1      21.576  -2.191  30.353  1.00  0.00     0.030 C 
BRANCH  10  11
HETATM   11  C   UNL     1      21.548  -3.398  29.415  1.00  0.00     0.230 C 
BRANCH  11  12
HETATM   12  N   UNL     1      21.875  -4.617  30.147  1.00  0.00    -0.079 N 
HETATM   13  H   UNL     1      21.213  -5.351  29.899  1.00  0.00     0.274 HD
HETATM   14  H   UNL     1      21.822  -4.436  31.150  1.00  0.00     0.274 HD
HETATM   15  H   UNL     1      22.820  -4.915  29.905  1.00  0.00     0.274 HD
ENDBRANCH  11  12
ENDBRANCH  10  11
ENDBRANCH   9  10
ENDBRANCH   4   9
ENDBRANCH   3   4
TORSDOF 6
ENDMDL
MODEL 7
REMARK VINA RESULT:      -4.4      3.089      4.559
REMARK  6 active torsions:
REMARK  status: ('A' for Active; 'I' for Inactive)
REMARK    1  A    between atoms: N_3  and  CA_7 
REMARK    2  A    between atoms: N_4  and  C_8 
REMARK    3  A    between atoms: C_5  and  C_6 
REMARK    4  A    between atoms: C_5  and  CA_7 
REMARK    5  A    between atoms: C_6  and  C_8 
REMARK    6  A    between atoms: CA_7  and  C_9 
ROOT
HETATM    1  O   UNL     1      21.677  -7.593  33.297  1.00  0.00    -0.646 OA
HETATM    2  OXT UNL     1      23.635  -6.890  34.198  1.00  0.00    -0.646 OA
HETATM    3  C   UNL     1      22.713  -6.719  33.412  1.00  0.00     0.204 C 
ENDROOT
BRANCH   3   4
HETATM    4  CA  UNL     1      22.572  -5.544  32.461  1.00  0.00     0.283 C 
BRANCH   4   5
HETATM    5  N   UNL     1      21.856  -6.006  31.272  1.00  0.00    -0.065 N 
HETATM    6  H   UNL     1      22.099  -6.979  31.085  1.00  0.00     0.275 HD
HETATM    7  H   UNL     1      22.118  -5.430  30.472  1.00  0.00     0.275 HD
HETATM    8  H   UNL     1      20.851  -5.930  31.430  1.00  0.00     0.275 HD
ENDBRANCH   4   5
BRANCH   4   9
HETATM    9  C   UNL     1      21.898  -4.333  33.124  1.00  0.00     0.045 C 
BRANCH   9  10
HETATM   10  C   UNL     1      21.480  -3.214  32.160  1.00  0.00     0.030 C 
BRANCH  10  11
HETATM   11  C   UNL     1      21.344  -1.881  32.896  1.00  0.00     0.230 C 
BRANCH  11  12
HETATM   12  N   UNL     1      21.701  -0.777  32.014  1.00  0.00    -0.079 N 
HETATM   13  H   UNL     1      22.441  -1.074  31.378  1.00  0.00     0.274 HD
HETATM   14  H   UNL     1      22.029   0.012  32.571  1.00  0.00     0.274 HD
HETATM   15  H   UNL     1      20.883  -0.494  31.474  1.00  0.00     0.274 HD
ENDBRANCH  11  12
ENDBRANCH  10  11
ENDBRANCH   9  10
ENDBRANCH   4   9
ENDBRANCH   3   4
TORSDOF 6
ENDMDL
MODEL 8
REMARK VINA RESULT:      -4.1      4.857      5.965
REMARK  6 active torsions:
REMARK  status: ('A' for Active; 'I' for Inactive)
REMARK    1  A    between atoms: N_3  and  CA_7 
REMARK    2  A    between atoms: N_4  and  C_8 
REMARK    3  A    between atoms: C_5  and  C_6 
REMARK    4  A    between atoms: C_5  and  CA_7 
REMARK    5  A    between atoms: C_6  and  C_8 
REMARK    6  A    between atoms: CA_7  and  C_9 
ROOT
HETATM    1  O   UNL     1      18.284  -4.301  29.205  1.00  0.00    -0.646 OA
HETATM    2  OXT UNL     1      18.579  -2.818  27.516  1.00  0.00    -0.646 OA
HETATM    3  C   UNL     1      19.030  -3.428  28.476  1.00  0.00     0.204 C 
ENDROOT
BRANCH   3   4
HETATM    4  CA  UNL     1      20.451  -3.318  29.001  1.00  0.00     0.283 C 
BRANCH   4   5
HETATM    5  N   UNL     1      21.017  -2.059  28.518  1.00  0.00    -0.065 N 
HETATM    6  H   UNL     1      21.179  -1.434  29.309  1.00  0.00     0.275 HD
HETATM    7  H   UNL     1      20.367  -1.622  27.866  1.00  0.00     0.275 HD
HETATM    8  H   UNL     1      21.902  -2.244  28.045  1.00  0.00     0.275 HD
ENDBRANCH   4   5
BRANCH   4   9
HETATM    9  C   UNL     1      20.520  -3.451  30.530  1.00  0.00     0.045 C 
BRANCH   9  10
HETATM   10  C   UNL     1      20.389  -2.131  31.302  1.00  0.00     0.030 C 
BRANCH  10  11
HETATM   11  C   UNL     1      21.249  -2.150  32.566  1.00  0.00     0.230 C 
BRANCH  11  12
HETATM   12  N   UNL     1      21.791  -0.822  32.829  1.00  0.00    -0.079 N 
HETATM   13  H   UNL     1      22.439  -0.565  32.084  1.00  0.00     0.274 HD
HETATM   14  H   UNL     1      22.286  -0.827  33.722  1.00  0.00     0.274 HD
HETATM   15  H   UNL     1      21.030  -0.144  32.867  1.00  0.00     0.274 HD
ENDBRANCH  11  12
ENDBRANCH  10  11
ENDBRANCH   9  10
ENDBRANCH   4   9
ENDBRANCH   3   4
TORSDOF 6
ENDMDL
MODEL 9
REMARK VINA RESULT:      -4.1      4.707      5.901
REMARK  6 active torsions:
REMARK  status: ('A' for Active; 'I' for Inactive)
REMARK    1  A    between atoms: N_3  and  CA_7 
REMARK    2  A    between atoms: N_4  and  C_8 
REMARK    3  A    between atoms: C_5  and  C_6 
REMARK    4  A    between atoms: C_5  and  CA_7 
REMARK    5  A    between atoms: C_6  and  C_8 
REMARK    6  A    between atoms: CA_7  and  C_9 
ROOT
HETATM    1  O   UNL     1      20.984  -2.393  27.548  1.00  0.00    -0.646 OA
HETATM    2  OXT UNL     1      18.754  -2.003  27.425  1.00  0.00    -0.646 OA
HETATM    3  C   UNL     1      19.731  -2.346  28.077  1.00  0.00     0.204 C 
ENDROOT
BRANCH   3   4
HETATM    4  CA  UNL     1      19.715  -2.765  29.536  1.00  0.00     0.283 C 
BRANCH   4   5
HETATM    5  N   UNL     1      19.239  -4.146  29.607  1.00  0.00    -0.065 N 
HETATM    6  H   UNL     1      18.606  -4.247  30.402  1.00  0.00     0.275 HD
HETATM    7  H   UNL     1      20.034  -4.774  29.722  1.00  0.00     0.275 HD
HETATM    8  H   UNL     1      18.743  -4.379  28.746  1.00  0.00     0.275 HD
ENDBRANCH   4   5
BRANCH   4   9
HETATM    9  C   UNL     1      21.081  -2.575  30.213  1.00  0.00     0.045 C 
BRANCH   9  10
HETATM   10  C   UNL     1      21.173  -3.109  31.649  1.00  0.00     0.030 C 
BRANCH  10  11
HETATM   11  C   UNL     1      21.403  -1.970  32.643  1.00  0.00     0.230 C 
BRANCH  11  12
HETATM   12  N   UNL     1      21.712  -0.734  31.933  1.00  0.00    -0.079 N 
HETATM   13  H   UNL     1      21.473  -0.839  30.947  1.00  0.00     0.274 HD
HETATM   14  H   UNL     1      22.708  -0.531  32.021  1.00  0.00     0.274 HD
HETATM   15  H   UNL     1      21.172   0.033  32.334  1.00  0.00     0.274 HD
ENDBRANCH  11  12
ENDBRANCH  10  11
ENDBRANCH   9  10
ENDBRANCH   4   9
ENDBRANCH   3   4
TORSDOF 6
ENDMDL
