MODEL 1
REMARK VINA RESULT:      -6.6      0.000      0.000
REMARK  7 active torsions:
REMARK  status: ('A' for Active; 'I' for Inactive)
REMARK    1  A    between atoms: O_1  and  C_12 
REMARK    2  A    between atoms: O_3  and  C_15 
REMARK    3  A    between atoms: C_5  and  C_6 
REMARK    4  A    between atoms: C_5  and  C_7 
REMARK    5  A    between atoms: C_6  and  C_8 
REMARK    6  A    between atoms: C_7  and  C_9 
REMARK    7  A    between atoms: C_9  and  C_14 
ROOT
HETATM    1  O   UNL     1     -53.477  49.959   7.828  1.00  0.00    -0.358 OA
HETATM    2  H   UNL     1     -54.261  49.676   7.400  1.00  0.00     0.217 HD
ENDROOT
BRANCH   1   3
HETATM    3  C   UNL     1     -53.429  50.029   9.188  1.00  0.00     0.099 A 
HETATM    4  C   UNL     1     -53.178  48.873   9.926  1.00  0.00     0.046 A 
HETATM    5  C   UNL     1     -53.129  48.931  11.319  1.00  0.00    -0.055 A 
HETATM    6  C   UNL     1     -53.333  50.146  11.974  1.00  0.00     0.010 A 
HETATM    7  C   UNL     1     -53.583  51.303  11.235  1.00  0.00     0.040 A 
HETATM    8  C   UNL     1     -53.632  51.244   9.842  1.00  0.00     0.098 A 
BRANCH   5   9
HETATM    9  C   UNL     1     -52.859  47.680  12.117  1.00  0.00     0.038 C 
BRANCH   9  10
HETATM   10  C   UNL     1     -52.868  47.897  13.634  1.00  0.00     0.005 C 
BRANCH  10  11
HETATM   11  C   UNL     1     -51.582  47.410  14.316  1.00  0.00     0.011 C 
BRANCH  11  12
HETATM   12  C   UNL     1     -51.055  48.409  15.346  1.00  0.00     0.113 C 
BRANCH  12  13
HETATM   13  C   UNL     1     -49.712  48.021  15.924  1.00  0.00     0.172 C 
HETATM   14  O   UNL     1     -49.853  47.295  17.064  1.00  0.00    -0.648 OA
HETATM   15  O   UNL     1     -48.623  48.295  15.438  1.00  0.00    -0.648 OA
ENDBRANCH  12  13
ENDBRANCH  11  12
ENDBRANCH  10  11
ENDBRANCH   9  10
ENDBRANCH   5   9
BRANCH   8  16
HETATM   16  O   UNL     1     -53.879  52.380   9.132  1.00  0.00    -0.358 OA
HETATM   17  H   UNL     1     -53.534  53.200   9.426  1.00  0.00     0.217 HD
ENDBRANCH   8  16
ENDBRANCH   1   3
TORSDOF 7
ENDMDL
MODEL 2
REMARK VINA RESULT:      -6.5      0.701      1.795
REMARK  7 active torsions:
REMARK  status: ('A' for Active; 'I' for Inactive)
REMARK    1  A    between atoms: O_1  and  C_12 
REMARK    2  A    between atoms: O_3  and  C_15 
REMARK    3  A    between atoms: C_5  and  C_6 
REMARK    4  A    between atoms: C_5  and  C_7 
REMARK    5  A    between atoms: C_6  and  C_8 
REMARK    6  A    between atoms: C_7  and  C_9 
REMARK    7  A    between atoms: C_9  and  C_14 
ROOT
HETATM    1  O   UNL     1     -53.807  52.096   9.621  1.00  0.00    -0.358 OA
HETATM    2  H   UNL     1     -54.665  52.381   9.375  1.00  0.00     0.217 HD
ENDROOT
BRANCH   1   3
HETATM    3  C   UNL     1     -53.614  50.822  10.066  1.00  0.00     0.099 A 
HETATM    4  C   UNL     1     -53.613  50.569  11.438  1.00  0.00     0.046 A 
HETATM    5  C   UNL     1     -53.415  49.270  11.907  1.00  0.00    -0.055 A 
HETATM    6  C   UNL     1     -53.217  48.225  11.005  1.00  0.00     0.010 A 
HETATM    7  C   UNL     1     -53.219  48.479   9.633  1.00  0.00     0.040 A 
HETATM    8  C   UNL     1     -53.417  49.778   9.164  1.00  0.00     0.098 A 
BRANCH   5   9
HETATM    9  C   UNL     1     -53.413  48.996  13.390  1.00  0.00     0.038 C 
BRANCH   9  10
HETATM   10  C   UNL     1     -52.514  47.826  13.805  1.00  0.00     0.005 C 
BRANCH  10  11
HETATM   11  C   UNL     1     -51.527  48.195  14.921  1.00  0.00     0.011 C 
BRANCH  11  12
HETATM   12  C   UNL     1     -50.313  47.267  14.955  1.00  0.00     0.113 C 
BRANCH  12  13
HETATM   13  C   UNL     1     -49.231  47.732  15.903  1.00  0.00     0.172 C 
HETATM   14  O   UNL     1     -49.616  47.602  17.200  1.00  0.00    -0.648 OA
HETATM   15  O   UNL     1     -48.131  48.156  15.574  1.00  0.00    -0.648 OA
ENDBRANCH  12  13
ENDBRANCH  11  12
ENDBRANCH  10  11
ENDBRANCH   9  10
ENDBRANCH   5   9
BRANCH   8  16
HETATM   16  O   UNL     1     -53.416  50.013   7.822  1.00  0.00    -0.358 OA
HETATM   17  H   UNL     1     -52.757  49.627   7.280  1.00  0.00     0.217 HD
ENDBRANCH   8  16
ENDBRANCH   1   3
TORSDOF 7
ENDMDL
MODEL 3
REMARK VINA RESULT:      -6.4      3.817      5.949
REMARK  7 active torsions:
REMARK  status: ('A' for Active; 'I' for Inactive)
REMARK    1  A    between atoms: O_1  and  C_12 
REMARK    2  A    between atoms: O_3  and  C_15 
REMARK    3  A    between atoms: C_5  and  C_6 
REMARK    4  A    between atoms: C_5  and  C_7 
REMARK    5  A    between atoms: C_6  and  C_8 
REMARK    6  A    between atoms: C_7  and  C_9 
REMARK    7  A    between atoms: C_9  and  C_14 
ROOT
HETATM    1  O   UNL     1     -53.492  45.173   4.942  1.00  0.00    -0.358 OA
HETATM    2  H   UNL     1     -53.134  44.727   4.199  1.00  0.00     0.217 HD
ENDROOT
BRANCH   1   3
HETATM    3  C   UNL     1     -52.754  46.119   5.588  1.00  0.00     0.099 A 
HETATM    4  C   UNL     1     -53.092  46.478   6.893  1.00  0.00     0.046 A 
HETATM    5  C   UNL     1     -52.347  47.448   7.565  1.00  0.00    -0.055 A 
HETATM    6  C   UNL     1     -51.264  48.058   6.931  1.00  0.00     0.010 A 
HETATM    7  C   UNL     1     -50.926  47.697   5.626  1.00  0.00     0.040 A 
HETATM    8  C   UNL     1     -51.672  46.729   4.955  1.00  0.00     0.098 A 
BRANCH   5   9
HETATM    9  C   UNL     1     -52.713  47.837   8.975  1.00  0.00     0.038 C 
BRANCH   9  10
HETATM   10  C   UNL     1     -54.202  47.674   9.297  1.00  0.00     0.005 C 
BRANCH  10  11
HETATM   11  C   UNL     1     -54.758  48.819  10.155  1.00  0.00     0.011 C 
BRANCH  11  12
HETATM   12  C   UNL     1     -53.862  50.057  10.127  1.00  0.00     0.113 C 
BRANCH  12  13
HETATM   13  C   UNL     1     -53.445  50.526  11.503  1.00  0.00     0.172 C 
HETATM   14  O   UNL     1     -53.473  51.881  11.595  1.00  0.00    -0.648 OA
HETATM   15  O   UNL     1     -53.137  49.800  12.438  1.00  0.00    -0.648 OA
ENDBRANCH  12  13
ENDBRANCH  11  12
ENDBRANCH  10  11
ENDBRANCH   9  10
ENDBRANCH   5   9
BRANCH   8  16
HETATM   16  O   UNL     1     -51.332  46.386   3.681  1.00  0.00    -0.358 OA
HETATM   17  H   UNL     1     -50.864  45.590   3.519  1.00  0.00     0.217 HD
ENDBRANCH   8  16
ENDBRANCH   1   3
TORSDOF 7
ENDMDL
MODEL 4
REMARK VINA RESULT:      -6.4      4.036      5.140
REMARK  7 active torsions:
REMARK  status: ('A' for Active; 'I' for Inactive)
REMARK    1  A    between atoms: O_1  and  C_12 
REMARK    2  A    between atoms: O_3  and  C_15 
REMARK    3  A    between atoms: C_5  and  C_6 
REMARK    4  A    between atoms: C_5  and  C_7 
REMARK    5  A    between atoms: C_6  and  C_8 
REMARK    6  A    between atoms: C_7  and  C_9 
REMARK    7  A    between atoms: C_9  and  C_14 
ROOT
HETATM    1  O   UNL     1     -53.448  50.298   7.743  1.00  0.00    -0.358 OA
HETATM    2  H   UNL     1     -54.002  50.957   7.373  1.00  0.00     0.217 HD
ENDROOT
BRANCH   1   3
HETATM    3  C   UNL     1     -53.407  50.123   9.094  1.00  0.00     0.099 A 
HETATM    4  C   UNL     1     -53.151  48.853   9.613  1.00  0.00     0.046 A 
HETATM    5  C   UNL     1     -53.108  48.661  10.994  1.00  0.00    -0.055 A 
HETATM    6  C   UNL     1     -53.322  49.737  11.856  1.00  0.00     0.010 A 
HETATM    7  C   UNL     1     -53.577  51.006  11.336  1.00  0.00     0.040 A 
HETATM    8  C   UNL     1     -53.620  51.198   9.955  1.00  0.00     0.098 A 
BRANCH   5   9
HETATM    9  C   UNL     1     -52.833  47.288  11.555  1.00  0.00     0.038 C 
BRANCH   9  10
HETATM   10  C   UNL     1     -52.088  46.360  10.590  1.00  0.00     0.005 C 
BRANCH  10  11
HETATM   11  C   UNL     1     -52.886  45.098  10.235  1.00  0.00     0.011 C 
BRANCH  11  12
HETATM   12  C   UNL     1     -53.496  45.169   8.835  1.00  0.00     0.113 C 
BRANCH  12  13
HETATM   13  C   UNL     1     -55.004  45.048   8.832  1.00  0.00     0.172 C 
HETATM   14  O   UNL     1     -55.599  46.269   8.875  1.00  0.00    -0.648 OA
HETATM   15  O   UNL     1     -55.633  44.001   8.778  1.00  0.00    -0.648 OA
ENDBRANCH  12  13
ENDBRANCH  11  12
ENDBRANCH  10  11
ENDBRANCH   9  10
ENDBRANCH   5   9
BRANCH   8  16
HETATM   16  O   UNL     1     -53.871  52.443   9.459  1.00  0.00    -0.358 OA
HETATM   17  H   UNL     1     -53.325  53.163   9.705  1.00  0.00     0.217 HD
ENDBRANCH   8  16
ENDBRANCH   1   3
TORSDOF 7
ENDMDL
MODEL 5
REMARK VINA RESULT:      -6.3      2.545      3.673
REMARK  7 active torsions:
REMARK  status: ('A' for Active; 'I' for Inactive)
REMARK    1  A    between atoms: O_1  and  C_12 
REMARK    2  A    between atoms: O_3  and  C_15 
REMARK    3  A    between atoms: C_5  and  C_6 
REMARK    4  A    between atoms: C_5  and  C_7 
REMARK    5  A    between atoms: C_6  and  C_8 
REMARK    6  A    between atoms: C_7  and  C_9 
REMARK    7  A    between atoms: C_9  and  C_14 
ROOT
HETATM    1  O   UNL     1     -55.872  45.761   8.979  1.00  0.00    -0.358 OA
HETATM    2  H   UNL     1     -55.716  44.961   8.516  1.00  0.00     0.217 HD
ENDROOT
BRANCH   1   3
HETATM    3  C   UNL     1     -54.915  46.732   9.003  1.00  0.00     0.099 A 
HETATM    4  C   UNL     1     -55.005  47.759   9.943  1.00  0.00     0.046 A 
HETATM    5  C   UNL     1     -54.034  48.760   9.977  1.00  0.00    -0.055 A 
HETATM    6  C   UNL     1     -52.974  48.734   9.070  1.00  0.00     0.010 A 
HETATM    7  C   UNL     1     -52.884  47.706   8.131  1.00  0.00     0.040 A 
HETATM    8  C   UNL     1     -53.856  46.706   8.098  1.00  0.00     0.098 A 
BRANCH   5   9
HETATM    9  C   UNL     1     -54.131  49.871  10.992  1.00  0.00     0.038 C 
BRANCH   9  10
HETATM   10  C   UNL     1     -53.112  49.763  12.131  1.00  0.00     0.005 C 
BRANCH  10  11
HETATM   11  C   UNL     1     -53.495  48.711  13.180  1.00  0.00     0.011 C 
BRANCH  11  12
HETATM   12  C   UNL     1     -52.279  48.160  13.924  1.00  0.00     0.113 C 
BRANCH  12  13
HETATM   13  C   UNL     1     -51.921  48.955  15.160  1.00  0.00     0.172 C 
HETATM   14  O   UNL     1     -50.850  48.420  15.801  1.00  0.00    -0.648 OA
HETATM   15  O   UNL     1     -52.493  49.966  15.544  1.00  0.00    -0.648 OA
ENDBRANCH  12  13
ENDBRANCH  11  12
ENDBRANCH  10  11
ENDBRANCH   9  10
ENDBRANCH   5   9
BRANCH   8  16
HETATM   16  O   UNL     1     -53.758  45.708   7.175  1.00  0.00    -0.358 OA
HETATM   17  H   UNL     1     -54.407  45.625   6.504  1.00  0.00     0.217 HD
ENDBRANCH   8  16
ENDBRANCH   1   3
TORSDOF 7
ENDMDL
MODEL 6
REMARK VINA RESULT:      -6.2      4.288      6.389
REMARK  7 active torsions:
REMARK  status: ('A' for Active; 'I' for Inactive)
REMARK    1  A    between atoms: O_1  and  C_12 
REMARK    2  A    between atoms: O_3  and  C_15 
REMARK    3  A    between atoms: C_5  and  C_6 
REMARK    4  A    between atoms: C_5  and  C_7 
REMARK    5  A    between atoms: C_6  and  C_8 
REMARK    6  A    between atoms: C_7  and  C_9 
REMARK    7  A    between atoms: C_9  and  C_14 
ROOT
HETATM    1  O   UNL     1     -53.364  50.733   7.845  1.00  0.00    -0.358 OA
HETATM    2  H   UNL     1     -54.130  50.903   7.332  1.00  0.00     0.217 HD
ENDROOT
BRANCH   1   3
HETATM    3  C   UNL     1     -53.463  50.012   8.998  1.00  0.00     0.099 A 
HETATM    4  C   UNL     1     -53.471  48.619   8.936  1.00  0.00     0.046 A 
HETATM    5  C   UNL     1     -53.574  47.870  10.109  1.00  0.00    -0.055 A 
HETATM    6  C   UNL     1     -53.670  48.515  11.342  1.00  0.00     0.010 A 
HETATM    7  C   UNL     1     -53.661  49.909  11.403  1.00  0.00     0.040 A 
HETATM    8  C   UNL     1     -53.558  50.657  10.230  1.00  0.00     0.098 A 
BRANCH   5   9
HETATM    9  C   UNL     1     -53.584  46.363  10.043  1.00  0.00     0.038 C 
BRANCH   9  10
HETATM   10  C   UNL     1     -54.149  45.803   8.733  1.00  0.00     0.005 C 
BRANCH  10  11
HETATM   11  C   UNL     1     -55.404  44.944   8.942  1.00  0.00     0.011 C 
BRANCH  11  12
HETATM   12  C   UNL     1     -55.157  43.467   8.635  1.00  0.00     0.113 C 
BRANCH  12  13
HETATM   13  C   UNL     1     -56.430  42.667   8.476  1.00  0.00     0.172 C 
HETATM   14  O   UNL     1     -56.820  42.114   9.654  1.00  0.00    -0.648 OA
HETATM   15  O   UNL     1     -57.062  42.535   7.436  1.00  0.00    -0.648 OA
ENDBRANCH  12  13
ENDBRANCH  11  12
ENDBRANCH  10  11
ENDBRANCH   9  10
ENDBRANCH   5   9
BRANCH   8  16
HETATM   16  O   UNL     1     -53.551  52.018  10.302  1.00  0.00    -0.358 OA
HETATM   17  H   UNL     1     -53.679  52.444  11.127  1.00  0.00     0.217 HD
ENDBRANCH   8  16
ENDBRANCH   1   3
TORSDOF 7
ENDMDL
MODEL 7
REMARK VINA RESULT:      -6.1      3.581      5.651
REMARK  7 active torsions:
REMARK  status: ('A' for Active; 'I' for Inactive)
REMARK    1  A    between atoms: O_1  and  C_12 
REMARK    2  A    between atoms: O_3  and  C_15 
REMARK    3  A    between atoms: C_5  and  C_6 
REMARK    4  A    between atoms: C_5  and  C_7 
REMARK    5  A    between atoms: C_6  and  C_8 
REMARK    6  A    between atoms: C_7  and  C_9 
REMARK    7  A    between atoms: C_9  and  C_14 
ROOT
HETATM    1  O   UNL     1     -53.743  51.853   8.997  1.00  0.00    -0.358 OA
HETATM    2  H   UNL     1     -53.938  51.738   8.087  1.00  0.00     0.217 HD
ENDROOT
BRANCH   1   3
HETATM    3  C   UNL     1     -53.575  50.765   9.800  1.00  0.00     0.099 A 
HETATM    4  C   UNL     1     -53.535  49.492   9.230  1.00  0.00     0.046 A 
HETATM    5  C   UNL     1     -53.364  48.370  10.041  1.00  0.00    -0.055 A 
HETATM    6  C   UNL     1     -53.235  48.521  11.422  1.00  0.00     0.010 A 
HETATM    7  C   UNL     1     -53.274  49.794  11.991  1.00  0.00     0.040 A 
HETATM    8  C   UNL     1     -53.445  50.915  11.180  1.00  0.00     0.098 A 
BRANCH   5   9
HETATM    9  C   UNL     1     -53.323  46.994   9.426  1.00  0.00     0.038 C 
BRANCH   9  10
HETATM   10  C   UNL     1     -52.026  46.227   9.706  1.00  0.00     0.005 C 
BRANCH  10  11
HETATM   11  C   UNL     1     -50.954  46.449   8.630  1.00  0.00     0.011 C 
BRANCH  11  12
HETATM   12  C   UNL     1     -51.505  46.278   7.214  1.00  0.00     0.113 C 
BRANCH  12  13
HETATM   13  C   UNL     1     -51.309  47.498   6.344  1.00  0.00     0.172 C 
HETATM   14  O   UNL     1     -51.419  47.191   5.025  1.00  0.00    -0.648 OA
HETATM   15  O   UNL     1     -51.097  48.633   6.748  1.00  0.00    -0.648 OA
ENDBRANCH  12  13
ENDBRANCH  11  12
ENDBRANCH  10  11
ENDBRANCH   9  10
ENDBRANCH   5   9
BRANCH   8  16
HETATM   16  O   UNL     1     -53.482  52.154  11.747  1.00  0.00    -0.358 OA
HETATM   17  H   UNL     1     -53.391  52.246  12.675  1.00  0.00     0.217 HD
ENDBRANCH   8  16
ENDBRANCH   1   3
TORSDOF 7
ENDMDL
MODEL 8
REMARK VINA RESULT:      -6.0      2.408      3.306
REMARK  7 active torsions:
REMARK  status: ('A' for Active; 'I' for Inactive)
REMARK    1  A    between atoms: O_1  and  C_12 
REMARK    2  A    between atoms: O_3  and  C_15 
REMARK    3  A    between atoms: C_5  and  C_6 
REMARK    4  A    between atoms: C_5  and  C_7 
REMARK    5  A    between atoms: C_6  and  C_8 
REMARK    6  A    between atoms: C_7  and  C_9 
REMARK    7  A    between atoms: C_9  and  C_14 
ROOT
HETATM    1  O   UNL     1     -53.735  52.283   9.800  1.00  0.00    -0.358 OA
HETATM    2  H   UNL     1     -53.007  52.865   9.900  1.00  0.00     0.217 HD
ENDROOT
BRANCH   1   3
HETATM    3  C   UNL     1     -53.584  50.953  10.057  1.00  0.00     0.099 A 
HETATM    4  C   UNL     1     -53.645  50.499  11.374  1.00  0.00     0.046 A 
HETATM    5  C   UNL     1     -53.490  49.140  11.651  1.00  0.00    -0.055 A 
HETATM    6  C   UNL     1     -53.272  48.236  10.610  1.00  0.00     0.010 A 
HETATM    7  C   UNL     1     -53.213  48.692   9.293  1.00  0.00     0.040 A 
HETATM    8  C   UNL     1     -53.368  50.050   9.017  1.00  0.00     0.098 A 
BRANCH   5   9
HETATM    9  C   UNL     1     -53.554  48.648  13.075  1.00  0.00     0.038 C 
BRANCH   9  10
HETATM   10  C   UNL     1     -52.181  48.456  13.729  1.00  0.00     0.005 C 
BRANCH  10  11
HETATM   11  C   UNL     1     -51.871  46.988  14.051  1.00  0.00     0.011 C 
BRANCH  11  12
HETATM   12  C   UNL     1     -51.281  46.241  12.854  1.00  0.00     0.113 C 
BRANCH  12  13
HETATM   13  C   UNL     1     -52.035  44.978  12.506  1.00  0.00     0.172 C 
HETATM   14  O   UNL     1     -52.185  44.844  11.163  1.00  0.00    -0.648 OA
HETATM   15  O   UNL     1     -52.450  44.154  13.309  1.00  0.00    -0.648 OA
ENDBRANCH  12  13
ENDBRANCH  11  12
ENDBRANCH  10  11
ENDBRANCH   9  10
ENDBRANCH   5   9
BRANCH   8  16
HETATM   16  O   UNL     1     -53.306  50.483   7.726  1.00  0.00    -0.358 OA
HETATM   17  H   UNL     1     -52.694  51.150   7.485  1.00  0.00     0.217 HD
ENDBRANCH   8  16
ENDBRANCH   1   3
TORSDOF 7
ENDMDL
MODEL 9
REMARK VINA RESULT:      -6.0      3.496      5.708
REMARK  7 active torsions:
REMARK  status: ('A' for Active; 'I' for Inactive)
REMARK    1  A    between atoms: O_1  and  C_12 
REMARK    2  A    between atoms: O_3  and  C_15 
REMARK    3  A    between atoms: C_5  and  C_6 
REMARK    4  A    between atoms: C_5  and  C_7 
REMARK    5  A    between atoms: C_6  and  C_8 
REMARK    6  A    between atoms: C_7  and  C_9 
REMARK    7  A    between atoms: C_9  and  C_14 
ROOT
HETATM    1  O   UNL     1     -53.524  51.298  11.884  1.00  0.00    -0.358 OA
HETATM    2  H   UNL     1     -53.120  52.122  11.690  1.00  0.00     0.217 HD
ENDROOT
BRANCH   1   3
HETATM    3  C   UNL     1     -53.401  50.258  11.012  1.00  0.00     0.099 A 
HETATM    4  C   UNL     1     -53.144  48.978  11.504  1.00  0.00     0.046 A 
HETATM    5  C   UNL     1     -53.014  47.905  10.622  1.00  0.00    -0.055 A 
HETATM    6  C   UNL     1     -53.140  48.112   9.248  1.00  0.00     0.010 A 
HETATM    7  C   UNL     1     -53.398  49.393   8.757  1.00  0.00     0.040 A 
HETATM    8  C   UNL     1     -53.527  50.465   9.639  1.00  0.00     0.098 A 
BRANCH   5   9
HETATM    9  C   UNL     1     -52.735  46.522  11.154  1.00  0.00     0.038 C 
BRANCH   9  10
HETATM   10  C   UNL     1     -52.223  45.540  10.094  1.00  0.00     0.005 C 
BRANCH  10  11
HETATM   11  C   UNL     1     -53.100  44.287   9.964  1.00  0.00     0.011 C 
BRANCH  11  12
HETATM   12  C   UNL     1     -53.840  44.229   8.628  1.00  0.00     0.113 C 
BRANCH  12  13
HETATM   13  C   UNL     1     -55.298  44.619   8.734  1.00  0.00     0.172 C 
HETATM   14  O   UNL     1     -56.111  43.536   8.624  1.00  0.00    -0.648 OA
HETATM   15  O   UNL     1     -55.719  45.753   8.917  1.00  0.00    -0.648 OA
ENDBRANCH  12  13
ENDBRANCH  11  12
ENDBRANCH  10  11
ENDBRANCH   9  10
ENDBRANCH   5   9
BRANCH   8  16
HETATM   16  O   UNL     1     -53.778  51.711   9.147  1.00  0.00    -0.358 OA
HETATM   17  H   UNL     1     -53.076  52.322   9.042  1.00  0.00     0.217 HD
ENDBRANCH   8  16
ENDBRANCH   1   3
TORSDOF 7
ENDMDL
