MODEL 1
REMARK VINA RESULT:      -6.6      0.000      0.000
REMARK  7 active torsions:
REMARK  status: ('A' for Active; 'I' for Inactive)
REMARK    1  A    between atoms: O_1  and  C_12 
REMARK    2  A    between atoms: O_3  and  C_15 
REMARK    3  A    between atoms: C_5  and  C_6 
REMARK    4  A    between atoms: C_5  and  C_7 
REMARK    5  A    between atoms: C_6  and  C_8 
REMARK    6  A    between atoms: C_7  and  C_9 
REMARK    7  A    between atoms: C_9  and  C_14 
ROOT
HETATM    1  O   UNL     1     -53.810  51.929   9.688  1.00  0.00    -0.358 OA
HETATM    2  H   UNL     1     -54.365  52.077   8.948  1.00  0.00     0.217 HD
ENDROOT
BRANCH   1   3
HETATM    3  C   UNL     1     -53.575  50.658  10.120  1.00  0.00     0.099 A 
HETATM    4  C   UNL     1     -53.462  50.410  11.488  1.00  0.00     0.046 A 
HETATM    5  C   UNL     1     -53.220  49.113  11.943  1.00  0.00    -0.055 A 
HETATM    6  C   UNL     1     -53.090  48.066  11.030  1.00  0.00     0.010 A 
HETATM    7  C   UNL     1     -53.205  48.315   9.662  1.00  0.00     0.040 A 
HETATM    8  C   UNL     1     -53.447  49.612   9.208  1.00  0.00     0.098 A 
BRANCH   5   9
HETATM    9  C   UNL     1     -53.095  48.845  13.422  1.00  0.00     0.038 C 
BRANCH   9  10
HETATM   10  C   UNL     1     -52.657  47.415  13.759  1.00  0.00     0.005 C 
BRANCH  10  11
HETATM   11  C   UNL     1     -51.203  47.332  14.241  1.00  0.00     0.011 C 
BRANCH  11  12
HETATM   12  C   UNL     1     -50.929  48.254  15.430  1.00  0.00     0.113 C 
BRANCH  12  13
HETATM   13  C   UNL     1     -49.572  48.032  16.059  1.00  0.00     0.172 C 
HETATM   14  O   UNL     1     -49.684  47.491  17.301  1.00  0.00    -0.648 OA
HETATM   15  O   UNL     1     -48.496  48.279  15.534  1.00  0.00    -0.648 OA
ENDBRANCH  12  13
ENDBRANCH  11  12
ENDBRANCH  10  11
ENDBRANCH   9  10
ENDBRANCH   5   9
BRANCH   8  16
HETATM   16  O   UNL     1     -53.556  49.843   7.869  1.00  0.00    -0.358 OA
HETATM   17  H   UNL     1     -52.926  49.478   7.278  1.00  0.00     0.217 HD
ENDBRANCH   8  16
ENDBRANCH   1   3
TORSDOF 7
ENDMDL
MODEL 2
REMARK VINA RESULT:      -6.5      0.634      1.773
REMARK  7 active torsions:
REMARK  status: ('A' for Active; 'I' for Inactive)
REMARK    1  A    between atoms: O_1  and  C_12 
REMARK    2  A    between atoms: O_3  and  C_15 
REMARK    3  A    between atoms: C_5  and  C_6 
REMARK    4  A    between atoms: C_5  and  C_7 
REMARK    5  A    between atoms: C_6  and  C_8 
REMARK    6  A    between atoms: C_7  and  C_9 
REMARK    7  A    between atoms: C_9  and  C_14 
ROOT
HETATM    1  O   UNL     1     -53.453  50.091   7.826  1.00  0.00    -0.358 OA
HETATM    2  H   UNL     1     -52.969  50.710   7.317  1.00  0.00     0.217 HD
ENDROOT
BRANCH   1   3
HETATM    3  C   UNL     1     -53.428  50.158   9.187  1.00  0.00     0.099 A 
HETATM    4  C   UNL     1     -53.208  48.996   9.927  1.00  0.00     0.046 A 
HETATM    5  C   UNL     1     -53.182  49.051  11.321  1.00  0.00    -0.055 A 
HETATM    6  C   UNL     1     -53.376  50.268  11.974  1.00  0.00     0.010 A 
HETATM    7  C   UNL     1     -53.595  51.431  11.234  1.00  0.00     0.040 A 
HETATM    8  C   UNL     1     -53.621  51.374   9.840  1.00  0.00     0.098 A 
BRANCH   5   9
HETATM    9  C   UNL     1     -52.946  47.795  12.121  1.00  0.00     0.038 C 
BRANCH   9  10
HETATM   10  C   UNL     1     -52.864  48.027  13.633  1.00  0.00     0.005 C 
BRANCH  10  11
HETATM   11  C   UNL     1     -51.549  47.525  14.246  1.00  0.00     0.011 C 
BRANCH  11  12
HETATM   12  C   UNL     1     -51.119  48.350  15.459  1.00  0.00     0.113 C 
BRANCH  12  13
HETATM   13  C   UNL     1     -49.710  48.048  15.919  1.00  0.00     0.172 C 
HETATM   14  O   UNL     1     -49.701  47.497  17.161  1.00  0.00    -0.648 OA
HETATM   15  O   UNL     1     -48.693  48.245  15.269  1.00  0.00    -0.648 OA
ENDBRANCH  12  13
ENDBRANCH  11  12
ENDBRANCH  10  11
ENDBRANCH   9  10
ENDBRANCH   5   9
BRANCH   8  16
HETATM   16  O   UNL     1     -53.837  52.516   9.128  1.00  0.00    -0.358 OA
HETATM   17  H   UNL     1     -53.553  53.341   9.469  1.00  0.00     0.217 HD
ENDBRANCH   8  16
ENDBRANCH   1   3
TORSDOF 7
ENDMDL
MODEL 3
REMARK VINA RESULT:      -6.4      4.162      6.259
REMARK  7 active torsions:
REMARK  status: ('A' for Active; 'I' for Inactive)
REMARK    1  A    between atoms: O_1  and  C_12 
REMARK    2  A    between atoms: O_3  and  C_15 
REMARK    3  A    between atoms: C_5  and  C_6 
REMARK    4  A    between atoms: C_5  and  C_7 
REMARK    5  A    between atoms: C_6  and  C_8 
REMARK    6  A    between atoms: C_7  and  C_9 
REMARK    7  A    between atoms: C_9  and  C_14 
ROOT
HETATM    1  O   UNL     1     -53.504  45.223   4.969  1.00  0.00    -0.358 OA
HETATM    2  H   UNL     1     -53.836  45.385   4.107  1.00  0.00     0.217 HD
ENDROOT
BRANCH   1   3
HETATM    3  C   UNL     1     -52.729  46.159   5.587  1.00  0.00     0.099 A 
HETATM    4  C   UNL     1     -53.098  46.630   6.846  1.00  0.00     0.046 A 
HETATM    5  C   UNL     1     -52.314  47.589   7.489  1.00  0.00    -0.055 A 
HETATM    6  C   UNL     1     -51.162  48.076   6.871  1.00  0.00     0.010 A 
HETATM    7  C   UNL     1     -50.793  47.603   5.611  1.00  0.00     0.040 A 
HETATM    8  C   UNL     1     -51.578  46.645   4.969  1.00  0.00     0.098 A 
BRANCH   5   9
HETATM    9  C   UNL     1     -52.713  48.100   8.851  1.00  0.00     0.038 C 
BRANCH   9  10
HETATM   10  C   UNL     1     -54.210  47.964   9.151  1.00  0.00     0.005 C 
BRANCH  10  11
HETATM   11  C   UNL     1     -54.702  48.963  10.207  1.00  0.00     0.011 C 
BRANCH  11  12
HETATM   12  C   UNL     1     -53.559  49.771  10.822  1.00  0.00     0.113 C 
BRANCH  12  13
HETATM   13  C   UNL     1     -53.618  51.244  10.485  1.00  0.00     0.172 C 
HETATM   14  O   UNL     1     -53.444  52.014  11.591  1.00  0.00    -0.648 OA
HETATM   15  O   UNL     1     -53.780  51.711   9.366  1.00  0.00    -0.648 OA
ENDBRANCH  12  13
ENDBRANCH  11  12
ENDBRANCH  10  11
ENDBRANCH   9  10
ENDBRANCH   5   9
BRANCH   8  16
HETATM   16  O   UNL     1     -51.208  46.192   3.738  1.00  0.00    -0.358 OA
HETATM   17  H   UNL     1     -50.440  45.662   3.646  1.00  0.00     0.217 HD
ENDBRANCH   8  16
ENDBRANCH   1   3
TORSDOF 7
ENDMDL
MODEL 4
REMARK VINA RESULT:      -6.3      4.110      5.429
REMARK  7 active torsions:
REMARK  status: ('A' for Active; 'I' for Inactive)
REMARK    1  A    between atoms: O_1  and  C_12 
REMARK    2  A    between atoms: O_3  and  C_15 
REMARK    3  A    between atoms: C_5  and  C_6 
REMARK    4  A    between atoms: C_5  and  C_7 
REMARK    5  A    between atoms: C_6  and  C_8 
REMARK    6  A    between atoms: C_7  and  C_9 
REMARK    7  A    between atoms: C_9  and  C_14 
ROOT
HETATM    1  O   UNL     1     -53.417  50.169   7.782  1.00  0.00    -0.358 OA
HETATM    2  H   UNL     1     -54.168  50.546   7.366  1.00  0.00     0.217 HD
ENDROOT
BRANCH   1   3
HETATM    3  C   UNL     1     -53.387  50.033   9.138  1.00  0.00     0.099 A 
HETATM    4  C   UNL     1     -53.116  48.783   9.695  1.00  0.00     0.046 A 
HETATM    5  C   UNL     1     -53.084  48.630  11.081  1.00  0.00    -0.055 A 
HETATM    6  C   UNL     1     -53.324  49.726  11.910  1.00  0.00     0.010 A 
HETATM    7  C   UNL     1     -53.593  50.977  11.352  1.00  0.00     0.040 A 
HETATM    8  C   UNL     1     -53.625  51.129   9.966  1.00  0.00     0.098 A 
BRANCH   5   9
HETATM    9  C   UNL     1     -52.793  47.278  11.684  1.00  0.00     0.038 C 
BRANCH   9  10
HETATM   10  C   UNL     1     -52.059  46.321  10.738  1.00  0.00     0.005 C 
BRANCH  10  11
HETATM   11  C   UNL     1     -52.892  45.084  10.374  1.00  0.00     0.011 C 
BRANCH  11  12
HETATM   12  C   UNL     1     -53.419  45.139   8.940  1.00  0.00     0.113 C 
BRANCH  12  13
HETATM   13  C   UNL     1     -54.923  45.278   8.861  1.00  0.00     0.172 C 
HETATM   14  O   UNL     1     -55.530  44.065   8.778  1.00  0.00    -0.648 OA
HETATM   15  O   UNL     1     -55.542  46.333   8.886  1.00  0.00    -0.648 OA
ENDBRANCH  12  13
ENDBRANCH  11  12
ENDBRANCH  10  11
ENDBRANCH   9  10
ENDBRANCH   5   9
BRANCH   8  16
HETATM   16  O   UNL     1     -53.891  52.354   9.432  1.00  0.00    -0.358 OA
HETATM   17  H   UNL     1     -53.564  52.576   8.582  1.00  0.00     0.217 HD
ENDBRANCH   8  16
ENDBRANCH   1   3
TORSDOF 7
ENDMDL
MODEL 5
REMARK VINA RESULT:      -6.2      3.757      6.245
REMARK  7 active torsions:
REMARK  status: ('A' for Active; 'I' for Inactive)
REMARK    1  A    between atoms: O_1  and  C_12 
REMARK    2  A    between atoms: O_3  and  C_15 
REMARK    3  A    between atoms: C_5  and  C_6 
REMARK    4  A    between atoms: C_5  and  C_7 
REMARK    5  A    between atoms: C_6  and  C_8 
REMARK    6  A    between atoms: C_7  and  C_9 
REMARK    7  A    between atoms: C_9  and  C_14 
ROOT
HETATM    1  O   UNL     1     -53.625  51.912   8.929  1.00  0.00    -0.358 OA
HETATM    2  H   UNL     1     -52.972  52.076   8.277  1.00  0.00     0.217 HD
ENDROOT
BRANCH   1   3
HETATM    3  C   UNL     1     -53.506  50.835   9.757  1.00  0.00     0.099 A 
HETATM    4  C   UNL     1     -53.438  49.554   9.209  1.00  0.00     0.046 A 
HETATM    5  C   UNL     1     -53.318  48.444  10.046  1.00  0.00    -0.055 A 
HETATM    6  C   UNL     1     -53.268  48.616  11.430  1.00  0.00     0.010 A 
HETATM    7  C   UNL     1     -53.335  49.898  11.976  1.00  0.00     0.040 A 
HETATM    8  C   UNL     1     -53.455  51.007  11.139  1.00  0.00     0.098 A 
BRANCH   5   9
HETATM    9  C   UNL     1     -53.246  47.059   9.454  1.00  0.00     0.038 C 
BRANCH   9  10
HETATM   10  C   UNL     1     -51.855  46.420   9.536  1.00  0.00     0.005 C 
BRANCH  10  11
HETATM   11  C   UNL     1     -51.311  45.992   8.166  1.00  0.00     0.011 C 
BRANCH  11  12
HETATM   12  C   UNL     1     -51.387  47.115   7.132  1.00  0.00     0.113 C 
BRANCH  12  13
HETATM   13  C   UNL     1     -52.187  46.744   5.903  1.00  0.00     0.172 C 
HETATM   14  O   UNL     1     -51.516  47.054   4.762  1.00  0.00    -0.648 OA
HETATM   15  O   UNL     1     -53.289  46.214   5.906  1.00  0.00    -0.648 OA
ENDBRANCH  12  13
ENDBRANCH  11  12
ENDBRANCH  10  11
ENDBRANCH   9  10
ENDBRANCH   5   9
BRANCH   8  16
HETATM   16  O   UNL     1     -53.521  52.254  11.685  1.00  0.00    -0.358 OA
HETATM   17  H   UNL     1     -53.169  52.988  11.220  1.00  0.00     0.217 HD
ENDBRANCH   8  16
ENDBRANCH   1   3
TORSDOF 7
ENDMDL
MODEL 6
REMARK VINA RESULT:      -6.2      2.065      6.430
REMARK  7 active torsions:
REMARK  status: ('A' for Active; 'I' for Inactive)
REMARK    1  A    between atoms: O_1  and  C_12 
REMARK    2  A    between atoms: O_3  and  C_15 
REMARK    3  A    between atoms: C_5  and  C_6 
REMARK    4  A    between atoms: C_5  and  C_7 
REMARK    5  A    between atoms: C_6  and  C_8 
REMARK    6  A    between atoms: C_7  and  C_9 
REMARK    7  A    between atoms: C_9  and  C_14 
ROOT
HETATM    1  O   UNL     1     -52.283  50.012  15.597  1.00  0.00    -0.358 OA
HETATM    2  H   UNL     1     -52.464  49.776  16.486  1.00  0.00     0.217 HD
ENDROOT
BRANCH   1   3
HETATM    3  C   UNL     1     -52.261  49.053  14.629  1.00  0.00     0.099 A 
HETATM    4  C   UNL     1     -53.069  49.199  13.502  1.00  0.00     0.046 A 
HETATM    5  C   UNL     1     -53.057  48.224  12.504  1.00  0.00    -0.055 A 
HETATM    6  C   UNL     1     -52.238  47.102  12.635  1.00  0.00     0.010 A 
HETATM    7  C   UNL     1     -51.429  46.957  13.763  1.00  0.00     0.040 A 
HETATM    8  C   UNL     1     -51.442  47.932  14.760  1.00  0.00     0.098 A 
BRANCH   5   9
HETATM    9  C   UNL     1     -53.932  48.381  11.286  1.00  0.00     0.038 C 
BRANCH   9  10
HETATM   10  C   UNL     1     -53.606  49.618  10.442  1.00  0.00     0.005 C 
BRANCH  10  11
HETATM   11  C   UNL     1     -53.419  49.296   8.953  1.00  0.00     0.011 C 
BRANCH  11  12
HETATM   12  C   UNL     1     -52.871  47.887   8.726  1.00  0.00     0.113 C 
BRANCH  12  13
HETATM   13  C   UNL     1     -53.719  47.059   7.787  1.00  0.00     0.172 C 
HETATM   14  O   UNL     1     -54.877  46.666   8.379  1.00  0.00    -0.648 OA
HETATM   15  O   UNL     1     -53.434  46.780   6.631  1.00  0.00    -0.648 OA
ENDBRANCH  12  13
ENDBRANCH  11  12
ENDBRANCH  10  11
ENDBRANCH   9  10
ENDBRANCH   5   9
BRANCH   8  16
HETATM   16  O   UNL     1     -50.648  47.779  15.857  1.00  0.00    -0.358 OA
HETATM   17  H   UNL     1     -50.738  48.362  16.585  1.00  0.00     0.217 HD
ENDBRANCH   8  16
ENDBRANCH   1   3
TORSDOF 7
ENDMDL
MODEL 7
REMARK VINA RESULT:      -6.1      0.892      2.024
REMARK  7 active torsions:
REMARK  status: ('A' for Active; 'I' for Inactive)
REMARK    1  A    between atoms: O_1  and  C_12 
REMARK    2  A    between atoms: O_3  and  C_15 
REMARK    3  A    between atoms: C_5  and  C_6 
REMARK    4  A    between atoms: C_5  and  C_7 
REMARK    5  A    between atoms: C_6  and  C_8 
REMARK    6  A    between atoms: C_7  and  C_9 
REMARK    7  A    between atoms: C_9  and  C_14 
ROOT
HETATM    1  O   UNL     1     -52.785  47.263   8.755  1.00  0.00    -0.358 OA
HETATM    2  H   UNL     1     -52.594  46.400   9.066  1.00  0.00     0.217 HD
ENDROOT
BRANCH   1   3
HETATM    3  C   UNL     1     -53.078  48.257   9.641  1.00  0.00     0.099 A 
HETATM    4  C   UNL     1     -53.040  47.988  11.009  1.00  0.00     0.046 A 
HETATM    5  C   UNL     1     -53.339  48.996  11.926  1.00  0.00    -0.055 A 
HETATM    6  C   UNL     1     -53.676  50.273  11.475  1.00  0.00     0.010 A 
HETATM    7  C   UNL     1     -53.712  50.541  10.106  1.00  0.00     0.040 A 
HETATM    8  C   UNL     1     -53.414  49.533   9.190  1.00  0.00     0.098 A 
BRANCH   5   9
HETATM    9  C   UNL     1     -53.300  48.705  13.405  1.00  0.00     0.038 C 
BRANCH   9  10
HETATM   10  C   UNL     1     -52.238  47.675  13.808  1.00  0.00     0.005 C 
BRANCH  10  11
HETATM   11  C   UNL     1     -51.332  48.163  14.947  1.00  0.00     0.011 C 
BRANCH  11  12
HETATM   12  C   UNL     1     -50.266  47.134  15.324  1.00  0.00     0.113 C 
BRANCH  12  13
HETATM   13  C   UNL     1     -49.457  47.529  16.540  1.00  0.00     0.172 C 
HETATM   14  O   UNL     1     -48.522  48.465  16.231  1.00  0.00    -0.648 OA
HETATM   15  O   UNL     1     -49.616  47.094  17.672  1.00  0.00    -0.648 OA
ENDBRANCH  12  13
ENDBRANCH  11  12
ENDBRANCH  10  11
ENDBRANCH   9  10
ENDBRANCH   5   9
BRANCH   8  16
HETATM   16  O   UNL     1     -53.454  49.807   7.855  1.00  0.00    -0.358 OA
HETATM   17  H   UNL     1     -53.515  50.694   7.561  1.00  0.00     0.217 HD
ENDBRANCH   8  16
ENDBRANCH   1   3
TORSDOF 7
ENDMDL
MODEL 8
REMARK VINA RESULT:      -6.1      1.977      6.468
REMARK  7 active torsions:
REMARK  status: ('A' for Active; 'I' for Inactive)
REMARK    1  A    between atoms: O_1  and  C_12 
REMARK    2  A    between atoms: O_3  and  C_15 
REMARK    3  A    between atoms: C_5  and  C_6 
REMARK    4  A    between atoms: C_5  and  C_7 
REMARK    5  A    between atoms: C_6  and  C_8 
REMARK    6  A    between atoms: C_7  and  C_9 
REMARK    7  A    between atoms: C_9  and  C_14 
ROOT
HETATM    1  O   UNL     1     -50.747  48.538  16.080  1.00  0.00    -0.358 OA
HETATM    2  H   UNL     1     -50.006  48.110  16.462  1.00  0.00     0.217 HD
ENDROOT
BRANCH   1   3
HETATM    3  C   UNL     1     -51.291  48.057  14.926  1.00  0.00     0.099 A 
HETATM    4  C   UNL     1     -52.275  48.798  14.272  1.00  0.00     0.046 A 
HETATM    5  C   UNL     1     -52.841  48.315  13.092  1.00  0.00    -0.055 A 
HETATM    6  C   UNL     1     -52.425  47.092  12.567  1.00  0.00     0.010 A 
HETATM    7  C   UNL     1     -51.440  46.351  13.222  1.00  0.00     0.040 A 
HETATM    8  C   UNL     1     -50.874  46.834  14.402  1.00  0.00     0.098 A 
BRANCH   5   9
HETATM    9  C   UNL     1     -53.906  49.116  12.385  1.00  0.00     0.038 C 
BRANCH   9  10
HETATM   10  C   UNL     1     -53.407  49.843  11.131  1.00  0.00     0.005 C 
BRANCH  10  11
HETATM   11  C   UNL     1     -54.053  49.324   9.840  1.00  0.00     0.011 C 
BRANCH  11  12
HETATM   12  C   UNL     1     -55.019  48.166  10.096  1.00  0.00     0.113 C 
BRANCH  12  13
HETATM   13  C   UNL     1     -55.058  47.159   8.969  1.00  0.00     0.172 C 
HETATM   14  O   UNL     1     -56.080  46.277   9.126  1.00  0.00    -0.648 OA
HETATM   15  O   UNL     1     -54.293  47.131   8.014  1.00  0.00    -0.648 OA
ENDBRANCH  12  13
ENDBRANCH  11  12
ENDBRANCH  10  11
ENDBRANCH   9  10
ENDBRANCH   5   9
BRANCH   8  16
HETATM   16  O   UNL     1     -49.914  46.102  15.033  1.00  0.00    -0.358 OA
HETATM   17  H   UNL     1     -49.008  46.304  14.901  1.00  0.00     0.217 HD
ENDBRANCH   8  16
ENDBRANCH   1   3
TORSDOF 7
ENDMDL
MODEL 9
REMARK VINA RESULT:      -6.0      4.048      5.375
REMARK  7 active torsions:
REMARK  status: ('A' for Active; 'I' for Inactive)
REMARK    1  A    between atoms: O_1  and  C_12 
REMARK    2  A    between atoms: O_3  and  C_15 
REMARK    3  A    between atoms: C_5  and  C_6 
REMARK    4  A    between atoms: C_5  and  C_7 
REMARK    5  A    between atoms: C_6  and  C_8 
REMARK    6  A    between atoms: C_7  and  C_9 
REMARK    7  A    between atoms: C_9  and  C_14 
ROOT
HETATM    1  O   UNL     1     -53.545  49.929   7.849  1.00  0.00    -0.358 OA
HETATM    2  H   UNL     1     -54.362  50.156   7.451  1.00  0.00     0.217 HD
ENDROOT
BRANCH   1   3
HETATM    3  C   UNL     1     -53.446  49.848   9.206  1.00  0.00     0.099 A 
HETATM    4  C   UNL     1     -53.168  48.618   9.801  1.00  0.00     0.046 A 
HETATM    5  C   UNL     1     -53.067  48.521  11.189  1.00  0.00    -0.055 A 
HETATM    6  C   UNL     1     -53.244  49.656  11.982  1.00  0.00     0.010 A 
HETATM    7  C   UNL     1     -53.521  50.886  11.386  1.00  0.00     0.040 A 
HETATM    8  C   UNL     1     -53.623  50.982   9.998  1.00  0.00     0.098 A 
BRANCH   5   9
HETATM    9  C   UNL     1     -52.767  47.190  11.832  1.00  0.00     0.038 C 
BRANCH   9  10
HETATM   10  C   UNL     1     -51.898  46.267  10.973  1.00  0.00     0.005 C 
BRANCH  10  11
HETATM   11  C   UNL     1     -52.524  44.882  10.760  1.00  0.00     0.011 C 
BRANCH  11  12
HETATM   12  C   UNL     1     -53.523  44.865   9.603  1.00  0.00     0.113 C 
BRANCH  12  13
HETATM   13  C   UNL     1     -53.813  43.476   9.082  1.00  0.00     0.172 C 
HETATM   14  O   UNL     1     -52.811  43.027   8.282  1.00  0.00    -0.648 OA
HETATM   15  O   UNL     1     -54.804  42.810   9.347  1.00  0.00    -0.648 OA
ENDBRANCH  12  13
ENDBRANCH  11  12
ENDBRANCH  10  11
ENDBRANCH   9  10
ENDBRANCH   5   9
BRANCH   8  16
HETATM   16  O   UNL     1     -53.895  52.189   9.428  1.00  0.00    -0.358 OA
HETATM   17  H   UNL     1     -54.618  52.276   8.838  1.00  0.00     0.217 HD
ENDBRANCH   8  16
ENDBRANCH   1   3
TORSDOF 7
ENDMDL
