MODEL 1
REMARK VINA RESULT:     -22.2      0.000      0.000
REMARK  4 active torsions:
REMARK  status: ('A' for Active; 'I' for Inactive)
REMARK    1  A    between atoms: O_1  and  C_9 
REMARK    2  A    between atoms: O_2  and  C_10 
REMARK    3  A    between atoms: C_3  and  C_5 
REMARK    4  A    between atoms: C_4  and  C_8 
ROOT
HETATM    1  O   UNL     1     -54.245  50.014   8.383  1.00  0.00    -0.358 OA
HETATM    2  H   UNL     1     -54.544  50.588   7.705  1.00  0.00     0.217 HD
ENDROOT
BRANCH   1   3
HETATM    3  C   UNL     1     -54.060  50.490   9.646  1.00  0.00     0.099 A 
HETATM    4  C   UNL     1     -53.841  49.592  10.691  1.00  0.00     0.050 A 
HETATM    5  C   UNL     1     -53.654  50.080  11.975  1.00  0.00    -0.033 A 
HETATM    6  C   UNL     1     -53.681  51.438  12.242  1.00  0.00     0.014 A 
HETATM    7  C   UNL     1     -53.901  52.336  11.196  1.00  0.00     0.040 A 
HETATM    8  C   UNL     1     -54.090  51.861   9.899  1.00  0.00     0.098 A 
BRANCH   5   9
HETATM    9  C   UNL     1     -53.421  49.132  13.080  1.00  0.00     0.012 C 
HETATM   10  C   UNL     1     -52.931  49.461  14.298  1.00  0.00     0.012 C 
BRANCH  10  11
HETATM   11  C   UNL     1     -52.720  48.528  15.396  1.00  0.00    -0.036 A 
HETATM   12  C   UNL     1     -51.426  48.152  15.752  1.00  0.00     0.011 A 
HETATM   13  C   UNL     1     -51.223  47.259  16.804  1.00  0.00     0.001 A 
HETATM   14  C   UNL     1     -52.316  46.742  17.499  1.00  0.00     0.000 A 
HETATM   15  C   UNL     1     -53.611  47.119  17.143  1.00  0.00     0.001 A 
HETATM   16  C   UNL     1     -53.813  48.012  16.091  1.00  0.00     0.011 A 
ENDBRANCH  10  11
ENDBRANCH   5   9
BRANCH   8  17
HETATM   17  O   UNL     1     -54.305  52.747   8.887  1.00  0.00    -0.358 OA
HETATM   18  H   UNL     1     -54.796  52.486   8.132  1.00  0.00     0.217 HD
ENDBRANCH   8  17
ENDBRANCH   1   3
TORSDOF 4
ENDMDL
MODEL 2
REMARK VINA RESULT:     -22.2      0.015      1.208
REMARK  4 active torsions:
REMARK  status: ('A' for Active; 'I' for Inactive)
REMARK    1  A    between atoms: O_1  and  C_9 
REMARK    2  A    between atoms: O_2  and  C_10 
REMARK    3  A    between atoms: C_3  and  C_5 
REMARK    4  A    between atoms: C_4  and  C_8 
ROOT
HETATM    1  O   UNL     1     -54.236  50.026   8.377  1.00  0.00    -0.358 OA
HETATM    2  H   UNL     1     -54.654  49.198   8.242  1.00  0.00     0.217 HD
ENDROOT
BRANCH   1   3
HETATM    3  C   UNL     1     -54.054  50.499   9.642  1.00  0.00     0.099 A 
HETATM    4  C   UNL     1     -53.829  49.599  10.684  1.00  0.00     0.050 A 
HETATM    5  C   UNL     1     -53.645  50.084  11.969  1.00  0.00    -0.033 A 
HETATM    6  C   UNL     1     -53.681  51.441  12.240  1.00  0.00     0.014 A 
HETATM    7  C   UNL     1     -53.906  52.341  11.197  1.00  0.00     0.040 A 
HETATM    8  C   UNL     1     -54.093  51.869   9.899  1.00  0.00     0.098 A 
BRANCH   5   9
HETATM    9  C   UNL     1     -53.406  49.134  13.071  1.00  0.00     0.012 C 
HETATM   10  C   UNL     1     -52.933  49.464  14.296  1.00  0.00     0.012 C 
BRANCH  10  11
HETATM   11  C   UNL     1     -52.715  48.530  15.390  1.00  0.00    -0.036 A 
HETATM   12  C   UNL     1     -53.802  48.015  16.094  1.00  0.00     0.011 A 
HETATM   13  C   UNL     1     -53.594  47.119  17.143  1.00  0.00     0.001 A 
HETATM   14  C   UNL     1     -52.297  46.738  17.486  1.00  0.00     0.000 A 
HETATM   15  C   UNL     1     -51.209  47.252  16.781  1.00  0.00     0.001 A 
HETATM   16  C   UNL     1     -51.418  48.148  15.732  1.00  0.00     0.011 A 
ENDBRANCH  10  11
ENDBRANCH   5   9
BRANCH   8  17
HETATM   17  O   UNL     1     -54.314  52.757   8.889  1.00  0.00    -0.358 OA
HETATM   18  H   UNL     1     -53.592  53.203   8.491  1.00  0.00     0.217 HD
ENDBRANCH   8  17
ENDBRANCH   1   3
TORSDOF 4
ENDMDL
MODEL 3
REMARK VINA RESULT:     -22.2      3.520      5.423
REMARK  4 active torsions:
REMARK  status: ('A' for Active; 'I' for Inactive)
REMARK    1  A    between atoms: O_1  and  C_9 
REMARK    2  A    between atoms: O_2  and  C_10 
REMARK    3  A    between atoms: C_3  and  C_5 
REMARK    4  A    between atoms: C_4  and  C_8 
ROOT
HETATM    1  O   UNL     1     -52.175  48.261   4.458  1.00  0.00    -0.358 OA
HETATM    2  H   UNL     1     -52.121  47.753   3.672  1.00  0.00     0.217 HD
ENDROOT
BRANCH   1   3
HETATM    3  C   UNL     1     -52.735  47.725   5.578  1.00  0.00     0.099 A 
HETATM    4  C   UNL     1     -52.747  48.465   6.760  1.00  0.00     0.050 A 
HETATM    5  C   UNL     1     -53.317  47.916   7.898  1.00  0.00    -0.033 A 
HETATM    6  C   UNL     1     -53.875  46.648   7.885  1.00  0.00     0.014 A 
HETATM    7  C   UNL     1     -53.864  45.908   6.702  1.00  0.00     0.040 A 
HETATM    8  C   UNL     1     -53.294  46.447   5.550  1.00  0.00     0.098 A 
BRANCH   5   9
HETATM    9  C   UNL     1     -53.330  48.698   9.147  1.00  0.00     0.012 C 
HETATM   10  C   UNL     1     -53.366  48.173  10.395  1.00  0.00     0.012 C 
BRANCH  10  11
HETATM   11  C   UNL     1     -53.360  48.944  11.629  1.00  0.00    -0.036 A 
HETATM   12  C   UNL     1     -53.023  48.330  12.834  1.00  0.00     0.011 A 
HETATM   13  C   UNL     1     -53.016  49.069  14.017  1.00  0.00     0.001 A 
HETATM   14  C   UNL     1     -53.347  50.424  13.993  1.00  0.00     0.000 A 
HETATM   15  C   UNL     1     -53.684  51.039  12.787  1.00  0.00     0.001 A 
HETATM   16  C   UNL     1     -53.690  50.299  11.605  1.00  0.00     0.011 A 
ENDBRANCH  10  11
ENDBRANCH   5   9
BRANCH   8  17
HETATM   17  O   UNL     1     -53.287  45.714   4.401  1.00  0.00    -0.358 OA
HETATM   18  H   UNL     1     -53.953  45.071   4.252  1.00  0.00     0.217 HD
ENDBRANCH   8  17
ENDBRANCH   1   3
TORSDOF 4
ENDMDL
MODEL 4
REMARK VINA RESULT:     -21.8      3.742      7.229
REMARK  4 active torsions:
REMARK  status: ('A' for Active; 'I' for Inactive)
REMARK    1  A    between atoms: O_1  and  C_9 
REMARK    2  A    between atoms: O_2  and  C_10 
REMARK    3  A    between atoms: C_3  and  C_5 
REMARK    4  A    between atoms: C_4  and  C_8 
ROOT
HETATM    1  O   UNL     1     -50.043  46.811  16.998  1.00  0.00    -0.358 OA
HETATM    2  H   UNL     1     -49.928  46.013  17.476  1.00  0.00     0.217 HD
ENDROOT
BRANCH   1   3
HETATM    3  C   UNL     1     -51.297  47.242  16.683  1.00  0.00     0.099 A 
HETATM    4  C   UNL     1     -51.465  48.166  15.653  1.00  0.00     0.050 A 
HETATM    5  C   UNL     1     -52.741  48.603  15.336  1.00  0.00    -0.033 A 
HETATM    6  C   UNL     1     -53.853  48.141  16.021  1.00  0.00     0.014 A 
HETATM    7  C   UNL     1     -53.684  47.216  17.053  1.00  0.00     0.040 A 
HETATM    8  C   UNL     1     -52.406  46.767  17.383  1.00  0.00     0.098 A 
BRANCH   5   9
HETATM    9  C   UNL     1     -52.921  49.579  14.246  1.00  0.00     0.012 C 
HETATM   10  C   UNL     1     -53.478  49.309  13.042  1.00  0.00     0.012 C 
BRANCH  10  11
HETATM   11  C   UNL     1     -53.673  50.278  11.973  1.00  0.00    -0.036 A 
HETATM   12  C   UNL     1     -53.674  51.642  12.259  1.00  0.00     0.011 A 
HETATM   13  C   UNL     1     -53.861  52.570  11.235  1.00  0.00     0.001 A 
HETATM   14  C   UNL     1     -54.046  52.132   9.923  1.00  0.00     0.000 A 
HETATM   15  C   UNL     1     -54.044  50.767   9.636  1.00  0.00     0.001 A 
HETATM   16  C   UNL     1     -53.857  49.839  10.661  1.00  0.00     0.011 A 
ENDBRANCH  10  11
ENDBRANCH   5   9
BRANCH   8  17
HETATM   17  O   UNL     1     -52.254  45.866  18.393  1.00  0.00    -0.358 OA
HETATM   18  H   UNL     1     -52.809  45.909  19.147  1.00  0.00     0.217 HD
ENDBRANCH   8  17
ENDBRANCH   1   3
TORSDOF 4
ENDMDL
MODEL 5
REMARK VINA RESULT:     -21.8      3.796      5.668
REMARK  4 active torsions:
REMARK  status: ('A' for Active; 'I' for Inactive)
REMARK    1  A    between atoms: O_1  and  C_9 
REMARK    2  A    between atoms: O_2  and  C_10 
REMARK    3  A    between atoms: C_3  and  C_5 
REMARK    4  A    between atoms: C_4  and  C_8 
ROOT
HETATM    1  O   UNL     1     -52.185  44.139   6.462  1.00  0.00    -0.358 OA
HETATM    2  H   UNL     1     -51.579  43.747   7.059  1.00  0.00     0.217 HD
ENDROOT
BRANCH   1   3
HETATM    3  C   UNL     1     -52.645  45.402   6.688  1.00  0.00     0.099 A 
HETATM    4  C   UNL     1     -52.544  45.948   7.968  1.00  0.00     0.050 A 
HETATM    5  C   UNL     1     -53.013  47.232   8.195  1.00  0.00    -0.033 A 
HETATM    6  C   UNL     1     -53.581  47.983   7.179  1.00  0.00     0.014 A 
HETATM    7  C   UNL     1     -53.682  47.436   5.899  1.00  0.00     0.040 A 
HETATM    8  C   UNL     1     -53.214  46.145   5.655  1.00  0.00     0.098 A 
BRANCH   5   9
HETATM    9  C   UNL     1     -52.906  47.811   9.546  1.00  0.00     0.012 C 
HETATM   10  C   UNL     1     -53.655  48.836  10.017  1.00  0.00     0.012 C 
BRANCH  10  11
HETATM   11  C   UNL     1     -53.563  49.394  11.358  1.00  0.00    -0.036 A 
HETATM   12  C   UNL     1     -53.769  50.757  11.562  1.00  0.00     0.011 A 
HETATM   13  C   UNL     1     -53.681  51.293  12.847  1.00  0.00     0.001 A 
HETATM   14  C   UNL     1     -53.386  50.463  13.928  1.00  0.00     0.000 A 
HETATM   15  C   UNL     1     -53.179  49.098  13.725  1.00  0.00     0.001 A 
HETATM   16  C   UNL     1     -53.268  48.563  12.440  1.00  0.00     0.011 A 
ENDBRANCH  10  11
ENDBRANCH   5   9
BRANCH   8  17
HETATM   17  O   UNL     1     -53.320  45.622   4.402  1.00  0.00    -0.358 OA
HETATM   18  H   UNL     1     -52.614  45.716   3.793  1.00  0.00     0.217 HD
ENDBRANCH   8  17
ENDBRANCH   1   3
TORSDOF 4
ENDMDL
MODEL 6
REMARK VINA RESULT:     -21.6      0.723      1.715
REMARK  4 active torsions:
REMARK  status: ('A' for Active; 'I' for Inactive)
REMARK    1  A    between atoms: O_1  and  C_9 
REMARK    2  A    between atoms: O_2  and  C_10 
REMARK    3  A    between atoms: C_3  and  C_5 
REMARK    4  A    between atoms: C_4  and  C_8 
ROOT
HETATM    1  O   UNL     1     -53.973  53.649  11.581  1.00  0.00    -0.358 OA
HETATM    2  H   UNL     1     -54.675  54.164  11.231  1.00  0.00     0.217 HD
ENDROOT
BRANCH   1   3
HETATM    3  C   UNL     1     -53.897  52.319  11.296  1.00  0.00     0.099 A 
HETATM    4  C   UNL     1     -53.643  51.411  12.324  1.00  0.00     0.050 A 
HETATM    5  C   UNL     1     -53.565  50.060  12.030  1.00  0.00    -0.033 A 
HETATM    6  C   UNL     1     -53.734  49.591  10.738  1.00  0.00     0.014 A 
HETATM    7  C   UNL     1     -53.987  50.499   9.709  1.00  0.00     0.040 A 
HETATM    8  C   UNL     1     -54.069  51.863   9.989  1.00  0.00     0.098 A 
BRANCH   5   9
HETATM    9  C   UNL     1     -53.299  49.099  13.116  1.00  0.00     0.012 C 
HETATM   10  C   UNL     1     -52.907  49.429  14.370  1.00  0.00     0.012 C 
BRANCH  10  11
HETATM   11  C   UNL     1     -52.663  48.482  15.448  1.00  0.00    -0.036 A 
HETATM   12  C   UNL     1     -51.357  48.129  15.784  1.00  0.00     0.011 A 
HETATM   13  C   UNL     1     -51.123  47.222  16.818  1.00  0.00     0.001 A 
HETATM   14  C   UNL     1     -52.197  46.668  17.514  1.00  0.00     0.000 A 
HETATM   15  C   UNL     1     -53.504  47.021  17.178  1.00  0.00     0.001 A 
HETATM   16  C   UNL     1     -53.737  47.929  16.145  1.00  0.00     0.011 A 
ENDBRANCH  10  11
ENDBRANCH   5   9
BRANCH   8  17
HETATM   17  O   UNL     1     -54.315  52.740   8.976  1.00  0.00    -0.358 OA
HETATM   18  H   UNL     1     -53.726  53.452   8.820  1.00  0.00     0.217 HD
ENDBRANCH   8  17
ENDBRANCH   1   3
TORSDOF 4
ENDMDL
MODEL 7
REMARK VINA RESULT:     -21.2      3.857      7.280
REMARK  4 active torsions:
REMARK  status: ('A' for Active; 'I' for Inactive)
REMARK    1  A    between atoms: O_1  and  C_9 
REMARK    2  A    between atoms: O_2  and  C_10 
REMARK    3  A    between atoms: C_3  and  C_5 
REMARK    4  A    between atoms: C_4  and  C_8 
ROOT
HETATM    1  O   UNL     1     -54.155  47.119  18.129  1.00  0.00    -0.358 OA
HETATM    2  H   UNL     1     -55.052  47.200  17.872  1.00  0.00     0.217 HD
ENDROOT
BRANCH   1   3
HETATM    3  C   UNL     1     -53.173  47.119  17.184  1.00  0.00     0.099 A 
HETATM    4  C   UNL     1     -53.399  47.749  15.961  1.00  0.00     0.050 A 
HETATM    5  C   UNL     1     -52.398  47.746  15.002  1.00  0.00    -0.033 A 
HETATM    6  C   UNL     1     -51.179  47.131  15.233  1.00  0.00     0.014 A 
HETATM    7  C   UNL     1     -50.953  46.501  16.458  1.00  0.00     0.040 A 
HETATM    8  C   UNL     1     -51.950  46.495  17.432  1.00  0.00     0.098 A 
BRANCH   5   9
HETATM    9  C   UNL     1     -52.636  48.413  13.709  1.00  0.00     0.012 C 
HETATM   10  C   UNL     1     -53.438  49.487  13.522  1.00  0.00     0.012 C 
BRANCH  10  11
HETATM   11  C   UNL     1     -53.657  50.158  12.249  1.00  0.00    -0.036 A 
HETATM   12  C   UNL     1     -53.844  49.408  11.089  1.00  0.00     0.011 A 
HETATM   13  C   UNL     1     -54.054  50.051   9.868  1.00  0.00     0.001 A 
HETATM   14  C   UNL     1     -54.077  51.444   9.810  1.00  0.00     0.000 A 
HETATM   15  C   UNL     1     -53.891  52.195  10.971  1.00  0.00     0.001 A 
HETATM   16  C   UNL     1     -53.681  51.551  12.191  1.00  0.00     0.011 A 
ENDBRANCH  10  11
ENDBRANCH   5   9
BRANCH   8  17
HETATM   17  O   UNL     1     -51.718  45.875  18.623  1.00  0.00    -0.358 OA
HETATM   18  H   UNL     1     -52.239  45.137  18.877  1.00  0.00     0.217 HD
ENDBRANCH   8  17
ENDBRANCH   1   3
TORSDOF 4
ENDMDL
MODEL 8
REMARK VINA RESULT:     -21.0      3.268      4.913
REMARK  4 active torsions:
REMARK  status: ('A' for Active; 'I' for Inactive)
REMARK    1  A    between atoms: O_1  and  C_9 
REMARK    2  A    between atoms: O_2  and  C_10 
REMARK    3  A    between atoms: C_3  and  C_5 
REMARK    4  A    between atoms: C_4  and  C_8 
ROOT
HETATM    1  O   UNL     1     -54.866  45.182   6.849  1.00  0.00    -0.358 OA
HETATM    2  H   UNL     1     -54.679  44.403   7.336  1.00  0.00     0.217 HD
ENDROOT
BRANCH   1   3
HETATM    3  C   UNL     1     -54.093  46.291   7.017  1.00  0.00     0.099 A 
HETATM    4  C   UNL     1     -54.083  46.939   8.251  1.00  0.00     0.050 A 
HETATM    5  C   UNL     1     -53.296  48.068   8.418  1.00  0.00    -0.033 A 
HETATM    6  C   UNL     1     -52.520  48.566   7.384  1.00  0.00     0.014 A 
HETATM    7  C   UNL     1     -52.531  47.917   6.148  1.00  0.00     0.040 A 
HETATM    8  C   UNL     1     -53.318  46.780   5.966  1.00  0.00     0.098 A 
BRANCH   5   9
HETATM    9  C   UNL     1     -53.283  48.753   9.723  1.00  0.00     0.012 C 
HETATM   10  C   UNL     1     -53.224  48.136  10.927  1.00  0.00     0.012 C 
BRANCH  10  11
HETATM   11  C   UNL     1     -53.191  48.812  12.215  1.00  0.00    -0.036 A 
HETATM   12  C   UNL     1     -53.554  50.155  12.307  1.00  0.00     0.011 A 
HETATM   13  C   UNL     1     -53.523  50.804  13.541  1.00  0.00     0.001 A 
HETATM   14  C   UNL     1     -53.129  50.108  14.684  1.00  0.00     0.000 A 
HETATM   15  C   UNL     1     -52.766  48.764  14.593  1.00  0.00     0.001 A 
HETATM   16  C   UNL     1     -52.798  48.116  13.358  1.00  0.00     0.011 A 
ENDBRANCH  10  11
ENDBRANCH   5   9
BRANCH   8  17
HETATM   17  O   UNL     1     -53.321  46.157   4.754  1.00  0.00    -0.358 OA
HETATM   18  H   UNL     1     -52.578  45.654   4.484  1.00  0.00     0.217 HD
ENDBRANCH   8  17
ENDBRANCH   1   3
TORSDOF 4
ENDMDL
MODEL 9
REMARK VINA RESULT:     -20.7      3.765      7.147
REMARK  4 active torsions:
REMARK  status: ('A' for Active; 'I' for Inactive)
REMARK    1  A    between atoms: O_1  and  C_9 
REMARK    2  A    between atoms: O_2  and  C_10 
REMARK    3  A    between atoms: C_3  and  C_5 
REMARK    4  A    between atoms: C_4  and  C_8 
ROOT
HETATM    1  O   UNL     1     -51.613  44.167  15.438  1.00  0.00    -0.358 OA
HETATM    2  H   UNL     1     -51.666  43.679  14.640  1.00  0.00     0.217 HD
ENDROOT
BRANCH   1   3
HETATM    3  C   UNL     1     -51.997  45.474  15.462  1.00  0.00     0.099 A 
HETATM    4  C   UNL     1     -52.222  46.145  14.261  1.00  0.00     0.050 A 
HETATM    5  C   UNL     1     -52.611  47.475  14.289  1.00  0.00    -0.033 A 
HETATM    6  C   UNL     1     -52.782  48.151  15.486  1.00  0.00     0.014 A 
HETATM    7  C   UNL     1     -52.557  47.480  16.688  1.00  0.00     0.040 A 
HETATM    8  C   UNL     1     -52.165  46.141  16.676  1.00  0.00     0.098 A 
BRANCH   5   9
HETATM    9  C   UNL     1     -52.850  48.185  13.020  1.00  0.00     0.012 C 
HETATM   10  C   UNL     1     -53.472  49.382  12.900  1.00  0.00     0.012 C 
BRANCH  10  11
HETATM   11  C   UNL     1     -53.690  50.092  11.649  1.00  0.00    -0.036 A 
HETATM   12  C   UNL     1     -53.707  51.485  11.631  1.00  0.00     0.011 A 
HETATM   13  C   UNL     1     -53.916  52.166  10.432  1.00  0.00     0.001 A 
HETATM   14  C   UNL     1     -54.107  51.451   9.250  1.00  0.00     0.000 A 
HETATM   15  C   UNL     1     -54.090  50.056   9.267  1.00  0.00     0.001 A 
HETATM   16  C   UNL     1     -53.881  49.376  10.467  1.00  0.00     0.011 A 
ENDBRANCH  10  11
ENDBRANCH   5   9
BRANCH   8  17
HETATM   17  O   UNL     1     -51.946  45.497  17.856  1.00  0.00    -0.358 OA
HETATM   18  H   UNL     1     -51.264  44.858  17.921  1.00  0.00     0.217 HD
ENDBRANCH   8  17
ENDBRANCH   1   3
TORSDOF 4
ENDMDL
