MODEL 1
REMARK VINA RESULT:      -8.1      0.000      0.000
REMARK  7 active torsions:
REMARK  status: ('A' for Active; 'I' for Inactive)
REMARK    1  A    between atoms: O_5  and  C_13 
REMARK    2  A    between atoms: O_5  and  C_14 
REMARK    3  A    between atoms: O_6  and  C_15 
REMARK    4  A    between atoms: O_6  and  C_22 
REMARK       I    between atoms: N_8  and  C_20 
REMARK    5  A    between atoms: N_8  and  C_21 
REMARK    6  A    between atoms: C_10  and  C_13 
REMARK    7  A    between atoms: C_17  and  C_20 
ROOT
ATOM      1 CL   UNL A   1      33.802  72.337  17.687  1.00  0.00    -0.080 Cl
ATOM      2 CL   UNL A   1      33.251  71.650  23.085  1.00  0.00    -0.080 Cl
ATOM      3  N   UNL A   1      34.283  69.224  20.111  1.00  0.00    -0.270 NA
ATOM      4  C   UNL A   1      33.554  71.893  20.376  1.00  0.00     0.081 A 
ATOM      5  C   UNL A   1      33.854  71.389  19.124  1.00  0.00     0.080 A 
ATOM      6  C   UNL A   1      33.611  71.087  21.498  1.00  0.00     0.080 A 
ATOM      7  C   UNL A   1      34.211  70.053  19.045  1.00  0.00     0.142 A 
ATOM      8  C   UNL A   1      33.980  69.764  21.313  1.00  0.00     0.142 A 
ENDROOT
BRANCH   4   9
ATOM      9  N   UNL A   1      33.183  73.253  20.512  1.00  0.00    -0.320 N 
ATOM     10  C   UNL A   1      31.900  73.816  20.484  1.00  0.00     0.256 C 
ATOM     11  O   UNL A   1      30.845  73.178  20.329  1.00  0.00    -0.267 OA
ATOM     12  H   UNL A   1      33.925  73.887  20.643  1.00  0.00     0.169 HD
BRANCH  10  13
ATOM     13  C   UNL A   1      31.837  75.262  20.625  1.00  0.00     0.035 A 
ATOM     14  C   UNL A   1      31.382  76.047  19.565  1.00  0.00     0.056 A 
ATOM     15  C   UNL A   1      31.323  77.434  19.700  1.00  0.00     0.103 A 
ATOM     16  C   UNL A   1      31.719  78.036  20.894  1.00  0.00     0.108 A 
ATOM     17  C   UNL A   1      32.173  77.251  21.954  1.00  0.00     0.041 A 
ATOM     18  C   UNL A   1      32.232  75.864  21.819  1.00  0.00     0.020 A 
BRANCH  15  19
ATOM     19  O   UNL A   1      30.879  78.190  18.659  1.00  0.00    -0.348 OA
BRANCH  19  20
ATOM     20  C   UNL A   1      30.609  77.512  17.433  1.00  0.00     0.180 C 
BRANCH  20  21
ATOM     21  C   UNL A   1      30.980  78.388  16.287  1.00  0.00     0.010 A 
ATOM     22  C   UNL A   1      32.422  78.722  16.063  1.00  0.00     0.007 A 
ATOM     23  C   UNL A   1      31.711  77.793  15.124  1.00  0.00     0.007 A 
ENDBRANCH  20  21
ENDBRANCH  19  20
ENDBRANCH  15  19
BRANCH  16  24
ATOM     24  O   UNL A   1      31.664  79.389  21.039  1.00  0.00    -0.287 OA
BRANCH  24  25
ATOM     25  C   UNL A   1      31.467  79.899  22.352  1.00  0.00     0.505 C 
ATOM     26  F   UNL A   1      31.821  81.210  22.340  1.00  0.00    -0.184 F 
ATOM     27  F   UNL A   1      30.145  79.859  22.650  1.00  0.00    -0.184 F 
ENDBRANCH  24  25
ENDBRANCH  16  24
ENDBRANCH  10  13
ENDBRANCH   4   9
TORSDOF 7
ENDMDL
MODEL 2
REMARK VINA RESULT:      -8.1      0.526      1.945
REMARK  7 active torsions:
REMARK  status: ('A' for Active; 'I' for Inactive)
REMARK    1  A    between atoms: O_5  and  C_13 
REMARK    2  A    between atoms: O_5  and  C_14 
REMARK    3  A    between atoms: O_6  and  C_15 
REMARK    4  A    between atoms: O_6  and  C_22 
REMARK       I    between atoms: N_8  and  C_20 
REMARK    5  A    between atoms: N_8  and  C_21 
REMARK    6  A    between atoms: C_10  and  C_13 
REMARK    7  A    between atoms: C_17  and  C_20 
ROOT
ATOM      1 CL   UNL A   1      33.351  71.615  23.201  1.00  0.00    -0.080 Cl
ATOM      2 CL   UNL A   1      33.494  72.177  17.763  1.00  0.00    -0.080 Cl
ATOM      3  N   UNL A   1      34.128  69.113  20.213  1.00  0.00    -0.270 NA
ATOM      4  C   UNL A   1      33.448  71.795  20.473  1.00  0.00     0.081 A 
ATOM      5  C   UNL A   1      33.583  71.014  21.605  1.00  0.00     0.080 A 
ATOM      6  C   UNL A   1      33.647  71.260  19.213  1.00  0.00     0.080 A 
ATOM      7  C   UNL A   1      33.924  69.683  21.422  1.00  0.00     0.142 A 
ATOM      8  C   UNL A   1      33.984  69.918  19.138  1.00  0.00     0.142 A 
ENDROOT
BRANCH   4   9
ATOM      9  N   UNL A   1      33.100  73.162  20.604  1.00  0.00    -0.320 N 
ATOM     10  C   UNL A   1      31.823  73.734  20.686  1.00  0.00     0.256 C 
ATOM     11  O   UNL A   1      30.755  73.101  20.654  1.00  0.00    -0.267 OA
ATOM     12  H   UNL A   1      33.855  73.793  20.643  1.00  0.00     0.169 HD
BRANCH  10  13
ATOM     13  C   UNL A   1      31.783  75.184  20.790  1.00  0.00     0.035 A 
ATOM     14  C   UNL A   1      31.529  75.958  19.657  1.00  0.00     0.056 A 
ATOM     15  C   UNL A   1      31.492  77.349  19.758  1.00  0.00     0.103 A 
ATOM     16  C   UNL A   1      31.708  77.965  20.990  1.00  0.00     0.108 A 
ATOM     17  C   UNL A   1      31.962  77.192  22.122  1.00  0.00     0.041 A 
ATOM     18  C   UNL A   1      31.999  75.801  22.022  1.00  0.00     0.020 A 
BRANCH  15  19
ATOM     19  O   UNL A   1      31.243  78.094  18.645  1.00  0.00    -0.348 OA
BRANCH  19  20
ATOM     20  C   UNL A   1      32.160  77.965  17.561  1.00  0.00     0.180 C 
BRANCH  20  21
ATOM     21  C   UNL A   1      31.406  77.865  16.280  1.00  0.00     0.010 A 
ATOM     22  C   UNL A   1      30.268  76.896  16.180  1.00  0.00     0.007 A 
ATOM     23  C   UNL A   1      29.998  78.370  16.223  1.00  0.00     0.007 A 
ENDBRANCH  20  21
ENDBRANCH  19  20
ENDBRANCH  15  19
BRANCH  16  24
ATOM     24  O   UNL A   1      31.672  79.323  21.101  1.00  0.00    -0.287 OA
BRANCH  24  25
ATOM     25  C   UNL A   1      31.414  79.867  22.389  1.00  0.00     0.505 C 
ATOM     26  F   UNL A   1      31.794  81.171  22.367  1.00  0.00    -0.184 F 
ATOM     27  F   UNL A   1      30.077  79.858  22.615  1.00  0.00    -0.184 F 
ENDBRANCH  24  25
ENDBRANCH  16  24
ENDBRANCH  10  13
ENDBRANCH   4   9
TORSDOF 7
ENDMDL
MODEL 3
REMARK VINA RESULT:      -7.8      2.527      4.048
REMARK  7 active torsions:
REMARK  status: ('A' for Active; 'I' for Inactive)
REMARK    1  A    between atoms: O_5  and  C_13 
REMARK    2  A    between atoms: O_5  and  C_14 
REMARK    3  A    between atoms: O_6  and  C_15 
REMARK    4  A    between atoms: O_6  and  C_22 
REMARK       I    between atoms: N_8  and  C_20 
REMARK    5  A    between atoms: N_8  and  C_21 
REMARK    6  A    between atoms: C_10  and  C_13 
REMARK    7  A    between atoms: C_17  and  C_20 
ROOT
ATOM      1 CL   UNL A   1      35.121  72.096  20.046  1.00  0.00    -0.080 Cl
ATOM      2 CL   UNL A   1      30.770  72.465  23.340  1.00  0.00    -0.080 Cl
ATOM      3  N   UNL A   1      33.814  69.920  23.104  1.00  0.00    -0.270 NA
ATOM      4  C   UNL A   1      32.977  72.195  21.744  1.00  0.00     0.081 A 
ATOM      5  C   UNL A   1      34.139  71.556  21.353  1.00  0.00     0.080 A 
ATOM      6  C   UNL A   1      32.226  71.717  22.802  1.00  0.00     0.080 A 
ATOM      7  C   UNL A   1      34.513  70.426  22.063  1.00  0.00     0.142 A 
ATOM      8  C   UNL A   1      32.686  70.581  23.447  1.00  0.00     0.142 A 
ENDROOT
BRANCH   4   9
ATOM      9  N   UNL A   1      32.551  73.355  21.051  1.00  0.00    -0.320 N 
ATOM     10  C   UNL A   1      32.747  74.699  21.397  1.00  0.00     0.256 C 
ATOM     11  O   UNL A   1      33.350  75.095  22.407  1.00  0.00    -0.267 OA
ATOM     12  H   UNL A   1      32.051  73.195  20.218  1.00  0.00     0.169 HD
BRANCH  10  13
ATOM     13  C   UNL A   1      32.163  75.678  20.493  1.00  0.00     0.035 A 
ATOM     14  C   UNL A   1      31.565  76.830  21.005  1.00  0.00     0.056 A 
ATOM     15  C   UNL A   1      31.004  77.768  20.138  1.00  0.00     0.103 A 
ATOM     16  C   UNL A   1      31.041  77.554  18.760  1.00  0.00     0.108 A 
ATOM     17  C   UNL A   1      31.639  76.402  18.248  1.00  0.00     0.041 A 
ATOM     18  C   UNL A   1      32.199  75.464  19.115  1.00  0.00     0.020 A 
BRANCH  15  19
ATOM     19  O   UNL A   1      30.423  78.889  20.648  1.00  0.00    -0.348 OA
BRANCH  19  20
ATOM     20  C   UNL A   1      30.289  78.961  22.066  1.00  0.00     0.180 C 
BRANCH  20  21
ATOM     21  C   UNL A   1      31.017  80.157  22.575  1.00  0.00     0.010 A 
ATOM     22  C   UNL A   1      32.398  79.987  23.127  1.00  0.00     0.007 A 
ATOM     23  C   UNL A   1      32.194  80.673  21.808  1.00  0.00     0.007 A 
ENDBRANCH  20  21
ENDBRANCH  19  20
ENDBRANCH  15  19
BRANCH  16  24
ATOM     24  O   UNL A   1      30.498  78.463  17.903  1.00  0.00    -0.287 OA
BRANCH  24  25
ATOM     25  C   UNL A   1      30.657  78.224  16.510  1.00  0.00     0.505 C 
ATOM     26  F   UNL A   1      29.464  78.479  15.912  1.00  0.00    -0.184 F 
ATOM     27  F   UNL A   1      31.540  79.119  16.004  1.00  0.00    -0.184 F 
ENDBRANCH  24  25
ENDBRANCH  16  24
ENDBRANCH  10  13
ENDBRANCH   4   9
TORSDOF 7
ENDMDL
MODEL 4
REMARK VINA RESULT:      -7.8      1.465      1.723
REMARK  7 active torsions:
REMARK  status: ('A' for Active; 'I' for Inactive)
REMARK    1  A    between atoms: O_5  and  C_13 
REMARK    2  A    between atoms: O_5  and  C_14 
REMARK    3  A    between atoms: O_6  and  C_15 
REMARK    4  A    between atoms: O_6  and  C_22 
REMARK       I    between atoms: N_8  and  C_20 
REMARK    5  A    between atoms: N_8  and  C_21 
REMARK    6  A    between atoms: C_10  and  C_13 
REMARK    7  A    between atoms: C_17  and  C_20 
ROOT
ATOM      1 CL   UNL A   1      35.907  72.510  19.907  1.00  0.00    -0.080 Cl
ATOM      2 CL   UNL A   1      30.733  71.947  18.226  1.00  0.00    -0.080 Cl
ATOM      3  N   UNL A   1      33.887  69.529  18.226  1.00  0.00    -0.270 NA
ATOM      4  C   UNL A   1      33.341  72.131  19.036  1.00  0.00     0.081 A 
ATOM      5  C   UNL A   1      34.612  71.616  19.207  1.00  0.00     0.080 A 
ATOM      6  C   UNL A   1      32.337  71.369  18.467  1.00  0.00     0.080 A 
ATOM      7  C   UNL A   1      34.834  70.315  18.786  1.00  0.00     0.142 A 
ATOM      8  C   UNL A   1      32.660  70.078  18.080  1.00  0.00     0.142 A 
ENDROOT
BRANCH   4   9
ATOM      9  N   UNL A   1      33.061  73.457  19.449  1.00  0.00    -0.320 N 
ATOM     10  C   UNL A   1      32.570  73.901  20.685  1.00  0.00     0.256 C 
ATOM     11  O   UNL A   1      32.293  73.166  21.647  1.00  0.00    -0.267 OA
ATOM     12  H   UNL A   1      33.236  74.158  18.781  1.00  0.00     0.169 HD
BRANCH  10  13
ATOM     13  C   UNL A   1      32.357  75.335  20.805  1.00  0.00     0.035 A 
ATOM     14  C   UNL A   1      32.035  76.089  19.677  1.00  0.00     0.056 A 
ATOM     15  C   UNL A   1      31.832  77.464  19.793  1.00  0.00     0.103 A 
ATOM     16  C   UNL A   1      31.952  78.085  21.036  1.00  0.00     0.108 A 
ATOM     17  C   UNL A   1      32.274  77.330  22.165  1.00  0.00     0.041 A 
ATOM     18  C   UNL A   1      32.477  75.955  22.049  1.00  0.00     0.020 A 
BRANCH  15  19
ATOM     19  O   UNL A   1      31.518  78.191  18.685  1.00  0.00    -0.348 OA
BRANCH  19  20
ATOM     20  C   UNL A   1      30.716  77.550  17.695  1.00  0.00     0.180 C 
BRANCH  20  21
ATOM     21  C   UNL A   1      30.993  78.153  16.361  1.00  0.00     0.010 A 
ATOM     22  C   UNL A   1      32.360  78.696  16.079  1.00  0.00     0.007 A 
ATOM     23  C   UNL A   1      31.899  77.433  15.413  1.00  0.00     0.007 A 
ENDBRANCH  20  21
ENDBRANCH  19  20
ENDBRANCH  15  19
BRANCH  16  24
ATOM     24  O   UNL A   1      31.755  79.427  21.162  1.00  0.00    -0.287 OA
BRANCH  24  25
ATOM     25  C   UNL A   1      31.365  79.912  22.441  1.00  0.00     0.505 C 
ATOM     26  F   UNL A   1      31.735  81.218  22.514  1.00  0.00    -0.184 F 
ATOM     27  F   UNL A   1      30.013  79.889  22.532  1.00  0.00    -0.184 F 
ENDBRANCH  24  25
ENDBRANCH  16  24
ENDBRANCH  10  13
ENDBRANCH   4   9
TORSDOF 7
ENDMDL
MODEL 5
REMARK VINA RESULT:      -7.8      1.551      1.617
REMARK  7 active torsions:
REMARK  status: ('A' for Active; 'I' for Inactive)
REMARK    1  A    between atoms: O_5  and  C_13 
REMARK    2  A    between atoms: O_5  and  C_14 
REMARK    3  A    between atoms: O_6  and  C_15 
REMARK    4  A    between atoms: O_6  and  C_22 
REMARK       I    between atoms: N_8  and  C_20 
REMARK    5  A    between atoms: N_8  and  C_21 
REMARK    6  A    between atoms: C_10  and  C_13 
REMARK    7  A    between atoms: C_17  and  C_20 
ROOT
ATOM      1 CL   UNL A   1      30.788  71.895  18.015  1.00  0.00    -0.080 Cl
ATOM      2 CL   UNL A   1      35.933  72.507  19.768  1.00  0.00    -0.080 Cl
ATOM      3  N   UNL A   1      33.970  69.514  18.039  1.00  0.00    -0.270 NA
ATOM      4  C   UNL A   1      33.382  72.103  18.860  1.00  0.00     0.081 A 
ATOM      5  C   UNL A   1      32.396  71.334  18.273  1.00  0.00     0.080 A 
ATOM      6  C   UNL A   1      34.658  71.602  19.045  1.00  0.00     0.080 A 
ATOM      7  C   UNL A   1      32.738  70.050  17.882  1.00  0.00     0.142 A 
ATOM      8  C   UNL A   1      34.900  70.307  18.618  1.00  0.00     0.142 A 
ENDROOT
BRANCH   4   9
ATOM      9  N   UNL A   1      33.083  73.424  19.279  1.00  0.00    -0.320 N 
ATOM     10  C   UNL A   1      32.774  73.883  20.566  1.00  0.00     0.256 C 
ATOM     11  O   UNL A   1      32.714  73.170  21.582  1.00  0.00    -0.267 OA
ATOM     12  H   UNL A   1      33.094  74.108  18.571  1.00  0.00     0.169 HD
BRANCH  10  13
ATOM     13  C   UNL A   1      32.484  75.303  20.681  1.00  0.00     0.035 A 
ATOM     14  C   UNL A   1      32.239  76.060  19.535  1.00  0.00     0.056 A 
ATOM     15  C   UNL A   1      31.961  77.423  19.646  1.00  0.00     0.103 A 
ATOM     16  C   UNL A   1      31.930  78.028  20.902  1.00  0.00     0.108 A 
ATOM     17  C   UNL A   1      32.175  77.272  22.048  1.00  0.00     0.041 A 
ATOM     18  C   UNL A   1      32.453  75.909  21.937  1.00  0.00     0.020 A 
BRANCH  15  19
ATOM     19  O   UNL A   1      31.723  78.152  18.521  1.00  0.00    -0.348 OA
BRANCH  19  20
ATOM     20  C   UNL A   1      30.656  77.717  17.681  1.00  0.00     0.180 C 
BRANCH  20  21
ATOM     21  C   UNL A   1      30.975  78.041  16.262  1.00  0.00     0.010 A 
ATOM     22  C   UNL A   1      32.283  78.695  15.942  1.00  0.00     0.007 A 
ATOM     23  C   UNL A   1      32.046  77.264  15.563  1.00  0.00     0.007 A 
ENDBRANCH  20  21
ENDBRANCH  19  20
ENDBRANCH  15  19
BRANCH  16  24
ATOM     24  O   UNL A   1      31.659  79.358  21.024  1.00  0.00    -0.287 OA
BRANCH  24  25
ATOM     25  C   UNL A   1      31.481  79.871  22.338  1.00  0.00     0.505 C 
ATOM     26  F   UNL A   1      31.865  81.174  22.324  1.00  0.00    -0.184 F 
ATOM     27  F   UNL A   1      30.161  79.861  22.645  1.00  0.00    -0.184 F 
ENDBRANCH  24  25
ENDBRANCH  16  24
ENDBRANCH  10  13
ENDBRANCH   4   9
TORSDOF 7
ENDMDL
MODEL 6
REMARK VINA RESULT:      -7.4      2.555      4.296
REMARK  7 active torsions:
REMARK  status: ('A' for Active; 'I' for Inactive)
REMARK    1  A    between atoms: O_5  and  C_13 
REMARK    2  A    between atoms: O_5  and  C_14 
REMARK    3  A    between atoms: O_6  and  C_15 
REMARK    4  A    between atoms: O_6  and  C_22 
REMARK       I    between atoms: N_8  and  C_20 
REMARK    5  A    between atoms: N_8  and  C_21 
REMARK    6  A    between atoms: C_10  and  C_13 
REMARK    7  A    between atoms: C_17  and  C_20 
ROOT
ATOM      1 CL   UNL A   1      30.720  73.025  22.965  1.00  0.00    -0.080 Cl
ATOM      2 CL   UNL A   1      35.089  72.285  19.760  1.00  0.00    -0.080 Cl
ATOM      3  N   UNL A   1      33.751  70.456  23.025  1.00  0.00    -0.270 NA
ATOM      4  C   UNL A   1      32.935  72.575  21.423  1.00  0.00     0.081 A 
ATOM      5  C   UNL A   1      32.174  72.218  22.521  1.00  0.00     0.080 A 
ATOM      6  C   UNL A   1      34.097  71.893  21.112  1.00  0.00     0.080 A 
ATOM      7  C   UNL A   1      32.624  71.155  23.288  1.00  0.00     0.142 A 
ATOM      8  C   UNL A   1      34.460  70.844  21.941  1.00  0.00     0.142 A 
ENDROOT
BRANCH   4   9
ATOM      9  N   UNL A   1      32.519  73.655  20.606  1.00  0.00    -0.320 N 
ATOM     10  C   UNL A   1      31.719  73.621  19.456  1.00  0.00     0.256 C 
ATOM     11  O   UNL A   1      31.231  72.594  18.956  1.00  0.00    -0.267 OA
ATOM     12  H   UNL A   1      32.833  74.546  20.883  1.00  0.00     0.169 HD
BRANCH  10  13
ATOM     13  C   UNL A   1      31.482  74.903  18.809  1.00  0.00     0.035 A 
ATOM     14  C   UNL A   1      31.530  76.080  19.556  1.00  0.00     0.056 A 
ATOM     15  C   UNL A   1      31.302  77.308  18.935  1.00  0.00     0.103 A 
ATOM     16  C   UNL A   1      31.026  77.359  17.569  1.00  0.00     0.108 A 
ATOM     17  C   UNL A   1      30.978  76.182  16.822  1.00  0.00     0.041 A 
ATOM     18  C   UNL A   1      31.206  74.954  17.443  1.00  0.00     0.020 A 
BRANCH  15  19
ATOM     19  O   UNL A   1      31.352  78.452  19.674  1.00  0.00    -0.348 OA
BRANCH  19  20
ATOM     20  C   UNL A   1      30.303  78.659  20.618  1.00  0.00     0.180 C 
BRANCH  20  21
ATOM     21  C   UNL A   1      30.887  78.875  21.972  1.00  0.00     0.010 A 
ATOM     22  C   UNL A   1      32.340  78.587  22.191  1.00  0.00     0.007 A 
ATOM     23  C   UNL A   1      31.849  80.004  22.177  1.00  0.00     0.007 A 
ENDBRANCH  20  21
ENDBRANCH  19  20
ENDBRANCH  15  19
BRANCH  16  24
ATOM     24  O   UNL A   1      30.803  78.553  16.952  1.00  0.00    -0.287 OA
BRANCH  24  25
ATOM     25  C   UNL A   1      31.726  78.951  15.946  1.00  0.00     0.505 C 
ATOM     26  F   UNL A   1      32.977  78.788  16.450  1.00  0.00    -0.184 F 
ATOM     27  F   UNL A   1      31.624  78.108  14.890  1.00  0.00    -0.184 F 
ENDBRANCH  24  25
ENDBRANCH  16  24
ENDBRANCH  10  13
ENDBRANCH   4   9
TORSDOF 7
ENDMDL
MODEL 7
REMARK VINA RESULT:      -7.4      3.735      6.422
REMARK  7 active torsions:
REMARK  status: ('A' for Active; 'I' for Inactive)
REMARK    1  A    between atoms: O_5  and  C_13 
REMARK    2  A    between atoms: O_5  and  C_14 
REMARK    3  A    between atoms: O_6  and  C_15 
REMARK    4  A    between atoms: O_6  and  C_22 
REMARK       I    between atoms: N_8  and  C_20 
REMARK    5  A    between atoms: N_8  and  C_21 
REMARK    6  A    between atoms: C_10  and  C_13 
REMARK    7  A    between atoms: C_17  and  C_20 
ROOT
ATOM      1 CL   UNL A   1      33.350  75.557  14.528  1.00  0.00    -0.080 Cl
ATOM      2 CL   UNL A   1      28.105  77.051  14.933  1.00  0.00    -0.080 Cl
ATOM      3  N   UNL A   1      30.337  75.687  11.940  1.00  0.00    -0.270 NA
ATOM      4  C   UNL A   1      30.714  76.282  14.629  1.00  0.00     0.081 A 
ATOM      5  C   UNL A   1      31.774  75.807  13.881  1.00  0.00     0.080 A 
ATOM      6  C   UNL A   1      29.468  76.465  14.058  1.00  0.00     0.080 A 
ATOM      7  C   UNL A   1      31.536  75.526  12.545  1.00  0.00     0.142 A 
ATOM      8  C   UNL A   1      29.332  76.154  12.715  1.00  0.00     0.142 A 
ENDROOT
BRANCH   4   9
ATOM      9  N   UNL A   1      30.905  76.584  16.000  1.00  0.00    -0.320 N 
ATOM     10  C   UNL A   1      30.919  75.707  17.094  1.00  0.00     0.256 C 
ATOM     11  O   UNL A   1      30.758  74.477  17.024  1.00  0.00    -0.267 OA
ATOM     12  H   UNL A   1      31.047  77.535  16.212  1.00  0.00     0.169 HD
BRANCH  10  13
ATOM     13  C   UNL A   1      31.114  76.322  18.398  1.00  0.00     0.035 A 
ATOM     14  C   UNL A   1      31.651  75.576  19.447  1.00  0.00     0.056 A 
ATOM     15  C   UNL A   1      31.836  76.166  20.697  1.00  0.00     0.103 A 
ATOM     16  C   UNL A   1      31.485  77.500  20.898  1.00  0.00     0.108 A 
ATOM     17  C   UNL A   1      30.948  78.246  19.849  1.00  0.00     0.041 A 
ATOM     18  C   UNL A   1      30.762  77.656  18.598  1.00  0.00     0.020 A 
BRANCH  15  19
ATOM     19  O   UNL A   1      32.361  75.428  21.715  1.00  0.00    -0.348 OA
BRANCH  19  20
ATOM     20  C   UNL A   1      32.332  74.010  21.569  1.00  0.00     0.180 C 
BRANCH  20  21
ATOM     21  C   UNL A   1      31.411  73.423  22.583  1.00  0.00     0.010 A 
ATOM     22  C   UNL A   1      30.352  74.290  23.191  1.00  0.00     0.007 A 
ATOM     23  C   UNL A   1      29.975  73.208  22.222  1.00  0.00     0.007 A 
ENDBRANCH  20  21
ENDBRANCH  19  20
ENDBRANCH  15  19
BRANCH  16  24
ATOM     24  O   UNL A   1      31.662  78.088  22.114  1.00  0.00    -0.287 OA
BRANCH  24  25
ATOM     25  C   UNL A   1      31.551  79.504  22.179  1.00  0.00     0.505 C 
ATOM     26  F   UNL A   1      30.455  79.795  22.928  1.00  0.00    -0.184 F 
ATOM     27  F   UNL A   1      32.619  80.005  22.846  1.00  0.00    -0.184 F 
ENDBRANCH  24  25
ENDBRANCH  16  24
ENDBRANCH  10  13
ENDBRANCH   4   9
TORSDOF 7
ENDMDL
MODEL 8
REMARK VINA RESULT:      -7.4      3.467      6.157
REMARK  7 active torsions:
REMARK  status: ('A' for Active; 'I' for Inactive)
REMARK    1  A    between atoms: O_5  and  C_13 
REMARK    2  A    between atoms: O_5  and  C_14 
REMARK    3  A    between atoms: O_6  and  C_15 
REMARK    4  A    between atoms: O_6  and  C_22 
REMARK       I    between atoms: N_8  and  C_20 
REMARK    5  A    between atoms: N_8  and  C_21 
REMARK    6  A    between atoms: C_10  and  C_13 
REMARK    7  A    between atoms: C_17  and  C_20 
ROOT
ATOM      1 CL   UNL A   1      28.983  73.036  16.598  1.00  0.00    -0.080 Cl
ATOM      2 CL   UNL A   1      30.920  77.538  14.172  1.00  0.00    -0.080 Cl
ATOM      3  N   UNL A   1      29.250  74.199  12.808  1.00  0.00    -0.270 NA
ATOM      4  C   UNL A   1      29.926  75.247  15.292  1.00  0.00     0.081 A 
ATOM      5  C   UNL A   1      29.334  74.000  15.216  1.00  0.00     0.080 A 
ATOM      6  C   UNL A   1      30.187  75.980  14.149  1.00  0.00     0.080 A 
ATOM      7  C   UNL A   1      29.017  73.522  13.955  1.00  0.00     0.142 A 
ATOM      8  C   UNL A   1      29.831  75.414  12.935  1.00  0.00     0.142 A 
ENDROOT
BRANCH   4   9
ATOM      9  N   UNL A   1      30.269  75.782  16.558  1.00  0.00    -0.320 N 
ATOM     10  C   UNL A   1      31.401  75.516  17.340  1.00  0.00     0.256 C 
ATOM     11  O   UNL A   1      32.316  74.735  17.029  1.00  0.00    -0.267 OA
ATOM     12  H   UNL A   1      29.628  76.426  16.938  1.00  0.00     0.169 HD
BRANCH  10  13
ATOM     13  C   UNL A   1      31.465  76.204  18.620  1.00  0.00     0.035 A 
ATOM     14  C   UNL A   1      32.141  75.621  19.692  1.00  0.00     0.056 A 
ATOM     15  C   UNL A   1      32.200  76.281  20.920  1.00  0.00     0.103 A 
ATOM     16  C   UNL A   1      31.584  77.523  21.075  1.00  0.00     0.108 A 
ATOM     17  C   UNL A   1      30.908  78.105  20.003  1.00  0.00     0.041 A 
ATOM     18  C   UNL A   1      30.849  77.445  18.775  1.00  0.00     0.020 A 
BRANCH  15  19
ATOM     19  O   UNL A   1      32.862  75.703  21.960  1.00  0.00    -0.348 OA
BRANCH  19  20
ATOM     20  C   UNL A   1      32.612  74.320  22.200  1.00  0.00     0.180 C 
BRANCH  20  21
ATOM     21  C   UNL A   1      33.905  73.580  22.252  1.00  0.00     0.010 A 
ATOM     22  C   UNL A   1      33.924  72.123  21.909  1.00  0.00     0.007 A 
ATOM     23  C   UNL A   1      34.534  73.125  20.973  1.00  0.00     0.007 A 
ENDBRANCH  20  21
ENDBRANCH  19  20
ENDBRANCH  15  19
BRANCH  16  24
ATOM     24  O   UNL A   1      31.637  78.177  22.269  1.00  0.00    -0.287 OA
BRANCH  24  25
ATOM     25  C   UNL A   1      31.714  79.597  22.232  1.00  0.00     0.505 C 
ATOM     26  F   UNL A   1      30.640  80.083  22.909  1.00  0.00    -0.184 F 
ATOM     27  F   UNL A   1      32.814  80.000  22.913  1.00  0.00    -0.184 F 
ENDBRANCH  24  25
ENDBRANCH  16  24
ENDBRANCH  10  13
ENDBRANCH   4   9
TORSDOF 7
ENDMDL
MODEL 9
REMARK VINA RESULT:      -7.3      3.407      6.240
REMARK  7 active torsions:
REMARK  status: ('A' for Active; 'I' for Inactive)
REMARK    1  A    between atoms: O_5  and  C_13 
REMARK    2  A    between atoms: O_5  and  C_14 
REMARK    3  A    between atoms: O_6  and  C_15 
REMARK    4  A    between atoms: O_6  and  C_22 
REMARK       I    between atoms: N_8  and  C_20 
REMARK    5  A    between atoms: N_8  and  C_21 
REMARK    6  A    between atoms: C_10  and  C_13 
REMARK    7  A    between atoms: C_17  and  C_20 
ROOT
ATOM      1 CL   UNL A   1      33.349  74.977  14.852  1.00  0.00    -0.080 Cl
ATOM      2 CL   UNL A   1      28.301  77.080  14.908  1.00  0.00    -0.080 Cl
ATOM      3  N   UNL A   1      30.502  75.326  12.102  1.00  0.00    -0.270 NA
ATOM      4  C   UNL A   1      30.814  76.003  14.779  1.00  0.00     0.081 A 
ATOM      5  C   UNL A   1      31.847  75.374  14.111  1.00  0.00     0.080 A 
ATOM      6  C   UNL A   1      29.627  76.300  14.135  1.00  0.00     0.080 A 
ATOM      7  C   UNL A   1      31.643  75.058  12.777  1.00  0.00     0.142 A 
ATOM      8  C   UNL A   1      29.522  75.942  12.800  1.00  0.00     0.142 A 
ENDROOT
BRANCH   4   9
ATOM      9  N   UNL A   1      30.972  76.347  16.145  1.00  0.00    -0.320 N 
ATOM     10  C   UNL A   1      30.961  75.504  17.265  1.00  0.00     0.256 C 
ATOM     11  O   UNL A   1      30.804  74.273  17.228  1.00  0.00    -0.267 OA
ATOM     12  H   UNL A   1      31.108  77.304  16.331  1.00  0.00     0.169 HD
BRANCH  10  13
ATOM     13  C   UNL A   1      31.123  76.159  18.553  1.00  0.00     0.035 A 
ATOM     14  C   UNL A   1      31.479  75.410  19.675  1.00  0.00     0.056 A 
ATOM     15  C   UNL A   1      31.634  76.038  20.911  1.00  0.00     0.103 A 
ATOM     16  C   UNL A   1      31.432  77.414  21.025  1.00  0.00     0.108 A 
ATOM     17  C   UNL A   1      31.077  78.162  19.903  1.00  0.00     0.041 A 
ATOM     18  C   UNL A   1      30.922  77.534  18.667  1.00  0.00     0.020 A 
BRANCH  15  19
ATOM     19  O   UNL A   1      31.981  75.298  22.000  1.00  0.00    -0.348 OA
BRANCH  19  20
ATOM     20  C   UNL A   1      33.371  75.215  22.311  1.00  0.00     0.180 C 
BRANCH  20  21
ATOM     21  C   UNL A   1      33.775  73.785  22.410  1.00  0.00     0.010 A 
ATOM     22  C   UNL A   1      32.926  72.742  21.752  1.00  0.00     0.007 A 
ATOM     23  C   UNL A   1      34.271  73.084  21.185  1.00  0.00     0.007 A 
ENDBRANCH  20  21
ENDBRANCH  19  20
ENDBRANCH  15  19
BRANCH  16  24
ATOM     24  O   UNL A   1      31.582  78.038  22.226  1.00  0.00    -0.287 OA
BRANCH  24  25
ATOM     25  C   UNL A   1      31.741  79.452  22.212  1.00  0.00     0.505 C 
ATOM     26  F   UNL A   1      30.697  79.988  22.896  1.00  0.00    -0.184 F 
ATOM     27  F   UNL A   1      32.862  79.780  22.900  1.00  0.00    -0.184 F 
ENDBRANCH  24  25
ENDBRANCH  16  24
ENDBRANCH  10  13
ENDBRANCH   4   9
TORSDOF 7
ENDMDL
