MODEL 1
REMARK VINA RESULT:      -8.1      0.000      0.000
REMARK  7 active torsions:
REMARK  status: ('A' for Active; 'I' for Inactive)
REMARK    1  A    between atoms: O_5  and  C_13 
REMARK    2  A    between atoms: O_5  and  C_14 
REMARK    3  A    between atoms: O_6  and  C_15 
REMARK    4  A    between atoms: O_6  and  C_22 
REMARK       I    between atoms: N_8  and  C_20 
REMARK    5  A    between atoms: N_8  and  C_21 
REMARK    6  A    between atoms: C_10  and  C_13 
REMARK    7  A    between atoms: C_17  and  C_20 
ROOT
ATOM      1 CL   UNL A   1      33.331  71.665  23.219  1.00  0.00    -0.080 Cl
ATOM      2 CL   UNL A   1      33.685  72.221  17.790  1.00  0.00    -0.080 Cl
ATOM      3  N   UNL A   1      34.224  69.160  20.266  1.00  0.00    -0.270 NA
ATOM      4  C   UNL A   1      33.534  71.842  20.496  1.00  0.00     0.081 A 
ATOM      5  C   UNL A   1      33.625  71.062  21.633  1.00  0.00     0.080 A 
ATOM      6  C   UNL A   1      33.782  71.306  19.246  1.00  0.00     0.080 A 
ATOM      7  C   UNL A   1      33.973  69.731  21.466  1.00  0.00     0.142 A 
ATOM      8  C   UNL A   1      34.122  69.964  19.185  1.00  0.00     0.142 A 
ENDROOT
BRANCH   4   9
ATOM      9  N   UNL A   1      33.181  73.209  20.613  1.00  0.00    -0.320 N 
ATOM     10  C   UNL A   1      31.904  73.786  20.599  1.00  0.00     0.256 C 
ATOM     11  O   UNL A   1      30.839  73.157  20.478  1.00  0.00    -0.267 OA
ATOM     12  H   UNL A   1      33.933  73.837  20.717  1.00  0.00     0.169 HD
BRANCH  10  13
ATOM     13  C   UNL A   1      31.860  75.235  20.713  1.00  0.00     0.035 A 
ATOM     14  C   UNL A   1      31.423  76.006  19.636  1.00  0.00     0.056 A 
ATOM     15  C   UNL A   1      31.382  77.397  19.746  1.00  0.00     0.103 A 
ATOM     16  C   UNL A   1      31.778  78.015  20.932  1.00  0.00     0.108 A 
ATOM     17  C   UNL A   1      32.215  77.243  22.009  1.00  0.00     0.041 A 
ATOM     18  C   UNL A   1      32.256  75.853  21.899  1.00  0.00     0.020 A 
BRANCH  15  19
ATOM     19  O   UNL A   1      30.954  78.140  18.688  1.00  0.00    -0.348 OA
BRANCH  19  20
ATOM     20  C   UNL A   1      30.652  77.439  17.484  1.00  0.00     0.180 C 
BRANCH  20  21
ATOM     21  C   UNL A   1      30.990  78.294  16.311  1.00  0.00     0.010 A 
ATOM     22  C   UNL A   1      32.413  78.710  16.101  1.00  0.00     0.007 A 
ATOM     23  C   UNL A   1      31.780  77.705  15.185  1.00  0.00     0.007 A 
ENDBRANCH  20  21
ENDBRANCH  19  20
ENDBRANCH  15  19
BRANCH  16  24
ATOM     24  O   UNL A   1      31.741  79.371  21.052  1.00  0.00    -0.287 OA
BRANCH  24  25
ATOM     25  C   UNL A   1      31.524  79.907  22.351  1.00  0.00     0.505 C 
ATOM     26  F   UNL A   1      31.843  81.227  22.308  1.00  0.00    -0.184 F 
ATOM     27  F   UNL A   1      30.203  79.838  22.645  1.00  0.00    -0.184 F 
ENDBRANCH  24  25
ENDBRANCH  16  24
ENDBRANCH  10  13
ENDBRANCH   4   9
TORSDOF 7
ENDMDL
MODEL 2
REMARK VINA RESULT:      -8.0      0.494      1.938
REMARK  7 active torsions:
REMARK  status: ('A' for Active; 'I' for Inactive)
REMARK    1  A    between atoms: O_5  and  C_13 
REMARK    2  A    between atoms: O_5  and  C_14 
REMARK    3  A    between atoms: O_6  and  C_15 
REMARK    4  A    between atoms: O_6  and  C_22 
REMARK       I    between atoms: N_8  and  C_20 
REMARK    5  A    between atoms: N_8  and  C_21 
REMARK    6  A    between atoms: C_10  and  C_13 
REMARK    7  A    between atoms: C_17  and  C_20 
ROOT
ATOM      1 CL   UNL A   1      33.962  72.293  17.864  1.00  0.00    -0.080 Cl
ATOM      2 CL   UNL A   1      33.141  71.607  23.227  1.00  0.00    -0.080 Cl
ATOM      3  N   UNL A   1      34.273  69.168  20.300  1.00  0.00    -0.270 NA
ATOM      4  C   UNL A   1      33.577  71.849  20.536  1.00  0.00     0.081 A 
ATOM      5  C   UNL A   1      33.929  71.342  19.299  1.00  0.00     0.080 A 
ATOM      6  C   UNL A   1      33.567  71.040  21.658  1.00  0.00     0.080 A 
ATOM      7  C   UNL A   1      34.266  70.000  19.234  1.00  0.00     0.142 A 
ATOM      8  C   UNL A   1      33.922  69.712  21.487  1.00  0.00     0.142 A 
ENDROOT
BRANCH   4   9
ATOM      9  N   UNL A   1      33.224  73.215  20.657  1.00  0.00    -0.320 N 
ATOM     10  C   UNL A   1      31.945  73.790  20.654  1.00  0.00     0.256 C 
ATOM     11  O   UNL A   1      30.881  73.160  20.538  1.00  0.00    -0.267 OA
ATOM     12  H   UNL A   1      33.975  73.844  20.757  1.00  0.00     0.169 HD
BRANCH  10  13
ATOM     13  C   UNL A   1      31.900  75.239  20.770  1.00  0.00     0.035 A 
ATOM     14  C   UNL A   1      31.597  76.019  19.654  1.00  0.00     0.056 A 
ATOM     15  C   UNL A   1      31.555  77.409  19.767  1.00  0.00     0.103 A 
ATOM     16  C   UNL A   1      31.816  78.018  20.994  1.00  0.00     0.108 A 
ATOM     17  C   UNL A   1      32.120  77.238  22.109  1.00  0.00     0.041 A 
ATOM     18  C   UNL A   1      32.162  75.848  21.997  1.00  0.00     0.020 A 
BRANCH  15  19
ATOM     19  O   UNL A   1      31.258  78.161  18.671  1.00  0.00    -0.348 OA
BRANCH  19  20
ATOM     20  C   UNL A   1      32.162  78.089  17.570  1.00  0.00     0.180 C 
BRANCH  20  21
ATOM     21  C   UNL A   1      31.393  77.947  16.302  1.00  0.00     0.010 A 
ATOM     22  C   UNL A   1      30.282  76.945  16.234  1.00  0.00     0.007 A 
ATOM     23  C   UNL A   1      29.972  78.413  16.258  1.00  0.00     0.007 A 
ENDBRANCH  20  21
ENDBRANCH  19  20
ENDBRANCH  15  19
BRANCH  16  24
ATOM     24  O   UNL A   1      31.777  79.375  21.116  1.00  0.00    -0.287 OA
BRANCH  24  25
ATOM     25  C   UNL A   1      31.457  79.906  22.396  1.00  0.00     0.505 C 
ATOM     26  F   UNL A   1      31.820  81.215  22.398  1.00  0.00    -0.184 F 
ATOM     27  F   UNL A   1      30.113  79.878  22.566  1.00  0.00    -0.184 F 
ENDBRANCH  24  25
ENDBRANCH  16  24
ENDBRANCH  10  13
ENDBRANCH   4   9
TORSDOF 7
ENDMDL
MODEL 3
REMARK VINA RESULT:      -7.8      1.524      1.551
REMARK  7 active torsions:
REMARK  status: ('A' for Active; 'I' for Inactive)
REMARK    1  A    between atoms: O_5  and  C_13 
REMARK    2  A    between atoms: O_5  and  C_14 
REMARK    3  A    between atoms: O_6  and  C_15 
REMARK    4  A    between atoms: O_6  and  C_22 
REMARK       I    between atoms: N_8  and  C_20 
REMARK    5  A    between atoms: N_8  and  C_21 
REMARK    6  A    between atoms: C_10  and  C_13 
REMARK    7  A    between atoms: C_17  and  C_20 
ROOT
ATOM      1 CL   UNL A   1      36.079  72.727  19.914  1.00  0.00    -0.080 Cl
ATOM      2 CL   UNL A   1      30.900  71.872  18.378  1.00  0.00    -0.080 Cl
ATOM      3  N   UNL A   1      34.174  69.619  18.333  1.00  0.00    -0.270 NA
ATOM      4  C   UNL A   1      33.515  72.203  19.116  1.00  0.00     0.081 A 
ATOM      5  C   UNL A   1      34.815  71.757  19.262  1.00  0.00     0.080 A 
ATOM      6  C   UNL A   1      32.538  71.381  18.586  1.00  0.00     0.080 A 
ATOM      7  C   UNL A   1      35.093  70.461  18.856  1.00  0.00     0.142 A 
ATOM      8  C   UNL A   1      32.917  70.102  18.211  1.00  0.00     0.142 A 
ENDROOT
BRANCH   4   9
ATOM      9  N   UNL A   1      33.178  73.519  19.516  1.00  0.00    -0.320 N 
ATOM     10  C   UNL A   1      32.727  73.963  20.767  1.00  0.00     0.256 C 
ATOM     11  O   UNL A   1      32.545  73.237  21.758  1.00  0.00    -0.267 OA
ATOM     12  H   UNL A   1      33.274  74.213  18.825  1.00  0.00     0.169 HD
BRANCH  10  13
ATOM     13  C   UNL A   1      32.434  75.385  20.869  1.00  0.00     0.035 A 
ATOM     14  C   UNL A   1      31.987  76.086  19.749  1.00  0.00     0.056 A 
ATOM     15  C   UNL A   1      31.708  77.449  19.847  1.00  0.00     0.103 A 
ATOM     16  C   UNL A   1      31.876  78.110  21.063  1.00  0.00     0.108 A 
ATOM     17  C   UNL A   1      32.323  77.409  22.183  1.00  0.00     0.041 A 
ATOM     18  C   UNL A   1      32.602  76.045  22.085  1.00  0.00     0.020 A 
BRANCH  15  19
ATOM     19  O   UNL A   1      31.272  78.125  18.747  1.00  0.00    -0.348 OA
BRANCH  19  20
ATOM     20  C   UNL A   1      30.806  77.343  17.649  1.00  0.00     0.180 C 
BRANCH  20  21
ATOM     21  C   UNL A   1      31.054  78.076  16.375  1.00  0.00     0.010 A 
ATOM     22  C   UNL A   1      32.402  78.683  16.136  1.00  0.00     0.007 A 
ATOM     23  C   UNL A   1      31.973  77.475  15.358  1.00  0.00     0.007 A 
ENDBRANCH  20  21
ENDBRANCH  19  20
ENDBRANCH  15  19
BRANCH  16  24
ATOM     24  O   UNL A   1      31.605  79.441  21.172  1.00  0.00    -0.287 OA
BRANCH  24  25
ATOM     25  C   UNL A   1      31.382  79.958  22.478  1.00  0.00     0.505 C 
ATOM     26  F   UNL A   1      31.830  81.241  22.492  1.00  0.00    -0.184 F 
ATOM     27  F   UNL A   1      30.049  80.013  22.713  1.00  0.00    -0.184 F 
ENDBRANCH  24  25
ENDBRANCH  16  24
ENDBRANCH  10  13
ENDBRANCH   4   9
TORSDOF 7
ENDMDL
MODEL 4
REMARK VINA RESULT:      -7.5      2.630      4.190
REMARK  7 active torsions:
REMARK  status: ('A' for Active; 'I' for Inactive)
REMARK    1  A    between atoms: O_5  and  C_13 
REMARK    2  A    between atoms: O_5  and  C_14 
REMARK    3  A    between atoms: O_6  and  C_15 
REMARK    4  A    between atoms: O_6  and  C_22 
REMARK       I    between atoms: N_8  and  C_20 
REMARK    5  A    between atoms: N_8  and  C_21 
REMARK    6  A    between atoms: C_10  and  C_13 
REMARK    7  A    between atoms: C_17  and  C_20 
ROOT
ATOM      1 CL   UNL A   1      30.626  72.972  22.618  1.00  0.00    -0.080 Cl
ATOM      2 CL   UNL A   1      35.211  72.510  19.672  1.00  0.00    -0.080 Cl
ATOM      3  N   UNL A   1      33.776  70.558  22.823  1.00  0.00    -0.270 NA
ATOM      4  C   UNL A   1      32.949  72.662  21.206  1.00  0.00     0.081 A 
ATOM      5  C   UNL A   1      32.144  72.247  22.250  1.00  0.00     0.080 A 
ATOM      6  C   UNL A   1      34.161  72.044  20.955  1.00  0.00     0.080 A 
ATOM      7  C   UNL A   1      32.601  71.195  23.027  1.00  0.00     0.142 A 
ATOM      8  C   UNL A   1      34.527  71.001  21.790  1.00  0.00     0.142 A 
ENDROOT
BRANCH   4   9
ATOM      9  N   UNL A   1      32.527  73.733  20.380  1.00  0.00    -0.320 N 
ATOM     10  C   UNL A   1      31.656  73.699  19.283  1.00  0.00     0.256 C 
ATOM     11  O   UNL A   1      31.096  72.679  18.848  1.00  0.00    -0.267 OA
ATOM     12  H   UNL A   1      32.895  74.618  20.608  1.00  0.00     0.169 HD
BRANCH  10  13
ATOM     13  C   UNL A   1      31.432  74.969  18.610  1.00  0.00     0.035 A 
ATOM     14  C   UNL A   1      31.696  76.166  19.276  1.00  0.00     0.056 A 
ATOM     15  C   UNL A   1      31.480  77.384  18.630  1.00  0.00     0.103 A 
ATOM     16  C   UNL A   1      31.001  77.404  17.321  1.00  0.00     0.108 A 
ATOM     17  C   UNL A   1      30.737  76.207  16.655  1.00  0.00     0.041 A 
ATOM     18  C   UNL A   1      30.953  74.989  17.301  1.00  0.00     0.020 A 
BRANCH  15  19
ATOM     19  O   UNL A   1      31.741  78.547  19.289  1.00  0.00    -0.348 OA
BRANCH  19  20
ATOM     20  C   UNL A   1      31.838  78.479  20.710  1.00  0.00     0.180 C 
BRANCH  20  21
ATOM     21  C   UNL A   1      30.537  78.876  21.319  1.00  0.00     0.010 A 
ATOM     22  C   UNL A   1      30.123  78.256  22.617  1.00  0.00     0.007 A 
ATOM     23  C   UNL A   1      30.540  79.696  22.570  1.00  0.00     0.007 A 
ENDBRANCH  20  21
ENDBRANCH  19  20
ENDBRANCH  15  19
BRANCH  16  24
ATOM     24  O   UNL A   1      30.788  78.587  16.679  1.00  0.00    -0.287 OA
BRANCH  24  25
ATOM     25  C   UNL A   1      31.735  78.976  15.692  1.00  0.00     0.505 C 
ATOM     26  F   UNL A   1      32.974  78.736  16.197  1.00  0.00    -0.184 F 
ATOM     27  F   UNL A   1      31.599  78.176  14.607  1.00  0.00    -0.184 F 
ENDBRANCH  24  25
ENDBRANCH  16  24
ENDBRANCH  10  13
ENDBRANCH   4   9
TORSDOF 7
ENDMDL
MODEL 5
REMARK VINA RESULT:      -7.5      3.345      6.253
REMARK  7 active torsions:
REMARK  status: ('A' for Active; 'I' for Inactive)
REMARK    1  A    between atoms: O_5  and  C_13 
REMARK    2  A    between atoms: O_5  and  C_14 
REMARK    3  A    between atoms: O_6  and  C_15 
REMARK    4  A    between atoms: O_6  and  C_22 
REMARK       I    between atoms: N_8  and  C_20 
REMARK    5  A    between atoms: N_8  and  C_21 
REMARK    6  A    between atoms: C_10  and  C_13 
REMARK    7  A    between atoms: C_17  and  C_20 
ROOT
ATOM      1 CL   UNL A   1      33.494  74.809  14.926  1.00  0.00    -0.080 Cl
ATOM      2 CL   UNL A   1      28.615  77.281  14.888  1.00  0.00    -0.080 Cl
ATOM      3  N   UNL A   1      30.711  75.324  12.136  1.00  0.00    -0.270 NA
ATOM      4  C   UNL A   1      31.042  76.019  14.807  1.00  0.00     0.081 A 
ATOM      5  C   UNL A   1      32.033  75.305  14.160  1.00  0.00     0.080 A 
ATOM      6  C   UNL A   1      29.888  76.393  14.143  1.00  0.00     0.080 A 
ATOM      7  C   UNL A   1      31.821  74.983  12.829  1.00  0.00     0.142 A 
ATOM      8  C   UNL A   1      29.771  76.021  12.813  1.00  0.00     0.142 A 
ENDROOT
BRANCH   4   9
ATOM      9  N   UNL A   1      31.211  76.373  16.168  1.00  0.00    -0.320 N 
ATOM     10  C   UNL A   1      31.048  75.570  17.305  1.00  0.00     0.256 C 
ATOM     11  O   UNL A   1      30.718  74.372  17.291  1.00  0.00    -0.267 OA
ATOM     12  H   UNL A   1      31.476  77.306  16.337  1.00  0.00     0.169 HD
BRANCH  10  13
ATOM     13  C   UNL A   1      31.267  76.228  18.584  1.00  0.00     0.035 A 
ATOM     14  C   UNL A   1      31.992  75.582  19.585  1.00  0.00     0.056 A 
ATOM     15  C   UNL A   1      32.200  76.213  20.812  1.00  0.00     0.103 A 
ATOM     16  C   UNL A   1      31.685  77.489  21.036  1.00  0.00     0.108 A 
ATOM     17  C   UNL A   1      30.960  78.135  20.035  1.00  0.00     0.041 A 
ATOM     18  C   UNL A   1      30.752  77.504  18.808  1.00  0.00     0.020 A 
BRANCH  15  19
ATOM     19  O   UNL A   1      32.909  75.573  21.783  1.00  0.00    -0.348 OA
BRANCH  19  20
ATOM     20  C   UNL A   1      32.697  74.170  21.922  1.00  0.00     0.180 C 
BRANCH  20  21
ATOM     21  C   UNL A   1      34.011  73.467  21.949  1.00  0.00     0.010 A 
ATOM     22  C   UNL A   1      34.080  72.038  21.510  1.00  0.00     0.007 A 
ATOM     23  C   UNL A   1      34.674  73.117  20.654  1.00  0.00     0.007 A 
ENDBRANCH  20  21
ENDBRANCH  19  20
ENDBRANCH  15  19
BRANCH  16  24
ATOM     24  O   UNL A   1      31.883  78.117  22.229  1.00  0.00    -0.287 OA
BRANCH  24  25
ATOM     25  C   UNL A   1      31.847  79.539  22.234  1.00  0.00     0.505 C 
ATOM     26  F   UNL A   1      30.713  79.918  22.878  1.00  0.00    -0.184 F 
ATOM     27  F   UNL A   1      32.884  80.007  22.970  1.00  0.00    -0.184 F 
ENDBRANCH  24  25
ENDBRANCH  16  24
ENDBRANCH  10  13
ENDBRANCH   4   9
TORSDOF 7
ENDMDL
MODEL 6
REMARK VINA RESULT:      -7.5      2.539      4.410
REMARK  7 active torsions:
REMARK  status: ('A' for Active; 'I' for Inactive)
REMARK    1  A    between atoms: O_5  and  C_13 
REMARK    2  A    between atoms: O_5  and  C_14 
REMARK    3  A    between atoms: O_6  and  C_15 
REMARK    4  A    between atoms: O_6  and  C_22 
REMARK       I    between atoms: N_8  and  C_20 
REMARK    5  A    between atoms: N_8  and  C_21 
REMARK    6  A    between atoms: C_10  and  C_13 
REMARK    7  A    between atoms: C_17  and  C_20 
ROOT
ATOM      1 CL   UNL A   1      34.984  72.305  19.562  1.00  0.00    -0.080 Cl
ATOM      2 CL   UNL A   1      30.704  73.122  22.867  1.00  0.00    -0.080 Cl
ATOM      3  N   UNL A   1      33.727  70.542  22.895  1.00  0.00    -0.270 NA
ATOM      4  C   UNL A   1      32.876  72.635  21.275  1.00  0.00     0.081 A 
ATOM      5  C   UNL A   1      34.026  71.942  20.946  1.00  0.00     0.080 A 
ATOM      6  C   UNL A   1      32.144  72.301  22.399  1.00  0.00     0.080 A 
ATOM      7  C   UNL A   1      34.408  70.907  21.785  1.00  0.00     0.142 A 
ATOM      8  C   UNL A   1      32.610  71.250  23.174  1.00  0.00     0.142 A 
ENDROOT
BRANCH   4   9
ATOM      9  N   UNL A   1      32.443  73.702  20.451  1.00  0.00    -0.320 N 
ATOM     10  C   UNL A   1      31.512  73.674  19.403  1.00  0.00     0.256 C 
ATOM     11  O   UNL A   1      30.899  72.663  19.022  1.00  0.00    -0.267 OA
ATOM     12  H   UNL A   1      32.849  74.579  20.639  1.00  0.00     0.169 HD
BRANCH  10  13
ATOM     13  C   UNL A   1      31.291  74.936  18.716  1.00  0.00     0.035 A 
ATOM     14  C   UNL A   1      31.413  76.139  19.411  1.00  0.00     0.056 A 
ATOM     15  C   UNL A   1      31.200  77.350  18.751  1.00  0.00     0.103 A 
ATOM     16  C   UNL A   1      30.865  77.357  17.398  1.00  0.00     0.108 A 
ATOM     17  C   UNL A   1      30.742  76.154  16.702  1.00  0.00     0.041 A 
ATOM     18  C   UNL A   1      30.956  74.943  17.362  1.00  0.00     0.020 A 
BRANCH  15  19
ATOM     19  O   UNL A   1      31.322  78.519  19.440  1.00  0.00    -0.348 OA
BRANCH  19  20
ATOM     20  C   UNL A   1      31.817  78.436  20.775  1.00  0.00     0.180 C 
BRANCH  20  21
ATOM     21  C   UNL A   1      31.611  79.741  21.464  1.00  0.00     0.010 A 
ATOM     22  C   UNL A   1      30.763  79.785  22.698  1.00  0.00     0.007 A 
ATOM     23  C   UNL A   1      32.249  79.965  22.799  1.00  0.00     0.007 A 
ENDBRANCH  20  21
ENDBRANCH  19  20
ENDBRANCH  15  19
BRANCH  16  24
ATOM     24  O   UNL A   1      30.655  78.533  16.742  1.00  0.00    -0.287 OA
BRANCH  24  25
ATOM     25  C   UNL A   1      31.682  78.986  15.868  1.00  0.00     0.505 C 
ATOM     26  F   UNL A   1      32.871  78.594  16.396  1.00  0.00    -0.184 F 
ATOM     27  F   UNL A   1      31.562  78.353  14.676  1.00  0.00    -0.184 F 
ENDBRANCH  24  25
ENDBRANCH  16  24
ENDBRANCH  10  13
ENDBRANCH   4   9
TORSDOF 7
ENDMDL
MODEL 7
REMARK VINA RESULT:      -7.5      3.750      6.389
REMARK  7 active torsions:
REMARK  status: ('A' for Active; 'I' for Inactive)
REMARK    1  A    between atoms: O_5  and  C_13 
REMARK    2  A    between atoms: O_5  and  C_14 
REMARK    3  A    between atoms: O_6  and  C_15 
REMARK    4  A    between atoms: O_6  and  C_22 
REMARK       I    between atoms: N_8  and  C_20 
REMARK    5  A    between atoms: N_8  and  C_21 
REMARK    6  A    between atoms: C_10  and  C_13 
REMARK    7  A    between atoms: C_17  and  C_20 
ROOT
ATOM      1 CL   UNL A   1      28.430  77.129  14.832  1.00  0.00    -0.080 Cl
ATOM      2 CL   UNL A   1      33.493  75.073  14.600  1.00  0.00    -0.080 Cl
ATOM      3  N   UNL A   1      30.561  75.427  11.941  1.00  0.00    -0.270 NA
ATOM      4  C   UNL A   1      30.947  76.076  14.615  1.00  0.00     0.081 A 
ATOM      5  C   UNL A   1      29.739  76.369  14.010  1.00  0.00     0.080 A 
ATOM      6  C   UNL A   1      31.965  75.464  13.908  1.00  0.00     0.080 A 
ATOM      7  C   UNL A   1      29.596  76.025  12.675  1.00  0.00     0.142 A 
ATOM      8  C   UNL A   1      31.723  75.161  12.578  1.00  0.00     0.142 A 
ENDROOT
BRANCH   4   9
ATOM      9  N   UNL A   1      31.144  76.408  15.978  1.00  0.00    -0.320 N 
ATOM     10  C   UNL A   1      31.013  75.585  17.105  1.00  0.00     0.256 C 
ATOM     11  O   UNL A   1      30.688  74.386  17.079  1.00  0.00    -0.267 OA
ATOM     12  H   UNL A   1      31.409  77.339  16.157  1.00  0.00     0.169 HD
BRANCH  10  13
ATOM     13  C   UNL A   1      31.257  76.223  18.390  1.00  0.00     0.035 A 
ATOM     14  C   UNL A   1      31.957  75.541  19.385  1.00  0.00     0.056 A 
ATOM     15  C   UNL A   1      32.190  76.153  20.616  1.00  0.00     0.103 A 
ATOM     16  C   UNL A   1      31.723  77.445  20.853  1.00  0.00     0.108 A 
ATOM     17  C   UNL A   1      31.023  78.127  19.858  1.00  0.00     0.041 A 
ATOM     18  C   UNL A   1      30.790  77.515  18.626  1.00  0.00     0.020 A 
BRANCH  15  19
ATOM     19  O   UNL A   1      32.875  75.478  21.581  1.00  0.00    -0.348 OA
BRANCH  19  20
ATOM     20  C   UNL A   1      32.423  74.162  21.897  1.00  0.00     0.180 C 
BRANCH  20  21
ATOM     21  C   UNL A   1      30.941  74.170  22.059  1.00  0.00     0.010 A 
ATOM     22  C   UNL A   1      30.311  73.215  23.024  1.00  0.00     0.007 A 
ATOM     23  C   UNL A   1      30.353  74.682  23.336  1.00  0.00     0.007 A 
ENDBRANCH  20  21
ENDBRANCH  19  20
ENDBRANCH  15  19
BRANCH  16  24
ATOM     24  O   UNL A   1      31.946  78.054  22.051  1.00  0.00    -0.287 OA
BRANCH  24  25
ATOM     25  C   UNL A   1      31.764  79.463  22.112  1.00  0.00     0.505 C 
ATOM     26  F   UNL A   1      30.592  79.697  22.758  1.00  0.00    -0.184 F 
ATOM     27  F   UNL A   1      32.742  80.005  22.879  1.00  0.00    -0.184 F 
ENDBRANCH  24  25
ENDBRANCH  16  24
ENDBRANCH  10  13
ENDBRANCH   4   9
TORSDOF 7
ENDMDL
MODEL 8
REMARK VINA RESULT:      -7.2      3.204      5.235
REMARK  7 active torsions:
REMARK  status: ('A' for Active; 'I' for Inactive)
REMARK    1  A    between atoms: O_5  and  C_13 
REMARK    2  A    between atoms: O_5  and  C_14 
REMARK    3  A    between atoms: O_6  and  C_15 
REMARK    4  A    between atoms: O_6  and  C_22 
REMARK       I    between atoms: N_8  and  C_20 
REMARK    5  A    between atoms: N_8  and  C_21 
REMARK    6  A    between atoms: C_10  and  C_13 
REMARK    7  A    between atoms: C_17  and  C_20 
ROOT
ATOM      1 CL   UNL A   1      32.909  72.159  17.222  1.00  0.00    -0.080 Cl
ATOM      2 CL   UNL A   1      28.776  75.129  15.218  1.00  0.00    -0.080 Cl
ATOM      3  N   UNL A   1      30.652  71.857  13.965  1.00  0.00    -0.270 NA
ATOM      4  C   UNL A   1      30.836  73.579  16.138  1.00  0.00     0.081 A 
ATOM      5  C   UNL A   1      31.699  72.504  16.046  1.00  0.00     0.080 A 
ATOM      6  C   UNL A   1      29.882  73.810  15.164  1.00  0.00     0.080 A 
ATOM      7  C   UNL A   1      31.568  71.675  14.943  1.00  0.00     0.142 A 
ATOM      8  C   UNL A   1      29.831  72.922  14.101  1.00  0.00     0.142 A 
ENDROOT
BRANCH   4   9
ATOM      9  N   UNL A   1      30.928  74.457  17.247  1.00  0.00    -0.320 N 
ATOM     10  C   UNL A   1      31.545  75.714  17.316  1.00  0.00     0.256 C 
ATOM     11  O   UNL A   1      32.129  76.274  16.374  1.00  0.00    -0.267 OA
ATOM     12  H   UNL A   1      30.504  74.142  18.077  1.00  0.00     0.169 HD
BRANCH  10  13
ATOM     13  C   UNL A   1      31.499  76.373  18.612  1.00  0.00     0.035 A 
ATOM     14  C   UNL A   1      32.162  75.811  19.703  1.00  0.00     0.056 A 
ATOM     15  C   UNL A   1      32.116  76.444  20.946  1.00  0.00     0.103 A 
ATOM     16  C   UNL A   1      31.409  77.636  21.097  1.00  0.00     0.108 A 
ATOM     17  C   UNL A   1      30.746  78.197  20.006  1.00  0.00     0.041 A 
ATOM     18  C   UNL A   1      30.791  77.565  18.763  1.00  0.00     0.020 A 
BRANCH  15  19
ATOM     19  O   UNL A   1      32.767  75.887  22.005  1.00  0.00    -0.348 OA
BRANCH  19  20
ATOM     20  C   UNL A   1      32.517  74.508  22.267  1.00  0.00     0.180 C 
BRANCH  20  21
ATOM     21  C   UNL A   1      33.810  73.769  22.330  1.00  0.00     0.010 A 
ATOM     22  C   UNL A   1      33.818  72.295  22.069  1.00  0.00     0.007 A 
ATOM     23  C   UNL A   1      34.406  73.240  21.063  1.00  0.00     0.007 A 
ENDBRANCH  20  21
ENDBRANCH  19  20
ENDBRANCH  15  19
BRANCH  16  24
ATOM     24  O   UNL A   1      31.358  78.263  22.305  1.00  0.00    -0.287 OA
BRANCH  24  25
ATOM     25  C   UNL A   1      30.611  79.470  22.384  1.00  0.00     0.505 C 
ATOM     26  F   UNL A   1      29.439  79.186  23.010  1.00  0.00    -0.184 F 
ATOM     27  F   UNL A   1      31.269  80.350  23.178  1.00  0.00    -0.184 F 
ENDBRANCH  24  25
ENDBRANCH  16  24
ENDBRANCH  10  13
ENDBRANCH   4   9
TORSDOF 7
ENDMDL
MODEL 9
REMARK VINA RESULT:      -7.1      1.620      1.869
REMARK  7 active torsions:
REMARK  status: ('A' for Active; 'I' for Inactive)
REMARK    1  A    between atoms: O_5  and  C_13 
REMARK    2  A    between atoms: O_5  and  C_14 
REMARK    3  A    between atoms: O_6  and  C_15 
REMARK    4  A    between atoms: O_6  and  C_22 
REMARK       I    between atoms: N_8  and  C_20 
REMARK    5  A    between atoms: N_8  and  C_21 
REMARK    6  A    between atoms: C_10  and  C_13 
REMARK    7  A    between atoms: C_17  and  C_20 
ROOT
ATOM      1 CL   UNL A   1      33.795  69.953  21.995  1.00  0.00    -0.080 Cl
ATOM      2 CL   UNL A   1      33.931  71.913  16.891  1.00  0.00    -0.080 Cl
ATOM      3  N   UNL A   1      34.900  68.412  18.502  1.00  0.00    -0.270 NA
ATOM      4  C   UNL A   1      33.900  70.841  19.409  1.00  0.00     0.081 A 
ATOM      5  C   UNL A   1      34.115  69.814  20.309  1.00  0.00     0.080 A 
ATOM      6  C   UNL A   1      34.176  70.676  18.064  1.00  0.00     0.080 A 
ATOM      7  C   UNL A   1      34.615  68.623  19.807  1.00  0.00     0.142 A 
ATOM      8  C   UNL A   1      34.672  69.446  17.663  1.00  0.00     0.142 A 
ENDROOT
BRANCH   4   9
ATOM      9  N   UNL A   1      33.390  72.080  19.870  1.00  0.00    -0.320 N 
ATOM     10  C   UNL A   1      34.098  73.207  20.310  1.00  0.00     0.256 C 
ATOM     11  O   UNL A   1      35.336  73.294  20.364  1.00  0.00    -0.267 OA
ATOM     12  H   UNL A   1      32.409  72.159  19.884  1.00  0.00     0.169 HD
BRANCH  10  13
ATOM     13  C   UNL A   1      33.290  74.332  20.753  1.00  0.00     0.035 A 
ATOM     14  C   UNL A   1      32.447  74.982  19.853  1.00  0.00     0.056 A 
ATOM     15  C   UNL A   1      31.672  76.062  20.278  1.00  0.00     0.103 A 
ATOM     16  C   UNL A   1      31.742  76.490  21.603  1.00  0.00     0.108 A 
ATOM     17  C   UNL A   1      32.585  75.840  22.504  1.00  0.00     0.041 A 
ATOM     18  C   UNL A   1      33.359  74.760  22.079  1.00  0.00     0.020 A 
BRANCH  15  19
ATOM     19  O   UNL A   1      30.852  76.689  19.390  1.00  0.00    -0.348 OA
BRANCH  19  20
ATOM     20  C   UNL A   1      31.097  76.455  18.005  1.00  0.00     0.180 C 
BRANCH  20  21
ATOM     21  C   UNL A   1      31.358  77.751  17.318  1.00  0.00     0.010 A 
ATOM     22  C   UNL A   1      31.536  77.764  15.832  1.00  0.00     0.007 A 
ATOM     23  C   UNL A   1      30.294  78.339  16.445  1.00  0.00     0.007 A 
ENDBRANCH  20  21
ENDBRANCH  19  20
ENDBRANCH  15  19
BRANCH  16  24
ATOM     24  O   UNL A   1      30.990  77.543  22.031  1.00  0.00    -0.287 OA
BRANCH  24  25
ATOM     25  C   UNL A   1      31.626  78.812  22.108  1.00  0.00     0.505 C 
ATOM     26  F   UNL A   1      31.703  79.308  20.845  1.00  0.00    -0.184 F 
ATOM     27  F   UNL A   1      30.838  79.663  22.809  1.00  0.00    -0.184 F 
ENDBRANCH  24  25
ENDBRANCH  16  24
ENDBRANCH  10  13
ENDBRANCH   4   9
TORSDOF 7
ENDMDL
