MODEL 1
REMARK VINA RESULT:      -6.5      0.000      0.000
REMARK  4 active torsions:
REMARK  status: ('A' for Active; 'I' for Inactive)
REMARK    1  A    between atoms: O_1  and  C_8 
REMARK    2  A    between atoms: O_2  and  C_9 
REMARK    3  A    between atoms: C_5  and  C_11 
REMARK    4  A    between atoms: C_12  and  C_13 
ROOT
ATOM      1  O   UNL A   1     -53.463  50.424   7.921  1.00  0.00    -0.358 OA
ATOM      2  H   UNL A   1     -53.475  51.335   8.141  1.00  0.00     0.217 HD
ENDROOT
BRANCH   1   3
ATOM      3  C   UNL A   1     -53.511  49.486   8.907  1.00  0.00     0.099 A 
ATOM      4  C   UNL A   1     -53.254  49.861  10.226  1.00  0.00     0.050 A 
ATOM      5  C   UNL A   1     -53.302  48.909  11.245  1.00  0.00    -0.033 A 
ATOM      6  C   UNL A   1     -53.609  47.582  10.944  1.00  0.00     0.014 A 
ATOM      7  C   UNL A   1     -53.867  47.207   9.626  1.00  0.00     0.040 A 
ATOM      8  C   UNL A   1     -53.818  48.159   8.608  1.00  0.00     0.098 A 
BRANCH   5   9
ATOM      9  C   UNL A   1     -53.032  49.300  12.619  1.00  0.00     0.018 C 
ATOM     10  C   UNL A   1     -52.411  48.505  13.486  1.00  0.00     0.085 C 
BRANCH  10  11
ATOM     11  C   UNL A   1     -52.201  48.992  14.864  1.00  0.00     0.198 C 
ATOM     12  O   UNL A   1     -51.203  48.273  15.431  1.00  0.00    -0.645 OA
ATOM     13  O   UNL A   1     -52.813  49.890  15.418  1.00  0.00    -0.645 OA
ENDBRANCH  10  11
ENDBRANCH   5   9
BRANCH   8  14
ATOM     14  O   UNL A   1     -54.074  47.781   7.324  1.00  0.00    -0.358 OA
ATOM     15  H   UNL A   1     -53.799  46.938   7.021  1.00  0.00     0.217 HD
ENDBRANCH   8  14
ENDBRANCH   1   3
TORSDOF 4
ENDMDL
MODEL 2
REMARK VINA RESULT:      -6.3      1.859      2.889
REMARK  4 active torsions:
REMARK  status: ('A' for Active; 'I' for Inactive)
REMARK    1  A    between atoms: O_1  and  C_8 
REMARK    2  A    between atoms: O_2  and  C_9 
REMARK    3  A    between atoms: C_5  and  C_11 
REMARK    4  A    between atoms: C_12  and  C_13 
ROOT
ATOM      1  O   UNL A   1     -53.580  49.710   7.869  1.00  0.00    -0.358 OA
ATOM      2  H   UNL A   1     -53.204  49.014   7.367  1.00  0.00     0.217 HD
ENDROOT
BRANCH   1   3
ATOM      3  C   UNL A   1     -53.468  49.707   9.226  1.00  0.00     0.099 A 
ATOM      4  C   UNL A   1     -53.163  48.518   9.888  1.00  0.00     0.050 A 
ATOM      5  C   UNL A   1     -53.044  48.504  11.279  1.00  0.00    -0.033 A 
ATOM      6  C   UNL A   1     -53.229  49.680  12.006  1.00  0.00     0.014 A 
ATOM      7  C   UNL A   1     -53.533  50.869  11.343  1.00  0.00     0.040 A 
ATOM      8  C   UNL A   1     -53.653  50.882   9.954  1.00  0.00     0.098 A 
BRANCH   5   9
ATOM      9  C   UNL A   1     -52.727  47.264  11.968  1.00  0.00     0.018 C 
ATOM     10  C   UNL A   1     -52.138  47.232  13.161  1.00  0.00     0.085 C 
BRANCH  10  11
ATOM     11  C   UNL A   1     -51.844  45.919  13.768  1.00  0.00     0.198 C 
ATOM     12  O   UNL A   1     -50.927  46.090  14.750  1.00  0.00    -0.645 OA
ATOM     13  O   UNL A   1     -52.334  44.848  13.452  1.00  0.00    -0.645 OA
ENDBRANCH  10  11
ENDBRANCH   5   9
BRANCH   8  14
ATOM     14  O   UNL A   1     -53.949  52.050   9.318  1.00  0.00    -0.358 OA
ATOM     15  H   UNL A   1     -54.832  52.234   9.064  1.00  0.00     0.217 HD
ENDBRANCH   8  14
ENDBRANCH   1   3
TORSDOF 4
ENDMDL
MODEL 3
REMARK VINA RESULT:      -6.3      2.573      5.109
REMARK  4 active torsions:
REMARK  status: ('A' for Active; 'I' for Inactive)
REMARK    1  A    between atoms: O_1  and  C_8 
REMARK    2  A    between atoms: O_2  and  C_9 
REMARK    3  A    between atoms: C_5  and  C_11 
REMARK    4  A    between atoms: C_12  and  C_13 
ROOT
ATOM      1  O   UNL A   1     -53.627  51.792   8.893  1.00  0.00    -0.358 OA
ATOM      2  H   UNL A   1     -52.845  52.158   8.528  1.00  0.00     0.217 HD
ENDROOT
BRANCH   1   3
ATOM      3  C   UNL A   1     -53.550  50.719   9.728  1.00  0.00     0.099 A 
ATOM      4  C   UNL A   1     -53.533  49.431   9.191  1.00  0.00     0.050 A 
ATOM      5  C   UNL A   1     -53.453  48.324  10.037  1.00  0.00    -0.033 A 
ATOM      6  C   UNL A   1     -53.389  48.505  11.418  1.00  0.00     0.014 A 
ATOM      7  C   UNL A   1     -53.405  49.793  11.954  1.00  0.00     0.040 A 
ATOM      8  C   UNL A   1     -53.486  50.899  11.109  1.00  0.00     0.098 A 
BRANCH   5   9
ATOM      9  C   UNL A   1     -53.437  46.982   9.477  1.00  0.00     0.018 C 
ATOM     10  C   UNL A   1     -54.547  46.310   9.183  1.00  0.00     0.085 C 
BRANCH  10  11
ATOM     11  C   UNL A   1     -54.420  44.945   8.634  1.00  0.00     0.198 C 
ATOM     12  O   UNL A   1     -54.220  45.031   7.298  1.00  0.00    -0.645 OA
ATOM     13  O   UNL A   1     -54.483  43.902   9.263  1.00  0.00    -0.645 OA
ENDBRANCH  10  11
ENDBRANCH   5   9
BRANCH   8  14
ATOM     14  O   UNL A   1     -53.500  52.152  11.644  1.00  0.00    -0.358 OA
ATOM     15  H   UNL A   1     -52.780  52.446  12.167  1.00  0.00     0.217 HD
ENDBRANCH   8  14
ENDBRANCH   1   3
TORSDOF 4
ENDMDL
MODEL 4
REMARK VINA RESULT:      -6.1      0.868      1.895
REMARK  4 active torsions:
REMARK  status: ('A' for Active; 'I' for Inactive)
REMARK    1  A    between atoms: O_1  and  C_8 
REMARK    2  A    between atoms: O_2  and  C_9 
REMARK    3  A    between atoms: C_5  and  C_11 
REMARK    4  A    between atoms: C_12  and  C_13 
ROOT
ATOM      1  O   UNL A   1     -53.433  45.861   9.469  1.00  0.00    -0.358 OA
ATOM      2  H   UNL A   1     -53.684  45.214  10.098  1.00  0.00     0.217 HD
ENDROOT
BRANCH   1   3
ATOM      3  C   UNL A   1     -53.477  47.182   9.796  1.00  0.00     0.099 A 
ATOM      4  C   UNL A   1     -53.211  47.574  11.108  1.00  0.00     0.050 A 
ATOM      5  C   UNL A   1     -53.251  48.925  11.455  1.00  0.00    -0.033 A 
ATOM      6  C   UNL A   1     -53.554  49.884  10.488  1.00  0.00     0.014 A 
ATOM      7  C   UNL A   1     -53.819  49.492   9.176  1.00  0.00     0.040 A 
ATOM      8  C   UNL A   1     -53.780  48.141   8.830  1.00  0.00     0.098 A 
BRANCH   5   9
ATOM      9  C   UNL A   1     -52.976  49.333  12.823  1.00  0.00     0.018 C 
ATOM     10  C   UNL A   1     -52.309  48.568  13.683  1.00  0.00     0.085 C 
BRANCH  10  11
ATOM     11  C   UNL A   1     -52.098  49.069  15.056  1.00  0.00     0.198 C 
ATOM     12  O   UNL A   1     -51.141  48.317  15.650  1.00  0.00    -0.645 OA
ATOM     13  O   UNL A   1     -52.678  50.002  15.585  1.00  0.00    -0.645 OA
ENDBRANCH  10  11
ENDBRANCH   5   9
BRANCH   8  14
ATOM     14  O   UNL A   1     -54.038  47.771   7.545  1.00  0.00    -0.358 OA
ATOM     15  H   UNL A   1     -54.182  48.425   6.889  1.00  0.00     0.217 HD
ENDBRANCH   8  14
ENDBRANCH   1   3
TORSDOF 4
ENDMDL
MODEL 5
REMARK VINA RESULT:      -6.0      2.261      5.329
REMARK  4 active torsions:
REMARK  status: ('A' for Active; 'I' for Inactive)
REMARK    1  A    between atoms: O_1  and  C_8 
REMARK    2  A    between atoms: O_2  and  C_9 
REMARK    3  A    between atoms: C_5  and  C_11 
REMARK    4  A    between atoms: C_12  and  C_13 
ROOT
ATOM      1  O   UNL A   1     -52.886  49.908  13.376  1.00  0.00    -0.358 OA
ATOM      2  H   UNL A   1     -52.427  50.687  13.626  1.00  0.00     0.217 HD
ENDROOT
BRANCH   1   3
ATOM      3  C   UNL A   1     -53.181  49.683  12.066  1.00  0.00     0.099 A 
ATOM      4  C   UNL A   1     -53.200  48.375  11.581  1.00  0.00     0.050 A 
ATOM      5  C   UNL A   1     -53.503  48.132  10.241  1.00  0.00    -0.033 A 
ATOM      6  C   UNL A   1     -53.789  49.197   9.387  1.00  0.00     0.014 A 
ATOM      7  C   UNL A   1     -53.772  50.505   9.872  1.00  0.00     0.040 A 
ATOM      8  C   UNL A   1     -53.468  50.747  11.212  1.00  0.00     0.098 A 
BRANCH   5   9
ATOM      9  C   UNL A   1     -53.520  46.769   9.735  1.00  0.00     0.018 C 
ATOM     10  C   UNL A   1     -54.609  46.205   9.220  1.00  0.00     0.085 C 
BRANCH  10  11
ATOM     11  C   UNL A   1     -54.525  44.807   8.750  1.00  0.00     0.198 C 
ATOM     12  O   UNL A   1     -53.888  44.071   9.691  1.00  0.00    -0.645 OA
ATOM     13  O   UNL A   1     -54.951  44.370   7.695  1.00  0.00    -0.645 OA
ENDBRANCH  10  11
ENDBRANCH   5   9
BRANCH   8  14
ATOM     14  O   UNL A   1     -53.455  52.028  11.674  1.00  0.00    -0.358 OA
ATOM     15  H   UNL A   1     -52.919  52.673  11.255  1.00  0.00     0.217 HD
ENDBRANCH   8  14
ENDBRANCH   1   3
TORSDOF 4
ENDMDL
MODEL 6
REMARK VINA RESULT:      -6.0      2.197      2.983
REMARK  4 active torsions:
REMARK  status: ('A' for Active; 'I' for Inactive)
REMARK    1  A    between atoms: O_1  and  C_8 
REMARK    2  A    between atoms: O_2  and  C_9 
REMARK    3  A    between atoms: C_5  and  C_11 
REMARK    4  A    between atoms: C_12  and  C_13 
ROOT
ATOM      1  O   UNL A   1     -53.564  52.172  11.780  1.00  0.00    -0.358 OA
ATOM      2  H   UNL A   1     -53.731  52.186  12.702  1.00  0.00     0.217 HD
ENDROOT
BRANCH   1   3
ATOM      3  C   UNL A   1     -53.453  50.983  11.126  1.00  0.00     0.099 A 
ATOM      4  C   UNL A   1     -53.215  49.817  11.855  1.00  0.00     0.050 A 
ATOM      5  C   UNL A   1     -53.101  48.593  11.196  1.00  0.00    -0.033 A 
ATOM      6  C   UNL A   1     -53.227  48.534   9.808  1.00  0.00     0.014 A 
ATOM      7  C   UNL A   1     -53.465  49.699   9.079  1.00  0.00     0.040 A 
ATOM      8  C   UNL A   1     -53.578  50.923   9.739  1.00  0.00     0.098 A 
BRANCH   5   9
ATOM      9  C   UNL A   1     -52.852  47.379  11.956  1.00  0.00     0.018 C 
ATOM     10  C   UNL A   1     -52.061  47.348  13.026  1.00  0.00     0.085 C 
BRANCH  10  11
ATOM     11  C   UNL A   1     -51.861  46.058  13.717  1.00  0.00     0.198 C 
ATOM     12  O   UNL A   1     -50.978  46.241  14.729  1.00  0.00    -0.645 OA
ATOM     13  O   UNL A   1     -52.391  44.996  13.440  1.00  0.00    -0.645 OA
ENDBRANCH  10  11
ENDBRANCH   5   9
BRANCH   8  14
ATOM     14  O   UNL A   1     -53.812  52.054   9.016  1.00  0.00    -0.358 OA
ATOM     15  H   UNL A   1     -53.799  52.890   9.437  1.00  0.00     0.217 HD
ENDBRANCH   8  14
ENDBRANCH   1   3
TORSDOF 4
ENDMDL
MODEL 7
REMARK VINA RESULT:      -5.8      2.829      4.012
REMARK  4 active torsions:
REMARK  status: ('A' for Active; 'I' for Inactive)
REMARK    1  A    between atoms: O_1  and  C_8 
REMARK    2  A    between atoms: O_2  and  C_9 
REMARK    3  A    between atoms: C_5  and  C_11 
REMARK    4  A    between atoms: C_12  and  C_13 
ROOT
ATOM      1  O   UNL A   1     -54.640  46.052   8.194  1.00  0.00    -0.358 OA
ATOM      2  H   UNL A   1     -55.402  46.480   7.857  1.00  0.00     0.217 HD
ENDROOT
BRANCH   1   3
ATOM      3  C   UNL A   1     -53.990  46.570   9.273  1.00  0.00     0.099 A 
ATOM      4  C   UNL A   1     -54.150  47.919   9.589  1.00  0.00     0.050 A 
ATOM      5  C   UNL A   1     -53.491  48.461  10.693  1.00  0.00    -0.033 A 
ATOM      6  C   UNL A   1     -52.673  47.652  11.481  1.00  0.00     0.014 A 
ATOM      7  C   UNL A   1     -52.513  46.302  11.166  1.00  0.00     0.040 A 
ATOM      8  C   UNL A   1     -53.172  45.762  10.061  1.00  0.00     0.098 A 
BRANCH   5   9
ATOM      9  C   UNL A   1     -53.657  49.867  11.021  1.00  0.00     0.018 C 
ATOM     10  C   UNL A   1     -53.576  50.834  10.111  1.00  0.00     0.085 C 
BRANCH  10  11
ATOM     11  C   UNL A   1     -53.743  52.234  10.552  1.00  0.00     0.198 C 
ATOM     12  O   UNL A   1     -54.348  52.931   9.562  1.00  0.00    -0.645 OA
ATOM     13  O   UNL A   1     -53.400  52.703  11.625  1.00  0.00    -0.645 OA
ENDBRANCH  10  11
ENDBRANCH   5   9
BRANCH   8  14
ATOM     14  O   UNL A   1     -53.009  44.443   9.764  1.00  0.00    -0.358 OA
ATOM     15  H   UNL A   1     -53.464  44.067   9.036  1.00  0.00     0.217 HD
ENDBRANCH   8  14
ENDBRANCH   1   3
TORSDOF 4
ENDMDL
MODEL 8
REMARK VINA RESULT:      -5.8      2.675      3.671
REMARK  4 active torsions:
REMARK  status: ('A' for Active; 'I' for Inactive)
REMARK    1  A    between atoms: O_1  and  C_8 
REMARK    2  A    between atoms: O_2  and  C_9 
REMARK    3  A    between atoms: C_5  and  C_11 
REMARK    4  A    between atoms: C_12  and  C_13 
ROOT
ATOM      1  O   UNL A   1     -53.303  50.549   7.719  1.00  0.00    -0.358 OA
ATOM      2  H   UNL A   1     -54.075  50.506   7.188  1.00  0.00     0.217 HD
ENDROOT
BRANCH   1   3
ATOM      3  C   UNL A   1     -53.324  50.066   8.992  1.00  0.00     0.099 A 
ATOM      4  C   UNL A   1     -53.042  48.720   9.220  1.00  0.00     0.050 A 
ATOM      5  C   UNL A   1     -53.059  48.214  10.521  1.00  0.00    -0.033 A 
ATOM      6  C   UNL A   1     -53.356  49.056  11.592  1.00  0.00     0.014 A 
ATOM      7  C   UNL A   1     -53.637  50.403  11.363  1.00  0.00     0.040 A 
ATOM      8  C   UNL A   1     -53.621  50.908  10.063  1.00  0.00     0.098 A 
BRANCH   5   9
ATOM      9  C   UNL A   1     -52.766  46.810  10.758  1.00  0.00     0.018 C 
ATOM     10  C   UNL A   1     -52.093  46.384  11.823  1.00  0.00     0.085 C 
BRANCH  10  11
ATOM     11  C   UNL A   1     -51.834  44.936  11.962  1.00  0.00     0.198 C 
ATOM     12  O   UNL A   1     -52.669  44.265  11.134  1.00  0.00    -0.645 OA
ATOM     13  O   UNL A   1     -51.010  44.413  12.693  1.00  0.00    -0.645 OA
ENDBRANCH  10  11
ENDBRANCH   5   9
BRANCH   8  14
ATOM     14  O   UNL A   1     -53.896  52.225   9.853  1.00  0.00    -0.358 OA
ATOM     15  H   UNL A   1     -54.275  52.740  10.538  1.00  0.00     0.217 HD
ENDBRANCH   8  14
ENDBRANCH   1   3
TORSDOF 4
ENDMDL
MODEL 9
REMARK VINA RESULT:      -5.8      3.232      5.101
REMARK  4 active torsions:
REMARK  status: ('A' for Active; 'I' for Inactive)
REMARK    1  A    between atoms: O_1  and  C_8 
REMARK    2  A    between atoms: O_2  and  C_9 
REMARK    3  A    between atoms: C_5  and  C_11 
REMARK    4  A    between atoms: C_12  and  C_13 
ROOT
ATOM      1  O   UNL A   1     -53.496  45.117   5.014  1.00  0.00    -0.358 OA
ATOM      2  H   UNL A   1     -53.144  44.253   4.933  1.00  0.00     0.217 HD
ENDROOT
BRANCH   1   3
ATOM      3  C   UNL A   1     -52.746  46.109   5.569  1.00  0.00     0.099 A 
ATOM      4  C   UNL A   1     -53.181  46.725   6.742  1.00  0.00     0.050 A 
ATOM      5  C   UNL A   1     -52.419  47.741   7.321  1.00  0.00    -0.033 A 
ATOM      6  C   UNL A   1     -51.221  48.138   6.726  1.00  0.00     0.014 A 
ATOM      7  C   UNL A   1     -50.786  47.521   5.554  1.00  0.00     0.040 A 
ATOM      8  C   UNL A   1     -51.548  46.507   4.975  1.00  0.00     0.098 A 
BRANCH   5   9
ATOM      9  C   UNL A   1     -52.874  48.385   8.542  1.00  0.00     0.018 C 
ATOM     10  C   UNL A   1     -53.201  49.673   8.600  1.00  0.00     0.085 C 
BRANCH  10  11
ATOM     11  C   UNL A   1     -53.635  50.233   9.896  1.00  0.00     0.198 C 
ATOM     12  O   UNL A   1     -54.035  51.513   9.703  1.00  0.00    -0.645 OA
ATOM     13  O   UNL A   1     -53.641  49.657  10.970  1.00  0.00    -0.645 OA
ENDBRANCH  10  11
ENDBRANCH   5   9
BRANCH   8  14
ATOM     14  O   UNL A   1     -51.112  45.911   3.831  1.00  0.00    -0.358 OA
ATOM     15  H   UNL A   1     -51.209  44.986   3.718  1.00  0.00     0.217 HD
ENDBRANCH   8  14
ENDBRANCH   1   3
TORSDOF 4
ENDMDL
