MODEL 1
REMARK VINA RESULT:      -6.5      0.000      0.000
REMARK  4 active torsions:
REMARK  status: ('A' for Active; 'I' for Inactive)
REMARK    1  A    between atoms: O_1  and  C_8 
REMARK    2  A    between atoms: O_2  and  C_9 
REMARK    3  A    between atoms: C_5  and  C_11 
REMARK    4  A    between atoms: C_12  and  C_13 
ROOT
ATOM      1  O   UNL A   1     -53.479  50.431   7.953  1.00  0.00    -0.358 OA
ATOM      2  H   UNL A   1     -52.658  50.725   7.610  1.00  0.00     0.217 HD
ENDROOT
BRANCH   1   3
ATOM      3  C   UNL A   1     -53.508  49.488   8.935  1.00  0.00     0.099 A 
ATOM      4  C   UNL A   1     -53.247  49.861  10.253  1.00  0.00     0.050 A 
ATOM      5  C   UNL A   1     -53.276  48.904  11.268  1.00  0.00    -0.033 A 
ATOM      6  C   UNL A   1     -53.567  47.574  10.964  1.00  0.00     0.014 A 
ATOM      7  C   UNL A   1     -53.829  47.201   9.646  1.00  0.00     0.040 A 
ATOM      8  C   UNL A   1     -53.799  48.158   8.632  1.00  0.00     0.098 A 
BRANCH   5   9
ATOM      9  C   UNL A   1     -53.002  49.293  12.642  1.00  0.00     0.018 C 
ATOM     10  C   UNL A   1     -52.392  48.491  13.511  1.00  0.00     0.085 C 
BRANCH  10  11
ATOM     11  C   UNL A   1     -52.177  48.977  14.889  1.00  0.00     0.198 C 
ATOM     12  O   UNL A   1     -51.180  48.255  15.453  1.00  0.00    -0.645 OA
ATOM     13  O   UNL A   1     -52.785  49.876  15.444  1.00  0.00    -0.645 OA
ENDBRANCH  10  11
ENDBRANCH   5   9
BRANCH   8  14
ATOM     14  O   UNL A   1     -54.058  47.782   7.348  1.00  0.00    -0.358 OA
ATOM     15  H   UNL A   1     -54.564  47.012   7.179  1.00  0.00     0.217 HD
ENDBRANCH   8  14
ENDBRANCH   1   3
TORSDOF 4
ENDMDL
MODEL 2
REMARK VINA RESULT:      -6.3      2.570      5.133
REMARK  4 active torsions:
REMARK  status: ('A' for Active; 'I' for Inactive)
REMARK    1  A    between atoms: O_1  and  C_8 
REMARK    2  A    between atoms: O_2  and  C_9 
REMARK    3  A    between atoms: C_5  and  C_11 
REMARK    4  A    between atoms: C_12  and  C_13 
ROOT
ATOM      1  O   UNL A   1     -53.645  51.850   8.920  1.00  0.00    -0.358 OA
ATOM      2  H   UNL A   1     -54.163  51.828   8.140  1.00  0.00     0.217 HD
ENDROOT
BRANCH   1   3
ATOM      3  C   UNL A   1     -53.568  50.748   9.717  1.00  0.00     0.099 A 
ATOM      4  C   UNL A   1     -53.566  49.480   9.138  1.00  0.00     0.050 A 
ATOM      5  C   UNL A   1     -53.485  48.344   9.944  1.00  0.00    -0.033 A 
ATOM      6  C   UNL A   1     -53.404  48.478  11.330  1.00  0.00     0.014 A 
ATOM      7  C   UNL A   1     -53.405  49.747  11.910  1.00  0.00     0.040 A 
ATOM      8  C   UNL A   1     -53.487  50.882  11.103  1.00  0.00     0.098 A 
BRANCH   5   9
ATOM      9  C   UNL A   1     -53.485  47.022   9.340  1.00  0.00     0.018 C 
ATOM     10  C   UNL A   1     -54.585  46.284   9.218  1.00  0.00     0.085 C 
BRANCH  10  11
ATOM     11  C   UNL A   1     -54.474  44.946   8.604  1.00  0.00     0.198 C 
ATOM     12  O   UNL A   1     -54.111  45.092   7.308  1.00  0.00    -0.645 OA
ATOM     13  O   UNL A   1     -54.671  43.876   9.155  1.00  0.00    -0.645 OA
ENDBRANCH  10  11
ENDBRANCH   5   9
BRANCH   8  14
ATOM     14  O   UNL A   1     -53.485  52.115  11.681  1.00  0.00    -0.358 OA
ATOM     15  H   UNL A   1     -53.924  52.829  11.261  1.00  0.00     0.217 HD
ENDBRANCH   8  14
ENDBRANCH   1   3
TORSDOF 4
ENDMDL
MODEL 3
REMARK VINA RESULT:      -6.3      1.870      2.909
REMARK  4 active torsions:
REMARK  status: ('A' for Active; 'I' for Inactive)
REMARK    1  A    between atoms: O_1  and  C_8 
REMARK    2  A    between atoms: O_2  and  C_9 
REMARK    3  A    between atoms: C_5  and  C_11 
REMARK    4  A    between atoms: C_12  and  C_13 
ROOT
ATOM      1  O   UNL A   1     -53.546  49.774   7.870  1.00  0.00    -0.358 OA
ATOM      2  H   UNL A   1     -53.176  49.078   7.363  1.00  0.00     0.217 HD
ENDROOT
BRANCH   1   3
ATOM      3  C   UNL A   1     -53.448  49.754   9.228  1.00  0.00     0.099 A 
ATOM      4  C   UNL A   1     -53.158  48.554   9.879  1.00  0.00     0.050 A 
ATOM      5  C   UNL A   1     -53.054  48.522  11.270  1.00  0.00    -0.033 A 
ATOM      6  C   UNL A   1     -53.237  49.690  12.009  1.00  0.00     0.014 A 
ATOM      7  C   UNL A   1     -53.525  50.890  11.359  1.00  0.00     0.040 A 
ATOM      8  C   UNL A   1     -53.631  50.921   9.968  1.00  0.00     0.098 A 
BRANCH   5   9
ATOM      9  C   UNL A   1     -52.754  47.271  11.947  1.00  0.00     0.018 C 
ATOM     10  C   UNL A   1     -52.112  47.217  13.111  1.00  0.00     0.085 C 
BRANCH  10  11
ATOM     11  C   UNL A   1     -51.842  45.893  13.707  1.00  0.00     0.198 C 
ATOM     12  O   UNL A   1     -50.913  46.038  14.682  1.00  0.00    -0.645 OA
ATOM     13  O   UNL A   1     -52.357  44.835  13.389  1.00  0.00    -0.645 OA
ENDBRANCH  10  11
ENDBRANCH   5   9
BRANCH   8  14
ATOM     14  O   UNL A   1     -53.911  52.099   9.345  1.00  0.00    -0.358 OA
ATOM     15  H   UNL A   1     -53.625  52.908   9.721  1.00  0.00     0.217 HD
ENDBRANCH   8  14
ENDBRANCH   1   3
TORSDOF 4
ENDMDL
MODEL 4
REMARK VINA RESULT:      -6.1      2.534      5.387
REMARK  4 active torsions:
REMARK  status: ('A' for Active; 'I' for Inactive)
REMARK    1  A    between atoms: O_1  and  C_8 
REMARK    2  A    between atoms: O_2  and  C_9 
REMARK    3  A    between atoms: C_5  and  C_11 
REMARK    4  A    between atoms: C_12  and  C_13 
ROOT
ATOM      1  O   UNL A   1     -53.599  51.923   9.037  1.00  0.00    -0.358 OA
ATOM      2  H   UNL A   1     -53.735  52.745   9.465  1.00  0.00     0.217 HD
ENDROOT
BRANCH   1   3
ATOM      3  C   UNL A   1     -53.583  50.772   9.765  1.00  0.00     0.099 A 
ATOM      4  C   UNL A   1     -53.654  49.543   9.109  1.00  0.00     0.050 A 
ATOM      5  C   UNL A   1     -53.636  48.357   9.844  1.00  0.00    -0.033 A 
ATOM      6  C   UNL A   1     -53.545  48.401  11.236  1.00  0.00     0.014 A 
ATOM      7  C   UNL A   1     -53.474  49.630  11.891  1.00  0.00     0.040 A 
ATOM      8  C   UNL A   1     -53.493  50.815  11.156  1.00  0.00     0.098 A 
BRANCH   5   9
ATOM      9  C   UNL A   1     -53.712  47.077   9.160  1.00  0.00     0.018 C 
ATOM     10  C   UNL A   1     -53.156  46.860   7.971  1.00  0.00     0.085 C 
BRANCH  10  11
ATOM     11  C   UNL A   1     -53.306  45.527   7.354  1.00  0.00     0.198 C 
ATOM     12  O   UNL A   1     -54.443  44.958   7.821  1.00  0.00    -0.645 OA
ATOM     13  O   UNL A   1     -52.544  45.007   6.556  1.00  0.00    -0.645 OA
ENDBRANCH  10  11
ENDBRANCH   5   9
BRANCH   8  14
ATOM     14  O   UNL A   1     -53.421  52.009  11.808  1.00  0.00    -0.358 OA
ATOM     15  H   UNL A   1     -52.939  52.077  12.609  1.00  0.00     0.217 HD
ENDBRANCH   8  14
ENDBRANCH   1   3
TORSDOF 4
ENDMDL
MODEL 5
REMARK VINA RESULT:      -6.1      2.383      3.386
REMARK  4 active torsions:
REMARK  status: ('A' for Active; 'I' for Inactive)
REMARK    1  A    between atoms: O_1  and  C_8 
REMARK    2  A    between atoms: O_2  and  C_9 
REMARK    3  A    between atoms: C_5  and  C_11 
REMARK    4  A    between atoms: C_12  and  C_13 
ROOT
ATOM      1  O   UNL A   1     -53.578  49.687   7.877  1.00  0.00    -0.358 OA
ATOM      2  H   UNL A   1     -54.258  49.178   7.481  1.00  0.00     0.217 HD
ENDROOT
BRANCH   1   3
ATOM      3  C   UNL A   1     -53.471  49.744   9.234  1.00  0.00     0.099 A 
ATOM      4  C   UNL A   1     -53.183  48.581   9.949  1.00  0.00     0.050 A 
ATOM      5  C   UNL A   1     -53.070  48.628  11.339  1.00  0.00    -0.033 A 
ATOM      6  C   UNL A   1     -53.243  49.837  12.012  1.00  0.00     0.014 A 
ATOM      7  C   UNL A   1     -53.530  50.999  11.297  1.00  0.00     0.040 A 
ATOM      8  C   UNL A   1     -53.644  50.952   9.908  1.00  0.00     0.098 A 
BRANCH   5   9
ATOM      9  C   UNL A   1     -52.771  47.416  12.084  1.00  0.00     0.018 C 
ATOM     10  C   UNL A   1     -52.175  46.360  11.536  1.00  0.00     0.085 C 
BRANCH  10  11
ATOM     11  C   UNL A   1     -51.932  45.171  12.377  1.00  0.00     0.198 C 
ATOM     12  O   UNL A   1     -51.281  44.242  11.638  1.00  0.00    -0.645 OA
ATOM     13  O   UNL A   1     -52.256  45.029  13.544  1.00  0.00    -0.645 OA
ENDBRANCH  10  11
ENDBRANCH   5   9
BRANCH   8  14
ATOM     14  O   UNL A   1     -53.924  52.094   9.220  1.00  0.00    -0.358 OA
ATOM     15  H   UNL A   1     -53.676  52.172   8.320  1.00  0.00     0.217 HD
ENDBRANCH   8  14
ENDBRANCH   1   3
TORSDOF 4
ENDMDL
MODEL 6
REMARK VINA RESULT:      -6.0      2.259      5.334
REMARK  4 active torsions:
REMARK  status: ('A' for Active; 'I' for Inactive)
REMARK    1  A    between atoms: O_1  and  C_8 
REMARK    2  A    between atoms: O_2  and  C_9 
REMARK    3  A    between atoms: C_5  and  C_11 
REMARK    4  A    between atoms: C_12  and  C_13 
ROOT
ATOM      1  O   UNL A   1     -52.893  49.890  13.387  1.00  0.00    -0.358 OA
ATOM      2  H   UNL A   1     -52.001  49.939  13.669  1.00  0.00     0.217 HD
ENDROOT
BRANCH   1   3
ATOM      3  C   UNL A   1     -53.181  49.676  12.073  1.00  0.00     0.099 A 
ATOM      4  C   UNL A   1     -53.196  48.372  11.576  1.00  0.00     0.050 A 
ATOM      5  C   UNL A   1     -53.491  48.141  10.233  1.00  0.00    -0.033 A 
ATOM      6  C   UNL A   1     -53.774  49.213   9.387  1.00  0.00     0.014 A 
ATOM      7  C   UNL A   1     -53.760  50.517   9.884  1.00  0.00     0.040 A 
ATOM      8  C   UNL A   1     -53.463  50.747  11.227  1.00  0.00     0.098 A 
BRANCH   5   9
ATOM      9  C   UNL A   1     -53.505  46.782   9.715  1.00  0.00     0.018 C 
ATOM     10  C   UNL A   1     -54.604  46.202   9.242  1.00  0.00     0.085 C 
BRANCH  10  11
ATOM     11  C   UNL A   1     -54.514  44.811   8.755  1.00  0.00     0.198 C 
ATOM     12  O   UNL A   1     -53.882  44.064   9.691  1.00  0.00    -0.645 OA
ATOM     13  O   UNL A   1     -54.932  44.386   7.691  1.00  0.00    -0.645 OA
ENDBRANCH  10  11
ENDBRANCH   5   9
BRANCH   8  14
ATOM     14  O   UNL A   1     -53.454  52.024  11.701  1.00  0.00    -0.358 OA
ATOM     15  H   UNL A   1     -53.053  52.215  12.526  1.00  0.00     0.217 HD
ENDBRANCH   8  14
ENDBRANCH   1   3
TORSDOF 4
ENDMDL
MODEL 7
REMARK VINA RESULT:      -6.0      3.179      4.183
REMARK  4 active torsions:
REMARK  status: ('A' for Active; 'I' for Inactive)
REMARK    1  A    between atoms: O_1  and  C_8 
REMARK    2  A    between atoms: O_2  and  C_9 
REMARK    3  A    between atoms: C_5  and  C_11 
REMARK    4  A    between atoms: C_12  and  C_13 
ROOT
ATOM      1  O   UNL A   1     -56.461  45.719   8.998  1.00  0.00    -0.358 OA
ATOM      2  H   UNL A   1     -56.496  45.114   8.283  1.00  0.00     0.217 HD
ENDROOT
BRANCH   1   3
ATOM      3  C   UNL A   1     -55.283  46.319   9.325  1.00  0.00     0.099 A 
ATOM      4  C   UNL A   1     -55.285  47.640   9.772  1.00  0.00     0.050 A 
ATOM      5  C   UNL A   1     -54.084  48.264  10.111  1.00  0.00    -0.033 A 
ATOM      6  C   UNL A   1     -52.882  47.566  10.005  1.00  0.00     0.014 A 
ATOM      7  C   UNL A   1     -52.879  46.245   9.558  1.00  0.00     0.040 A 
ATOM      8  C   UNL A   1     -54.080  45.622   9.218  1.00  0.00     0.098 A 
BRANCH   5   9
ATOM      9  C   UNL A   1     -54.088  49.642  10.576  1.00  0.00     0.018 C 
ATOM     10  C   UNL A   1     -53.706  50.662   9.812  1.00  0.00     0.085 C 
BRANCH  10  11
ATOM     11  C   UNL A   1     -53.731  52.022  10.386  1.00  0.00     0.198 C 
ATOM     12  O   UNL A   1     -54.264  52.869   9.474  1.00  0.00    -0.645 OA
ATOM     13  O   UNL A   1     -53.340  52.349  11.494  1.00  0.00    -0.645 OA
ENDBRANCH  10  11
ENDBRANCH   5   9
BRANCH   8  14
ATOM     14  O   UNL A   1     -54.064  44.330   8.784  1.00  0.00    -0.358 OA
ATOM     15  H   UNL A   1     -54.778  43.998   8.277  1.00  0.00     0.217 HD
ENDBRANCH   8  14
ENDBRANCH   1   3
TORSDOF 4
ENDMDL
MODEL 8
REMARK VINA RESULT:      -5.9      3.222      5.086
REMARK  4 active torsions:
REMARK  status: ('A' for Active; 'I' for Inactive)
REMARK    1  A    between atoms: O_1  and  C_8 
REMARK    2  A    between atoms: O_2  and  C_9 
REMARK    3  A    between atoms: C_5  and  C_11 
REMARK    4  A    between atoms: C_12  and  C_13 
ROOT
ATOM      1  O   UNL A   1     -53.529  45.142   5.025  1.00  0.00    -0.358 OA
ATOM      2  H   UNL A   1     -54.247  45.371   4.467  1.00  0.00     0.217 HD
ENDROOT
BRANCH   1   3
ATOM      3  C   UNL A   1     -52.760  46.120   5.580  1.00  0.00     0.099 A 
ATOM      4  C   UNL A   1     -53.167  46.722   6.770  1.00  0.00     0.050 A 
ATOM      5  C   UNL A   1     -52.386  47.723   7.349  1.00  0.00    -0.033 A 
ATOM      6  C   UNL A   1     -51.197  48.120   6.737  1.00  0.00     0.014 A 
ATOM      7  C   UNL A   1     -50.790  47.517   5.547  1.00  0.00     0.040 A 
ATOM      8  C   UNL A   1     -51.571  46.517   4.968  1.00  0.00     0.098 A 
BRANCH   5   9
ATOM      9  C   UNL A   1     -52.811  48.351   8.589  1.00  0.00     0.018 C 
ATOM     10  C   UNL A   1     -53.301  49.587   8.640  1.00  0.00     0.085 C 
BRANCH  10  11
ATOM     11  C   UNL A   1     -53.688  50.139   9.954  1.00  0.00     0.198 C 
ATOM     12  O   UNL A   1     -53.949  51.460   9.810  1.00  0.00    -0.645 OA
ATOM     13  O   UNL A   1     -53.766  49.524  11.004  1.00  0.00    -0.645 OA
ENDBRANCH  10  11
ENDBRANCH   5   9
BRANCH   8  14
ATOM     14  O   UNL A   1     -51.162  45.935   3.807  1.00  0.00    -0.358 OA
ATOM     15  H   UNL A   1     -51.739  45.361   3.342  1.00  0.00     0.217 HD
ENDBRANCH   8  14
ENDBRANCH   1   3
TORSDOF 4
ENDMDL
MODEL 9
REMARK VINA RESULT:      -5.8      2.328      3.084
REMARK  4 active torsions:
REMARK  status: ('A' for Active; 'I' for Inactive)
REMARK    1  A    between atoms: O_1  and  C_8 
REMARK    2  A    between atoms: O_2  and  C_9 
REMARK    3  A    between atoms: C_5  and  C_11 
REMARK    4  A    between atoms: C_12  and  C_13 
ROOT
ATOM      1  O   UNL A   1     -53.603  52.066  11.646  1.00  0.00    -0.358 OA
ATOM      2  H   UNL A   1     -53.292  52.331  12.489  1.00  0.00     0.217 HD
ENDROOT
BRANCH   1   3
ATOM      3  C   UNL A   1     -53.430  50.781  11.229  1.00  0.00     0.099 A 
ATOM      4  C   UNL A   1     -53.182  49.782  12.170  1.00  0.00     0.050 A 
ATOM      5  C   UNL A   1     -53.004  48.461  11.755  1.00  0.00    -0.033 A 
ATOM      6  C   UNL A   1     -53.077  48.141  10.400  1.00  0.00     0.014 A 
ATOM      7  C   UNL A   1     -53.326  49.140   9.459  1.00  0.00     0.040 A 
ATOM      8  C   UNL A   1     -53.502  50.460   9.874  1.00  0.00     0.098 A 
BRANCH   5   9
ATOM      9  C   UNL A   1     -52.744  47.420  12.736  1.00  0.00     0.018 C 
ATOM     10  C   UNL A   1     -51.878  46.432  12.527  1.00  0.00     0.085 C 
BRANCH  10  11
ATOM     11  C   UNL A   1     -51.700  45.414  13.582  1.00  0.00     0.198 C 
ATOM     12  O   UNL A   1     -52.439  44.325  13.263  1.00  0.00    -0.645 OA
ATOM     13  O   UNL A   1     -51.008  45.518  14.581  1.00  0.00    -0.645 OA
ENDBRANCH  10  11
ENDBRANCH   5   9
BRANCH   8  14
ATOM     14  O   UNL A   1     -53.746  51.427   8.946  1.00  0.00    -0.358 OA
ATOM     15  H   UNL A   1     -53.727  52.330   9.195  1.00  0.00     0.217 HD
ENDBRANCH   8  14
ENDBRANCH   1   3
TORSDOF 4
ENDMDL
