MODEL 1
REMARK VINA RESULT:      -2.9      0.000      0.000
REMARK  0 active torsions:
REMARK  status: ('A' for Active; 'I' for Inactive)
ROOT
ATOM      1  O   UNL A   1      -3.154  -0.322  50.097  1.00  0.00    -0.648 OA
ATOM      2  O   UNL A   1      -4.486  -1.970  49.233  1.00  0.00    -0.648 OA
ATOM      3  C   UNL A   1      -5.412   0.150  49.633  1.00  0.00     0.129 C 
ATOM      4  C   UNL A   1      -4.233  -0.808  49.657  1.00  0.00     0.168 C 
ENDROOT
TORSDOF 0
ENDMDL
MODEL 2
REMARK VINA RESULT:      -2.8      1.696      2.193
REMARK  0 active torsions:
REMARK  status: ('A' for Active; 'I' for Inactive)
ROOT
ATOM      1  O   UNL A   1      -3.989  -1.695  51.748  1.00  0.00    -0.648 OA
ATOM      2  O   UNL A   1      -3.298  -0.453  49.956  1.00  0.00    -0.648 OA
ATOM      3  C   UNL A   1      -4.325  -2.529  49.574  1.00  0.00     0.129 C 
ATOM      4  C   UNL A   1      -3.821  -1.453  50.521  1.00  0.00     0.168 C 
ENDROOT
TORSDOF 0
ENDMDL
MODEL 3
REMARK VINA RESULT:      -2.8      1.211      2.118
REMARK  0 active torsions:
REMARK  status: ('A' for Active; 'I' for Inactive)
ROOT
ATOM      1  O   UNL A   1      -5.253  -0.273  49.258  1.00  0.00    -0.648 OA
ATOM      2  O   UNL A   1      -3.134  -0.328  50.119  1.00  0.00    -0.648 OA
ATOM      3  C   UNL A   1      -4.291  -2.347  49.814  1.00  0.00     0.129 C 
ATOM      4  C   UNL A   1      -4.220  -0.833  49.720  1.00  0.00     0.168 C 
ENDROOT
TORSDOF 0
ENDMDL
MODEL 4
REMARK VINA RESULT:      -2.7     15.903     16.424
REMARK  0 active torsions:
REMARK  status: ('A' for Active; 'I' for Inactive)
ROOT
ATOM      1  O   UNL A   1       8.173  -3.031  59.615  1.00  0.00    -0.648 OA
ATOM      2  O   UNL A   1       6.403  -4.373  60.162  1.00  0.00    -0.648 OA
ATOM      3  C   UNL A   1       8.551  -4.964  60.902  1.00  0.00     0.129 C 
ATOM      4  C   UNL A   1       7.618  -4.029  60.152  1.00  0.00     0.168 C 
ENDROOT
TORSDOF 0
ENDMDL
MODEL 5
REMARK VINA RESULT:      -2.7     15.899     16.481
REMARK  0 active torsions:
REMARK  status: ('A' for Active; 'I' for Inactive)
ROOT
ATOM      1  O   UNL A   1       6.394  -4.309  60.185  1.00  0.00    -0.648 OA
ATOM      2  O   UNL A   1       8.200  -3.047  59.572  1.00  0.00    -0.648 OA
ATOM      3  C   UNL A   1       8.539  -4.939  60.919  1.00  0.00     0.129 C 
ATOM      4  C   UNL A   1       7.619  -4.007  60.149  1.00  0.00     0.168 C 
ENDROOT
TORSDOF 0
ENDMDL
MODEL 6
REMARK VINA RESULT:      -2.6     17.459     18.142
REMARK  0 active torsions:
REMARK  status: ('A' for Active; 'I' for Inactive)
ROOT
ATOM      1  O   UNL A   1      11.686   4.629  49.220  1.00  0.00    -0.648 OA
ATOM      2  O   UNL A   1      12.284   6.229  47.698  1.00  0.00    -0.648 OA
ATOM      3  C   UNL A   1      13.951   5.233  49.016  1.00  0.00     0.129 C 
ATOM      4  C   UNL A   1      12.495   5.377  48.605  1.00  0.00     0.168 C 
ENDROOT
TORSDOF 0
ENDMDL
MODEL 7
REMARK VINA RESULT:      -2.5     16.000     16.594
REMARK  0 active torsions:
REMARK  status: ('A' for Active; 'I' for Inactive)
ROOT
ATOM      1  O   UNL A   1       8.445  -5.218  60.954  1.00  0.00    -0.648 OA
ATOM      2  O   UNL A   1       8.407  -3.122  60.038  1.00  0.00    -0.648 OA
ATOM      3  C   UNL A   1       6.535  -4.513  59.776  1.00  0.00     0.129 C 
ATOM      4  C   UNL A   1       7.934  -4.261  60.310  1.00  0.00     0.168 C 
ENDROOT
TORSDOF 0
ENDMDL
MODEL 8
REMARK VINA RESULT:      -2.4     11.561     12.084
REMARK  0 active torsions:
REMARK  status: ('A' for Active; 'I' for Inactive)
ROOT
ATOM      1  O   UNL A   1       4.859   0.584  55.762  1.00  0.00    -0.648 OA
ATOM      2  O   UNL A   1       5.877   0.187  57.772  1.00  0.00    -0.648 OA
ATOM      3  C   UNL A   1       4.191   1.815  57.653  1.00  0.00     0.129 C 
ATOM      4  C   UNL A   1       5.061   0.757  56.996  1.00  0.00     0.168 C 
ENDROOT
TORSDOF 0
ENDMDL
MODEL 9
REMARK VINA RESULT:      -2.4     13.875     14.327
REMARK  0 active torsions:
REMARK  status: ('A' for Active; 'I' for Inactive)
ROOT
ATOM      1  O   UNL A   1       4.797  -5.961  59.408  1.00  0.00    -0.648 OA
ATOM      2  O   UNL A   1       5.994  -4.105  60.005  1.00  0.00    -0.648 OA
ATOM      3  C   UNL A   1       5.570  -4.503  57.731  1.00  0.00     0.129 C 
ATOM      4  C   UNL A   1       5.440  -4.897  59.192  1.00  0.00     0.168 C 
ENDROOT
TORSDOF 0
ENDMDL
