MODEL 1
REMARK VINA RESULT:      -2.9      0.000      0.000
REMARK  0 active torsions:
REMARK  status: ('A' for Active; 'I' for Inactive)
ROOT
ATOM      1  O   UNL A   1      -4.464  -1.961  49.284  1.00  0.00    -0.648 OA
ATOM      2  O   UNL A   1      -3.167  -0.279  50.133  1.00  0.00    -0.648 OA
ATOM      3  C   UNL A   1      -5.420   0.159  49.643  1.00  0.00     0.129 C 
ATOM      4  C   UNL A   1      -4.234  -0.789  49.691  1.00  0.00     0.168 C 
ENDROOT
TORSDOF 0
ENDMDL
MODEL 2
REMARK VINA RESULT:      -2.8      1.700      2.190
REMARK  0 active torsions:
REMARK  status: ('A' for Active; 'I' for Inactive)
ROOT
ATOM      1  O   UNL A   1      -3.256  -0.447  49.971  1.00  0.00    -0.648 OA
ATOM      2  O   UNL A   1      -3.993  -1.677  51.754  1.00  0.00    -0.648 OA
ATOM      3  C   UNL A   1      -4.309  -2.516  49.585  1.00  0.00     0.129 C 
ATOM      4  C   UNL A   1      -3.802  -1.439  50.529  1.00  0.00     0.168 C 
ENDROOT
TORSDOF 0
ENDMDL
MODEL 3
REMARK VINA RESULT:      -2.8      1.687      2.011
REMARK  0 active torsions:
REMARK  status: ('A' for Active; 'I' for Inactive)
ROOT
ATOM      1  O   UNL A   1      -3.990  -1.695  51.749  1.00  0.00    -0.648 OA
ATOM      2  O   UNL A   1      -3.298  -0.453  49.956  1.00  0.00    -0.648 OA
ATOM      3  C   UNL A   1      -4.325  -2.529  49.574  1.00  0.00     0.129 C 
ATOM      4  C   UNL A   1      -3.822  -1.453  50.521  1.00  0.00     0.168 C 
ENDROOT
TORSDOF 0
ENDMDL
MODEL 4
REMARK VINA RESULT:      -2.7     15.886     16.411
REMARK  0 active torsions:
REMARK  status: ('A' for Active; 'I' for Inactive)
ROOT
ATOM      1  O   UNL A   1       6.391  -4.329  60.182  1.00  0.00    -0.648 OA
ATOM      2  O   UNL A   1       8.197  -3.051  59.602  1.00  0.00    -0.648 OA
ATOM      3  C   UNL A   1       8.533  -4.959  60.926  1.00  0.00     0.129 C 
ATOM      4  C   UNL A   1       7.615  -4.021  60.161  1.00  0.00     0.168 C 
ENDROOT
TORSDOF 0
ENDMDL
MODEL 5
REMARK VINA RESULT:      -2.6     17.462     18.115
REMARK  0 active torsions:
REMARK  status: ('A' for Active; 'I' for Inactive)
ROOT
ATOM      1  O   UNL A   1      11.701   4.636  49.259  1.00  0.00    -0.648 OA
ATOM      2  O   UNL A   1      12.281   6.214  47.708  1.00  0.00    -0.648 OA
ATOM      3  C   UNL A   1      13.965   5.229  49.013  1.00  0.00     0.129 C 
ATOM      4  C   UNL A   1      12.504   5.373  48.622  1.00  0.00     0.168 C 
ENDROOT
TORSDOF 0
ENDMDL
MODEL 6
REMARK VINA RESULT:      -2.5     11.512     11.983
REMARK  0 active torsions:
REMARK  status: ('A' for Active; 'I' for Inactive)
ROOT
ATOM      1  O   UNL A   1       4.826   0.597  55.746  1.00  0.00    -0.648 OA
ATOM      2  O   UNL A   1       5.854   0.202  57.751  1.00  0.00    -0.648 OA
ATOM      3  C   UNL A   1       4.173   1.836  57.637  1.00  0.00     0.129 C 
ATOM      4  C   UNL A   1       5.035   0.773  56.978  1.00  0.00     0.168 C 
ENDROOT
TORSDOF 0
ENDMDL
MODEL 7
REMARK VINA RESULT:      -2.5     15.696     16.298
REMARK  0 active torsions:
REMARK  status: ('A' for Active; 'I' for Inactive)
ROOT
ATOM      1  O   UNL A   1       8.213  -2.959  59.453  1.00  0.00    -0.648 OA
ATOM      2  O   UNL A   1       8.419  -4.678  60.949  1.00  0.00    -0.648 OA
ATOM      3  C   UNL A   1       6.434  -4.477  59.713  1.00  0.00     0.129 C 
ATOM      4  C   UNL A   1       7.826  -3.988  60.073  1.00  0.00     0.168 C 
ENDROOT
TORSDOF 0
ENDMDL
MODEL 8
REMARK VINA RESULT:      -2.4     13.874     14.238
REMARK  0 active torsions:
REMARK  status: ('A' for Active; 'I' for Inactive)
ROOT
ATOM      1  O   UNL A   1       4.812  -5.943  59.415  1.00  0.00    -0.648 OA
ATOM      2  O   UNL A   1       6.016  -4.095  60.022  1.00  0.00    -0.648 OA
ATOM      3  C   UNL A   1       5.592  -4.479  57.746  1.00  0.00     0.129 C 
ATOM      4  C   UNL A   1       5.459  -4.880  59.205  1.00  0.00     0.168 C 
ENDROOT
TORSDOF 0
ENDMDL
MODEL 9
REMARK VINA RESULT:      -2.4     17.487     18.131
REMARK  0 active torsions:
REMARK  status: ('A' for Active; 'I' for Inactive)
ROOT
ATOM      1  O   UNL A   1      13.878   4.881  49.074  1.00  0.00    -0.648 OA
ATOM      2  O   UNL A   1      11.601   4.681  49.160  1.00  0.00    -0.648 OA
ATOM      3  C   UNL A   1      12.544   6.405  47.877  1.00  0.00     0.129 C 
ATOM      4  C   UNL A   1      12.691   5.204  48.794  1.00  0.00     0.168 C 
ENDROOT
TORSDOF 0
ENDMDL
