MODEL 1
REMARK VINA RESULT:      -2.9      0.000      0.000
REMARK  0 active torsions:
REMARK  status: ('A' for Active; 'I' for Inactive)
ROOT
ATOM      1  O   UNL A   1      -5.647  -4.830  46.150  1.00  0.00    -0.648 OA
ATOM      2  O   UNL A   1      -4.556  -3.485  47.644  1.00  0.00    -0.648 OA
ATOM      3  C   UNL A   1      -6.718  -2.893  46.947  1.00  0.00     0.129 C 
ATOM      4  C   UNL A   1      -5.522  -3.830  46.909  1.00  0.00     0.168 C 
ENDROOT
TORSDOF 0
ENDMDL
MODEL 2
REMARK VINA RESULT:      -2.9      0.045      1.618
REMARK  0 active torsions:
REMARK  status: ('A' for Active; 'I' for Inactive)
ROOT
ATOM      1  O   UNL A   1      -4.582  -3.508  47.648  1.00  0.00    -0.648 OA
ATOM      2  O   UNL A   1      -5.705  -4.805  46.135  1.00  0.00    -0.648 OA
ATOM      3  C   UNL A   1      -6.734  -2.860  46.951  1.00  0.00     0.129 C 
ATOM      4  C   UNL A   1      -5.556  -3.818  46.908  1.00  0.00     0.168 C 
ENDROOT
TORSDOF 0
ENDMDL
MODEL 3
REMARK VINA RESULT:      -2.8      1.246      1.640
REMARK  0 active torsions:
REMARK  status: ('A' for Active; 'I' for Inactive)
ROOT
ATOM      1  O   UNL A   1      -6.484  -3.049  46.515  1.00  0.00    -0.648 OA
ATOM      2  O   UNL A   1      -4.532  -3.507  47.617  1.00  0.00    -0.648 OA
ATOM      3  C   UNL A   1      -5.726  -5.273  46.635  1.00  0.00     0.129 C 
ATOM      4  C   UNL A   1      -5.566  -3.796  46.953  1.00  0.00     0.168 C 
ENDROOT
TORSDOF 0
ENDMDL
MODEL 4
REMARK VINA RESULT:      -2.8      1.236      2.075
REMARK  0 active torsions:
REMARK  status: ('A' for Active; 'I' for Inactive)
ROOT
ATOM      1  O   UNL A   1      -4.542  -3.500  47.635  1.00  0.00    -0.648 OA
ATOM      2  O   UNL A   1      -6.464  -3.065  46.474  1.00  0.00    -0.648 OA
ATOM      3  C   UNL A   1      -5.701  -5.280  46.624  1.00  0.00     0.129 C 
ATOM      4  C   UNL A   1      -5.553  -3.802  46.943  1.00  0.00     0.168 C 
ENDROOT
TORSDOF 0
ENDMDL
MODEL 5
REMARK VINA RESULT:      -2.7     15.940     16.474
REMARK  0 active torsions:
REMARK  status: ('A' for Active; 'I' for Inactive)
ROOT
ATOM      1  O   UNL A   1       3.480 -10.251  57.610  1.00  0.00    -0.648 OA
ATOM      2  O   UNL A   1       5.375  -8.972  57.689  1.00  0.00    -0.648 OA
ATOM      3  C   UNL A   1       5.475 -11.200  58.421  1.00  0.00     0.129 C 
ATOM      4  C   UNL A   1       4.699 -10.026  57.850  1.00  0.00     0.168 C 
ENDROOT
TORSDOF 0
ENDMDL
MODEL 6
REMARK VINA RESULT:      -2.7      3.414      3.910
REMARK  0 active torsions:
REMARK  status: ('A' for Active; 'I' for Inactive)
ROOT
ATOM      1  O   UNL A   1      -7.288  -2.130  46.069  1.00  0.00    -0.648 OA
ATOM      2  O   UNL A   1      -9.442  -2.634  46.650  1.00  0.00    -0.648 OA
ATOM      3  C   UNL A   1      -8.992  -0.566  45.637  1.00  0.00     0.129 C 
ATOM      4  C   UNL A   1      -8.526  -1.909  46.171  1.00  0.00     0.168 C 
ENDROOT
TORSDOF 0
ENDMDL
MODEL 7
REMARK VINA RESULT:      -2.6     15.815     16.400
REMARK  0 active torsions:
REMARK  status: ('A' for Active; 'I' for Inactive)
ROOT
ATOM      1  O   UNL A   1       5.435 -10.873  58.589  1.00  0.00    -0.648 OA
ATOM      2  O   UNL A   1       5.462  -8.814  57.591  1.00  0.00    -0.648 OA
ATOM      3  C   UNL A   1       3.665 -10.262  57.163  1.00  0.00     0.129 C 
ATOM      4  C   UNL A   1       4.985  -9.954  57.850  1.00  0.00     0.168 C 
ENDROOT
TORSDOF 0
ENDMDL
MODEL 8
REMARK VINA RESULT:      -2.6     15.788     16.394
REMARK  0 active torsions:
REMARK  status: ('A' for Active; 'I' for Inactive)
ROOT
ATOM      1  O   UNL A   1       5.450  -8.756  57.534  1.00  0.00    -0.648 OA
ATOM      2  O   UNL A   1       5.436 -10.761  58.634  1.00  0.00    -0.648 OA
ATOM      3  C   UNL A   1       3.679 -10.259  57.162  1.00  0.00     0.129 C 
ATOM      4  C   UNL A   1       4.984  -9.887  57.843  1.00  0.00     0.168 C 
ENDROOT
TORSDOF 0
ENDMDL
MODEL 9
REMARK VINA RESULT:      -2.6     17.529     18.178
REMARK  0 active torsions:
REMARK  status: ('A' for Active; 'I' for Inactive)
ROOT
ATOM      1  O   UNL A   1      10.219   1.191  50.274  1.00  0.00    -0.648 OA
ATOM      2  O   UNL A   1      11.056   3.178  49.508  1.00  0.00    -0.648 OA
ATOM      3  C   UNL A   1      12.495   1.686  50.609  1.00  0.00     0.129 C 
ATOM      4  C   UNL A   1      11.120   2.053  50.078  1.00  0.00     0.168 C 
ENDROOT
TORSDOF 0
ENDMDL
