MODEL 1
REMARK VINA RESULT:      -2.9      0.000      0.000
REMARK  0 active torsions:
REMARK  status: ('A' for Active; 'I' for Inactive)
ROOT
ATOM      1  O   UNL A   1      -4.497  -1.952  49.283  1.00  0.00    -0.648 OA
ATOM      2  O   UNL A   1      -3.188  -0.275  50.126  1.00  0.00    -0.648 OA
ATOM      3  C   UNL A   1      -5.439   0.175  49.635  1.00  0.00     0.129 C 
ATOM      4  C   UNL A   1      -4.259  -0.780  49.685  1.00  0.00     0.168 C 
ENDROOT
TORSDOF 0
ENDMDL
MODEL 2
REMARK VINA RESULT:      -2.9      0.048      1.618
REMARK  0 active torsions:
REMARK  status: ('A' for Active; 'I' for Inactive)
ROOT
ATOM      1  O   UNL A   1      -3.152  -0.313  50.109  1.00  0.00    -0.648 OA
ATOM      2  O   UNL A   1      -4.470  -1.977  49.257  1.00  0.00    -0.648 OA
ATOM      3  C   UNL A   1      -5.410   0.142  49.629  1.00  0.00     0.129 C 
ATOM      4  C   UNL A   1      -4.226  -0.809  49.670  1.00  0.00     0.168 C 
ENDROOT
TORSDOF 0
ENDMDL
MODEL 3
REMARK VINA RESULT:      -2.8      1.702      2.024
REMARK  0 active torsions:
REMARK  status: ('A' for Active; 'I' for Inactive)
ROOT
ATOM      1  O   UNL A   1      -3.993  -1.701  51.742  1.00  0.00    -0.648 OA
ATOM      2  O   UNL A   1      -3.305  -0.450  49.954  1.00  0.00    -0.648 OA
ATOM      3  C   UNL A   1      -4.313  -2.534  49.565  1.00  0.00     0.129 C 
ATOM      4  C   UNL A   1      -3.822  -1.456  50.515  1.00  0.00     0.168 C 
ENDROOT
TORSDOF 0
ENDMDL
MODEL 4
REMARK VINA RESULT:      -2.7     15.901     16.488
REMARK  0 active torsions:
REMARK  status: ('A' for Active; 'I' for Inactive)
ROOT
ATOM      1  O   UNL A   1       8.179  -3.042  59.597  1.00  0.00    -0.648 OA
ATOM      2  O   UNL A   1       6.397  -4.365  60.154  1.00  0.00    -0.648 OA
ATOM      3  C   UNL A   1       8.535  -4.951  60.926  1.00  0.00     0.129 C 
ATOM      4  C   UNL A   1       7.614  -4.027  60.148  1.00  0.00     0.168 C 
ENDROOT
TORSDOF 0
ENDMDL
MODEL 5
REMARK VINA RESULT:      -2.7     15.906     16.429
REMARK  0 active torsions:
REMARK  status: ('A' for Active; 'I' for Inactive)
ROOT
ATOM      1  O   UNL A   1       6.388  -4.345  60.179  1.00  0.00    -0.648 OA
ATOM      2  O   UNL A   1       8.182  -3.047  59.603  1.00  0.00    -0.648 OA
ATOM      3  C   UNL A   1       8.536  -4.960  60.916  1.00  0.00     0.129 C 
ATOM      4  C   UNL A   1       7.609  -4.025  60.158  1.00  0.00     0.168 C 
ENDROOT
TORSDOF 0
ENDMDL
MODEL 6
REMARK VINA RESULT:      -2.5     15.893     16.498
REMARK  0 active torsions:
REMARK  status: ('A' for Active; 'I' for Inactive)
ROOT
ATOM      1  O   UNL A   1       8.330  -3.067  59.871  1.00  0.00    -0.648 OA
ATOM      2  O   UNL A   1       8.427  -5.102  60.912  1.00  0.00    -0.648 OA
ATOM      3  C   UNL A   1       6.482  -4.517  59.735  1.00  0.00     0.129 C 
ATOM      4  C   UNL A   1       7.885  -4.195  60.220  1.00  0.00     0.168 C 
ENDROOT
TORSDOF 0
ENDMDL
MODEL 7
REMARK VINA RESULT:      -2.4     13.886     14.247
REMARK  0 active torsions:
REMARK  status: ('A' for Active; 'I' for Inactive)
ROOT
ATOM      1  O   UNL A   1       4.801  -5.961  59.408  1.00  0.00    -0.648 OA
ATOM      2  O   UNL A   1       5.996  -4.105  60.008  1.00  0.00    -0.648 OA
ATOM      3  C   UNL A   1       5.574  -4.499  57.733  1.00  0.00     0.129 C 
ATOM      4  C   UNL A   1       5.443  -4.895  59.194  1.00  0.00     0.168 C 
ENDROOT
TORSDOF 0
ENDMDL
MODEL 8
REMARK VINA RESULT:      -2.4     13.845     14.225
REMARK  0 active torsions:
REMARK  status: ('A' for Active; 'I' for Inactive)
ROOT
ATOM      1  O   UNL A   1       5.742  -3.982  59.939  1.00  0.00    -0.648 OA
ATOM      2  O   UNL A   1       4.772  -5.978  59.384  1.00  0.00    -0.648 OA
ATOM      3  C   UNL A   1       5.525  -4.563  57.670  1.00  0.00     0.129 C 
ATOM      4  C   UNL A   1       5.327  -4.870  59.144  1.00  0.00     0.168 C 
ENDROOT
TORSDOF 0
ENDMDL
MODEL 9
REMARK VINA RESULT:      -2.4     15.437     15.986
REMARK  0 active torsions:
REMARK  status: ('A' for Active; 'I' for Inactive)
ROOT
ATOM      1  O   UNL A   1       6.101  -4.351  60.082  1.00  0.00    -0.648 OA
ATOM      2  O   UNL A   1       8.259  -4.428  60.837  1.00  0.00    -0.648 OA
ATOM      3  C   UNL A   1       7.780  -3.220  58.882  1.00  0.00     0.129 C 
ATOM      4  C   UNL A   1       7.335  -4.085  60.049  1.00  0.00     0.168 C 
ENDROOT
TORSDOF 0
ENDMDL
