MODEL 1
REMARK VINA RESULT:      -8.2      0.000      0.000
REMARK  4 active torsions:
REMARK  status: ('A' for Active; 'I' for Inactive)
REMARK    1  A    between atoms: O_1  and  C_11 
REMARK    2  A    between atoms: C_4  and  C_5 
REMARK    3  A    between atoms: C_4  and  C_6 
REMARK    4  A    between atoms: C_6  and  C_12 
ROOT
ATOM      1  O   UNL A   1     -57.422  45.117   8.532  1.00  0.00    -0.361 OA
ATOM      2  H   UNL A   1     -57.641  44.492   9.195  1.00  0.00     0.217 HD
ENDROOT
BRANCH   1   3
ATOM      3  C   UNL A   1     -56.526  46.106   8.800  1.00  0.00     0.065 A 
ATOM      4  C   UNL A   1     -55.161  45.822   8.828  1.00  0.00     0.037 A 
ATOM      5  C   UNL A   1     -54.243  46.835   9.103  1.00  0.00     0.010 A 
ATOM      6  C   UNL A   1     -54.690  48.133   9.352  1.00  0.00    -0.058 A 
ATOM      7  C   UNL A   1     -56.055  48.417   9.324  1.00  0.00     0.010 A 
ATOM      8  C   UNL A   1     -56.973  47.404   9.048  1.00  0.00     0.037 A 
BRANCH   6   9
ATOM      9  C   UNL A   1     -53.709  49.216   9.646  1.00  0.00     0.049 C 
BRANCH   9  10
ATOM     10  C   UNL A   1     -54.346  50.490  10.212  1.00  0.00     0.117 C 
BRANCH  10  11
ATOM     11  C   UNL A   1     -54.175  51.663   9.277  1.00  0.00     0.172 C 
ATOM     12  O   UNL A   1     -54.652  51.417   8.031  1.00  0.00    -0.648 OA
ATOM     13  O   UNL A   1     -53.684  52.733   9.609  1.00  0.00    -0.648 OA
ENDBRANCH  10  11
ENDBRANCH   9  10
ENDBRANCH   6   9
ENDBRANCH   1   3
TORSDOF 4
ENDMDL
MODEL 2
REMARK VINA RESULT:      -7.7      1.224      1.877
REMARK  4 active torsions:
REMARK  status: ('A' for Active; 'I' for Inactive)
REMARK    1  A    between atoms: O_1  and  C_11 
REMARK    2  A    between atoms: C_4  and  C_5 
REMARK    3  A    between atoms: C_4  and  C_6 
REMARK    4  A    between atoms: C_6  and  C_12 
ROOT
ATOM      1  O   UNL A   1     -54.240  44.093   8.540  1.00  0.00    -0.361 OA
ATOM      2  H   UNL A   1     -54.951  43.496   8.412  1.00  0.00     0.217 HD
ENDROOT
BRANCH   1   3
ATOM      3  C   UNL A   1     -54.493  45.397   8.833  1.00  0.00     0.065 A 
ATOM      4  C   UNL A   1     -55.701  45.978   8.446  1.00  0.00     0.037 A 
ATOM      5  C   UNL A   1     -55.960  47.315   8.744  1.00  0.00     0.010 A 
ATOM      6  C   UNL A   1     -55.011  48.073   9.431  1.00  0.00    -0.058 A 
ATOM      7  C   UNL A   1     -53.803  47.493   9.817  1.00  0.00     0.010 A 
ATOM      8  C   UNL A   1     -53.544  46.156   9.519  1.00  0.00     0.037 A 
BRANCH   6   9
ATOM      9  C   UNL A   1     -55.288  49.503   9.751  1.00  0.00     0.049 C 
BRANCH   9  10
ATOM     10  C   UNL A   1     -54.024  50.356   9.912  1.00  0.00     0.117 C 
BRANCH  10  11
ATOM     11  C   UNL A   1     -54.145  51.673   9.185  1.00  0.00     0.172 C 
ATOM     12  O   UNL A   1     -54.671  51.543   7.941  1.00  0.00    -0.648 OA
ATOM     13  O   UNL A   1     -53.827  52.751   9.670  1.00  0.00    -0.648 OA
ENDBRANCH  10  11
ENDBRANCH   9  10
ENDBRANCH   6   9
ENDBRANCH   1   3
TORSDOF 4
ENDMDL
MODEL 3
REMARK VINA RESULT:      -7.6      1.507      2.038
REMARK  4 active torsions:
REMARK  status: ('A' for Active; 'I' for Inactive)
REMARK    1  A    between atoms: O_1  and  C_11 
REMARK    2  A    between atoms: C_4  and  C_5 
REMARK    3  A    between atoms: C_4  and  C_6 
REMARK    4  A    between atoms: C_6  and  C_12 
ROOT
ATOM      1  O   UNL A   1     -54.369  43.664   7.544  1.00  0.00    -0.361 OA
ATOM      2  H   UNL A   1     -55.103  43.504   6.984  1.00  0.00     0.217 HD
ENDROOT
BRANCH   1   3
ATOM      3  C   UNL A   1     -54.232  44.872   8.156  1.00  0.00     0.065 A 
ATOM      4  C   UNL A   1     -52.969  45.317   8.546  1.00  0.00     0.037 A 
ATOM      5  C   UNL A   1     -52.827  46.553   9.174  1.00  0.00     0.010 A 
ATOM      6  C   UNL A   1     -53.950  47.347   9.414  1.00  0.00    -0.058 A 
ATOM      7  C   UNL A   1     -55.213  46.902   9.024  1.00  0.00     0.010 A 
ATOM      8  C   UNL A   1     -55.354  45.665   8.396  1.00  0.00     0.037 A 
BRANCH   6   9
ATOM      9  C   UNL A   1     -53.799  48.669  10.085  1.00  0.00     0.049 C 
BRANCH   9  10
ATOM     10  C   UNL A   1     -54.895  49.676   9.719  1.00  0.00     0.117 C 
BRANCH  10  11
ATOM     11  C   UNL A   1     -54.328  51.054   9.473  1.00  0.00     0.172 C 
ATOM     12  O   UNL A   1     -53.781  51.605  10.585  1.00  0.00    -0.648 OA
ATOM     13  O   UNL A   1     -54.334  51.608   8.381  1.00  0.00    -0.648 OA
ENDBRANCH  10  11
ENDBRANCH   9  10
ENDBRANCH   6   9
ENDBRANCH   1   3
TORSDOF 4
ENDMDL
MODEL 4
REMARK VINA RESULT:      -7.1      2.126      5.589
REMARK  4 active torsions:
REMARK  status: ('A' for Active; 'I' for Inactive)
REMARK    1  A    between atoms: O_1  and  C_11 
REMARK    2  A    between atoms: C_4  and  C_5 
REMARK    3  A    between atoms: C_4  and  C_6 
REMARK    4  A    between atoms: C_6  and  C_12 
ROOT
ATOM      1  O   UNL A   1     -53.962  50.840  10.470  1.00  0.00    -0.361 OA
ATOM      2  H   UNL A   1     -53.325  50.937  11.150  1.00  0.00     0.217 HD
ENDROOT
BRANCH   1   3
ATOM      3  C   UNL A   1     -54.286  49.599  10.014  1.00  0.00     0.065 A 
ATOM      4  C   UNL A   1     -55.550  49.361   9.476  1.00  0.00     0.037 A 
ATOM      5  C   UNL A   1     -55.883  48.090   9.010  1.00  0.00     0.010 A 
ATOM      6  C   UNL A   1     -54.951  47.054   9.083  1.00  0.00    -0.058 A 
ATOM      7  C   UNL A   1     -53.687  47.291   9.621  1.00  0.00     0.010 A 
ATOM      8  C   UNL A   1     -53.354  48.563  10.087  1.00  0.00     0.037 A 
BRANCH   6   9
ATOM      9  C   UNL A   1     -55.306  45.695   8.584  1.00  0.00     0.049 C 
BRANCH   9  10
ATOM     10  C   UNL A   1     -54.091  44.828   8.234  1.00  0.00     0.117 C 
BRANCH  10  11
ATOM     11  C   UNL A   1     -54.249  44.163   6.888  1.00  0.00     0.172 C 
ATOM     12  O   UNL A   1     -53.268  44.500   6.015  1.00  0.00    -0.648 OA
ATOM     13  O   UNL A   1     -55.151  43.381   6.616  1.00  0.00    -0.648 OA
ENDBRANCH  10  11
ENDBRANCH   9  10
ENDBRANCH   6   9
ENDBRANCH   1   3
TORSDOF 4
ENDMDL
MODEL 5
REMARK VINA RESULT:      -7.0      2.176      5.371
REMARK  4 active torsions:
REMARK  status: ('A' for Active; 'I' for Inactive)
REMARK    1  A    between atoms: O_1  and  C_11 
REMARK    2  A    between atoms: C_4  and  C_5 
REMARK    3  A    between atoms: C_4  and  C_6 
REMARK    4  A    between atoms: C_6  and  C_12 
ROOT
ATOM      1  O   UNL A   1     -54.043  50.860  10.541  1.00  0.00    -0.361 OA
ATOM      2  H   UNL A   1     -53.213  51.253  10.356  1.00  0.00     0.217 HD
ENDROOT
BRANCH   1   3
ATOM      3  C   UNL A   1     -54.327  49.616  10.068  1.00  0.00     0.065 A 
ATOM      4  C   UNL A   1     -53.352  48.620  10.095  1.00  0.00     0.037 A 
ATOM      5  C   UNL A   1     -53.641  47.345   9.610  1.00  0.00     0.010 A 
ATOM      6  C   UNL A   1     -54.908  47.065   9.097  1.00  0.00    -0.058 A 
ATOM      7  C   UNL A   1     -55.884  48.061   9.070  1.00  0.00     0.010 A 
ATOM      8  C   UNL A   1     -55.594  49.336   9.554  1.00  0.00     0.037 A 
BRANCH   6   9
ATOM      9  C   UNL A   1     -55.218  45.702   8.579  1.00  0.00     0.049 C 
BRANCH   9  10
ATOM     10  C   UNL A   1     -53.989  44.795   8.452  1.00  0.00     0.117 C 
BRANCH  10  11
ATOM     11  C   UNL A   1     -53.863  44.219   7.062  1.00  0.00     0.172 C 
ATOM     12  O   UNL A   1     -54.762  43.233   6.816  1.00  0.00    -0.648 OA
ATOM     13  O   UNL A   1     -53.055  44.613   6.232  1.00  0.00    -0.648 OA
ENDBRANCH  10  11
ENDBRANCH   9  10
ENDBRANCH   6   9
ENDBRANCH   1   3
TORSDOF 4
ENDMDL
MODEL 6
REMARK VINA RESULT:      -6.7      3.104      3.881
REMARK  4 active torsions:
REMARK  status: ('A' for Active; 'I' for Inactive)
REMARK    1  A    between atoms: O_1  and  C_11 
REMARK    2  A    between atoms: C_4  and  C_5 
REMARK    3  A    between atoms: C_4  and  C_6 
REMARK    4  A    between atoms: C_6  and  C_12 
ROOT
ATOM      1  O   UNL A   1     -49.919  45.697  11.163  1.00  0.00    -0.361 OA
ATOM      2  H   UNL A   1     -50.009  45.237  11.974  1.00  0.00     0.217 HD
ENDROOT
BRANCH   1   3
ATOM      3  C   UNL A   1     -50.977  46.380  10.648  1.00  0.00     0.065 A 
ATOM      4  C   UNL A   1     -51.039  46.643   9.280  1.00  0.00     0.037 A 
ATOM      5  C   UNL A   1     -52.122  47.344   8.751  1.00  0.00     0.010 A 
ATOM      6  C   UNL A   1     -53.147  47.782   9.591  1.00  0.00    -0.058 A 
ATOM      7  C   UNL A   1     -53.085  47.518  10.959  1.00  0.00     0.010 A 
ATOM      8  C   UNL A   1     -52.002  46.818  11.488  1.00  0.00     0.037 A 
BRANCH   6   9
ATOM      9  C   UNL A   1     -54.305  48.530   9.027  1.00  0.00     0.049 C 
BRANCH   9  10
ATOM     10  C   UNL A   1     -54.807  49.664   9.929  1.00  0.00     0.117 C 
BRANCH  10  11
ATOM     11  C   UNL A   1     -54.088  50.961   9.646  1.00  0.00     0.172 C 
ATOM     12  O   UNL A   1     -53.815  51.669  10.770  1.00  0.00    -0.648 OA
ATOM     13  O   UNL A   1     -53.759  51.328   8.525  1.00  0.00    -0.648 OA
ENDBRANCH  10  11
ENDBRANCH   9  10
ENDBRANCH   6   9
ENDBRANCH   1   3
TORSDOF 4
ENDMDL
MODEL 7
REMARK VINA RESULT:      -6.1      3.526      6.000
REMARK  4 active torsions:
REMARK  status: ('A' for Active; 'I' for Inactive)
REMARK    1  A    between atoms: O_1  and  C_11 
REMARK    2  A    between atoms: C_4  and  C_5 
REMARK    3  A    between atoms: C_4  and  C_6 
REMARK    4  A    between atoms: C_6  and  C_12 
ROOT
ATOM      1  O   UNL A   1     -52.097  47.495  12.802  1.00  0.00    -0.361 OA
ATOM      2  H   UNL A   1     -52.590  47.907  13.484  1.00  0.00     0.217 HD
ENDROOT
BRANCH   1   3
ATOM      3  C   UNL A   1     -52.737  46.967  11.724  1.00  0.00     0.065 A 
ATOM      4  C   UNL A   1     -53.208  47.803  10.712  1.00  0.00     0.037 A 
ATOM      5  C   UNL A   1     -53.865  47.263   9.608  1.00  0.00     0.010 A 
ATOM      6  C   UNL A   1     -54.053  45.883   9.514  1.00  0.00    -0.058 A 
ATOM      7  C   UNL A   1     -53.583  45.046  10.526  1.00  0.00     0.010 A 
ATOM      8  C   UNL A   1     -52.925  45.587  11.630  1.00  0.00     0.037 A 
BRANCH   6   9
ATOM      9  C   UNL A   1     -54.755  45.305   8.334  1.00  0.00     0.049 C 
BRANCH   9  10
ATOM     10  C   UNL A   1     -53.892  44.339   7.514  1.00  0.00     0.117 C 
BRANCH  10  11
ATOM     11  C   UNL A   1     -54.545  43.986   6.199  1.00  0.00     0.172 C 
ATOM     12  O   UNL A   1     -55.647  43.209   6.349  1.00  0.00    -0.648 OA
ATOM     13  O   UNL A   1     -54.143  44.378   5.111  1.00  0.00    -0.648 OA
ENDBRANCH  10  11
ENDBRANCH   9  10
ENDBRANCH   6   9
ENDBRANCH   1   3
TORSDOF 4
ENDMDL
MODEL 8
REMARK VINA RESULT:      -6.1      3.352      4.629
REMARK  4 active torsions:
REMARK  status: ('A' for Active; 'I' for Inactive)
REMARK    1  A    between atoms: O_1  and  C_11 
REMARK    2  A    between atoms: C_4  and  C_5 
REMARK    3  A    between atoms: C_4  and  C_6 
REMARK    4  A    between atoms: C_6  and  C_12 
ROOT
ATOM      1  O   UNL A   1     -52.470  41.102   6.905  1.00  0.00    -0.361 OA
ATOM      2  H   UNL A   1     -52.743  40.865   6.040  1.00  0.00     0.217 HD
ENDROOT
BRANCH   1   3
ATOM      3  C   UNL A   1     -52.877  42.283   7.445  1.00  0.00     0.065 A 
ATOM      4  C   UNL A   1     -52.434  42.660   8.712  1.00  0.00     0.037 A 
ATOM      5  C   UNL A   1     -52.851  43.869   9.267  1.00  0.00     0.010 A 
ATOM      6  C   UNL A   1     -53.714  44.703   8.555  1.00  0.00    -0.058 A 
ATOM      7  C   UNL A   1     -54.158  44.325   7.288  1.00  0.00     0.010 A 
ATOM      8  C   UNL A   1     -53.741  43.116   6.733  1.00  0.00     0.037 A 
BRANCH   6   9
ATOM      9  C   UNL A   1     -54.161  45.996   9.147  1.00  0.00     0.049 C 
BRANCH   9  10
ATOM     10  C   UNL A   1     -55.585  46.398   8.750  1.00  0.00     0.117 C 
BRANCH  10  11
ATOM     11  C   UNL A   1     -55.799  47.887   8.876  1.00  0.00     0.172 C 
ATOM     12  O   UNL A   1     -54.980  48.608   8.070  1.00  0.00    -0.648 OA
ATOM     13  O   UNL A   1     -56.640  48.396   9.606  1.00  0.00    -0.648 OA
ENDBRANCH  10  11
ENDBRANCH   9  10
ENDBRANCH   6   9
ENDBRANCH   1   3
TORSDOF 4
ENDMDL
MODEL 9
REMARK VINA RESULT:      -6.0      2.845      6.016
REMARK  4 active torsions:
REMARK  status: ('A' for Active; 'I' for Inactive)
REMARK    1  A    between atoms: O_1  and  C_11 
REMARK    2  A    between atoms: C_4  and  C_5 
REMARK    3  A    between atoms: C_4  and  C_6 
REMARK    4  A    between atoms: C_6  and  C_12 
ROOT
ATOM      1  O   UNL A   1     -53.309  48.897  10.457  1.00  0.00    -0.361 OA
ATOM      2  H   UNL A   1     -53.827  49.594  10.107  1.00  0.00     0.217 HD
ENDROOT
BRANCH   1   3
ATOM      3  C   UNL A   1     -53.320  47.675   9.859  1.00  0.00     0.065 A 
ATOM      4  C   UNL A   1     -54.533  47.050   9.572  1.00  0.00     0.037 A 
ATOM      5  C   UNL A   1     -54.546  45.797   8.960  1.00  0.00     0.010 A 
ATOM      6  C   UNL A   1     -53.344  45.167   8.634  1.00  0.00    -0.058 A 
ATOM      7  C   UNL A   1     -52.131  45.792   8.921  1.00  0.00     0.010 A 
ATOM      8  C   UNL A   1     -52.118  47.045   9.533  1.00  0.00     0.037 A 
BRANCH   6   9
ATOM      9  C   UNL A   1     -53.357  43.828   7.979  1.00  0.00     0.049 C 
BRANCH   9  10
ATOM     10  C   UNL A   1     -53.327  43.890   6.448  1.00  0.00     0.117 C 
BRANCH  10  11
ATOM     11  C   UNL A   1     -54.720  43.888   5.863  1.00  0.00     0.172 C 
ATOM     12  O   UNL A   1     -54.852  44.736   4.813  1.00  0.00    -0.648 OA
ATOM     13  O   UNL A   1     -55.629  43.179   6.272  1.00  0.00    -0.648 OA
ENDBRANCH  10  11
ENDBRANCH   9  10
ENDBRANCH   6   9
ENDBRANCH   1   3
TORSDOF 4
ENDMDL
