MODEL 1
REMARK VINA RESULT:      -8.1      0.000      0.000
REMARK  4 active torsions:
REMARK  status: ('A' for Active; 'I' for Inactive)
REMARK    1  A    between atoms: O_1  and  C_11 
REMARK    2  A    between atoms: C_4  and  C_5 
REMARK    3  A    between atoms: C_4  and  C_6 
REMARK    4  A    between atoms: C_6  and  C_12 
ROOT
ATOM      1  O   UNL A   1     -57.303  45.189   8.313  1.00  0.00    -0.361 OA
ATOM      2  H   UNL A   1     -56.983  44.384   7.956  1.00  0.00     0.217 HD
ENDROOT
BRANCH   1   3
ATOM      3  C   UNL A   1     -56.430  46.173   8.661  1.00  0.00     0.065 A 
ATOM      4  C   UNL A   1     -56.897  47.461   8.921  1.00  0.00     0.037 A 
ATOM      5  C   UNL A   1     -56.003  48.471   9.276  1.00  0.00     0.010 A 
ATOM      6  C   UNL A   1     -54.639  48.192   9.371  1.00  0.00    -0.058 A 
ATOM      7  C   UNL A   1     -54.172  46.904   9.112  1.00  0.00     0.010 A 
ATOM      8  C   UNL A   1     -55.066  45.895   8.756  1.00  0.00     0.037 A 
BRANCH   6   9
ATOM      9  C   UNL A   1     -53.682  49.270   9.752  1.00  0.00     0.049 C 
BRANCH   9  10
ATOM     10  C   UNL A   1     -54.362  50.546  10.264  1.00  0.00     0.117 C 
BRANCH  10  11
ATOM     11  C   UNL A   1     -54.184  51.696   9.302  1.00  0.00     0.172 C 
ATOM     12  O   UNL A   1     -54.621  51.409   8.050  1.00  0.00    -0.648 OA
ATOM     13  O   UNL A   1     -53.721  52.784   9.618  1.00  0.00    -0.648 OA
ENDBRANCH  10  11
ENDBRANCH   9  10
ENDBRANCH   6   9
ENDBRANCH   1   3
TORSDOF 4
ENDMDL
MODEL 2
REMARK VINA RESULT:      -7.9      1.078      1.811
REMARK  4 active torsions:
REMARK  status: ('A' for Active; 'I' for Inactive)
REMARK    1  A    between atoms: O_1  and  C_11 
REMARK    2  A    between atoms: C_4  and  C_5 
REMARK    3  A    between atoms: C_4  and  C_6 
REMARK    4  A    between atoms: C_6  and  C_12 
ROOT
ATOM      1  O   UNL A   1     -54.411  44.181   8.232  1.00  0.00    -0.361 OA
ATOM      2  H   UNL A   1     -53.878  43.991   7.486  1.00  0.00     0.217 HD
ENDROOT
BRANCH   1   3
ATOM      3  C   UNL A   1     -54.687  45.473   8.559  1.00  0.00     0.065 A 
ATOM      4  C   UNL A   1     -53.667  46.313   9.006  1.00  0.00     0.037 A 
ATOM      5  C   UNL A   1     -53.949  47.637   9.342  1.00  0.00     0.010 A 
ATOM      6  C   UNL A   1     -55.253  48.122   9.233  1.00  0.00    -0.058 A 
ATOM      7  C   UNL A   1     -56.273  47.282   8.786  1.00  0.00     0.010 A 
ATOM      8  C   UNL A   1     -55.991  45.958   8.450  1.00  0.00     0.037 A 
BRANCH   6   9
ATOM      9  C   UNL A   1     -55.555  49.537   9.592  1.00  0.00     0.049 C 
BRANCH   9  10
ATOM     10  C   UNL A   1     -54.328  50.332  10.052  1.00  0.00     0.117 C 
BRANCH  10  11
ATOM     11  C   UNL A   1     -54.145  51.593   9.242  1.00  0.00     0.172 C 
ATOM     12  O   UNL A   1     -54.610  51.477   7.973  1.00  0.00    -0.648 OA
ATOM     13  O   UNL A   1     -53.654  52.623   9.686  1.00  0.00    -0.648 OA
ENDBRANCH  10  11
ENDBRANCH   9  10
ENDBRANCH   6   9
ENDBRANCH   1   3
TORSDOF 4
ENDMDL
MODEL 3
REMARK VINA RESULT:      -7.9      1.086      1.432
REMARK  4 active torsions:
REMARK  status: ('A' for Active; 'I' for Inactive)
REMARK    1  A    between atoms: O_1  and  C_11 
REMARK    2  A    between atoms: C_4  and  C_5 
REMARK    3  A    between atoms: C_4  and  C_6 
REMARK    4  A    between atoms: C_6  and  C_12 
ROOT
ATOM      1  O   UNL A   1     -54.415  44.160   8.271  1.00  0.00    -0.361 OA
ATOM      2  H   UNL A   1     -53.693  43.705   8.657  1.00  0.00     0.217 HD
ENDROOT
BRANCH   1   3
ATOM      3  C   UNL A   1     -54.662  45.455   8.608  1.00  0.00     0.065 A 
ATOM      4  C   UNL A   1     -55.935  45.994   8.425  1.00  0.00     0.037 A 
ATOM      5  C   UNL A   1     -56.188  47.321   8.769  1.00  0.00     0.010 A 
ATOM      6  C   UNL A   1     -55.166  48.111   9.298  1.00  0.00    -0.058 A 
ATOM      7  C   UNL A   1     -53.893  47.572   9.482  1.00  0.00     0.010 A 
ATOM      8  C   UNL A   1     -53.640  46.245   9.137  1.00  0.00     0.037 A 
BRANCH   6   9
ATOM      9  C   UNL A   1     -55.437  49.530   9.667  1.00  0.00     0.049 C 
BRANCH   9  10
ATOM     10  C   UNL A   1     -54.171  50.341   9.971  1.00  0.00     0.117 C 
BRANCH  10  11
ATOM     11  C   UNL A   1     -54.152  51.648   9.216  1.00  0.00     0.172 C 
ATOM     12  O   UNL A   1     -54.703  51.551   7.981  1.00  0.00    -0.648 OA
ATOM     13  O   UNL A   1     -53.710  52.693   9.674  1.00  0.00    -0.648 OA
ENDBRANCH  10  11
ENDBRANCH   9  10
ENDBRANCH   6   9
ENDBRANCH   1   3
TORSDOF 4
ENDMDL
MODEL 4
REMARK VINA RESULT:      -7.1      2.073      5.603
REMARK  4 active torsions:
REMARK  status: ('A' for Active; 'I' for Inactive)
REMARK    1  A    between atoms: O_1  and  C_11 
REMARK    2  A    between atoms: C_4  and  C_5 
REMARK    3  A    between atoms: C_4  and  C_6 
REMARK    4  A    between atoms: C_6  and  C_12 
ROOT
ATOM      1  O   UNL A   1     -53.915  50.827  10.449  1.00  0.00    -0.361 OA
ATOM      2  H   UNL A   1     -53.184  50.940  11.023  1.00  0.00     0.217 HD
ENDROOT
BRANCH   1   3
ATOM      3  C   UNL A   1     -54.241  49.584   9.999  1.00  0.00     0.065 A 
ATOM      4  C   UNL A   1     -53.333  48.534  10.135  1.00  0.00     0.037 A 
ATOM      5  C   UNL A   1     -53.665  47.260   9.674  1.00  0.00     0.010 A 
ATOM      6  C   UNL A   1     -54.906  47.036   9.076  1.00  0.00    -0.058 A 
ATOM      7  C   UNL A   1     -55.813  48.086   8.941  1.00  0.00     0.010 A 
ATOM      8  C   UNL A   1     -55.482  49.360   9.402  1.00  0.00     0.037 A 
BRANCH   6   9
ATOM      9  C   UNL A   1     -55.262  45.675   8.584  1.00  0.00     0.049 C 
BRANCH   9  10
ATOM     10  C   UNL A   1     -54.048  44.820   8.202  1.00  0.00     0.117 C 
BRANCH  10  11
ATOM     11  C   UNL A   1     -54.232  44.161   6.856  1.00  0.00     0.172 C 
ATOM     12  O   UNL A   1     -53.277  44.514   5.960  1.00  0.00    -0.648 OA
ATOM     13  O   UNL A   1     -55.131  43.370   6.602  1.00  0.00    -0.648 OA
ENDBRANCH  10  11
ENDBRANCH   9  10
ENDBRANCH   6   9
ENDBRANCH   1   3
TORSDOF 4
ENDMDL
MODEL 5
REMARK VINA RESULT:      -7.1      2.125      5.397
REMARK  4 active torsions:
REMARK  status: ('A' for Active; 'I' for Inactive)
REMARK    1  A    between atoms: O_1  and  C_11 
REMARK    2  A    between atoms: C_4  and  C_5 
REMARK    3  A    between atoms: C_4  and  C_6 
REMARK    4  A    between atoms: C_6  and  C_12 
ROOT
ATOM      1  O   UNL A   1     -54.029  50.905  10.508  1.00  0.00    -0.361 OA
ATOM      2  H   UNL A   1     -53.351  51.026  11.143  1.00  0.00     0.217 HD
ENDROOT
BRANCH   1   3
ATOM      3  C   UNL A   1     -54.310  49.656  10.045  1.00  0.00     0.065 A 
ATOM      4  C   UNL A   1     -55.583  49.364   9.557  1.00  0.00     0.037 A 
ATOM      5  C   UNL A   1     -55.873  48.084   9.083  1.00  0.00     0.010 A 
ATOM      6  C   UNL A   1     -54.888  47.096   9.097  1.00  0.00    -0.058 A 
ATOM      7  C   UNL A   1     -53.615  47.389   9.585  1.00  0.00     0.010 A 
ATOM      8  C   UNL A   1     -53.325  48.668  10.059  1.00  0.00     0.037 A 
BRANCH   6   9
ATOM      9  C   UNL A   1     -55.196  45.728   8.590  1.00  0.00     0.049 C 
BRANCH   9  10
ATOM     10  C   UNL A   1     -53.986  44.787   8.576  1.00  0.00     0.117 C 
BRANCH  10  11
ATOM     11  C   UNL A   1     -53.777  44.169   7.215  1.00  0.00     0.172 C 
ATOM     12  O   UNL A   1     -54.411  42.978   7.073  1.00  0.00    -0.648 OA
ATOM     13  O   UNL A   1     -53.127  44.694   6.321  1.00  0.00    -0.648 OA
ENDBRANCH  10  11
ENDBRANCH   9  10
ENDBRANCH   6   9
ENDBRANCH   1   3
TORSDOF 4
ENDMDL
MODEL 6
REMARK VINA RESULT:      -6.8      3.029      3.835
REMARK  4 active torsions:
REMARK  status: ('A' for Active; 'I' for Inactive)
REMARK    1  A    between atoms: O_1  and  C_11 
REMARK    2  A    between atoms: C_4  and  C_5 
REMARK    3  A    between atoms: C_4  and  C_6 
REMARK    4  A    between atoms: C_6  and  C_12 
ROOT
ATOM      1  O   UNL A   1     -49.567  45.942   9.681  1.00  0.00    -0.361 OA
ATOM      2  H   UNL A   1     -48.844  46.167  10.233  1.00  0.00     0.217 HD
ENDROOT
BRANCH   1   3
ATOM      3  C   UNL A   1     -50.769  46.557   9.851  1.00  0.00     0.065 A 
ATOM      4  C   UNL A   1     -51.402  47.165   8.767  1.00  0.00     0.037 A 
ATOM      5  C   UNL A   1     -52.633  47.796   8.941  1.00  0.00     0.010 A 
ATOM      6  C   UNL A   1     -53.233  47.820  10.201  1.00  0.00    -0.058 A 
ATOM      7  C   UNL A   1     -52.600  47.213  11.285  1.00  0.00     0.010 A 
ATOM      8  C   UNL A   1     -51.369  46.581  11.111  1.00  0.00     0.037 A 
BRANCH   6   9
ATOM      9  C   UNL A   1     -54.550  48.494  10.387  1.00  0.00     0.049 C 
BRANCH   9  10
ATOM     10  C   UNL A   1     -54.923  49.446   9.245  1.00  0.00     0.117 C 
BRANCH  10  11
ATOM     11  C   UNL A   1     -54.311  50.813   9.436  1.00  0.00     0.172 C 
ATOM     12  O   UNL A   1     -54.422  51.599   8.336  1.00  0.00    -0.648 OA
ATOM     13  O   UNL A   1     -53.792  51.187  10.479  1.00  0.00    -0.648 OA
ENDBRANCH  10  11
ENDBRANCH   9  10
ENDBRANCH   6   9
ENDBRANCH   1   3
TORSDOF 4
ENDMDL
MODEL 7
REMARK VINA RESULT:      -6.4      2.208      2.768
REMARK  4 active torsions:
REMARK  status: ('A' for Active; 'I' for Inactive)
REMARK    1  A    between atoms: O_1  and  C_11 
REMARK    2  A    between atoms: C_4  and  C_5 
REMARK    3  A    between atoms: C_4  and  C_6 
REMARK    4  A    between atoms: C_6  and  C_12 
ROOT
ATOM      1  O   UNL A   1     -52.962  43.142  10.241  1.00  0.00    -0.361 OA
ATOM      2  H   UNL A   1     -52.721  42.535   9.569  1.00  0.00     0.217 HD
ENDROOT
BRANCH   1   3
ATOM      3  C   UNL A   1     -52.997  44.475   9.970  1.00  0.00     0.065 A 
ATOM      4  C   UNL A   1     -54.216  45.107   9.725  1.00  0.00     0.037 A 
ATOM      5  C   UNL A   1     -54.252  46.472   9.447  1.00  0.00     0.010 A 
ATOM      6  C   UNL A   1     -53.067  47.209   9.413  1.00  0.00    -0.058 A 
ATOM      7  C   UNL A   1     -51.848  46.578   9.659  1.00  0.00     0.010 A 
ATOM      8  C   UNL A   1     -51.812  45.212   9.937  1.00  0.00     0.037 A 
BRANCH   6   9
ATOM      9  C   UNL A   1     -53.105  48.669   9.117  1.00  0.00     0.049 C 
BRANCH   9  10
ATOM     10  C   UNL A   1     -54.316  49.390   9.718  1.00  0.00     0.117 C 
BRANCH  10  11
ATOM     11  C   UNL A   1     -54.128  50.889   9.722  1.00  0.00     0.172 C 
ATOM     12  O   UNL A   1     -54.337  51.450   8.505  1.00  0.00    -0.648 OA
ATOM     13  O   UNL A   1     -53.843  51.537  10.721  1.00  0.00    -0.648 OA
ENDBRANCH  10  11
ENDBRANCH   9  10
ENDBRANCH   6   9
ENDBRANCH   1   3
TORSDOF 4
ENDMDL
MODEL 8
REMARK VINA RESULT:      -6.3      2.247      5.554
REMARK  4 active torsions:
REMARK  status: ('A' for Active; 'I' for Inactive)
REMARK    1  A    between atoms: O_1  and  C_11 
REMARK    2  A    between atoms: C_4  and  C_5 
REMARK    3  A    between atoms: C_4  and  C_6 
REMARK    4  A    between atoms: C_6  and  C_12 
ROOT
ATOM      1  O   UNL A   1     -53.970  50.930  10.417  1.00  0.00    -0.361 OA
ATOM      2  H   UNL A   1     -54.359  51.668   9.989  1.00  0.00     0.217 HD
ENDROOT
BRANCH   1   3
ATOM      3  C   UNL A   1     -54.268  49.669  10.003  1.00  0.00     0.065 A 
ATOM      4  C   UNL A   1     -53.332  48.646  10.152  1.00  0.00     0.037 A 
ATOM      5  C   UNL A   1     -53.637  47.353   9.727  1.00  0.00     0.010 A 
ATOM      6  C   UNL A   1     -54.879  47.082   9.151  1.00  0.00    -0.058 A 
ATOM      7  C   UNL A   1     -55.815  48.106   9.001  1.00  0.00     0.010 A 
ATOM      8  C   UNL A   1     -55.510  49.398   9.426  1.00  0.00     0.037 A 
BRANCH   6   9
ATOM      9  C   UNL A   1     -55.205  45.701   8.697  1.00  0.00     0.049 C 
BRANCH   9  10
ATOM     10  C   UNL A   1     -53.984  44.899   8.232  1.00  0.00     0.117 C 
BRANCH  10  11
ATOM     11  C   UNL A   1     -53.433  44.030   9.338  1.00  0.00     0.172 C 
ATOM     12  O   UNL A   1     -54.352  43.751  10.296  1.00  0.00    -0.648 OA
ATOM     13  O   UNL A   1     -52.288  43.599   9.360  1.00  0.00    -0.648 OA
ENDBRANCH  10  11
ENDBRANCH   9  10
ENDBRANCH   6   9
ENDBRANCH   1   3
TORSDOF 4
ENDMDL
MODEL 9
REMARK VINA RESULT:      -6.3      3.470      5.928
REMARK  4 active torsions:
REMARK  status: ('A' for Active; 'I' for Inactive)
REMARK    1  A    between atoms: O_1  and  C_11 
REMARK    2  A    between atoms: C_4  and  C_5 
REMARK    3  A    between atoms: C_4  and  C_6 
REMARK    4  A    between atoms: C_6  and  C_12 
ROOT
ATOM      1  O   UNL A   1     -52.061  47.496  12.599  1.00  0.00    -0.361 OA
ATOM      2  H   UNL A   1     -52.511  47.665  13.404  1.00  0.00     0.217 HD
ENDROOT
BRANCH   1   3
ATOM      3  C   UNL A   1     -52.738  46.973  11.540  1.00  0.00     0.065 A 
ATOM      4  C   UNL A   1     -53.294  47.819  10.581  1.00  0.00     0.037 A 
ATOM      5  C   UNL A   1     -53.988  47.284   9.496  1.00  0.00     0.010 A 
ATOM      6  C   UNL A   1     -54.127  45.901   9.370  1.00  0.00    -0.058 A 
ATOM      7  C   UNL A   1     -53.570  45.055  10.329  1.00  0.00     0.010 A 
ATOM      8  C   UNL A   1     -52.876  45.590  11.414  1.00  0.00     0.037 A 
BRANCH   6   9
ATOM      9  C   UNL A   1     -54.868  45.329   8.210  1.00  0.00     0.049 C 
BRANCH   9  10
ATOM     10  C   UNL A   1     -54.055  44.315   7.397  1.00  0.00     0.117 C 
BRANCH  10  11
ATOM     11  C   UNL A   1     -54.758  43.936   6.116  1.00  0.00     0.172 C 
ATOM     12  O   UNL A   1     -55.495  42.803   6.234  1.00  0.00    -0.648 OA
ATOM     13  O   UNL A   1     -54.696  44.591   5.084  1.00  0.00    -0.648 OA
ENDBRANCH  10  11
ENDBRANCH   9  10
ENDBRANCH   6   9
ENDBRANCH   1   3
TORSDOF 4
ENDMDL
