MODEL 1
REMARK VINA RESULT:     -18.5      0.000      0.000
REMARK  4 active torsions:
REMARK  status: ('A' for Active; 'I' for Inactive)
REMARK    1  A    between atoms: O_1  and  C_11 
REMARK    2  A    between atoms: C_4  and  C_5 
REMARK    3  A    between atoms: C_4  and  C_6 
REMARK    4  A    between atoms: C_6  and  C_12 
ROOT
ATOM      1  O   UNL A   1     -54.228  51.612   8.136  1.00  0.00    -0.361 OA
ATOM      2  H   UNL A   1     -54.777  51.063   7.611  1.00  0.00     0.217 HD
ENDROOT
BRANCH   1   3
ATOM      3  C   UNL A   1     -54.051  51.333   9.456  1.00  0.00     0.065 A 
ATOM      4  C   UNL A   1     -54.003  50.009   9.889  1.00  0.00     0.037 A 
ATOM      5  C   UNL A   1     -53.823  49.722  11.242  1.00  0.00     0.010 A 
ATOM      6  C   UNL A   1     -53.692  50.761  12.164  1.00  0.00    -0.058 A 
ATOM      7  C   UNL A   1     -53.740  52.086  11.731  1.00  0.00     0.010 A 
ATOM      8  C   UNL A   1     -53.920  52.373  10.378  1.00  0.00     0.037 A 
BRANCH   6   9
ATOM      9  C   UNL A   1     -53.499  50.455  13.610  1.00  0.00     0.049 C 
BRANCH   9  10
ATOM     10  C   UNL A   1     -53.019  49.025  13.880  1.00  0.00     0.117 C 
BRANCH  10  11
ATOM     11  C   UNL A   1     -52.827  48.770  15.356  1.00  0.00     0.172 C 
ATOM     12  O   UNL A   1     -53.999  48.616  16.021  1.00  0.00    -0.648 OA
ATOM     13  O   UNL A   1     -51.732  48.684  15.896  1.00  0.00    -0.648 OA
ENDBRANCH  10  11
ENDBRANCH   9  10
ENDBRANCH   6   9
ENDBRANCH   1   3
TORSDOF 4
ENDMDL
MODEL 2
REMARK VINA RESULT:     -18.4      0.061      1.676
REMARK  4 active torsions:
REMARK  status: ('A' for Active; 'I' for Inactive)
REMARK    1  A    between atoms: O_1  and  C_11 
REMARK    2  A    between atoms: C_4  and  C_5 
REMARK    3  A    between atoms: C_4  and  C_6 
REMARK    4  A    between atoms: C_6  and  C_12 
ROOT
ATOM      1  O   UNL A   1     -54.165  51.615   8.111  1.00  0.00    -0.361 OA
ATOM      2  H   UNL A   1     -54.570  52.416   7.842  1.00  0.00     0.217 HD
ENDROOT
BRANCH   1   3
ATOM      3  C   UNL A   1     -54.024  51.337   9.436  1.00  0.00     0.065 A 
ATOM      4  C   UNL A   1     -53.888  52.375  10.357  1.00  0.00     0.037 A 
ATOM      5  C   UNL A   1     -53.743  52.090  11.714  1.00  0.00     0.010 A 
ATOM      6  C   UNL A   1     -53.732  50.765  12.152  1.00  0.00    -0.058 A 
ATOM      7  C   UNL A   1     -53.867  49.727  11.231  1.00  0.00     0.010 A 
ATOM      8  C   UNL A   1     -54.013  50.011   9.873  1.00  0.00     0.037 A 
BRANCH   6   9
ATOM      9  C   UNL A   1     -53.577  50.461  13.603  1.00  0.00     0.049 C 
BRANCH   9  10
ATOM     10  C   UNL A   1     -52.966  49.083  13.882  1.00  0.00     0.117 C 
BRANCH  10  11
ATOM     11  C   UNL A   1     -52.962  48.764  15.358  1.00  0.00     0.172 C 
ATOM     12  O   UNL A   1     -51.711  48.657  15.872  1.00  0.00    -0.648 OA
ATOM     13  O   UNL A   1     -53.977  48.640  16.031  1.00  0.00    -0.648 OA
ENDBRANCH  10  11
ENDBRANCH   9  10
ENDBRANCH   6   9
ENDBRANCH   1   3
TORSDOF 4
ENDMDL
MODEL 3
REMARK VINA RESULT:     -18.2      2.212      5.522
REMARK  4 active torsions:
REMARK  status: ('A' for Active; 'I' for Inactive)
REMARK    1  A    between atoms: O_1  and  C_11 
REMARK    2  A    between atoms: C_4  and  C_5 
REMARK    3  A    between atoms: C_4  and  C_6 
REMARK    4  A    between atoms: C_6  and  C_12 
ROOT
ATOM      1  O   UNL A   1     -53.150  50.486  14.773  1.00  0.00    -0.361 OA
ATOM      2  H   UNL A   1     -53.174  51.331  15.179  1.00  0.00     0.217 HD
ENDROOT
BRANCH   1   3
ATOM      3  C   UNL A   1     -53.395  50.366  13.440  1.00  0.00     0.065 A 
ATOM      4  C   UNL A   1     -53.661  51.501  12.674  1.00  0.00     0.037 A 
ATOM      5  C   UNL A   1     -53.913  51.379  11.308  1.00  0.00     0.010 A 
ATOM      6  C   UNL A   1     -53.900  50.120  10.706  1.00  0.00    -0.058 A 
ATOM      7  C   UNL A   1     -53.634  48.985  11.472  1.00  0.00     0.010 A 
ATOM      8  C   UNL A   1     -53.382  49.107  12.838  1.00  0.00     0.037 A 
BRANCH   6   9
ATOM      9  C   UNL A   1     -54.169  49.988   9.246  1.00  0.00     0.049 C 
BRANCH   9  10
ATOM     10  C   UNL A   1     -53.347  48.889   8.563  1.00  0.00     0.117 C 
BRANCH  10  11
ATOM     11  C   UNL A   1     -54.225  47.942   7.781  1.00  0.00     0.172 C 
ATOM     12  O   UNL A   1     -55.309  47.525   8.483  1.00  0.00    -0.648 OA
ATOM     13  O   UNL A   1     -54.002  47.603   6.626  1.00  0.00    -0.648 OA
ENDBRANCH  10  11
ENDBRANCH   9  10
ENDBRANCH   6   9
ENDBRANCH   1   3
TORSDOF 4
ENDMDL
MODEL 4
REMARK VINA RESULT:     -18.2      2.203      5.391
REMARK  4 active torsions:
REMARK  status: ('A' for Active; 'I' for Inactive)
REMARK    1  A    between atoms: O_1  and  C_11 
REMARK    2  A    between atoms: C_4  and  C_5 
REMARK    3  A    between atoms: C_4  and  C_6 
REMARK    4  A    between atoms: C_6  and  C_12 
ROOT
ATOM      1  O   UNL A   1     -53.146  50.483  14.780  1.00  0.00    -0.361 OA
ATOM      2  H   UNL A   1     -53.208  51.314  15.208  1.00  0.00     0.217 HD
ENDROOT
BRANCH   1   3
ATOM      3  C   UNL A   1     -53.403  50.384  13.447  1.00  0.00     0.065 A 
ATOM      4  C   UNL A   1     -53.397  49.136  12.825  1.00  0.00     0.037 A 
ATOM      5  C   UNL A   1     -53.659  49.034  11.460  1.00  0.00     0.010 A 
ATOM      6  C   UNL A   1     -53.927  50.183  10.713  1.00  0.00    -0.058 A 
ATOM      7  C   UNL A   1     -53.932  51.431  11.335  1.00  0.00     0.010 A 
ATOM      8  C   UNL A   1     -53.670  51.533  12.701  1.00  0.00     0.037 A 
BRANCH   6   9
ATOM      9  C   UNL A   1     -54.208  50.075   9.254  1.00  0.00     0.049 C 
BRANCH   9  10
ATOM     10  C   UNL A   1     -53.433  48.950   8.557  1.00  0.00     0.117 C 
BRANCH  10  11
ATOM     11  C   UNL A   1     -54.362  47.955   7.904  1.00  0.00     0.172 C 
ATOM     12  O   UNL A   1     -53.981  47.626   6.644  1.00  0.00    -0.648 OA
ATOM     13  O   UNL A   1     -55.342  47.473   8.457  1.00  0.00    -0.648 OA
ENDBRANCH  10  11
ENDBRANCH   9  10
ENDBRANCH   6   9
ENDBRANCH   1   3
TORSDOF 4
ENDMDL
MODEL 5
REMARK VINA RESULT:     -18.2      2.440      5.477
REMARK  4 active torsions:
REMARK  status: ('A' for Active; 'I' for Inactive)
REMARK    1  A    between atoms: O_1  and  C_11 
REMARK    2  A    between atoms: C_4  and  C_5 
REMARK    3  A    between atoms: C_4  and  C_6 
REMARK    4  A    between atoms: C_6  and  C_12 
ROOT
ATOM      1  O   UNL A   1     -52.940  50.450  15.196  1.00  0.00    -0.361 OA
ATOM      2  H   UNL A   1     -53.548  50.975  15.680  1.00  0.00     0.217 HD
ENDROOT
BRANCH   1   3
ATOM      3  C   UNL A   1     -53.182  50.161  13.889  1.00  0.00     0.065 A 
ATOM      4  C   UNL A   1     -53.589  51.169  13.015  1.00  0.00     0.037 A 
ATOM      5  C   UNL A   1     -53.838  50.873  11.675  1.00  0.00     0.010 A 
ATOM      6  C   UNL A   1     -53.680  49.568  11.208  1.00  0.00    -0.058 A 
ATOM      7  C   UNL A   1     -53.273  48.560  12.082  1.00  0.00     0.010 A 
ATOM      8  C   UNL A   1     -53.024  48.855  13.421  1.00  0.00     0.037 A 
BRANCH   6   9
ATOM      9  C   UNL A   1     -53.945  49.251   9.775  1.00  0.00     0.049 C 
BRANCH   9  10
ATOM     10  C   UNL A   1     -55.283  48.540   9.538  1.00  0.00     0.117 C 
BRANCH  10  11
ATOM     11  C   UNL A   1     -55.156  47.445   8.506  1.00  0.00     0.172 C 
ATOM     12  O   UNL A   1     -55.874  46.339   8.820  1.00  0.00    -0.648 OA
ATOM     13  O   UNL A   1     -54.498  47.550   7.479  1.00  0.00    -0.648 OA
ENDBRANCH  10  11
ENDBRANCH   9  10
ENDBRANCH   6   9
ENDBRANCH   1   3
TORSDOF 4
ENDMDL
MODEL 6
REMARK VINA RESULT:     -17.3      2.284      5.188
REMARK  4 active torsions:
REMARK  status: ('A' for Active; 'I' for Inactive)
REMARK    1  A    between atoms: O_1  and  C_11 
REMARK    2  A    between atoms: C_4  and  C_5 
REMARK    3  A    between atoms: C_4  and  C_6 
REMARK    4  A    between atoms: C_6  and  C_12 
ROOT
ATOM      1  O   UNL A   1     -53.064  50.430  15.086  1.00  0.00    -0.361 OA
ATOM      2  H   UNL A   1     -52.450  49.906  15.563  1.00  0.00     0.217 HD
ENDROOT
BRANCH   1   3
ATOM      3  C   UNL A   1     -53.267  50.201  13.760  1.00  0.00     0.065 A 
ATOM      4  C   UNL A   1     -53.116  48.914  13.243  1.00  0.00     0.037 A 
ATOM      5  C   UNL A   1     -53.323  48.679  11.884  1.00  0.00     0.010 A 
ATOM      6  C   UNL A   1     -53.682  49.731  11.041  1.00  0.00    -0.058 A 
ATOM      7  C   UNL A   1     -53.833  51.017  11.558  1.00  0.00     0.010 A 
ATOM      8  C   UNL A   1     -53.626  51.253  12.916  1.00  0.00     0.037 A 
BRANCH   6   9
ATOM      9  C   UNL A   1     -53.904  49.480   9.588  1.00  0.00     0.049 C 
BRANCH   9  10
ATOM     10  C   UNL A   1     -53.576  48.047   9.152  1.00  0.00     0.117 C 
BRANCH  10  11
ATOM     11  C   UNL A   1     -52.302  47.988   8.344  1.00  0.00     0.172 C 
ATOM     12  O   UNL A   1     -52.377  48.695   7.189  1.00  0.00    -0.648 OA
ATOM     13  O   UNL A   1     -51.296  47.390   8.702  1.00  0.00    -0.648 OA
ENDBRANCH  10  11
ENDBRANCH   9  10
ENDBRANCH   6   9
ENDBRANCH   1   3
TORSDOF 4
ENDMDL
MODEL 7
REMARK VINA RESULT:     -17.2      1.659      5.383
REMARK  4 active torsions:
REMARK  status: ('A' for Active; 'I' for Inactive)
REMARK    1  A    between atoms: O_1  and  C_11 
REMARK    2  A    between atoms: C_4  and  C_5 
REMARK    3  A    between atoms: C_4  and  C_6 
REMARK    4  A    between atoms: C_6  and  C_12 
ROOT
ATOM      1  O   UNL A   1     -52.542  48.687  15.486  1.00  0.00    -0.361 OA
ATOM      2  H   UNL A   1     -51.954  49.209  15.996  1.00  0.00     0.217 HD
ENDROOT
BRANCH   1   3
ATOM      3  C   UNL A   1     -52.911  49.099  14.242  1.00  0.00     0.065 A 
ATOM      4  C   UNL A   1     -52.869  48.208  13.171  1.00  0.00     0.037 A 
ATOM      5  C   UNL A   1     -53.246  48.629  11.896  1.00  0.00     0.010 A 
ATOM      6  C   UNL A   1     -53.664  49.945  11.692  1.00  0.00    -0.058 A 
ATOM      7  C   UNL A   1     -53.706  50.836  12.763  1.00  0.00     0.010 A 
ATOM      8  C   UNL A   1     -53.329  50.415  14.038  1.00  0.00     0.037 A 
BRANCH   6   9
ATOM      9  C   UNL A   1     -54.068  50.396  10.329  1.00  0.00     0.049 C 
BRANCH   9  10
ATOM     10  C   UNL A   1     -54.869  49.350   9.545  1.00  0.00     0.117 C 
BRANCH  10  11
ATOM     11  C   UNL A   1     -54.056  48.750   8.423  1.00  0.00     0.172 C 
ATOM     12  O   UNL A   1     -54.810  48.050   7.541  1.00  0.00    -0.648 OA
ATOM     13  O   UNL A   1     -52.847  48.899   8.304  1.00  0.00    -0.648 OA
ENDBRANCH  10  11
ENDBRANCH   9  10
ENDBRANCH   6   9
ENDBRANCH   1   3
TORSDOF 4
ENDMDL
MODEL 8
REMARK VINA RESULT:     -17.0      1.249      2.230
REMARK  4 active torsions:
REMARK  status: ('A' for Active; 'I' for Inactive)
REMARK    1  A    between atoms: O_1  and  C_11 
REMARK    2  A    between atoms: C_4  and  C_5 
REMARK    3  A    between atoms: C_4  and  C_6 
REMARK    4  A    between atoms: C_6  and  C_12 
ROOT
ATOM      1  O   UNL A   1     -53.832  48.983   7.415  1.00  0.00    -0.361 OA
ATOM      2  H   UNL A   1     -53.074  48.666   6.964  1.00  0.00     0.217 HD
ENDROOT
BRANCH   1   3
ATOM      3  C   UNL A   1     -53.772  49.230   8.752  1.00  0.00     0.065 A 
ATOM      4  C   UNL A   1     -54.029  50.513   9.236  1.00  0.00     0.037 A 
ATOM      5  C   UNL A   1     -53.967  50.768  10.605  1.00  0.00     0.010 A 
ATOM      6  C   UNL A   1     -53.647  49.739  11.493  1.00  0.00    -0.058 A 
ATOM      7  C   UNL A   1     -53.391  48.457  11.009  1.00  0.00     0.010 A 
ATOM      8  C   UNL A   1     -53.453  48.201   9.639  1.00  0.00     0.037 A 
BRANCH   6   9
ATOM      9  C   UNL A   1     -53.582  50.011  12.957  1.00  0.00     0.049 C 
BRANCH   9  10
ATOM     10  C   UNL A   1     -52.903  48.897  13.762  1.00  0.00     0.117 C 
BRANCH  10  11
ATOM     11  C   UNL A   1     -53.196  49.018  15.238  1.00  0.00     0.172 C 
ATOM     12  O   UNL A   1     -52.126  48.715  16.015  1.00  0.00    -0.648 OA
ATOM     13  O   UNL A   1     -54.274  49.378  15.692  1.00  0.00    -0.648 OA
ENDBRANCH  10  11
ENDBRANCH   9  10
ENDBRANCH   6   9
ENDBRANCH   1   3
TORSDOF 4
ENDMDL
MODEL 9
REMARK VINA RESULT:     -16.8      1.310      5.754
REMARK  4 active torsions:
REMARK  status: ('A' for Active; 'I' for Inactive)
REMARK    1  A    between atoms: O_1  and  C_11 
REMARK    2  A    between atoms: C_4  and  C_5 
REMARK    3  A    between atoms: C_4  and  C_6 
REMARK    4  A    between atoms: C_6  and  C_12 
ROOT
ATOM      1  O   UNL A   1     -52.177  47.397  15.925  1.00  0.00    -0.361 OA
ATOM      2  H   UNL A   1     -52.574  46.564  16.087  1.00  0.00     0.217 HD
ENDROOT
BRANCH   1   3
ATOM      3  C   UNL A   1     -52.562  48.136  14.849  1.00  0.00     0.065 A 
ATOM      4  C   UNL A   1     -52.946  49.466  15.017  1.00  0.00     0.037 A 
ATOM      5  C   UNL A   1     -53.342  50.223  13.915  1.00  0.00     0.010 A 
ATOM      6  C   UNL A   1     -53.354  49.650  12.643  1.00  0.00    -0.058 A 
ATOM      7  C   UNL A   1     -52.971  48.320  12.474  1.00  0.00     0.010 A 
ATOM      8  C   UNL A   1     -52.575  47.562  13.576  1.00  0.00     0.037 A 
BRANCH   6   9
ATOM      9  C   UNL A   1     -53.777  50.459  11.464  1.00  0.00     0.049 C 
BRANCH   9  10
ATOM     10  C   UNL A   1     -54.441  49.635  10.355  1.00  0.00     0.117 C 
BRANCH  10  11
ATOM     11  C   UNL A   1     -53.937  50.033   8.988  1.00  0.00     0.172 C 
ATOM     12  O   UNL A   1     -54.147  51.343   8.709  1.00  0.00    -0.648 OA
ATOM     13  O   UNL A   1     -53.375  49.264   8.219  1.00  0.00    -0.648 OA
ENDBRANCH  10  11
ENDBRANCH   9  10
ENDBRANCH   6   9
ENDBRANCH   1   3
TORSDOF 4
ENDMDL
