MODEL 1
REMARK VINA RESULT:      -8.2      0.000      0.000
REMARK  4 active torsions:
REMARK  status: ('A' for Active; 'I' for Inactive)
REMARK    1  A    between atoms: O_1  and  C_11 
REMARK    2  A    between atoms: C_4  and  C_5 
REMARK    3  A    between atoms: C_4  and  C_6 
REMARK    4  A    between atoms: C_6  and  C_12 
ROOT
ATOM      1  O   UNL A   1     -57.336  45.109   8.421  1.00  0.00    -0.361 OA
ATOM      2  H   UNL A   1     -57.259  44.272   8.837  1.00  0.00     0.217 HD
ENDROOT
BRANCH   1   3
ATOM      3  C   UNL A   1     -56.469  46.108   8.738  1.00  0.00     0.065 A 
ATOM      4  C   UNL A   1     -55.101  45.846   8.817  1.00  0.00     0.037 A 
ATOM      5  C   UNL A   1     -54.212  46.869   9.143  1.00  0.00     0.010 A 
ATOM      6  C   UNL A   1     -54.690  48.156   9.391  1.00  0.00    -0.058 A 
ATOM      7  C   UNL A   1     -56.057  48.418   9.312  1.00  0.00     0.010 A 
ATOM      8  C   UNL A   1     -56.947  47.395   8.986  1.00  0.00     0.037 A 
BRANCH   6   9
ATOM      9  C   UNL A   1     -53.739  49.251   9.739  1.00  0.00     0.049 C 
BRANCH   9  10
ATOM     10  C   UNL A   1     -54.424  50.533  10.226  1.00  0.00     0.117 C 
BRANCH  10  11
ATOM     11  C   UNL A   1     -54.187  51.685   9.280  1.00  0.00     0.172 C 
ATOM     12  O   UNL A   1     -54.603  51.424   8.015  1.00  0.00    -0.648 OA
ATOM     13  O   UNL A   1     -53.697  52.754   9.618  1.00  0.00    -0.648 OA
ENDBRANCH  10  11
ENDBRANCH   9  10
ENDBRANCH   6   9
ENDBRANCH   1   3
TORSDOF 4
ENDMDL
MODEL 2
REMARK VINA RESULT:      -7.8      1.122      1.806
REMARK  4 active torsions:
REMARK  status: ('A' for Active; 'I' for Inactive)
REMARK    1  A    between atoms: O_1  and  C_11 
REMARK    2  A    between atoms: C_4  and  C_5 
REMARK    3  A    between atoms: C_4  and  C_6 
REMARK    4  A    between atoms: C_6  and  C_12 
ROOT
ATOM      1  O   UNL A   1     -54.413  44.148   8.487  1.00  0.00    -0.361 OA
ATOM      2  H   UNL A   1     -53.659  43.911   7.984  1.00  0.00     0.217 HD
ENDROOT
BRANCH   1   3
ATOM      3  C   UNL A   1     -54.648  45.455   8.785  1.00  0.00     0.065 A 
ATOM      4  C   UNL A   1     -55.869  46.039   8.449  1.00  0.00     0.037 A 
ATOM      5  C   UNL A   1     -56.109  47.378   8.753  1.00  0.00     0.010 A 
ATOM      6  C   UNL A   1     -55.128  48.135   9.394  1.00  0.00    -0.058 A 
ATOM      7  C   UNL A   1     -53.907  47.551   9.730  1.00  0.00     0.010 A 
ATOM      8  C   UNL A   1     -53.666  46.212   9.426  1.00  0.00     0.037 A 
BRANCH   6   9
ATOM      9  C   UNL A   1     -55.385  49.567   9.721  1.00  0.00     0.049 C 
BRANCH   9  10
ATOM     10  C   UNL A   1     -54.110  50.386   9.954  1.00  0.00     0.117 C 
BRANCH  10  11
ATOM     11  C   UNL A   1     -54.142  51.694   9.201  1.00  0.00     0.172 C 
ATOM     12  O   UNL A   1     -54.693  51.579   7.967  1.00  0.00    -0.648 OA
ATOM     13  O   UNL A   1     -53.739  52.755   9.661  1.00  0.00    -0.648 OA
ENDBRANCH  10  11
ENDBRANCH   9  10
ENDBRANCH   6   9
ENDBRANCH   1   3
TORSDOF 4
ENDMDL
MODEL 3
REMARK VINA RESULT:      -7.4      1.396      1.869
REMARK  4 active torsions:
REMARK  status: ('A' for Active; 'I' for Inactive)
REMARK    1  A    between atoms: O_1  and  C_11 
REMARK    2  A    between atoms: C_4  and  C_5 
REMARK    3  A    between atoms: C_4  and  C_6 
REMARK    4  A    between atoms: C_6  and  C_12 
ROOT
ATOM      1  O   UNL A   1     -54.123  43.967   8.422  1.00  0.00    -0.361 OA
ATOM      2  H   UNL A   1     -54.824  43.416   8.137  1.00  0.00     0.217 HD
ENDROOT
BRANCH   1   3
ATOM      3  C   UNL A   1     -54.351  45.286   8.668  1.00  0.00     0.065 A 
ATOM      4  C   UNL A   1     -53.307  46.109   9.088  1.00  0.00     0.037 A 
ATOM      5  C   UNL A   1     -53.541  47.460   9.341  1.00  0.00     0.010 A 
ATOM      6  C   UNL A   1     -54.821  47.990   9.174  1.00  0.00    -0.058 A 
ATOM      7  C   UNL A   1     -55.865  47.167   8.753  1.00  0.00     0.010 A 
ATOM      8  C   UNL A   1     -55.632  45.816   8.500  1.00  0.00     0.037 A 
BRANCH   6   9
ATOM      9  C   UNL A   1     -55.071  49.435   9.443  1.00  0.00     0.049 C 
BRANCH   9  10
ATOM     10  C   UNL A   1     -53.811  50.305   9.366  1.00  0.00     0.117 C 
BRANCH  10  11
ATOM     11  C   UNL A   1     -54.103  51.741   9.727  1.00  0.00     0.172 C 
ATOM     12  O   UNL A   1     -53.838  52.022  11.028  1.00  0.00    -0.648 OA
ATOM     13  O   UNL A   1     -54.510  52.575   8.929  1.00  0.00    -0.648 OA
ENDBRANCH  10  11
ENDBRANCH   9  10
ENDBRANCH   6   9
ENDBRANCH   1   3
TORSDOF 4
ENDMDL
MODEL 4
REMARK VINA RESULT:      -7.1      2.139      5.585
REMARK  4 active torsions:
REMARK  status: ('A' for Active; 'I' for Inactive)
REMARK    1  A    between atoms: O_1  and  C_11 
REMARK    2  A    between atoms: C_4  and  C_5 
REMARK    3  A    between atoms: C_4  and  C_6 
REMARK    4  A    between atoms: C_6  and  C_12 
ROOT
ATOM      1  O   UNL A   1     -54.052  50.832  10.506  1.00  0.00    -0.361 OA
ATOM      2  H   UNL A   1     -54.166  51.577   9.948  1.00  0.00     0.217 HD
ENDROOT
BRANCH   1   3
ATOM      3  C   UNL A   1     -54.326  49.584  10.038  1.00  0.00     0.065 A 
ATOM      4  C   UNL A   1     -55.595  49.289   9.540  1.00  0.00     0.037 A 
ATOM      5  C   UNL A   1     -55.878  48.010   9.062  1.00  0.00     0.010 A 
ATOM      6  C   UNL A   1     -54.890  47.024   9.082  1.00  0.00    -0.058 A 
ATOM      7  C   UNL A   1     -53.622  47.319   9.579  1.00  0.00     0.010 A 
ATOM      8  C   UNL A   1     -53.339  48.598  10.058  1.00  0.00     0.037 A 
BRANCH   6   9
ATOM      9  C   UNL A   1     -55.192  45.657   8.570  1.00  0.00     0.049 C 
BRANCH   9  10
ATOM     10  C   UNL A   1     -53.952  44.767   8.417  1.00  0.00     0.117 C 
BRANCH  10  11
ATOM     11  C   UNL A   1     -53.891  44.125   7.052  1.00  0.00     0.172 C 
ATOM     12  O   UNL A   1     -54.523  42.926   7.005  1.00  0.00    -0.648 OA
ATOM     13  O   UNL A   1     -53.353  44.640   6.081  1.00  0.00    -0.648 OA
ENDBRANCH  10  11
ENDBRANCH   9  10
ENDBRANCH   6   9
ENDBRANCH   1   3
TORSDOF 4
ENDMDL
MODEL 5
REMARK VINA RESULT:      -7.0      2.139      5.407
REMARK  4 active torsions:
REMARK  status: ('A' for Active; 'I' for Inactive)
REMARK    1  A    between atoms: O_1  and  C_11 
REMARK    2  A    between atoms: C_4  and  C_5 
REMARK    3  A    between atoms: C_4  and  C_6 
REMARK    4  A    between atoms: C_6  and  C_12 
ROOT
ATOM      1  O   UNL A   1     -53.986  50.842  10.498  1.00  0.00    -0.361 OA
ATOM      2  H   UNL A   1     -53.901  51.555   9.895  1.00  0.00     0.217 HD
ENDROOT
BRANCH   1   3
ATOM      3  C   UNL A   1     -54.275  49.594  10.039  1.00  0.00     0.065 A 
ATOM      4  C   UNL A   1     -53.328  48.576  10.143  1.00  0.00     0.037 A 
ATOM      5  C   UNL A   1     -53.622  47.297   9.672  1.00  0.00     0.010 A 
ATOM      6  C   UNL A   1     -54.865  47.035   9.095  1.00  0.00    -0.058 A 
ATOM      7  C   UNL A   1     -55.812  48.054   8.990  1.00  0.00     0.010 A 
ATOM      8  C   UNL A   1     -55.518  49.333   9.461  1.00  0.00     0.037 A 
BRANCH   6   9
ATOM      9  C   UNL A   1     -55.181  45.668   8.592  1.00  0.00     0.049 C 
BRANCH   9  10
ATOM     10  C   UNL A   1     -53.949  44.769   8.434  1.00  0.00     0.117 C 
BRANCH  10  11
ATOM     11  C   UNL A   1     -53.864  44.179   7.046  1.00  0.00     0.172 C 
ATOM     12  O   UNL A   1     -54.715  43.139   6.862  1.00  0.00    -0.648 OA
ATOM     13  O   UNL A   1     -53.126  44.607   6.168  1.00  0.00    -0.648 OA
ENDBRANCH  10  11
ENDBRANCH   9  10
ENDBRANCH   6   9
ENDBRANCH   1   3
TORSDOF 4
ENDMDL
MODEL 6
REMARK VINA RESULT:      -7.0      1.765      2.256
REMARK  4 active torsions:
REMARK  status: ('A' for Active; 'I' for Inactive)
REMARK    1  A    between atoms: O_1  and  C_11 
REMARK    2  A    between atoms: C_4  and  C_5 
REMARK    3  A    between atoms: C_4  and  C_6 
REMARK    4  A    between atoms: C_6  and  C_12 
ROOT
ATOM      1  O   UNL A   1     -53.698  43.241   8.751  1.00  0.00    -0.361 OA
ATOM      2  H   UNL A   1     -52.918  42.769   8.534  1.00  0.00     0.217 HD
ENDROOT
BRANCH   1   3
ATOM      3  C   UNL A   1     -53.625  44.559   9.081  1.00  0.00     0.065 A 
ATOM      4  C   UNL A   1     -52.451  45.077   9.627  1.00  0.00     0.037 A 
ATOM      5  C   UNL A   1     -52.375  46.428   9.966  1.00  0.00     0.010 A 
ATOM      6  C   UNL A   1     -53.475  47.262   9.760  1.00  0.00    -0.058 A 
ATOM      7  C   UNL A   1     -54.648  46.743   9.214  1.00  0.00     0.010 A 
ATOM      8  C   UNL A   1     -54.724  45.393   8.874  1.00  0.00     0.037 A 
BRANCH   6   9
ATOM      9  C   UNL A   1     -53.394  48.705  10.122  1.00  0.00     0.049 C 
BRANCH   9  10
ATOM     10  C   UNL A   1     -54.525  49.555   9.529  1.00  0.00     0.117 C 
BRANCH  10  11
ATOM     11  C   UNL A   1     -54.190  51.027   9.558  1.00  0.00     0.172 C 
ATOM     12  O   UNL A   1     -54.367  51.631   8.357  1.00  0.00    -0.648 OA
ATOM     13  O   UNL A   1     -53.823  51.622  10.563  1.00  0.00    -0.648 OA
ENDBRANCH  10  11
ENDBRANCH   9  10
ENDBRANCH   6   9
ENDBRANCH   1   3
TORSDOF 4
ENDMDL
MODEL 7
REMARK VINA RESULT:      -6.6      2.256      2.892
REMARK  4 active torsions:
REMARK  status: ('A' for Active; 'I' for Inactive)
REMARK    1  A    between atoms: O_1  and  C_11 
REMARK    2  A    between atoms: C_4  and  C_5 
REMARK    3  A    between atoms: C_4  and  C_6 
REMARK    4  A    between atoms: C_6  and  C_12 
ROOT
ATOM      1  O   UNL A   1     -52.167  44.331  11.293  1.00  0.00    -0.361 OA
ATOM      2  H   UNL A   1     -52.581  43.847  11.980  1.00  0.00     0.217 HD
ENDROOT
BRANCH   1   3
ATOM      3  C   UNL A   1     -52.820  45.369  10.703  1.00  0.00     0.065 A 
ATOM      4  C   UNL A   1     -53.923  45.125   9.885  1.00  0.00     0.037 A 
ATOM      5  C   UNL A   1     -54.592  46.187   9.279  1.00  0.00     0.010 A 
ATOM      6  C   UNL A   1     -54.158  47.497   9.491  1.00  0.00    -0.058 A 
ATOM      7  C   UNL A   1     -53.055  47.741  10.309  1.00  0.00     0.010 A 
ATOM      8  C   UNL A   1     -52.386  46.678  10.915  1.00  0.00     0.037 A 
BRANCH   6   9
ATOM      9  C   UNL A   1     -54.874  48.633   8.844  1.00  0.00     0.049 C 
BRANCH   9  10
ATOM     10  C   UNL A   1     -55.247  49.760   9.814  1.00  0.00     0.117 C 
BRANCH  10  11
ATOM     11  C   UNL A   1     -54.373  50.976   9.619  1.00  0.00     0.172 C 
ATOM     12  O   UNL A   1     -54.434  51.472   8.358  1.00  0.00    -0.648 OA
ATOM     13  O   UNL A   1     -53.698  51.480  10.508  1.00  0.00    -0.648 OA
ENDBRANCH  10  11
ENDBRANCH   9  10
ENDBRANCH   6   9
ENDBRANCH   1   3
TORSDOF 4
ENDMDL
MODEL 8
REMARK VINA RESULT:      -6.5      2.233      5.305
REMARK  4 active torsions:
REMARK  status: ('A' for Active; 'I' for Inactive)
REMARK    1  A    between atoms: O_1  and  C_11 
REMARK    2  A    between atoms: C_4  and  C_5 
REMARK    3  A    between atoms: C_4  and  C_6 
REMARK    4  A    between atoms: C_6  and  C_12 
ROOT
ATOM      1  O   UNL A   1     -54.520  50.482   8.744  1.00  0.00    -0.361 OA
ATOM      2  H   UNL A   1     -55.131  51.005   9.224  1.00  0.00     0.217 HD
ENDROOT
BRANCH   1   3
ATOM      3  C   UNL A   1     -54.449  49.142   8.970  1.00  0.00     0.065 A 
ATOM      4  C   UNL A   1     -53.252  48.569   9.400  1.00  0.00     0.037 A 
ATOM      5  C   UNL A   1     -53.177  47.196   9.631  1.00  0.00     0.010 A 
ATOM      6  C   UNL A   1     -54.301  46.393   9.432  1.00  0.00    -0.058 A 
ATOM      7  C   UNL A   1     -55.498  46.966   9.002  1.00  0.00     0.010 A 
ATOM      8  C   UNL A   1     -55.573  48.339   8.771  1.00  0.00     0.037 A 
BRANCH   6   9
ATOM      9  C   UNL A   1     -54.222  44.926   9.680  1.00  0.00     0.049 C 
BRANCH   9  10
ATOM     10  C   UNL A   1     -53.120  44.223   8.879  1.00  0.00     0.117 C 
BRANCH  10  11
ATOM     11  C   UNL A   1     -53.485  44.098   7.419  1.00  0.00     0.172 C 
ATOM     12  O   UNL A   1     -54.431  43.153   7.191  1.00  0.00    -0.648 OA
ATOM     13  O   UNL A   1     -53.001  44.791   6.534  1.00  0.00    -0.648 OA
ENDBRANCH  10  11
ENDBRANCH   9  10
ENDBRANCH   6   9
ENDBRANCH   1   3
TORSDOF 4
ENDMDL
MODEL 9
REMARK VINA RESULT:      -6.4      1.987      5.270
REMARK  4 active torsions:
REMARK  status: ('A' for Active; 'I' for Inactive)
REMARK    1  A    between atoms: O_1  and  C_11 
REMARK    2  A    between atoms: C_4  and  C_5 
REMARK    3  A    between atoms: C_4  and  C_6 
REMARK    4  A    between atoms: C_6  and  C_12 
ROOT
ATOM      1  O   UNL A   1     -54.508  51.885   8.932  1.00  0.00    -0.361 OA
ATOM      2  H   UNL A   1     -53.716  52.386   8.968  1.00  0.00     0.217 HD
ENDROOT
BRANCH   1   3
ATOM      3  C   UNL A   1     -54.467  50.537   9.108  1.00  0.00     0.065 A 
ATOM      4  C   UNL A   1     -53.239  49.883   9.211  1.00  0.00     0.037 A 
ATOM      5  C   UNL A   1     -53.196  48.501   9.391  1.00  0.00     0.010 A 
ATOM      6  C   UNL A   1     -54.383  47.771   9.467  1.00  0.00    -0.058 A 
ATOM      7  C   UNL A   1     -55.611  48.424   9.364  1.00  0.00     0.010 A 
ATOM      8  C   UNL A   1     -55.654  49.806   9.184  1.00  0.00     0.037 A 
BRANCH   6   9
ATOM      9  C   UNL A   1     -54.338  46.293   9.660  1.00  0.00     0.049 C 
BRANCH   9  10
ATOM     10  C   UNL A   1     -54.927  45.499   8.488  1.00  0.00     0.117 C 
BRANCH  10  11
ATOM     11  C   UNL A   1     -53.906  44.570   7.876  1.00  0.00     0.172 C 
ATOM     12  O   UNL A   1     -52.874  45.230   7.294  1.00  0.00    -0.648 OA
ATOM     13  O   UNL A   1     -53.983  43.349   7.920  1.00  0.00    -0.648 OA
ENDBRANCH  10  11
ENDBRANCH   9  10
ENDBRANCH   6   9
ENDBRANCH   1   3
TORSDOF 4
ENDMDL
