MODEL 1
REMARK VINA RESULT:      -7.7      0.000      0.000
REMARK  4 active torsions:
REMARK  status: ('A' for Active; 'I' for Inactive)
REMARK    1  A    between atoms: O_1  and  C_9 
REMARK    2  A    between atoms: O_2  and  C_10 
REMARK    3  A    between atoms: C_3  and  C_5 
REMARK    4  A    between atoms: C_4  and  C_8 
ROOT
HETATM    1  O   UNL     1     -51.166  45.860   3.196  1.00  0.00    -0.358 OA
HETATM    2  H   UNL     1     -51.704  46.506   2.782  1.00  0.00     0.217 HD
ENDROOT
BRANCH   1   3
HETATM    3  C   UNL     1     -51.376  45.535   4.503  1.00  0.00     0.099 A 
HETATM    4  C   UNL     1     -51.558  46.551   5.441  1.00  0.00     0.050 A 
HETATM    5  C   UNL     1     -51.770  46.217   6.769  1.00  0.00    -0.033 A 
HETATM    6  C   UNL     1     -51.805  44.897   7.184  1.00  0.00     0.014 A 
HETATM    7  C   UNL     1     -51.623  43.880   6.245  1.00  0.00     0.040 A 
HETATM    8  C   UNL     1     -51.408  44.200   4.905  1.00  0.00     0.098 A 
BRANCH   5   9
HETATM    9  C   UNL     1     -51.964  47.290   7.760  1.00  0.00     0.012 C 
HETATM   10  C   UNL     1     -53.004  47.376   8.623  1.00  0.00     0.012 C 
BRANCH  10  11
HETATM   11  C   UNL     1     -53.185  48.425   9.616  1.00  0.00    -0.036 A 
HETATM   12  C   UNL     1     -53.520  49.717   9.213  1.00  0.00     0.011 A 
HETATM   13  C   UNL     1     -53.693  50.722  10.165  1.00  0.00     0.001 A 
HETATM   14  C   UNL     1     -53.532  50.433  11.520  1.00  0.00     0.000 A 
HETATM   15  C   UNL     1     -53.198  49.140  11.923  1.00  0.00     0.001 A 
HETATM   16  C   UNL     1     -53.025  48.136  10.971  1.00  0.00     0.011 A 
ENDBRANCH  10  11
ENDBRANCH   5   9
BRANCH   8  17
HETATM   17  O   UNL     1     -51.230  43.199   3.998  1.00  0.00    -0.358 OA
HETATM   18  H   UNL     1     -50.824  43.381   3.173  1.00  0.00     0.217 HD
ENDBRANCH   8  17
ENDBRANCH   1   3
TORSDOF 4
ENDMDL
MODEL 2
REMARK VINA RESULT:      -7.5      1.123      1.950
REMARK  4 active torsions:
REMARK  status: ('A' for Active; 'I' for Inactive)
REMARK    1  A    between atoms: O_1  and  C_9 
REMARK    2  A    between atoms: O_2  and  C_10 
REMARK    3  A    between atoms: C_3  and  C_5 
REMARK    4  A    between atoms: C_4  and  C_8 
ROOT
HETATM    1  O   UNL     1     -51.426  47.739   4.068  1.00  0.00    -0.358 OA
HETATM    2  H   UNL     1     -52.082  47.794   3.400  1.00  0.00     0.217 HD
ENDROOT
BRANCH   1   3
HETATM    3  C   UNL     1     -51.546  46.819   5.066  1.00  0.00     0.099 A 
HETATM    4  C   UNL     1     -51.604  47.249   6.391  1.00  0.00     0.050 A 
HETATM    5  C   UNL     1     -51.725  46.310   7.403  1.00  0.00    -0.033 A 
HETATM    6  C   UNL     1     -51.789  44.955   7.127  1.00  0.00     0.014 A 
HETATM    7  C   UNL     1     -51.730  44.525   5.800  1.00  0.00     0.040 A 
HETATM    8  C   UNL     1     -51.609  45.457   4.771  1.00  0.00     0.098 A 
BRANCH   5   9
HETATM    9  C   UNL     1     -51.788  46.764   8.804  1.00  0.00     0.012 C 
HETATM   10  C   UNL     1     -52.788  47.504   9.341  1.00  0.00     0.012 C 
BRANCH  10  11
HETATM   11  C   UNL     1     -52.859  47.935  10.729  1.00  0.00    -0.036 A 
HETATM   12  C   UNL     1     -52.461  47.072  11.748  1.00  0.00     0.011 A 
HETATM   13  C   UNL     1     -52.529  47.485  13.079  1.00  0.00     0.001 A 
HETATM   14  C   UNL     1     -52.997  48.762  13.388  1.00  0.00     0.000 A 
HETATM   15  C   UNL     1     -53.396  49.626  12.368  1.00  0.00     0.001 A 
HETATM   16  C   UNL     1     -53.327  49.212  11.038  1.00  0.00     0.011 A 
ENDBRANCH  10  11
ENDBRANCH   5   9
BRANCH   8  17
HETATM   17  O   UNL     1     -51.551  45.025   3.480  1.00  0.00    -0.358 OA
HETATM   18  H   UNL     1     -52.147  44.367   3.179  1.00  0.00     0.217 HD
ENDBRANCH   8  17
ENDBRANCH   1   3
TORSDOF 4
ENDMDL
MODEL 3
REMARK VINA RESULT:      -7.3      0.993      2.296
REMARK  4 active torsions:
REMARK  status: ('A' for Active; 'I' for Inactive)
REMARK    1  A    between atoms: O_1  and  C_9 
REMARK    2  A    between atoms: O_2  and  C_10 
REMARK    3  A    between atoms: C_3  and  C_5 
REMARK    4  A    between atoms: C_4  and  C_8 
ROOT
HETATM    1  O   UNL     1     -51.919  43.636   5.037  1.00  0.00    -0.358 OA
HETATM    2  H   UNL     1     -52.383  43.042   5.594  1.00  0.00     0.217 HD
ENDROOT
BRANCH   1   3
HETATM    3  C   UNL     1     -51.730  44.928   5.428  1.00  0.00     0.099 A 
HETATM    4  C   UNL     1     -51.887  45.268   6.772  1.00  0.00     0.050 A 
HETATM    5  C   UNL     1     -51.694  46.582   7.165  1.00  0.00    -0.033 A 
HETATM    6  C   UNL     1     -51.350  47.565   6.253  1.00  0.00     0.014 A 
HETATM    7  C   UNL     1     -51.192  47.225   4.909  1.00  0.00     0.040 A 
HETATM    8  C   UNL     1     -51.383  45.907   4.497  1.00  0.00     0.098 A 
BRANCH   5   9
HETATM    9  C   UNL     1     -51.859  46.942   8.585  1.00  0.00     0.012 C 
HETATM   10  C   UNL     1     -52.745  47.848   9.063  1.00  0.00     0.012 C 
BRANCH  10  11
HETATM   11  C   UNL     1     -52.921  48.188  10.466  1.00  0.00    -0.036 A 
HETATM   12  C   UNL     1     -52.562  47.275  11.456  1.00  0.00     0.011 A 
HETATM   13  C   UNL     1     -52.731  47.602  12.802  1.00  0.00     0.001 A 
HETATM   14  C   UNL     1     -53.259  48.843  13.156  1.00  0.00     0.000 A 
HETATM   15  C   UNL     1     -53.618  49.757  12.166  1.00  0.00     0.001 A 
HETATM   16  C   UNL     1     -53.449  49.430  10.821  1.00  0.00     0.011 A 
ENDBRANCH  10  11
ENDBRANCH   5   9
BRANCH   8  17
HETATM   17  O   UNL     1     -51.228  45.588   3.182  1.00  0.00    -0.358 OA
HETATM   18  H   UNL     1     -50.573  44.969   2.924  1.00  0.00     0.217 HD
ENDBRANCH   8  17
ENDBRANCH   1   3
TORSDOF 4
ENDMDL
MODEL 4
REMARK VINA RESULT:      -7.2      0.711      1.700
REMARK  4 active torsions:
REMARK  status: ('A' for Active; 'I' for Inactive)
REMARK    1  A    between atoms: O_1  and  C_9 
REMARK    2  A    between atoms: O_2  and  C_10 
REMARK    3  A    between atoms: C_3  and  C_5 
REMARK    4  A    between atoms: C_4  and  C_8 
ROOT
HETATM    1  O   UNL     1     -51.831  42.635   6.634  1.00  0.00    -0.358 OA
HETATM    2  H   UNL     1     -52.652  42.184   6.600  1.00  0.00     0.217 HD
ENDROOT
BRANCH   1   3
HETATM    3  C   UNL     1     -51.743  43.922   6.195  1.00  0.00     0.099 A 
HETATM    4  C   UNL     1     -51.992  44.968   7.084  1.00  0.00     0.050 A 
HETATM    5  C   UNL     1     -51.902  46.275   6.634  1.00  0.00    -0.033 A 
HETATM    6  C   UNL     1     -51.570  46.566   5.320  1.00  0.00     0.014 A 
HETATM    7  C   UNL     1     -51.321  45.519   4.431  1.00  0.00     0.040 A 
HETATM    8  C   UNL     1     -51.408  44.198   4.870  1.00  0.00     0.098 A 
BRANCH   5   9
HETATM    9  C   UNL     1     -52.164  47.381   7.572  1.00  0.00     0.012 C 
HETATM   10  C   UNL     1     -52.886  47.281   8.713  1.00  0.00     0.012 C 
BRANCH  10  11
HETATM   11  C   UNL     1     -53.128  48.369   9.650  1.00  0.00    -0.036 A 
HETATM   12  C   UNL     1     -53.442  49.641   9.176  1.00  0.00     0.011 A 
HETATM   13  C   UNL     1     -53.674  50.683  10.074  1.00  0.00     0.001 A 
HETATM   14  C   UNL     1     -53.591  50.451  11.447  1.00  0.00     0.000 A 
HETATM   15  C   UNL     1     -53.277  49.177  11.922  1.00  0.00     0.001 A 
HETATM   16  C   UNL     1     -53.046  48.136  11.023  1.00  0.00     0.011 A 
ENDBRANCH  10  11
ENDBRANCH   5   9
BRANCH   8  17
HETATM   17  O   UNL     1     -51.164  43.185   3.992  1.00  0.00    -0.358 OA
HETATM   18  H   UNL     1     -51.636  43.142   3.183  1.00  0.00     0.217 HD
ENDBRANCH   8  17
ENDBRANCH   1   3
TORSDOF 4
ENDMDL
MODEL 5
REMARK VINA RESULT:      -7.0      1.146      1.912
REMARK  4 active torsions:
REMARK  status: ('A' for Active; 'I' for Inactive)
REMARK    1  A    between atoms: O_1  and  C_9 
REMARK    2  A    between atoms: O_2  and  C_10 
REMARK    3  A    between atoms: C_3  and  C_5 
REMARK    4  A    between atoms: C_4  and  C_8 
ROOT
HETATM    1  O   UNL     1     -51.563  43.606   3.309  1.00  0.00    -0.358 OA
HETATM    2  H   UNL     1     -50.806  43.886   2.832  1.00  0.00     0.217 HD
ENDROOT
BRANCH   1   3
HETATM    3  C   UNL     1     -51.556  43.631   4.672  1.00  0.00     0.099 A 
HETATM    4  C   UNL     1     -52.025  44.763   5.339  1.00  0.00     0.050 A 
HETATM    5  C   UNL     1     -52.016  44.785   6.724  1.00  0.00    -0.033 A 
HETATM    6  C   UNL     1     -51.551  43.708   7.460  1.00  0.00     0.014 A 
HETATM    7  C   UNL     1     -51.082  42.575   6.793  1.00  0.00     0.040 A 
HETATM    8  C   UNL     1     -51.085  42.538   5.399  1.00  0.00     0.098 A 
BRANCH   5   9
HETATM    9  C   UNL     1     -52.512  45.980   7.430  1.00  0.00     0.012 C 
HETATM   10  C   UNL     1     -52.253  46.286   8.724  1.00  0.00     0.012 C 
BRANCH  10  11
HETATM   11  C   UNL     1     -52.727  47.476   9.415  1.00  0.00    -0.036 A 
HETATM   12  C   UNL     1     -52.790  47.495  10.807  1.00  0.00     0.011 A 
HETATM   13  C   UNL     1     -53.244  48.636  11.469  1.00  0.00     0.001 A 
HETATM   14  C   UNL     1     -53.634  49.757  10.737  1.00  0.00     0.000 A 
HETATM   15  C   UNL     1     -53.570  49.738   9.344  1.00  0.00     0.001 A 
HETATM   16  C   UNL     1     -53.116  48.597   8.682  1.00  0.00     0.011 A 
ENDBRANCH  10  11
ENDBRANCH   5   9
BRANCH   8  17
HETATM   17  O   UNL     1     -50.623  41.428   4.758  1.00  0.00    -0.358 OA
HETATM   18  H   UNL     1     -51.018  40.594   4.923  1.00  0.00     0.217 HD
ENDBRANCH   8  17
ENDBRANCH   1   3
TORSDOF 4
ENDMDL
MODEL 6
REMARK VINA RESULT:      -7.0      4.312      6.872
REMARK  4 active torsions:
REMARK  status: ('A' for Active; 'I' for Inactive)
REMARK    1  A    between atoms: O_1  and  C_9 
REMARK    2  A    between atoms: O_2  and  C_10 
REMARK    3  A    between atoms: C_3  and  C_5 
REMARK    4  A    between atoms: C_4  and  C_8 
ROOT
HETATM    1  O   UNL     1     -53.429  50.337   7.782  1.00  0.00    -0.358 OA
HETATM    2  H   UNL     1     -53.398  51.183   7.379  1.00  0.00     0.217 HD
ENDROOT
BRANCH   1   3
HETATM    3  C   UNL     1     -53.422  50.229   9.140  1.00  0.00     0.099 A 
HETATM    4  C   UNL     1     -53.227  48.979   9.727  1.00  0.00     0.050 A 
HETATM    5  C   UNL     1     -53.221  48.873  11.109  1.00  0.00    -0.033 A 
HETATM    6  C   UNL     1     -53.404  49.982  11.919  1.00  0.00     0.014 A 
HETATM    7  C   UNL     1     -53.598  51.232  11.331  1.00  0.00     0.040 A 
HETATM    8  C   UNL     1     -53.607  51.355   9.942  1.00  0.00     0.098 A 
BRANCH   5   9
HETATM    9  C   UNL     1     -53.014  47.552  11.730  1.00  0.00     0.012 C 
HETATM   10  C   UNL     1     -52.375  46.509  11.151  1.00  0.00     0.012 C 
BRANCH  10  11
HETATM   11  C   UNL     1     -52.153  45.212  11.772  1.00  0.00    -0.036 A 
HETATM   12  C   UNL     1     -51.720  45.137  13.095  1.00  0.00     0.011 A 
HETATM   13  C   UNL     1     -51.508  43.893  13.690  1.00  0.00     0.001 A 
HETATM   14  C   UNL     1     -51.730  42.725  12.961  1.00  0.00     0.000 A 
HETATM   15  C   UNL     1     -52.164  42.800  11.637  1.00  0.00     0.001 A 
HETATM   16  C   UNL     1     -52.376  44.043  11.043  1.00  0.00     0.011 A 
ENDBRANCH  10  11
ENDBRANCH   5   9
BRANCH   8  17
HETATM   17  O   UNL     1     -53.800  52.581   9.380  1.00  0.00    -0.358 OA
HETATM   18  H   UNL     1     -54.402  53.185   9.769  1.00  0.00     0.217 HD
ENDBRANCH   8  17
ENDBRANCH   1   3
TORSDOF 4
ENDMDL
MODEL 7
REMARK VINA RESULT:      -6.8      4.013      7.087
REMARK  4 active torsions:
REMARK  status: ('A' for Active; 'I' for Inactive)
REMARK    1  A    between atoms: O_1  and  C_9 
REMARK    2  A    between atoms: O_2  and  C_10 
REMARK    3  A    between atoms: C_3  and  C_5 
REMARK    4  A    between atoms: C_4  and  C_8 
ROOT
HETATM    1  O   UNL     1     -53.645  51.925   8.891  1.00  0.00    -0.358 OA
HETATM    2  H   UNL     1     -52.904  52.158   8.366  1.00  0.00     0.217 HD
ENDROOT
BRANCH   1   3
HETATM    3  C   UNL     1     -53.564  50.876   9.756  1.00  0.00     0.099 A 
HETATM    4  C   UNL     1     -53.577  49.574   9.258  1.00  0.00     0.050 A 
HETATM    5  C   UNL     1     -53.495  48.510  10.142  1.00  0.00    -0.033 A 
HETATM    6  C   UNL     1     -53.400  48.712  11.509  1.00  0.00     0.014 A 
HETATM    7  C   UNL     1     -53.386  50.016  12.007  1.00  0.00     0.040 A 
HETATM    8  C   UNL     1     -53.468  51.097  11.130  1.00  0.00     0.098 A 
BRANCH   5   9
HETATM    9  C   UNL     1     -53.508  47.133   9.616  1.00  0.00     0.012 C 
HETATM   10  C   UNL     1     -52.579  46.185   9.888  1.00  0.00     0.012 C 
BRANCH  10  11
HETATM   11  C   UNL     1     -52.602  44.820   9.385  1.00  0.00    -0.036 A 
HETATM   12  C   UNL     1     -51.454  44.263   8.825  1.00  0.00     0.011 A 
HETATM   13  C   UNL     1     -51.476  42.954   8.343  1.00  0.00     0.001 A 
HETATM   14  C   UNL     1     -52.649  42.203   8.422  1.00  0.00     0.000 A 
HETATM   15  C   UNL     1     -53.798  42.760   8.982  1.00  0.00     0.001 A 
HETATM   16  C   UNL     1     -53.775  44.069   9.464  1.00  0.00     0.011 A 
ENDBRANCH  10  11
ENDBRANCH   5   9
BRANCH   8  17
HETATM   17  O   UNL     1     -53.456  52.365  11.629  1.00  0.00    -0.358 OA
HETATM   18  H   UNL     1     -52.692  52.899  11.532  1.00  0.00     0.217 HD
ENDBRANCH   8  17
ENDBRANCH   1   3
TORSDOF 4
ENDMDL
MODEL 8
REMARK VINA RESULT:      -6.7      3.108      3.320
REMARK  4 active torsions:
REMARK  status: ('A' for Active; 'I' for Inactive)
REMARK    1  A    between atoms: O_1  and  C_9 
REMARK    2  A    between atoms: O_2  and  C_10 
REMARK    3  A    between atoms: C_3  and  C_5 
REMARK    4  A    between atoms: C_4  and  C_8 
ROOT
HETATM    1  O   UNL     1     -55.110  42.280   8.143  1.00  0.00    -0.358 OA
HETATM    2  H   UNL     1     -55.361  41.474   8.552  1.00  0.00     0.217 HD
ENDROOT
BRANCH   1   3
HETATM    3  C   UNL     1     -53.939  42.883   8.491  1.00  0.00     0.099 A 
HETATM    4  C   UNL     1     -53.969  44.141   9.094  1.00  0.00     0.050 A 
HETATM    5  C   UNL     1     -52.777  44.752   9.446  1.00  0.00    -0.033 A 
HETATM    6  C   UNL     1     -51.556  44.142   9.211  1.00  0.00     0.014 A 
HETATM    7  C   UNL     1     -51.526  42.884   8.608  1.00  0.00     0.040 A 
HETATM    8  C   UNL     1     -52.718  42.256   8.248  1.00  0.00     0.098 A 
BRANCH   5   9
HETATM    9  C   UNL     1     -52.808  46.080  10.085  1.00  0.00     0.012 C 
HETATM   10  C   UNL     1     -53.342  47.197   9.536  1.00  0.00     0.012 C 
BRANCH  10  11
HETATM   11  C   UNL     1     -53.390  48.504  10.175  1.00  0.00    -0.036 A 
HETATM   12  C   UNL     1     -53.659  49.642   9.416  1.00  0.00     0.011 A 
HETATM   13  C   UNL     1     -53.706  50.894  10.028  1.00  0.00     0.001 A 
HETATM   14  C   UNL     1     -53.483  51.007  11.401  1.00  0.00     0.000 A 
HETATM   15  C   UNL     1     -53.214  49.869  12.160  1.00  0.00     0.001 A 
HETATM   16  C   UNL     1     -53.168  48.616  11.548  1.00  0.00     0.011 A 
ENDBRANCH  10  11
ENDBRANCH   5   9
BRANCH   8  17
HETATM   17  O   UNL     1     -52.676  41.028   7.658  1.00  0.00    -0.358 OA
HETATM   18  H   UNL     1     -53.415  40.455   7.715  1.00  0.00     0.217 HD
ENDBRANCH   8  17
ENDBRANCH   1   3
TORSDOF 4
ENDMDL
MODEL 9
REMARK VINA RESULT:      -6.7      1.982      2.818
REMARK  4 active torsions:
REMARK  status: ('A' for Active; 'I' for Inactive)
REMARK    1  A    between atoms: O_1  and  C_9 
REMARK    2  A    between atoms: O_2  and  C_10 
REMARK    3  A    between atoms: C_3  and  C_5 
REMARK    4  A    between atoms: C_4  and  C_8 
ROOT
HETATM    1  O   UNL     1     -50.792  42.656   5.989  1.00  0.00    -0.358 OA
HETATM    2  H   UNL     1     -50.860  41.813   5.585  1.00  0.00     0.217 HD
ENDROOT
BRANCH   1   3
HETATM    3  C   UNL     1     -51.605  42.979   7.033  1.00  0.00     0.099 A 
HETATM    4  C   UNL     1     -51.647  44.297   7.487  1.00  0.00     0.050 A 
HETATM    5  C   UNL     1     -52.474  44.622   8.550  1.00  0.00    -0.033 A 
HETATM    6  C   UNL     1     -53.260  43.665   9.171  1.00  0.00     0.014 A 
HETATM    7  C   UNL     1     -53.218  42.346   8.717  1.00  0.00     0.040 A 
HETATM    8  C   UNL     1     -52.390  42.004   7.648  1.00  0.00     0.098 A 
BRANCH   5   9
HETATM    9  C   UNL     1     -52.520  46.015   9.029  1.00  0.00     0.012 C 
HETATM   10  C   UNL     1     -53.413  46.503   9.922  1.00  0.00     0.012 C 
BRANCH  10  11
HETATM   11  C   UNL     1     -53.446  47.874  10.411  1.00  0.00    -0.036 A 
HETATM   12  C   UNL     1     -53.171  48.144  11.750  1.00  0.00     0.011 A 
HETATM   13  C   UNL     1     -53.202  49.458  12.218  1.00  0.00     0.001 A 
HETATM   14  C   UNL     1     -53.509  50.501  11.345  1.00  0.00     0.000 A 
HETATM   15  C   UNL     1     -53.785  50.231  10.004  1.00  0.00     0.001 A 
HETATM   16  C   UNL     1     -53.753  48.917   9.537  1.00  0.00     0.011 A 
ENDBRANCH  10  11
ENDBRANCH   5   9
BRANCH   8  17
HETATM   17  O   UNL     1     -52.356  40.713   7.215  1.00  0.00    -0.358 OA
HETATM   18  H   UNL     1     -53.042  40.120   7.455  1.00  0.00     0.217 HD
ENDBRANCH   8  17
ENDBRANCH   1   3
TORSDOF 4
ENDMDL
