MODEL 1
REMARK VINA RESULT:      -7.7      0.000      0.000
REMARK  4 active torsions:
REMARK  status: ('A' for Active; 'I' for Inactive)
REMARK    1  A    between atoms: O_1  and  C_9 
REMARK    2  A    between atoms: O_2  and  C_10 
REMARK    3  A    between atoms: C_3  and  C_5 
REMARK    4  A    between atoms: C_4  and  C_8 
ROOT
HETATM    1  O   UNL     1     -51.114  45.836   3.185  1.00  0.00    -0.358 OA
HETATM    2  H   UNL     1     -51.641  46.481   2.753  1.00  0.00     0.217 HD
ENDROOT
BRANCH   1   3
HETATM    3  C   UNL     1     -51.362  45.517   4.487  1.00  0.00     0.099 A 
HETATM    4  C   UNL     1     -51.560  46.537   5.417  1.00  0.00     0.050 A 
HETATM    5  C   UNL     1     -51.811  46.209   6.739  1.00  0.00    -0.033 A 
HETATM    6  C   UNL     1     -51.868  44.889   7.157  1.00  0.00     0.014 A 
HETATM    7  C   UNL     1     -51.669  43.869   6.226  1.00  0.00     0.040 A 
HETATM    8  C   UNL     1     -51.416  44.184   4.891  1.00  0.00     0.098 A 
BRANCH   5   9
HETATM    9  C   UNL     1     -52.022  47.286   7.723  1.00  0.00     0.012 C 
HETATM   10  C   UNL     1     -52.977  47.289   8.683  1.00  0.00     0.012 C 
BRANCH  10  11
HETATM   11  C   UNL     1     -53.172  48.344   9.667  1.00  0.00    -0.036 A 
HETATM   12  C   UNL     1     -53.512  49.630   9.252  1.00  0.00     0.011 A 
HETATM   13  C   UNL     1     -53.700  50.641  10.195  1.00  0.00     0.001 A 
HETATM   14  C   UNL     1     -53.548  50.363  11.554  1.00  0.00     0.000 A 
HETATM   15  C   UNL     1     -53.209  49.075  11.969  1.00  0.00     0.001 A 
HETATM   16  C   UNL     1     -53.021  48.065  11.026  1.00  0.00     0.011 A 
ENDBRANCH  10  11
ENDBRANCH   5   9
BRANCH   8  17
HETATM   17  O   UNL     1     -51.222  43.179   3.992  1.00  0.00    -0.358 OA
HETATM   18  H   UNL     1     -51.368  42.288   4.246  1.00  0.00     0.217 HD
ENDBRANCH   8  17
ENDBRANCH   1   3
TORSDOF 4
ENDMDL
MODEL 2
REMARK VINA RESULT:      -7.5      1.105      1.916
REMARK  4 active torsions:
REMARK  status: ('A' for Active; 'I' for Inactive)
REMARK    1  A    between atoms: O_1  and  C_9 
REMARK    2  A    between atoms: O_2  and  C_10 
REMARK    3  A    between atoms: C_3  and  C_5 
REMARK    4  A    between atoms: C_4  and  C_8 
ROOT
HETATM    1  O   UNL     1     -51.562  47.775   4.091  1.00  0.00    -0.358 OA
HETATM    2  H   UNL     1     -50.727  48.035   3.755  1.00  0.00     0.217 HD
ENDROOT
BRANCH   1   3
HETATM    3  C   UNL     1     -51.639  46.834   5.074  1.00  0.00     0.099 A 
HETATM    4  C   UNL     1     -51.723  47.240   6.405  1.00  0.00     0.050 A 
HETATM    5  C   UNL     1     -51.800  46.281   7.402  1.00  0.00    -0.033 A 
HETATM    6  C   UNL     1     -51.795  44.929   7.105  1.00  0.00     0.014 A 
HETATM    7  C   UNL     1     -51.711  44.523   5.772  1.00  0.00     0.040 A 
HETATM    8  C   UNL     1     -51.633  45.476   4.758  1.00  0.00     0.098 A 
BRANCH   5   9
HETATM    9  C   UNL     1     -51.889  46.710   8.810  1.00  0.00     0.012 C 
HETATM   10  C   UNL     1     -52.771  47.616   9.295  1.00  0.00     0.012 C 
BRANCH  10  11
HETATM   11  C   UNL     1     -52.873  48.023  10.688  1.00  0.00    -0.036 A 
HETATM   12  C   UNL     1     -52.482  47.150  11.701  1.00  0.00     0.011 A 
HETATM   13  C   UNL     1     -52.579  47.541  13.037  1.00  0.00     0.001 A 
HETATM   14  C   UNL     1     -53.067  48.807  13.358  1.00  0.00     0.000 A 
HETATM   15  C   UNL     1     -53.458  49.682  12.344  1.00  0.00     0.001 A 
HETATM   16  C   UNL     1     -53.361  49.291  11.009  1.00  0.00     0.011 A 
ENDBRANCH  10  11
ENDBRANCH   5   9
BRANCH   8  17
HETATM   17  O   UNL     1     -51.550  45.067   3.461  1.00  0.00    -0.358 OA
HETATM   18  H   UNL     1     -50.729  44.779   3.112  1.00  0.00     0.217 HD
ENDBRANCH   8  17
ENDBRANCH   1   3
TORSDOF 4
ENDMDL
MODEL 3
REMARK VINA RESULT:      -7.3      0.996      1.996
REMARK  4 active torsions:
REMARK  status: ('A' for Active; 'I' for Inactive)
REMARK    1  A    between atoms: O_1  and  C_9 
REMARK    2  A    between atoms: O_2  and  C_10 
REMARK    3  A    between atoms: C_3  and  C_5 
REMARK    4  A    between atoms: C_4  and  C_8 
ROOT
HETATM    1  O   UNL     1     -51.936  43.641   5.077  1.00  0.00    -0.358 OA
HETATM    2  H   UNL     1     -52.047  43.437   4.169  1.00  0.00     0.217 HD
ENDROOT
BRANCH   1   3
HETATM    3  C   UNL     1     -51.740  44.932   5.466  1.00  0.00     0.099 A 
HETATM    4  C   UNL     1     -51.902  45.276   6.808  1.00  0.00     0.050 A 
HETATM    5  C   UNL     1     -51.702  46.590   7.200  1.00  0.00    -0.033 A 
HETATM    6  C   UNL     1     -51.346  47.569   6.287  1.00  0.00     0.014 A 
HETATM    7  C   UNL     1     -51.185  47.225   4.944  1.00  0.00     0.040 A 
HETATM    8  C   UNL     1     -51.382  45.907   4.535  1.00  0.00     0.098 A 
BRANCH   5   9
HETATM    9  C   UNL     1     -51.872  46.953   8.618  1.00  0.00     0.012 C 
HETATM   10  C   UNL     1     -52.743  47.878   9.088  1.00  0.00     0.012 C 
BRANCH  10  11
HETATM   11  C   UNL     1     -52.924  48.222  10.490  1.00  0.00    -0.036 A 
HETATM   12  C   UNL     1     -53.460  49.460  10.840  1.00  0.00     0.011 A 
HETATM   13  C   UNL     1     -53.634  49.791  12.184  1.00  0.00     0.001 A 
HETATM   14  C   UNL     1     -53.271  48.881  13.177  1.00  0.00     0.000 A 
HETATM   15  C   UNL     1     -52.735  47.642  12.827  1.00  0.00     0.001 A 
HETATM   16  C   UNL     1     -52.562  47.312  11.483  1.00  0.00     0.011 A 
ENDBRANCH  10  11
ENDBRANCH   5   9
BRANCH   8  17
HETATM   17  O   UNL     1     -51.223  45.584   3.221  1.00  0.00    -0.358 OA
HETATM   18  H   UNL     1     -51.265  46.253   2.565  1.00  0.00     0.217 HD
ENDBRANCH   8  17
ENDBRANCH   1   3
TORSDOF 4
ENDMDL
MODEL 4
REMARK VINA RESULT:      -7.3      0.714      1.709
REMARK  4 active torsions:
REMARK  status: ('A' for Active; 'I' for Inactive)
REMARK    1  A    between atoms: O_1  and  C_9 
REMARK    2  A    between atoms: O_2  and  C_10 
REMARK    3  A    between atoms: C_3  and  C_5 
REMARK    4  A    between atoms: C_4  and  C_8 
ROOT
HETATM    1  O   UNL     1     -51.790  42.570   6.675  1.00  0.00    -0.358 OA
HETATM    2  H   UNL     1     -51.685  41.862   6.069  1.00  0.00     0.217 HD
ENDROOT
BRANCH   1   3
HETATM    3  C   UNL     1     -51.704  43.858   6.238  1.00  0.00     0.099 A 
HETATM    4  C   UNL     1     -51.918  44.902   7.138  1.00  0.00     0.050 A 
HETATM    5  C   UNL     1     -51.832  46.211   6.690  1.00  0.00    -0.033 A 
HETATM    6  C   UNL     1     -51.537  46.503   5.369  1.00  0.00     0.014 A 
HETATM    7  C   UNL     1     -51.323  45.458   4.469  1.00  0.00     0.040 A 
HETATM    8  C   UNL     1     -51.407  44.136   4.904  1.00  0.00     0.098 A 
BRANCH   5   9
HETATM    9  C   UNL     1     -52.057  47.315   7.640  1.00  0.00     0.012 C 
HETATM   10  C   UNL     1     -52.932  47.289   8.673  1.00  0.00     0.012 C 
BRANCH  10  11
HETATM   11  C   UNL     1     -53.139  48.372   9.623  1.00  0.00    -0.036 A 
HETATM   12  C   UNL     1     -53.466  49.648   9.166  1.00  0.00     0.011 A 
HETATM   13  C   UNL     1     -53.665  50.686  10.076  1.00  0.00     0.001 A 
HETATM   14  C   UNL     1     -53.538  50.446  11.444  1.00  0.00     0.000 A 
HETATM   15  C   UNL     1     -53.212  49.169  11.902  1.00  0.00     0.001 A 
HETATM   16  C   UNL     1     -53.013  48.132  10.991  1.00  0.00     0.011 A 
ENDBRANCH  10  11
ENDBRANCH   5   9
BRANCH   8  17
HETATM   17  O   UNL     1     -51.198  43.125   4.016  1.00  0.00    -0.358 OA
HETATM   18  H   UNL     1     -51.541  43.187   3.146  1.00  0.00     0.217 HD
ENDBRANCH   8  17
ENDBRANCH   1   3
TORSDOF 4
ENDMDL
MODEL 5
REMARK VINA RESULT:      -7.2      0.678      2.075
REMARK  4 active torsions:
REMARK  status: ('A' for Active; 'I' for Inactive)
REMARK    1  A    between atoms: O_1  and  C_9 
REMARK    2  A    between atoms: O_2  and  C_10 
REMARK    3  A    between atoms: C_3  and  C_5 
REMARK    4  A    between atoms: C_4  and  C_8 
ROOT
HETATM    1  O   UNL     1     -51.891  42.632   6.539  1.00  0.00    -0.358 OA
HETATM    2  H   UNL     1     -51.727  41.942   5.926  1.00  0.00     0.217 HD
ENDROOT
BRANCH   1   3
HETATM    3  C   UNL     1     -51.757  43.932   6.154  1.00  0.00     0.099 A 
HETATM    4  C   UNL     1     -51.948  44.948   7.090  1.00  0.00     0.050 A 
HETATM    5  C   UNL     1     -51.811  46.269   6.694  1.00  0.00    -0.033 A 
HETATM    6  C   UNL     1     -51.489  46.601   5.388  1.00  0.00     0.014 A 
HETATM    7  C   UNL     1     -51.297  45.585   4.452  1.00  0.00     0.040 A 
HETATM    8  C   UNL     1     -51.431  44.251   4.835  1.00  0.00     0.098 A 
BRANCH   5   9
HETATM    9  C   UNL     1     -52.012  47.343   7.683  1.00  0.00     0.012 C 
HETATM   10  C   UNL     1     -52.977  47.359   8.632  1.00  0.00     0.012 C 
BRANCH  10  11
HETATM   11  C   UNL     1     -53.163  48.410   9.621  1.00  0.00    -0.036 A 
HETATM   12  C   UNL     1     -53.015  48.126  10.978  1.00  0.00     0.011 A 
HETATM   13  C   UNL     1     -53.193  49.134  11.926  1.00  0.00     0.001 A 
HETATM   14  C   UNL     1     -53.520  50.426  11.515  1.00  0.00     0.000 A 
HETATM   15  C   UNL     1     -53.668  50.711  10.158  1.00  0.00     0.001 A 
HETATM   16  C   UNL     1     -53.490  49.703   9.210  1.00  0.00     0.011 A 
ENDBRANCH  10  11
ENDBRANCH   5   9
BRANCH   8  17
HETATM   17  O   UNL     1     -51.244  43.267   3.912  1.00  0.00    -0.358 OA
HETATM   18  H   UNL     1     -51.572  43.374   3.040  1.00  0.00     0.217 HD
ENDBRANCH   8  17
ENDBRANCH   1   3
TORSDOF 4
ENDMDL
MODEL 6
REMARK VINA RESULT:      -6.9      4.445      6.884
REMARK  4 active torsions:
REMARK  status: ('A' for Active; 'I' for Inactive)
REMARK    1  A    between atoms: O_1  and  C_9 
REMARK    2  A    between atoms: O_2  and  C_10 
REMARK    3  A    between atoms: C_3  and  C_5 
REMARK    4  A    between atoms: C_4  and  C_8 
ROOT
HETATM    1  O   UNL     1     -53.449  50.278   7.760  1.00  0.00    -0.358 OA
HETATM    2  H   UNL     1     -52.911  50.934   7.361  1.00  0.00     0.217 HD
ENDROOT
BRANCH   1   3
HETATM    3  C   UNL     1     -53.395  50.080   9.107  1.00  0.00     0.099 A 
HETATM    4  C   UNL     1     -53.073  48.816   9.601  1.00  0.00     0.050 A 
HETATM    5  C   UNL     1     -53.020  48.618  10.971  1.00  0.00    -0.033 A 
HETATM    6  C   UNL     1     -53.279  49.648  11.860  1.00  0.00     0.014 A 
HETATM    7  C   UNL     1     -53.601  50.913  11.366  1.00  0.00     0.040 A 
HETATM    8  C   UNL     1     -53.659  51.128   9.989  1.00  0.00     0.098 A 
BRANCH   5   9
HETATM    9  C   UNL     1     -52.679  47.283  11.495  1.00  0.00     0.012 C 
HETATM   10  C   UNL     1     -52.170  47.034  12.725  1.00  0.00     0.012 C 
BRANCH  10  11
HETATM   11  C   UNL     1     -51.852  45.714  13.248  1.00  0.00    -0.036 A 
HETATM   12  C   UNL     1     -50.936  45.579  14.291  1.00  0.00     0.011 A 
HETATM   13  C   UNL     1     -50.632  44.314  14.793  1.00  0.00     0.001 A 
HETATM   14  C   UNL     1     -51.245  43.184  14.252  1.00  0.00     0.000 A 
HETATM   15  C   UNL     1     -52.161  43.318  13.209  1.00  0.00     0.001 A 
HETATM   16  C   UNL     1     -52.466  44.584  12.707  1.00  0.00     0.011 A 
ENDBRANCH  10  11
ENDBRANCH   5   9
BRANCH   8  17
HETATM   17  O   UNL     1     -53.976  52.366   9.518  1.00  0.00    -0.358 OA
HETATM   18  H   UNL     1     -53.306  53.014   9.414  1.00  0.00     0.217 HD
ENDBRANCH   8  17
ENDBRANCH   1   3
TORSDOF 4
ENDMDL
MODEL 7
REMARK VINA RESULT:      -6.8      3.663      7.106
REMARK  4 active torsions:
REMARK  status: ('A' for Active; 'I' for Inactive)
REMARK    1  A    between atoms: O_1  and  C_9 
REMARK    2  A    between atoms: O_2  and  C_10 
REMARK    3  A    between atoms: C_3  and  C_5 
REMARK    4  A    between atoms: C_4  and  C_8 
ROOT
HETATM    1  O   UNL     1     -53.788  52.547   8.997  1.00  0.00    -0.358 OA
HETATM    2  H   UNL     1     -53.845  53.335   9.501  1.00  0.00     0.217 HD
ENDROOT
BRANCH   1   3
HETATM    3  C   UNL     1     -53.579  51.354   9.621  1.00  0.00     0.099 A 
HETATM    4  C   UNL     1     -53.389  50.204   8.855  1.00  0.00     0.050 A 
HETATM    5  C   UNL     1     -53.177  48.992   9.493  1.00  0.00    -0.033 A 
HETATM    6  C   UNL     1     -53.150  48.899  10.875  1.00  0.00     0.014 A 
HETATM    7  C   UNL     1     -53.340  50.050  11.641  1.00  0.00     0.040 A 
HETATM    8  C   UNL     1     -53.554  51.277  11.013  1.00  0.00     0.098 A 
BRANCH   5   9
HETATM    9  C   UNL     1     -52.975  47.776   8.685  1.00  0.00     0.012 C 
HETATM   10  C   UNL     1     -52.129  47.671   7.633  1.00  0.00     0.012 C 
BRANCH  10  11
HETATM   11  C   UNL     1     -51.915  46.465   6.847  1.00  0.00    -0.036 A 
HETATM   12  C   UNL     1     -51.621  46.561   5.488  1.00  0.00     0.011 A 
HETATM   13  C   UNL     1     -51.416  45.405   4.735  1.00  0.00     0.001 A 
HETATM   14  C   UNL     1     -51.504  44.153   5.343  1.00  0.00     0.000 A 
HETATM   15  C   UNL     1     -51.798  44.056   6.703  1.00  0.00     0.001 A 
HETATM   16  C   UNL     1     -52.003  45.213   7.456  1.00  0.00     0.011 A 
ENDBRANCH  10  11
ENDBRANCH   5   9
BRANCH   8  17
HETATM   17  O   UNL     1     -53.741  52.393  11.772  1.00  0.00    -0.358 OA
HETATM   18  H   UNL     1     -54.342  52.376  12.491  1.00  0.00     0.217 HD
ENDBRANCH   8  17
ENDBRANCH   1   3
TORSDOF 4
ENDMDL
MODEL 8
REMARK VINA RESULT:      -6.8      4.969      7.164
REMARK  4 active torsions:
REMARK  status: ('A' for Active; 'I' for Inactive)
REMARK    1  A    between atoms: O_1  and  C_9 
REMARK    2  A    between atoms: O_2  and  C_10 
REMARK    3  A    between atoms: C_3  and  C_5 
REMARK    4  A    between atoms: C_4  and  C_8 
ROOT
HETATM    1  O   UNL     1     -53.526  52.284  11.781  1.00  0.00    -0.358 OA
HETATM    2  H   UNL     1     -53.862  52.323  12.655  1.00  0.00     0.217 HD
ENDROOT
BRANCH   1   3
HETATM    3  C   UNL     1     -53.459  51.090  11.129  1.00  0.00     0.099 A 
HETATM    4  C   UNL     1     -53.234  49.923  11.859  1.00  0.00     0.050 A 
HETATM    5  C   UNL     1     -53.166  48.710  11.192  1.00  0.00    -0.033 A 
HETATM    6  C   UNL     1     -53.316  48.632   9.818  1.00  0.00     0.014 A 
HETATM    7  C   UNL     1     -53.541  49.800   9.088  1.00  0.00     0.040 A 
HETATM    8  C   UNL     1     -53.612  51.028   9.744  1.00  0.00     0.098 A 
BRANCH   5   9
HETATM    9  C   UNL     1     -52.929  47.475  11.963  1.00  0.00     0.012 C 
HETATM   10  C   UNL     1     -52.172  46.432  11.550  1.00  0.00     0.012 C 
BRANCH  10  11
HETATM   11  C   UNL     1     -51.922  45.222  12.319  1.00  0.00    -0.036 A 
HETATM   12  C   UNL     1     -51.278  45.300  13.553  1.00  0.00     0.011 A 
HETATM   13  C   UNL     1     -51.039  44.140  14.290  1.00  0.00     0.001 A 
HETATM   14  C   UNL     1     -51.445  42.902  13.792  1.00  0.00     0.000 A 
HETATM   15  C   UNL     1     -52.091  42.824  12.558  1.00  0.00     0.001 A 
HETATM   16  C   UNL     1     -52.330  43.984  11.822  1.00  0.00     0.011 A 
ENDBRANCH  10  11
ENDBRANCH   5   9
BRANCH   8  17
HETATM   17  O   UNL     1     -53.830  52.161   9.020  1.00  0.00    -0.358 OA
HETATM   18  H   UNL     1     -54.361  52.849   9.375  1.00  0.00     0.217 HD
ENDBRANCH   8  17
ENDBRANCH   1   3
TORSDOF 4
ENDMDL
MODEL 9
REMARK VINA RESULT:      -6.8      4.035      7.085
REMARK  4 active torsions:
REMARK  status: ('A' for Active; 'I' for Inactive)
REMARK    1  A    between atoms: O_1  and  C_9 
REMARK    2  A    between atoms: O_2  and  C_10 
REMARK    3  A    between atoms: C_3  and  C_5 
REMARK    4  A    between atoms: C_4  and  C_8 
ROOT
HETATM    1  O   UNL     1     -53.650  51.898   8.899  1.00  0.00    -0.358 OA
HETATM    2  H   UNL     1     -53.169  51.874   8.095  1.00  0.00     0.217 HD
ENDROOT
BRANCH   1   3
HETATM    3  C   UNL     1     -53.571  50.854   9.771  1.00  0.00     0.099 A 
HETATM    4  C   UNL     1     -53.590  49.549   9.281  1.00  0.00     0.050 A 
HETATM    5  C   UNL     1     -53.510  48.490  10.171  1.00  0.00    -0.033 A 
HETATM    6  C   UNL     1     -53.412  48.700  11.537  1.00  0.00     0.014 A 
HETATM    7  C   UNL     1     -53.393  50.007  12.027  1.00  0.00     0.040 A 
HETATM    8  C   UNL     1     -53.472  51.083  11.144  1.00  0.00     0.098 A 
BRANCH   5   9
HETATM    9  C   UNL     1     -53.529  47.110   9.654  1.00  0.00     0.012 C 
HETATM   10  C   UNL     1     -52.567  46.182   9.872  1.00  0.00     0.012 C 
BRANCH  10  11
HETATM   11  C   UNL     1     -52.595  44.813   9.378  1.00  0.00    -0.036 A 
HETATM   12  C   UNL     1     -53.778  44.078   9.428  1.00  0.00     0.011 A 
HETATM   13  C   UNL     1     -53.806  42.766   8.955  1.00  0.00     0.001 A 
HETATM   14  C   UNL     1     -52.648  42.191   8.431  1.00  0.00     0.000 A 
HETATM   15  C   UNL     1     -51.464  42.927   8.380  1.00  0.00     0.001 A 
HETATM   16  C   UNL     1     -51.438  44.238   8.853  1.00  0.00     0.011 A 
ENDBRANCH  10  11
ENDBRANCH   5   9
BRANCH   8  17
HETATM   17  O   UNL     1     -53.455  52.354  11.634  1.00  0.00    -0.358 OA
HETATM   18  H   UNL     1     -52.757  52.936  11.403  1.00  0.00     0.217 HD
ENDBRANCH   8  17
ENDBRANCH   1   3
TORSDOF 4
ENDMDL
