MODEL 1
REMARK VINA RESULT:      -6.3      0.000      0.000
REMARK  7 active torsions:
REMARK  status: ('A' for Active; 'I' for Inactive)
REMARK    1  A    between atoms: O_1  and  C_2 
REMARK    2  A    between atoms: C_2  and  C_3 
REMARK    3  A    between atoms: C_2  and  C_8 
REMARK    4  A    between atoms: C_3  and  C_4 
REMARK    5  A    between atoms: C_4  and  C_5 
REMARK    6  A    between atoms: C_8  and  C_9 
REMARK    7  A    between atoms: C_11  and  O_15 
ROOT
HETATM    1  O   UNL     1       0.665 -12.721  54.039  1.00  0.00    -0.395 OA
HETATM    2  H   UNL     1      -0.133 -12.728  53.488  1.00  0.00     0.210 HD
ENDROOT
BRANCH   1   3
HETATM    3  C   UNL     1       1.084 -11.374  54.253  1.00  0.00     0.122 C 
BRANCH   3   4
HETATM    4  C   UNL     1      -0.121 -10.427  54.126  1.00  0.00     0.042 C 
BRANCH   4   5
HETATM    5  C   UNL     1      -1.436 -11.050  54.600  1.00  0.00     0.116 C 
BRANCH   5   6
HETATM    6  C   UNL     1      -1.936 -10.591  55.945  1.00  0.00     0.172 C 
HETATM    7  O   UNL     1      -1.247 -10.097  56.822  1.00  0.00    -0.648 OA
HETATM    8  O   UNL     1      -3.238 -10.850  56.181  1.00  0.00    -0.648 OA
ENDBRANCH   5   6
ENDBRANCH   4   5
ENDBRANCH   3   4
BRANCH   3   9
HETATM    9  C   UNL     1       1.735 -11.245  55.644  1.00  0.00     0.070 C 
BRANCH   9  10
HETATM   10  C   UNL     1       2.851 -10.222  55.686  1.00  0.00    -0.053 A 
HETATM   11  C   UNL     1       3.676 -10.114  56.816  1.00  0.00     0.043 A 
HETATM   12  C   UNL     1       4.701  -9.170  56.841  1.00  0.00     0.066 A 
HETATM   13  C   UNL     1       4.922  -8.327  55.759  1.00  0.00     0.036 A 
HETATM   14  C   UNL     1       4.108  -8.426  54.633  1.00  0.00     0.003 A 
HETATM   15  C   UNL     1       3.078  -9.369  54.596  1.00  0.00     0.007 A 
BRANCH  12  16
HETATM   16  O   UNL     1       5.521  -9.041  57.923  1.00  0.00    -0.361 OA
HETATM   17  H   UNL     1       6.003  -9.780  58.237  1.00  0.00     0.217 HD
ENDBRANCH  12  16
ENDBRANCH   9  10
ENDBRANCH   3   9
ENDBRANCH   1   3
TORSDOF 7
ENDMDL
MODEL 2
REMARK VINA RESULT:      -6.3      1.588      2.006
REMARK  7 active torsions:
REMARK  status: ('A' for Active; 'I' for Inactive)
REMARK    1  A    between atoms: O_1  and  C_2 
REMARK    2  A    between atoms: C_2  and  C_3 
REMARK    3  A    between atoms: C_2  and  C_8 
REMARK    4  A    between atoms: C_3  and  C_4 
REMARK    5  A    between atoms: C_4  and  C_5 
REMARK    6  A    between atoms: C_8  and  C_9 
REMARK    7  A    between atoms: C_11  and  O_15 
ROOT
HETATM    1  O   UNL     1       2.154 -10.380  56.821  1.00  0.00    -0.395 OA
HETATM    2  H   UNL     1       2.056  -9.417  56.759  1.00  0.00     0.210 HD
ENDROOT
BRANCH   1   3
HETATM    3  C   UNL     1       2.216 -10.936  55.508  1.00  0.00     0.122 C 
BRANCH   3   4
HETATM    4  C   UNL     1       0.899 -11.661  55.186  1.00  0.00     0.042 C 
BRANCH   4   5
HETATM    5  C   UNL     1      -0.258 -10.710  54.873  1.00  0.00     0.116 C 
BRANCH   5   6
HETATM    6  C   UNL     1      -1.180 -10.392  56.022  1.00  0.00     0.172 C 
HETATM    7  O   UNL     1      -0.832  -9.942  57.101  1.00  0.00    -0.648 OA
HETATM    8  O   UNL     1      -2.469 -10.732  55.821  1.00  0.00    -0.648 OA
ENDBRANCH   5   6
ENDBRANCH   4   5
ENDBRANCH   3   4
BRANCH   3   9
HETATM    9  C   UNL     1       2.488  -9.819  54.481  1.00  0.00     0.070 C 
BRANCH   9  10
HETATM   10  C   UNL     1       3.141  -8.597  55.091  1.00  0.00    -0.053 A 
HETATM   11  C   UNL     1       4.444  -8.668  55.606  1.00  0.00     0.043 A 
HETATM   12  C   UNL     1       5.035  -7.535  56.162  1.00  0.00     0.066 A 
HETATM   13  C   UNL     1       4.351  -6.327  56.217  1.00  0.00     0.036 A 
HETATM   14  C   UNL     1       3.057  -6.246  55.709  1.00  0.00     0.003 A 
HETATM   15  C   UNL     1       2.455  -7.375  55.148  1.00  0.00     0.007 A 
BRANCH  12  16
HETATM   16  O   UNL     1       6.300  -7.570  56.670  1.00  0.00    -0.361 OA
HETATM   17  H   UNL     1       6.609  -8.339  57.107  1.00  0.00     0.217 HD
ENDBRANCH  12  16
ENDBRANCH   9  10
ENDBRANCH   3   9
ENDBRANCH   1   3
TORSDOF 7
ENDMDL
MODEL 3
REMARK VINA RESULT:      -6.3      3.982      5.327
REMARK  7 active torsions:
REMARK  status: ('A' for Active; 'I' for Inactive)
REMARK    1  A    between atoms: O_1  and  C_2 
REMARK    2  A    between atoms: C_2  and  C_3 
REMARK    3  A    between atoms: C_2  and  C_8 
REMARK    4  A    between atoms: C_3  and  C_4 
REMARK    5  A    between atoms: C_4  and  C_5 
REMARK    6  A    between atoms: C_8  and  C_9 
REMARK    7  A    between atoms: C_11  and  O_15 
ROOT
HETATM    1  O   UNL     1       6.206  -6.850  52.891  1.00  0.00    -0.395 OA
HETATM    2  H   UNL     1       6.640  -7.706  53.027  1.00  0.00     0.210 HD
ENDROOT
BRANCH   1   3
HETATM    3  C   UNL     1       5.130  -6.710  53.818  1.00  0.00     0.122 C 
BRANCH   3   4
HETATM    4  C   UNL     1       4.421  -5.364  53.595  1.00  0.00     0.042 C 
BRANCH   4   5
HETATM    5  C   UNL     1       3.002  -5.324  54.168  1.00  0.00     0.116 C 
BRANCH   5   6
HETATM    6  C   UNL     1       2.882  -4.883  55.604  1.00  0.00     0.172 C 
HETATM    7  O   UNL     1       3.471  -5.387  56.547  1.00  0.00    -0.648 OA
HETATM    8  O   UNL     1       1.976  -3.908  55.821  1.00  0.00    -0.648 OA
ENDBRANCH   5   6
ENDBRANCH   4   5
ENDBRANCH   3   4
BRANCH   3   9
HETATM    9  C   UNL     1       4.143  -7.881  53.652  1.00  0.00     0.070 C 
BRANCH   9  10
HETATM   10  C   UNL     1       3.995  -8.718  54.905  1.00  0.00    -0.053 A 
HETATM   11  C   UNL     1       4.909  -8.585  55.962  1.00  0.00     0.043 A 
HETATM   12  C   UNL     1       4.760  -9.360  57.111  1.00  0.00     0.066 A 
HETATM   13  C   UNL     1       3.715 -10.268  57.229  1.00  0.00     0.036 A 
HETATM   14  C   UNL     1       2.804 -10.408  56.185  1.00  0.00     0.003 A 
HETATM   15  C   UNL     1       2.943  -9.637  55.029  1.00  0.00     0.007 A 
BRANCH  12  16
HETATM   16  O   UNL     1       5.629  -9.254  58.156  1.00  0.00    -0.361 OA
HETATM   17  H   UNL     1       6.217  -8.527  58.205  1.00  0.00     0.217 HD
ENDBRANCH  12  16
ENDBRANCH   9  10
ENDBRANCH   3   9
ENDBRANCH   1   3
TORSDOF 7
ENDMDL
MODEL 4
REMARK VINA RESULT:      -6.3      2.905      5.246
REMARK  7 active torsions:
REMARK  status: ('A' for Active; 'I' for Inactive)
REMARK    1  A    between atoms: O_1  and  C_2 
REMARK    2  A    between atoms: C_2  and  C_3 
REMARK    3  A    between atoms: C_2  and  C_8 
REMARK    4  A    between atoms: C_3  and  C_4 
REMARK    5  A    between atoms: C_4  and  C_5 
REMARK    6  A    between atoms: C_8  and  C_9 
REMARK    7  A    between atoms: C_11  and  O_15 
ROOT
HETATM    1  O   UNL     1       1.147  -9.844  54.382  1.00  0.00    -0.395 OA
HETATM    2  H   UNL     1       0.365  -9.899  54.953  1.00  0.00     0.210 HD
ENDROOT
BRANCH   1   3
HETATM    3  C   UNL     1       2.220  -9.241  55.105  1.00  0.00     0.122 C 
BRANCH   3   4
HETATM    4  C   UNL     1       2.994 -10.316  55.884  1.00  0.00     0.042 C 
BRANCH   4   5
HETATM    5  C   UNL     1       3.437  -9.858  57.275  1.00  0.00     0.116 C 
BRANCH   5   6
HETATM    6  C   UNL     1       4.922  -9.697  57.475  1.00  0.00     0.172 C 
HETATM    7  O   UNL     1       5.664 -10.541  57.952  1.00  0.00    -0.648 OA
HETATM    8  O   UNL     1       5.403  -8.476  57.168  1.00  0.00    -0.648 OA
ENDBRANCH   5   6
ENDBRANCH   4   5
ENDBRANCH   3   4
BRANCH   3   9
HETATM    9  C   UNL     1       3.153  -8.498  54.128  1.00  0.00     0.070 C 
BRANCH   9  10
HETATM   10  C   UNL     1       3.318  -7.031  54.462  1.00  0.00    -0.053 A 
HETATM   11  C   UNL     1       3.884  -6.148  53.529  1.00  0.00     0.043 A 
HETATM   12  C   UNL     1       4.028  -4.798  53.848  1.00  0.00     0.066 A 
HETATM   13  C   UNL     1       3.619  -4.308  55.082  1.00  0.00     0.036 A 
HETATM   14  C   UNL     1       3.056  -5.177  56.014  1.00  0.00     0.003 A 
HETATM   15  C   UNL     1       2.906  -6.531  55.706  1.00  0.00     0.007 A 
BRANCH  12  16
HETATM   16  O   UNL     1       4.573  -3.914  52.965  1.00  0.00    -0.361 OA
HETATM   17  H   UNL     1       4.017  -3.383  52.430  1.00  0.00     0.217 HD
ENDBRANCH  12  16
ENDBRANCH   9  10
ENDBRANCH   3   9
ENDBRANCH   1   3
TORSDOF 7
ENDMDL
MODEL 5
REMARK VINA RESULT:      -6.3      3.856      5.763
REMARK  7 active torsions:
REMARK  status: ('A' for Active; 'I' for Inactive)
REMARK    1  A    between atoms: O_1  and  C_2 
REMARK    2  A    between atoms: C_2  and  C_3 
REMARK    3  A    between atoms: C_2  and  C_8 
REMARK    4  A    between atoms: C_3  and  C_4 
REMARK    5  A    between atoms: C_4  and  C_5 
REMARK    6  A    between atoms: C_8  and  C_9 
REMARK    7  A    between atoms: C_11  and  O_15 
ROOT
HETATM    1  O   UNL     1       5.136  -4.981  53.997  1.00  0.00    -0.395 OA
HETATM    2  H   UNL     1       4.767  -4.088  54.081  1.00  0.00     0.210 HD
ENDROOT
BRANCH   1   3
HETATM    3  C   UNL     1       4.417  -5.873  54.848  1.00  0.00     0.122 C 
BRANCH   3   4
HETATM    4  C   UNL     1       2.948  -5.433  54.945  1.00  0.00     0.042 C 
BRANCH   4   5
HETATM    5  C   UNL     1       2.597  -4.777  56.283  1.00  0.00     0.116 C 
BRANCH   5   6
HETATM    6  C   UNL     1       1.637  -3.617  56.217  1.00  0.00     0.172 C 
HETATM    7  O   UNL     1       0.783  -3.361  57.052  1.00  0.00    -0.648 OA
HETATM    8  O   UNL     1       1.711  -2.887  55.087  1.00  0.00    -0.648 OA
ENDBRANCH   5   6
ENDBRANCH   4   5
ENDBRANCH   3   4
BRANCH   3   9
HETATM    9  C   UNL     1       4.520  -7.311  54.301  1.00  0.00     0.070 C 
BRANCH   9  10
HETATM   10  C   UNL     1       4.343  -8.368  55.370  1.00  0.00    -0.053 A 
HETATM   11  C   UNL     1       3.284  -9.287  55.294  1.00  0.00     0.043 A 
HETATM   12  C   UNL     1       3.133 -10.257  56.283  1.00  0.00     0.066 A 
HETATM   13  C   UNL     1       4.018 -10.332  57.351  1.00  0.00     0.036 A 
HETATM   14  C   UNL     1       5.071  -9.424  57.436  1.00  0.00     0.003 A 
HETATM   15  C   UNL     1       5.233  -8.448  56.450  1.00  0.00     0.007 A 
BRANCH  12  16
HETATM   16  O   UNL     1       2.116 -11.165  56.238  1.00  0.00    -0.361 OA
HETATM   17  H   UNL     1       2.285 -12.067  56.424  1.00  0.00     0.217 HD
ENDBRANCH  12  16
ENDBRANCH   9  10
ENDBRANCH   3   9
ENDBRANCH   1   3
TORSDOF 7
ENDMDL
MODEL 6
REMARK VINA RESULT:      -6.3      3.031      5.101
REMARK  7 active torsions:
REMARK  status: ('A' for Active; 'I' for Inactive)
REMARK    1  A    between atoms: O_1  and  C_2 
REMARK    2  A    between atoms: C_2  and  C_3 
REMARK    3  A    between atoms: C_2  and  C_8 
REMARK    4  A    between atoms: C_3  and  C_4 
REMARK    5  A    between atoms: C_4  and  C_5 
REMARK    6  A    between atoms: C_8  and  C_9 
REMARK    7  A    between atoms: C_11  and  O_15 
ROOT
HETATM    1  O   UNL     1       5.890  -7.459  56.903  1.00  0.00    -0.395 OA
HETATM    2  H   UNL     1       5.819  -7.520  57.868  1.00  0.00     0.210 HD
ENDROOT
BRANCH   1   3
HETATM    3  C   UNL     1       5.321  -8.625  56.309  1.00  0.00     0.122 C 
BRANCH   3   4
HETATM    4  C   UNL     1       4.308  -9.260  57.275  1.00  0.00     0.042 C 
BRANCH   4   5
HETATM    5  C   UNL     1       3.678 -10.546  56.735  1.00  0.00     0.116 C 
BRANCH   5   6
HETATM    6  C   UNL     1       2.202 -10.483  56.437  1.00  0.00     0.172 C 
HETATM    7  O   UNL     1       1.499  -9.493  56.562  1.00  0.00    -0.648 OA
HETATM    8  O   UNL     1       1.645 -11.661  56.091  1.00  0.00    -0.648 OA
ENDBRANCH   5   6
ENDBRANCH   4   5
ENDBRANCH   3   4
BRANCH   3   9
HETATM    9  C   UNL     1       4.643  -8.253  54.975  1.00  0.00     0.070 C 
BRANCH   9  10
HETATM   10  C   UNL     1       4.125  -6.831  54.947  1.00  0.00    -0.053 A 
HETATM   11  C   UNL     1       4.629  -5.907  54.019  1.00  0.00     0.043 A 
HETATM   12  C   UNL     1       4.142  -4.602  54.002  1.00  0.00     0.066 A 
HETATM   13  C   UNL     1       3.158  -4.195  54.895  1.00  0.00     0.036 A 
HETATM   14  C   UNL     1       2.653  -5.104  55.822  1.00  0.00     0.003 A 
HETATM   15  C   UNL     1       3.133  -6.416  55.847  1.00  0.00     0.007 A 
BRANCH  12  16
HETATM   16  O   UNL     1       4.609  -3.680  53.112  1.00  0.00    -0.361 OA
HETATM   17  H   UNL     1       4.962  -2.869  53.419  1.00  0.00     0.217 HD
ENDBRANCH  12  16
ENDBRANCH   9  10
ENDBRANCH   3   9
ENDBRANCH   1   3
TORSDOF 7
ENDMDL
MODEL 7
REMARK VINA RESULT:      -6.2      4.725      6.191
REMARK  7 active torsions:
REMARK  status: ('A' for Active; 'I' for Inactive)
REMARK    1  A    between atoms: O_1  and  C_2 
REMARK    2  A    between atoms: C_2  and  C_3 
REMARK    3  A    between atoms: C_2  and  C_8 
REMARK    4  A    between atoms: C_3  and  C_4 
REMARK    5  A    between atoms: C_4  and  C_5 
REMARK    6  A    between atoms: C_8  and  C_9 
REMARK    7  A    between atoms: C_11  and  O_15 
ROOT
HETATM    1  O   UNL     1       5.797  -7.706  56.704  1.00  0.00    -0.395 OA
HETATM    2  H   UNL     1       5.904  -7.018  56.029  1.00  0.00     0.210 HD
ENDROOT
BRANCH   1   3
HETATM    3  C   UNL     1       5.121  -8.828  56.137  1.00  0.00     0.122 C 
BRANCH   3   4
HETATM    4  C   UNL     1       4.205  -9.473  57.189  1.00  0.00     0.042 C 
BRANCH   4   5
HETATM    5  C   UNL     1       4.952  -9.935  58.443  1.00  0.00     0.116 C 
BRANCH   5   6
HETATM    6  C   UNL     1       5.802 -11.169  58.286  1.00  0.00     0.172 C 
HETATM    7  O   UNL     1       5.534 -12.272  58.736  1.00  0.00    -0.648 OA
HETATM    8  O   UNL     1       6.983 -10.966  57.668  1.00  0.00    -0.648 OA
ENDBRANCH   5   6
ENDBRANCH   4   5
ENDBRANCH   3   4
BRANCH   3   9
HETATM    9  C   UNL     1       4.307  -8.378  54.908  1.00  0.00     0.070 C 
BRANCH   9  10
HETATM   10  C   UNL     1       3.947  -6.908  54.938  1.00  0.00    -0.053 A 
HETATM   11  C   UNL     1       4.568  -6.005  54.061  1.00  0.00     0.043 A 
HETATM   12  C   UNL     1       4.226  -4.654  54.097  1.00  0.00     0.066 A 
HETATM   13  C   UNL     1       3.274  -4.182  54.993  1.00  0.00     0.036 A 
HETATM   14  C   UNL     1       2.653  -5.071  55.868  1.00  0.00     0.003 A 
HETATM   15  C   UNL     1       2.987  -6.427  55.840  1.00  0.00     0.007 A 
BRANCH  12  16
HETATM   16  O   UNL     1       4.809  -3.751  53.259  1.00  0.00    -0.361 OA
HETATM   17  H   UNL     1       5.733  -3.781  53.107  1.00  0.00     0.217 HD
ENDBRANCH  12  16
ENDBRANCH   9  10
ENDBRANCH   3   9
ENDBRANCH   1   3
TORSDOF 7
ENDMDL
MODEL 8
REMARK VINA RESULT:      -6.2      2.930      5.959
REMARK  7 active torsions:
REMARK  status: ('A' for Active; 'I' for Inactive)
REMARK    1  A    between atoms: O_1  and  C_2 
REMARK    2  A    between atoms: C_2  and  C_3 
REMARK    3  A    between atoms: C_2  and  C_8 
REMARK    4  A    between atoms: C_3  and  C_4 
REMARK    5  A    between atoms: C_4  and  C_5 
REMARK    6  A    between atoms: C_8  and  C_9 
REMARK    7  A    between atoms: C_11  and  O_15 
ROOT
HETATM    1  O   UNL     1       5.217  -6.613  56.915  1.00  0.00    -0.395 OA
HETATM    2  H   UNL     1       4.953  -6.015  57.632  1.00  0.00     0.210 HD
ENDROOT
BRANCH   1   3
HETATM    3  C   UNL     1       4.086  -7.372  56.489  1.00  0.00     0.122 C 
BRANCH   3   4
HETATM    4  C   UNL     1       3.111  -6.467  55.718  1.00  0.00     0.042 C 
BRANCH   4   5
HETATM    5  C   UNL     1       3.748  -5.164  55.230  1.00  0.00     0.116 C 
BRANCH   5   6
HETATM    6  C   UNL     1       4.238  -5.163  53.805  1.00  0.00     0.172 C 
HETATM    7  O   UNL     1       4.619  -6.146  53.189  1.00  0.00    -0.648 OA
HETATM    8  O   UNL     1       4.324  -3.942  53.239  1.00  0.00    -0.648 OA
ENDBRANCH   5   6
ENDBRANCH   4   5
ENDBRANCH   3   4
BRANCH   3   9
HETATM    9  C   UNL     1       4.550  -8.549  55.609  1.00  0.00     0.070 C 
BRANCH   9  10
HETATM   10  C   UNL     1       3.405  -9.393  55.092  1.00  0.00    -0.053 A 
HETATM   11  C   UNL     1       2.835 -10.390  55.899  1.00  0.00     0.043 A 
HETATM   12  C   UNL     1       1.779 -11.159  55.412  1.00  0.00     0.066 A 
HETATM   13  C   UNL     1       1.279 -10.956  54.132  1.00  0.00     0.036 A 
HETATM   14  C   UNL     1       1.839  -9.970  53.323  1.00  0.00     0.003 A 
HETATM   15  C   UNL     1       2.896  -9.192  53.801  1.00  0.00     0.007 A 
BRANCH  12  16
HETATM   16  O   UNL     1       1.202 -12.134  56.170  1.00  0.00    -0.361 OA
HETATM   17  H   UNL     1       1.288 -12.115  57.103  1.00  0.00     0.217 HD
ENDBRANCH  12  16
ENDBRANCH   9  10
ENDBRANCH   3   9
ENDBRANCH   1   3
TORSDOF 7
ENDMDL
MODEL 9
REMARK VINA RESULT:      -6.2      1.386      1.792
REMARK  7 active torsions:
REMARK  status: ('A' for Active; 'I' for Inactive)
REMARK    1  A    between atoms: O_1  and  C_2 
REMARK    2  A    between atoms: C_2  and  C_3 
REMARK    3  A    between atoms: C_2  and  C_8 
REMARK    4  A    between atoms: C_3  and  C_4 
REMARK    5  A    between atoms: C_4  and  C_5 
REMARK    6  A    between atoms: C_8  and  C_9 
REMARK    7  A    between atoms: C_11  and  O_15 
ROOT
HETATM    1  O   UNL     1       0.956 -12.223  55.972  1.00  0.00    -0.395 OA
HETATM    2  H   UNL     1       1.577 -12.735  56.513  1.00  0.00     0.210 HD
ENDROOT
BRANCH   1   3
HETATM    3  C   UNL     1       1.666 -11.203  55.270  1.00  0.00     0.122 C 
BRANCH   3   4
HETATM    4  C   UNL     1       1.183 -11.139  53.812  1.00  0.00     0.042 C 
BRANCH   4   5
HETATM    5  C   UNL     1      -0.089 -10.309  53.630  1.00  0.00     0.116 C 
BRANCH   5   6
HETATM    6  C   UNL     1      -1.386 -11.013  53.935  1.00  0.00     0.172 C 
HETATM    7  O   UNL     1      -2.043 -11.658  53.133  1.00  0.00    -0.648 OA
HETATM    8  O   UNL     1      -1.858 -10.812  55.182  1.00  0.00    -0.648 OA
ENDBRANCH   5   6
ENDBRANCH   4   5
ENDBRANCH   3   4
BRANCH   3   9
HETATM    9  C   UNL     1       1.459  -9.847  55.973  1.00  0.00     0.070 C 
BRANCH   9  10
HETATM   10  C   UNL     1       2.742  -9.061  56.141  1.00  0.00    -0.053 A 
HETATM   11  C   UNL     1       3.848  -9.634  56.787  1.00  0.00     0.043 A 
HETATM   12  C   UNL     1       5.025  -8.901  56.933  1.00  0.00     0.066 A 
HETATM   13  C   UNL     1       5.121  -7.602  56.448  1.00  0.00     0.036 A 
HETATM   14  C   UNL     1       4.028  -7.024  55.808  1.00  0.00     0.003 A 
HETATM   15  C   UNL     1       2.845  -7.750  55.654  1.00  0.00     0.007 A 
BRANCH  12  16
HETATM   16  O   UNL     1       6.118  -9.429  57.553  1.00  0.00    -0.361 OA
HETATM   17  H   UNL     1       6.200 -10.357  57.649  1.00  0.00     0.217 HD
ENDBRANCH  12  16
ENDBRANCH   9  10
ENDBRANCH   3   9
ENDBRANCH   1   3
TORSDOF 7
ENDMDL
