MODEL 1
REMARK VINA RESULT:      -6.4      0.000      0.000
REMARK  7 active torsions:
REMARK  status: ('A' for Active; 'I' for Inactive)
REMARK    1  A    between atoms: O_1  and  C_2 
REMARK    2  A    between atoms: C_2  and  C_3 
REMARK    3  A    between atoms: C_2  and  C_8 
REMARK    4  A    between atoms: C_3  and  C_4 
REMARK    5  A    between atoms: C_4  and  C_5 
REMARK    6  A    between atoms: C_8  and  C_9 
REMARK    7  A    between atoms: C_11  and  O_15 
ROOT
HETATM    1  O   UNL     1       5.265  -5.020  53.981  1.00  0.00    -0.395 OA
HETATM    2  H   UNL     1       4.826  -4.810  53.143  1.00  0.00     0.210 HD
ENDROOT
BRANCH   1   3
HETATM    3  C   UNL     1       4.411  -5.846  54.772  1.00  0.00     0.122 C 
BRANCH   3   4
HETATM    4  C   UNL     1       2.998  -5.242  54.818  1.00  0.00     0.042 C 
BRANCH   4   5
HETATM    5  C   UNL     1       2.590  -4.757  56.211  1.00  0.00     0.116 C 
BRANCH   5   6
HETATM    6  C   UNL     1       1.643  -3.586  56.250  1.00  0.00     0.172 C 
HETATM    7  O   UNL     1       0.856  -3.346  57.152  1.00  0.00    -0.648 OA
HETATM    8  O   UNL     1       1.643  -2.823  55.139  1.00  0.00    -0.648 OA
ENDBRANCH   5   6
ENDBRANCH   4   5
ENDBRANCH   3   4
BRANCH   3   9
HETATM    9  C   UNL     1       4.376  -7.271  54.185  1.00  0.00     0.070 C 
BRANCH   9  10
HETATM   10  C   UNL     1       4.191  -8.344  55.237  1.00  0.00    -0.053 A 
HETATM   11  C   UNL     1       5.099  -8.462  56.301  1.00  0.00     0.043 A 
HETATM   12  C   UNL     1       4.916  -9.452  57.265  1.00  0.00     0.066 A 
HETATM   13  C   UNL     1       3.843 -10.332  57.190  1.00  0.00     0.036 A 
HETATM   14  C   UNL     1       2.938 -10.224  56.137  1.00  0.00     0.003 A 
HETATM   15  C   UNL     1       3.110  -9.234  55.166  1.00  0.00     0.007 A 
BRANCH  12  16
HETATM   16  O   UNL     1       5.779  -9.592  58.312  1.00  0.00    -0.361 OA
HETATM   17  H   UNL     1       6.342 -10.339  58.358  1.00  0.00     0.217 HD
ENDBRANCH  12  16
ENDBRANCH   9  10
ENDBRANCH   3   9
ENDBRANCH   1   3
TORSDOF 7
ENDMDL
MODEL 2
REMARK VINA RESULT:      -6.3      2.104      5.417
REMARK  7 active torsions:
REMARK  status: ('A' for Active; 'I' for Inactive)
REMARK    1  A    between atoms: O_1  and  C_2 
REMARK    2  A    between atoms: C_2  and  C_3 
REMARK    3  A    between atoms: C_2  and  C_8 
REMARK    4  A    between atoms: C_3  and  C_4 
REMARK    5  A    between atoms: C_4  and  C_5 
REMARK    6  A    between atoms: C_8  and  C_9 
REMARK    7  A    between atoms: C_11  and  O_15 
ROOT
HETATM    1  O   UNL     1       6.242  -7.377  56.741  1.00  0.00    -0.395 OA
HETATM    2  H   UNL     1       5.639  -6.621  56.672  1.00  0.00     0.210 HD
ENDROOT
BRANCH   1   3
HETATM    3  C   UNL     1       5.578  -8.558  56.293  1.00  0.00     0.122 C 
BRANCH   3   4
HETATM    4  C   UNL     1       4.644  -9.082  57.396  1.00  0.00     0.042 C 
BRANCH   4   5
HETATM    5  C   UNL     1       4.026 -10.444  57.073  1.00  0.00     0.116 C 
BRANCH   5   6
HETATM    6  C   UNL     1       2.575 -10.431  56.667  1.00  0.00     0.172 C 
HETATM    7  O   UNL     1       1.823  -9.474  56.771  1.00  0.00    -0.648 OA
HETATM    8  O   UNL     1       2.097 -11.618  56.244  1.00  0.00    -0.648 OA
ENDBRANCH   5   6
ENDBRANCH   4   5
ENDBRANCH   3   4
BRANCH   3   9
HETATM    9  C   UNL     1       4.785  -8.253  55.007  1.00  0.00     0.070 C 
BRANCH   9  10
HETATM   10  C   UNL     1       4.224  -6.847  54.972  1.00  0.00    -0.053 A 
HETATM   11  C   UNL     1       4.687  -5.919  54.027  1.00  0.00     0.043 A 
HETATM   12  C   UNL     1       4.160  -4.628  54.004  1.00  0.00     0.066 A 
HETATM   13  C   UNL     1       3.179  -4.241  54.909  1.00  0.00     0.036 A 
HETATM   14  C   UNL     1       2.714  -5.155  55.851  1.00  0.00     0.003 A 
HETATM   15  C   UNL     1       3.233  -6.452  55.882  1.00  0.00     0.007 A 
BRANCH  12  16
HETATM   16  O   UNL     1       4.587  -3.703  53.098  1.00  0.00    -0.361 OA
HETATM   17  H   UNL     1       4.000  -3.039  52.795  1.00  0.00     0.217 HD
ENDBRANCH  12  16
ENDBRANCH   9  10
ENDBRANCH   3   9
ENDBRANCH   1   3
TORSDOF 7
ENDMDL
MODEL 3
REMARK VINA RESULT:      -6.3      3.527      5.246
REMARK  7 active torsions:
REMARK  status: ('A' for Active; 'I' for Inactive)
REMARK    1  A    between atoms: O_1  and  C_2 
REMARK    2  A    between atoms: C_2  and  C_3 
REMARK    3  A    between atoms: C_2  and  C_8 
REMARK    4  A    between atoms: C_3  and  C_4 
REMARK    5  A    between atoms: C_4  and  C_5 
REMARK    6  A    between atoms: C_8  and  C_9 
REMARK    7  A    between atoms: C_11  and  O_15 
ROOT
HETATM    1  O   UNL     1       2.080 -10.352  56.775  1.00  0.00    -0.395 OA
HETATM    2  H   UNL     1       1.172 -10.436  57.103  1.00  0.00     0.210 HD
ENDROOT
BRANCH   1   3
HETATM    3  C   UNL     1       2.172 -10.934  55.475  1.00  0.00     0.122 C 
BRANCH   3   4
HETATM    4  C   UNL     1       0.840 -11.610  55.111  1.00  0.00     0.042 C 
BRANCH   4   5
HETATM    5  C   UNL     1      -0.295 -10.616  54.852  1.00  0.00     0.116 C 
BRANCH   5   6
HETATM    6  C   UNL     1      -1.313 -10.476  55.954  1.00  0.00     0.172 C 
HETATM    7  O   UNL     1      -2.501 -10.740  55.854  1.00  0.00    -0.648 OA
HETATM    8  O   UNL     1      -0.841  -9.931  57.093  1.00  0.00    -0.648 OA
ENDBRANCH   5   6
ENDBRANCH   4   5
ENDBRANCH   3   4
BRANCH   3   9
HETATM    9  C   UNL     1       2.532  -9.848  54.442  1.00  0.00     0.070 C 
BRANCH   9  10
HETATM   10  C   UNL     1       3.154  -8.617  55.066  1.00  0.00    -0.053 A 
HETATM   11  C   UNL     1       4.443  -8.671  55.618  1.00  0.00     0.043 A 
HETATM   12  C   UNL     1       5.005  -7.529  56.186  1.00  0.00     0.066 A 
HETATM   13  C   UNL     1       4.305  -6.329  56.218  1.00  0.00     0.036 A 
HETATM   14  C   UNL     1       3.025  -6.266  55.674  1.00  0.00     0.003 A 
HETATM   15  C   UNL     1       2.452  -7.403  55.100  1.00  0.00     0.007 A 
BRANCH  12  16
HETATM   16  O   UNL     1       6.255  -7.548  56.730  1.00  0.00    -0.361 OA
HETATM   17  H   UNL     1       7.004  -7.666  56.179  1.00  0.00     0.217 HD
ENDBRANCH  12  16
ENDBRANCH   9  10
ENDBRANCH   3   9
ENDBRANCH   1   3
TORSDOF 7
ENDMDL
MODEL 4
REMARK VINA RESULT:      -6.2      4.134      5.631
REMARK  7 active torsions:
REMARK  status: ('A' for Active; 'I' for Inactive)
REMARK    1  A    between atoms: O_1  and  C_2 
REMARK    2  A    between atoms: C_2  and  C_3 
REMARK    3  A    between atoms: C_2  and  C_8 
REMARK    4  A    between atoms: C_3  and  C_4 
REMARK    5  A    between atoms: C_4  and  C_5 
REMARK    6  A    between atoms: C_8  and  C_9 
REMARK    7  A    between atoms: C_11  and  O_15 
ROOT
HETATM    1  O   UNL     1       0.583 -12.713  54.104  1.00  0.00    -0.395 OA
HETATM    2  H   UNL     1       1.044 -13.135  53.362  1.00  0.00     0.210 HD
ENDROOT
BRANCH   1   3
HETATM    3  C   UNL     1       1.082 -11.388  54.281  1.00  0.00     0.122 C 
BRANCH   3   4
HETATM    4  C   UNL     1      -0.064 -10.374  54.126  1.00  0.00     0.042 C 
BRANCH   4   5
HETATM    5  C   UNL     1      -1.440 -10.958  54.454  1.00  0.00     0.116 C 
BRANCH   5   6
HETATM    6  C   UNL     1      -1.968 -10.668  55.835  1.00  0.00     0.172 C 
HETATM    7  O   UNL     1      -1.329 -10.157  56.741  1.00  0.00    -0.648 OA
HETATM    8  O   UNL     1      -3.223 -11.105  56.062  1.00  0.00    -0.648 OA
ENDBRANCH   5   6
ENDBRANCH   4   5
ENDBRANCH   3   4
BRANCH   3   9
HETATM    9  C   UNL     1       1.738 -11.260  55.670  1.00  0.00     0.070 C 
BRANCH   9  10
HETATM   10  C   UNL     1       2.852 -10.236  55.710  1.00  0.00    -0.053 A 
HETATM   11  C   UNL     1       3.676 -10.123  56.841  1.00  0.00     0.043 A 
HETATM   12  C   UNL     1       4.700  -9.178  56.863  1.00  0.00     0.066 A 
HETATM   13  C   UNL     1       4.920  -8.338  55.779  1.00  0.00     0.036 A 
HETATM   14  C   UNL     1       4.108  -8.442  54.652  1.00  0.00     0.003 A 
HETATM   15  C   UNL     1       3.079  -9.386  54.618  1.00  0.00     0.007 A 
BRANCH  12  16
HETATM   16  O   UNL     1       5.519  -9.043  57.945  1.00  0.00    -0.361 OA
HETATM   17  H   UNL     1       5.186  -9.200  58.807  1.00  0.00     0.217 HD
ENDBRANCH  12  16
ENDBRANCH   9  10
ENDBRANCH   3   9
ENDBRANCH   1   3
TORSDOF 7
ENDMDL
MODEL 5
REMARK VINA RESULT:      -6.2      2.077      5.591
REMARK  7 active torsions:
REMARK  status: ('A' for Active; 'I' for Inactive)
REMARK    1  A    between atoms: O_1  and  C_2 
REMARK    2  A    between atoms: C_2  and  C_3 
REMARK    3  A    between atoms: C_2  and  C_8 
REMARK    4  A    between atoms: C_3  and  C_4 
REMARK    5  A    between atoms: C_4  and  C_5 
REMARK    6  A    between atoms: C_8  and  C_9 
REMARK    7  A    between atoms: C_11  and  O_15 
ROOT
HETATM    1  O   UNL     1       1.780  -9.983  53.670  1.00  0.00    -0.395 OA
HETATM    2  H   UNL     1       1.069 -10.538  54.027  1.00  0.00     0.210 HD
ENDROOT
BRANCH   1   3
HETATM    3  C   UNL     1       2.474  -9.350  54.743  1.00  0.00     0.122 C 
BRANCH   3   4
HETATM    4  C   UNL     1       2.935 -10.406  55.761  1.00  0.00     0.042 C 
BRANCH   4   5
HETATM    5  C   UNL     1       3.268  -9.821  57.135  1.00  0.00     0.116 C 
BRANCH   5   6
HETATM    6  C   UNL     1       4.723  -9.843  57.527  1.00  0.00     0.172 C 
HETATM    7  O   UNL     1       5.299 -10.786  58.047  1.00  0.00    -0.648 OA
HETATM    8  O   UNL     1       5.374  -8.676  57.347  1.00  0.00    -0.648 OA
ENDBRANCH   5   6
ENDBRANCH   4   5
ENDBRANCH   3   4
BRANCH   3   9
HETATM    9  C   UNL     1       3.679  -8.562  54.192  1.00  0.00     0.070 C 
BRANCH   9  10
HETATM   10  C   UNL     1       3.620  -7.084  54.513  1.00  0.00    -0.053 A 
HETATM   11  C   UNL     1       4.265  -6.150  53.687  1.00  0.00     0.043 A 
HETATM   12  C   UNL     1       4.201  -4.791  53.993  1.00  0.00     0.066 A 
HETATM   13  C   UNL     1       3.507  -4.342  55.110  1.00  0.00     0.036 A 
HETATM   14  C   UNL     1       2.866  -5.262  55.936  1.00  0.00     0.003 A 
HETATM   15  C   UNL     1       2.921  -6.625  55.639  1.00  0.00     0.007 A 
BRANCH  12  16
HETATM   16  O   UNL     1       4.814  -3.858  53.210  1.00  0.00    -0.361 OA
HETATM   17  H   UNL     1       4.850  -3.975  52.282  1.00  0.00     0.217 HD
ENDBRANCH  12  16
ENDBRANCH   9  10
ENDBRANCH   3   9
ENDBRANCH   1   3
TORSDOF 7
ENDMDL
MODEL 6
REMARK VINA RESULT:      -6.1      2.082      6.107
REMARK  7 active torsions:
REMARK  status: ('A' for Active; 'I' for Inactive)
REMARK    1  A    between atoms: O_1  and  C_2 
REMARK    2  A    between atoms: C_2  and  C_3 
REMARK    3  A    between atoms: C_2  and  C_8 
REMARK    4  A    between atoms: C_3  and  C_4 
REMARK    5  A    between atoms: C_4  and  C_5 
REMARK    6  A    between atoms: C_8  and  C_9 
REMARK    7  A    between atoms: C_11  and  O_15 
ROOT
HETATM    1  O   UNL     1       5.827  -7.706  56.701  1.00  0.00    -0.395 OA
HETATM    2  H   UNL     1       6.360  -7.282  56.011  1.00  0.00     0.210 HD
ENDROOT
BRANCH   1   3
HETATM    3  C   UNL     1       5.139  -8.827  56.148  1.00  0.00     0.122 C 
BRANCH   3   4
HETATM    4  C   UNL     1       4.215  -9.447  57.209  1.00  0.00     0.042 C 
BRANCH   4   5
HETATM    5  C   UNL     1       4.958  -9.920  58.460  1.00  0.00     0.116 C 
BRANCH   5   6
HETATM    6  C   UNL     1       5.804 -11.157  58.297  1.00  0.00     0.172 C 
HETATM    7  O   UNL     1       5.535 -12.259  58.748  1.00  0.00    -0.648 OA
HETATM    8  O   UNL     1       6.981 -10.957  57.671  1.00  0.00    -0.648 OA
ENDBRANCH   5   6
ENDBRANCH   4   5
ENDBRANCH   3   4
BRANCH   3   9
HETATM    9  C   UNL     1       4.330  -8.385  54.913  1.00  0.00     0.070 C 
BRANCH   9  10
HETATM   10  C   UNL     1       3.959  -6.918  54.938  1.00  0.00    -0.053 A 
HETATM   11  C   UNL     1       4.566  -6.014  54.051  1.00  0.00     0.043 A 
HETATM   12  C   UNL     1       4.213  -4.666  54.083  1.00  0.00     0.066 A 
HETATM   13  C   UNL     1       3.266  -4.197  54.985  1.00  0.00     0.036 A 
HETATM   14  C   UNL     1       2.660  -5.085  55.870  1.00  0.00     0.003 A 
HETATM   15  C   UNL     1       3.004  -6.439  55.846  1.00  0.00     0.007 A 
BRANCH  12  16
HETATM   16  O   UNL     1       4.782  -3.763  53.234  1.00  0.00    -0.361 OA
HETATM   17  H   UNL     1       5.209  -4.058  52.454  1.00  0.00     0.217 HD
ENDBRANCH  12  16
ENDBRANCH   9  10
ENDBRANCH   3   9
ENDBRANCH   1   3
TORSDOF 7
ENDMDL
MODEL 7
REMARK VINA RESULT:      -6.1      4.155      5.739
REMARK  7 active torsions:
REMARK  status: ('A' for Active; 'I' for Inactive)
REMARK    1  A    between atoms: O_1  and  C_2 
REMARK    2  A    between atoms: C_2  and  C_3 
REMARK    3  A    between atoms: C_2  and  C_8 
REMARK    4  A    between atoms: C_3  and  C_4 
REMARK    5  A    between atoms: C_4  and  C_5 
REMARK    6  A    between atoms: C_8  and  C_9 
REMARK    7  A    between atoms: C_11  and  O_15 
ROOT
HETATM    1  O   UNL     1       0.815 -12.217  56.058  1.00  0.00    -0.395 OA
HETATM    2  H   UNL     1      -0.114 -11.939  56.061  1.00  0.00     0.210 HD
ENDROOT
BRANCH   1   3
HETATM    3  C   UNL     1       1.554 -11.396  55.155  1.00  0.00     0.122 C 
BRANCH   3   4
HETATM    4  C   UNL     1       0.931 -11.470  53.752  1.00  0.00     0.042 C 
BRANCH   4   5
HETATM    5  C   UNL     1      -0.296 -10.571  53.583  1.00  0.00     0.116 C 
BRANCH   5   6
HETATM    6  C   UNL     1      -1.595 -11.122  54.112  1.00  0.00     0.172 C 
HETATM    7  O   UNL     1      -2.380 -11.809  53.476  1.00  0.00    -0.648 OA
HETATM    8  O   UNL     1      -1.910 -10.725  55.361  1.00  0.00    -0.648 OA
ENDBRANCH   5   6
ENDBRANCH   4   5
ENDBRANCH   3   4
BRANCH   3   9
HETATM    9  C   UNL     1       1.570  -9.942  55.668  1.00  0.00     0.070 C 
BRANCH   9  10
HETATM   10  C   UNL     1       2.965  -9.361  55.766  1.00  0.00    -0.053 A 
HETATM   11  C   UNL     1       3.781  -9.650  56.871  1.00  0.00     0.043 A 
HETATM   12  C   UNL     1       5.064  -9.110  56.947  1.00  0.00     0.066 A 
HETATM   13  C   UNL     1       5.552  -8.284  55.943  1.00  0.00     0.036 A 
HETATM   14  C   UNL     1       4.750  -7.991  54.843  1.00  0.00     0.003 A 
HETATM   15  C   UNL     1       3.463  -8.527  54.754  1.00  0.00     0.007 A 
BRANCH  12  16
HETATM   16  O   UNL     1       5.882  -9.372  58.006  1.00  0.00    -0.361 OA
HETATM   17  H   UNL     1       6.162 -10.249  58.176  1.00  0.00     0.217 HD
ENDBRANCH  12  16
ENDBRANCH   9  10
ENDBRANCH   3   9
ENDBRANCH   1   3
TORSDOF 7
ENDMDL
MODEL 8
REMARK VINA RESULT:      -6.0      2.254      3.214
REMARK  7 active torsions:
REMARK  status: ('A' for Active; 'I' for Inactive)
REMARK    1  A    between atoms: O_1  and  C_2 
REMARK    2  A    between atoms: C_2  and  C_3 
REMARK    3  A    between atoms: C_2  and  C_8 
REMARK    4  A    between atoms: C_3  and  C_4 
REMARK    5  A    between atoms: C_4  and  C_5 
REMARK    6  A    between atoms: C_8  and  C_9 
REMARK    7  A    between atoms: C_11  and  O_15 
ROOT
HETATM    1  O   UNL     1       5.295  -6.494  56.770  1.00  0.00    -0.395 OA
HETATM    2  H   UNL     1       6.047  -7.057  57.011  1.00  0.00     0.210 HD
ENDROOT
BRANCH   1   3
HETATM    3  C   UNL     1       4.179  -7.313  56.423  1.00  0.00     0.122 C 
BRANCH   3   4
HETATM    4  C   UNL     1       3.011  -6.431  55.954  1.00  0.00     0.042 C 
BRANCH   4   5
HETATM    5  C   UNL     1       3.458  -5.089  55.371  1.00  0.00     0.116 C 
BRANCH   5   6
HETATM    6  C   UNL     1       3.579  -5.029  53.870  1.00  0.00     0.172 C 
HETATM    7  O   UNL     1       3.029  -5.788  53.088  1.00  0.00    -0.648 OA
HETATM    8  O   UNL     1       4.442  -4.101  53.410  1.00  0.00    -0.648 OA
ENDBRANCH   5   6
ENDBRANCH   4   5
ENDBRANCH   3   4
BRANCH   3   9
HETATM    9  C   UNL     1       4.588  -8.309  55.320  1.00  0.00     0.070 C 
BRANCH   9  10
HETATM   10  C   UNL     1       3.457  -9.219  54.891  1.00  0.00    -0.053 A 
HETATM   11  C   UNL     1       2.943 -10.181  55.774  1.00  0.00     0.043 A 
HETATM   12  C   UNL     1       1.899 -11.011  55.368  1.00  0.00     0.066 A 
HETATM   13  C   UNL     1       1.355 -10.903  54.094  1.00  0.00     0.036 A 
HETATM   14  C   UNL     1       1.859  -9.952  53.210  1.00  0.00     0.003 A 
HETATM   15  C   UNL     1       2.904  -9.114  53.606  1.00  0.00     0.007 A 
BRANCH  12  16
HETATM   16  O   UNL     1       1.377 -11.955  56.202  1.00  0.00    -0.361 OA
HETATM   17  H   UNL     1       0.777 -12.594  55.870  1.00  0.00     0.217 HD
ENDBRANCH  12  16
ENDBRANCH   9  10
ENDBRANCH   3   9
ENDBRANCH   1   3
TORSDOF 7
ENDMDL
MODEL 9
REMARK VINA RESULT:      -6.0      2.868      5.591
REMARK  7 active torsions:
REMARK  status: ('A' for Active; 'I' for Inactive)
REMARK    1  A    between atoms: O_1  and  C_2 
REMARK    2  A    between atoms: C_2  and  C_3 
REMARK    3  A    between atoms: C_2  and  C_8 
REMARK    4  A    between atoms: C_3  and  C_4 
REMARK    5  A    between atoms: C_4  and  C_5 
REMARK    6  A    between atoms: C_8  and  C_9 
REMARK    7  A    between atoms: C_11  and  O_15 
ROOT
HETATM    1  O   UNL     1       3.413 -10.728  57.344  1.00  0.00    -0.395 OA
HETATM    2  H   UNL     1       3.181 -11.588  56.960  1.00  0.00     0.210 HD
ENDROOT
BRANCH   1   3
HETATM    3  C   UNL     1       3.485  -9.749  56.308  1.00  0.00     0.122 C 
BRANCH   3   4
HETATM    4  C   UNL     1       2.113  -9.080  56.125  1.00  0.00     0.042 C 
BRANCH   4   5
HETATM    5  C   UNL     1       1.194  -9.834  55.161  1.00  0.00     0.116 C 
BRANCH   5   6
HETATM    6  C   UNL     1       0.324 -10.899  55.776  1.00  0.00     0.172 C 
HETATM    7  O   UNL     1      -0.822 -10.736  56.164  1.00  0.00    -0.648 OA
HETATM    8  O   UNL     1       0.936 -12.085  55.969  1.00  0.00    -0.648 OA
ENDBRANCH   5   6
ENDBRANCH   4   5
ENDBRANCH   3   4
BRANCH   3   9
HETATM    9  C   UNL     1       4.560  -8.701  56.656  1.00  0.00     0.070 C 
BRANCH   9  10
HETATM   10  C   UNL     1       4.530  -7.492  55.745  1.00  0.00    -0.053 A 
HETATM   11  C   UNL     1       4.971  -7.590  54.416  1.00  0.00     0.043 A 
HETATM   12  C   UNL     1       4.935  -6.470  53.587  1.00  0.00     0.066 A 
HETATM   13  C   UNL     1       4.468  -5.249  54.057  1.00  0.00     0.036 A 
HETATM   14  C   UNL     1       4.029  -5.141  55.374  1.00  0.00     0.003 A 
HETATM   15  C   UNL     1       4.059  -6.257  56.214  1.00  0.00     0.007 A 
BRANCH  12  16
HETATM   16  O   UNL     1       5.356  -6.532  52.292  1.00  0.00    -0.361 OA
HETATM   17  H   UNL     1       5.583  -5.746  51.835  1.00  0.00     0.217 HD
ENDBRANCH  12  16
ENDBRANCH   9  10
ENDBRANCH   3   9
ENDBRANCH   1   3
TORSDOF 7
ENDMDL
