MODEL 1
REMARK VINA RESULT:      -7.2      0.000      0.000
REMARK  8 active torsions:
REMARK  status: ('A' for Active; 'I' for Inactive)
REMARK    1  A    between atoms: O_1  and  C_2 
REMARK    2  A    between atoms: C_2  and  C_3 
REMARK    3  A    between atoms: C_2  and  C_8 
REMARK    4  A    between atoms: C_3  and  C_4 
REMARK    5  A    between atoms: C_4  and  C_5 
REMARK    6  A    between atoms: C_8  and  C_9 
REMARK    7  A    between atoms: C_11  and  O_16 
REMARK    8  A    between atoms: C_12  and  O_15 
ROOT
HETATM    1  O   UNL     1      11.226   4.631  11.388  1.00  0.00    -0.395 OA
HETATM    2  H   UNL     1      10.397   4.762  11.874  1.00  0.00     0.210 HD
ENDROOT
BRANCH   1   3
HETATM    3  C   UNL     1      11.999   5.830  11.434  1.00  0.00     0.122 C 
BRANCH   3   4
HETATM    4  C   UNL     1      12.069   6.457  10.032  1.00  0.00     0.042 C 
BRANCH   4   5
HETATM    5  C   UNL     1      13.273   5.984   9.215  1.00  0.00     0.116 C 
BRANCH   5   6
HETATM    6  C   UNL     1      12.980   5.557   7.799  1.00  0.00     0.172 C 
HETATM    7  O   UNL     1      13.187   6.231   6.803  1.00  0.00    -0.648 OA
HETATM    8  O   UNL     1      12.542   4.290   7.674  1.00  0.00    -0.648 OA
ENDBRANCH   5   6
ENDBRANCH   4   5
ENDBRANCH   3   4
BRANCH   3   9
HETATM    9  C   UNL     1      13.411   5.522  11.962  1.00  0.00     0.070 C 
BRANCH   9  10
HETATM   10  C   UNL     1      13.585   5.890  13.419  1.00  0.00    -0.053 A 
HETATM   11  C   UNL     1      12.465   6.077  14.243  1.00  0.00     0.046 A 
HETATM   12  C   UNL     1      12.642   6.432  15.572  1.00  0.00     0.099 A 
HETATM   13  C   UNL     1      13.919   6.576  16.105  1.00  0.00     0.098 A 
HETATM   14  C   UNL     1      15.038   6.414  15.302  1.00  0.00     0.040 A 
HETATM   15  C   UNL     1      14.871   6.073  13.957  1.00  0.00     0.010 A 
BRANCH  12  16
HETATM   16  O   UNL     1      11.544   6.673  16.347  1.00  0.00    -0.358 OA
HETATM   17  H   UNL     1      11.347   7.547  16.622  1.00  0.00     0.217 HD
ENDBRANCH  12  16
BRANCH  13  18
HETATM   18  O   UNL     1      14.090   6.849  17.432  1.00  0.00    -0.358 OA
HETATM   19  H   UNL     1      14.159   6.147  18.049  1.00  0.00     0.217 HD
ENDBRANCH  13  18
ENDBRANCH   9  10
ENDBRANCH   3   9
ENDBRANCH   1   3
TORSDOF 8
ENDMDL
MODEL 2
REMARK VINA RESULT:      -7.1      3.215      5.586
REMARK  8 active torsions:
REMARK  status: ('A' for Active; 'I' for Inactive)
REMARK    1  A    between atoms: O_1  and  C_2 
REMARK    2  A    between atoms: C_2  and  C_3 
REMARK    3  A    between atoms: C_2  and  C_8 
REMARK    4  A    between atoms: C_3  and  C_4 
REMARK    5  A    between atoms: C_4  and  C_5 
REMARK    6  A    between atoms: C_8  and  C_9 
REMARK    7  A    between atoms: C_11  and  O_16 
REMARK    8  A    between atoms: C_12  and  O_15 
ROOT
HETATM    1  O   UNL     1      16.612   4.701  14.087  1.00  0.00    -0.395 OA
HETATM    2  H   UNL     1      17.522   4.399  14.232  1.00  0.00     0.210 HD
ENDROOT
BRANCH   1   3
HETATM    3  C   UNL     1      16.518   5.327  12.808  1.00  0.00     0.122 C 
BRANCH   3   4
HETATM    4  C   UNL     1      17.834   6.054  12.486  1.00  0.00     0.042 C 
BRANCH   4   5
HETATM    5  C   UNL     1      18.539   5.510  11.242  1.00  0.00     0.116 C 
BRANCH   5   6
HETATM    6  C   UNL     1      18.364   6.317   9.981  1.00  0.00     0.172 C 
HETATM    7  O   UNL     1      18.309   5.858   8.852  1.00  0.00    -0.648 OA
HETATM    8  O   UNL     1      18.165   7.634  10.181  1.00  0.00    -0.648 OA
ENDBRANCH   5   6
ENDBRANCH   4   5
ENDBRANCH   3   4
BRANCH   3   9
HETATM    9  C   UNL     1      15.336   6.313  12.795  1.00  0.00     0.070 C 
BRANCH   9  10
HETATM   10  C   UNL     1      14.382   6.067  11.647  1.00  0.00    -0.053 A 
HETATM   11  C   UNL     1      13.080   5.603  11.891  1.00  0.00     0.046 A 
HETATM   12  C   UNL     1      12.224   5.367  10.825  1.00  0.00     0.099 A 
HETATM   13  C   UNL     1      12.631   5.612   9.518  1.00  0.00     0.098 A 
HETATM   14  C   UNL     1      13.920   6.052   9.255  1.00  0.00     0.040 A 
HETATM   15  C   UNL     1      14.797   6.277  10.320  1.00  0.00     0.010 A 
BRANCH  12  16
HETATM   16  O   UNL     1      10.982   4.856  11.072  1.00  0.00    -0.358 OA
HETATM   17  H   UNL     1      10.705   4.704  11.955  1.00  0.00     0.217 HD
ENDBRANCH  12  16
BRANCH  13  18
HETATM   18  O   UNL     1      11.762   5.452   8.479  1.00  0.00    -0.358 OA
HETATM   19  H   UNL     1      12.088   5.321   7.610  1.00  0.00     0.217 HD
ENDBRANCH  13  18
ENDBRANCH   9  10
ENDBRANCH   3   9
ENDBRANCH   1   3
TORSDOF 8
ENDMDL
MODEL 3
REMARK VINA RESULT:      -6.7      3.357      4.809
REMARK  8 active torsions:
REMARK  status: ('A' for Active; 'I' for Inactive)
REMARK    1  A    between atoms: O_1  and  C_2 
REMARK    2  A    between atoms: C_2  and  C_3 
REMARK    3  A    between atoms: C_2  and  C_8 
REMARK    4  A    between atoms: C_3  and  C_4 
REMARK    5  A    between atoms: C_4  and  C_5 
REMARK    6  A    between atoms: C_8  and  C_9 
REMARK    7  A    between atoms: C_11  and  O_16 
REMARK    8  A    between atoms: C_12  and  O_15 
ROOT
HETATM    1  O   UNL     1      12.237   5.876  13.498  1.00  0.00    -0.395 OA
HETATM    2  H   UNL     1      11.901   6.717  13.846  1.00  0.00     0.210 HD
ENDROOT
BRANCH   1   3
HETATM    3  C   UNL     1      13.174   6.134  12.453  1.00  0.00     0.122 C 
BRANCH   3   4
HETATM    4  C   UNL     1      12.755   5.381  11.181  1.00  0.00     0.042 C 
BRANCH   4   5
HETATM    5  C   UNL     1      12.140   6.289  10.113  1.00  0.00     0.116 C 
BRANCH   5   6
HETATM    6  C   UNL     1      12.638   6.079   8.706  1.00  0.00     0.172 C 
HETATM    7  O   UNL     1      12.011   6.333   7.691  1.00  0.00    -0.648 OA
HETATM    8  O   UNL     1      13.916   5.662   8.619  1.00  0.00    -0.648 OA
ENDBRANCH   5   6
ENDBRANCH   4   5
ENDBRANCH   3   4
BRANCH   3   9
HETATM    9  C   UNL     1      14.583   5.706  12.899  1.00  0.00     0.070 C 
BRANCH   9  10
HETATM   10  C   UNL     1      15.662   6.144  11.933  1.00  0.00    -0.053 A 
HETATM   11  C   UNL     1      16.865   5.429  11.839  1.00  0.00     0.046 A 
HETATM   12  C   UNL     1      17.851   5.856  10.960  1.00  0.00     0.099 A 
HETATM   13  C   UNL     1      17.648   6.969  10.151  1.00  0.00     0.098 A 
HETATM   14  C   UNL     1      16.473   7.701  10.244  1.00  0.00     0.040 A 
HETATM   15  C   UNL     1      15.480   7.290  11.138  1.00  0.00     0.010 A 
BRANCH  12  16
HETATM   16  O   UNL     1      19.042   5.189  10.923  1.00  0.00    -0.358 OA
HETATM   17  H   UNL     1      19.205   4.558  10.249  1.00  0.00     0.217 HD
ENDBRANCH  12  16
BRANCH  13  18
HETATM   18  O   UNL     1      18.588   7.340   9.233  1.00  0.00    -0.358 OA
HETATM   19  H   UNL     1      18.594   8.215   8.896  1.00  0.00     0.217 HD
ENDBRANCH  13  18
ENDBRANCH   9  10
ENDBRANCH   3   9
ENDBRANCH   1   3
TORSDOF 8
ENDMDL
MODEL 4
REMARK VINA RESULT:      -6.7      2.850      4.287
REMARK  8 active torsions:
REMARK  status: ('A' for Active; 'I' for Inactive)
REMARK    1  A    between atoms: O_1  and  C_2 
REMARK    2  A    between atoms: C_2  and  C_3 
REMARK    3  A    between atoms: C_2  and  C_8 
REMARK    4  A    between atoms: C_3  and  C_4 
REMARK    5  A    between atoms: C_4  and  C_5 
REMARK    6  A    between atoms: C_8  and  C_9 
REMARK    7  A    between atoms: C_11  and  O_16 
REMARK    8  A    between atoms: C_12  and  O_15 
ROOT
HETATM    1  O   UNL     1      11.474   6.307  12.547  1.00  0.00    -0.395 OA
HETATM    2  H   UNL     1      11.452   7.194  12.938  1.00  0.00     0.210 HD
ENDROOT
BRANCH   1   3
HETATM    3  C   UNL     1      12.624   6.185  11.711  1.00  0.00     0.122 C 
BRANCH   3   4
HETATM    4  C   UNL     1      12.283   5.330  10.479  1.00  0.00     0.042 C 
BRANCH   4   5
HETATM    5  C   UNL     1      12.128   6.150   9.196  1.00  0.00     0.116 C 
BRANCH   5   6
HETATM    6  C   UNL     1      12.719   5.538   7.951  1.00  0.00     0.172 C 
HETATM    7  O   UNL     1      12.631   4.363   7.633  1.00  0.00    -0.648 OA
HETATM    8  O   UNL     1      13.299   6.419   7.114  1.00  0.00    -0.648 OA
ENDBRANCH   5   6
ENDBRANCH   4   5
ENDBRANCH   3   4
BRANCH   3   9
HETATM    9  C   UNL     1      13.783   5.555  12.504  1.00  0.00     0.070 C 
BRANCH   9  10
HETATM   10  C   UNL     1      15.141   5.953  11.972  1.00  0.00    -0.053 A 
HETATM   11  C   UNL     1      15.249   6.802  10.860  1.00  0.00     0.046 A 
HETATM   12  C   UNL     1      16.503   7.142  10.374  1.00  0.00     0.099 A 
HETATM   13  C   UNL     1      17.656   6.674  10.994  1.00  0.00     0.098 A 
HETATM   14  C   UNL     1      17.571   5.818  12.082  1.00  0.00     0.040 A 
HETATM   15  C   UNL     1      16.313   5.455  12.570  1.00  0.00     0.010 A 
BRANCH  12  16
HETATM   16  O   UNL     1      16.592   7.918   9.253  1.00  0.00    -0.358 OA
HETATM   17  H   UNL     1      15.813   8.227   8.834  1.00  0.00     0.217 HD
ENDBRANCH  12  16
BRANCH  13  18
HETATM   18  O   UNL     1      18.888   7.074  10.561  1.00  0.00    -0.358 OA
HETATM   19  H   UNL     1      19.151   6.905   9.678  1.00  0.00     0.217 HD
ENDBRANCH  13  18
ENDBRANCH   9  10
ENDBRANCH   3   9
ENDBRANCH   1   3
TORSDOF 8
ENDMDL
MODEL 5
REMARK VINA RESULT:      -6.7      0.738      1.807
REMARK  8 active torsions:
REMARK  status: ('A' for Active; 'I' for Inactive)
REMARK    1  A    between atoms: O_1  and  C_2 
REMARK    2  A    between atoms: C_2  and  C_3 
REMARK    3  A    between atoms: C_2  and  C_8 
REMARK    4  A    between atoms: C_3  and  C_4 
REMARK    5  A    between atoms: C_4  and  C_5 
REMARK    6  A    between atoms: C_8  and  C_9 
REMARK    7  A    between atoms: C_11  and  O_16 
REMARK    8  A    between atoms: C_12  and  O_15 
ROOT
HETATM    1  O   UNL     1      11.274   4.713  11.282  1.00  0.00    -0.395 OA
HETATM    2  H   UNL     1      10.388   4.862  10.915  1.00  0.00     0.210 HD
ENDROOT
BRANCH   1   3
HETATM    3  C   UNL     1      11.996   5.943  11.298  1.00  0.00     0.122 C 
BRANCH   3   4
HETATM    4  C   UNL     1      12.083   6.513   9.873  1.00  0.00     0.042 C 
BRANCH   4   5
HETATM    5  C   UNL     1      13.220   5.910   9.046  1.00  0.00     0.116 C 
BRANCH   5   6
HETATM    6  C   UNL     1      12.827   5.337   7.708  1.00  0.00     0.172 C 
HETATM    7  O   UNL     1      12.719   4.148   7.455  1.00  0.00    -0.648 OA
HETATM    8  O   UNL     1      12.493   6.255   6.781  1.00  0.00    -0.648 OA
ENDBRANCH   5   6
ENDBRANCH   4   5
ENDBRANCH   3   4
BRANCH   3   9
HETATM    9  C   UNL     1      13.403   5.714  11.878  1.00  0.00     0.070 C 
BRANCH   9  10
HETATM   10  C   UNL     1      13.470   5.966  13.368  1.00  0.00    -0.053 A 
HETATM   11  C   UNL     1      14.621   5.625  14.096  1.00  0.00     0.046 A 
HETATM   12  C   UNL     1      14.658   5.847  15.465  1.00  0.00     0.099 A 
HETATM   13  C   UNL     1      13.579   6.430  16.120  1.00  0.00     0.098 A 
HETATM   14  C   UNL     1      12.426   6.756  15.422  1.00  0.00     0.040 A 
HETATM   15  C   UNL     1      12.370   6.521  14.045  1.00  0.00     0.010 A 
BRANCH  12  16
HETATM   16  O   UNL     1      15.759   5.453  16.171  1.00  0.00    -0.358 OA
HETATM   17  H   UNL     1      16.607   5.492  15.776  1.00  0.00     0.217 HD
ENDBRANCH  12  16
BRANCH  13  18
HETATM   18  O   UNL     1      13.649   6.718  17.453  1.00  0.00    -0.358 OA
HETATM   19  H   UNL     1      13.970   6.075  18.054  1.00  0.00     0.217 HD
ENDBRANCH  13  18
ENDBRANCH   9  10
ENDBRANCH   3   9
ENDBRANCH   1   3
TORSDOF 8
ENDMDL
MODEL 6
REMARK VINA RESULT:      -6.6      1.532      6.645
REMARK  8 active torsions:
REMARK  status: ('A' for Active; 'I' for Inactive)
REMARK    1  A    between atoms: O_1  and  C_2 
REMARK    2  A    between atoms: C_2  and  C_3 
REMARK    3  A    between atoms: C_2  and  C_8 
REMARK    4  A    between atoms: C_3  and  C_4 
REMARK    5  A    between atoms: C_4  and  C_5 
REMARK    6  A    between atoms: C_8  and  C_9 
REMARK    7  A    between atoms: C_11  and  O_16 
REMARK    8  A    between atoms: C_12  and  O_15 
ROOT
HETATM    1  O   UNL     1      11.866   4.558  14.960  1.00  0.00    -0.395 OA
HETATM    2  H   UNL     1      12.114   4.861  15.848  1.00  0.00     0.210 HD
ENDROOT
BRANCH   1   3
HETATM    3  C   UNL     1      12.961   4.757  14.067  1.00  0.00     0.122 C 
BRANCH   3   4
HETATM    4  C   UNL     1      14.287   4.636  14.835  1.00  0.00     0.042 C 
BRANCH   4   5
HETATM    5  C   UNL     1      14.839   5.982  15.310  1.00  0.00     0.116 C 
BRANCH   5   6
HETATM    6  C   UNL     1      14.369   6.443  16.665  1.00  0.00     0.172 C 
HETATM    7  O   UNL     1      13.203   6.532  17.015  1.00  0.00    -0.648 OA
HETATM    8  O   UNL     1      15.356   6.675  17.552  1.00  0.00    -0.648 OA
ENDBRANCH   5   6
ENDBRANCH   4   5
ENDBRANCH   3   4
BRANCH   3   9
HETATM    9  C   UNL     1      12.845   6.139  13.399  1.00  0.00     0.070 C 
BRANCH   9  10
HETATM   10  C   UNL     1      13.100   6.091  11.908  1.00  0.00    -0.053 A 
HETATM   11  C   UNL     1      14.411   6.092  11.410  1.00  0.00     0.046 A 
HETATM   12  C   UNL     1      14.626   6.066  10.040  1.00  0.00     0.099 A 
HETATM   13  C   UNL     1      13.556   6.011   9.154  1.00  0.00     0.098 A 
HETATM   14  C   UNL     1      12.252   6.029   9.625  1.00  0.00     0.040 A 
HETATM   15  C   UNL     1      12.023   6.073  11.004  1.00  0.00     0.010 A 
BRANCH  12  16
HETATM   16  O   UNL     1      15.906   6.131   9.567  1.00  0.00    -0.358 OA
HETATM   17  H   UNL     1      16.612   5.785  10.078  1.00  0.00     0.217 HD
ENDBRANCH  12  16
BRANCH  13  18
HETATM   18  O   UNL     1      13.772   5.907   7.810  1.00  0.00    -0.358 OA
HETATM   19  H   UNL     1      13.873   6.681   7.291  1.00  0.00     0.217 HD
ENDBRANCH  13  18
ENDBRANCH   9  10
ENDBRANCH   3   9
ENDBRANCH   1   3
TORSDOF 8
ENDMDL
MODEL 7
REMARK VINA RESULT:      -6.6      3.727      5.359
REMARK  8 active torsions:
REMARK  status: ('A' for Active; 'I' for Inactive)
REMARK    1  A    between atoms: O_1  and  C_2 
REMARK    2  A    between atoms: C_2  and  C_3 
REMARK    3  A    between atoms: C_2  and  C_8 
REMARK    4  A    between atoms: C_3  and  C_4 
REMARK    5  A    between atoms: C_4  and  C_5 
REMARK    6  A    between atoms: C_8  and  C_9 
REMARK    7  A    between atoms: C_11  and  O_16 
REMARK    8  A    between atoms: C_12  and  O_15 
ROOT
HETATM    1  O   UNL     1      17.029   7.993   9.173  1.00  0.00    -0.395 OA
HETATM    2  H   UNL     1      16.572   7.483   8.485  1.00  0.00     0.210 HD
ENDROOT
BRANCH   1   3
HETATM    3  C   UNL     1      16.827   7.370  10.441  1.00  0.00     0.122 C 
BRANCH   3   4
HETATM    4  C   UNL     1      18.183   6.972  11.046  1.00  0.00     0.042 C 
BRANCH   4   5
HETATM    5  C   UNL     1      18.423   5.460  11.056  1.00  0.00     0.116 C 
BRANCH   5   6
HETATM    6  C   UNL     1      18.810   4.865  12.385  1.00  0.00     0.172 C 
HETATM    7  O   UNL     1      19.829   4.231  12.603  1.00  0.00    -0.648 OA
HETATM    8  O   UNL     1      17.974   5.164  13.399  1.00  0.00    -0.648 OA
ENDBRANCH   5   6
ENDBRANCH   4   5
ENDBRANCH   3   4
BRANCH   3   9
HETATM    9  C   UNL     1      15.922   6.136  10.278  1.00  0.00     0.070 C 
BRANCH   9  10
HETATM   10  C   UNL     1      14.731   6.157  11.211  1.00  0.00    -0.053 A 
HETATM   11  C   UNL     1      13.482   5.683  10.780  1.00  0.00     0.046 A 
HETATM   12  C   UNL     1      12.397   5.726  11.643  1.00  0.00     0.099 A 
HETATM   13  C   UNL     1      12.539   6.206  12.941  1.00  0.00     0.098 A 
HETATM   14  C   UNL     1      13.760   6.697  13.378  1.00  0.00     0.040 A 
HETATM   15  C   UNL     1      14.856   6.675  12.512  1.00  0.00     0.010 A 
BRANCH  12  16
HETATM   16  O   UNL     1      11.173   5.320  11.191  1.00  0.00    -0.358 OA
HETATM   17  H   UNL     1      11.094   4.521  10.708  1.00  0.00     0.217 HD
ENDBRANCH  12  16
BRANCH  13  18
HETATM   18  O   UNL     1      11.488   6.175  13.811  1.00  0.00    -0.358 OA
HETATM   19  H   UNL     1      10.640   6.461  13.533  1.00  0.00     0.217 HD
ENDBRANCH  13  18
ENDBRANCH   9  10
ENDBRANCH   3   9
ENDBRANCH   1   3
TORSDOF 8
ENDMDL
MODEL 8
REMARK VINA RESULT:      -6.5      3.219      3.658
REMARK  8 active torsions:
REMARK  status: ('A' for Active; 'I' for Inactive)
REMARK    1  A    between atoms: O_1  and  C_2 
REMARK    2  A    between atoms: C_2  and  C_3 
REMARK    3  A    between atoms: C_2  and  C_8 
REMARK    4  A    between atoms: C_3  and  C_4 
REMARK    5  A    between atoms: C_4  and  C_5 
REMARK    6  A    between atoms: C_8  and  C_9 
REMARK    7  A    between atoms: C_11  and  O_16 
REMARK    8  A    between atoms: C_12  and  O_15 
ROOT
HETATM    1  O   UNL     1      14.249   6.015  10.198  1.00  0.00    -0.395 OA
HETATM    2  H   UNL     1      13.464   6.539   9.974  1.00  0.00     0.210 HD
ENDROOT
BRANCH   1   3
HETATM    3  C   UNL     1      15.005   6.694  11.200  1.00  0.00     0.122 C 
BRANCH   3   4
HETATM    4  C   UNL     1      16.332   7.191  10.602  1.00  0.00     0.042 C 
BRANCH   4   5
HETATM    5  C   UNL     1      17.565   6.639  11.320  1.00  0.00     0.116 C 
BRANCH   5   6
HETATM    6  C   UNL     1      18.479   5.776  10.488  1.00  0.00     0.172 C 
HETATM    7  O   UNL     1      19.264   4.952  10.929  1.00  0.00    -0.648 OA
HETATM    8  O   UNL     1      18.310   5.899   9.158  1.00  0.00    -0.648 OA
ENDBRANCH   5   6
ENDBRANCH   4   5
ENDBRANCH   3   4
BRANCH   3   9
HETATM    9  C   UNL     1      15.264   5.751  12.388  1.00  0.00     0.070 C 
BRANCH   9  10
HETATM   10  C   UNL     1      14.407   6.075  13.591  1.00  0.00    -0.053 A 
HETATM   11  C   UNL     1      13.016   6.207  13.458  1.00  0.00     0.046 A 
HETATM   12  C   UNL     1      12.247   6.523  14.569  1.00  0.00     0.099 A 
HETATM   13  C   UNL     1      12.835   6.681  15.819  1.00  0.00     0.098 A 
HETATM   14  C   UNL     1      14.210   6.574  15.967  1.00  0.00     0.040 A 
HETATM   15  C   UNL     1      14.997   6.274  14.852  1.00  0.00     0.010 A 
BRANCH  12  16
HETATM   16  O   UNL     1      10.903   6.710  14.414  1.00  0.00    -0.358 OA
HETATM   17  H   UNL     1      10.418   6.164  13.827  1.00  0.00     0.217 HD
ENDBRANCH  12  16
BRANCH  13  18
HETATM   18  O   UNL     1      12.067   6.915  16.923  1.00  0.00    -0.358 OA
HETATM   19  H   UNL     1      11.507   6.241  17.255  1.00  0.00     0.217 HD
ENDBRANCH  13  18
ENDBRANCH   9  10
ENDBRANCH   3   9
ENDBRANCH   1   3
TORSDOF 8
ENDMDL
MODEL 9
REMARK VINA RESULT:      -6.5      2.220      6.216
REMARK  8 active torsions:
REMARK  status: ('A' for Active; 'I' for Inactive)
REMARK    1  A    between atoms: O_1  and  C_2 
REMARK    2  A    between atoms: C_2  and  C_3 
REMARK    3  A    between atoms: C_2  and  C_8 
REMARK    4  A    between atoms: C_3  and  C_4 
REMARK    5  A    between atoms: C_4  and  C_5 
REMARK    6  A    between atoms: C_8  and  C_9 
REMARK    7  A    between atoms: C_11  and  O_16 
REMARK    8  A    between atoms: C_12  and  O_15 
ROOT
HETATM    1  O   UNL     1      11.415   6.099  15.184  1.00  0.00    -0.395 OA
HETATM    2  H   UNL     1      11.218   5.470  15.896  1.00  0.00     0.210 HD
ENDROOT
BRANCH   1   3
HETATM    3  C   UNL     1      12.366   5.523  14.290  1.00  0.00     0.122 C 
BRANCH   3   4
HETATM    4  C   UNL     1      13.318   4.599  15.068  1.00  0.00     0.042 C 
BRANCH   4   5
HETATM    5  C   UNL     1      14.671   5.244  15.377  1.00  0.00     0.116 C 
BRANCH   5   6
HETATM    6  C   UNL     1      15.882   4.382  15.126  1.00  0.00     0.172 C 
HETATM    7  O   UNL     1      16.197   3.401  15.780  1.00  0.00    -0.648 OA
HETATM    8  O   UNL     1      16.587   4.711  14.027  1.00  0.00    -0.648 OA
ENDBRANCH   5   6
ENDBRANCH   4   5
ENDBRANCH   3   4
BRANCH   3   9
HETATM    9  C   UNL     1      13.153   6.636  13.576  1.00  0.00     0.070 C 
BRANCH   9  10
HETATM   10  C   UNL     1      13.321   6.378  12.095  1.00  0.00    -0.053 A 
HETATM   11  C   UNL     1      14.601   6.306  11.526  1.00  0.00     0.046 A 
HETATM   12  C   UNL     1      14.736   6.086  10.163  1.00  0.00     0.099 A 
HETATM   13  C   UNL     1      13.616   5.906   9.358  1.00  0.00     0.098 A 
HETATM   14  C   UNL     1      12.342   5.993   9.898  1.00  0.00     0.040 A 
HETATM   15  C   UNL     1      12.194   6.231  11.267  1.00  0.00     0.010 A 
BRANCH  12  16
HETATM   16  O   UNL     1      15.986   6.082   9.612  1.00  0.00    -0.358 OA
HETATM   17  H   UNL     1      16.728   6.323  10.131  1.00  0.00     0.217 HD
ENDBRANCH  12  16
BRANCH  13  18
HETATM   18  O   UNL     1      13.755   5.613   8.032  1.00  0.00    -0.358 OA
HETATM   19  H   UNL     1      13.009   5.644   7.465  1.00  0.00     0.217 HD
ENDBRANCH  13  18
ENDBRANCH   9  10
ENDBRANCH   3   9
ENDBRANCH   1   3
TORSDOF 8
ENDMDL
