MODEL 1
REMARK VINA RESULT:      -7.3      0.000      0.000
REMARK  8 active torsions:
REMARK  status: ('A' for Active; 'I' for Inactive)
REMARK    1  A    between atoms: O_1  and  C_2 
REMARK    2  A    between atoms: C_2  and  C_3 
REMARK    3  A    between atoms: C_2  and  C_8 
REMARK    4  A    between atoms: C_3  and  C_4 
REMARK    5  A    between atoms: C_4  and  C_5 
REMARK    6  A    between atoms: C_8  and  C_9 
REMARK    7  A    between atoms: C_11  and  O_16 
REMARK    8  A    between atoms: C_12  and  O_15 
ROOT
HETATM    1  O   UNL     1      11.238   4.703  11.492  1.00  0.00    -0.395 OA
HETATM    2  H   UNL     1      11.658   4.026  10.938  1.00  0.00     0.210 HD
ENDROOT
BRANCH   1   3
HETATM    3  C   UNL     1      12.016   5.899  11.452  1.00  0.00     0.122 C 
BRANCH   3   4
HETATM    4  C   UNL     1      12.062   6.441  10.014  1.00  0.00     0.042 C 
BRANCH   4   5
HETATM    5  C   UNL     1      13.291   5.975   9.229  1.00  0.00     0.116 C 
BRANCH   5   6
HETATM    6  C   UNL     1      13.019   5.404   7.861  1.00  0.00     0.172 C 
HETATM    7  O   UNL     1      12.585   4.285   7.639  1.00  0.00    -0.648 OA
HETATM    8  O   UNL     1      13.199   6.269   6.845  1.00  0.00    -0.648 OA
ENDBRANCH   5   6
ENDBRANCH   4   5
ENDBRANCH   3   4
BRANCH   3   9
HETATM    9  C   UNL     1      13.437   5.615  11.971  1.00  0.00     0.070 C 
BRANCH   9  10
HETATM   10  C   UNL     1      13.601   5.946  13.438  1.00  0.00    -0.053 A 
HETATM   11  C   UNL     1      12.476   6.123  14.257  1.00  0.00     0.046 A 
HETATM   12  C   UNL     1      12.644   6.443  15.597  1.00  0.00     0.099 A 
HETATM   13  C   UNL     1      13.918   6.562  16.144  1.00  0.00     0.098 A 
HETATM   14  C   UNL     1      15.042   6.410  15.346  1.00  0.00     0.040 A 
HETATM   15  C   UNL     1      14.884   6.104  13.992  1.00  0.00     0.010 A 
BRANCH  12  16
HETATM   16  O   UNL     1      11.541   6.675  16.368  1.00  0.00    -0.358 OA
HETATM   17  H   UNL     1      11.240   6.017  16.963  1.00  0.00     0.217 HD
ENDBRANCH  12  16
BRANCH  13  18
HETATM   18  O   UNL     1      14.080   6.801  17.478  1.00  0.00    -0.358 OA
HETATM   19  H   UNL     1      14.541   7.564  17.765  1.00  0.00     0.217 HD
ENDBRANCH  13  18
ENDBRANCH   9  10
ENDBRANCH   3   9
ENDBRANCH   1   3
TORSDOF 8
ENDMDL
MODEL 2
REMARK VINA RESULT:      -7.1      3.162      5.583
REMARK  8 active torsions:
REMARK  status: ('A' for Active; 'I' for Inactive)
REMARK    1  A    between atoms: O_1  and  C_2 
REMARK    2  A    between atoms: C_2  and  C_3 
REMARK    3  A    between atoms: C_2  and  C_8 
REMARK    4  A    between atoms: C_3  and  C_4 
REMARK    5  A    between atoms: C_4  and  C_5 
REMARK    6  A    between atoms: C_8  and  C_9 
REMARK    7  A    between atoms: C_11  and  O_16 
REMARK    8  A    between atoms: C_12  and  O_15 
ROOT
HETATM    1  O   UNL     1      16.461   4.898  14.241  1.00  0.00    -0.395 OA
HETATM    2  H   UNL     1      16.504   3.929  14.214  1.00  0.00     0.210 HD
ENDROOT
BRANCH   1   3
HETATM    3  C   UNL     1      16.430   5.411  12.910  1.00  0.00     0.122 C 
BRANCH   3   4
HETATM    4  C   UNL     1      17.788   6.046  12.567  1.00  0.00     0.042 C 
BRANCH   4   5
HETATM    5  C   UNL     1      18.372   5.550  11.242  1.00  0.00     0.116 C 
BRANCH   5   6
HETATM    6  C   UNL     1      18.261   6.501  10.078  1.00  0.00     0.172 C 
HETATM    7  O   UNL     1      18.158   7.714  10.166  1.00  0.00    -0.648 OA
HETATM    8  O   UNL     1      18.380   5.923   8.867  1.00  0.00    -0.648 OA
ENDBRANCH   5   6
ENDBRANCH   4   5
ENDBRANCH   3   4
BRANCH   3   9
HETATM    9  C   UNL     1      15.298   6.443  12.774  1.00  0.00     0.070 C 
BRANCH   9  10
HETATM   10  C   UNL     1      14.359   6.135  11.628  1.00  0.00    -0.053 A 
HETATM   11  C   UNL     1      13.062   5.663  11.879  1.00  0.00     0.046 A 
HETATM   12  C   UNL     1      12.221   5.368  10.815  1.00  0.00     0.099 A 
HETATM   13  C   UNL     1      12.639   5.564   9.503  1.00  0.00     0.098 A 
HETATM   14  C   UNL     1      13.924   6.011   9.234  1.00  0.00     0.040 A 
HETATM   15  C   UNL     1      14.786   6.295  10.297  1.00  0.00     0.010 A 
BRANCH  12  16
HETATM   16  O   UNL     1      10.984   4.850  11.072  1.00  0.00    -0.358 OA
HETATM   17  H   UNL     1      10.639   4.169  10.527  1.00  0.00     0.217 HD
ENDBRANCH  12  16
BRANCH  13  18
HETATM   18  O   UNL     1      11.783   5.347   8.463  1.00  0.00    -0.358 OA
HETATM   19  H   UNL     1      10.867   5.232   8.625  1.00  0.00     0.217 HD
ENDBRANCH  13  18
ENDBRANCH   9  10
ENDBRANCH   3   9
ENDBRANCH   1   3
TORSDOF 8
ENDMDL
MODEL 3
REMARK VINA RESULT:      -6.9      3.321      4.781
REMARK  8 active torsions:
REMARK  status: ('A' for Active; 'I' for Inactive)
REMARK    1  A    between atoms: O_1  and  C_2 
REMARK    2  A    between atoms: C_2  and  C_3 
REMARK    3  A    between atoms: C_2  and  C_8 
REMARK    4  A    between atoms: C_3  and  C_4 
REMARK    5  A    between atoms: C_4  and  C_5 
REMARK    6  A    between atoms: C_8  and  C_9 
REMARK    7  A    between atoms: C_11  and  O_16 
REMARK    8  A    between atoms: C_12  and  O_15 
ROOT
HETATM    1  O   UNL     1      11.856   6.159  12.585  1.00  0.00    -0.395 OA
HETATM    2  H   UNL     1      11.122   6.718  12.284  1.00  0.00     0.210 HD
ENDROOT
BRANCH   1   3
HETATM    3  C   UNL     1      12.927   6.235  11.645  1.00  0.00     0.122 C 
BRANCH   3   4
HETATM    4  C   UNL     1      12.595   5.384  10.409  1.00  0.00     0.042 C 
BRANCH   4   5
HETATM    5  C   UNL     1      12.229   6.217   9.179  1.00  0.00     0.116 C 
BRANCH   5   6
HETATM    6  C   UNL     1      12.721   5.686   7.856  1.00  0.00     0.172 C 
HETATM    7  O   UNL     1      13.279   6.347   6.995  1.00  0.00    -0.648 OA
HETATM    8  O   UNL     1      12.590   4.355   7.702  1.00  0.00    -0.648 OA
ENDBRANCH   5   6
ENDBRANCH   4   5
ENDBRANCH   3   4
BRANCH   3   9
HETATM    9  C   UNL     1      14.233   5.753  12.302  1.00  0.00     0.070 C 
BRANCH   9  10
HETATM   10  C   UNL     1      15.466   6.206  11.552  1.00  0.00    -0.053 A 
HETATM   11  C   UNL     1      16.656   5.465  11.628  1.00  0.00     0.046 A 
HETATM   12  C   UNL     1      17.783   5.904  10.948  1.00  0.00     0.099 A 
HETATM   13  C   UNL     1      17.739   7.055  10.168  1.00  0.00     0.098 A 
HETATM   14  C   UNL     1      16.579   7.811  10.096  1.00  0.00     0.040 A 
HETATM   15  C   UNL     1      15.442   7.388  10.791  1.00  0.00     0.010 A 
BRANCH  12  16
HETATM   16  O   UNL     1      18.951   5.209  11.081  1.00  0.00    -0.358 OA
HETATM   17  H   UNL     1      19.768   5.624  10.884  1.00  0.00     0.217 HD
ENDBRANCH  12  16
BRANCH  13  18
HETATM   18  O   UNL     1      18.827   7.441   9.439  1.00  0.00    -0.358 OA
HETATM   19  H   UNL     1      19.622   7.679   9.874  1.00  0.00     0.217 HD
ENDBRANCH  13  18
ENDBRANCH   9  10
ENDBRANCH   3   9
ENDBRANCH   1   3
TORSDOF 8
ENDMDL
MODEL 4
REMARK VINA RESULT:      -6.7      1.188      1.960
REMARK  8 active torsions:
REMARK  status: ('A' for Active; 'I' for Inactive)
REMARK    1  A    between atoms: O_1  and  C_2 
REMARK    2  A    between atoms: C_2  and  C_3 
REMARK    3  A    between atoms: C_2  and  C_8 
REMARK    4  A    between atoms: C_3  and  C_4 
REMARK    5  A    between atoms: C_4  and  C_5 
REMARK    6  A    between atoms: C_8  and  C_9 
REMARK    7  A    between atoms: C_11  and  O_16 
REMARK    8  A    between atoms: C_12  and  O_15 
ROOT
HETATM    1  O   UNL     1      11.090   4.797  11.107  1.00  0.00    -0.395 OA
HETATM    2  H   UNL     1      10.184   5.139  11.153  1.00  0.00     0.210 HD
ENDROOT
BRANCH   1   3
HETATM    3  C   UNL     1      12.012   5.886  11.151  1.00  0.00     0.122 C 
BRANCH   3   4
HETATM    4  C   UNL     1      12.134   6.520   9.756  1.00  0.00     0.042 C 
BRANCH   4   5
HETATM    5  C   UNL     1      12.403   5.500   8.647  1.00  0.00     0.116 C 
BRANCH   5   6
HETATM    6  C   UNL     1      12.539   6.063   7.256  1.00  0.00     0.172 C 
HETATM    7  O   UNL     1      11.713   5.947   6.365  1.00  0.00    -0.648 OA
HETATM    8  O   UNL     1      13.634   6.822   7.061  1.00  0.00    -0.648 OA
ENDBRANCH   5   6
ENDBRANCH   4   5
ENDBRANCH   3   4
BRANCH   3   9
HETATM    9  C   UNL     1      13.383   5.389  11.644  1.00  0.00     0.070 C 
BRANCH   9  10
HETATM   10  C   UNL     1      13.727   5.897  13.026  1.00  0.00    -0.053 A 
HETATM   11  C   UNL     1      15.030   5.761  13.530  1.00  0.00     0.046 A 
HETATM   12  C   UNL     1      15.323   6.216  14.807  1.00  0.00     0.099 A 
HETATM   13  C   UNL     1      14.347   6.832  15.584  1.00  0.00     0.098 A 
HETATM   14  C   UNL     1      13.050   6.958  15.112  1.00  0.00     0.040 A 
HETATM   15  C   UNL     1      12.738   6.487  13.833  1.00  0.00     0.010 A 
BRANCH  12  16
HETATM   16  O   UNL     1      16.578   6.022  15.309  1.00  0.00    -0.358 OA
HETATM   17  H   UNL     1      16.883   6.545  16.024  1.00  0.00     0.217 HD
ENDBRANCH  12  16
BRANCH  13  18
HETATM   18  O   UNL     1      14.659   7.348  16.809  1.00  0.00    -0.358 OA
HETATM   19  H   UNL     1      14.530   8.260  16.980  1.00  0.00     0.217 HD
ENDBRANCH  13  18
ENDBRANCH   9  10
ENDBRANCH   3   9
ENDBRANCH   1   3
TORSDOF 8
ENDMDL
MODEL 5
REMARK VINA RESULT:      -6.7      2.679      3.851
REMARK  8 active torsions:
REMARK  status: ('A' for Active; 'I' for Inactive)
REMARK    1  A    between atoms: O_1  and  C_2 
REMARK    2  A    between atoms: C_2  and  C_3 
REMARK    3  A    between atoms: C_2  and  C_8 
REMARK    4  A    between atoms: C_3  and  C_4 
REMARK    5  A    between atoms: C_4  and  C_5 
REMARK    6  A    between atoms: C_8  and  C_9 
REMARK    7  A    between atoms: C_11  and  O_16 
REMARK    8  A    between atoms: C_12  and  O_15 
ROOT
HETATM    1  O   UNL     1      12.103   4.222  12.026  1.00  0.00    -0.395 OA
HETATM    2  H   UNL     1      11.599   4.276  12.853  1.00  0.00     0.210 HD
ENDROOT
BRANCH   1   3
HETATM    3  C   UNL     1      11.888   5.407  11.261  1.00  0.00     0.122 C 
BRANCH   3   4
HETATM    4  C   UNL     1      12.241   5.145   9.788  1.00  0.00     0.042 C 
BRANCH   4   5
HETATM    5  C   UNL     1      11.760   6.248   8.842  1.00  0.00     0.116 C 
BRANCH   5   6
HETATM    6  C   UNL     1      12.506   6.369   7.539  1.00  0.00     0.172 C 
HETATM    7  O   UNL     1      13.685   6.662   7.427  1.00  0.00    -0.648 OA
HETATM    8  O   UNL     1      11.793   6.026   6.449  1.00  0.00    -0.648 OA
ENDBRANCH   5   6
ENDBRANCH   4   5
ENDBRANCH   3   4
BRANCH   3   9
HETATM    9  C   UNL     1      12.741   6.556  11.827  1.00  0.00     0.070 C 
BRANCH   9  10
HETATM   10  C   UNL     1      14.215   6.219  11.881  1.00  0.00    -0.053 A 
HETATM   11  C   UNL     1      15.001   6.278  10.720  1.00  0.00     0.046 A 
HETATM   12  C   UNL     1      16.347   5.948  10.785  1.00  0.00     0.099 A 
HETATM   13  C   UNL     1      16.934   5.589  11.994  1.00  0.00     0.098 A 
HETATM   14  C   UNL     1      16.170   5.506  13.148  1.00  0.00     0.040 A 
HETATM   15  C   UNL     1      14.808   5.819  13.092  1.00  0.00     0.010 A 
BRANCH  12  16
HETATM   16  O   UNL     1      17.086   5.948   9.636  1.00  0.00    -0.358 OA
HETATM   17  H   UNL     1      16.999   6.652   9.023  1.00  0.00     0.217 HD
ENDBRANCH  12  16
BRANCH  13  18
HETATM   18  O   UNL     1      18.274   5.341  12.068  1.00  0.00    -0.358 OA
HETATM   19  H   UNL     1      18.662   4.695  11.512  1.00  0.00     0.217 HD
ENDBRANCH  13  18
ENDBRANCH   9  10
ENDBRANCH   3   9
ENDBRANCH   1   3
TORSDOF 8
ENDMDL
MODEL 6
REMARK VINA RESULT:      -6.6      3.642      5.379
REMARK  8 active torsions:
REMARK  status: ('A' for Active; 'I' for Inactive)
REMARK    1  A    between atoms: O_1  and  C_2 
REMARK    2  A    between atoms: C_2  and  C_3 
REMARK    3  A    between atoms: C_2  and  C_8 
REMARK    4  A    between atoms: C_3  and  C_4 
REMARK    5  A    between atoms: C_4  and  C_5 
REMARK    6  A    between atoms: C_8  and  C_9 
REMARK    7  A    between atoms: C_11  and  O_16 
REMARK    8  A    between atoms: C_12  and  O_15 
ROOT
HETATM    1  O   UNL     1      17.036   8.011   9.188  1.00  0.00    -0.395 OA
HETATM    2  H   UNL     1      17.795   8.611   9.257  1.00  0.00     0.210 HD
ENDROOT
BRANCH   1   3
HETATM    3  C   UNL     1      16.839   7.349  10.437  1.00  0.00     0.122 C 
BRANCH   3   4
HETATM    4  C   UNL     1      18.195   6.905  11.009  1.00  0.00     0.042 C 
BRANCH   4   5
HETATM    5  C   UNL     1      18.280   5.399  11.271  1.00  0.00     0.116 C 
BRANCH   5   6
HETATM    6  C   UNL     1      18.615   4.997  12.684  1.00  0.00     0.172 C 
HETATM    7  O   UNL     1      17.924   5.223  13.665  1.00  0.00    -0.648 OA
HETATM    8  O   UNL     1      19.731   4.252  12.806  1.00  0.00    -0.648 OA
ENDBRANCH   5   6
ENDBRANCH   4   5
ENDBRANCH   3   4
BRANCH   3   9
HETATM    9  C   UNL     1      15.908   6.139  10.245  1.00  0.00     0.070 C 
BRANCH   9  10
HETATM   10  C   UNL     1      14.721   6.159  11.183  1.00  0.00    -0.053 A 
HETATM   11  C   UNL     1      13.471   5.684  10.758  1.00  0.00     0.046 A 
HETATM   12  C   UNL     1      12.389   5.726  11.626  1.00  0.00     0.099 A 
HETATM   13  C   UNL     1      12.536   6.208  12.922  1.00  0.00     0.098 A 
HETATM   14  C   UNL     1      13.758   6.701  13.354  1.00  0.00     0.040 A 
HETATM   15  C   UNL     1      14.851   6.679  12.483  1.00  0.00     0.010 A 
BRANCH  12  16
HETATM   16  O   UNL     1      11.164   5.319  11.179  1.00  0.00    -0.358 OA
HETATM   17  H   UNL     1      10.895   4.430  11.297  1.00  0.00     0.217 HD
ENDBRANCH  12  16
BRANCH  13  18
HETATM   18  O   UNL     1      11.489   6.177  13.797  1.00  0.00    -0.358 OA
HETATM   19  H   UNL     1      11.031   6.967  14.008  1.00  0.00     0.217 HD
ENDBRANCH  13  18
ENDBRANCH   9  10
ENDBRANCH   3   9
ENDBRANCH   1   3
TORSDOF 8
ENDMDL
MODEL 7
REMARK VINA RESULT:      -6.5      1.896      2.103
REMARK  8 active torsions:
REMARK  status: ('A' for Active; 'I' for Inactive)
REMARK    1  A    between atoms: O_1  and  C_2 
REMARK    2  A    between atoms: C_2  and  C_3 
REMARK    3  A    between atoms: C_2  and  C_8 
REMARK    4  A    between atoms: C_3  and  C_4 
REMARK    5  A    between atoms: C_4  and  C_5 
REMARK    6  A    between atoms: C_8  and  C_9 
REMARK    7  A    between atoms: C_11  and  O_16 
REMARK    8  A    between atoms: C_12  and  O_15 
ROOT
HETATM    1  O   UNL     1      11.058   4.893  10.935  1.00  0.00    -0.395 OA
HETATM    2  H   UNL     1      10.173   5.291  10.942  1.00  0.00     0.210 HD
ENDROOT
BRANCH   1   3
HETATM    3  C   UNL     1      11.926   5.648  11.780  1.00  0.00     0.122 C 
BRANCH   3   4
HETATM    4  C   UNL     1      12.818   6.562  10.925  1.00  0.00     0.042 C 
BRANCH   4   5
HETATM    5  C   UNL     1      13.979   5.824  10.255  1.00  0.00     0.116 C 
BRANCH   5   6
HETATM    6  C   UNL     1      15.346   6.421  10.465  1.00  0.00     0.172 C 
HETATM    7  O   UNL     1      15.640   7.219  11.340  1.00  0.00    -0.648 OA
HETATM    8  O   UNL     1      16.303   5.934   9.651  1.00  0.00    -0.648 OA
ENDBRANCH   5   6
ENDBRANCH   4   5
ENDBRANCH   3   4
BRANCH   3   9
HETATM    9  C   UNL     1      12.783   4.696  12.632  1.00  0.00     0.070 C 
BRANCH   9  10
HETATM   10  C   UNL     1      13.283   5.340  13.906  1.00  0.00    -0.053 A 
HETATM   11  C   UNL     1      12.377   5.822  14.863  1.00  0.00     0.046 A 
HETATM   12  C   UNL     1      12.853   6.426  16.018  1.00  0.00     0.099 A 
HETATM   13  C   UNL     1      14.220   6.534  16.251  1.00  0.00     0.098 A 
HETATM   14  C   UNL     1      15.132   6.083  15.309  1.00  0.00     0.040 A 
HETATM   15  C   UNL     1      14.663   5.488  14.134  1.00  0.00     0.010 A 
BRANCH  12  16
HETATM   16  O   UNL     1      11.961   6.946  16.911  1.00  0.00    -0.358 OA
HETATM   17  H   UNL     1      11.509   7.743  16.712  1.00  0.00     0.217 HD
ENDBRANCH  12  16
BRANCH  13  18
HETATM   18  O   UNL     1      14.684   7.059  17.423  1.00  0.00    -0.358 OA
HETATM   19  H   UNL     1      14.139   7.060  18.184  1.00  0.00     0.217 HD
ENDBRANCH  13  18
ENDBRANCH   9  10
ENDBRANCH   3   9
ENDBRANCH   1   3
TORSDOF 8
ENDMDL
MODEL 8
REMARK VINA RESULT:      -6.5      3.252      3.712
REMARK  8 active torsions:
REMARK  status: ('A' for Active; 'I' for Inactive)
REMARK    1  A    between atoms: O_1  and  C_2 
REMARK    2  A    between atoms: C_2  and  C_3 
REMARK    3  A    between atoms: C_2  and  C_8 
REMARK    4  A    between atoms: C_3  and  C_4 
REMARK    5  A    between atoms: C_4  and  C_5 
REMARK    6  A    between atoms: C_8  and  C_9 
REMARK    7  A    between atoms: C_11  and  O_16 
REMARK    8  A    between atoms: C_12  and  O_15 
ROOT
HETATM    1  O   UNL     1      14.805   6.053   9.545  1.00  0.00    -0.395 OA
HETATM    2  H   UNL     1      13.906   6.297   9.273  1.00  0.00     0.210 HD
ENDROOT
BRANCH   1   3
HETATM    3  C   UNL     1      15.123   6.705  10.774  1.00  0.00     0.122 C 
BRANCH   3   4
HETATM    4  C   UNL     1      16.431   7.498  10.618  1.00  0.00     0.042 C 
BRANCH   4   5
HETATM    5  C   UNL     1      17.649   6.783  11.206  1.00  0.00     0.116 C 
BRANCH   5   6
HETATM    6  C   UNL     1      18.390   5.866  10.267  1.00  0.00     0.172 C 
HETATM    7  O   UNL     1      18.335   5.912   9.048  1.00  0.00    -0.648 OA
HETATM    8  O   UNL     1      19.235   5.008  10.869  1.00  0.00    -0.648 OA
ENDBRANCH   5   6
ENDBRANCH   4   5
ENDBRANCH   3   4
BRANCH   3   9
HETATM    9  C   UNL     1      15.252   5.663  11.899  1.00  0.00     0.070 C 
BRANCH   9  10
HETATM   10  C   UNL     1      14.440   6.021  13.124  1.00  0.00    -0.053 A 
HETATM   11  C   UNL     1      13.052   6.203  13.030  1.00  0.00     0.046 A 
HETATM   12  C   UNL     1      12.326   6.550  14.160  1.00  0.00     0.099 A 
HETATM   13  C   UNL     1      12.954   6.690  15.393  1.00  0.00     0.098 A 
HETATM   14  C   UNL     1      14.328   6.534  15.503  1.00  0.00     0.040 A 
HETATM   15  C   UNL     1      15.072   6.202  14.367  1.00  0.00     0.010 A 
BRANCH  12  16
HETATM   16  O   UNL     1      10.986   6.786  14.042  1.00  0.00    -0.358 OA
HETATM   17  H   UNL     1      10.636   7.624  14.270  1.00  0.00     0.217 HD
ENDBRANCH  12  16
BRANCH  13  18
HETATM   18  O   UNL     1      12.226   6.955  16.517  1.00  0.00    -0.358 OA
HETATM   19  H   UNL     1      11.677   6.291  16.886  1.00  0.00     0.217 HD
ENDBRANCH  13  18
ENDBRANCH   9  10
ENDBRANCH   3   9
ENDBRANCH   1   3
TORSDOF 8
ENDMDL
MODEL 9
REMARK VINA RESULT:      -6.5      3.191      5.659
REMARK  8 active torsions:
REMARK  status: ('A' for Active; 'I' for Inactive)
REMARK    1  A    between atoms: O_1  and  C_2 
REMARK    2  A    between atoms: C_2  and  C_3 
REMARK    3  A    between atoms: C_2  and  C_8 
REMARK    4  A    between atoms: C_3  and  C_4 
REMARK    5  A    between atoms: C_4  and  C_5 
REMARK    6  A    between atoms: C_8  and  C_9 
REMARK    7  A    between atoms: C_11  and  O_16 
REMARK    8  A    between atoms: C_12  and  O_15 
ROOT
HETATM    1  O   UNL     1      16.489   4.319  14.439  1.00  0.00    -0.395 OA
HETATM    2  H   UNL     1      15.766   4.536  15.048  1.00  0.00     0.210 HD
ENDROOT
BRANCH   1   3
HETATM    3  C   UNL     1      16.379   5.123  13.265  1.00  0.00     0.122 C 
BRANCH   3   4
HETATM    4  C   UNL     1      17.715   5.832  12.994  1.00  0.00     0.042 C 
BRANCH   4   5
HETATM    5  C   UNL     1      18.416   5.341  11.725  1.00  0.00     0.116 C 
BRANCH   5   6
HETATM    6  C   UNL     1      18.185   6.167  10.486  1.00  0.00     0.172 C 
HETATM    7  O   UNL     1      17.957   5.719   9.374  1.00  0.00    -0.648 OA
HETATM    8  O   UNL     1      18.147   7.497  10.695  1.00  0.00    -0.648 OA
ENDBRANCH   5   6
ENDBRANCH   4   5
ENDBRANCH   3   4
BRANCH   3   9
HETATM    9  C   UNL     1      15.245   6.149  13.440  1.00  0.00     0.070 C 
BRANCH   9  10
HETATM   10  C   UNL     1      14.266   6.141  12.287  1.00  0.00    -0.053 A 
HETATM   11  C   UNL     1      14.727   6.101  10.962  1.00  0.00     0.046 A 
HETATM   12  C   UNL     1      13.815   6.113   9.916  1.00  0.00     0.099 A 
HETATM   13  C   UNL     1      12.447   6.134  10.167  1.00  0.00     0.098 A 
HETATM   14  C   UNL     1      11.972   6.193  11.468  1.00  0.00     0.040 A 
HETATM   15  C   UNL     1      12.882   6.200  12.529  1.00  0.00     0.010 A 
BRANCH  12  16
HETATM   16  O   UNL     1      14.279   6.138   8.632  1.00  0.00    -0.358 OA
HETATM   17  H   UNL     1      14.479   5.336   8.191  1.00  0.00     0.217 HD
ENDBRANCH  12  16
BRANCH  13  18
HETATM   18  O   UNL     1      11.553   6.067   9.138  1.00  0.00    -0.358 OA
HETATM   19  H   UNL     1      11.223   6.854   8.751  1.00  0.00     0.217 HD
ENDBRANCH  13  18
ENDBRANCH   9  10
ENDBRANCH   3   9
ENDBRANCH   1   3
TORSDOF 8
ENDMDL
