MODEL 1
REMARK VINA RESULT:      -7.2      0.000      0.000
REMARK  8 active torsions:
REMARK  status: ('A' for Active; 'I' for Inactive)
REMARK    1  A    between atoms: O_1  and  C_2 
REMARK    2  A    between atoms: C_2  and  C_3 
REMARK    3  A    between atoms: C_2  and  C_8 
REMARK    4  A    between atoms: C_3  and  C_4 
REMARK    5  A    between atoms: C_4  and  C_5 
REMARK    6  A    between atoms: C_8  and  C_9 
REMARK    7  A    between atoms: C_11  and  O_16 
REMARK    8  A    between atoms: C_12  and  O_15 
ROOT
HETATM    1  O   UNL     1      21.747  -0.823  31.487  1.00  0.00    -0.395 OA
HETATM    2  H   UNL     1      21.153  -0.226  31.006  1.00  0.00     0.210 HD
ENDROOT
BRANCH   1   3
HETATM    3  C   UNL     1      21.124  -2.098  31.634  1.00  0.00     0.122 C 
BRANCH   3   4
HETATM    4  C   UNL     1      21.468  -2.689  33.010  1.00  0.00     0.042 C 
BRANCH   4   5
HETATM    5  C   UNL     1      21.366  -1.673  34.150  1.00  0.00     0.116 C 
BRANCH   5   6
HETATM    6  C   UNL     1      22.494  -1.693  35.150  1.00  0.00     0.172 C 
HETATM    7  O   UNL     1      23.607  -1.228  34.966  1.00  0.00    -0.648 OA
HETATM    8  O   UNL     1      22.166  -2.193  36.357  1.00  0.00    -0.648 OA
ENDBRANCH   5   6
ENDBRANCH   4   5
ENDBRANCH   3   4
BRANCH   3   9
HETATM    9  C   UNL     1      21.587  -3.038  30.507  1.00  0.00     0.070 C 
BRANCH   9  10
HETATM   10  C   UNL     1      20.685  -2.987  29.294  1.00  0.00    -0.053 A 
HETATM   11  C   UNL     1      20.939  -2.078  28.256  1.00  0.00     0.046 A 
HETATM   12  C   UNL     1      20.091  -2.032  27.159  1.00  0.00     0.099 A 
HETATM   13  C   UNL     1      19.007  -2.898  27.062  1.00  0.00     0.098 A 
HETATM   14  C   UNL     1      18.727  -3.790  28.086  1.00  0.00     0.040 A 
HETATM   15  C   UNL     1      19.565  -3.833  29.205  1.00  0.00     0.010 A 
BRANCH  12  16
HETATM   16  O   UNL     1      20.314  -1.099  26.186  1.00  0.00    -0.358 OA
HETATM   17  H   UNL     1      20.480  -1.372  25.305  1.00  0.00     0.217 HD
ENDBRANCH  12  16
BRANCH  13  18
HETATM   18  O   UNL     1      18.221  -2.903  25.947  1.00  0.00    -0.358 OA
HETATM   19  H   UNL     1      17.300  -2.749  26.022  1.00  0.00     0.217 HD
ENDBRANCH  13  18
ENDBRANCH   9  10
ENDBRANCH   3   9
ENDBRANCH   1   3
TORSDOF 8
ENDMDL
MODEL 2
REMARK VINA RESULT:      -7.1      0.779      1.907
REMARK  8 active torsions:
REMARK  status: ('A' for Active; 'I' for Inactive)
REMARK    1  A    between atoms: O_1  and  C_2 
REMARK    2  A    between atoms: C_2  and  C_3 
REMARK    3  A    between atoms: C_2  and  C_8 
REMARK    4  A    between atoms: C_3  and  C_4 
REMARK    5  A    between atoms: C_4  and  C_5 
REMARK    6  A    between atoms: C_8  and  C_9 
REMARK    7  A    between atoms: C_11  and  O_16 
REMARK    8  A    between atoms: C_12  and  O_15 
ROOT
HETATM    1  O   UNL     1      21.568  -0.851  31.533  1.00  0.00    -0.395 OA
HETATM    2  H   UNL     1      20.873  -0.204  31.730  1.00  0.00     0.210 HD
ENDROOT
BRANCH   1   3
HETATM    3  C   UNL     1      21.068  -2.169  31.754  1.00  0.00     0.122 C 
BRANCH   3   4
HETATM    4  C   UNL     1      21.488  -2.657  33.150  1.00  0.00     0.042 C 
BRANCH   4   5
HETATM    5  C   UNL     1      21.396  -1.572  34.225  1.00  0.00     0.116 C 
BRANCH   5   6
HETATM    6  C   UNL     1      22.419  -1.651  35.329  1.00  0.00     0.172 C 
HETATM    7  O   UNL     1      22.230  -2.139  36.431  1.00  0.00    -0.648 OA
HETATM    8  O   UNL     1      23.648  -1.218  34.987  1.00  0.00    -0.648 OA
ENDBRANCH   5   6
ENDBRANCH   4   5
ENDBRANCH   3   4
BRANCH   3   9
HETATM    9  C   UNL     1      21.598  -3.119  30.665  1.00  0.00     0.070 C 
BRANCH   9  10
HETATM   10  C   UNL     1      20.722  -3.142  29.432  1.00  0.00    -0.053 A 
HETATM   11  C   UNL     1      19.541  -3.899  29.412  1.00  0.00     0.046 A 
HETATM   12  C   UNL     1      18.759  -3.923  28.266  1.00  0.00     0.099 A 
HETATM   13  C   UNL     1      19.118  -3.180  27.146  1.00  0.00     0.098 A 
HETATM   14  C   UNL     1      20.291  -2.441  27.139  1.00  0.00     0.040 A 
HETATM   15  C   UNL     1      21.096  -2.424  28.281  1.00  0.00     0.010 A 
BRANCH  12  16
HETATM   16  O   UNL     1      17.646  -4.714  28.238  1.00  0.00    -0.358 OA
HETATM   17  H   UNL     1      16.897  -4.450  27.741  1.00  0.00     0.217 HD
ENDBRANCH  12  16
BRANCH  13  18
HETATM   18  O   UNL     1      18.307  -3.145  26.048  1.00  0.00    -0.358 OA
HETATM   19  H   UNL     1      17.422  -3.448  26.110  1.00  0.00     0.217 HD
ENDBRANCH  13  18
ENDBRANCH   9  10
ENDBRANCH   3   9
ENDBRANCH   1   3
TORSDOF 8
ENDMDL
MODEL 3
REMARK VINA RESULT:      -6.9      3.549      5.865
REMARK  8 active torsions:
REMARK  status: ('A' for Active; 'I' for Inactive)
REMARK    1  A    between atoms: O_1  and  C_2 
REMARK    2  A    between atoms: C_2  and  C_3 
REMARK    3  A    between atoms: C_2  and  C_8 
REMARK    4  A    between atoms: C_3  and  C_4 
REMARK    5  A    between atoms: C_4  and  C_5 
REMARK    6  A    between atoms: C_8  and  C_9 
REMARK    7  A    between atoms: C_11  and  O_16 
REMARK    8  A    between atoms: C_12  and  O_15 
ROOT
HETATM    1  O   UNL     1      20.390  -2.506  30.879  1.00  0.00    -0.395 OA
HETATM    2  H   UNL     1      20.962  -1.793  30.556  1.00  0.00     0.210 HD
ENDROOT
BRANCH   1   3
HETATM    3  C   UNL     1      21.008  -3.142  31.998  1.00  0.00     0.122 C 
BRANCH   3   4
HETATM    4  C   UNL     1      21.857  -2.120  32.771  1.00  0.00     0.042 C 
BRANCH   4   5
HETATM    5  C   UNL     1      21.465  -1.997  34.245  1.00  0.00     0.116 C 
BRANCH   5   6
HETATM    6  C   UNL     1      22.574  -1.614  35.191  1.00  0.00     0.172 C 
HETATM    7  O   UNL     1      23.668  -1.186  34.857  1.00  0.00    -0.648 OA
HETATM    8  O   UNL     1      22.249  -1.682  36.496  1.00  0.00    -0.648 OA
ENDBRANCH   5   6
ENDBRANCH   4   5
ENDBRANCH   3   4
BRANCH   3   9
HETATM    9  C   UNL     1      21.876  -4.317  31.516  1.00  0.00     0.070 C 
BRANCH   9  10
HETATM   10  C   UNL     1      21.871  -5.482  32.480  1.00  0.00    -0.053 A 
HETATM   11  C   UNL     1      23.046  -6.211  32.721  1.00  0.00     0.046 A 
HETATM   12  C   UNL     1      23.019  -7.288  33.596  1.00  0.00     0.099 A 
HETATM   13  C   UNL     1      21.847  -7.636  34.259  1.00  0.00     0.098 A 
HETATM   14  C   UNL     1      20.672  -6.941  34.019  1.00  0.00     0.040 A 
HETATM   15  C   UNL     1      20.682  -5.865  33.127  1.00  0.00     0.010 A 
BRANCH  12  16
HETATM   16  O   UNL     1      24.154  -8.027  33.773  1.00  0.00    -0.358 OA
HETATM   17  H   UNL     1      24.391  -8.680  33.144  1.00  0.00     0.217 HD
ENDBRANCH  12  16
BRANCH  13  18
HETATM   18  O   UNL     1      21.843  -8.647  35.176  1.00  0.00    -0.358 OA
HETATM   19  H   UNL     1      21.489  -9.484  34.949  1.00  0.00     0.217 HD
ENDBRANCH  13  18
ENDBRANCH   9  10
ENDBRANCH   3   9
ENDBRANCH   1   3
TORSDOF 8
ENDMDL
MODEL 4
REMARK VINA RESULT:      -6.9      2.053      2.416
REMARK  8 active torsions:
REMARK  status: ('A' for Active; 'I' for Inactive)
REMARK    1  A    between atoms: O_1  and  C_2 
REMARK    2  A    between atoms: C_2  and  C_3 
REMARK    3  A    between atoms: C_2  and  C_8 
REMARK    4  A    between atoms: C_3  and  C_4 
REMARK    5  A    between atoms: C_4  and  C_5 
REMARK    6  A    between atoms: C_8  and  C_9 
REMARK    7  A    between atoms: C_11  and  O_16 
REMARK    8  A    between atoms: C_12  and  O_15 
ROOT
HETATM    1  O   UNL     1      21.823  -0.839  31.137  1.00  0.00    -0.395 OA
HETATM    2  H   UNL     1      21.712  -0.211  30.406  1.00  0.00     0.210 HD
ENDROOT
BRANCH   1   3
HETATM    3  C   UNL     1      21.171  -2.067  30.812  1.00  0.00     0.122 C 
BRANCH   3   4
HETATM    4  C   UNL     1      21.356  -3.073  31.960  1.00  0.00     0.042 C 
BRANCH   4   5
HETATM    5  C   UNL     1      21.854  -4.442  31.492  1.00  0.00     0.116 C 
BRANCH   5   6
HETATM    6  C   UNL     1      22.446  -5.326  32.559  1.00  0.00     0.172 C 
HETATM    7  O   UNL     1      22.910  -6.440  32.374  1.00  0.00    -0.648 OA
HETATM    8  O   UNL     1      22.528  -4.758  33.777  1.00  0.00    -0.648 OA
ENDBRANCH   5   6
ENDBRANCH   4   5
ENDBRANCH   3   4
BRANCH   3   9
HETATM    9  C   UNL     1      21.741  -2.630  29.499  1.00  0.00     0.070 C 
BRANCH   9  10
HETATM   10  C   UNL     1      20.745  -2.585  28.361  1.00  0.00    -0.053 A 
HETATM   11  C   UNL     1      21.009  -1.821  27.215  1.00  0.00     0.046 A 
HETATM   12  C   UNL     1      20.076  -1.777  26.188  1.00  0.00     0.099 A 
HETATM   13  C   UNL     1      18.894  -2.506  26.271  1.00  0.00     0.098 A 
HETATM   14  C   UNL     1      18.607  -3.252  27.404  1.00  0.00     0.040 A 
HETATM   15  C   UNL     1      19.531  -3.290  28.452  1.00  0.00     0.010 A 
BRANCH  12  16
HETATM   16  O   UNL     1      20.316  -0.980  25.106  1.00  0.00    -0.358 OA
HETATM   17  H   UNL     1      19.797  -0.213  24.965  1.00  0.00     0.217 HD
ENDBRANCH  12  16
BRANCH  13  18
HETATM   18  O   UNL     1      18.015  -2.523  25.227  1.00  0.00    -0.358 OA
HETATM   19  H   UNL     1      18.324  -2.675  24.356  1.00  0.00     0.217 HD
ENDBRANCH  13  18
ENDBRANCH   9  10
ENDBRANCH   3   9
ENDBRANCH   1   3
TORSDOF 8
ENDMDL
MODEL 5
REMARK VINA RESULT:      -6.9      1.404      2.271
REMARK  8 active torsions:
REMARK  status: ('A' for Active; 'I' for Inactive)
REMARK    1  A    between atoms: O_1  and  C_2 
REMARK    2  A    between atoms: C_2  and  C_3 
REMARK    3  A    between atoms: C_2  and  C_8 
REMARK    4  A    between atoms: C_3  and  C_4 
REMARK    5  A    between atoms: C_4  and  C_5 
REMARK    6  A    between atoms: C_8  and  C_9 
REMARK    7  A    between atoms: C_11  and  O_16 
REMARK    8  A    between atoms: C_12  and  O_15 
ROOT
HETATM    1  O   UNL     1      21.896  -4.248  31.337  1.00  0.00    -0.395 OA
HETATM    2  H   UNL     1      22.817  -3.988  31.500  1.00  0.00     0.210 HD
ENDROOT
BRANCH   1   3
HETATM    3  C   UNL     1      21.202  -3.170  30.711  1.00  0.00     0.122 C 
BRANCH   3   4
HETATM    4  C   UNL     1      20.521  -2.300  31.780  1.00  0.00     0.042 C 
BRANCH   4   5
HETATM    5  C   UNL     1      21.512  -1.556  32.679  1.00  0.00     0.116 C 
BRANCH   5   6
HETATM    6  C   UNL     1      21.796  -2.196  34.014  1.00  0.00     0.172 C 
HETATM    7  O   UNL     1      22.215  -3.330  34.177  1.00  0.00    -0.648 OA
HETATM    8  O   UNL     1      21.644  -1.377  35.072  1.00  0.00    -0.648 OA
ENDBRANCH   5   6
ENDBRANCH   4   5
ENDBRANCH   3   4
BRANCH   3   9
HETATM    9  C   UNL     1      20.163  -3.723  29.719  1.00  0.00     0.070 C 
BRANCH   9  10
HETATM   10  C   UNL     1      20.152  -2.975  28.405  1.00  0.00    -0.053 A 
HETATM   11  C   UNL     1      19.047  -3.065  27.545  1.00  0.00     0.046 A 
HETATM   12  C   UNL     1      19.061  -2.386  26.335  1.00  0.00     0.099 A 
HETATM   13  C   UNL     1      20.147  -1.594  25.977  1.00  0.00     0.098 A 
HETATM   14  C   UNL     1      21.257  -1.508  26.804  1.00  0.00     0.040 A 
HETATM   15  C   UNL     1      21.261  -2.202  28.018  1.00  0.00     0.010 A 
BRANCH  12  16
HETATM   16  O   UNL     1      18.007  -2.532  25.479  1.00  0.00    -0.358 OA
HETATM   17  H   UNL     1      17.145  -2.672  25.818  1.00  0.00     0.217 HD
ENDBRANCH  12  16
BRANCH  13  18
HETATM   18  O   UNL     1      20.125  -0.867  24.822  1.00  0.00    -0.358 OA
HETATM   19  H   UNL     1      20.791  -0.228  24.658  1.00  0.00     0.217 HD
ENDBRANCH  13  18
ENDBRANCH   9  10
ENDBRANCH   3   9
ENDBRANCH   1   3
TORSDOF 8
ENDMDL
MODEL 6
REMARK VINA RESULT:      -6.8      1.477      6.732
REMARK  8 active torsions:
REMARK  status: ('A' for Active; 'I' for Inactive)
REMARK    1  A    between atoms: O_1  and  C_2 
REMARK    2  A    between atoms: C_2  and  C_3 
REMARK    3  A    between atoms: C_2  and  C_8 
REMARK    4  A    between atoms: C_3  and  C_4 
REMARK    5  A    between atoms: C_4  and  C_5 
REMARK    6  A    between atoms: C_8  and  C_9 
REMARK    7  A    between atoms: C_11  and  O_16 
REMARK    8  A    between atoms: C_12  and  O_15 
ROOT
HETATM    1  O   UNL     1      18.383  -3.688  28.768  1.00  0.00    -0.395 OA
HETATM    2  H   UNL     1      18.115  -2.996  28.144  1.00  0.00     0.210 HD
ENDROOT
BRANCH   1   3
HETATM    3  C   UNL     1      19.739  -3.475  29.161  1.00  0.00     0.122 C 
BRANCH   3   4
HETATM    4  C   UNL     1      20.643  -3.455  27.918  1.00  0.00     0.042 C 
BRANCH   4   5
HETATM    5  C   UNL     1      20.835  -2.055  27.331  1.00  0.00     0.116 C 
BRANCH   5   6
HETATM    6  C   UNL     1      19.906  -1.682  26.204  1.00  0.00     0.172 C 
HETATM    7  O   UNL     1      20.255  -1.372  25.076  1.00  0.00    -0.648 OA
HETATM    8  O   UNL     1      18.596  -1.805  26.492  1.00  0.00    -0.648 OA
ENDBRANCH   5   6
ENDBRANCH   4   5
ENDBRANCH   3   4
BRANCH   3   9
HETATM    9  C   UNL     1      20.180  -4.582  30.135  1.00  0.00     0.070 C 
BRANCH   9  10
HETATM   10  C   UNL     1      20.856  -4.036  31.374  1.00  0.00    -0.053 A 
HETATM   11  C   UNL     1      20.913  -2.653  31.602  1.00  0.00     0.046 A 
HETATM   12  C   UNL     1      21.553  -2.169  32.734  1.00  0.00     0.099 A 
HETATM   13  C   UNL     1      22.112  -3.042  33.661  1.00  0.00     0.098 A 
HETATM   14  C   UNL     1      22.083  -4.411  33.445  1.00  0.00     0.040 A 
HETATM   15  C   UNL     1      21.456  -4.909  32.299  1.00  0.00     0.010 A 
BRANCH  12  16
HETATM   16  O   UNL     1      21.658  -0.819  32.911  1.00  0.00    -0.358 OA
HETATM   17  H   UNL     1      22.438  -0.372  32.651  1.00  0.00     0.217 HD
ENDBRANCH  12  16
BRANCH  13  18
HETATM   18  O   UNL     1      22.672  -2.566  34.812  1.00  0.00    -0.358 OA
HETATM   19  H   UNL     1      22.297  -1.824  35.243  1.00  0.00     0.217 HD
ENDBRANCH  13  18
ENDBRANCH   9  10
ENDBRANCH   3   9
ENDBRANCH   1   3
TORSDOF 8
ENDMDL
MODEL 7
REMARK VINA RESULT:      -6.7      3.121      6.456
REMARK  8 active torsions:
REMARK  status: ('A' for Active; 'I' for Inactive)
REMARK    1  A    between atoms: O_1  and  C_2 
REMARK    2  A    between atoms: C_2  and  C_3 
REMARK    3  A    between atoms: C_2  and  C_8 
REMARK    4  A    between atoms: C_3  and  C_4 
REMARK    5  A    between atoms: C_4  and  C_5 
REMARK    6  A    between atoms: C_8  and  C_9 
REMARK    7  A    between atoms: C_11  and  O_16 
REMARK    8  A    between atoms: C_12  and  O_15 
ROOT
HETATM    1  O   UNL     1      21.656  -0.871  31.569  1.00  0.00    -0.395 OA
HETATM    2  H   UNL     1      21.668  -0.324  30.768  1.00  0.00     0.210 HD
ENDROOT
BRANCH   1   3
HETATM    3  C   UNL     1      21.168  -2.173  31.248  1.00  0.00     0.122 C 
BRANCH   3   4
HETATM    4  C   UNL     1      19.766  -2.065  30.627  1.00  0.00     0.042 C 
BRANCH   4   5
HETATM    5  C   UNL     1      19.520  -3.076  29.505  1.00  0.00     0.116 C 
BRANCH   5   6
HETATM    6  C   UNL     1      19.575  -2.528  28.102  1.00  0.00     0.172 C 
HETATM    7  O   UNL     1      18.610  -2.344  27.379  1.00  0.00    -0.648 OA
HETATM    8  O   UNL     1      20.801  -2.143  27.698  1.00  0.00    -0.648 OA
ENDBRANCH   5   6
ENDBRANCH   4   5
ENDBRANCH   3   4
BRANCH   3   9
HETATM    9  C   UNL     1      21.135  -3.045  32.516  1.00  0.00     0.070 C 
BRANCH   9  10
HETATM   10  C   UNL     1      21.809  -4.385  32.322  1.00  0.00    -0.053 A 
HETATM   11  C   UNL     1      22.367  -5.065  33.416  1.00  0.00     0.046 A 
HETATM   12  C   UNL     1      22.998  -6.285  33.218  1.00  0.00     0.099 A 
HETATM   13  C   UNL     1      23.057  -6.856  31.951  1.00  0.00     0.098 A 
HETATM   14  C   UNL     1      22.529  -6.191  30.854  1.00  0.00     0.040 A 
HETATM   15  C   UNL     1      21.907  -4.954  31.039  1.00  0.00     0.010 A 
BRANCH  12  16
HETATM   16  O   UNL     1      23.592  -6.905  34.279  1.00  0.00    -0.358 OA
HETATM   17  H   UNL     1      23.157  -6.933  35.109  1.00  0.00     0.217 HD
ENDBRANCH  12  16
BRANCH  13  18
HETATM   18  O   UNL     1      23.609  -8.092  31.772  1.00  0.00    -0.358 OA
HETATM   19  H   UNL     1      23.897  -8.358  30.921  1.00  0.00     0.217 HD
ENDBRANCH  13  18
ENDBRANCH   9  10
ENDBRANCH   3   9
ENDBRANCH   1   3
TORSDOF 8
ENDMDL
MODEL 8
REMARK VINA RESULT:      -6.7      3.607      5.727
REMARK  8 active torsions:
REMARK  status: ('A' for Active; 'I' for Inactive)
REMARK    1  A    between atoms: O_1  and  C_2 
REMARK    2  A    between atoms: C_2  and  C_3 
REMARK    3  A    between atoms: C_2  and  C_8 
REMARK    4  A    between atoms: C_3  and  C_4 
REMARK    5  A    between atoms: C_4  and  C_5 
REMARK    6  A    between atoms: C_8  and  C_9 
REMARK    7  A    between atoms: C_11  and  O_16 
REMARK    8  A    between atoms: C_12  and  O_15 
ROOT
HETATM    1  O   UNL     1      22.052  -6.588  29.100  1.00  0.00    -0.395 OA
HETATM    2  H   UNL     1      22.583  -7.389  28.976  1.00  0.00     0.210 HD
ENDROOT
BRANCH   1   3
HETATM    3  C   UNL     1      22.098  -6.192  30.470  1.00  0.00     0.122 C 
BRANCH   3   4
HETATM    4  C   UNL     1      22.075  -7.438  31.371  1.00  0.00     0.042 C 
BRANCH   4   5
HETATM    5  C   UNL     1      23.250  -7.501  32.350  1.00  0.00     0.116 C 
BRANCH   5   6
HETATM    6  C   UNL     1      22.885  -7.588  33.809  1.00  0.00     0.172 C 
HETATM    7  O   UNL     1      21.854  -8.070  34.251  1.00  0.00    -0.648 OA
HETATM    8  O   UNL     1      23.846  -7.169  34.655  1.00  0.00    -0.648 OA
ENDBRANCH   5   6
ENDBRANCH   4   5
ENDBRANCH   3   4
BRANCH   3   9
HETATM    9  C   UNL     1      20.908  -5.270  30.788  1.00  0.00     0.070 C 
BRANCH   9  10
HETATM   10  C   UNL     1      21.285  -4.121  31.697  1.00  0.00    -0.053 A 
HETATM   11  C   UNL     1      21.215  -2.798  31.237  1.00  0.00     0.046 A 
HETATM   12  C   UNL     1      21.581  -1.757  32.078  1.00  0.00     0.099 A 
HETATM   13  C   UNL     1      21.989  -2.009  33.384  1.00  0.00     0.098 A 
HETATM   14  C   UNL     1      22.084  -3.311  33.851  1.00  0.00     0.040 A 
HETATM   15  C   UNL     1      21.734  -4.369  33.007  1.00  0.00     0.010 A 
BRANCH  12  16
HETATM   16  O   UNL     1      21.569  -0.479  31.597  1.00  0.00    -0.358 OA
HETATM   17  H   UNL     1      22.375  -0.050  31.388  1.00  0.00     0.217 HD
ENDBRANCH  12  16
BRANCH  13  18
HETATM   18  O   UNL     1      22.274  -0.979  34.233  1.00  0.00    -0.358 OA
HETATM   19  H   UNL     1      22.865  -1.111  34.948  1.00  0.00     0.217 HD
ENDBRANCH  13  18
ENDBRANCH   9  10
ENDBRANCH   3   9
ENDBRANCH   1   3
TORSDOF 8
ENDMDL
MODEL 9
REMARK VINA RESULT:      -6.5      4.943      6.872
REMARK  8 active torsions:
REMARK  status: ('A' for Active; 'I' for Inactive)
REMARK    1  A    between atoms: O_1  and  C_2 
REMARK    2  A    between atoms: C_2  and  C_3 
REMARK    3  A    between atoms: C_2  and  C_8 
REMARK    4  A    between atoms: C_3  and  C_4 
REMARK    5  A    between atoms: C_4  and  C_5 
REMARK    6  A    between atoms: C_8  and  C_9 
REMARK    7  A    between atoms: C_11  and  O_16 
REMARK    8  A    between atoms: C_12  and  O_15 
ROOT
HETATM    1  O   UNL     1      22.229  -7.321  29.631  1.00  0.00    -0.395 OA
HETATM    2  H   UNL     1      22.433  -8.269  29.609  1.00  0.00     0.210 HD
ENDROOT
BRANCH   1   3
HETATM    3  C   UNL     1      22.768  -6.746  30.820  1.00  0.00     0.122 C 
BRANCH   3   4
HETATM    4  C   UNL     1      23.722  -7.745  31.494  1.00  0.00     0.042 C 
BRANCH   4   5
HETATM    5  C   UNL     1      24.581  -8.529  30.499  1.00  0.00     0.116 C 
BRANCH   5   6
HETATM    6  C   UNL     1      25.793  -9.216  31.076  1.00  0.00     0.172 C 
HETATM    7  O   UNL     1      26.816  -9.471  30.463  1.00  0.00    -0.648 OA
HETATM    8  O   UNL     1      25.721  -9.464  32.398  1.00  0.00    -0.648 OA
ENDBRANCH   5   6
ENDBRANCH   4   5
ENDBRANCH   3   4
BRANCH   3   9
HETATM    9  C   UNL     1      21.626  -6.356  31.776  1.00  0.00     0.070 C 
BRANCH   9  10
HETATM   10  C   UNL     1      21.618  -4.881  32.108  1.00  0.00    -0.053 A 
HETATM   11  C   UNL     1      22.066  -4.431  33.360  1.00  0.00     0.046 A 
HETATM   12  C   UNL     1      22.035  -3.076  33.655  1.00  0.00     0.099 A 
HETATM   13  C   UNL     1      21.593  -2.154  32.712  1.00  0.00     0.098 A 
HETATM   14  C   UNL     1      21.128  -2.579  31.477  1.00  0.00     0.040 A 
HETATM   15  C   UNL     1      21.138  -3.944  31.175  1.00  0.00     0.010 A 
BRANCH  12  16
HETATM   16  O   UNL     1      22.414  -2.658  34.899  1.00  0.00    -0.358 OA
HETATM   17  H   UNL     1      21.896  -2.884  35.646  1.00  0.00     0.217 HD
ENDBRANCH  12  16
BRANCH  13  18
HETATM   18  O   UNL     1      21.637  -0.816  32.977  1.00  0.00    -0.358 OA
HETATM   19  H   UNL     1      21.671  -0.514  33.864  1.00  0.00     0.217 HD
ENDBRANCH  13  18
ENDBRANCH   9  10
ENDBRANCH   3   9
ENDBRANCH   1   3
TORSDOF 8
ENDMDL
