MODEL 1
REMARK VINA RESULT:      -7.2      0.000      0.000
REMARK  8 active torsions:
REMARK  status: ('A' for Active; 'I' for Inactive)
REMARK    1  A    between atoms: O_1  and  C_2 
REMARK    2  A    between atoms: C_2  and  C_3 
REMARK    3  A    between atoms: C_2  and  C_8 
REMARK    4  A    between atoms: C_3  and  C_4 
REMARK    5  A    between atoms: C_4  and  C_5 
REMARK    6  A    between atoms: C_8  and  C_9 
REMARK    7  A    between atoms: C_11  and  O_16 
REMARK    8  A    between atoms: C_12  and  O_15 
ROOT
HETATM    1  O   UNL     1      21.703  -0.876  31.408  1.00  0.00    -0.395 OA
HETATM    2  H   UNL     1      22.356  -0.662  32.093  1.00  0.00     0.210 HD
ENDROOT
BRANCH   1   3
HETATM    3  C   UNL     1      21.162  -2.173  31.657  1.00  0.00     0.122 C 
BRANCH   3   4
HETATM    4  C   UNL     1      21.630  -2.676  33.032  1.00  0.00     0.042 C 
BRANCH   4   5
HETATM    5  C   UNL     1      21.384  -1.673  34.161  1.00  0.00     0.116 C 
BRANCH   5   6
HETATM    6  C   UNL     1      22.384  -1.694  35.289  1.00  0.00     0.172 C 
HETATM    7  O   UNL     1      22.184  -2.159  36.399  1.00  0.00    -0.648 OA
HETATM    8  O   UNL     1      23.607  -1.235  34.963  1.00  0.00    -0.648 OA
ENDBRANCH   5   6
ENDBRANCH   4   5
ENDBRANCH   3   4
BRANCH   3   9
HETATM    9  C   UNL     1      21.599  -3.144  30.546  1.00  0.00     0.070 C 
BRANCH   9  10
HETATM   10  C   UNL     1      20.727  -3.054  29.313  1.00  0.00    -0.053 A 
HETATM   11  C   UNL     1      21.095  -2.228  28.240  1.00  0.00     0.046 A 
HETATM   12  C   UNL     1      20.274  -2.144  27.125  1.00  0.00     0.099 A 
HETATM   13  C   UNL     1      19.104  -2.892  27.046  1.00  0.00     0.098 A 
HETATM   14  C   UNL     1      18.713  -3.698  28.104  1.00  0.00     0.040 A 
HETATM   15  C   UNL     1      19.523  -3.778  29.240  1.00  0.00     0.010 A 
BRANCH  12  16
HETATM   16  O   UNL     1      20.612  -1.289  26.115  1.00  0.00    -0.358 OA
HETATM   17  H   UNL     1      20.675  -1.605  25.235  1.00  0.00     0.217 HD
ENDBRANCH  12  16
BRANCH  13  18
HETATM   18  O   UNL     1      18.339  -2.866  25.916  1.00  0.00    -0.358 OA
HETATM   19  H   UNL     1      18.265  -2.075  25.418  1.00  0.00     0.217 HD
ENDBRANCH  13  18
ENDBRANCH   9  10
ENDBRANCH   3   9
ENDBRANCH   1   3
TORSDOF 8
ENDMDL
MODEL 2
REMARK VINA RESULT:      -6.9      1.411      2.273
REMARK  8 active torsions:
REMARK  status: ('A' for Active; 'I' for Inactive)
REMARK    1  A    between atoms: O_1  and  C_2 
REMARK    2  A    between atoms: C_2  and  C_3 
REMARK    3  A    between atoms: C_2  and  C_8 
REMARK    4  A    between atoms: C_3  and  C_4 
REMARK    5  A    between atoms: C_4  and  C_5 
REMARK    6  A    between atoms: C_8  and  C_9 
REMARK    7  A    between atoms: C_11  and  O_16 
REMARK    8  A    between atoms: C_12  and  O_15 
ROOT
HETATM    1  O   UNL     1      21.683  -4.353  31.384  1.00  0.00    -0.395 OA
HETATM    2  H   UNL     1      21.048  -5.086  31.377  1.00  0.00     0.210 HD
ENDROOT
BRANCH   1   3
HETATM    3  C   UNL     1      21.100  -3.211  30.758  1.00  0.00     0.122 C 
BRANCH   3   4
HETATM    4  C   UNL     1      20.540  -2.260  31.829  1.00  0.00     0.042 C 
BRANCH   4   5
HETATM    5  C   UNL     1      21.628  -1.552  32.640  1.00  0.00     0.116 C 
BRANCH   5   6
HETATM    6  C   UNL     1      21.980  -2.186  33.961  1.00  0.00     0.172 C 
HETATM    7  O   UNL     1      22.212  -3.372  34.134  1.00  0.00    -0.648 OA
HETATM    8  O   UNL     1      22.126  -1.318  34.980  1.00  0.00    -0.648 OA
ENDBRANCH   5   6
ENDBRANCH   4   5
ENDBRANCH   3   4
BRANCH   3   9
HETATM    9  C   UNL     1      19.988  -3.656  29.792  1.00  0.00     0.070 C 
BRANCH   9  10
HETATM   10  C   UNL     1      20.043  -2.934  28.464  1.00  0.00    -0.053 A 
HETATM   11  C   UNL     1      18.968  -3.015  27.566  1.00  0.00     0.046 A 
HETATM   12  C   UNL     1      19.043  -2.362  26.344  1.00  0.00     0.099 A 
HETATM   13  C   UNL     1      20.160  -1.603  26.011  1.00  0.00     0.098 A 
HETATM   14  C   UNL     1      21.241  -1.527  26.877  1.00  0.00     0.040 A 
HETATM   15  C   UNL     1      21.184  -2.195  28.103  1.00  0.00     0.010 A 
BRANCH  12  16
HETATM   16  O   UNL     1      18.017  -2.500  25.453  1.00  0.00    -0.358 OA
HETATM   17  H   UNL     1      17.396  -1.807  25.342  1.00  0.00     0.217 HD
ENDBRANCH  12  16
BRANCH  13  18
HETATM   18  O   UNL     1      20.197  -0.899  24.843  1.00  0.00    -0.358 OA
HETATM   19  H   UNL     1      19.399  -0.651  24.420  1.00  0.00     0.217 HD
ENDBRANCH  13  18
ENDBRANCH   9  10
ENDBRANCH   3   9
ENDBRANCH   1   3
TORSDOF 8
ENDMDL
MODEL 3
REMARK VINA RESULT:      -6.9      2.050      2.426
REMARK  8 active torsions:
REMARK  status: ('A' for Active; 'I' for Inactive)
REMARK    1  A    between atoms: O_1  and  C_2 
REMARK    2  A    between atoms: C_2  and  C_3 
REMARK    3  A    between atoms: C_2  and  C_8 
REMARK    4  A    between atoms: C_3  and  C_4 
REMARK    5  A    between atoms: C_4  and  C_5 
REMARK    6  A    between atoms: C_8  and  C_9 
REMARK    7  A    between atoms: C_11  and  O_16 
REMARK    8  A    between atoms: C_12  and  O_15 
ROOT
HETATM    1  O   UNL     1      21.715  -0.851  31.338  1.00  0.00    -0.395 OA
HETATM    2  H   UNL     1      22.297  -0.594  30.606  1.00  0.00     0.210 HD
ENDROOT
BRANCH   1   3
HETATM    3  C   UNL     1      21.132  -2.124  31.059  1.00  0.00     0.122 C 
BRANCH   3   4
HETATM    4  C   UNL     1      21.379  -3.078  32.239  1.00  0.00     0.042 C 
BRANCH   4   5
HETATM    5  C   UNL     1      21.480  -4.547  31.820  1.00  0.00     0.116 C 
BRANCH   5   6
HETATM    6  C   UNL     1      22.455  -5.387  32.604  1.00  0.00     0.172 C 
HETATM    7  O   UNL     1      22.710  -5.250  33.789  1.00  0.00    -0.648 OA
HETATM    8  O   UNL     1      22.992  -6.414  31.916  1.00  0.00    -0.648 OA
ENDBRANCH   5   6
ENDBRANCH   4   5
ENDBRANCH   3   4
BRANCH   3   9
HETATM    9  C   UNL     1      21.729  -2.698  29.762  1.00  0.00     0.070 C 
BRANCH   9  10
HETATM   10  C   UNL     1      20.756  -2.661  28.604  1.00  0.00    -0.053 A 
HETATM   11  C   UNL     1      21.016  -1.859  27.482  1.00  0.00     0.046 A 
HETATM   12  C   UNL     1      20.104  -1.824  26.437  1.00  0.00     0.099 A 
HETATM   13  C   UNL     1      18.949  -2.597  26.476  1.00  0.00     0.098 A 
HETATM   14  C   UNL     1      18.665  -3.381  27.584  1.00  0.00     0.040 A 
HETATM   15  C   UNL     1      19.567  -3.411  28.651  1.00  0.00     0.010 A 
BRANCH  12  16
HETATM   16  O   UNL     1      20.338  -0.991  25.380  1.00  0.00    -0.358 OA
HETATM   17  H   UNL     1      21.157  -1.031  24.926  1.00  0.00     0.217 HD
ENDBRANCH  12  16
BRANCH  13  18
HETATM   18  O   UNL     1      18.093  -2.620  25.413  1.00  0.00    -0.358 OA
HETATM   19  H   UNL     1      18.367  -2.994  24.598  1.00  0.00     0.217 HD
ENDBRANCH  13  18
ENDBRANCH   9  10
ENDBRANCH   3   9
ENDBRANCH   1   3
TORSDOF 8
ENDMDL
MODEL 4
REMARK VINA RESULT:      -6.9      3.567      5.783
REMARK  8 active torsions:
REMARK  status: ('A' for Active; 'I' for Inactive)
REMARK    1  A    between atoms: O_1  and  C_2 
REMARK    2  A    between atoms: C_2  and  C_3 
REMARK    3  A    between atoms: C_2  and  C_8 
REMARK    4  A    between atoms: C_3  and  C_4 
REMARK    5  A    between atoms: C_4  and  C_5 
REMARK    6  A    between atoms: C_8  and  C_9 
REMARK    7  A    between atoms: C_11  and  O_16 
REMARK    8  A    between atoms: C_12  and  O_15 
ROOT
HETATM    1  O   UNL     1      22.286  -6.058  28.958  1.00  0.00    -0.395 OA
HETATM    2  H   UNL     1      21.355  -6.088  28.686  1.00  0.00     0.210 HD
ENDROOT
BRANCH   1   3
HETATM    3  C   UNL     1      22.362  -5.996  30.382  1.00  0.00     0.122 C 
BRANCH   3   4
HETATM    4  C   UNL     1      22.526  -7.412  30.956  1.00  0.00     0.042 C 
BRANCH   4   5
HETATM    5  C   UNL     1      23.543  -7.491  32.097  1.00  0.00     0.116 C 
BRANCH   5   6
HETATM    6  C   UNL     1      22.967  -7.603  33.485  1.00  0.00     0.172 C 
HETATM    7  O   UNL     1      23.582  -7.409  34.521  1.00  0.00    -0.648 OA
HETATM    8  O   UNL     1      21.644  -7.851  33.525  1.00  0.00    -0.648 OA
ENDBRANCH   5   6
ENDBRANCH   4   5
ENDBRANCH   3   4
BRANCH   3   9
HETATM    9  C   UNL     1      21.097  -5.324  30.944  1.00  0.00     0.070 C 
BRANCH   9  10
HETATM   10  C   UNL     1      21.409  -4.150  31.846  1.00  0.00    -0.053 A 
HETATM   11  C   UNL     1      21.314  -2.837  31.362  1.00  0.00     0.046 A 
HETATM   12  C   UNL     1      21.621  -1.773  32.198  1.00  0.00     0.099 A 
HETATM   13  C   UNL     1      21.994  -1.992  33.520  1.00  0.00     0.098 A 
HETATM   14  C   UNL     1      22.112  -3.283  34.011  1.00  0.00     0.040 A 
HETATM   15  C   UNL     1      21.822  -4.364  33.173  1.00  0.00     0.010 A 
BRANCH  12  16
HETATM   16  O   UNL     1      21.585  -0.503  31.696  1.00  0.00    -0.358 OA
HETATM   17  H   UNL     1      21.564  -0.366  30.769  1.00  0.00     0.217 HD
ENDBRANCH  12  16
BRANCH  13  18
HETATM   18  O   UNL     1      22.219  -0.941  34.361  1.00  0.00    -0.358 OA
HETATM   19  H   UNL     1      22.992  -0.922  34.890  1.00  0.00     0.217 HD
ENDBRANCH  13  18
ENDBRANCH   9  10
ENDBRANCH   3   9
ENDBRANCH   1   3
TORSDOF 8
ENDMDL
MODEL 5
REMARK VINA RESULT:      -6.9      1.540      6.830
REMARK  8 active torsions:
REMARK  status: ('A' for Active; 'I' for Inactive)
REMARK    1  A    between atoms: O_1  and  C_2 
REMARK    2  A    between atoms: C_2  and  C_3 
REMARK    3  A    between atoms: C_2  and  C_8 
REMARK    4  A    between atoms: C_3  and  C_4 
REMARK    5  A    between atoms: C_4  and  C_5 
REMARK    6  A    between atoms: C_8  and  C_9 
REMARK    7  A    between atoms: C_11  and  O_16 
REMARK    8  A    between atoms: C_12  and  O_15 
ROOT
HETATM    1  O   UNL     1      18.438  -3.479  29.133  1.00  0.00    -0.395 OA
HETATM    2  H   UNL     1      18.031  -3.910  29.901  1.00  0.00     0.210 HD
ENDROOT
BRANCH   1   3
HETATM    3  C   UNL     1      19.850  -3.407  29.321  1.00  0.00     0.122 C 
BRANCH   3   4
HETATM    4  C   UNL     1      20.562  -3.509  27.962  1.00  0.00     0.042 C 
BRANCH   4   5
HETATM    5  C   UNL     1      20.848  -2.148  27.323  1.00  0.00     0.116 C 
BRANCH   5   6
HETATM    6  C   UNL     1      19.883  -1.709  26.251  1.00  0.00     0.172 C 
HETATM    7  O   UNL     1      20.188  -1.404  25.110  1.00  0.00    -0.648 OA
HETATM    8  O   UNL     1      18.585  -1.764  26.608  1.00  0.00    -0.648 OA
ENDBRANCH   5   6
ENDBRANCH   4   5
ENDBRANCH   3   4
BRANCH   3   9
HETATM    9  C   UNL     1      20.311  -4.535  30.261  1.00  0.00     0.070 C 
BRANCH   9  10
HETATM   10  C   UNL     1      20.972  -4.016  31.518  1.00  0.00    -0.053 A 
HETATM   11  C   UNL     1      21.013  -2.638  31.784  1.00  0.00     0.046 A 
HETATM   12  C   UNL     1      21.640  -2.178  32.933  1.00  0.00     0.099 A 
HETATM   13  C   UNL     1      22.203  -3.070  33.840  1.00  0.00     0.098 A 
HETATM   14  C   UNL     1      22.191  -4.433  33.586  1.00  0.00     0.040 A 
HETATM   15  C   UNL     1      21.577  -4.907  32.423  1.00  0.00     0.010 A 
BRANCH  12  16
HETATM   16  O   UNL     1      21.728  -0.833  33.148  1.00  0.00    -0.358 OA
HETATM   17  H   UNL     1      22.291  -0.309  32.612  1.00  0.00     0.217 HD
ENDBRANCH  12  16
BRANCH  13  18
HETATM   18  O   UNL     1      22.750  -2.619  35.007  1.00  0.00    -0.358 OA
HETATM   19  H   UNL     1      22.980  -3.227  35.682  1.00  0.00     0.217 HD
ENDBRANCH  13  18
ENDBRANCH   9  10
ENDBRANCH   3   9
ENDBRANCH   1   3
TORSDOF 8
ENDMDL
MODEL 6
REMARK VINA RESULT:      -6.9      3.262      5.674
REMARK  8 active torsions:
REMARK  status: ('A' for Active; 'I' for Inactive)
REMARK    1  A    between atoms: O_1  and  C_2 
REMARK    2  A    between atoms: C_2  and  C_3 
REMARK    3  A    between atoms: C_2  and  C_8 
REMARK    4  A    between atoms: C_3  and  C_4 
REMARK    5  A    between atoms: C_4  and  C_5 
REMARK    6  A    between atoms: C_8  and  C_9 
REMARK    7  A    between atoms: C_11  and  O_16 
REMARK    8  A    between atoms: C_12  and  O_15 
ROOT
HETATM    1  O   UNL     1      20.426  -1.949  31.076  1.00  0.00    -0.395 OA
HETATM    2  H   UNL     1      20.497  -1.007  31.299  1.00  0.00     0.210 HD
ENDROOT
BRANCH   1   3
HETATM    3  C   UNL     1      20.966  -2.732  32.139  1.00  0.00     0.122 C 
BRANCH   3   4
HETATM    4  C   UNL     1      21.881  -1.861  33.014  1.00  0.00     0.042 C 
BRANCH   4   5
HETATM    5  C   UNL     1      21.460  -1.823  34.485  1.00  0.00     0.116 C 
BRANCH   5   6
HETATM    6  C   UNL     1      22.513  -1.359  35.458  1.00  0.00     0.172 C 
HETATM    7  O   UNL     1      22.370  -1.284  36.668  1.00  0.00    -0.648 OA
HETATM    8  O   UNL     1      23.715  -1.108  34.907  1.00  0.00    -0.648 OA
ENDBRANCH   5   6
ENDBRANCH   4   5
ENDBRANCH   3   4
BRANCH   3   9
HETATM    9  C   UNL     1      21.743  -3.929  31.564  1.00  0.00     0.070 C 
BRANCH   9  10
HETATM   10  C   UNL     1      21.757  -5.121  32.495  1.00  0.00    -0.053 A 
HETATM   11  C   UNL     1      22.968  -5.605  33.012  1.00  0.00     0.046 A 
HETATM   12  C   UNL     1      22.964  -6.710  33.851  1.00  0.00     0.099 A 
HETATM   13  C   UNL     1      21.770  -7.326  34.209  1.00  0.00     0.098 A 
HETATM   14  C   UNL     1      20.564  -6.875  33.693  1.00  0.00     0.040 A 
HETATM   15  C   UNL     1      20.558  -5.773  32.833  1.00  0.00     0.010 A 
BRANCH  12  16
HETATM   16  O   UNL     1      24.155  -7.210  34.296  1.00  0.00    -0.358 OA
HETATM   17  H   UNL     1      24.378  -8.105  34.131  1.00  0.00     0.217 HD
ENDBRANCH  12  16
BRANCH  13  18
HETATM   18  O   UNL     1      21.763  -8.364  35.096  1.00  0.00    -0.358 OA
HETATM   19  H   UNL     1      21.203  -9.101  34.949  1.00  0.00     0.217 HD
ENDBRANCH  13  18
ENDBRANCH   9  10
ENDBRANCH   3   9
ENDBRANCH   1   3
TORSDOF 8
ENDMDL
MODEL 7
REMARK VINA RESULT:      -6.8      2.143      2.936
REMARK  8 active torsions:
REMARK  status: ('A' for Active; 'I' for Inactive)
REMARK    1  A    between atoms: O_1  and  C_2 
REMARK    2  A    between atoms: C_2  and  C_3 
REMARK    3  A    between atoms: C_2  and  C_8 
REMARK    4  A    between atoms: C_3  and  C_4 
REMARK    5  A    between atoms: C_4  and  C_5 
REMARK    6  A    between atoms: C_8  and  C_9 
REMARK    7  A    between atoms: C_11  and  O_16 
REMARK    8  A    between atoms: C_12  and  O_15 
ROOT
HETATM    1  O   UNL     1      21.661  -0.899  31.270  1.00  0.00    -0.395 OA
HETATM    2  H   UNL     1      20.938  -0.253  31.305  1.00  0.00     0.210 HD
ENDROOT
BRANCH   1   3
HETATM    3  C   UNL     1      21.127  -2.197  31.011  1.00  0.00     0.122 C 
BRANCH   3   4
HETATM    4  C   UNL     1      21.440  -3.132  32.190  1.00  0.00     0.042 C 
BRANCH   4   5
HETATM    5  C   UNL     1      21.572  -4.601  31.780  1.00  0.00     0.116 C 
BRANCH   5   6
HETATM    6  C   UNL     1      22.487  -5.441  32.634  1.00  0.00     0.172 C 
HETATM    7  O   UNL     1      22.697  -5.268  33.823  1.00  0.00    -0.648 OA
HETATM    8  O   UNL     1      23.018  -6.508  32.006  1.00  0.00    -0.648 OA
ENDBRANCH   5   6
ENDBRANCH   4   5
ENDBRANCH   3   4
BRANCH   3   9
HETATM    9  C   UNL     1      21.718  -2.753  29.704  1.00  0.00     0.070 C 
BRANCH   9  10
HETATM   10  C   UNL     1      20.763  -2.644  28.536  1.00  0.00    -0.053 A 
HETATM   11  C   UNL     1      19.567  -3.378  28.524  1.00  0.00     0.046 A 
HETATM   12  C   UNL     1      18.711  -3.280  27.437  1.00  0.00     0.099 A 
HETATM   13  C   UNL     1      19.011  -2.439  26.370  1.00  0.00     0.098 A 
HETATM   14  C   UNL     1      20.198  -1.721  26.354  1.00  0.00     0.040 A 
HETATM   15  C   UNL     1      21.076  -1.825  27.436  1.00  0.00     0.010 A 
BRANCH  12  16
HETATM   16  O   UNL     1      17.582  -4.047  27.410  1.00  0.00    -0.358 OA
HETATM   17  H   UNL     1      17.054  -4.076  26.636  1.00  0.00     0.217 HD
ENDBRANCH  12  16
BRANCH  13  18
HETATM   18  O   UNL     1      18.131  -2.286  25.339  1.00  0.00    -0.358 OA
HETATM   19  H   UNL     1      18.035  -2.964  24.699  1.00  0.00     0.217 HD
ENDBRANCH  13  18
ENDBRANCH   9  10
ENDBRANCH   3   9
ENDBRANCH   1   3
TORSDOF 8
ENDMDL
MODEL 8
REMARK VINA RESULT:      -6.7      1.695      6.954
REMARK  8 active torsions:
REMARK  status: ('A' for Active; 'I' for Inactive)
REMARK    1  A    between atoms: O_1  and  C_2 
REMARK    2  A    between atoms: C_2  and  C_3 
REMARK    3  A    between atoms: C_2  and  C_8 
REMARK    4  A    between atoms: C_3  and  C_4 
REMARK    5  A    between atoms: C_4  and  C_5 
REMARK    6  A    between atoms: C_8  and  C_9 
REMARK    7  A    between atoms: C_11  and  O_16 
REMARK    8  A    between atoms: C_12  and  O_15 
ROOT
HETATM    1  O   UNL     1      21.003  -4.617  28.390  1.00  0.00    -0.395 OA
HETATM    2  H   UNL     1      20.647  -4.326  27.536  1.00  0.00     0.210 HD
ENDROOT
BRANCH   1   3
HETATM    3  C   UNL     1      20.257  -4.014  29.447  1.00  0.00     0.122 C 
BRANCH   3   4
HETATM    4  C   UNL     1      18.826  -3.717  28.969  1.00  0.00     0.042 C 
BRANCH   4   5
HETATM    5  C   UNL     1      18.668  -3.785  27.448  1.00  0.00     0.116 C 
BRANCH   5   6
HETATM    6  C   UNL     1      18.925  -2.500  26.703  1.00  0.00     0.172 C 
HETATM    7  O   UNL     1      18.068  -1.706  26.352  1.00  0.00    -0.648 OA
HETATM    8  O   UNL     1      20.227  -2.210  26.517  1.00  0.00    -0.648 OA
ENDBRANCH   5   6
ENDBRANCH   4   5
ENDBRANCH   3   4
BRANCH   3   9
HETATM    9  C   UNL     1      20.955  -2.721  29.906  1.00  0.00     0.070 C 
BRANCH   9  10
HETATM   10  C   UNL     1      21.348  -2.755  31.366  1.00  0.00    -0.053 A 
HETATM   11  C   UNL     1      21.685  -3.970  31.984  1.00  0.00     0.046 A 
HETATM   12  C   UNL     1      22.025  -3.985  33.329  1.00  0.00     0.099 A 
HETATM   13  C   UNL     1      22.065  -2.806  34.065  1.00  0.00     0.098 A 
HETATM   14  C   UNL     1      21.716  -1.599  33.479  1.00  0.00     0.040 A 
HETATM   15  C   UNL     1      21.354  -1.574  32.129  1.00  0.00     0.010 A 
BRANCH  12  16
HETATM   16  O   UNL     1      22.290  -5.181  33.933  1.00  0.00    -0.358 OA
HETATM   17  H   UNL     1      23.089  -5.633  33.746  1.00  0.00     0.217 HD
ENDBRANCH  12  16
BRANCH  13  18
HETATM   18  O   UNL     1      22.475  -2.815  35.367  1.00  0.00    -0.358 OA
HETATM   19  H   UNL     1      21.873  -2.592  36.050  1.00  0.00     0.217 HD
ENDBRANCH  13  18
ENDBRANCH   9  10
ENDBRANCH   3   9
ENDBRANCH   1   3
TORSDOF 8
ENDMDL
MODEL 9
REMARK VINA RESULT:      -6.7      3.157      6.396
REMARK  8 active torsions:
REMARK  status: ('A' for Active; 'I' for Inactive)
REMARK    1  A    between atoms: O_1  and  C_2 
REMARK    2  A    between atoms: C_2  and  C_3 
REMARK    3  A    between atoms: C_2  and  C_8 
REMARK    4  A    between atoms: C_3  and  C_4 
REMARK    5  A    between atoms: C_4  and  C_5 
REMARK    6  A    between atoms: C_8  and  C_9 
REMARK    7  A    between atoms: C_11  and  O_16 
REMARK    8  A    between atoms: C_12  and  O_15 
ROOT
HETATM    1  O   UNL     1      21.659  -0.883  31.578  1.00  0.00    -0.395 OA
HETATM    2  H   UNL     1      22.501  -0.972  32.051  1.00  0.00     0.210 HD
ENDROOT
BRANCH   1   3
HETATM    3  C   UNL     1      21.158  -2.178  31.251  1.00  0.00     0.122 C 
BRANCH   3   4
HETATM    4  C   UNL     1      19.739  -2.055  30.671  1.00  0.00     0.042 C 
BRANCH   4   5
HETATM    5  C   UNL     1      19.441  -3.081  29.575  1.00  0.00     0.116 C 
BRANCH   5   6
HETATM    6  C   UNL     1      19.683  -2.620  28.161  1.00  0.00     0.172 C 
HETATM    7  O   UNL     1      20.473  -3.126  27.380  1.00  0.00    -0.648 OA
HETATM    8  O   UNL     1      18.873  -1.627  27.747  1.00  0.00    -0.648 OA
ENDBRANCH   5   6
ENDBRANCH   4   5
ENDBRANCH   3   4
BRANCH   3   9
HETATM    9  C   UNL     1      21.156  -3.069  32.506  1.00  0.00     0.070 C 
BRANCH   9  10
HETATM   10  C   UNL     1      21.822  -4.407  32.275  1.00  0.00    -0.053 A 
HETATM   11  C   UNL     1      22.357  -5.131  33.351  1.00  0.00     0.046 A 
HETATM   12  C   UNL     1      22.981  -6.348  33.119  1.00  0.00     0.099 A 
HETATM   13  C   UNL     1      23.056  -6.874  31.833  1.00  0.00     0.098 A 
HETATM   14  C   UNL     1      22.550  -6.165  30.754  1.00  0.00     0.040 A 
HETATM   15  C   UNL     1      21.935  -4.929  30.974  1.00  0.00     0.010 A 
BRANCH  12  16
HETATM   16  O   UNL     1      23.553  -7.012  34.167  1.00  0.00    -0.358 OA
HETATM   17  H   UNL     1      24.486  -7.059  34.237  1.00  0.00     0.217 HD
ENDBRANCH  12  16
BRANCH  13  18
HETATM   18  O   UNL     1      23.601  -8.107  31.619  1.00  0.00    -0.358 OA
HETATM   19  H   UNL     1      23.256  -8.661  30.947  1.00  0.00     0.217 HD
ENDBRANCH  13  18
ENDBRANCH   9  10
ENDBRANCH   3   9
ENDBRANCH   1   3
TORSDOF 8
ENDMDL
