MODEL 1
REMARK VINA RESULT:      -7.2      0.000      0.000
REMARK  8 active torsions:
REMARK  status: ('A' for Active; 'I' for Inactive)
REMARK    1  A    between atoms: O_1  and  C_2 
REMARK    2  A    between atoms: C_2  and  C_3 
REMARK    3  A    between atoms: C_2  and  C_8 
REMARK    4  A    between atoms: C_3  and  C_4 
REMARK    5  A    between atoms: C_4  and  C_5 
REMARK    6  A    between atoms: C_8  and  C_9 
REMARK    7  A    between atoms: C_11  and  O_16 
REMARK    8  A    between atoms: C_12  and  O_15 
ROOT
HETATM    1  O   UNL     1      11.267   4.640  11.362  1.00  0.00    -0.395 OA
HETATM    2  H   UNL     1      11.449   4.142  12.174  1.00  0.00     0.210 HD
ENDROOT
BRANCH   1   3
HETATM    3  C   UNL     1      11.995   5.867  11.384  1.00  0.00     0.122 C 
BRANCH   3   4
HETATM    4  C   UNL     1      12.007   6.488   9.978  1.00  0.00     0.042 C 
BRANCH   4   5
HETATM    5  C   UNL     1      13.184   6.021   9.118  1.00  0.00     0.116 C 
BRANCH   5   6
HETATM    6  C   UNL     1      12.841   5.575   7.720  1.00  0.00     0.172 C 
HETATM    7  O   UNL     1      12.837   6.291   6.733  1.00  0.00    -0.648 OA
HETATM    8  O   UNL     1      12.618   4.253   7.592  1.00  0.00    -0.648 OA
ENDBRANCH   5   6
ENDBRANCH   4   5
ENDBRANCH   3   4
BRANCH   3   9
HETATM    9  C   UNL     1      13.429   5.615  11.879  1.00  0.00     0.070 C 
BRANCH   9  10
HETATM   10  C   UNL     1      13.610   5.944  13.344  1.00  0.00    -0.053 A 
HETATM   11  C   UNL     1      12.493   6.123  14.175  1.00  0.00     0.046 A 
HETATM   12  C   UNL     1      12.676   6.442  15.513  1.00  0.00     0.099 A 
HETATM   13  C   UNL     1      13.956   6.558  16.047  1.00  0.00     0.098 A 
HETATM   14  C   UNL     1      15.071   6.405  15.238  1.00  0.00     0.040 A 
HETATM   15  C   UNL     1      14.899   6.100  13.885  1.00  0.00     0.010 A 
BRANCH  12  16
HETATM   16  O   UNL     1      11.582   6.676  16.296  1.00  0.00    -0.358 OA
HETATM   17  H   UNL     1      11.460   6.190  17.088  1.00  0.00     0.217 HD
ENDBRANCH  12  16
BRANCH  13  18
HETATM   18  O   UNL     1      14.132   6.796  17.379  1.00  0.00    -0.358 OA
HETATM   19  H   UNL     1      14.192   6.079  17.979  1.00  0.00     0.217 HD
ENDBRANCH  13  18
ENDBRANCH   9  10
ENDBRANCH   3   9
ENDBRANCH   1   3
TORSDOF 8
ENDMDL
MODEL 2
REMARK VINA RESULT:      -7.1      3.284      5.591
REMARK  8 active torsions:
REMARK  status: ('A' for Active; 'I' for Inactive)
REMARK    1  A    between atoms: O_1  and  C_2 
REMARK    2  A    between atoms: C_2  and  C_3 
REMARK    3  A    between atoms: C_2  and  C_8 
REMARK    4  A    between atoms: C_3  and  C_4 
REMARK    5  A    between atoms: C_4  and  C_5 
REMARK    6  A    between atoms: C_8  and  C_9 
REMARK    7  A    between atoms: C_11  and  O_16 
REMARK    8  A    between atoms: C_12  and  O_15 
ROOT
HETATM    1  O   UNL     1      16.678   4.742  14.162  1.00  0.00    -0.395 OA
HETATM    2  H   UNL     1      15.946   4.126  14.323  1.00  0.00     0.210 HD
ENDROOT
BRANCH   1   3
HETATM    3  C   UNL     1      16.527   5.334  12.872  1.00  0.00     0.122 C 
BRANCH   3   4
HETATM    4  C   UNL     1      17.815   6.080  12.489  1.00  0.00     0.042 C 
BRANCH   4   5
HETATM    5  C   UNL     1      18.505   5.502  11.251  1.00  0.00     0.116 C 
BRANCH   5   6
HETATM    6  C   UNL     1      18.373   6.313   9.987  1.00  0.00     0.172 C 
HETATM    7  O   UNL     1      18.331   5.855   8.857  1.00  0.00    -0.648 OA
HETATM    8  O   UNL     1      18.200   7.634  10.183  1.00  0.00    -0.648 OA
ENDBRANCH   5   6
ENDBRANCH   4   5
ENDBRANCH   3   4
BRANCH   3   9
HETATM    9  C   UNL     1      15.324   6.294  12.875  1.00  0.00     0.070 C 
BRANCH   9  10
HETATM   10  C   UNL     1      14.379   6.052  11.719  1.00  0.00    -0.053 A 
HETATM   11  C   UNL     1      13.078   5.581  11.951  1.00  0.00     0.046 A 
HETATM   12  C   UNL     1      12.230   5.348  10.878  1.00  0.00     0.099 A 
HETATM   13  C   UNL     1      12.646   5.604   9.575  1.00  0.00     0.098 A 
HETATM   14  C   UNL     1      13.935   6.051   9.324  1.00  0.00     0.040 A 
HETATM   15  C   UNL     1      14.803   6.273  10.397  1.00  0.00     0.010 A 
BRANCH  12  16
HETATM   16  O   UNL     1      10.989   4.830  11.113  1.00  0.00    -0.358 OA
HETATM   17  H   UNL     1      10.270   5.069  10.562  1.00  0.00     0.217 HD
ENDBRANCH  12  16
BRANCH  13  18
HETATM   18  O   UNL     1      11.784   5.447   8.529  1.00  0.00    -0.358 OA
HETATM   19  H   UNL     1      10.877   5.277   8.690  1.00  0.00     0.217 HD
ENDBRANCH  13  18
ENDBRANCH   9  10
ENDBRANCH   3   9
ENDBRANCH   1   3
TORSDOF 8
ENDMDL
MODEL 3
REMARK VINA RESULT:      -6.8      2.675      3.681
REMARK  8 active torsions:
REMARK  status: ('A' for Active; 'I' for Inactive)
REMARK    1  A    between atoms: O_1  and  C_2 
REMARK    2  A    between atoms: C_2  and  C_3 
REMARK    3  A    between atoms: C_2  and  C_8 
REMARK    4  A    between atoms: C_3  and  C_4 
REMARK    5  A    between atoms: C_4  and  C_5 
REMARK    6  A    between atoms: C_8  and  C_9 
REMARK    7  A    between atoms: C_11  and  O_16 
REMARK    8  A    between atoms: C_12  and  O_15 
ROOT
HETATM    1  O   UNL     1      11.969   4.122  11.831  1.00  0.00    -0.395 OA
HETATM    2  H   UNL     1      12.282   3.441  11.215  1.00  0.00     0.210 HD
ENDROOT
BRANCH   1   3
HETATM    3  C   UNL     1      11.758   5.343  11.123  1.00  0.00     0.122 C 
BRANCH   3   4
HETATM    4  C   UNL     1      12.168   5.168   9.652  1.00  0.00     0.042 C 
BRANCH   4   5
HETATM    5  C   UNL     1      11.850   6.388   8.784  1.00  0.00     0.116 C 
BRANCH   5   6
HETATM    6  C   UNL     1      12.482   6.404   7.416  1.00  0.00     0.172 C 
HETATM    7  O   UNL     1      13.646   6.684   7.181  1.00  0.00    -0.648 OA
HETATM    8  O   UNL     1      11.679   5.979   6.421  1.00  0.00    -0.648 OA
ENDBRANCH   5   6
ENDBRANCH   4   5
ENDBRANCH   3   4
BRANCH   3   9
HETATM    9  C   UNL     1      12.567   6.475  11.781  1.00  0.00     0.070 C 
BRANCH   9  10
HETATM   10  C   UNL     1      14.042   6.156  11.883  1.00  0.00    -0.053 A 
HETATM   11  C   UNL     1      14.871   6.256  10.756  1.00  0.00     0.046 A 
HETATM   12  C   UNL     1      16.219   5.943  10.863  1.00  0.00     0.099 A 
HETATM   13  C   UNL     1      16.763   5.560  12.084  1.00  0.00     0.098 A 
HETATM   14  C   UNL     1      15.957   5.436  13.206  1.00  0.00     0.040 A 
HETATM   15  C   UNL     1      14.595   5.732  13.105  1.00  0.00     0.010 A 
BRANCH  12  16
HETATM   16  O   UNL     1      17.001   5.984   9.745  1.00  0.00    -0.358 OA
HETATM   17  H   UNL     1      17.869   5.633   9.768  1.00  0.00     0.217 HD
ENDBRANCH  12  16
BRANCH  13  18
HETATM   18  O   UNL     1      18.103   5.328  12.204  1.00  0.00    -0.358 OA
HETATM   19  H   UNL     1      18.480   4.556  11.830  1.00  0.00     0.217 HD
ENDBRANCH  13  18
ENDBRANCH   9  10
ENDBRANCH   3   9
ENDBRANCH   1   3
TORSDOF 8
ENDMDL
MODEL 4
REMARK VINA RESULT:      -6.7      3.532      4.855
REMARK  8 active torsions:
REMARK  status: ('A' for Active; 'I' for Inactive)
REMARK    1  A    between atoms: O_1  and  C_2 
REMARK    2  A    between atoms: C_2  and  C_3 
REMARK    3  A    between atoms: C_2  and  C_8 
REMARK    4  A    between atoms: C_3  and  C_4 
REMARK    5  A    between atoms: C_4  and  C_5 
REMARK    6  A    between atoms: C_8  and  C_9 
REMARK    7  A    between atoms: C_11  and  O_16 
REMARK    8  A    between atoms: C_12  and  O_15 
ROOT
HETATM    1  O   UNL     1      12.310   6.479  13.167  1.00  0.00    -0.395 OA
HETATM    2  H   UNL     1      11.761   7.269  13.048  1.00  0.00     0.210 HD
ENDROOT
BRANCH   1   3
HETATM    3  C   UNL     1      13.255   6.391  12.101  1.00  0.00     0.122 C 
BRANCH   3   4
HETATM    4  C   UNL     1      12.720   5.450  11.009  1.00  0.00     0.042 C 
BRANCH   4   5
HETATM    5  C   UNL     1      12.032   6.186   9.857  1.00  0.00     0.116 C 
BRANCH   5   6
HETATM    6  C   UNL     1      12.721   6.101   8.519  1.00  0.00     0.172 C 
HETATM    7  O   UNL     1      12.244   6.468   7.457  1.00  0.00    -0.648 OA
HETATM    8  O   UNL     1      13.993   5.664   8.569  1.00  0.00    -0.648 OA
ENDBRANCH   5   6
ENDBRANCH   4   5
ENDBRANCH   3   4
BRANCH   3   9
HETATM    9  C   UNL     1      14.605   5.886  12.640  1.00  0.00     0.070 C 
BRANCH   9  10
HETATM   10  C   UNL     1      15.768   6.260  11.748  1.00  0.00    -0.053 A 
HETATM   11  C   UNL     1      16.932   5.476  11.732  1.00  0.00     0.046 A 
HETATM   12  C   UNL     1      17.996   5.844  10.921  1.00  0.00     0.099 A 
HETATM   13  C   UNL     1      17.911   6.964  10.102  1.00  0.00     0.098 A 
HETATM   14  C   UNL     1      16.778   7.763  10.118  1.00  0.00     0.040 A 
HETATM   15  C   UNL     1      15.706   7.412  10.944  1.00  0.00     0.010 A 
BRANCH  12  16
HETATM   16  O   UNL     1      19.147   5.108  10.961  1.00  0.00    -0.358 OA
HETATM   17  H   UNL     1      19.445   4.663  10.193  1.00  0.00     0.217 HD
ENDBRANCH  12  16
BRANCH  13  18
HETATM   18  O   UNL     1      18.930   7.279   9.248  1.00  0.00    -0.358 OA
HETATM   19  H   UNL     1      18.878   7.031   8.346  1.00  0.00     0.217 HD
ENDBRANCH  13  18
ENDBRANCH   9  10
ENDBRANCH   3   9
ENDBRANCH   1   3
TORSDOF 8
ENDMDL
MODEL 5
REMARK VINA RESULT:      -6.6      1.579      6.660
REMARK  8 active torsions:
REMARK  status: ('A' for Active; 'I' for Inactive)
REMARK    1  A    between atoms: O_1  and  C_2 
REMARK    2  A    between atoms: C_2  and  C_3 
REMARK    3  A    between atoms: C_2  and  C_8 
REMARK    4  A    between atoms: C_3  and  C_4 
REMARK    5  A    between atoms: C_4  and  C_5 
REMARK    6  A    between atoms: C_8  and  C_9 
REMARK    7  A    between atoms: C_11  and  O_16 
REMARK    8  A    between atoms: C_12  and  O_15 
ROOT
HETATM    1  O   UNL     1      11.822   4.840  15.059  1.00  0.00    -0.395 OA
HETATM    2  H   UNL     1      11.192   5.556  14.887  1.00  0.00     0.210 HD
ENDROOT
BRANCH   1   3
HETATM    3  C   UNL     1      12.881   4.897  14.104  1.00  0.00     0.122 C 
BRANCH   3   4
HETATM    4  C   UNL     1      14.226   4.639  14.802  1.00  0.00     0.042 C 
BRANCH   4   5
HETATM    5  C   UNL     1      14.915   5.918  15.283  1.00  0.00     0.116 C 
BRANCH   5   6
HETATM    6  C   UNL     1      14.536   6.388  16.664  1.00  0.00     0.172 C 
HETATM    7  O   UNL     1      13.394   6.536  17.070  1.00  0.00    -0.648 OA
HETATM    8  O   UNL     1      15.575   6.558  17.505  1.00  0.00    -0.648 OA
ENDBRANCH   5   6
ENDBRANCH   4   5
ENDBRANCH   3   4
BRANCH   3   9
HETATM    9  C   UNL     1      12.884   6.271  13.410  1.00  0.00     0.070 C 
BRANCH   9  10
HETATM   10  C   UNL     1      13.126   6.175  11.920  1.00  0.00    -0.053 A 
HETATM   11  C   UNL     1      14.433   6.126  11.414  1.00  0.00     0.046 A 
HETATM   12  C   UNL     1      14.637   6.056  10.043  1.00  0.00     0.099 A 
HETATM   13  C   UNL     1      13.559   6.003   9.166  1.00  0.00     0.098 A 
HETATM   14  C   UNL     1      12.259   6.069   9.646  1.00  0.00     0.040 A 
HETATM   15  C   UNL     1      12.042   6.158  11.024  1.00  0.00     0.010 A 
BRANCH  12  16
HETATM   16  O   UNL     1      15.915   6.073   9.560  1.00  0.00    -0.358 OA
HETATM   17  H   UNL     1      16.106   6.518   8.758  1.00  0.00     0.217 HD
ENDBRANCH  12  16
BRANCH  13  18
HETATM   18  O   UNL     1      13.762   5.855   7.825  1.00  0.00    -0.358 OA
HETATM   19  H   UNL     1      13.047   5.624   7.265  1.00  0.00     0.217 HD
ENDBRANCH  13  18
ENDBRANCH   9  10
ENDBRANCH   3   9
ENDBRANCH   1   3
TORSDOF 8
ENDMDL
MODEL 6
REMARK VINA RESULT:      -6.6      3.560      5.444
REMARK  8 active torsions:
REMARK  status: ('A' for Active; 'I' for Inactive)
REMARK    1  A    between atoms: O_1  and  C_2 
REMARK    2  A    between atoms: C_2  and  C_3 
REMARK    3  A    between atoms: C_2  and  C_8 
REMARK    4  A    between atoms: C_3  and  C_4 
REMARK    5  A    between atoms: C_4  and  C_5 
REMARK    6  A    between atoms: C_8  and  C_9 
REMARK    7  A    between atoms: C_11  and  O_16 
REMARK    8  A    between atoms: C_12  and  O_15 
ROOT
HETATM    1  O   UNL     1      17.058   7.981   9.188  1.00  0.00    -0.395 OA
HETATM    2  H   UNL     1      17.125   8.941   9.315  1.00  0.00     0.210 HD
ENDROOT
BRANCH   1   3
HETATM    3  C   UNL     1      16.835   7.350  10.449  1.00  0.00     0.122 C 
BRANCH   3   4
HETATM    4  C   UNL     1      18.180   6.924  11.061  1.00  0.00     0.042 C 
BRANCH   4   5
HETATM    5  C   UNL     1      18.260   5.427  11.367  1.00  0.00     0.116 C 
BRANCH   5   6
HETATM    6  C   UNL     1      18.604   5.064  12.789  1.00  0.00     0.172 C 
HETATM    7  O   UNL     1      19.400   4.202  13.124  1.00  0.00    -0.648 OA
HETATM    8  O   UNL     1      18.027   5.845  13.722  1.00  0.00    -0.648 OA
ENDBRANCH   5   6
ENDBRANCH   4   5
ENDBRANCH   3   4
BRANCH   3   9
HETATM    9  C   UNL     1      15.912   6.132  10.266  1.00  0.00     0.070 C 
BRANCH   9  10
HETATM   10  C   UNL     1      14.723   6.154  11.201  1.00  0.00    -0.053 A 
HETATM   11  C   UNL     1      13.476   5.669  10.778  1.00  0.00     0.046 A 
HETATM   12  C   UNL     1      12.392   5.713  11.642  1.00  0.00     0.099 A 
HETATM   13  C   UNL     1      12.534   6.207  12.935  1.00  0.00     0.098 A 
HETATM   14  C   UNL     1      13.752   6.710  13.365  1.00  0.00     0.040 A 
HETATM   15  C   UNL     1      14.847   6.686  12.497  1.00  0.00     0.010 A 
BRANCH  12  16
HETATM   16  O   UNL     1      11.170   5.296  11.197  1.00  0.00    -0.358 OA
HETATM   17  H   UNL     1      10.716   5.791  10.544  1.00  0.00     0.217 HD
ENDBRANCH  12  16
BRANCH  13  18
HETATM   18  O   UNL     1      11.484   6.178  13.807  1.00  0.00    -0.358 OA
HETATM   19  H   UNL     1      11.632   6.315  14.722  1.00  0.00     0.217 HD
ENDBRANCH  13  18
ENDBRANCH   9  10
ENDBRANCH   3   9
ENDBRANCH   1   3
TORSDOF 8
ENDMDL
MODEL 7
REMARK VINA RESULT:      -6.6      1.042      1.783
REMARK  8 active torsions:
REMARK  status: ('A' for Active; 'I' for Inactive)
REMARK    1  A    between atoms: O_1  and  C_2 
REMARK    2  A    between atoms: C_2  and  C_3 
REMARK    3  A    between atoms: C_2  and  C_8 
REMARK    4  A    between atoms: C_3  and  C_4 
REMARK    5  A    between atoms: C_4  and  C_5 
REMARK    6  A    between atoms: C_8  and  C_9 
REMARK    7  A    between atoms: C_11  and  O_16 
REMARK    8  A    between atoms: C_12  and  O_15 
ROOT
HETATM    1  O   UNL     1      10.963   4.852  11.050  1.00  0.00    -0.395 OA
HETATM    2  H   UNL     1      10.671   4.166  11.670  1.00  0.00     0.210 HD
ENDROOT
BRANCH   1   3
HETATM    3  C   UNL     1      12.133   5.488  11.562  1.00  0.00     0.122 C 
BRANCH   3   4
HETATM    4  C   UNL     1      13.042   5.918  10.399  1.00  0.00     0.042 C 
BRANCH   4   5
HETATM    5  C   UNL     1      12.267   6.368   9.158  1.00  0.00     0.116 C 
BRANCH   5   6
HETATM    6  C   UNL     1      12.695   5.743   7.854  1.00  0.00     0.172 C 
HETATM    7  O   UNL     1      13.208   6.341   6.922  1.00  0.00    -0.648 OA
HETATM    8  O   UNL     1      12.561   4.404   7.803  1.00  0.00    -0.648 OA
ENDBRANCH   5   6
ENDBRANCH   4   5
ENDBRANCH   3   4
BRANCH   3   9
HETATM    9  C   UNL     1      12.878   4.529  12.507  1.00  0.00     0.070 C 
BRANCH   9  10
HETATM   10  C   UNL     1      13.234   5.169  13.830  1.00  0.00    -0.053 A 
HETATM   11  C   UNL     1      14.428   4.832  14.486  1.00  0.00     0.046 A 
HETATM   12  C   UNL     1      14.730   5.416  15.707  1.00  0.00     0.099 A 
HETATM   13  C   UNL     1      13.876   6.355  16.277  1.00  0.00     0.098 A 
HETATM   14  C   UNL     1      12.682   6.687  15.654  1.00  0.00     0.040 A 
HETATM   15  C   UNL     1      12.359   6.092  14.431  1.00  0.00     0.010 A 
BRANCH  12  16
HETATM   16  O   UNL     1      15.864   5.031  16.364  1.00  0.00    -0.358 OA
HETATM   17  H   UNL     1      16.270   4.213  16.158  1.00  0.00     0.217 HD
ENDBRANCH  12  16
BRANCH  13  18
HETATM   18  O   UNL     1      14.214   6.984  17.440  1.00  0.00    -0.358 OA
HETATM   19  H   UNL     1      13.549   7.213  18.059  1.00  0.00     0.217 HD
ENDBRANCH  13  18
ENDBRANCH   9  10
ENDBRANCH   3   9
ENDBRANCH   1   3
TORSDOF 8
ENDMDL
MODEL 8
REMARK VINA RESULT:      -6.5      3.306      3.716
REMARK  8 active torsions:
REMARK  status: ('A' for Active; 'I' for Inactive)
REMARK    1  A    between atoms: O_1  and  C_2 
REMARK    2  A    between atoms: C_2  and  C_3 
REMARK    3  A    between atoms: C_2  and  C_8 
REMARK    4  A    between atoms: C_3  and  C_4 
REMARK    5  A    between atoms: C_4  and  C_5 
REMARK    6  A    between atoms: C_8  and  C_9 
REMARK    7  A    between atoms: C_11  and  O_16 
REMARK    8  A    between atoms: C_12  and  O_15 
ROOT
HETATM    1  O   UNL     1      14.788   5.978   9.586  1.00  0.00    -0.395 OA
HETATM    2  H   UNL     1      13.897   6.229   9.297  1.00  0.00     0.210 HD
ENDROOT
BRANCH   1   3
HETATM    3  C   UNL     1      15.130   6.708  10.763  1.00  0.00     0.122 C 
BRANCH   3   4
HETATM    4  C   UNL     1      16.394   7.544  10.507  1.00  0.00     0.042 C 
BRANCH   4   5
HETATM    5  C   UNL     1      17.665   6.915  11.082  1.00  0.00     0.116 C 
BRANCH   5   6
HETATM    6  C   UNL     1      18.379   5.938  10.183  1.00  0.00     0.172 C 
HETATM    7  O   UNL     1      18.383   5.975   8.963  1.00  0.00    -0.648 OA
HETATM    8  O   UNL     1      19.130   5.026  10.829  1.00  0.00    -0.648 OA
ENDBRANCH   5   6
ENDBRANCH   4   5
ENDBRANCH   3   4
BRANCH   3   9
HETATM    9  C   UNL     1      15.351   5.735  11.935  1.00  0.00     0.070 C 
BRANCH   9  10
HETATM   10  C   UNL     1      14.503   6.070  13.142  1.00  0.00    -0.053 A 
HETATM   11  C   UNL     1      13.115   6.231  13.012  1.00  0.00     0.046 A 
HETATM   12  C   UNL     1      12.354   6.556  14.126  1.00  0.00     0.099 A 
HETATM   13  C   UNL     1      12.948   6.695  15.377  1.00  0.00     0.098 A 
HETATM   14  C   UNL     1      14.321   6.559  15.521  1.00  0.00     0.040 A 
HETATM   15  C   UNL     1      15.099   6.249  14.403  1.00  0.00     0.010 A 
BRANCH  12  16
HETATM   16  O   UNL     1      11.014   6.772  13.975  1.00  0.00    -0.358 OA
HETATM   17  H   UNL     1      10.622   7.545  14.330  1.00  0.00     0.217 HD
ENDBRANCH  12  16
BRANCH  13  18
HETATM   18  O   UNL     1      12.187   6.937  16.483  1.00  0.00    -0.358 OA
HETATM   19  H   UNL     1      12.474   7.560  17.122  1.00  0.00     0.217 HD
ENDBRANCH  13  18
ENDBRANCH   9  10
ENDBRANCH   3   9
ENDBRANCH   1   3
TORSDOF 8
ENDMDL
MODEL 9
REMARK VINA RESULT:      -6.4      2.143      2.615
REMARK  8 active torsions:
REMARK  status: ('A' for Active; 'I' for Inactive)
REMARK    1  A    between atoms: O_1  and  C_2 
REMARK    2  A    between atoms: C_2  and  C_3 
REMARK    3  A    between atoms: C_2  and  C_8 
REMARK    4  A    between atoms: C_3  and  C_4 
REMARK    5  A    between atoms: C_4  and  C_5 
REMARK    6  A    between atoms: C_8  and  C_9 
REMARK    7  A    between atoms: C_11  and  O_16 
REMARK    8  A    between atoms: C_12  and  O_15 
ROOT
HETATM    1  O   UNL     1      11.181   4.803  10.820  1.00  0.00    -0.395 OA
HETATM    2  H   UNL     1      10.766   4.711   9.948  1.00  0.00     0.210 HD
ENDROOT
BRANCH   1   3
HETATM    3  C   UNL     1      11.983   5.983  10.843  1.00  0.00     0.122 C 
BRANCH   3   4
HETATM    4  C   UNL     1      13.364   5.683  10.237  1.00  0.00     0.042 C 
BRANCH   4   5
HETATM    5  C   UNL     1      13.513   6.173   8.795  1.00  0.00     0.116 C 
BRANCH   5   6
HETATM    6  C   UNL     1      12.713   5.424   7.761  1.00  0.00     0.172 C 
HETATM    7  O   UNL     1      12.363   4.258   7.848  1.00  0.00    -0.648 OA
HETATM    8  O   UNL     1      12.298   6.172   6.721  1.00  0.00    -0.648 OA
ENDBRANCH   5   6
ENDBRANCH   4   5
ENDBRANCH   3   4
BRANCH   3   9
HETATM    9  C   UNL     1      12.123   6.492  12.288  1.00  0.00     0.070 C 
BRANCH   9  10
HETATM   10  C   UNL     1      13.256   5.825  13.037  1.00  0.00    -0.053 A 
HETATM   11  C   UNL     1      14.557   6.347  12.969  1.00  0.00     0.046 A 
HETATM   12  C   UNL     1      15.588   5.713  13.647  1.00  0.00     0.099 A 
HETATM   13  C   UNL     1      15.341   4.581  14.418  1.00  0.00     0.098 A 
HETATM   14  C   UNL     1      14.066   4.039  14.481  1.00  0.00     0.040 A 
HETATM   15  C   UNL     1      13.023   4.659  13.788  1.00  0.00     0.010 A 
BRANCH  12  16
HETATM   16  O   UNL     1      16.859   6.194  13.523  1.00  0.00    -0.358 OA
HETATM   17  H   UNL     1      17.467   5.770  12.949  1.00  0.00     0.217 HD
ENDBRANCH  12  16
BRANCH  13  18
HETATM   18  O   UNL     1      16.342   4.005  15.145  1.00  0.00    -0.358 OA
HETATM   19  H   UNL     1      16.134   3.408  15.837  1.00  0.00     0.217 HD
ENDBRANCH  13  18
ENDBRANCH   9  10
ENDBRANCH   3   9
ENDBRANCH   1   3
TORSDOF 8
ENDMDL
