MODEL 1
REMARK VINA RESULT:      -7.9      0.000      0.000
REMARK  9 active torsions:
REMARK  status: ('A' for Active; 'I' for Inactive)
REMARK    1  A    between atoms: C_3  and  C_8 
REMARK    2  A    between atoms: C_5  and  O_7 
REMARK    3  A    between atoms: C_8  and  C_9 
REMARK    4  A    between atoms: C_9  and  C_10 
REMARK    5  A    between atoms: C_9  and  O_20 
REMARK    6  A    between atoms: C_10  and  C_11 
REMARK    7  A    between atoms: C_12  and  O_19 
REMARK    8  A    between atoms: C_14  and  O_18 
REMARK    9  A    between atoms: C_16  and  O_17 
ROOT
HETATM    1  C   UNL     1      31.131  76.829  19.542  1.00  0.00     0.003 A 
HETATM    2  C   UNL     1      31.725  75.938  20.415  1.00  0.00     0.007 A 
HETATM    3  C   UNL     1      32.234  76.383  21.622  1.00  0.00    -0.053 A 
HETATM    4  C   UNL     1      32.149  77.720  21.956  1.00  0.00     0.043 A 
HETATM    5  C   UNL     1      31.554  78.617  21.080  1.00  0.00     0.066 A 
HETATM    6  C   UNL     1      31.044  78.167  19.871  1.00  0.00     0.036 A 
ENDROOT
BRANCH   3   7
HETATM    7  C   UNL     1      32.880  75.408  22.572  1.00  0.00     0.070 C 
BRANCH   7   8
HETATM    8  C   UNL     1      32.775  73.992  22.001  1.00  0.00     0.127 C 
BRANCH   8   9
HETATM    9  C   UNL     1      34.144  73.313  22.067  1.00  0.00     0.076 C 
BRANCH   9  10
HETATM   10  C   UNL     1      33.963  71.817  22.079  1.00  0.00     0.011 A 
HETATM   11  C   UNL     1      33.798  71.148  23.283  1.00  0.00     0.077 A 
HETATM   12  C   UNL     1      33.631  69.772  23.294  1.00  0.00     0.073 A 
HETATM   13  C   UNL     1      33.629  69.064  22.102  1.00  0.00     0.071 A 
HETATM   14  C   UNL     1      33.793  69.733  20.898  1.00  0.00     0.073 A 
HETATM   15  C   UNL     1      33.955  71.110  20.887  1.00  0.00     0.077 A 
BRANCH  11  16
HETATM   16  O   UNL     1      33.801  71.842  24.451  1.00  0.00    -0.360 OA
HETATM   17  H   UNL     1      34.612  72.114  24.833  1.00  0.00     0.217 HD
ENDBRANCH  11  16
BRANCH  13  18
HETATM   18  O   UNL     1      33.467  67.715  22.113  1.00  0.00    -0.361 OA
HETATM   19  H   UNL     1      33.266  67.274  22.915  1.00  0.00     0.217 HD
ENDBRANCH  13  18
BRANCH  15  20
HETATM   20  O   UNL     1      34.116  71.765  19.707  1.00  0.00    -0.360 OA
HETATM   21  H   UNL     1      34.122  71.286  18.902  1.00  0.00     0.217 HD
ENDBRANCH  15  20
ENDBRANCH   9  10
ENDBRANCH   8   9
BRANCH   8  22
HETATM   22  O   UNL     1      31.833  73.239  22.767  1.00  0.00    -0.395 OA
HETATM   23  H   UNL     1      31.831  73.559  23.683  1.00  0.00     0.210 HD
ENDBRANCH   8  22
ENDBRANCH   7   8
ENDBRANCH   3   7
BRANCH   5  24
HETATM   24  O   UNL     1      31.470  79.934  21.408  1.00  0.00    -0.361 OA
HETATM   25  H   UNL     1      30.652  80.295  21.690  1.00  0.00     0.217 HD
ENDBRANCH   5  24
TORSDOF 9
ENDMDL
MODEL 2
REMARK VINA RESULT:      -7.9      0.011      1.848
REMARK  9 active torsions:
REMARK  status: ('A' for Active; 'I' for Inactive)
REMARK    1  A    between atoms: C_3  and  C_8 
REMARK    2  A    between atoms: C_5  and  O_7 
REMARK    3  A    between atoms: C_8  and  C_9 
REMARK    4  A    between atoms: C_9  and  C_10 
REMARK    5  A    between atoms: C_9  and  O_20 
REMARK    6  A    between atoms: C_10  and  C_11 
REMARK    7  A    between atoms: C_12  and  O_19 
REMARK    8  A    between atoms: C_14  and  O_18 
REMARK    9  A    between atoms: C_16  and  O_17 
ROOT
HETATM    1  C   UNL     1      31.112  76.827  19.549  1.00  0.00     0.003 A 
HETATM    2  C   UNL     1      31.714  75.939  20.419  1.00  0.00     0.007 A 
HETATM    3  C   UNL     1      32.235  76.388  21.619  1.00  0.00    -0.053 A 
HETATM    4  C   UNL     1      32.154  77.726  21.950  1.00  0.00     0.043 A 
HETATM    5  C   UNL     1      31.551  78.620  21.077  1.00  0.00     0.066 A 
HETATM    6  C   UNL     1      31.029  78.167  19.874  1.00  0.00     0.036 A 
ENDROOT
BRANCH   3   7
HETATM    7  C   UNL     1      32.890  75.416  22.566  1.00  0.00     0.070 C 
BRANCH   7   8
HETATM    8  C   UNL     1      32.783  73.999  21.999  1.00  0.00     0.127 C 
BRANCH   8   9
HETATM    9  C   UNL     1      34.151  73.319  22.064  1.00  0.00     0.076 C 
BRANCH   9  10
HETATM   10  C   UNL     1      33.969  71.823  22.076  1.00  0.00     0.011 A 
HETATM   11  C   UNL     1      33.969  71.114  20.884  1.00  0.00     0.077 A 
HETATM   12  C   UNL     1      33.801  69.737  20.896  1.00  0.00     0.073 A 
HETATM   13  C   UNL     1      33.632  69.070  22.100  1.00  0.00     0.071 A 
HETATM   14  C   UNL     1      33.633  69.779  23.292  1.00  0.00     0.073 A 
HETATM   15  C   UNL     1      33.806  71.154  23.280  1.00  0.00     0.077 A 
BRANCH  11  16
HETATM   16  O   UNL     1      34.133  71.768  19.705  1.00  0.00    -0.360 OA
HETATM   17  H   UNL     1      33.413  72.227  19.319  1.00  0.00     0.217 HD
ENDBRANCH  11  16
BRANCH  13  18
HETATM   18  O   UNL     1      33.466  67.721  22.112  1.00  0.00    -0.361 OA
HETATM   19  H   UNL     1      32.910  67.324  22.753  1.00  0.00     0.217 HD
ENDBRANCH  13  18
BRANCH  15  20
HETATM   20  O   UNL     1      33.806  71.849  24.449  1.00  0.00    -0.360 OA
HETATM   21  H   UNL     1      33.518  71.437  25.239  1.00  0.00     0.217 HD
ENDBRANCH  15  20
ENDBRANCH   9  10
ENDBRANCH   8   9
BRANCH   8  22
HETATM   22  O   UNL     1      31.841  73.249  22.770  1.00  0.00    -0.395 OA
HETATM   23  H   UNL     1      31.266  72.743  22.174  1.00  0.00     0.210 HD
ENDBRANCH   8  22
ENDBRANCH   7   8
ENDBRANCH   3   7
BRANCH   5  24
HETATM   24  O   UNL     1      31.470  79.938  21.401  1.00  0.00    -0.361 OA
HETATM   25  H   UNL     1      31.999  80.284  22.093  1.00  0.00     0.217 HD
ENDBRANCH   5  24
TORSDOF 9
ENDMDL
MODEL 3
REMARK VINA RESULT:      -7.7      3.889      6.921
REMARK  9 active torsions:
REMARK  status: ('A' for Active; 'I' for Inactive)
REMARK    1  A    between atoms: C_3  and  C_8 
REMARK    2  A    between atoms: C_5  and  O_7 
REMARK    3  A    between atoms: C_8  and  C_9 
REMARK    4  A    between atoms: C_9  and  C_10 
REMARK    5  A    between atoms: C_9  and  O_20 
REMARK    6  A    between atoms: C_10  and  C_11 
REMARK    7  A    between atoms: C_12  and  O_19 
REMARK    8  A    between atoms: C_14  and  O_18 
REMARK    9  A    between atoms: C_16  and  O_17 
ROOT
HETATM    1  C   UNL     1      28.616  74.735  15.086  1.00  0.00     0.003 A 
HETATM    2  C   UNL     1      29.748  75.255  15.684  1.00  0.00     0.007 A 
HETATM    3  C   UNL     1      29.959  76.622  15.698  1.00  0.00    -0.053 A 
HETATM    4  C   UNL     1      29.039  77.470  15.113  1.00  0.00     0.043 A 
HETATM    5  C   UNL     1      27.903  76.949  14.512  1.00  0.00     0.066 A 
HETATM    6  C   UNL     1      27.693  75.578  14.500  1.00  0.00     0.036 A 
ENDROOT
BRANCH   3   7
HETATM    7  C   UNL     1      31.194  77.187  16.351  1.00  0.00     0.070 C 
BRANCH   7   8
HETATM    8  C   UNL     1      30.933  77.392  17.845  1.00  0.00     0.127 C 
BRANCH   8   9
HETATM    9  C   UNL     1      32.267  77.533  18.582  1.00  0.00     0.076 C 
BRANCH   9  10
HETATM   10  C   UNL     1      32.101  77.086  20.011  1.00  0.00     0.011 A 
HETATM   11  C   UNL     1      32.346  75.766  20.359  1.00  0.00     0.077 A 
HETATM   12  C   UNL     1      32.194  75.355  21.674  1.00  0.00     0.073 A 
HETATM   13  C   UNL     1      31.795  76.265  22.642  1.00  0.00     0.071 A 
HETATM   14  C   UNL     1      31.551  77.585  22.295  1.00  0.00     0.073 A 
HETATM   15  C   UNL     1      31.708  77.997  20.981  1.00  0.00     0.077 A 
BRANCH  11  16
HETATM   16  O   UNL     1      32.736  74.875  19.409  1.00  0.00    -0.360 OA
HETATM   17  H   UNL     1      32.276  74.829  18.594  1.00  0.00     0.217 HD
ENDBRANCH  11  16
BRANCH  13  18
HETATM   18  O   UNL     1      31.644  75.862  23.932  1.00  0.00    -0.361 OA
HETATM   19  H   UNL     1      32.191  75.185  24.277  1.00  0.00     0.217 HD
ENDBRANCH  13  18
BRANCH  15  20
HETATM   20  O   UNL     1      31.468  79.291  20.641  1.00  0.00    -0.360 OA
HETATM   21  H   UNL     1      30.594  79.626  20.665  1.00  0.00     0.217 HD
ENDBRANCH  15  20
ENDBRANCH   9  10
ENDBRANCH   8   9
BRANCH   8  22
HETATM   22  O   UNL     1      30.157  78.577  18.034  1.00  0.00    -0.395 OA
HETATM   23  H   UNL     1      29.602  78.728  17.253  1.00  0.00     0.210 HD
ENDBRANCH   8  22
ENDBRANCH   7   8
ENDBRANCH   3   7
BRANCH   5  24
HETATM   24  O   UNL     1      26.995  77.782  13.936  1.00  0.00    -0.361 OA
HETATM   25  H   UNL     1      27.023  77.939  13.012  1.00  0.00     0.217 HD
ENDBRANCH   5  24
TORSDOF 9
ENDMDL
MODEL 4
REMARK VINA RESULT:      -7.7      3.893      6.854
REMARK  9 active torsions:
REMARK  status: ('A' for Active; 'I' for Inactive)
REMARK    1  A    between atoms: C_3  and  C_8 
REMARK    2  A    between atoms: C_5  and  O_7 
REMARK    3  A    between atoms: C_8  and  C_9 
REMARK    4  A    between atoms: C_9  and  C_10 
REMARK    5  A    between atoms: C_9  and  O_20 
REMARK    6  A    between atoms: C_10  and  C_11 
REMARK    7  A    between atoms: C_12  and  O_19 
REMARK    8  A    between atoms: C_14  and  O_18 
REMARK    9  A    between atoms: C_16  and  O_17 
ROOT
HETATM    1  C   UNL     1      28.622  74.733  15.062  1.00  0.00     0.003 A 
HETATM    2  C   UNL     1      29.756  75.249  15.661  1.00  0.00     0.007 A 
HETATM    3  C   UNL     1      29.965  76.616  15.687  1.00  0.00    -0.053 A 
HETATM    4  C   UNL     1      29.042  77.468  15.113  1.00  0.00     0.043 A 
HETATM    5  C   UNL     1      27.904  76.951  14.510  1.00  0.00     0.066 A 
HETATM    6  C   UNL     1      27.696  75.580  14.487  1.00  0.00     0.036 A 
ENDROOT
BRANCH   3   7
HETATM    7  C   UNL     1      31.202  77.176  16.341  1.00  0.00     0.070 C 
BRANCH   7   8
HETATM    8  C   UNL     1      30.938  77.387  17.834  1.00  0.00     0.127 C 
BRANCH   8   9
HETATM    9  C   UNL     1      32.271  77.532  18.572  1.00  0.00     0.076 C 
BRANCH   9  10
HETATM   10  C   UNL     1      32.104  77.089  20.002  1.00  0.00     0.011 A 
HETATM   11  C   UNL     1      31.717  78.003  20.971  1.00  0.00     0.077 A 
HETATM   12  C   UNL     1      31.563  77.594  22.287  1.00  0.00     0.073 A 
HETATM   13  C   UNL     1      31.797  76.272  22.635  1.00  0.00     0.071 A 
HETATM   14  C   UNL     1      32.182  75.358  21.665  1.00  0.00     0.073 A 
HETATM   15  C   UNL     1      32.331  75.766  20.349  1.00  0.00     0.077 A 
BRANCH  11  16
HETATM   16  O   UNL     1      31.489  79.298  20.630  1.00  0.00    -0.360 OA
HETATM   17  H   UNL     1      31.362  79.531  19.732  1.00  0.00     0.217 HD
ENDBRANCH  11  16
BRANCH  13  18
HETATM   18  O   UNL     1      31.647  75.872  23.925  1.00  0.00    -0.361 OA
HETATM   19  H   UNL     1      32.262  75.276  24.304  1.00  0.00     0.217 HD
ENDBRANCH  13  18
BRANCH  15  20
HETATM   20  O   UNL     1      32.710  74.870  19.399  1.00  0.00    -0.360 OA
HETATM   21  H   UNL     1      32.258  74.837  18.580  1.00  0.00     0.217 HD
ENDBRANCH  15  20
ENDBRANCH   9  10
ENDBRANCH   8   9
BRANCH   8  22
HETATM   22  O   UNL     1      30.161  78.572  18.017  1.00  0.00    -0.395 OA
HETATM   23  H   UNL     1      29.654  78.503  18.841  1.00  0.00     0.210 HD
ENDBRANCH   8  22
ENDBRANCH   7   8
ENDBRANCH   3   7
BRANCH   5  24
HETATM   24  O   UNL     1      26.994  77.788  13.945  1.00  0.00    -0.361 OA
HETATM   25  H   UNL     1      26.779  77.703  13.037  1.00  0.00     0.217 HD
ENDBRANCH   5  24
TORSDOF 9
ENDMDL
MODEL 5
REMARK VINA RESULT:      -7.6      2.911      5.351
REMARK  9 active torsions:
REMARK  status: ('A' for Active; 'I' for Inactive)
REMARK    1  A    between atoms: C_3  and  C_8 
REMARK    2  A    between atoms: C_5  and  O_7 
REMARK    3  A    between atoms: C_8  and  C_9 
REMARK    4  A    between atoms: C_9  and  C_10 
REMARK    5  A    between atoms: C_9  and  O_20 
REMARK    6  A    between atoms: C_10  and  C_11 
REMARK    7  A    between atoms: C_12  and  O_19 
REMARK    8  A    between atoms: C_14  and  O_18 
REMARK    9  A    between atoms: C_16  and  O_17 
ROOT
HETATM    1  C   UNL     1      30.659  75.105  16.449  1.00  0.00     0.003 A 
HETATM    2  C   UNL     1      31.324  75.763  17.466  1.00  0.00     0.007 A 
HETATM    3  C   UNL     1      31.167  77.127  17.629  1.00  0.00    -0.053 A 
HETATM    4  C   UNL     1      30.346  77.835  16.775  1.00  0.00     0.043 A 
HETATM    5  C   UNL     1      29.677  77.177  15.753  1.00  0.00     0.066 A 
HETATM    6  C   UNL     1      29.836  75.809  15.592  1.00  0.00     0.036 A 
ENDROOT
BRANCH   3   7
HETATM    7  C   UNL     1      31.894  77.841  18.740  1.00  0.00     0.070 C 
BRANCH   7   8
HETATM    8  C   UNL     1      31.102  77.699  20.042  1.00  0.00     0.127 C 
BRANCH   8   9
HETATM    9  C   UNL     1      32.063  77.388  21.191  1.00  0.00     0.076 C 
BRANCH   9  10
HETATM   10  C   UNL     1      31.708  76.055  21.796  1.00  0.00     0.011 A 
HETATM   11  C   UNL     1      32.295  74.894  21.314  1.00  0.00     0.077 A 
HETATM   12  C   UNL     1      31.968  73.668  21.871  1.00  0.00     0.073 A 
HETATM   13  C   UNL     1      31.052  73.601  22.910  1.00  0.00     0.071 A 
HETATM   14  C   UNL     1      30.466  74.761  23.394  1.00  0.00     0.073 A 
HETATM   15  C   UNL     1      30.797  75.988  22.840  1.00  0.00     0.077 A 
BRANCH  11  16
HETATM   16  O   UNL     1      33.191  74.961  20.294  1.00  0.00    -0.360 OA
HETATM   17  H   UNL     1      33.718  74.216  20.085  1.00  0.00     0.217 HD
ENDBRANCH  11  16
BRANCH  13  18
HETATM   18  O   UNL     1      30.731  72.398  23.456  1.00  0.00    -0.361 OA
HETATM   19  H   UNL     1      31.332  71.682  23.398  1.00  0.00     0.217 HD
ENDBRANCH  13  18
BRANCH  15  20
HETATM   20  O   UNL     1      30.221  77.124  23.314  1.00  0.00    -0.360 OA
HETATM   21  H   UNL     1      30.311  77.927  22.839  1.00  0.00     0.217 HD
ENDBRANCH  15  20
ENDBRANCH   9  10
ENDBRANCH   8   9
BRANCH   8  22
HETATM   22  O   UNL     1      30.412  78.919  20.315  1.00  0.00    -0.395 OA
HETATM   23  H   UNL     1      29.911  78.830  21.141  1.00  0.00     0.210 HD
ENDBRANCH   8  22
ENDBRANCH   7   8
ENDBRANCH   3   7
BRANCH   5  24
HETATM   24  O   UNL     1      28.867  77.873  14.911  1.00  0.00    -0.361 OA
HETATM   25  H   UNL     1      29.080  77.935  14.000  1.00  0.00     0.217 HD
ENDBRANCH   5  24
TORSDOF 9
ENDMDL
MODEL 6
REMARK VINA RESULT:      -7.6      2.914      5.127
REMARK  9 active torsions:
REMARK  status: ('A' for Active; 'I' for Inactive)
REMARK    1  A    between atoms: C_3  and  C_8 
REMARK    2  A    between atoms: C_5  and  O_7 
REMARK    3  A    between atoms: C_8  and  C_9 
REMARK    4  A    between atoms: C_9  and  C_10 
REMARK    5  A    between atoms: C_9  and  O_20 
REMARK    6  A    between atoms: C_10  and  C_11 
REMARK    7  A    between atoms: C_12  and  O_19 
REMARK    8  A    between atoms: C_14  and  O_18 
REMARK    9  A    between atoms: C_16  and  O_17 
ROOT
HETATM    1  C   UNL     1      30.652  75.124  16.425  1.00  0.00     0.003 A 
HETATM    2  C   UNL     1      31.320  75.775  17.444  1.00  0.00     0.007 A 
HETATM    3  C   UNL     1      31.159  77.138  17.620  1.00  0.00    -0.053 A 
HETATM    4  C   UNL     1      30.331  77.850  16.776  1.00  0.00     0.043 A 
HETATM    5  C   UNL     1      29.659  77.199  15.751  1.00  0.00     0.066 A 
HETATM    6  C   UNL     1      29.822  75.832  15.578  1.00  0.00     0.036 A 
ENDROOT
BRANCH   3   7
HETATM    7  C   UNL     1      31.889  77.845  18.733  1.00  0.00     0.070 C 
BRANCH   7   8
HETATM    8  C   UNL     1      31.103  77.693  20.037  1.00  0.00     0.127 C 
BRANCH   8   9
HETATM    9  C   UNL     1      32.069  77.380  21.181  1.00  0.00     0.076 C 
BRANCH   9  10
HETATM   10  C   UNL     1      31.712  76.048  21.789  1.00  0.00     0.011 A 
HETATM   11  C   UNL     1      30.798  75.983  22.830  1.00  0.00     0.077 A 
HETATM   12  C   UNL     1      30.469  74.757  23.389  1.00  0.00     0.073 A 
HETATM   13  C   UNL     1      31.056  73.596  22.908  1.00  0.00     0.071 A 
HETATM   14  C   UNL     1      31.969  73.661  21.866  1.00  0.00     0.073 A 
HETATM   15  C   UNL     1      32.294  74.886  21.304  1.00  0.00     0.077 A 
BRANCH  11  16
HETATM   16  O   UNL     1      30.224  77.121  23.302  1.00  0.00    -0.360 OA
HETATM   17  H   UNL     1      29.484  77.070  23.874  1.00  0.00     0.217 HD
ENDBRANCH  11  16
BRANCH  13  18
HETATM   18  O   UNL     1      30.735  72.395  23.457  1.00  0.00    -0.361 OA
HETATM   19  H   UNL     1      30.423  71.700  22.912  1.00  0.00     0.217 HD
ENDBRANCH  13  18
BRANCH  15  20
HETATM   20  O   UNL     1      33.190  74.950  20.284  1.00  0.00    -0.360 OA
HETATM   21  H   UNL     1      33.661  74.182  20.027  1.00  0.00     0.217 HD
ENDBRANCH  15  20
ENDBRANCH   9  10
ENDBRANCH   8   9
BRANCH   8  22
HETATM   22  O   UNL     1      30.409  78.909  20.318  1.00  0.00    -0.395 OA
HETATM   23  H   UNL     1      29.911  78.814  21.146  1.00  0.00     0.210 HD
ENDBRANCH   8  22
ENDBRANCH   7   8
ENDBRANCH   3   7
BRANCH   5  24
HETATM   24  O   UNL     1      28.842  77.899  14.920  1.00  0.00    -0.361 OA
HETATM   25  H   UNL     1      28.184  77.452  14.424  1.00  0.00     0.217 HD
ENDBRANCH   5  24
TORSDOF 9
ENDMDL
MODEL 7
REMARK VINA RESULT:      -7.5      1.244      2.467
REMARK  9 active torsions:
REMARK  status: ('A' for Active; 'I' for Inactive)
REMARK    1  A    between atoms: C_3  and  C_8 
REMARK    2  A    between atoms: C_5  and  O_7 
REMARK    3  A    between atoms: C_8  and  C_9 
REMARK    4  A    between atoms: C_9  and  C_10 
REMARK    5  A    between atoms: C_9  and  O_20 
REMARK    6  A    between atoms: C_10  and  C_11 
REMARK    7  A    between atoms: C_12  and  O_19 
REMARK    8  A    between atoms: C_14  and  O_18 
REMARK    9  A    between atoms: C_16  and  O_17 
ROOT
HETATM    1  C   UNL     1      31.195  78.320  20.587  1.00  0.00     0.003 A 
HETATM    2  C   UNL     1      31.797  77.557  21.569  1.00  0.00     0.007 A 
HETATM    3  C   UNL     1      32.130  76.238  21.316  1.00  0.00    -0.053 A 
HETATM    4  C   UNL     1      31.860  75.682  20.082  1.00  0.00     0.043 A 
HETATM    5  C   UNL     1      31.255  76.446  19.094  1.00  0.00     0.066 A 
HETATM    6  C   UNL     1      30.923  77.769  19.350  1.00  0.00     0.036 A 
ENDROOT
BRANCH   3   7
HETATM    7  C   UNL     1      32.786  75.408  22.389  1.00  0.00     0.070 C 
BRANCH   7   8
HETATM    8  C   UNL     1      32.678  73.926  22.026  1.00  0.00     0.127 C 
BRANCH   8   9
HETATM    9  C   UNL     1      34.065  73.283  22.089  1.00  0.00     0.076 C 
BRANCH   9  10
HETATM   10  C   UNL     1      33.923  71.783  22.100  1.00  0.00     0.011 A 
HETATM   11  C   UNL     1      33.927  71.077  20.906  1.00  0.00     0.077 A 
HETATM   12  C   UNL     1      33.797  69.696  20.915  1.00  0.00     0.073 A 
HETATM   13  C   UNL     1      33.660  69.021  22.119  1.00  0.00     0.071 A 
HETATM   14  C   UNL     1      33.657  69.727  23.313  1.00  0.00     0.073 A 
HETATM   15  C   UNL     1      33.793  71.107  23.303  1.00  0.00     0.077 A 
BRANCH  11  16
HETATM   16  O   UNL     1      34.060  71.739  19.726  1.00  0.00    -0.360 OA
HETATM   17  H   UNL     1      33.938  72.667  19.694  1.00  0.00     0.217 HD
ENDBRANCH  11  16
BRANCH  13  18
HETATM   18  O   UNL     1      33.531  67.669  22.129  1.00  0.00    -0.361 OA
HETATM   19  H   UNL     1      34.288  67.127  22.237  1.00  0.00     0.217 HD
ENDBRANCH  13  18
BRANCH  15  20
HETATM   20  O   UNL     1      33.788  71.798  24.474  1.00  0.00    -0.360 OA
HETATM   21  H   UNL     1      34.211  71.441  25.230  1.00  0.00     0.217 HD
ENDBRANCH  15  20
ENDBRANCH   9  10
ENDBRANCH   8   9
BRANCH   8  22
HETATM   22  O   UNL     1      31.807  73.272  22.950  1.00  0.00    -0.395 OA
HETATM   23  H   UNL     1      31.042  73.841  23.132  1.00  0.00     0.210 HD
ENDBRANCH   8  22
ENDBRANCH   7   8
ENDBRANCH   3   7
BRANCH   5  24
HETATM   24  O   UNL     1      30.990  75.901  17.878  1.00  0.00    -0.361 OA
HETATM   25  H   UNL     1      31.347  75.064  17.651  1.00  0.00     0.217 HD
ENDBRANCH   5  24
TORSDOF 9
ENDMDL
MODEL 8
REMARK VINA RESULT:      -7.5      1.115      1.530
REMARK  9 active torsions:
REMARK  status: ('A' for Active; 'I' for Inactive)
REMARK    1  A    between atoms: C_3  and  C_8 
REMARK    2  A    between atoms: C_5  and  O_7 
REMARK    3  A    between atoms: C_8  and  C_9 
REMARK    4  A    between atoms: C_9  and  C_10 
REMARK    5  A    between atoms: C_9  and  O_20 
REMARK    6  A    between atoms: C_10  and  C_11 
REMARK    7  A    between atoms: C_12  and  O_19 
REMARK    8  A    between atoms: C_14  and  O_18 
REMARK    9  A    between atoms: C_16  and  O_17 
ROOT
HETATM    1  C   UNL     1      30.915  78.499  21.091  1.00  0.00     0.003 A 
HETATM    2  C   UNL     1      31.629  77.693  21.958  1.00  0.00     0.007 A 
HETATM    3  C   UNL     1      32.105  76.467  21.531  1.00  0.00    -0.053 A 
HETATM    4  C   UNL     1      31.866  76.044  20.239  1.00  0.00     0.043 A 
HETATM    5  C   UNL     1      31.149  76.851  19.367  1.00  0.00     0.066 A 
HETATM    6  C   UNL     1      30.674  78.081  19.797  1.00  0.00     0.036 A 
ENDROOT
BRANCH   3   7
HETATM    7  C   UNL     1      32.884  75.591  22.478  1.00  0.00     0.070 C 
BRANCH   7   8
HETATM    8  C   UNL     1      32.780  74.132  22.027  1.00  0.00     0.127 C 
BRANCH   8   9
HETATM    9  C   UNL     1      34.141  73.452  22.184  1.00  0.00     0.076 C 
BRANCH   9  10
HETATM   10  C   UNL     1      33.963  71.956  22.141  1.00  0.00     0.011 A 
HETATM   11  C   UNL     1      33.786  71.244  23.319  1.00  0.00     0.077 A 
HETATM   12  C   UNL     1      33.621  69.868  23.279  1.00  0.00     0.073 A 
HETATM   13  C   UNL     1      33.635  69.203  22.063  1.00  0.00     0.071 A 
HETATM   14  C   UNL     1      33.811  69.915  20.885  1.00  0.00     0.073 A 
HETATM   15  C   UNL     1      33.970  71.291  20.924  1.00  0.00     0.077 A 
BRANCH  11  16
HETATM   16  O   UNL     1      33.773  71.897  24.511  1.00  0.00    -0.360 OA
HETATM   17  H   UNL     1      33.787  72.833  24.532  1.00  0.00     0.217 HD
ENDBRANCH  11  16
BRANCH  13  18
HETATM   18  O   UNL     1      33.475  67.854  22.024  1.00  0.00    -0.361 OA
HETATM   19  H   UNL     1      34.047  67.330  21.499  1.00  0.00     0.217 HD
ENDBRANCH  13  18
BRANCH  15  20
HETATM   20  O   UNL     1      34.144  71.988  19.770  1.00  0.00    -0.360 OA
HETATM   21  H   UNL     1      34.988  72.330  19.552  1.00  0.00     0.217 HD
ENDBRANCH  15  20
ENDBRANCH   9  10
ENDBRANCH   8   9
BRANCH   8  22
HETATM   22  O   UNL     1      31.813  73.454  22.831  1.00  0.00    -0.395 OA
HETATM   23  H   UNL     1      31.615  72.589  22.437  1.00  0.00     0.210 HD
ENDBRANCH   8  22
ENDBRANCH   7   8
ENDBRANCH   3   7
BRANCH   5  24
HETATM   24  O   UNL     1      30.914  76.437  18.094  1.00  0.00    -0.361 OA
HETATM   25  H   UNL     1      30.397  75.671  17.938  1.00  0.00     0.217 HD
ENDBRANCH   5  24
TORSDOF 9
ENDMDL
MODEL 9
REMARK VINA RESULT:      -7.3      4.204      6.741
REMARK  9 active torsions:
REMARK  status: ('A' for Active; 'I' for Inactive)
REMARK    1  A    between atoms: C_3  and  C_8 
REMARK    2  A    between atoms: C_5  and  O_7 
REMARK    3  A    between atoms: C_8  and  C_9 
REMARK    4  A    between atoms: C_9  and  C_10 
REMARK    5  A    between atoms: C_9  and  O_20 
REMARK    6  A    between atoms: C_10  and  C_11 
REMARK    7  A    between atoms: C_12  and  O_19 
REMARK    8  A    between atoms: C_14  and  O_18 
REMARK    9  A    between atoms: C_16  and  O_17 
ROOT
HETATM    1  C   UNL     1      29.659  76.770  15.457  1.00  0.00     0.003 A 
HETATM    2  C   UNL     1      30.162  75.778  16.277  1.00  0.00     0.007 A 
HETATM    3  C   UNL     1      31.315  76.000  17.008  1.00  0.00    -0.053 A 
HETATM    4  C   UNL     1      31.966  77.214  16.919  1.00  0.00     0.043 A 
HETATM    5  C   UNL     1      31.463  78.212  16.097  1.00  0.00     0.066 A 
HETATM    6  C   UNL     1      30.306  77.987  15.365  1.00  0.00     0.036 A 
ENDROOT
BRANCH   3   7
HETATM    7  C   UNL     1      31.860  74.916  17.902  1.00  0.00     0.070 C 
BRANCH   7   8
HETATM    8  C   UNL     1      32.477  75.548  19.152  1.00  0.00     0.127 C 
BRANCH   8   9
HETATM    9  C   UNL     1      31.385  75.781  20.197  1.00  0.00     0.076 C 
BRANCH   9  10
HETATM   10  C   UNL     1      31.710  77.017  20.996  1.00  0.00     0.011 A 
HETATM   11  C   UNL     1      31.176  78.242  20.626  1.00  0.00     0.077 A 
HETATM   12  C   UNL     1      31.475  79.380  21.361  1.00  0.00     0.073 A 
HETATM   13  C   UNL     1      32.309  79.291  22.466  1.00  0.00     0.071 A 
HETATM   14  C   UNL     1      32.842  78.066  22.836  1.00  0.00     0.073 A 
HETATM   15  C   UNL     1      32.539  76.928  22.104  1.00  0.00     0.077 A 
BRANCH  11  16
HETATM   16  O   UNL     1      30.360  78.328  19.543  1.00  0.00    -0.360 OA
HETATM   17  H   UNL     1      29.583  78.850  19.581  1.00  0.00     0.217 HD
ENDBRANCH  11  16
BRANCH  13  18
HETATM   18  O   UNL     1      32.603  80.406  23.185  1.00  0.00    -0.361 OA
HETATM   19  H   UNL     1      33.495  80.616  23.379  1.00  0.00     0.217 HD
ENDBRANCH  13  18
BRANCH  15  20
HETATM   20  O   UNL     1      33.062  75.727  22.467  1.00  0.00    -0.360 OA
HETATM   21  H   UNL     1      32.920  75.397  23.332  1.00  0.00     0.217 HD
ENDBRANCH  15  20
ENDBRANCH   9  10
ENDBRANCH   8   9
BRANCH   8  22
HETATM   22  O   UNL     1      33.470  74.670  19.687  1.00  0.00    -0.395 OA
HETATM   23  H   UNL     1      34.251  74.676  19.112  1.00  0.00     0.210 HD
ENDBRANCH   8  22
ENDBRANCH   7   8
ENDBRANCH   3   7
BRANCH   5  24
HETATM   24  O   UNL     1      32.102  79.408  16.008  1.00  0.00    -0.361 OA
HETATM   25  H   UNL     1      31.606  80.201  15.941  1.00  0.00     0.217 HD
ENDBRANCH   5  24
TORSDOF 9
ENDMDL
