MODEL 1
REMARK VINA RESULT:      -7.9      0.000      0.000
REMARK  9 active torsions:
REMARK  status: ('A' for Active; 'I' for Inactive)
REMARK    1  A    between atoms: C_3  and  C_8 
REMARK    2  A    between atoms: C_5  and  O_7 
REMARK    3  A    between atoms: C_8  and  C_9 
REMARK    4  A    between atoms: C_9  and  C_10 
REMARK    5  A    between atoms: C_9  and  O_20 
REMARK    6  A    between atoms: C_10  and  C_11 
REMARK    7  A    between atoms: C_12  and  O_19 
REMARK    8  A    between atoms: C_14  and  O_18 
REMARK    9  A    between atoms: C_16  and  O_17 
ROOT
HETATM    1  C   UNL     1      31.116  76.833  19.544  1.00  0.00     0.003 A 
HETATM    2  C   UNL     1      31.716  75.946  20.418  1.00  0.00     0.007 A 
HETATM    3  C   UNL     1      32.238  76.399  21.616  1.00  0.00    -0.053 A 
HETATM    4  C   UNL     1      32.162  77.739  21.940  1.00  0.00     0.043 A 
HETATM    5  C   UNL     1      31.561  78.631  21.065  1.00  0.00     0.066 A 
HETATM    6  C   UNL     1      31.037  78.174  19.864  1.00  0.00     0.036 A 
ENDROOT
BRANCH   3   7
HETATM    7  C   UNL     1      32.892  75.429  22.566  1.00  0.00     0.070 C 
BRANCH   7   8
HETATM    8  C   UNL     1      32.787  74.011  22.001  1.00  0.00     0.127 C 
BRANCH   8   9
HETATM    9  C   UNL     1      34.155  73.331  22.073  1.00  0.00     0.076 C 
BRANCH   9  10
HETATM   10  C   UNL     1      33.973  71.835  22.081  1.00  0.00     0.011 A 
HETATM   11  C   UNL     1      33.967  71.130  20.887  1.00  0.00     0.077 A 
HETATM   12  C   UNL     1      33.800  69.753  20.895  1.00  0.00     0.073 A 
HETATM   13  C   UNL     1      33.636  69.082  22.097  1.00  0.00     0.071 A 
HETATM   14  C   UNL     1      33.643  69.787  23.291  1.00  0.00     0.073 A 
HETATM   15  C   UNL     1      33.816  71.162  23.283  1.00  0.00     0.077 A 
BRANCH  11  16
HETATM   16  O   UNL     1      34.126  71.788  19.709  1.00  0.00    -0.360 OA
HETATM   17  H   UNL     1      33.840  72.677  19.627  1.00  0.00     0.217 HD
ENDBRANCH  11  16
BRANCH  13  18
HETATM   18  O   UNL     1      33.471  67.733  22.105  1.00  0.00    -0.361 OA
HETATM   19  H   UNL     1      34.095  67.183  21.675  1.00  0.00     0.217 HD
ENDBRANCH  13  18
BRANCH  15  20
HETATM   20  O   UNL     1      33.821  71.853  24.454  1.00  0.00    -0.360 OA
HETATM   21  H   UNL     1      33.039  71.914  24.965  1.00  0.00     0.217 HD
ENDBRANCH  15  20
ENDBRANCH   9  10
ENDBRANCH   8   9
BRANCH   8  22
HETATM   22  O   UNL     1      31.842  73.262  22.768  1.00  0.00    -0.395 OA
HETATM   23  H   UNL     1      31.220  72.816  22.171  1.00  0.00     0.210 HD
ENDBRANCH   8  22
ENDBRANCH   7   8
ENDBRANCH   3   7
BRANCH   5  24
HETATM   24  O   UNL     1      31.484  79.951  21.383  1.00  0.00    -0.361 OA
HETATM   25  H   UNL     1      32.193  80.365  21.836  1.00  0.00     0.217 HD
ENDBRANCH   5  24
TORSDOF 9
ENDMDL
MODEL 2
REMARK VINA RESULT:      -7.9      0.015      1.848
REMARK  9 active torsions:
REMARK  status: ('A' for Active; 'I' for Inactive)
REMARK    1  A    between atoms: C_3  and  C_8 
REMARK    2  A    between atoms: C_5  and  O_7 
REMARK    3  A    between atoms: C_8  and  C_9 
REMARK    4  A    between atoms: C_9  and  C_10 
REMARK    5  A    between atoms: C_9  and  O_20 
REMARK    6  A    between atoms: C_10  and  C_11 
REMARK    7  A    between atoms: C_12  and  O_19 
REMARK    8  A    between atoms: C_14  and  O_18 
REMARK    9  A    between atoms: C_16  and  O_17 
ROOT
HETATM    1  C   UNL     1      31.112  76.821  19.553  1.00  0.00     0.003 A 
HETATM    2  C   UNL     1      31.720  75.936  20.423  1.00  0.00     0.007 A 
HETATM    3  C   UNL     1      32.248  76.391  21.618  1.00  0.00    -0.053 A 
HETATM    4  C   UNL     1      32.168  77.730  21.944  1.00  0.00     0.043 A 
HETATM    5  C   UNL     1      31.558  78.620  21.072  1.00  0.00     0.066 A 
HETATM    6  C   UNL     1      31.029  78.161  19.875  1.00  0.00     0.036 A 
ENDROOT
BRANCH   3   7
HETATM    7  C   UNL     1      32.911  75.424  22.565  1.00  0.00     0.070 C 
BRANCH   7   8
HETATM    8  C   UNL     1      32.795  74.003  22.008  1.00  0.00     0.127 C 
BRANCH   8   9
HETATM    9  C   UNL     1      34.162  73.319  22.066  1.00  0.00     0.076 C 
BRANCH   9  10
HETATM   10  C   UNL     1      33.975  71.824  22.077  1.00  0.00     0.011 A 
HETATM   11  C   UNL     1      33.810  71.154  23.281  1.00  0.00     0.077 A 
HETATM   12  C   UNL     1      33.638  69.778  23.291  1.00  0.00     0.073 A 
HETATM   13  C   UNL     1      33.632  69.072  22.098  1.00  0.00     0.071 A 
HETATM   14  C   UNL     1      33.796  69.741  20.895  1.00  0.00     0.073 A 
HETATM   15  C   UNL     1      33.963  71.117  20.884  1.00  0.00     0.077 A 
BRANCH  11  16
HETATM   16  O   UNL     1      33.817  71.847  24.450  1.00  0.00    -0.360 OA
HETATM   17  H   UNL     1      33.043  72.289  24.737  1.00  0.00     0.217 HD
ENDBRANCH  11  16
BRANCH  13  18
HETATM   18  O   UNL     1      33.465  67.723  22.108  1.00  0.00    -0.361 OA
HETATM   19  H   UNL     1      34.167  67.162  21.842  1.00  0.00     0.217 HD
ENDBRANCH  13  18
BRANCH  15  20
HETATM   20  O   UNL     1      34.125  71.773  19.704  1.00  0.00    -0.360 OA
HETATM   21  H   UNL     1      33.627  72.546  19.526  1.00  0.00     0.217 HD
ENDBRANCH  15  20
ENDBRANCH   9  10
ENDBRANCH   8   9
BRANCH   8  22
HETATM   22  O   UNL     1      31.857  73.261  22.790  1.00  0.00    -0.395 OA
HETATM   23  H   UNL     1      31.028  73.759  22.860  1.00  0.00     0.210 HD
ENDBRANCH   8  22
ENDBRANCH   7   8
ENDBRANCH   3   7
BRANCH   5  24
HETATM   24  O   UNL     1      31.478  79.939  21.391  1.00  0.00    -0.361 OA
HETATM   25  H   UNL     1      30.962  80.214  22.123  1.00  0.00     0.217 HD
ENDBRANCH   5  24
TORSDOF 9
ENDMDL
MODEL 3
REMARK VINA RESULT:      -7.7      3.886      6.847
REMARK  9 active torsions:
REMARK  status: ('A' for Active; 'I' for Inactive)
REMARK    1  A    between atoms: C_3  and  C_8 
REMARK    2  A    between atoms: C_5  and  O_7 
REMARK    3  A    between atoms: C_8  and  C_9 
REMARK    4  A    between atoms: C_9  and  C_10 
REMARK    5  A    between atoms: C_9  and  O_20 
REMARK    6  A    between atoms: C_10  and  C_11 
REMARK    7  A    between atoms: C_12  and  O_19 
REMARK    8  A    between atoms: C_14  and  O_18 
REMARK    9  A    between atoms: C_16  and  O_17 
ROOT
HETATM    1  C   UNL     1      28.607  74.718  15.076  1.00  0.00     0.003 A 
HETATM    2  C   UNL     1      29.745  75.224  15.675  1.00  0.00     0.007 A 
HETATM    3  C   UNL     1      29.967  76.589  15.698  1.00  0.00    -0.053 A 
HETATM    4  C   UNL     1      29.054  77.448  15.121  1.00  0.00     0.043 A 
HETATM    5  C   UNL     1      27.911  76.942  14.518  1.00  0.00     0.066 A 
HETATM    6  C   UNL     1      27.690  75.573  14.498  1.00  0.00     0.036 A 
ENDROOT
BRANCH   3   7
HETATM    7  C   UNL     1      31.209  77.139  16.353  1.00  0.00     0.070 C 
BRANCH   7   8
HETATM    8  C   UNL     1      30.935  77.388  17.838  1.00  0.00     0.127 C 
BRANCH   8   9
HETATM    9  C   UNL     1      32.262  77.543  18.582  1.00  0.00     0.076 C 
BRANCH   9  10
HETATM   10  C   UNL     1      32.092  77.097  20.011  1.00  0.00     0.011 A 
HETATM   11  C   UNL     1      32.351  75.781  20.363  1.00  0.00     0.077 A 
HETATM   12  C   UNL     1      32.195  75.370  21.678  1.00  0.00     0.073 A 
HETATM   13  C   UNL     1      31.778  76.276  22.642  1.00  0.00     0.071 A 
HETATM   14  C   UNL     1      31.520  77.593  22.291  1.00  0.00     0.073 A 
HETATM   15  C   UNL     1      31.682  78.004  20.977  1.00  0.00     0.077 A 
BRANCH  11  16
HETATM   16  O   UNL     1      32.758  74.893  19.418  1.00  0.00    -0.360 OA
HETATM   17  H   UNL     1      33.631  74.936  19.080  1.00  0.00     0.217 HD
ENDBRANCH  11  16
BRANCH  13  18
HETATM   18  O   UNL     1      31.623  75.874  23.931  1.00  0.00    -0.361 OA
HETATM   19  H   UNL     1      32.325  75.982  24.542  1.00  0.00     0.217 HD
ENDBRANCH  13  18
BRANCH  15  20
HETATM   20  O   UNL     1      31.428  79.295  20.632  1.00  0.00    -0.360 OA
HETATM   21  H   UNL     1      31.858  79.675  19.893  1.00  0.00     0.217 HD
ENDBRANCH  15  20
ENDBRANCH   9  10
ENDBRANCH   8   9
BRANCH   8  22
HETATM   22  O   UNL     1      30.163  78.581  17.986  1.00  0.00    -0.395 OA
HETATM   23  H   UNL     1      30.212  78.886  18.906  1.00  0.00     0.210 HD
ENDBRANCH   8  22
ENDBRANCH   7   8
ENDBRANCH   3   7
BRANCH   5  24
HETATM   24  O   UNL     1      27.010  77.786  13.950  1.00  0.00    -0.361 OA
HETATM   25  H   UNL     1      26.486  77.497  13.229  1.00  0.00     0.217 HD
ENDBRANCH   5  24
TORSDOF 9
ENDMDL
MODEL 4
REMARK VINA RESULT:      -7.7      3.886      6.911
REMARK  9 active torsions:
REMARK  status: ('A' for Active; 'I' for Inactive)
REMARK    1  A    between atoms: C_3  and  C_8 
REMARK    2  A    between atoms: C_5  and  O_7 
REMARK    3  A    between atoms: C_8  and  C_9 
REMARK    4  A    between atoms: C_9  and  C_10 
REMARK    5  A    between atoms: C_9  and  O_20 
REMARK    6  A    between atoms: C_10  and  C_11 
REMARK    7  A    between atoms: C_12  and  O_19 
REMARK    8  A    between atoms: C_14  and  O_18 
REMARK    9  A    between atoms: C_16  and  O_17 
ROOT
HETATM    1  C   UNL     1      28.633  74.735  15.067  1.00  0.00     0.003 A 
HETATM    2  C   UNL     1      29.763  75.258  15.667  1.00  0.00     0.007 A 
HETATM    3  C   UNL     1      29.965  76.626  15.691  1.00  0.00    -0.053 A 
HETATM    4  C   UNL     1      29.039  77.472  15.116  1.00  0.00     0.043 A 
HETATM    5  C   UNL     1      27.904  76.949  14.512  1.00  0.00     0.066 A 
HETATM    6  C   UNL     1      27.703  75.577  14.490  1.00  0.00     0.036 A 
ENDROOT
BRANCH   3   7
HETATM    7  C   UNL     1      31.198  77.192  16.347  1.00  0.00     0.070 C 
BRANCH   7   8
HETATM    8  C   UNL     1      30.937  77.391  17.841  1.00  0.00     0.127 C 
BRANCH   8   9
HETATM    9  C   UNL     1      32.270  77.533  18.578  1.00  0.00     0.076 C 
BRANCH   9  10
HETATM   10  C   UNL     1      32.104  77.084  20.007  1.00  0.00     0.011 A 
HETATM   11  C   UNL     1      31.712  77.993  20.979  1.00  0.00     0.077 A 
HETATM   12  C   UNL     1      31.560  77.580  22.294  1.00  0.00     0.073 A 
HETATM   13  C   UNL     1      31.799  76.258  22.637  1.00  0.00     0.071 A 
HETATM   14  C   UNL     1      32.189  75.349  21.665  1.00  0.00     0.073 A 
HETATM   15  C   UNL     1      32.337  75.761  20.350  1.00  0.00     0.077 A 
BRANCH  11  16
HETATM   16  O   UNL     1      31.479  79.289  20.642  1.00  0.00    -0.360 OA
HETATM   17  H   UNL     1      31.372  79.935  21.312  1.00  0.00     0.217 HD
ENDBRANCH  11  16
BRANCH  13  18
HETATM   18  O   UNL     1      31.650  75.853  23.926  1.00  0.00    -0.361 OA
HETATM   19  H   UNL     1      32.359  75.431  24.369  1.00  0.00     0.217 HD
ENDBRANCH  13  18
BRANCH  15  20
HETATM   20  O   UNL     1      32.720  74.870  19.398  1.00  0.00    -0.360 OA
HETATM   21  H   UNL     1      33.586  74.513  19.412  1.00  0.00     0.217 HD
ENDBRANCH  15  20
ENDBRANCH   9  10
ENDBRANCH   8   9
BRANCH   8  22
HETATM   22  O   UNL     1      30.158  78.574  18.035  1.00  0.00    -0.395 OA
HETATM   23  H   UNL     1      30.584  79.319  17.583  1.00  0.00     0.210 HD
ENDBRANCH   8  22
ENDBRANCH   7   8
ENDBRANCH   3   7
BRANCH   5  24
HETATM   24  O   UNL     1      26.990  77.781  13.946  1.00  0.00    -0.361 OA
HETATM   25  H   UNL     1      26.960  77.880  13.014  1.00  0.00     0.217 HD
ENDBRANCH   5  24
TORSDOF 9
ENDMDL
MODEL 5
REMARK VINA RESULT:      -7.6      2.915      5.125
REMARK  9 active torsions:
REMARK  status: ('A' for Active; 'I' for Inactive)
REMARK    1  A    between atoms: C_3  and  C_8 
REMARK    2  A    between atoms: C_5  and  O_7 
REMARK    3  A    between atoms: C_8  and  C_9 
REMARK    4  A    between atoms: C_9  and  C_10 
REMARK    5  A    between atoms: C_9  and  O_20 
REMARK    6  A    between atoms: C_10  and  C_11 
REMARK    7  A    between atoms: C_12  and  O_19 
REMARK    8  A    between atoms: C_14  and  O_18 
REMARK    9  A    between atoms: C_16  and  O_17 
ROOT
HETATM    1  C   UNL     1      30.646  75.121  16.433  1.00  0.00     0.003 A 
HETATM    2  C   UNL     1      31.315  75.776  17.449  1.00  0.00     0.007 A 
HETATM    3  C   UNL     1      31.152  77.138  17.621  1.00  0.00    -0.053 A 
HETATM    4  C   UNL     1      30.321  77.847  16.777  1.00  0.00     0.043 A 
HETATM    5  C   UNL     1      29.649  77.192  15.756  1.00  0.00     0.066 A 
HETATM    6  C   UNL     1      29.813  75.825  15.586  1.00  0.00     0.036 A 
ENDROOT
BRANCH   3   7
HETATM    7  C   UNL     1      31.883  77.850  18.731  1.00  0.00     0.070 C 
BRANCH   7   8
HETATM    8  C   UNL     1      31.098  77.701  20.037  1.00  0.00     0.127 C 
BRANCH   8   9
HETATM    9  C   UNL     1      32.065  77.388  21.180  1.00  0.00     0.076 C 
BRANCH   9  10
HETATM   10  C   UNL     1      31.707  76.057  21.790  1.00  0.00     0.011 A 
HETATM   11  C   UNL     1      32.287  74.893  21.305  1.00  0.00     0.077 A 
HETATM   12  C   UNL     1      31.958  73.669  21.866  1.00  0.00     0.073 A 
HETATM   13  C   UNL     1      31.048  73.607  22.912  1.00  0.00     0.071 A 
HETATM   14  C   UNL     1      30.470  74.771  23.397  1.00  0.00     0.073 A 
HETATM   15  C   UNL     1      30.803  75.995  22.839  1.00  0.00     0.077 A 
BRANCH  11  16
HETATM   16  O   UNL     1      33.177  74.954  20.280  1.00  0.00    -0.360 OA
HETATM   17  H   UNL     1      33.896  74.355  20.248  1.00  0.00     0.217 HD
ENDBRANCH  11  16
BRANCH  13  18
HETATM   18  O   UNL     1      30.725  72.407  23.461  1.00  0.00    -0.361 OA
HETATM   19  H   UNL     1      31.392  71.769  23.618  1.00  0.00     0.217 HD
ENDBRANCH  13  18
BRANCH  15  20
HETATM   20  O   UNL     1      30.235  77.136  23.314  1.00  0.00    -0.360 OA
HETATM   21  H   UNL     1      29.379  77.109  23.692  1.00  0.00     0.217 HD
ENDBRANCH  15  20
ENDBRANCH   9  10
ENDBRANCH   8   9
BRANCH   8  22
HETATM   22  O   UNL     1      30.407  78.919  20.318  1.00  0.00    -0.395 OA
HETATM   23  H   UNL     1      30.858  79.656  19.876  1.00  0.00     0.210 HD
ENDBRANCH   8  22
ENDBRANCH   7   8
ENDBRANCH   3   7
BRANCH   5  24
HETATM   24  O   UNL     1      28.829  77.888  14.924  1.00  0.00    -0.361 OA
HETATM   25  H   UNL     1      28.535  77.500  14.123  1.00  0.00     0.217 HD
ENDBRANCH   5  24
TORSDOF 9
ENDMDL
MODEL 6
REMARK VINA RESULT:      -7.6      2.905      5.326
REMARK  9 active torsions:
REMARK  status: ('A' for Active; 'I' for Inactive)
REMARK    1  A    between atoms: C_3  and  C_8 
REMARK    2  A    between atoms: C_5  and  O_7 
REMARK    3  A    between atoms: C_8  and  C_9 
REMARK    4  A    between atoms: C_9  and  C_10 
REMARK    5  A    between atoms: C_9  and  O_20 
REMARK    6  A    between atoms: C_10  and  C_11 
REMARK    7  A    between atoms: C_12  and  O_19 
REMARK    8  A    between atoms: C_14  and  O_18 
REMARK    9  A    between atoms: C_16  and  O_17 
ROOT
HETATM    1  C   UNL     1      30.631  75.063  16.485  1.00  0.00     0.003 A 
HETATM    2  C   UNL     1      31.312  75.715  17.496  1.00  0.00     0.007 A 
HETATM    3  C   UNL     1      31.180  77.083  17.651  1.00  0.00    -0.053 A 
HETATM    4  C   UNL     1      30.368  77.800  16.795  1.00  0.00     0.043 A 
HETATM    5  C   UNL     1      29.684  77.148  15.779  1.00  0.00     0.066 A 
HETATM    6  C   UNL     1      29.818  75.776  15.627  1.00  0.00     0.036 A 
ENDROOT
BRANCH   3   7
HETATM    7  C   UNL     1      31.923  77.791  18.755  1.00  0.00     0.070 C 
BRANCH   7   8
HETATM    8  C   UNL     1      31.127  77.683  20.057  1.00  0.00     0.127 C 
BRANCH   8   9
HETATM    9  C   UNL     1      32.079  77.369  21.213  1.00  0.00     0.076 C 
BRANCH   9  10
HETATM   10  C   UNL     1      31.713  76.038  21.817  1.00  0.00     0.011 A 
HETATM   11  C   UNL     1      30.789  75.976  22.850  1.00  0.00     0.077 A 
HETATM   12  C   UNL     1      30.453  74.751  23.407  1.00  0.00     0.073 A 
HETATM   13  C   UNL     1      31.040  73.589  22.931  1.00  0.00     0.071 A 
HETATM   14  C   UNL     1      31.963  73.651  21.897  1.00  0.00     0.073 A 
HETATM   15  C   UNL     1      32.296  74.875  21.338  1.00  0.00     0.077 A 
BRANCH  11  16
HETATM   16  O   UNL     1      30.215  77.115  23.317  1.00  0.00    -0.360 OA
HETATM   17  H   UNL     1      30.487  77.947  22.984  1.00  0.00     0.217 HD
ENDBRANCH  11  16
BRANCH  13  18
HETATM   18  O   UNL     1      30.711  72.388  23.477  1.00  0.00    -0.361 OA
HETATM   19  H   UNL     1      29.816  72.116  23.503  1.00  0.00     0.217 HD
ENDBRANCH  13  18
BRANCH  15  20
HETATM   20  O   UNL     1      33.201  74.936  20.325  1.00  0.00    -0.360 OA
HETATM   21  H   UNL     1      34.007  74.464  20.390  1.00  0.00     0.217 HD
ENDBRANCH  15  20
ENDBRANCH   9  10
ENDBRANCH   8   9
BRANCH   8  22
HETATM   22  O   UNL     1      30.461  78.921  20.312  1.00  0.00    -0.395 OA
HETATM   23  H   UNL     1      29.791  78.793  21.002  1.00  0.00     0.210 HD
ENDBRANCH   8  22
ENDBRANCH   7   8
ENDBRANCH   3   7
BRANCH   5  24
HETATM   24  O   UNL     1      28.884  77.853  14.936  1.00  0.00    -0.361 OA
HETATM   25  H   UNL     1      29.262  78.362  14.247  1.00  0.00     0.217 HD
ENDBRANCH   5  24
TORSDOF 9
ENDMDL
MODEL 7
REMARK VINA RESULT:      -7.6      1.214      1.606
REMARK  9 active torsions:
REMARK  status: ('A' for Active; 'I' for Inactive)
REMARK    1  A    between atoms: C_3  and  C_8 
REMARK    2  A    between atoms: C_5  and  O_7 
REMARK    3  A    between atoms: C_8  and  C_9 
REMARK    4  A    between atoms: C_9  and  C_10 
REMARK    5  A    between atoms: C_9  and  O_20 
REMARK    6  A    between atoms: C_10  and  C_11 
REMARK    7  A    between atoms: C_12  and  O_19 
REMARK    8  A    between atoms: C_14  and  O_18 
REMARK    9  A    between atoms: C_16  and  O_17 
ROOT
HETATM    1  C   UNL     1      31.012  78.339  20.728  1.00  0.00     0.003 A 
HETATM    2  C   UNL     1      31.644  77.571  21.687  1.00  0.00     0.007 A 
HETATM    3  C   UNL     1      32.059  76.286  21.384  1.00  0.00    -0.053 A 
HETATM    4  C   UNL     1      31.842  75.770  20.122  1.00  0.00     0.043 A 
HETATM    5  C   UNL     1      31.208  76.539  19.158  1.00  0.00     0.066 A 
HETATM    6  C   UNL     1      30.793  77.827  19.464  1.00  0.00     0.036 A 
ENDROOT
BRANCH   3   7
HETATM    7  C   UNL     1      32.748  75.451  22.432  1.00  0.00     0.070 C 
BRANCH   7   8
HETATM    8  C   UNL     1      32.658  73.973  22.047  1.00  0.00     0.127 C 
BRANCH   8   9
HETATM    9  C   UNL     1      34.044  73.333  22.152  1.00  0.00     0.076 C 
BRANCH   9  10
HETATM   10  C   UNL     1      33.907  71.833  22.132  1.00  0.00     0.011 A 
HETATM   11  C   UNL     1      33.917  71.150  20.924  1.00  0.00     0.077 A 
HETATM   12  C   UNL     1      33.792  69.769  20.907  1.00  0.00     0.073 A 
HETATM   13  C   UNL     1      33.655  69.071  22.097  1.00  0.00     0.071 A 
HETATM   14  C   UNL     1      33.646  69.753  23.304  1.00  0.00     0.073 A 
HETATM   15  C   UNL     1      33.777  71.133  23.322  1.00  0.00     0.077 A 
BRANCH  11  16
HETATM   16  O   UNL     1      34.050  71.836  19.759  1.00  0.00    -0.360 OA
HETATM   17  H   UNL     1      33.415  72.482  19.520  1.00  0.00     0.217 HD
ENDBRANCH  11  16
BRANCH  13  18
HETATM   18  O   UNL     1      33.531  67.717  22.079  1.00  0.00    -0.361 OA
HETATM   19  H   UNL     1      32.732  67.317  22.361  1.00  0.00     0.217 HD
ENDBRANCH  13  18
BRANCH  15  20
HETATM   20  O   UNL     1      33.767  71.801  24.506  1.00  0.00    -0.360 OA
HETATM   21  H   UNL     1      34.274  71.483  25.227  1.00  0.00     0.217 HD
ENDBRANCH  15  20
ENDBRANCH   9  10
ENDBRANCH   8   9
BRANCH   8  22
HETATM   22  O   UNL     1      31.757  73.304  22.932  1.00  0.00    -0.395 OA
HETATM   23  H   UNL     1      31.169  72.726  22.420  1.00  0.00     0.210 HD
ENDBRANCH   8  22
ENDBRANCH   7   8
ENDBRANCH   3   7
BRANCH   5  24
HETATM   24  O   UNL     1      30.994  76.032  17.915  1.00  0.00    -0.361 OA
HETATM   25  H   UNL     1      30.153  75.686  17.688  1.00  0.00     0.217 HD
ENDBRANCH   5  24
TORSDOF 9
ENDMDL
MODEL 8
REMARK VINA RESULT:      -7.4      1.470      7.178
REMARK  9 active torsions:
REMARK  status: ('A' for Active; 'I' for Inactive)
REMARK    1  A    between atoms: C_3  and  C_8 
REMARK    2  A    between atoms: C_5  and  O_7 
REMARK    3  A    between atoms: C_8  and  C_9 
REMARK    4  A    between atoms: C_9  and  C_10 
REMARK    5  A    between atoms: C_9  and  O_20 
REMARK    6  A    between atoms: C_10  and  C_11 
REMARK    7  A    between atoms: C_12  and  O_19 
REMARK    8  A    between atoms: C_14  and  O_18 
REMARK    9  A    between atoms: C_16  and  O_17 
ROOT
HETATM    1  C   UNL     1      34.151  69.959  19.980  1.00  0.00     0.003 A 
HETATM    2  C   UNL     1      33.897  71.025  20.822  1.00  0.00     0.007 A 
HETATM    3  C   UNL     1      33.602  70.800  22.155  1.00  0.00    -0.053 A 
HETATM    4  C   UNL     1      33.560  69.510  22.646  1.00  0.00     0.043 A 
HETATM    5  C   UNL     1      33.814  68.439  21.802  1.00  0.00     0.066 A 
HETATM    6  C   UNL     1      34.110  68.667  20.466  1.00  0.00     0.036 A 
ENDROOT
BRANCH   3   7
HETATM    7  C   UNL     1      33.327  71.964  23.071  1.00  0.00     0.070 C 
BRANCH   7   8
HETATM    8  C   UNL     1      33.159  73.239  22.241  1.00  0.00     0.127 C 
BRANCH   8   9
HETATM    9  C   UNL     1      31.683  73.640  22.214  1.00  0.00     0.076 C 
BRANCH   9  10
HETATM   10  C   UNL     1      31.554  75.050  21.700  1.00  0.00     0.011 A 
HETATM   11  C   UNL     1      31.514  75.290  20.334  1.00  0.00     0.077 A 
HETATM   12  C   UNL     1      31.396  76.588  19.861  1.00  0.00     0.073 A 
HETATM   13  C   UNL     1      31.319  77.647  20.754  1.00  0.00     0.071 A 
HETATM   14  C   UNL     1      31.358  77.407  22.119  1.00  0.00     0.073 A 
HETATM   15  C   UNL     1      31.471  76.109  22.592  1.00  0.00     0.077 A 
BRANCH  11  16
HETATM   16  O   UNL     1      31.591  74.253  19.460  1.00  0.00    -0.360 OA
HETATM   17  H   UNL     1      31.293  73.402  19.715  1.00  0.00     0.217 HD
ENDBRANCH  11  16
BRANCH  13  18
HETATM   18  O   UNL     1      31.204  78.919  20.290  1.00  0.00    -0.361 OA
HETATM   19  H   UNL     1      30.692  79.545  20.763  1.00  0.00     0.217 HD
ENDBRANCH  13  18
BRANCH  15  20
HETATM   20  O   UNL     1      31.511  75.874  23.930  1.00  0.00    -0.360 OA
HETATM   21  H   UNL     1      31.676  75.009  24.249  1.00  0.00     0.217 HD
ENDBRANCH  15  20
ENDBRANCH   9  10
ENDBRANCH   8   9
BRANCH   8  22
HETATM   22  O   UNL     1      33.928  74.292  22.826  1.00  0.00    -0.395 OA
HETATM   23  H   UNL     1      34.233  74.020  23.706  1.00  0.00     0.210 HD
ENDBRANCH   8  22
ENDBRANCH   7   8
ENDBRANCH   3   7
BRANCH   5  24
HETATM   24  O   UNL     1      33.774  67.168  22.283  1.00  0.00    -0.361 OA
HETATM   25  H   UNL     1      33.003  66.648  22.168  1.00  0.00     0.217 HD
ENDBRANCH   5  24
TORSDOF 9
ENDMDL
MODEL 9
REMARK VINA RESULT:      -7.4      1.471      7.396
REMARK  9 active torsions:
REMARK  status: ('A' for Active; 'I' for Inactive)
REMARK    1  A    between atoms: C_3  and  C_8 
REMARK    2  A    between atoms: C_5  and  O_7 
REMARK    3  A    between atoms: C_8  and  C_9 
REMARK    4  A    between atoms: C_9  and  C_10 
REMARK    5  A    between atoms: C_9  and  O_20 
REMARK    6  A    between atoms: C_10  and  C_11 
REMARK    7  A    between atoms: C_12  and  O_19 
REMARK    8  A    between atoms: C_14  and  O_18 
REMARK    9  A    between atoms: C_16  and  O_17 
ROOT
HETATM    1  C   UNL     1      34.160  69.967  19.963  1.00  0.00     0.003 A 
HETATM    2  C   UNL     1      33.914  71.032  20.808  1.00  0.00     0.007 A 
HETATM    3  C   UNL     1      33.617  70.807  22.140  1.00  0.00    -0.053 A 
HETATM    4  C   UNL     1      33.566  69.517  22.628  1.00  0.00     0.043 A 
HETATM    5  C   UNL     1      33.813  68.446  21.782  1.00  0.00     0.066 A 
HETATM    6  C   UNL     1      34.110  68.674  20.446  1.00  0.00     0.036 A 
ENDROOT
BRANCH   3   7
HETATM    7  C   UNL     1      33.350  71.972  23.058  1.00  0.00     0.070 C 
BRANCH   7   8
HETATM    8  C   UNL     1      33.175  73.246  22.230  1.00  0.00     0.127 C 
BRANCH   8   9
HETATM    9  C   UNL     1      31.696  73.636  22.198  1.00  0.00     0.076 C 
BRANCH   9  10
HETATM   10  C   UNL     1      31.559  75.047  21.688  1.00  0.00     0.011 A 
HETATM   11  C   UNL     1      31.475  76.103  22.583  1.00  0.00     0.077 A 
HETATM   12  C   UNL     1      31.349  77.402  22.113  1.00  0.00     0.073 A 
HETATM   13  C   UNL     1      31.306  77.644  20.749  1.00  0.00     0.071 A 
HETATM   14  C   UNL     1      31.390  76.588  19.854  1.00  0.00     0.073 A 
HETATM   15  C   UNL     1      31.522  75.290  20.324  1.00  0.00     0.077 A 
BRANCH  11  16
HETATM   16  O   UNL     1      31.517  75.865  23.920  1.00  0.00    -0.360 OA
HETATM   17  H   UNL     1      32.010  76.430  24.482  1.00  0.00     0.217 HD
ENDBRANCH  11  16
BRANCH  13  18
HETATM   18  O   UNL     1      31.181  78.917  20.288  1.00  0.00    -0.361 OA
HETATM   19  H   UNL     1      30.330  79.291  20.172  1.00  0.00     0.217 HD
ENDBRANCH  13  18
BRANCH  15  20
HETATM   20  O   UNL     1      31.603  74.255  19.446  1.00  0.00    -0.360 OA
HETATM   21  H   UNL     1      32.280  73.615  19.540  1.00  0.00     0.217 HD
ENDBRANCH  15  20
ENDBRANCH   9  10
ENDBRANCH   8   9
BRANCH   8  22
HETATM   22  O   UNL     1      33.934  74.304  22.819  1.00  0.00    -0.395 OA
HETATM   23  H   UNL     1      34.193  74.938  22.132  1.00  0.00     0.210 HD
ENDBRANCH   8  22
ENDBRANCH   7   8
ENDBRANCH   3   7
BRANCH   5  24
HETATM   24  O   UNL     1      33.763  67.174  22.261  1.00  0.00    -0.361 OA
HETATM   25  H   UNL     1      34.195  66.482  21.799  1.00  0.00     0.217 HD
ENDBRANCH   5  24
TORSDOF 9
ENDMDL
