MODEL 1
REMARK VINA RESULT:      -7.9      0.000      0.000
REMARK  9 active torsions:
REMARK  status: ('A' for Active; 'I' for Inactive)
REMARK    1  A    between atoms: C_3  and  C_8 
REMARK    2  A    between atoms: C_5  and  O_7 
REMARK    3  A    between atoms: C_8  and  C_9 
REMARK    4  A    between atoms: C_9  and  C_10 
REMARK    5  A    between atoms: C_9  and  O_20 
REMARK    6  A    between atoms: C_10  and  C_11 
REMARK    7  A    between atoms: C_12  and  O_19 
REMARK    8  A    between atoms: C_14  and  O_18 
REMARK    9  A    between atoms: C_16  and  O_17 
ROOT
HETATM    1  C   UNL     1      31.107  76.825  19.554  1.00  0.00     0.003 A 
HETATM    2  C   UNL     1      31.708  75.935  20.424  1.00  0.00     0.007 A 
HETATM    3  C   UNL     1      32.230  76.383  21.624  1.00  0.00    -0.053 A 
HETATM    4  C   UNL     1      32.153  77.722  21.954  1.00  0.00     0.043 A 
HETATM    5  C   UNL     1      31.551  78.617  21.082  1.00  0.00     0.066 A 
HETATM    6  C   UNL     1      31.028  78.164  19.880  1.00  0.00     0.036 A 
ENDROOT
BRANCH   3   7
HETATM    7  C   UNL     1      32.884  75.410  22.571  1.00  0.00     0.070 C 
BRANCH   7   8
HETATM    8  C   UNL     1      32.777  73.993  22.001  1.00  0.00     0.127 C 
BRANCH   8   9
HETATM    9  C   UNL     1      34.146  73.313  22.068  1.00  0.00     0.076 C 
BRANCH   9  10
HETATM   10  C   UNL     1      33.963  71.817  22.079  1.00  0.00     0.011 A 
HETATM   11  C   UNL     1      33.962  71.109  20.886  1.00  0.00     0.077 A 
HETATM   12  C   UNL     1      33.793  69.733  20.896  1.00  0.00     0.073 A 
HETATM   13  C   UNL     1      33.626  69.064  22.100  1.00  0.00     0.071 A 
HETATM   14  C   UNL     1      33.629  69.772  23.293  1.00  0.00     0.073 A 
HETATM   15  C   UNL     1      33.802  71.147  23.282  1.00  0.00     0.077 A 
BRANCH  11  16
HETATM   16  O   UNL     1      34.125  71.765  19.707  1.00  0.00    -0.360 OA
HETATM   17  H   UNL     1      34.207  72.698  19.698  1.00  0.00     0.217 HD
ENDBRANCH  11  16
BRANCH  13  18
HETATM   18  O   UNL     1      33.460  67.716  22.110  1.00  0.00    -0.361 OA
HETATM   19  H   UNL     1      32.732  67.337  22.563  1.00  0.00     0.217 HD
ENDBRANCH  13  18
BRANCH  15  20
HETATM   20  O   UNL     1      33.803  71.841  24.451  1.00  0.00    -0.360 OA
HETATM   21  H   UNL     1      33.300  71.533  25.179  1.00  0.00     0.217 HD
ENDBRANCH  15  20
ENDBRANCH   9  10
ENDBRANCH   8   9
BRANCH   8  22
HETATM   22  O   UNL     1      31.834  73.242  22.768  1.00  0.00    -0.395 OA
HETATM   23  H   UNL     1      32.267  72.896  23.565  1.00  0.00     0.210 HD
ENDBRANCH   8  22
ENDBRANCH   7   8
ENDBRANCH   3   7
BRANCH   5  24
HETATM   24  O   UNL     1      31.474  79.935  21.405  1.00  0.00    -0.361 OA
HETATM   25  H   UNL     1      32.196  80.356  21.830  1.00  0.00     0.217 HD
ENDBRANCH   5  24
TORSDOF 9
ENDMDL
MODEL 2
REMARK VINA RESULT:      -7.9      0.011      1.848
REMARK  9 active torsions:
REMARK  status: ('A' for Active; 'I' for Inactive)
REMARK    1  A    between atoms: C_3  and  C_8 
REMARK    2  A    between atoms: C_5  and  O_7 
REMARK    3  A    between atoms: C_8  and  C_9 
REMARK    4  A    between atoms: C_9  and  C_10 
REMARK    5  A    between atoms: C_9  and  O_20 
REMARK    6  A    between atoms: C_10  and  C_11 
REMARK    7  A    between atoms: C_12  and  O_19 
REMARK    8  A    between atoms: C_14  and  O_18 
REMARK    9  A    between atoms: C_16  and  O_17 
ROOT
HETATM    1  C   UNL     1      31.134  76.829  19.540  1.00  0.00     0.003 A 
HETATM    2  C   UNL     1      31.727  75.938  20.414  1.00  0.00     0.007 A 
HETATM    3  C   UNL     1      32.235  76.383  21.621  1.00  0.00    -0.053 A 
HETATM    4  C   UNL     1      32.150  77.720  21.955  1.00  0.00     0.043 A 
HETATM    5  C   UNL     1      31.556  78.617  21.079  1.00  0.00     0.066 A 
HETATM    6  C   UNL     1      31.047  78.168  19.870  1.00  0.00     0.036 A 
ENDROOT
BRANCH   3   7
HETATM    7  C   UNL     1      32.880  75.409  22.572  1.00  0.00     0.070 C 
BRANCH   7   8
HETATM    8  C   UNL     1      32.775  73.992  22.002  1.00  0.00     0.127 C 
BRANCH   8   9
HETATM    9  C   UNL     1      34.144  73.313  22.068  1.00  0.00     0.076 C 
BRANCH   9  10
HETATM   10  C   UNL     1      33.962  71.817  22.080  1.00  0.00     0.011 A 
HETATM   11  C   UNL     1      33.798  71.148  23.284  1.00  0.00     0.077 A 
HETATM   12  C   UNL     1      33.631  69.771  23.295  1.00  0.00     0.073 A 
HETATM   13  C   UNL     1      33.628  69.064  22.102  1.00  0.00     0.071 A 
HETATM   14  C   UNL     1      33.791  69.733  20.898  1.00  0.00     0.073 A 
HETATM   15  C   UNL     1      33.954  71.110  20.887  1.00  0.00     0.077 A 
BRANCH  11  16
HETATM   16  O   UNL     1      33.802  71.841  24.452  1.00  0.00    -0.360 OA
HETATM   17  H   UNL     1      33.475  72.719  24.477  1.00  0.00     0.217 HD
ENDBRANCH  11  16
BRANCH  13  18
HETATM   18  O   UNL     1      33.465  67.715  22.112  1.00  0.00    -0.361 OA
HETATM   19  H   UNL     1      33.441  67.253  22.927  1.00  0.00     0.217 HD
ENDBRANCH  13  18
BRANCH  15  20
HETATM   20  O   UNL     1      34.114  71.766  19.707  1.00  0.00    -0.360 OA
HETATM   21  H   UNL     1      33.903  72.676  19.645  1.00  0.00     0.217 HD
ENDBRANCH  15  20
ENDBRANCH   9  10
ENDBRANCH   8   9
BRANCH   8  22
HETATM   22  O   UNL     1      31.832  73.240  22.767  1.00  0.00    -0.395 OA
HETATM   23  H   UNL     1      31.816  72.323  22.450  1.00  0.00     0.210 HD
ENDBRANCH   8  22
ENDBRANCH   7   8
ENDBRANCH   3   7
BRANCH   5  24
HETATM   24  O   UNL     1      31.471  79.934  21.407  1.00  0.00    -0.361 OA
HETATM   25  H   UNL     1      31.772  80.587  20.805  1.00  0.00     0.217 HD
ENDBRANCH   5  24
TORSDOF 9
ENDMDL
MODEL 3
REMARK VINA RESULT:      -7.7      3.908      6.861
REMARK  9 active torsions:
REMARK  status: ('A' for Active; 'I' for Inactive)
REMARK    1  A    between atoms: C_3  and  C_8 
REMARK    2  A    between atoms: C_5  and  O_7 
REMARK    3  A    between atoms: C_8  and  C_9 
REMARK    4  A    between atoms: C_9  and  C_10 
REMARK    5  A    between atoms: C_9  and  O_20 
REMARK    6  A    between atoms: C_10  and  C_11 
REMARK    7  A    between atoms: C_12  and  O_19 
REMARK    8  A    between atoms: C_14  and  O_18 
REMARK    9  A    between atoms: C_16  and  O_17 
ROOT
HETATM    1  C   UNL     1      28.563  74.712  15.055  1.00  0.00     0.003 A 
HETATM    2  C   UNL     1      29.707  75.211  15.647  1.00  0.00     0.007 A 
HETATM    3  C   UNL     1      29.937  76.575  15.673  1.00  0.00    -0.053 A 
HETATM    4  C   UNL     1      29.022  77.440  15.106  1.00  0.00     0.043 A 
HETATM    5  C   UNL     1      27.873  76.941  14.511  1.00  0.00     0.066 A 
HETATM    6  C   UNL     1      27.645  75.573  14.487  1.00  0.00     0.036 A 
ENDROOT
BRANCH   3   7
HETATM    7  C   UNL     1      31.186  77.116  16.319  1.00  0.00     0.070 C 
BRANCH   7   8
HETATM    8  C   UNL     1      30.924  77.364  17.806  1.00  0.00     0.127 C 
BRANCH   8   9
HETATM    9  C   UNL     1      32.258  77.501  18.543  1.00  0.00     0.076 C 
BRANCH   9  10
HETATM   10  C   UNL     1      32.089  77.063  19.975  1.00  0.00     0.011 A 
HETATM   11  C   UNL     1      32.319  75.742  20.329  1.00  0.00     0.077 A 
HETATM   12  C   UNL     1      32.162  75.340  21.646  1.00  0.00     0.073 A 
HETATM   13  C   UNL     1      31.775  76.259  22.610  1.00  0.00     0.071 A 
HETATM   14  C   UNL     1      31.547  77.580  22.257  1.00  0.00     0.073 A 
HETATM   15  C   UNL     1      31.708  77.983  20.940  1.00  0.00     0.077 A 
BRANCH  11  16
HETATM   16  O   UNL     1      32.697  74.842  19.383  1.00  0.00    -0.360 OA
HETATM   17  H   UNL     1      33.603  74.739  19.171  1.00  0.00     0.217 HD
ENDBRANCH  11  16
BRANCH  13  18
HETATM   18  O   UNL     1      31.621  75.864  23.902  1.00  0.00    -0.361 OA
HETATM   19  H   UNL     1      32.118  76.278  24.580  1.00  0.00     0.217 HD
ENDBRANCH  13  18
BRANCH  15  20
HETATM   20  O   UNL     1      31.482  79.278  20.594  1.00  0.00    -0.360 OA
HETATM   21  H   UNL     1      30.651  79.531  20.244  1.00  0.00     0.217 HD
ENDBRANCH  15  20
ENDBRANCH   9  10
ENDBRANCH   8   9
BRANCH   8  22
HETATM   22  O   UNL     1      30.169  78.567  17.963  1.00  0.00    -0.395 OA
HETATM   23  H   UNL     1      29.558  78.665  17.215  1.00  0.00     0.210 HD
ENDBRANCH   8  22
ENDBRANCH   7   8
ENDBRANCH   3   7
BRANCH   5  24
HETATM   24  O   UNL     1      26.970  77.792  13.953  1.00  0.00    -0.361 OA
HETATM   25  H   UNL     1      27.239  78.648  13.682  1.00  0.00     0.217 HD
ENDBRANCH   5  24
TORSDOF 9
ENDMDL
MODEL 4
REMARK VINA RESULT:      -7.7      3.877      6.912
REMARK  9 active torsions:
REMARK  status: ('A' for Active; 'I' for Inactive)
REMARK    1  A    between atoms: C_3  and  C_8 
REMARK    2  A    between atoms: C_5  and  O_7 
REMARK    3  A    between atoms: C_8  and  C_9 
REMARK    4  A    between atoms: C_9  and  C_10 
REMARK    5  A    between atoms: C_9  and  O_20 
REMARK    6  A    between atoms: C_10  and  C_11 
REMARK    7  A    between atoms: C_12  and  O_19 
REMARK    8  A    between atoms: C_14  and  O_18 
REMARK    9  A    between atoms: C_16  and  O_17 
ROOT
HETATM    1  C   UNL     1      28.685  74.704  15.079  1.00  0.00     0.003 A 
HETATM    2  C   UNL     1      29.808  75.237  15.682  1.00  0.00     0.007 A 
HETATM    3  C   UNL     1      29.996  76.607  15.713  1.00  0.00    -0.053 A 
HETATM    4  C   UNL     1      29.061  77.445  15.140  1.00  0.00     0.043 A 
HETATM    5  C   UNL     1      27.933  76.913  14.533  1.00  0.00     0.066 A 
HETATM    6  C   UNL     1      27.747  75.539  14.504  1.00  0.00     0.036 A 
ENDROOT
BRANCH   3   7
HETATM    7  C   UNL     1      31.222  77.184  16.372  1.00  0.00     0.070 C 
BRANCH   7   8
HETATM    8  C   UNL     1      30.948  77.395  17.863  1.00  0.00     0.127 C 
BRANCH   8   9
HETATM    9  C   UNL     1      32.275  77.547  18.609  1.00  0.00     0.076 C 
BRANCH   9  10
HETATM   10  C   UNL     1      32.104  77.096  20.037  1.00  0.00     0.011 A 
HETATM   11  C   UNL     1      31.697  78.001  21.006  1.00  0.00     0.077 A 
HETATM   12  C   UNL     1      31.539  77.587  22.320  1.00  0.00     0.073 A 
HETATM   13  C   UNL     1      31.788  76.267  22.664  1.00  0.00     0.071 A 
HETATM   14  C   UNL     1      32.193  75.361  21.695  1.00  0.00     0.073 A 
HETATM   15  C   UNL     1      32.346  75.775  20.381  1.00  0.00     0.077 A 
BRANCH  11  16
HETATM   16  O   UNL     1      31.454  79.295  20.668  1.00  0.00    -0.360 OA
HETATM   17  H   UNL     1      31.053  79.497  19.846  1.00  0.00     0.217 HD
ENDBRANCH  11  16
BRANCH  13  18
HETATM   18  O   UNL     1      31.634  75.860  23.952  1.00  0.00    -0.361 OA
HETATM   19  H   UNL     1      31.632  76.491  24.645  1.00  0.00     0.217 HD
ENDBRANCH  13  18
BRANCH  15  20
HETATM   20  O   UNL     1      32.744  74.887  19.431  1.00  0.00    -0.360 OA
HETATM   21  H   UNL     1      32.927  75.183  18.562  1.00  0.00     0.217 HD
ENDBRANCH  15  20
ENDBRANCH   9  10
ENDBRANCH   8   9
BRANCH   8  22
HETATM   22  O   UNL     1      30.165  78.577  18.041  1.00  0.00    -0.395 OA
HETATM   23  H   UNL     1      29.508  78.640  17.329  1.00  0.00     0.210 HD
ENDBRANCH   8  22
ENDBRANCH   7   8
ENDBRANCH   3   7
BRANCH   5  24
HETATM   24  O   UNL     1      27.010  77.737  13.968  1.00  0.00    -0.361 OA
HETATM   25  H   UNL     1      26.820  77.671  13.053  1.00  0.00     0.217 HD
ENDBRANCH   5  24
TORSDOF 9
ENDMDL
MODEL 5
REMARK VINA RESULT:      -7.7      2.918      5.170
REMARK  9 active torsions:
REMARK  status: ('A' for Active; 'I' for Inactive)
REMARK    1  A    between atoms: C_3  and  C_8 
REMARK    2  A    between atoms: C_5  and  O_7 
REMARK    3  A    between atoms: C_8  and  C_9 
REMARK    4  A    between atoms: C_9  and  C_10 
REMARK    5  A    between atoms: C_9  and  O_20 
REMARK    6  A    between atoms: C_10  and  C_11 
REMARK    7  A    between atoms: C_12  and  O_19 
REMARK    8  A    between atoms: C_14  and  O_18 
REMARK    9  A    between atoms: C_16  and  O_17 
ROOT
HETATM    1  C   UNL     1      30.610  75.224  16.519  1.00  0.00     0.003 A 
HETATM    2  C   UNL     1      31.252  75.928  17.521  1.00  0.00     0.007 A 
HETATM    3  C   UNL     1      31.082  77.296  17.626  1.00  0.00    -0.053 A 
HETATM    4  C   UNL     1      30.271  77.963  16.728  1.00  0.00     0.043 A 
HETATM    5  C   UNL     1      29.626  77.258  15.721  1.00  0.00     0.066 A 
HETATM    6  C   UNL     1      29.798  75.886  15.619  1.00  0.00     0.036 A 
ENDROOT
BRANCH   3   7
HETATM    7  C   UNL     1      31.782  78.061  18.719  1.00  0.00     0.070 C 
BRANCH   7   8
HETATM    8  C   UNL     1      31.081  77.799  20.054  1.00  0.00     0.127 C 
BRANCH   8   9
HETATM    9  C   UNL     1      32.120  77.414  21.109  1.00  0.00     0.076 C 
BRANCH   9  10
HETATM   10  C   UNL     1      31.737  76.097  21.733  1.00  0.00     0.011 A 
HETATM   11  C   UNL     1      32.307  74.919  21.273  1.00  0.00     0.077 A 
HETATM   12  C   UNL     1      31.955  73.707  21.847  1.00  0.00     0.073 A 
HETATM   13  C   UNL     1      31.032  73.673  22.882  1.00  0.00     0.071 A 
HETATM   14  C   UNL     1      30.464  74.851  23.344  1.00  0.00     0.073 A 
HETATM   15  C   UNL     1      30.820  76.063  22.772  1.00  0.00     0.077 A 
BRANCH  11  16
HETATM   16  O   UNL     1      33.210  74.953  20.258  1.00  0.00    -0.360 OA
HETATM   17  H   UNL     1      34.051  75.342  20.392  1.00  0.00     0.217 HD
ENDBRANCH  11  16
BRANCH  13  18
HETATM   18  O   UNL     1      30.686  72.485  23.445  1.00  0.00    -0.361 OA
HETATM   19  H   UNL     1      31.067  72.225  24.260  1.00  0.00     0.217 HD
ENDBRANCH  13  18
BRANCH  15  20
HETATM   20  O   UNL     1      30.261  77.217  23.224  1.00  0.00    -0.360 OA
HETATM   21  H   UNL     1      29.653  77.195  23.936  1.00  0.00     0.217 HD
ENDBRANCH  15  20
ENDBRANCH   9  10
ENDBRANCH   8   9
BRANCH   8  22
HETATM   22  O   UNL     1      30.395  78.981  20.471  1.00  0.00    -0.395 OA
HETATM   23  H   UNL     1      30.175  79.519  19.693  1.00  0.00     0.210 HD
ENDBRANCH   8  22
ENDBRANCH   7   8
ENDBRANCH   3   7
BRANCH   5  24
HETATM   24  O   UNL     1      28.827  77.913  14.838  1.00  0.00    -0.361 OA
HETATM   25  H   UNL     1      28.547  77.484  14.052  1.00  0.00     0.217 HD
ENDBRANCH   5  24
TORSDOF 9
ENDMDL
MODEL 6
REMARK VINA RESULT:      -7.6      2.910      5.345
REMARK  9 active torsions:
REMARK  status: ('A' for Active; 'I' for Inactive)
REMARK    1  A    between atoms: C_3  and  C_8 
REMARK    2  A    between atoms: C_5  and  O_7 
REMARK    3  A    between atoms: C_8  and  C_9 
REMARK    4  A    between atoms: C_9  and  C_10 
REMARK    5  A    between atoms: C_9  and  O_20 
REMARK    6  A    between atoms: C_10  and  C_11 
REMARK    7  A    between atoms: C_12  and  O_19 
REMARK    8  A    between atoms: C_14  and  O_18 
REMARK    9  A    between atoms: C_16  and  O_17 
ROOT
HETATM    1  C   UNL     1      30.660  75.105  16.454  1.00  0.00     0.003 A 
HETATM    2  C   UNL     1      31.325  75.760  17.473  1.00  0.00     0.007 A 
HETATM    3  C   UNL     1      31.167  77.124  17.640  1.00  0.00    -0.053 A 
HETATM    4  C   UNL     1      30.344  77.834  16.789  1.00  0.00     0.043 A 
HETATM    5  C   UNL     1      29.675  77.178  15.765  1.00  0.00     0.066 A 
HETATM    6  C   UNL     1      29.835  75.811  15.600  1.00  0.00     0.036 A 
ENDROOT
BRANCH   3   7
HETATM    7  C   UNL     1      31.894  77.835  18.752  1.00  0.00     0.070 C 
BRANCH   7   8
HETATM    8  C   UNL     1      31.102  77.692  20.054  1.00  0.00     0.127 C 
BRANCH   8   9
HETATM    9  C   UNL     1      32.062  77.383  21.204  1.00  0.00     0.076 C 
BRANCH   9  10
HETATM   10  C   UNL     1      31.707  76.050  21.810  1.00  0.00     0.011 A 
HETATM   11  C   UNL     1      30.789  75.982  22.848  1.00  0.00     0.077 A 
HETATM   12  C   UNL     1      30.462  74.755  23.406  1.00  0.00     0.073 A 
HETATM   13  C   UNL     1      31.053  73.596  22.927  1.00  0.00     0.071 A 
HETATM   14  C   UNL     1      31.970  73.664  21.888  1.00  0.00     0.073 A 
HETATM   15  C   UNL     1      32.293  74.890  21.328  1.00  0.00     0.077 A 
BRANCH  11  16
HETATM   16  O   UNL     1      30.211  77.118  23.318  1.00  0.00    -0.360 OA
HETATM   17  H   UNL     1      30.422  77.945  22.932  1.00  0.00     0.217 HD
ENDBRANCH  11  16
BRANCH  13  18
HETATM   18  O   UNL     1      30.734  72.394  23.474  1.00  0.00    -0.361 OA
HETATM   19  H   UNL     1      29.864  72.237  23.783  1.00  0.00     0.217 HD
ENDBRANCH  13  18
BRANCH  15  20
HETATM   20  O   UNL     1      33.193  74.956  20.310  1.00  0.00    -0.360 OA
HETATM   21  H   UNL     1      33.362  74.199  19.785  1.00  0.00     0.217 HD
ENDBRANCH  15  20
ENDBRANCH   9  10
ENDBRANCH   8   9
BRANCH   8  22
HETATM   22  O   UNL     1      30.410  78.912  20.326  1.00  0.00    -0.395 OA
HETATM   23  H   UNL     1      30.980  79.664  20.103  1.00  0.00     0.210 HD
ENDBRANCH   8  22
ENDBRANCH   7   8
ENDBRANCH   3   7
BRANCH   5  24
HETATM   24  O   UNL     1      28.864  77.876  14.927  1.00  0.00    -0.361 OA
HETATM   25  H   UNL     1      28.280  77.419  14.353  1.00  0.00     0.217 HD
ENDBRANCH   5  24
TORSDOF 9
ENDMDL
MODEL 7
REMARK VINA RESULT:      -7.5      1.309      1.688
REMARK  9 active torsions:
REMARK  status: ('A' for Active; 'I' for Inactive)
REMARK    1  A    between atoms: C_3  and  C_8 
REMARK    2  A    between atoms: C_5  and  O_7 
REMARK    3  A    between atoms: C_8  and  C_9 
REMARK    4  A    between atoms: C_9  and  C_10 
REMARK    5  A    between atoms: C_9  and  O_20 
REMARK    6  A    between atoms: C_10  and  C_11 
REMARK    7  A    between atoms: C_12  and  O_19 
REMARK    8  A    between atoms: C_14  and  O_18 
REMARK    9  A    between atoms: C_16  and  O_17 
ROOT
HETATM    1  C   UNL     1      31.080  78.204  20.432  1.00  0.00     0.003 A 
HETATM    2  C   UNL     1      31.688  77.474  21.436  1.00  0.00     0.007 A 
HETATM    3  C   UNL     1      32.059  76.161  21.211  1.00  0.00    -0.053 A 
HETATM    4  C   UNL     1      31.822  75.576  19.983  1.00  0.00     0.043 A 
HETATM    5  C   UNL     1      31.212  76.307  18.974  1.00  0.00     0.066 A 
HETATM    6  C   UNL     1      30.842  77.624  19.201  1.00  0.00     0.036 A 
ENDROOT
BRANCH   3   7
HETATM    7  C   UNL     1      32.721  75.368  22.308  1.00  0.00     0.070 C 
BRANCH   7   8
HETATM    8  C   UNL     1      32.641  73.876  21.979  1.00  0.00     0.127 C 
BRANCH   8   9
HETATM    9  C   UNL     1      34.032  73.250  22.104  1.00  0.00     0.076 C 
BRANCH   9  10
HETATM   10  C   UNL     1      33.909  71.749  22.100  1.00  0.00     0.011 A 
HETATM   11  C   UNL     1      33.939  71.053  20.901  1.00  0.00     0.077 A 
HETATM   12  C   UNL     1      33.826  69.671  20.897  1.00  0.00     0.073 A 
HETATM   13  C   UNL     1      33.683  68.984  22.094  1.00  0.00     0.071 A 
HETATM   14  C   UNL     1      33.654  69.680  23.293  1.00  0.00     0.073 A 
HETATM   15  C   UNL     1      33.772  71.061  23.297  1.00  0.00     0.077 A 
BRANCH  11  16
HETATM   16  O   UNL     1      34.078  71.726  19.729  1.00  0.00    -0.360 OA
HETATM   17  H   UNL     1      33.324  72.077  19.298  1.00  0.00     0.217 HD
ENDBRANCH  11  16
BRANCH  13  18
HETATM   18  O   UNL     1      33.572  67.630  22.091  1.00  0.00    -0.361 OA
HETATM   19  H   UNL     1      33.065  67.203  21.428  1.00  0.00     0.217 HD
ENDBRANCH  13  18
BRANCH  15  20
HETATM   20  O   UNL     1      33.743  71.742  24.473  1.00  0.00    -0.360 OA
HETATM   21  H   UNL     1      34.522  71.821  24.987  1.00  0.00     0.217 HD
ENDBRANCH  15  20
ENDBRANCH   9  10
ENDBRANCH   8   9
BRANCH   8  22
HETATM   22  O   UNL     1      31.747  73.235  22.891  1.00  0.00    -0.395 OA
HETATM   23  H   UNL     1      31.070  73.867  23.178  1.00  0.00     0.210 HD
ENDBRANCH   8  22
ENDBRANCH   7   8
ENDBRANCH   3   7
BRANCH   5  24
HETATM   24  O   UNL     1      30.980  75.733  17.763  1.00  0.00    -0.361 OA
HETATM   25  H   UNL     1      30.492  76.197  17.111  1.00  0.00     0.217 HD
ENDBRANCH   5  24
TORSDOF 9
ENDMDL
MODEL 8
REMARK VINA RESULT:      -7.3      1.484      7.369
REMARK  9 active torsions:
REMARK  status: ('A' for Active; 'I' for Inactive)
REMARK    1  A    between atoms: C_3  and  C_8 
REMARK    2  A    between atoms: C_5  and  O_7 
REMARK    3  A    between atoms: C_8  and  C_9 
REMARK    4  A    between atoms: C_9  and  C_10 
REMARK    5  A    between atoms: C_9  and  O_20 
REMARK    6  A    between atoms: C_10  and  C_11 
REMARK    7  A    between atoms: C_12  and  O_19 
REMARK    8  A    between atoms: C_14  and  O_18 
REMARK    9  A    between atoms: C_16  and  O_17 
ROOT
HETATM    1  C   UNL     1      34.149  69.832  19.973  1.00  0.00     0.003 A 
HETATM    2  C   UNL     1      33.914  70.873  20.850  1.00  0.00     0.007 A 
HETATM    3  C   UNL     1      33.640  70.611  22.180  1.00  0.00    -0.053 A 
HETATM    4  C   UNL     1      33.600  69.308  22.634  1.00  0.00     0.043 A 
HETATM    5  C   UNL     1      33.834  68.261  21.755  1.00  0.00     0.066 A 
HETATM    6  C   UNL     1      34.109  68.526  20.421  1.00  0.00     0.036 A 
ENDROOT
BRANCH   3   7
HETATM    7  C   UNL     1      33.386  71.749  23.135  1.00  0.00     0.070 C 
BRANCH   7   8
HETATM    8  C   UNL     1      33.259  73.057  22.349  1.00  0.00     0.127 C 
BRANCH   8   9
HETATM    9  C   UNL     1      31.802  73.522  22.365  1.00  0.00     0.076 C 
BRANCH   9  10
HETATM   10  C   UNL     1      31.700  74.878  21.716  1.00  0.00     0.011 A 
HETATM   11  C   UNL     1      31.673  76.022  22.499  1.00  0.00     0.077 A 
HETATM   12  C   UNL     1      31.580  77.270  21.901  1.00  0.00     0.073 A 
HETATM   13  C   UNL     1      31.513  77.373  20.519  1.00  0.00     0.071 A 
HETATM   14  C   UNL     1      31.542  76.229  19.736  1.00  0.00     0.073 A 
HETATM   15  C   UNL     1      31.640  74.982  20.334  1.00  0.00     0.077 A 
BRANCH  11  16
HETATM   16  O   UNL     1      31.737  75.920  23.852  1.00  0.00    -0.360 OA
HETATM   17  H   UNL     1      31.225  75.275  24.298  1.00  0.00     0.217 HD
ENDBRANCH  11  16
BRANCH  13  18
HETATM   18  O   UNL     1      31.421  78.596  19.933  1.00  0.00    -0.361 OA
HETATM   19  H   UNL     1      30.584  79.002  19.828  1.00  0.00     0.217 HD
ENDBRANCH  13  18
BRANCH  15  20
HETATM   20  O   UNL     1      31.667  73.861  19.566  1.00  0.00    -0.360 OA
HETATM   21  H   UNL     1      31.170  73.824  18.773  1.00  0.00     0.217 HD
ENDBRANCH  15  20
ENDBRANCH   9  10
ENDBRANCH   8   9
BRANCH   8  22
HETATM   22  O   UNL     1      34.085  74.055  22.951  1.00  0.00    -0.395 OA
HETATM   23  H   UNL     1      34.930  74.104  22.477  1.00  0.00     0.210 HD
ENDBRANCH   8  22
ENDBRANCH   7   8
ENDBRANCH   3   7
BRANCH   5  24
HETATM   24  O   UNL     1      33.795  66.977  22.200  1.00  0.00    -0.361 OA
HETATM   25  H   UNL     1      33.227  66.355  21.788  1.00  0.00     0.217 HD
ENDBRANCH   5  24
TORSDOF 9
ENDMDL
MODEL 9
REMARK VINA RESULT:      -7.3      2.028      2.996
REMARK  9 active torsions:
REMARK  status: ('A' for Active; 'I' for Inactive)
REMARK    1  A    between atoms: C_3  and  C_8 
REMARK    2  A    between atoms: C_5  and  O_7 
REMARK    3  A    between atoms: C_8  and  C_9 
REMARK    4  A    between atoms: C_9  and  C_10 
REMARK    5  A    between atoms: C_9  and  O_20 
REMARK    6  A    between atoms: C_10  and  C_11 
REMARK    7  A    between atoms: C_12  and  O_19 
REMARK    8  A    between atoms: C_14  and  O_18 
REMARK    9  A    between atoms: C_16  and  O_17 
ROOT
HETATM    1  C   UNL     1      31.247  77.171  19.446  1.00  0.00     0.003 A 
HETATM    2  C   UNL     1      31.594  76.160  20.322  1.00  0.00     0.007 A 
HETATM    3  C   UNL     1      31.484  76.357  21.686  1.00  0.00    -0.053 A 
HETATM    4  C   UNL     1      31.026  77.564  22.176  1.00  0.00     0.043 A 
HETATM    5  C   UNL     1      30.677  78.580  21.298  1.00  0.00     0.066 A 
HETATM    6  C   UNL     1      30.788  78.380  19.930  1.00  0.00     0.036 A 
ENDROOT
BRANCH   3   7
HETATM    7  C   UNL     1      31.863  75.252  22.639  1.00  0.00     0.070 C 
BRANCH   7   8
HETATM    8  C   UNL     1      30.670  74.314  22.835  1.00  0.00     0.127 C 
BRANCH   8   9
HETATM    9  C   UNL     1      31.149  72.862  22.783  1.00  0.00     0.076 C 
BRANCH   9  10
HETATM   10  C   UNL     1      32.195  72.717  21.709  1.00  0.00     0.011 A 
HETATM   11  C   UNL     1      33.537  72.645  22.052  1.00  0.00     0.077 A 
HETATM   12  C   UNL     1      34.500  72.511  21.064  1.00  0.00     0.073 A 
HETATM   13  C   UNL     1      34.122  72.450  19.731  1.00  0.00     0.071 A 
HETATM   14  C   UNL     1      32.780  72.521  19.387  1.00  0.00     0.073 A 
HETATM   15  C   UNL     1      31.817  72.650  20.376  1.00  0.00     0.077 A 
BRANCH  11  16
HETATM   16  O   UNL     1      33.908  72.706  23.358  1.00  0.00    -0.360 OA
HETATM   17  H   UNL     1      33.491  73.315  23.935  1.00  0.00     0.217 HD
ENDBRANCH  11  16
BRANCH  13  18
HETATM   18  O   UNL     1      35.065  72.320  18.762  1.00  0.00    -0.361 OA
HETATM   19  H   UNL     1      35.668  71.604  18.789  1.00  0.00     0.217 HD
ENDBRANCH  13  18
BRANCH  15  20
HETATM   20  O   UNL     1      30.502  72.720  20.039  1.00  0.00    -0.360 OA
HETATM   21  H   UNL     1      29.876  73.039  20.659  1.00  0.00     0.217 HD
ENDBRANCH  15  20
ENDBRANCH   9  10
ENDBRANCH   8   9
BRANCH   8  22
HETATM   22  O   UNL     1      30.066  74.572  24.104  1.00  0.00    -0.395 OA
HETATM   23  H   UNL     1      30.632  75.171  24.616  1.00  0.00     0.210 HD
ENDBRANCH   8  22
ENDBRANCH   7   8
ENDBRANCH   3   7
BRANCH   5  24
HETATM   24  O   UNL     1      30.225  79.769  21.778  1.00  0.00    -0.361 OA
HETATM   25  H   UNL     1      30.787  80.519  21.777  1.00  0.00     0.217 HD
ENDBRANCH   5  24
TORSDOF 9
ENDMDL
