MODEL 1
REMARK VINA RESULT:     -18.5      0.000      0.000
REMARK  5 active torsions:
REMARK  status: ('A' for Active; 'I' for Inactive)
REMARK    1  A    between atoms: O_1  and  C_10 
REMARK    2  A    between atoms: O_2  and  C_12 
REMARK    3  A    between atoms: C_5  and  C_6 
REMARK    4  A    between atoms: C_5  and  C_7 
REMARK    5  A    between atoms: C_7  and  C_13 
ROOT
HETATM    1  O   UNL     1     -54.097  49.164   7.991  1.00  0.00    -0.358 OA
HETATM    2  H   UNL     1     -53.374  48.672   7.656  1.00  0.00     0.217 HD
ENDROOT
BRANCH   1   3
HETATM    3  C   UNL     1     -53.968  49.856   9.158  1.00  0.00     0.099 A 
HETATM    4  C   UNL     1     -53.763  49.160  10.348  1.00  0.00     0.046 A 
HETATM    5  C   UNL     1     -53.631  49.857  11.549  1.00  0.00    -0.055 A 
HETATM    6  C   UNL     1     -53.703  51.250  11.559  1.00  0.00     0.010 A 
HETATM    7  C   UNL     1     -53.908  51.946  10.368  1.00  0.00     0.040 A 
HETATM    8  C   UNL     1     -54.041  51.249   9.167  1.00  0.00     0.098 A 
BRANCH   5   9
HETATM    9  C   UNL     1     -53.411  49.112  12.823  1.00  0.00     0.049 C 
BRANCH   9  10
HETATM   10  C   UNL     1     -53.239  50.020  14.047  1.00  0.00     0.117 C 
BRANCH  10  11
HETATM   11  C   UNL     1     -53.040  49.220  15.311  1.00  0.00     0.172 C 
HETATM   12  O   UNL     1     -54.207  48.901  15.923  1.00  0.00    -0.648 OA
HETATM   13  O   UNL     1     -51.944  48.870  15.730  1.00  0.00    -0.648 OA
ENDBRANCH  10  11
ENDBRANCH   9  10
ENDBRANCH   5   9
BRANCH   8  14
HETATM   14  O   UNL     1     -54.242  51.939   8.010  1.00  0.00    -0.358 OA
HETATM   15  H   UNL     1     -53.864  51.632   7.209  1.00  0.00     0.217 HD
ENDBRANCH   8  14
ENDBRANCH   1   3
TORSDOF 5
ENDMDL
MODEL 2
REMARK VINA RESULT:     -17.9      0.779      2.113
REMARK  5 active torsions:
REMARK  status: ('A' for Active; 'I' for Inactive)
REMARK    1  A    between atoms: O_1  and  C_10 
REMARK    2  A    between atoms: O_2  and  C_12 
REMARK    3  A    between atoms: C_5  and  C_6 
REMARK    4  A    between atoms: C_5  and  C_7 
REMARK    5  A    between atoms: C_7  and  C_13 
ROOT
HETATM    1  O   UNL     1     -54.254  51.564   8.312  1.00  0.00    -0.358 OA
HETATM    2  H   UNL     1     -54.791  51.420   7.559  1.00  0.00     0.217 HD
ENDROOT
BRANCH   1   3
HETATM    3  C   UNL     1     -54.019  50.545   9.186  1.00  0.00     0.099 A 
HETATM    4  C   UNL     1     -53.932  50.819  10.551  1.00  0.00     0.046 A 
HETATM    5  C   UNL     1     -53.691  49.786  11.455  1.00  0.00    -0.055 A 
HETATM    6  C   UNL     1     -53.538  48.478  10.995  1.00  0.00     0.010 A 
HETATM    7  C   UNL     1     -53.625  48.204   9.631  1.00  0.00     0.040 A 
HETATM    8  C   UNL     1     -53.867  49.238   8.726  1.00  0.00     0.098 A 
BRANCH   5   9
HETATM    9  C   UNL     1     -53.598  50.079  12.915  1.00  0.00     0.049 C 
BRANCH   9  10
HETATM   10  C   UNL     1     -52.890  48.983  13.721  1.00  0.00     0.117 C 
BRANCH  10  11
HETATM   11  C   UNL     1     -53.168  49.111  15.199  1.00  0.00     0.172 C 
HETATM   12  O   UNL     1     -52.073  48.877  15.963  1.00  0.00    -0.648 OA
HETATM   13  O   UNL     1     -54.259  49.417  15.662  1.00  0.00    -0.648 OA
ENDBRANCH  10  11
ENDBRANCH   9  10
ENDBRANCH   5   9
BRANCH   8  14
HETATM   14  O   UNL     1     -53.948  48.959   7.395  1.00  0.00    -0.358 OA
HETATM   15  H   UNL     1     -53.289  49.275   6.809  1.00  0.00     0.217 HD
ENDBRANCH   8  14
ENDBRANCH   1   3
TORSDOF 5
ENDMDL
MODEL 3
REMARK VINA RESULT:     -17.8      2.163      5.545
REMARK  5 active torsions:
REMARK  status: ('A' for Active; 'I' for Inactive)
REMARK    1  A    between atoms: O_1  and  C_10 
REMARK    2  A    between atoms: O_2  and  C_12 
REMARK    3  A    between atoms: C_5  and  C_6 
REMARK    4  A    between atoms: C_5  and  C_7 
REMARK    5  A    between atoms: C_7  and  C_13 
ROOT
HETATM    1  O   UNL     1     -53.841  52.009  13.063  1.00  0.00    -0.358 OA
HETATM    2  H   UNL     1     -53.803  52.409  13.909  1.00  0.00     0.217 HD
ENDROOT
BRANCH   1   3
HETATM    3  C   UNL     1     -53.539  50.688  12.920  1.00  0.00     0.099 A 
HETATM    4  C   UNL     1     -53.673  50.085  11.670  1.00  0.00     0.046 A 
HETATM    5  C   UNL     1     -53.368  48.733  11.511  1.00  0.00    -0.055 A 
HETATM    6  C   UNL     1     -52.928  47.985  12.603  1.00  0.00     0.010 A 
HETATM    7  C   UNL     1     -52.794  48.588  13.853  1.00  0.00     0.040 A 
HETATM    8  C   UNL     1     -53.099  49.940  14.012  1.00  0.00     0.098 A 
BRANCH   5   9
HETATM    9  C   UNL     1     -53.512  48.089  10.174  1.00  0.00     0.049 C 
BRANCH   9  10
HETATM   10  C   UNL     1     -54.914  48.228   9.569  1.00  0.00     0.117 C 
BRANCH  10  11
HETATM   11  C   UNL     1     -55.173  47.180   8.514  1.00  0.00     0.172 C 
HETATM   12  O   UNL     1     -56.251  46.407   8.792  1.00  0.00    -0.648 OA
HETATM   13  O   UNL     1     -54.498  47.054   7.500  1.00  0.00    -0.648 OA
ENDBRANCH  10  11
ENDBRANCH   9  10
ENDBRANCH   5   9
BRANCH   8  14
HETATM   14  O   UNL     1     -52.966  50.518  15.238  1.00  0.00    -0.358 OA
HETATM   15  H   UNL     1     -52.114  50.736  15.563  1.00  0.00     0.217 HD
ENDBRANCH   8  14
ENDBRANCH   1   3
TORSDOF 5
ENDMDL
MODEL 4
REMARK VINA RESULT:     -17.8      0.913      1.934
REMARK  5 active torsions:
REMARK  status: ('A' for Active; 'I' for Inactive)
REMARK    1  A    between atoms: O_1  and  C_10 
REMARK    2  A    between atoms: O_2  and  C_12 
REMARK    3  A    between atoms: C_5  and  C_6 
REMARK    4  A    between atoms: C_5  and  C_7 
REMARK    5  A    between atoms: C_7  and  C_13 
ROOT
HETATM    1  O   UNL     1     -54.057  52.739   9.632  1.00  0.00    -0.358 OA
HETATM    2  H   UNL     1     -54.828  53.255   9.759  1.00  0.00     0.217 HD
ENDROOT
BRANCH   1   3
HETATM    3  C   UNL     1     -53.950  51.516  10.223  1.00  0.00     0.099 A 
HETATM    4  C   UNL     1     -53.746  51.435  11.600  1.00  0.00     0.046 A 
HETATM    5  C   UNL     1     -53.633  50.189  12.216  1.00  0.00    -0.055 A 
HETATM    6  C   UNL     1     -53.727  49.024  11.455  1.00  0.00     0.010 A 
HETATM    7  C   UNL     1     -53.932  49.105  10.078  1.00  0.00     0.040 A 
HETATM    8  C   UNL     1     -54.044  50.351   9.462  1.00  0.00     0.098 A 
BRANCH   5   9
HETATM    9  C   UNL     1     -53.415  50.103  13.689  1.00  0.00     0.049 C 
BRANCH   9  10
HETATM   10  C   UNL     1     -52.757  48.793  14.140  1.00  0.00     0.117 C 
BRANCH  10  11
HETATM   11  C   UNL     1     -53.061  48.485  15.586  1.00  0.00     0.172 C 
HETATM   12  O   UNL     1     -54.266  48.962  15.984  1.00  0.00    -0.648 OA
HETATM   13  O   UNL     1     -52.313  47.850  16.318  1.00  0.00    -0.648 OA
ENDBRANCH  10  11
ENDBRANCH   9  10
ENDBRANCH   5   9
BRANCH   8  14
HETATM   14  O   UNL     1     -54.242  50.418   8.116  1.00  0.00    -0.358 OA
HETATM   15  H   UNL     1     -55.107  50.534   7.775  1.00  0.00     0.217 HD
ENDBRANCH   8  14
ENDBRANCH   1   3
TORSDOF 5
ENDMDL
MODEL 5
REMARK VINA RESULT:     -17.8      1.749      5.453
REMARK  5 active torsions:
REMARK  status: ('A' for Active; 'I' for Inactive)
REMARK    1  A    between atoms: O_1  and  C_10 
REMARK    2  A    between atoms: O_2  and  C_12 
REMARK    3  A    between atoms: C_5  and  C_6 
REMARK    4  A    between atoms: C_5  and  C_7 
REMARK    5  A    between atoms: C_7  and  C_13 
ROOT
HETATM    1  O   UNL     1     -52.658  47.826  14.302  1.00  0.00    -0.358 OA
HETATM    2  H   UNL     1     -52.090  47.152  13.985  1.00  0.00     0.217 HD
ENDROOT
BRANCH   1   3
HETATM    3  C   UNL     1     -53.046  48.836  13.474  1.00  0.00     0.099 A 
HETATM    4  C   UNL     1     -53.317  48.559  12.135  1.00  0.00     0.046 A 
HETATM    5  C   UNL     1     -53.714  49.584  11.277  1.00  0.00    -0.055 A 
HETATM    6  C   UNL     1     -53.840  50.887  11.759  1.00  0.00     0.010 A 
HETATM    7  C   UNL     1     -53.568  51.164  13.098  1.00  0.00     0.040 A 
HETATM    8  C   UNL     1     -53.171  50.139  13.956  1.00  0.00     0.098 A 
BRANCH   5   9
HETATM    9  C   UNL     1     -54.005  49.287   9.844  1.00  0.00     0.049 C 
BRANCH   9  10
HETATM   10  C   UNL     1     -55.333  48.554   9.623  1.00  0.00     0.117 C 
BRANCH  10  11
HETATM   11  C   UNL     1     -55.194  47.439   8.615  1.00  0.00     0.172 C 
HETATM   12  O   UNL     1     -54.499  47.810   7.512  1.00  0.00    -0.648 OA
HETATM   13  O   UNL     1     -55.637  46.310   8.782  1.00  0.00    -0.648 OA
ENDBRANCH  10  11
ENDBRANCH   9  10
ENDBRANCH   5   9
BRANCH   8  14
HETATM   14  O   UNL     1     -52.907  50.422  15.262  1.00  0.00    -0.358 OA
HETATM   15  H   UNL     1     -52.435  51.200  15.487  1.00  0.00     0.217 HD
ENDBRANCH   8  14
ENDBRANCH   1   3
TORSDOF 5
ENDMDL
MODEL 6
REMARK VINA RESULT:     -17.4      1.832      5.391
REMARK  5 active torsions:
REMARK  status: ('A' for Active; 'I' for Inactive)
REMARK    1  A    between atoms: O_1  and  C_10 
REMARK    2  A    between atoms: O_2  and  C_12 
REMARK    3  A    between atoms: C_5  and  C_6 
REMARK    4  A    between atoms: C_5  and  C_7 
REMARK    5  A    between atoms: C_7  and  C_13 
ROOT
HETATM    1  O   UNL     1     -52.925  47.926  13.537  1.00  0.00    -0.358 OA
HETATM    2  H   UNL     1     -53.264  47.086  13.298  1.00  0.00     0.217 HD
ENDROOT
BRANCH   1   3
HETATM    3  C   UNL     1     -53.271  49.030  12.818  1.00  0.00     0.099 A 
HETATM    4  C   UNL     1     -53.517  48.909  11.451  1.00  0.00     0.046 A 
HETATM    5  C   UNL     1     -53.871  50.032  10.704  1.00  0.00    -0.055 A 
HETATM    6  C   UNL     1     -53.980  51.277  11.325  1.00  0.00     0.010 A 
HETATM    7  C   UNL     1     -53.734  51.398  12.692  1.00  0.00     0.040 A 
HETATM    8  C   UNL     1     -53.380  50.275  13.439  1.00  0.00     0.098 A 
BRANCH   5   9
HETATM    9  C   UNL     1     -54.135  49.902   9.242  1.00  0.00     0.049 C 
BRANCH   9  10
HETATM   10  C   UNL     1     -53.259  48.852   8.548  1.00  0.00     0.117 C 
BRANCH  10  11
HETATM   11  C   UNL     1     -54.089  47.863   7.765  1.00  0.00     0.172 C 
HETATM   12  O   UNL     1     -55.287  47.606   8.344  1.00  0.00    -0.648 OA
HETATM   13  O   UNL     1     -53.732  47.364   6.705  1.00  0.00    -0.648 OA
ENDBRANCH  10  11
ENDBRANCH   9  10
ENDBRANCH   5   9
BRANCH   8  14
HETATM   14  O   UNL     1     -53.140  50.405  14.773  1.00  0.00    -0.358 OA
HETATM   15  H   UNL     1     -53.506  49.790  15.378  1.00  0.00     0.217 HD
ENDBRANCH   8  14
ENDBRANCH   1   3
TORSDOF 5
ENDMDL
MODEL 7
REMARK VINA RESULT:     -17.2      1.626      5.437
REMARK  5 active torsions:
REMARK  status: ('A' for Active; 'I' for Inactive)
REMARK    1  A    between atoms: O_1  and  C_10 
REMARK    2  A    between atoms: O_2  and  C_12 
REMARK    3  A    between atoms: C_5  and  C_6 
REMARK    4  A    between atoms: C_5  and  C_7 
REMARK    5  A    between atoms: C_7  and  C_13 
ROOT
HETATM    1  O   UNL     1     -53.869  51.875  13.172  1.00  0.00    -0.358 OA
HETATM    2  H   UNL     1     -53.991  52.256  14.019  1.00  0.00     0.217 HD
ENDROOT
BRANCH   1   3
HETATM    3  C   UNL     1     -53.529  50.561  13.058  1.00  0.00     0.099 A 
HETATM    4  C   UNL     1     -53.672  49.920  11.829  1.00  0.00     0.046 A 
HETATM    5  C   UNL     1     -53.329  48.574  11.700  1.00  0.00    -0.055 A 
HETATM    6  C   UNL     1     -52.843  47.870  12.802  1.00  0.00     0.010 A 
HETATM    7  C   UNL     1     -52.700  48.511  14.031  1.00  0.00     0.040 A 
HETATM    8  C   UNL     1     -53.043  49.857  14.160  1.00  0.00     0.098 A 
BRANCH   5   9
HETATM    9  C   UNL     1     -53.481  47.888  10.384  1.00  0.00     0.049 C 
BRANCH   9  10
HETATM   10  C   UNL     1     -54.485  48.569   9.446  1.00  0.00     0.117 C 
BRANCH  10  11
HETATM   11  C   UNL     1     -53.838  49.675   8.646  1.00  0.00     0.172 C 
HETATM   12  O   UNL     1     -52.801  49.241   7.890  1.00  0.00    -0.648 OA
HETATM   13  O   UNL     1     -54.224  50.837   8.656  1.00  0.00    -0.648 OA
ENDBRANCH  10  11
ENDBRANCH   9  10
ENDBRANCH   5   9
BRANCH   8  14
HETATM   14  O   UNL     1     -52.901  50.473  15.367  1.00  0.00    -0.358 OA
HETATM   15  H   UNL     1     -52.730  49.964  16.135  1.00  0.00     0.217 HD
ENDBRANCH   8  14
ENDBRANCH   1   3
TORSDOF 5
ENDMDL
MODEL 8
REMARK VINA RESULT:     -17.2      2.433      3.590
REMARK  5 active torsions:
REMARK  status: ('A' for Active; 'I' for Inactive)
REMARK    1  A    between atoms: O_1  and  C_10 
REMARK    2  A    between atoms: O_2  and  C_12 
REMARK    3  A    between atoms: C_5  and  C_6 
REMARK    4  A    between atoms: C_5  and  C_7 
REMARK    5  A    between atoms: C_7  and  C_13 
ROOT
HETATM    1  O   UNL     1     -52.603  48.142   6.409  1.00  0.00    -0.358 OA
HETATM    2  H   UNL     1     -51.735  47.794   6.457  1.00  0.00     0.217 HD
ENDROOT
BRANCH   1   3
HETATM    3  C   UNL     1     -53.401  48.137   7.514  1.00  0.00     0.099 A 
HETATM    4  C   UNL     1     -53.304  49.180   8.434  1.00  0.00     0.046 A 
HETATM    5  C   UNL     1     -54.115  49.186   9.569  1.00  0.00    -0.055 A 
HETATM    6  C   UNL     1     -55.022  48.148   9.783  1.00  0.00     0.010 A 
HETATM    7  C   UNL     1     -55.119  47.106   8.862  1.00  0.00     0.040 A 
HETATM    8  C   UNL     1     -54.309  47.100   7.727  1.00  0.00     0.098 A 
BRANCH   5   9
HETATM    9  C   UNL     1     -54.011  50.302  10.553  1.00  0.00     0.049 C 
BRANCH   9  10
HETATM   10  C   UNL     1     -53.622  49.846  11.965  1.00  0.00     0.117 C 
BRANCH  10  11
HETATM   11  C   UNL     1     -53.601  51.000  12.938  1.00  0.00     0.172 C 
HETATM   12  O   UNL     1     -53.478  50.600  14.227  1.00  0.00    -0.648 OA
HETATM   13  O   UNL     1     -53.662  52.175  12.601  1.00  0.00    -0.648 OA
ENDBRANCH  10  11
ENDBRANCH   9  10
ENDBRANCH   5   9
BRANCH   8  14
HETATM   14  O   UNL     1     -54.410  46.075   6.836  1.00  0.00    -0.358 OA
HETATM   15  H   UNL     1     -54.270  46.233   5.923  1.00  0.00     0.217 HD
ENDBRANCH   8  14
ENDBRANCH   1   3
TORSDOF 5
ENDMDL
MODEL 9
REMARK VINA RESULT:     -17.1      2.553      3.636
REMARK  5 active torsions:
REMARK  status: ('A' for Active; 'I' for Inactive)
REMARK    1  A    between atoms: O_1  and  C_10 
REMARK    2  A    between atoms: O_2  and  C_12 
REMARK    3  A    between atoms: C_5  and  C_6 
REMARK    4  A    between atoms: C_5  and  C_7 
REMARK    5  A    between atoms: C_7  and  C_13 
ROOT
HETATM    1  O   UNL     1     -55.975  46.154   8.764  1.00  0.00    -0.358 OA
HETATM    2  H   UNL     1     -56.256  45.690   8.001  1.00  0.00     0.217 HD
ENDROOT
BRANCH   1   3
HETATM    3  C   UNL     1     -55.046  47.144   8.657  1.00  0.00     0.099 A 
HETATM    4  C   UNL     1     -55.018  48.165   9.606  1.00  0.00     0.046 A 
HETATM    5  C   UNL     1     -54.072  49.185   9.507  1.00  0.00    -0.055 A 
HETATM    6  C   UNL     1     -53.153  49.183   8.458  1.00  0.00     0.010 A 
HETATM    7  C   UNL     1     -53.180  48.162   7.508  1.00  0.00     0.040 A 
HETATM    8  C   UNL     1     -54.126  47.142   7.608  1.00  0.00     0.098 A 
BRANCH   5   9
HETATM    9  C   UNL     1     -54.043  50.276  10.523  1.00  0.00     0.049 C 
BRANCH   9  10
HETATM   10  C   UNL     1     -53.658  49.801  11.929  1.00  0.00     0.117 C 
BRANCH  10  11
HETATM   11  C   UNL     1     -53.629  50.944  12.915  1.00  0.00     0.172 C 
HETATM   12  O   UNL     1     -53.553  50.527  14.202  1.00  0.00    -0.648 OA
HETATM   13  O   UNL     1     -53.646  52.124  12.590  1.00  0.00    -0.648 OA
ENDBRANCH  10  11
ENDBRANCH   9  10
ENDBRANCH   5   9
BRANCH   8  14
HETATM   14  O   UNL     1     -54.145  46.151   6.674  1.00  0.00    -0.358 OA
HETATM   15  H   UNL     1     -54.682  46.237   5.910  1.00  0.00     0.217 HD
ENDBRANCH   8  14
ENDBRANCH   1   3
TORSDOF 5
ENDMDL
