MODEL 1
REMARK VINA RESULT:      -8.6      0.000      0.000
REMARK  5 active torsions:
REMARK  status: ('A' for Active; 'I' for Inactive)
REMARK    1  A    between atoms: O_1  and  C_10 
REMARK    2  A    between atoms: O_2  and  C_12 
REMARK    3  A    between atoms: C_5  and  C_6 
REMARK    4  A    between atoms: C_5  and  C_7 
REMARK    5  A    between atoms: C_7  and  C_13 
ROOT
HETATM    1  O   UNL     1     -57.022  45.198   8.150  1.00  0.00    -0.358 OA
HETATM    2  H   UNL     1     -57.893  45.370   8.448  1.00  0.00     0.217 HD
ENDROOT
BRANCH   1   3
HETATM    3  C   UNL     1     -55.993  45.993   8.559  1.00  0.00     0.099 A 
HETATM    4  C   UNL     1     -56.244  47.323   8.891  1.00  0.00     0.046 A 
HETATM    5  C   UNL     1     -55.199  48.147   9.309  1.00  0.00    -0.055 A 
HETATM    6  C   UNL     1     -53.903  47.638   9.397  1.00  0.00     0.010 A 
HETATM    7  C   UNL     1     -53.652  46.307   9.065  1.00  0.00     0.040 A 
HETATM    8  C   UNL     1     -54.697  45.484   8.646  1.00  0.00     0.098 A 
BRANCH   5   9
HETATM    9  C   UNL     1     -55.468  49.570   9.665  1.00  0.00     0.049 C 
BRANCH   9  10
HETATM   10  C   UNL     1     -54.205  50.371  10.003  1.00  0.00     0.117 C 
BRANCH  10  11
HETATM   11  C   UNL     1     -54.137  51.661   9.223  1.00  0.00     0.172 C 
HETATM   12  O   UNL     1     -54.659  51.552   7.977  1.00  0.00    -0.648 OA
HETATM   13  O   UNL     1     -53.684  52.706   9.672  1.00  0.00    -0.648 OA
ENDBRANCH  10  11
ENDBRANCH   9  10
ENDBRANCH   5   9
BRANCH   8  14
HETATM   14  O   UNL     1     -54.440  44.186   8.323  1.00  0.00    -0.358 OA
HETATM   15  H   UNL     1     -55.148  43.585   8.200  1.00  0.00     0.217 HD
ENDBRANCH   8  14
ENDBRANCH   1   3
TORSDOF 5
ENDMDL
MODEL 2
REMARK VINA RESULT:      -8.6      0.637      2.071
REMARK  5 active torsions:
REMARK  status: ('A' for Active; 'I' for Inactive)
REMARK    1  A    between atoms: O_1  and  C_10 
REMARK    2  A    between atoms: O_2  and  C_12 
REMARK    3  A    between atoms: C_5  and  C_6 
REMARK    4  A    between atoms: C_5  and  C_7 
REMARK    5  A    between atoms: C_7  and  C_13 
ROOT
HETATM    1  O   UNL     1     -54.638  44.504   8.896  1.00  0.00    -0.358 OA
HETATM    2  H   UNL     1     -54.725  43.927   9.629  1.00  0.00     0.217 HD
ENDROOT
BRANCH   1   3
HETATM    3  C   UNL     1     -55.082  45.789   8.984  1.00  0.00     0.099 A 
HETATM    4  C   UNL     1     -54.175  46.810   9.266  1.00  0.00     0.046 A 
HETATM    5  C   UNL     1     -54.618  48.129   9.360  1.00  0.00    -0.055 A 
HETATM    6  C   UNL     1     -55.968  48.427   9.171  1.00  0.00     0.010 A 
HETATM    7  C   UNL     1     -56.874  47.406   8.890  1.00  0.00     0.040 A 
HETATM    8  C   UNL     1     -56.432  46.086   8.796  1.00  0.00     0.098 A 
BRANCH   5   9
HETATM    9  C   UNL     1     -53.648  49.221   9.660  1.00  0.00     0.049 C 
BRANCH   9  10
HETATM   10  C   UNL     1     -54.305  50.505  10.183  1.00  0.00     0.117 C 
BRANCH  10  11
HETATM   11  C   UNL     1     -54.240  51.618   9.165  1.00  0.00     0.172 C 
HETATM   12  O   UNL     1     -53.739  52.769   9.675  1.00  0.00    -0.648 OA
HETATM   13  O   UNL     1     -54.580  51.492   7.996  1.00  0.00    -0.648 OA
ENDBRANCH  10  11
ENDBRANCH   9  10
ENDBRANCH   5   9
BRANCH   8  14
HETATM   14  O   UNL     1     -57.327  45.097   8.523  1.00  0.00    -0.358 OA
HETATM   15  H   UNL     1     -58.093  44.998   9.053  1.00  0.00     0.217 HD
ENDBRANCH   8  14
ENDBRANCH   1   3
TORSDOF 5
ENDMDL
MODEL 3
REMARK VINA RESULT:      -8.2      1.015      1.559
REMARK  5 active torsions:
REMARK  status: ('A' for Active; 'I' for Inactive)
REMARK    1  A    between atoms: O_1  and  C_10 
REMARK    2  A    between atoms: O_2  and  C_12 
REMARK    3  A    between atoms: C_5  and  C_6 
REMARK    4  A    between atoms: C_5  and  C_7 
REMARK    5  A    between atoms: C_7  and  C_13 
ROOT
HETATM    1  O   UNL     1     -56.473  45.278   8.286  1.00  0.00    -0.358 OA
HETATM    2  H   UNL     1     -56.679  44.367   8.226  1.00  0.00     0.217 HD
ENDROOT
BRANCH   1   3
HETATM    3  C   UNL     1     -55.191  45.673   8.522  1.00  0.00     0.099 A 
HETATM    4  C   UNL     1     -54.953  46.900   9.140  1.00  0.00     0.046 A 
HETATM    5  C   UNL     1     -53.645  47.316   9.386  1.00  0.00    -0.055 A 
HETATM    6  C   UNL     1     -52.574  46.502   9.014  1.00  0.00     0.010 A 
HETATM    7  C   UNL     1     -52.811  45.275   8.397  1.00  0.00     0.040 A 
HETATM    8  C   UNL     1     -54.120  44.860   8.151  1.00  0.00     0.098 A 
BRANCH   5   9
HETATM    9  C   UNL     1     -53.391  48.628  10.047  1.00  0.00     0.049 C 
BRANCH   9  10
HETATM   10  C   UNL     1     -54.581  49.594   9.978  1.00  0.00     0.117 C 
BRANCH  10  11
HETATM   11  C   UNL     1     -54.140  50.998   9.640  1.00  0.00     0.172 C 
HETATM   12  O   UNL     1     -53.800  51.721  10.735  1.00  0.00    -0.648 OA
HETATM   13  O   UNL     1     -54.072  51.433   8.498  1.00  0.00    -0.648 OA
ENDBRANCH  10  11
ENDBRANCH   9  10
ENDBRANCH   5   9
BRANCH   8  14
HETATM   14  O   UNL     1     -54.340  43.660   7.545  1.00  0.00    -0.358 OA
HETATM   15  H   UNL     1     -53.635  43.050   7.444  1.00  0.00     0.217 HD
ENDBRANCH   8  14
ENDBRANCH   1   3
TORSDOF 5
ENDMDL
MODEL 4
REMARK VINA RESULT:      -7.6      0.875      2.113
REMARK  5 active torsions:
REMARK  status: ('A' for Active; 'I' for Inactive)
REMARK    1  A    between atoms: O_1  and  C_10 
REMARK    2  A    between atoms: O_2  and  C_12 
REMARK    3  A    between atoms: C_5  and  C_6 
REMARK    4  A    between atoms: C_5  and  C_7 
REMARK    5  A    between atoms: C_7  and  C_13 
ROOT
HETATM    1  O   UNL     1     -52.312  45.686   9.310  1.00  0.00    -0.358 OA
HETATM    2  H   UNL     1     -51.880  45.187   8.645  1.00  0.00     0.217 HD
ENDROOT
BRANCH   1   3
HETATM    3  C   UNL     1     -53.578  46.144   9.104  1.00  0.00     0.099 A 
HETATM    4  C   UNL     1     -53.900  47.453   9.461  1.00  0.00     0.046 A 
HETATM    5  C   UNL     1     -55.193  47.933   9.256  1.00  0.00    -0.055 A 
HETATM    6  C   UNL     1     -56.164  47.105   8.693  1.00  0.00     0.010 A 
HETATM    7  C   UNL     1     -55.842  45.797   8.335  1.00  0.00     0.040 A 
HETATM    8  C   UNL     1     -54.549  45.316   8.540  1.00  0.00     0.098 A 
BRANCH   5   9
HETATM    9  C   UNL     1     -55.538  49.333   9.639  1.00  0.00     0.049 C 
BRANCH   9  10
HETATM   10  C   UNL     1     -54.330  50.166  10.085  1.00  0.00     0.117 C 
BRANCH  10  11
HETATM   11  C   UNL     1     -54.234  51.464   9.320  1.00  0.00     0.172 C 
HETATM   12  O   UNL     1     -53.741  52.481  10.067  1.00  0.00    -0.648 OA
HETATM   13  O   UNL     1     -54.543  51.583   8.141  1.00  0.00    -0.648 OA
ENDBRANCH  10  11
ENDBRANCH   9  10
ENDBRANCH   5   9
BRANCH   8  14
HETATM   14  O   UNL     1     -54.246  44.035   8.189  1.00  0.00    -0.358 OA
HETATM   15  H   UNL     1     -54.875  43.353   8.316  1.00  0.00     0.217 HD
ENDBRANCH   8  14
ENDBRANCH   1   3
TORSDOF 5
ENDMDL
MODEL 5
REMARK VINA RESULT:      -7.1      1.965      2.736
REMARK  5 active torsions:
REMARK  status: ('A' for Active; 'I' for Inactive)
REMARK    1  A    between atoms: O_1  and  C_10 
REMARK    2  A    between atoms: O_2  and  C_12 
REMARK    3  A    between atoms: C_5  and  C_6 
REMARK    4  A    between atoms: C_5  and  C_7 
REMARK    5  A    between atoms: C_7  and  C_13 
ROOT
HETATM    1  O   UNL     1     -52.661  45.414   7.484  1.00  0.00    -0.358 OA
HETATM    2  H   UNL     1     -51.957  45.499   6.873  1.00  0.00     0.217 HD
ENDROOT
BRANCH   1   3
HETATM    3  C   UNL     1     -52.596  46.044   8.691  1.00  0.00     0.099 A 
HETATM    4  C   UNL     1     -53.546  47.014   9.010  1.00  0.00     0.046 A 
HETATM    5  C   UNL     1     -53.489  47.667  10.242  1.00  0.00    -0.055 A 
HETATM    6  C   UNL     1     -52.482  47.349  11.153  1.00  0.00     0.010 A 
HETATM    7  C   UNL     1     -51.533  46.379  10.834  1.00  0.00     0.040 A 
HETATM    8  C   UNL     1     -51.589  45.726   9.603  1.00  0.00     0.098 A 
BRANCH   5   9
HETATM    9  C   UNL     1     -54.505  48.704  10.583  1.00  0.00     0.049 C 
BRANCH   9  10
HETATM   10  C   UNL     1     -55.011  49.495   9.371  1.00  0.00     0.117 C 
BRANCH  10  11
HETATM   11  C   UNL     1     -54.428  50.887   9.332  1.00  0.00     0.172 C 
HETATM   12  O   UNL     1     -53.853  51.251  10.504  1.00  0.00    -0.648 OA
HETATM   13  O   UNL     1     -54.448  51.606   8.341  1.00  0.00    -0.648 OA
ENDBRANCH  10  11
ENDBRANCH   9  10
ENDBRANCH   5   9
BRANCH   8  14
HETATM   14  O   UNL     1     -50.656  44.782   9.300  1.00  0.00    -0.358 OA
HETATM   15  H   UNL     1     -50.752  44.258   8.529  1.00  0.00     0.217 HD
ENDBRANCH   8  14
ENDBRANCH   1   3
TORSDOF 5
ENDMDL
MODEL 6
REMARK VINA RESULT:      -7.0      2.836      3.577
REMARK  5 active torsions:
REMARK  status: ('A' for Active; 'I' for Inactive)
REMARK    1  A    between atoms: O_1  and  C_10 
REMARK    2  A    between atoms: O_2  and  C_12 
REMARK    3  A    between atoms: C_5  and  C_6 
REMARK    4  A    between atoms: C_5  and  C_7 
REMARK    5  A    between atoms: C_7  and  C_13 
ROOT
HETATM    1  O   UNL     1     -52.195  47.176  12.970  1.00  0.00    -0.358 OA
HETATM    2  H   UNL     1     -52.523  47.905  13.457  1.00  0.00     0.217 HD
ENDROOT
BRANCH   1   3
HETATM    3  C   UNL     1     -52.251  47.185  11.608  1.00  0.00     0.099 A 
HETATM    4  C   UNL     1     -53.344  47.772  10.971  1.00  0.00     0.046 A 
HETATM    5  C   UNL     1     -53.413  47.787   9.578  1.00  0.00    -0.055 A 
HETATM    6  C   UNL     1     -52.388  47.216   8.823  1.00  0.00     0.010 A 
HETATM    7  C   UNL     1     -51.296  46.630   9.460  1.00  0.00     0.040 A 
HETATM    8  C   UNL     1     -51.226  46.615  10.853  1.00  0.00     0.098 A 
BRANCH   5   9
HETATM    9  C   UNL     1     -54.582  48.414   8.897  1.00  0.00     0.049 C 
BRANCH   9  10
HETATM   10  C   UNL     1     -55.199  49.580   9.678  1.00  0.00     0.117 C 
BRANCH  10  11
HETATM   11  C   UNL     1     -54.469  50.875   9.416  1.00  0.00     0.172 C 
HETATM   12  O   UNL     1     -53.841  51.358  10.516  1.00  0.00    -0.648 OA
HETATM   13  O   UNL     1     -54.425  51.422   8.322  1.00  0.00    -0.648 OA
ENDBRANCH  10  11
ENDBRANCH   9  10
ENDBRANCH   5   9
BRANCH   8  14
HETATM   14  O   UNL     1     -50.155  46.038  11.465  1.00  0.00    -0.358 OA
HETATM   15  H   UNL     1     -49.486  46.575  11.844  1.00  0.00     0.217 HD
ENDBRANCH   8  14
ENDBRANCH   1   3
TORSDOF 5
ENDMDL
MODEL 7
REMARK VINA RESULT:      -6.8      2.567      5.888
REMARK  5 active torsions:
REMARK  status: ('A' for Active; 'I' for Inactive)
REMARK    1  A    between atoms: O_1  and  C_10 
REMARK    2  A    between atoms: O_2  and  C_12 
REMARK    3  A    between atoms: C_5  and  C_6 
REMARK    4  A    between atoms: C_5  and  C_7 
REMARK    5  A    between atoms: C_7  and  C_13 
ROOT
HETATM    1  O   UNL     1     -51.751  48.532   7.238  1.00  0.00    -0.358 OA
HETATM    2  H   UNL     1     -50.898  48.310   6.921  1.00  0.00     0.217 HD
ENDROOT
BRANCH   1   3
HETATM    3  C   UNL     1     -52.187  48.031   8.427  1.00  0.00     0.099 A 
HETATM    4  C   UNL     1     -51.673  46.822   8.892  1.00  0.00     0.046 A 
HETATM    5  C   UNL     1     -52.112  46.298  10.108  1.00  0.00    -0.055 A 
HETATM    6  C   UNL     1     -53.067  46.985  10.858  1.00  0.00     0.010 A 
HETATM    7  C   UNL     1     -53.582  48.194  10.393  1.00  0.00     0.040 A 
HETATM    8  C   UNL     1     -53.142  48.718   9.178  1.00  0.00     0.098 A 
BRANCH   5   9
HETATM    9  C   UNL     1     -51.561  45.004  10.605  1.00  0.00     0.049 C 
BRANCH   9  10
HETATM   10  C   UNL     1     -51.892  43.806   9.707  1.00  0.00     0.117 C 
BRANCH  10  11
HETATM   11  C   UNL     1     -53.382  43.599   9.580  1.00  0.00     0.172 C 
HETATM   12  O   UNL     1     -53.799  43.552   8.291  1.00  0.00    -0.648 OA
HETATM   13  O   UNL     1     -54.134  43.462  10.536  1.00  0.00    -0.648 OA
ENDBRANCH  10  11
ENDBRANCH   9  10
ENDBRANCH   5   9
BRANCH   8  14
HETATM   14  O   UNL     1     -53.653  49.899   8.732  1.00  0.00    -0.358 OA
HETATM   15  H   UNL     1     -54.515  50.163   8.988  1.00  0.00     0.217 HD
ENDBRANCH   8  14
ENDBRANCH   1   3
TORSDOF 5
ENDMDL
MODEL 8
REMARK VINA RESULT:      -6.8      2.260      5.577
REMARK  5 active torsions:
REMARK  status: ('A' for Active; 'I' for Inactive)
REMARK    1  A    between atoms: O_1  and  C_10 
REMARK    2  A    between atoms: O_2  and  C_12 
REMARK    3  A    between atoms: C_5  and  C_6 
REMARK    4  A    between atoms: C_5  and  C_7 
REMARK    5  A    between atoms: C_7  and  C_13 
ROOT
HETATM    1  O   UNL     1     -54.945  48.614   8.293  1.00  0.00    -0.358 OA
HETATM    2  H   UNL     1     -54.845  48.502   7.369  1.00  0.00     0.217 HD
ENDROOT
BRANCH   1   3
HETATM    3  C   UNL     1     -54.268  47.803   9.154  1.00  0.00     0.099 A 
HETATM    4  C   UNL     1     -54.265  46.425   8.940  1.00  0.00     0.046 A 
HETATM    5  C   UNL     1     -53.577  45.585   9.814  1.00  0.00    -0.055 A 
HETATM    6  C   UNL     1     -52.890  46.123  10.902  1.00  0.00     0.010 A 
HETATM    7  C   UNL     1     -52.892  47.501  11.116  1.00  0.00     0.040 A 
HETATM    8  C   UNL     1     -53.581  48.341  10.242  1.00  0.00     0.098 A 
BRANCH   5   9
HETATM    9  C   UNL     1     -53.574  44.111   9.585  1.00  0.00     0.049 C 
BRANCH   9  10
HETATM   10  C   UNL     1     -52.758  43.678   8.361  1.00  0.00     0.117 C 
BRANCH  10  11
HETATM   11  C   UNL     1     -53.589  43.700   7.101  1.00  0.00     0.172 C 
HETATM   12  O   UNL     1     -53.112  44.563   6.170  1.00  0.00    -0.648 OA
HETATM   13  O   UNL     1     -54.575  42.997   6.923  1.00  0.00    -0.648 OA
ENDBRANCH  10  11
ENDBRANCH   9  10
ENDBRANCH   5   9
BRANCH   8  14
HETATM   14  O   UNL     1     -53.578  49.685  10.462  1.00  0.00    -0.358 OA
HETATM   15  H   UNL     1     -52.870  50.211  10.143  1.00  0.00     0.217 HD
ENDBRANCH   8  14
ENDBRANCH   1   3
TORSDOF 5
ENDMDL
MODEL 9
REMARK VINA RESULT:      -6.7      4.323      5.339
REMARK  5 active torsions:
REMARK  status: ('A' for Active; 'I' for Inactive)
REMARK    1  A    between atoms: O_1  and  C_10 
REMARK    2  A    between atoms: O_2  and  C_12 
REMARK    3  A    between atoms: C_5  and  C_6 
REMARK    4  A    between atoms: C_5  and  C_7 
REMARK    5  A    between atoms: C_7  and  C_13 
ROOT
HETATM    1  O   UNL     1     -54.132  48.816   8.448  1.00  0.00    -0.358 OA
HETATM    2  H   UNL     1     -54.031  49.734   8.297  1.00  0.00     0.217 HD
ENDROOT
BRANCH   1   3
HETATM    3  C   UNL     1     -53.156  48.121   9.097  1.00  0.00     0.099 A 
HETATM    4  C   UNL     1     -53.338  47.770  10.434  1.00  0.00     0.046 A 
HETATM    5  C   UNL     1     -52.346  47.059  11.109  1.00  0.00    -0.055 A 
HETATM    6  C   UNL     1     -51.172  46.699  10.447  1.00  0.00     0.010 A 
HETATM    7  C   UNL     1     -50.991  47.050   9.110  1.00  0.00     0.040 A 
HETATM    8  C   UNL     1     -51.983  47.761   8.434  1.00  0.00     0.098 A 
BRANCH   5   9
HETATM    9  C   UNL     1     -52.541  46.684  12.539  1.00  0.00     0.049 C 
BRANCH   9  10
HETATM   10  C   UNL     1     -51.320  46.966  13.424  1.00  0.00     0.117 C 
BRANCH  10  11
HETATM   11  C   UNL     1     -51.724  47.310  14.837  1.00  0.00     0.172 C 
HETATM   12  O   UNL     1     -51.445  48.595  15.167  1.00  0.00    -0.648 OA
HETATM   13  O   UNL     1     -52.268  46.522  15.600  1.00  0.00    -0.648 OA
ENDBRANCH  10  11
ENDBRANCH   9  10
ENDBRANCH   5   9
BRANCH   8  14
HETATM   14  O   UNL     1     -51.794  48.100   7.129  1.00  0.00    -0.358 OA
HETATM   15  H   UNL     1     -51.885  47.451   6.458  1.00  0.00     0.217 HD
ENDBRANCH   8  14
ENDBRANCH   1   3
TORSDOF 5
ENDMDL
