MODEL 1
REMARK VINA RESULT:      -8.7      0.000      0.000
REMARK  5 active torsions:
REMARK  status: ('A' for Active; 'I' for Inactive)
REMARK    1  A    between atoms: O_1  and  C_10 
REMARK    2  A    between atoms: O_2  and  C_12 
REMARK    3  A    between atoms: C_5  and  C_6 
REMARK    4  A    between atoms: C_5  and  C_7 
REMARK    5  A    between atoms: C_7  and  C_13 
ROOT
HETATM    1  O   UNL     1     -54.661  44.531   8.737  1.00  0.00    -0.358 OA
HETATM    2  H   UNL     1     -54.329  44.258   7.904  1.00  0.00     0.217 HD
ENDROOT
BRANCH   1   3
HETATM    3  C   UNL     1     -55.122  45.802   8.903  1.00  0.00     0.099 A 
HETATM    4  C   UNL     1     -54.222  46.824   9.204  1.00  0.00     0.046 A 
HETATM    5  C   UNL     1     -54.682  48.129   9.378  1.00  0.00    -0.055 A 
HETATM    6  C   UNL     1     -56.042  48.412   9.251  1.00  0.00     0.010 A 
HETATM    7  C   UNL     1     -56.942  47.390   8.950  1.00  0.00     0.040 A 
HETATM    8  C   UNL     1     -56.482  46.085   8.776  1.00  0.00     0.098 A 
BRANCH   5   9
HETATM    9  C   UNL     1     -53.719  49.222   9.700  1.00  0.00     0.049 C 
BRANCH   9  10
HETATM   10  C   UNL     1     -54.391  50.515  10.177  1.00  0.00     0.117 C 
BRANCH  10  11
HETATM   11  C   UNL     1     -54.291  51.610   9.142  1.00  0.00     0.172 C 
HETATM   12  O   UNL     1     -53.756  52.753   9.634  1.00  0.00    -0.648 OA
HETATM   13  O   UNL     1     -54.633  51.475   7.974  1.00  0.00    -0.648 OA
ENDBRANCH  10  11
ENDBRANCH   9  10
ENDBRANCH   5   9
BRANCH   8  14
HETATM   14  O   UNL     1     -57.370  45.094   8.484  1.00  0.00    -0.358 OA
HETATM   15  H   UNL     1     -57.163  44.458   7.827  1.00  0.00     0.217 HD
ENDBRANCH   8  14
ENDBRANCH   1   3
TORSDOF 5
ENDMDL
MODEL 2
REMARK VINA RESULT:      -8.6      0.621      2.069
REMARK  5 active torsions:
REMARK  status: ('A' for Active; 'I' for Inactive)
REMARK    1  A    between atoms: O_1  and  C_10 
REMARK    2  A    between atoms: O_2  and  C_12 
REMARK    3  A    between atoms: C_5  and  C_6 
REMARK    4  A    between atoms: C_5  and  C_7 
REMARK    5  A    between atoms: C_7  and  C_13 
ROOT
HETATM    1  O   UNL     1     -57.034  45.180   8.176  1.00  0.00    -0.358 OA
HETATM    2  H   UNL     1     -56.847  44.401   7.690  1.00  0.00     0.217 HD
ENDROOT
BRANCH   1   3
HETATM    3  C   UNL     1     -56.018  45.995   8.573  1.00  0.00     0.099 A 
HETATM    4  C   UNL     1     -56.289  47.327   8.884  1.00  0.00     0.046 A 
HETATM    5  C   UNL     1     -55.256  48.172   9.291  1.00  0.00    -0.055 A 
HETATM    6  C   UNL     1     -53.953  47.684   9.388  1.00  0.00     0.010 A 
HETATM    7  C   UNL     1     -53.682  46.352   9.077  1.00  0.00     0.040 A 
HETATM    8  C   UNL     1     -54.714  45.507   8.670  1.00  0.00     0.098 A 
BRANCH   5   9
HETATM    9  C   UNL     1     -55.547  49.597   9.624  1.00  0.00     0.049 C 
BRANCH   9  10
HETATM   10  C   UNL     1     -54.311  50.391  10.065  1.00  0.00     0.117 C 
BRANCH  10  11
HETATM   11  C   UNL     1     -54.137  51.649   9.248  1.00  0.00     0.172 C 
HETATM   12  O   UNL     1     -54.640  51.537   7.995  1.00  0.00    -0.648 OA
HETATM   13  O   UNL     1     -53.621  52.673   9.677  1.00  0.00    -0.648 OA
ENDBRANCH  10  11
ENDBRANCH   9  10
ENDBRANCH   5   9
BRANCH   8  14
HETATM   14  O   UNL     1     -54.438  44.208   8.367  1.00  0.00    -0.358 OA
HETATM   15  H   UNL     1     -54.975  43.522   8.711  1.00  0.00     0.217 HD
ENDBRANCH   8  14
ENDBRANCH   1   3
TORSDOF 5
ENDMDL
MODEL 3
REMARK VINA RESULT:      -8.2      1.205      2.281
REMARK  5 active torsions:
REMARK  status: ('A' for Active; 'I' for Inactive)
REMARK    1  A    between atoms: O_1  and  C_10 
REMARK    2  A    between atoms: O_2  and  C_12 
REMARK    3  A    between atoms: C_5  and  C_6 
REMARK    4  A    between atoms: C_5  and  C_7 
REMARK    5  A    between atoms: C_7  and  C_13 
ROOT
HETATM    1  O   UNL     1     -56.434  45.214   8.356  1.00  0.00    -0.358 OA
HETATM    2  H   UNL     1     -56.734  44.445   8.800  1.00  0.00     0.217 HD
ENDROOT
BRANCH   1   3
HETATM    3  C   UNL     1     -55.162  45.661   8.552  1.00  0.00     0.099 A 
HETATM    4  C   UNL     1     -54.956  46.919   9.115  1.00  0.00     0.046 A 
HETATM    5  C   UNL     1     -53.658  47.388   9.319  1.00  0.00    -0.055 A 
HETATM    6  C   UNL     1     -52.566  46.597   8.960  1.00  0.00     0.010 A 
HETATM    7  C   UNL     1     -52.772  45.339   8.396  1.00  0.00     0.040 A 
HETATM    8  C   UNL     1     -54.070  44.870   8.192  1.00  0.00     0.098 A 
BRANCH   5   9
HETATM    9  C   UNL     1     -53.438  48.734   9.922  1.00  0.00     0.049 C 
BRANCH   9  10
HETATM   10  C   UNL     1     -54.657  49.660   9.827  1.00  0.00     0.117 C 
BRANCH  10  11
HETATM   11  C   UNL     1     -54.253  51.086   9.538  1.00  0.00     0.172 C 
HETATM   12  O   UNL     1     -53.778  51.731  10.631  1.00  0.00    -0.648 OA
HETATM   13  O   UNL     1     -54.321  51.601   8.430  1.00  0.00    -0.648 OA
ENDBRANCH  10  11
ENDBRANCH   9  10
ENDBRANCH   5   9
BRANCH   8  14
HETATM   14  O   UNL     1     -54.260  43.639   7.640  1.00  0.00    -0.358 OA
HETATM   15  H   UNL     1     -54.719  42.977   8.117  1.00  0.00     0.217 HD
ENDBRANCH   8  14
ENDBRANCH   1   3
TORSDOF 5
ENDMDL
MODEL 4
REMARK VINA RESULT:      -7.7      1.164      1.918
REMARK  5 active torsions:
REMARK  status: ('A' for Active; 'I' for Inactive)
REMARK    1  A    between atoms: O_1  and  C_10 
REMARK    2  A    between atoms: O_2  and  C_12 
REMARK    3  A    between atoms: C_5  and  C_6 
REMARK    4  A    between atoms: C_5  and  C_7 
REMARK    5  A    between atoms: C_7  and  C_13 
ROOT
HETATM    1  O   UNL     1     -52.370  45.843   9.985  1.00  0.00    -0.358 OA
HETATM    2  H   UNL     1     -52.146  44.939   9.884  1.00  0.00     0.217 HD
ENDROOT
BRANCH   1   3
HETATM    3  C   UNL     1     -53.587  46.294   9.569  1.00  0.00     0.099 A 
HETATM    4  C   UNL     1     -53.926  47.632   9.765  1.00  0.00     0.046 A 
HETATM    5  C   UNL     1     -55.169  48.105   9.345  1.00  0.00    -0.055 A 
HETATM    6  C   UNL     1     -56.072  47.240   8.728  1.00  0.00     0.010 A 
HETATM    7  C   UNL     1     -55.733  45.902   8.532  1.00  0.00     0.040 A 
HETATM    8  C   UNL     1     -54.490  45.428   8.952  1.00  0.00     0.098 A 
BRANCH   5   9
HETATM    9  C   UNL     1     -55.532  49.537   9.555  1.00  0.00     0.049 C 
BRANCH   9  10
HETATM   10  C   UNL     1     -54.374  50.397  10.075  1.00  0.00     0.117 C 
BRANCH  10  11
HETATM   11  C   UNL     1     -54.176  51.635   9.233  1.00  0.00     0.172 C 
HETATM   12  O   UNL     1     -54.633  51.488   7.966  1.00  0.00    -0.648 OA
HETATM   13  O   UNL     1     -53.680  52.672   9.654  1.00  0.00    -0.648 OA
ENDBRANCH  10  11
ENDBRANCH   9  10
ENDBRANCH   5   9
BRANCH   8  14
HETATM   14  O   UNL     1     -54.170  44.119   8.757  1.00  0.00    -0.358 OA
HETATM   15  H   UNL     1     -54.744  43.565   8.265  1.00  0.00     0.217 HD
ENDBRANCH   8  14
ENDBRANCH   1   3
TORSDOF 5
ENDMDL
MODEL 5
REMARK VINA RESULT:      -7.7      1.517      2.010
REMARK  5 active torsions:
REMARK  status: ('A' for Active; 'I' for Inactive)
REMARK    1  A    between atoms: O_1  and  C_10 
REMARK    2  A    between atoms: O_2  and  C_12 
REMARK    3  A    between atoms: C_5  and  C_6 
REMARK    4  A    between atoms: C_5  and  C_7 
REMARK    5  A    between atoms: C_7  and  C_13 
ROOT
HETATM    1  O   UNL     1     -51.752  44.602   7.968  1.00  0.00    -0.358 OA
HETATM    2  H   UNL     1     -51.434  44.654   7.089  1.00  0.00     0.217 HD
ENDROOT
BRANCH   1   3
HETATM    3  C   UNL     1     -52.830  45.343   8.347  1.00  0.00     0.099 A 
HETATM    4  C   UNL     1     -52.632  46.585   8.948  1.00  0.00     0.046 A 
HETATM    5  C   UNL     1     -53.728  47.352   9.342  1.00  0.00    -0.055 A 
HETATM    6  C   UNL     1     -55.023  46.877   9.134  1.00  0.00     0.010 A 
HETATM    7  C   UNL     1     -55.221  45.634   8.533  1.00  0.00     0.040 A 
HETATM    8  C   UNL     1     -54.125  44.867   8.139  1.00  0.00     0.098 A 
BRANCH   5   9
HETATM    9  C   UNL     1     -53.516  48.681   9.985  1.00  0.00     0.049 C 
BRANCH   9  10
HETATM   10  C   UNL     1     -54.712  49.632   9.847  1.00  0.00     0.117 C 
BRANCH  10  11
HETATM   11  C   UNL     1     -54.270  51.043   9.541  1.00  0.00     0.172 C 
HETATM   12  O   UNL     1     -53.774  51.687  10.625  1.00  0.00    -0.648 OA
HETATM   13  O   UNL     1     -54.328  51.547   8.427  1.00  0.00    -0.648 OA
ENDBRANCH  10  11
ENDBRANCH   9  10
ENDBRANCH   5   9
BRANCH   8  14
HETATM   14  O   UNL     1     -54.330  43.654   7.555  1.00  0.00    -0.358 OA
HETATM   15  H   UNL     1     -53.806  42.919   7.804  1.00  0.00     0.217 HD
ENDBRANCH   8  14
ENDBRANCH   1   3
TORSDOF 5
ENDMDL
MODEL 6
REMARK VINA RESULT:      -7.3      1.891      2.877
REMARK  5 active torsions:
REMARK  status: ('A' for Active; 'I' for Inactive)
REMARK    1  A    between atoms: O_1  and  C_10 
REMARK    2  A    between atoms: O_2  and  C_12 
REMARK    3  A    between atoms: C_5  and  C_6 
REMARK    4  A    between atoms: C_5  and  C_7 
REMARK    5  A    between atoms: C_7  and  C_13 
ROOT
HETATM    1  O   UNL     1     -54.082  43.736   9.783  1.00  0.00    -0.358 OA
HETATM    2  H   UNL     1     -53.978  43.427   8.905  1.00  0.00     0.217 HD
ENDROOT
BRANCH   1   3
HETATM    3  C   UNL     1     -53.779  45.028  10.091  1.00  0.00     0.099 A 
HETATM    4  C   UNL     1     -54.375  46.063   9.371  1.00  0.00     0.046 A 
HETATM    5  C   UNL     1     -54.072  47.389   9.676  1.00  0.00    -0.055 A 
HETATM    6  C   UNL     1     -53.174  47.681  10.703  1.00  0.00     0.010 A 
HETATM    7  C   UNL     1     -52.579  46.647  11.424  1.00  0.00     0.040 A 
HETATM    8  C   UNL     1     -52.882  45.320  11.118  1.00  0.00     0.098 A 
BRANCH   5   9
HETATM    9  C   UNL     1     -54.709  48.496   8.905  1.00  0.00     0.049 C 
BRANCH   9  10
HETATM   10  C   UNL     1     -55.191  49.660   9.779  1.00  0.00     0.117 C 
BRANCH  10  11
HETATM   11  C   UNL     1     -54.461  50.941   9.453  1.00  0.00     0.172 C 
HETATM   12  O   UNL     1     -53.761  51.431  10.505  1.00  0.00    -0.648 OA
HETATM   13  O   UNL     1     -54.477  51.471   8.350  1.00  0.00    -0.648 OA
ENDBRANCH  10  11
ENDBRANCH   9  10
ENDBRANCH   5   9
BRANCH   8  14
HETATM   14  O   UNL     1     -52.293  44.317  11.828  1.00  0.00    -0.358 OA
HETATM   15  H   UNL     1     -51.444  44.005  11.582  1.00  0.00     0.217 HD
ENDBRANCH   8  14
ENDBRANCH   1   3
TORSDOF 5
ENDMDL
MODEL 7
REMARK VINA RESULT:      -6.8      2.698      3.598
REMARK  5 active torsions:
REMARK  status: ('A' for Active; 'I' for Inactive)
REMARK    1  A    between atoms: O_1  and  C_10 
REMARK    2  A    between atoms: O_2  and  C_12 
REMARK    3  A    between atoms: C_5  and  C_6 
REMARK    4  A    between atoms: C_5  and  C_7 
REMARK    5  A    between atoms: C_7  and  C_13 
ROOT
HETATM    1  O   UNL     1     -51.912  47.418  12.692  1.00  0.00    -0.358 OA
HETATM    2  H   UNL     1     -51.053  47.787  12.755  1.00  0.00     0.217 HD
ENDROOT
BRANCH   1   3
HETATM    3  C   UNL     1     -52.407  47.052  11.477  1.00  0.00     0.099 A 
HETATM    4  C   UNL     1     -53.322  47.882  10.831  1.00  0.00     0.046 A 
HETATM    5  C   UNL     1     -53.838  47.518   9.587  1.00  0.00    -0.055 A 
HETATM    6  C   UNL     1     -53.437  46.322   8.990  1.00  0.00     0.010 A 
HETATM    7  C   UNL     1     -52.522  45.492   9.636  1.00  0.00     0.040 A 
HETATM    8  C   UNL     1     -52.007  45.857  10.880  1.00  0.00     0.098 A 
BRANCH   5   9
HETATM    9  C   UNL     1     -54.816  48.406   8.896  1.00  0.00     0.049 C 
BRANCH   9  10
HETATM   10  C   UNL     1     -55.277  49.596   9.746  1.00  0.00     0.117 C 
BRANCH  10  11
HETATM   11  C   UNL     1     -54.496  50.847   9.425  1.00  0.00     0.172 C 
HETATM   12  O   UNL     1     -53.819  51.334  10.494  1.00  0.00    -0.648 OA
HETATM   13  O   UNL     1     -54.454  51.357   8.313  1.00  0.00    -0.648 OA
ENDBRANCH  10  11
ENDBRANCH   9  10
ENDBRANCH   5   9
BRANCH   8  14
HETATM   14  O   UNL     1     -51.115  45.037  11.503  1.00  0.00    -0.358 OA
HETATM   15  H   UNL     1     -50.259  45.352  11.716  1.00  0.00     0.217 HD
ENDBRANCH   8  14
ENDBRANCH   1   3
TORSDOF 5
ENDMDL
MODEL 8
REMARK VINA RESULT:      -6.7      2.729      5.755
REMARK  5 active torsions:
REMARK  status: ('A' for Active; 'I' for Inactive)
REMARK    1  A    between atoms: O_1  and  C_10 
REMARK    2  A    between atoms: O_2  and  C_12 
REMARK    3  A    between atoms: C_5  and  C_6 
REMARK    4  A    between atoms: C_5  and  C_7 
REMARK    5  A    between atoms: C_7  and  C_13 
ROOT
HETATM    1  O   UNL     1     -51.764  48.505   7.272  1.00  0.00    -0.358 OA
HETATM    2  H   UNL     1     -51.840  49.417   7.075  1.00  0.00     0.217 HD
ENDROOT
BRANCH   1   3
HETATM    3  C   UNL     1     -52.231  48.023   8.457  1.00  0.00     0.099 A 
HETATM    4  C   UNL     1     -51.758  46.802   8.936  1.00  0.00     0.046 A 
HETATM    5  C   UNL     1     -52.229  46.297  10.147  1.00  0.00    -0.055 A 
HETATM    6  C   UNL     1     -53.174  47.015  10.881  1.00  0.00     0.010 A 
HETATM    7  C   UNL     1     -53.648  48.236  10.403  1.00  0.00     0.040 A 
HETATM    8  C   UNL     1     -53.176  48.741   9.191  1.00  0.00     0.098 A 
BRANCH   5   9
HETATM    9  C   UNL     1     -51.723  44.991  10.659  1.00  0.00     0.049 C 
BRANCH   9  10
HETATM   10  C   UNL     1     -51.881  43.836   9.664  1.00  0.00     0.117 C 
BRANCH  10  11
HETATM   11  C   UNL     1     -53.333  43.549   9.367  1.00  0.00     0.172 C 
HETATM   12  O   UNL     1     -54.090  43.451  10.487  1.00  0.00    -0.648 OA
HETATM   13  O   UNL     1     -53.788  43.442   8.236  1.00  0.00    -0.648 OA
ENDBRANCH  10  11
ENDBRANCH   9  10
ENDBRANCH   5   9
BRANCH   8  14
HETATM   14  O   UNL     1     -53.646  49.934   8.732  1.00  0.00    -0.358 OA
HETATM   15  H   UNL     1     -53.719  50.086   7.810  1.00  0.00     0.217 HD
ENDBRANCH   8  14
ENDBRANCH   1   3
TORSDOF 5
ENDMDL
MODEL 9
REMARK VINA RESULT:      -6.6      2.917      5.970
REMARK  5 active torsions:
REMARK  status: ('A' for Active; 'I' for Inactive)
REMARK    1  A    between atoms: O_1  and  C_10 
REMARK    2  A    between atoms: O_2  and  C_12 
REMARK    3  A    between atoms: C_5  and  C_6 
REMARK    4  A    between atoms: C_5  and  C_7 
REMARK    5  A    between atoms: C_7  and  C_13 
ROOT
HETATM    1  O   UNL     1     -53.313  49.184  10.632  1.00  0.00    -0.358 OA
HETATM    2  H   UNL     1     -53.615  49.611  11.409  1.00  0.00     0.217 HD
ENDROOT
BRANCH   1   3
HETATM    3  C   UNL     1     -53.379  47.827  10.531  1.00  0.00     0.099 A 
HETATM    4  C   UNL     1     -54.074  47.252   9.468  1.00  0.00     0.046 A 
HETATM    5  C   UNL     1     -54.149  45.864   9.354  1.00  0.00    -0.055 A 
HETATM    6  C   UNL     1     -53.530  45.051  10.304  1.00  0.00     0.010 A 
HETATM    7  C   UNL     1     -52.835  45.627  11.367  1.00  0.00     0.040 A 
HETATM    8  C   UNL     1     -52.759  47.015  11.481  1.00  0.00     0.098 A 
BRANCH   5   9
HETATM    9  C   UNL     1     -54.892  45.248   8.216  1.00  0.00     0.049 C 
BRANCH   9  10
HETATM   10  C   UNL     1     -54.030  44.330   7.341  1.00  0.00     0.117 C 
BRANCH  10  11
HETATM   11  C   UNL     1     -54.797  43.820   6.145  1.00  0.00     0.172 C 
HETATM   12  O   UNL     1     -54.530  44.514   5.012  1.00  0.00    -0.648 OA
HETATM   13  O   UNL     1     -55.560  42.863   6.183  1.00  0.00    -0.648 OA
ENDBRANCH  10  11
ENDBRANCH   9  10
ENDBRANCH   5   9
BRANCH   8  14
HETATM   14  O   UNL     1     -52.080  47.566  12.524  1.00  0.00    -0.358 OA
HETATM   15  H   UNL     1     -52.395  48.352  12.926  1.00  0.00     0.217 HD
ENDBRANCH   8  14
ENDBRANCH   1   3
TORSDOF 5
ENDMDL
