MODEL 1
REMARK VINA RESULT:      -8.7      0.000      0.000
REMARK  5 active torsions:
REMARK  status: ('A' for Active; 'I' for Inactive)
REMARK    1  A    between atoms: O_1  and  C_10 
REMARK    2  A    between atoms: O_2  and  C_12 
REMARK    3  A    between atoms: C_5  and  C_6 
REMARK    4  A    between atoms: C_5  and  C_7 
REMARK    5  A    between atoms: C_7  and  C_13 
ROOT
HETATM    1  O   UNL     1     -54.674  44.582   8.709  1.00  0.00    -0.358 OA
HETATM    2  H   UNL     1     -54.168  44.163   9.377  1.00  0.00     0.217 HD
ENDROOT
BRANCH   1   3
HETATM    3  C   UNL     1     -55.140  45.848   8.900  1.00  0.00     0.099 A 
HETATM    4  C   UNL     1     -54.241  46.872   9.193  1.00  0.00     0.046 A 
HETATM    5  C   UNL     1     -54.706  48.172   9.391  1.00  0.00    -0.055 A 
HETATM    6  C   UNL     1     -56.070  48.447   9.295  1.00  0.00     0.010 A 
HETATM    7  C   UNL     1     -56.969  47.423   9.002  1.00  0.00     0.040 A 
HETATM    8  C   UNL     1     -56.504  46.122   8.804  1.00  0.00     0.098 A 
BRANCH   5   9
HETATM    9  C   UNL     1     -53.744  49.268   9.705  1.00  0.00     0.049 C 
BRANCH   9  10
HETATM   10  C   UNL     1     -54.413  50.549  10.217  1.00  0.00     0.117 C 
BRANCH  10  11
HETATM   11  C   UNL     1     -54.195  51.708   9.274  1.00  0.00     0.172 C 
HETATM   12  O   UNL     1     -54.609  51.444   8.011  1.00  0.00    -0.648 OA
HETATM   13  O   UNL     1     -53.720  52.783   9.615  1.00  0.00    -0.648 OA
ENDBRANCH  10  11
ENDBRANCH   9  10
ENDBRANCH   5   9
BRANCH   8  14
HETATM   14  O   UNL     1     -57.391  45.129   8.519  1.00  0.00    -0.358 OA
HETATM   15  H   UNL     1     -58.195  45.067   8.998  1.00  0.00     0.217 HD
ENDBRANCH   8  14
ENDBRANCH   1   3
TORSDOF 5
ENDMDL
MODEL 2
REMARK VINA RESULT:      -8.6      0.649      1.880
REMARK  5 active torsions:
REMARK  status: ('A' for Active; 'I' for Inactive)
REMARK    1  A    between atoms: O_1  and  C_10 
REMARK    2  A    between atoms: O_2  and  C_12 
REMARK    3  A    between atoms: C_5  and  C_6 
REMARK    4  A    between atoms: C_5  and  C_7 
REMARK    5  A    between atoms: C_7  and  C_13 
ROOT
HETATM    1  O   UNL     1     -57.004  45.171   8.138  1.00  0.00    -0.358 OA
HETATM    2  H   UNL     1     -56.851  44.519   7.484  1.00  0.00     0.217 HD
ENDROOT
BRANCH   1   3
HETATM    3  C   UNL     1     -55.988  45.986   8.538  1.00  0.00     0.099 A 
HETATM    4  C   UNL     1     -56.263  47.314   8.864  1.00  0.00     0.046 A 
HETATM    5  C   UNL     1     -55.231  48.159   9.273  1.00  0.00    -0.055 A 
HETATM    6  C   UNL     1     -53.926  47.675   9.358  1.00  0.00     0.010 A 
HETATM    7  C   UNL     1     -53.651  46.348   9.033  1.00  0.00     0.040 A 
HETATM    8  C   UNL     1     -54.683  45.502   8.623  1.00  0.00     0.098 A 
BRANCH   5   9
HETATM    9  C   UNL     1     -55.525  49.579   9.621  1.00  0.00     0.049 C 
BRANCH   9  10
HETATM   10  C   UNL     1     -54.288  50.379  10.047  1.00  0.00     0.117 C 
BRANCH  10  11
HETATM   11  C   UNL     1     -54.136  51.644   9.237  1.00  0.00     0.172 C 
HETATM   12  O   UNL     1     -54.641  51.531   7.984  1.00  0.00    -0.648 OA
HETATM   13  O   UNL     1     -53.633  52.673   9.669  1.00  0.00    -0.648 OA
ENDBRANCH  10  11
ENDBRANCH   9  10
ENDBRANCH   5   9
BRANCH   8  14
HETATM   14  O   UNL     1     -54.403  44.208   8.306  1.00  0.00    -0.358 OA
HETATM   15  H   UNL     1     -54.332  43.950   7.408  1.00  0.00     0.217 HD
ENDBRANCH   8  14
ENDBRANCH   1   3
TORSDOF 5
ENDMDL
MODEL 3
REMARK VINA RESULT:      -8.1      1.262      2.458
REMARK  5 active torsions:
REMARK  status: ('A' for Active; 'I' for Inactive)
REMARK    1  A    between atoms: O_1  and  C_10 
REMARK    2  A    between atoms: O_2  and  C_12 
REMARK    3  A    between atoms: C_5  and  C_6 
REMARK    4  A    between atoms: C_5  and  C_7 
REMARK    5  A    between atoms: C_7  and  C_13 
ROOT
HETATM    1  O   UNL     1     -56.477  45.277   8.263  1.00  0.00    -0.358 OA
HETATM    2  H   UNL     1     -56.852  45.401   7.413  1.00  0.00     0.217 HD
ENDROOT
BRANCH   1   3
HETATM    3  C   UNL     1     -55.196  45.671   8.506  1.00  0.00     0.099 A 
HETATM    4  C   UNL     1     -54.962  46.896   9.129  1.00  0.00     0.046 A 
HETATM    5  C   UNL     1     -53.655  47.311   9.382  1.00  0.00    -0.055 A 
HETATM    6  C   UNL     1     -52.582  46.500   9.014  1.00  0.00     0.010 A 
HETATM    7  C   UNL     1     -52.816  45.274   8.391  1.00  0.00     0.040 A 
HETATM    8  C   UNL     1     -54.123  44.859   8.137  1.00  0.00     0.098 A 
BRANCH   5   9
HETATM    9  C   UNL     1     -53.405  48.622  10.049  1.00  0.00     0.049 C 
BRANCH   9  10
HETATM   10  C   UNL     1     -54.584  49.597   9.955  1.00  0.00     0.117 C 
BRANCH  10  11
HETATM   11  C   UNL     1     -54.124  51.001   9.643  1.00  0.00     0.172 C 
HETATM   12  O   UNL     1     -53.823  51.716  10.754  1.00  0.00    -0.648 OA
HETATM   13  O   UNL     1     -54.008  51.442   8.507  1.00  0.00    -0.648 OA
ENDBRANCH  10  11
ENDBRANCH   9  10
ENDBRANCH   5   9
BRANCH   8  14
HETATM   14  O   UNL     1     -54.340  43.661   7.527  1.00  0.00    -0.358 OA
HETATM   15  H   UNL     1     -53.682  43.293   6.971  1.00  0.00     0.217 HD
ENDBRANCH   8  14
ENDBRANCH   1   3
TORSDOF 5
ENDMDL
MODEL 4
REMARK VINA RESULT:      -7.5      1.623      2.311
REMARK  5 active torsions:
REMARK  status: ('A' for Active; 'I' for Inactive)
REMARK    1  A    between atoms: O_1  and  C_10 
REMARK    2  A    between atoms: O_2  and  C_12 
REMARK    3  A    between atoms: C_5  and  C_6 
REMARK    4  A    between atoms: C_5  and  C_7 
REMARK    5  A    between atoms: C_7  and  C_13 
ROOT
HETATM    1  O   UNL     1     -51.528  44.591   8.169  1.00  0.00    -0.358 OA
HETATM    2  H   UNL     1     -51.597  43.762   7.739  1.00  0.00     0.217 HD
ENDROOT
BRANCH   1   3
HETATM    3  C   UNL     1     -52.652  45.303   8.460  1.00  0.00     0.099 A 
HETATM    4  C   UNL     1     -52.532  46.588   8.988  1.00  0.00     0.046 A 
HETATM    5  C   UNL     1     -53.675  47.327   9.291  1.00  0.00    -0.055 A 
HETATM    6  C   UNL     1     -54.939  46.781   9.065  1.00  0.00     0.010 A 
HETATM    7  C   UNL     1     -55.059  45.496   8.537  1.00  0.00     0.040 A 
HETATM    8  C   UNL     1     -53.915  44.757   8.234  1.00  0.00     0.098 A 
BRANCH   5   9
HETATM    9  C   UNL     1     -53.547  48.702   9.855  1.00  0.00     0.049 C 
BRANCH   9  10
HETATM   10  C   UNL     1     -54.744  49.609   9.549  1.00  0.00     0.117 C 
BRANCH  10  11
HETATM   11  C   UNL     1     -54.329  51.055   9.420  1.00  0.00     0.172 C 
HETATM   12  O   UNL     1     -53.773  51.547  10.555  1.00  0.00    -0.648 OA
HETATM   13  O   UNL     1     -54.455  51.711   8.394  1.00  0.00    -0.648 OA
ENDBRANCH  10  11
ENDBRANCH   9  10
ENDBRANCH   5   9
BRANCH   8  14
HETATM   14  O   UNL     1     -54.045  43.502   7.721  1.00  0.00    -0.358 OA
HETATM   15  H   UNL     1     -53.382  43.157   7.154  1.00  0.00     0.217 HD
ENDBRANCH   8  14
ENDBRANCH   1   3
TORSDOF 5
ENDMDL
MODEL 5
REMARK VINA RESULT:      -6.8      2.913      3.938
REMARK  5 active torsions:
REMARK  status: ('A' for Active; 'I' for Inactive)
REMARK    1  A    between atoms: O_1  and  C_10 
REMARK    2  A    between atoms: O_2  and  C_12 
REMARK    3  A    between atoms: C_5  and  C_6 
REMARK    4  A    between atoms: C_5  and  C_7 
REMARK    5  A    between atoms: C_7  and  C_13 
ROOT
HETATM    1  O   UNL     1     -52.459  47.158  12.963  1.00  0.00    -0.358 OA
HETATM    2  H   UNL     1     -53.198  47.461  13.452  1.00  0.00     0.217 HD
ENDROOT
BRANCH   1   3
HETATM    3  C   UNL     1     -52.476  47.207  11.601  1.00  0.00     0.099 A 
HETATM    4  C   UNL     1     -53.547  47.819  10.951  1.00  0.00     0.046 A 
HETATM    5  C   UNL     1     -53.577  47.875   9.558  1.00  0.00    -0.055 A 
HETATM    6  C   UNL     1     -52.535  47.319   8.815  1.00  0.00     0.010 A 
HETATM    7  C   UNL     1     -51.465  46.707   9.465  1.00  0.00     0.040 A 
HETATM    8  C   UNL     1     -51.434  46.651  10.859  1.00  0.00     0.098 A 
BRANCH   5   9
HETATM    9  C   UNL     1     -54.723  48.530   8.862  1.00  0.00     0.049 C 
BRANCH   9  10
HETATM   10  C   UNL     1     -55.216  49.806   9.554  1.00  0.00     0.117 C 
BRANCH  10  11
HETATM   11  C   UNL     1     -54.186  50.908   9.491  1.00  0.00     0.172 C 
HETATM   12  O   UNL     1     -53.845  51.381  10.715  1.00  0.00    -0.648 OA
HETATM   13  O   UNL     1     -53.689  51.317   8.449  1.00  0.00    -0.648 OA
ENDBRANCH  10  11
ENDBRANCH   9  10
ENDBRANCH   5   9
BRANCH   8  14
HETATM   14  O   UNL     1     -50.384  46.049  11.483  1.00  0.00    -0.358 OA
HETATM   15  H   UNL     1     -50.351  45.115  11.548  1.00  0.00     0.217 HD
ENDBRANCH   8  14
ENDBRANCH   1   3
TORSDOF 5
ENDMDL
MODEL 6
REMARK VINA RESULT:      -6.7      2.759      5.777
REMARK  5 active torsions:
REMARK  status: ('A' for Active; 'I' for Inactive)
REMARK    1  A    between atoms: O_1  and  C_10 
REMARK    2  A    between atoms: O_2  and  C_12 
REMARK    3  A    between atoms: C_5  and  C_6 
REMARK    4  A    between atoms: C_5  and  C_7 
REMARK    5  A    between atoms: C_7  and  C_13 
ROOT
HETATM    1  O   UNL     1     -51.759  48.534   7.254  1.00  0.00    -0.358 OA
HETATM    2  H   UNL     1     -52.311  48.508   6.498  1.00  0.00     0.217 HD
ENDROOT
BRANCH   1   3
HETATM    3  C   UNL     1     -52.205  48.036   8.441  1.00  0.00     0.099 A 
HETATM    4  C   UNL     1     -51.696  46.826   8.911  1.00  0.00     0.046 A 
HETATM    5  C   UNL     1     -52.145  46.304  10.124  1.00  0.00    -0.055 A 
HETATM    6  C   UNL     1     -53.103  46.994  10.868  1.00  0.00     0.010 A 
HETATM    7  C   UNL     1     -53.612  48.204  10.398  1.00  0.00     0.040 A 
HETATM    8  C   UNL     1     -53.163  48.725   9.185  1.00  0.00     0.098 A 
BRANCH   5   9
HETATM    9  C   UNL     1     -51.600  45.010  10.627  1.00  0.00     0.049 C 
BRANCH   9  10
HETATM   10  C   UNL     1     -51.892  43.818   9.707  1.00  0.00     0.117 C 
BRANCH  10  11
HETATM   11  C   UNL     1     -53.375  43.572   9.569  1.00  0.00     0.172 C 
HETATM   12  O   UNL     1     -53.768  43.433   8.279  1.00  0.00    -0.648 OA
HETATM   13  O   UNL     1     -54.142  43.482  10.519  1.00  0.00    -0.648 OA
ENDBRANCH  10  11
ENDBRANCH   9  10
ENDBRANCH   5   9
BRANCH   8  14
HETATM   14  O   UNL     1     -53.669  49.907   8.734  1.00  0.00    -0.358 OA
HETATM   15  H   UNL     1     -53.900  50.004   7.831  1.00  0.00     0.217 HD
ENDBRANCH   8  14
ENDBRANCH   1   3
TORSDOF 5
ENDMDL
MODEL 7
REMARK VINA RESULT:      -6.7      2.419      5.713
REMARK  5 active torsions:
REMARK  status: ('A' for Active; 'I' for Inactive)
REMARK    1  A    between atoms: O_1  and  C_10 
REMARK    2  A    between atoms: O_2  and  C_12 
REMARK    3  A    between atoms: C_5  and  C_6 
REMARK    4  A    between atoms: C_5  and  C_7 
REMARK    5  A    between atoms: C_7  and  C_13 
ROOT
HETATM    1  O   UNL     1     -55.008  48.653   8.282  1.00  0.00    -0.358 OA
HETATM    2  H   UNL     1     -54.949  48.508   7.359  1.00  0.00     0.217 HD
ENDROOT
BRANCH   1   3
HETATM    3  C   UNL     1     -54.319  47.854   9.144  1.00  0.00     0.099 A 
HETATM    4  C   UNL     1     -54.332  46.472   8.957  1.00  0.00     0.046 A 
HETATM    5  C   UNL     1     -53.632  45.643   9.833  1.00  0.00    -0.055 A 
HETATM    6  C   UNL     1     -52.918  46.196  10.895  1.00  0.00     0.010 A 
HETATM    7  C   UNL     1     -52.905  47.578  11.083  1.00  0.00     0.040 A 
HETATM    8  C   UNL     1     -53.605  48.407  10.207  1.00  0.00     0.098 A 
BRANCH   5   9
HETATM    9  C   UNL     1     -53.646  44.165   9.632  1.00  0.00     0.049 C 
BRANCH   9  10
HETATM   10  C   UNL     1     -52.732  43.688   8.497  1.00  0.00     0.117 C 
BRANCH  10  11
HETATM   11  C   UNL     1     -53.425  43.755   7.157  1.00  0.00     0.172 C 
HETATM   12  O   UNL     1     -54.386  42.810   7.013  1.00  0.00    -0.648 OA
HETATM   13  O   UNL     1     -53.168  44.590   6.299  1.00  0.00    -0.648 OA
ENDBRANCH  10  11
ENDBRANCH   9  10
ENDBRANCH   5   9
BRANCH   8  14
HETATM   14  O   UNL     1     -53.587  49.755  10.400  1.00  0.00    -0.358 OA
HETATM   15  H   UNL     1     -53.943  50.327   9.749  1.00  0.00     0.217 HD
ENDBRANCH   8  14
ENDBRANCH   1   3
TORSDOF 5
ENDMDL
MODEL 8
REMARK VINA RESULT:      -6.6      4.401      5.680
REMARK  5 active torsions:
REMARK  status: ('A' for Active; 'I' for Inactive)
REMARK    1  A    between atoms: O_1  and  C_10 
REMARK    2  A    between atoms: O_2  and  C_12 
REMARK    3  A    between atoms: C_5  and  C_6 
REMARK    4  A    between atoms: C_5  and  C_7 
REMARK    5  A    between atoms: C_7  and  C_13 
ROOT
HETATM    1  O   UNL     1     -54.152  48.787   8.428  1.00  0.00    -0.358 OA
HETATM    2  H   UNL     1     -53.951  49.581   7.973  1.00  0.00     0.217 HD
ENDROOT
BRANCH   1   3
HETATM    3  C   UNL     1     -53.168  48.108   9.081  1.00  0.00     0.099 A 
HETATM    4  C   UNL     1     -53.357  47.740  10.412  1.00  0.00     0.046 A 
HETATM    5  C   UNL     1     -52.357  47.046  11.093  1.00  0.00    -0.055 A 
HETATM    6  C   UNL     1     -51.168  46.720  10.440  1.00  0.00     0.010 A 
HETATM    7  C   UNL     1     -50.979  47.088   9.109  1.00  0.00     0.040 A 
HETATM    8  C   UNL     1     -51.979  47.782   8.429  1.00  0.00     0.098 A 
BRANCH   5   9
HETATM    9  C   UNL     1     -52.560  46.651  12.517  1.00  0.00     0.049 C 
BRANCH   9  10
HETATM   10  C   UNL     1     -51.291  46.752  13.372  1.00  0.00     0.117 C 
BRANCH  10  11
HETATM   11  C   UNL     1     -51.585  47.310  14.743  1.00  0.00     0.172 C 
HETATM   12  O   UNL     1     -51.137  48.579  14.903  1.00  0.00    -0.648 OA
HETATM   13  O   UNL     1     -52.188  46.695  15.613  1.00  0.00    -0.648 OA
ENDBRANCH  10  11
ENDBRANCH   9  10
ENDBRANCH   5   9
BRANCH   8  14
HETATM   14  O   UNL     1     -51.783  48.139   7.129  1.00  0.00    -0.358 OA
HETATM   15  H   UNL     1     -51.271  47.593   6.565  1.00  0.00     0.217 HD
ENDBRANCH   8  14
ENDBRANCH   1   3
TORSDOF 5
ENDMDL
MODEL 9
REMARK VINA RESULT:      -6.5      4.110      4.958
REMARK  5 active torsions:
REMARK  status: ('A' for Active; 'I' for Inactive)
REMARK    1  A    between atoms: O_1  and  C_10 
REMARK    2  A    between atoms: O_2  and  C_12 
REMARK    3  A    between atoms: C_5  and  C_6 
REMARK    4  A    between atoms: C_5  and  C_7 
REMARK    5  A    between atoms: C_7  and  C_13 
ROOT
HETATM    1  O   UNL     1     -54.309  48.542   8.417  1.00  0.00    -0.358 OA
HETATM    2  H   UNL     1     -54.767  48.379   7.616  1.00  0.00     0.217 HD
ENDROOT
BRANCH   1   3
HETATM    3  C   UNL     1     -53.986  47.506   9.240  1.00  0.00     0.099 A 
HETATM    4  C   UNL     1     -53.161  47.737  10.341  1.00  0.00     0.046 A 
HETATM    5  C   UNL     1     -52.822  46.684  11.190  1.00  0.00    -0.055 A 
HETATM    6  C   UNL     1     -53.308  45.401  10.939  1.00  0.00     0.010 A 
HETATM    7  C   UNL     1     -54.133  45.171   9.839  1.00  0.00     0.040 A 
HETATM    8  C   UNL     1     -54.472  46.223   8.989  1.00  0.00     0.098 A 
BRANCH   5   9
HETATM    9  C   UNL     1     -51.940  46.931  12.367  1.00  0.00     0.049 C 
BRANCH   9  10
HETATM   10  C   UNL     1     -52.562  46.509  13.704  1.00  0.00     0.117 C 
BRANCH  10  11
HETATM   11  C   UNL     1     -51.965  47.272  14.862  1.00  0.00     0.172 C 
HETATM   12  O   UNL     1     -51.084  48.224  14.468  1.00  0.00    -0.648 OA
HETATM   13  O   UNL     1     -52.261  47.073  16.033  1.00  0.00    -0.648 OA
ENDBRANCH  10  11
ENDBRANCH   9  10
ENDBRANCH   5   9
BRANCH   8  14
HETATM   14  O   UNL     1     -55.277  45.986   7.916  1.00  0.00    -0.358 OA
HETATM   15  H   UNL     1     -56.156  46.313   7.909  1.00  0.00     0.217 HD
ENDBRANCH   8  14
ENDBRANCH   1   3
TORSDOF 5
ENDMDL
