MODEL 1
REMARK VINA RESULT:      -6.9      0.000      0.000
REMARK  4 active torsions:
REMARK  status: ('A' for Active; 'I' for Inactive)
REMARK    1  A    between atoms: O_1  and  C_5 
REMARK    2  A    between atoms: O_1  and  C_14 
REMARK    3  A    between atoms: O_2  and  C_18 
REMARK    4  A    between atoms: C_10  and  C_13 
ROOT
HETATM    1  O   UNL     1      14.301   8.673  12.032  1.00  0.00    -0.343 OA
ENDROOT
BRANCH   1   2
HETATM    2  C   UNL     1      14.765   7.470  12.633  1.00  0.00     0.129 C 
HETATM    3  C   UNL     1      14.884   7.670  14.136  1.00  0.00     0.032 C 
HETATM    4  C   UNL     1      16.206   8.415  14.320  1.00  0.00     0.002 C 
HETATM    5  C   UNL     1      17.036   8.128  13.069  1.00  0.00     0.002 C 
HETATM    6  C   UNL     1      16.197   7.185  12.209  1.00  0.00     0.032 C 
ENDBRANCH   1   2
BRANCH   1   7
HETATM    7  C   UNL     1      13.099   8.612  11.378  1.00  0.00     0.103 A 
HETATM    8  C   UNL     1      12.920   7.660  10.378  1.00  0.00     0.047 A 
HETATM    9  C   UNL     1      11.701   7.589   9.703  1.00  0.00    -0.049 A 
HETATM   10  C   UNL     1      10.669   8.468  10.030  1.00  0.00     0.010 A 
HETATM   11  C   UNL     1      10.855   9.419  11.032  1.00  0.00     0.040 A 
HETATM   12  C   UNL     1      12.074   9.492  11.708  1.00  0.00     0.101 A 
BRANCH   9  13
HETATM   13  C   UNL     1      11.498   6.556   8.616  1.00  0.00     0.045 C 
HETATM   14  C   UNL     1      10.116   5.902   8.565  1.00  0.00     0.132 C 
HETATM   15  N   UNL     1      10.016   5.418   7.218  1.00  0.00    -0.360 N 
HETATM   16  C   UNL     1      10.890   6.061   6.352  1.00  0.00     0.218 C 
HETATM   17  H   UNL     1       9.394   4.707   6.938  1.00  0.00     0.162 HD
HETATM   18  O   UNL     1      10.996   5.896   5.148  1.00  0.00    -0.274 OA
HETATM   19  C   UNL     1      11.666   7.064   7.171  1.00  0.00     0.113 C 
ENDBRANCH   9  13
BRANCH  12  20
HETATM   20  O   UNL     1      12.245  10.426  12.685  1.00  0.00    -0.353 OA
HETATM   21  C   UNL     1      11.740  11.734  12.426  1.00  0.00     0.210 C 
ENDBRANCH  12  20
ENDBRANCH   1   7
TORSDOF 4
ENDMDL
MODEL 2
REMARK VINA RESULT:      -6.8      3.467      5.823
REMARK  4 active torsions:
REMARK  status: ('A' for Active; 'I' for Inactive)
REMARK    1  A    between atoms: O_1  and  C_5 
REMARK    2  A    between atoms: O_1  and  C_14 
REMARK    3  A    between atoms: O_2  and  C_18 
REMARK    4  A    between atoms: C_10  and  C_13 
ROOT
HETATM    1  O   UNL     1      12.339   7.133  10.985  1.00  0.00    -0.343 OA
ENDROOT
BRANCH   1   2
HETATM    2  C   UNL     1      12.649   8.112  11.969  1.00  0.00     0.129 C 
HETATM    3  C   UNL     1      11.614   8.055  13.082  1.00  0.00     0.032 C 
HETATM    4  C   UNL     1      10.412   8.818  12.527  1.00  0.00     0.002 C 
HETATM    5  C   UNL     1      10.955   9.729  11.427  1.00  0.00     0.002 C 
HETATM    6  C   UNL     1      12.466   9.510  11.400  1.00  0.00     0.032 C 
ENDBRANCH   1   2
BRANCH   1   7
HETATM    7  C   UNL     1      13.114   7.126   9.855  1.00  0.00     0.103 A 
HETATM    8  C   UNL     1      14.497   7.214   9.983  1.00  0.00     0.047 A 
HETATM    9  C   UNL     1      15.297   7.209   8.840  1.00  0.00    -0.049 A 
HETATM   10  C   UNL     1      14.711   7.119   7.577  1.00  0.00     0.010 A 
HETATM   11  C   UNL     1      13.325   7.032   7.457  1.00  0.00     0.040 A 
HETATM   12  C   UNL     1      12.523   7.036   8.599  1.00  0.00     0.101 A 
BRANCH   9  13
HETATM   13  C   UNL     1      16.803   7.303   8.970  1.00  0.00     0.045 C 
HETATM   14  C   UNL     1      17.333   7.595  10.375  1.00  0.00     0.132 C 
HETATM   15  N   UNL     1      18.687   7.117  10.335  1.00  0.00    -0.360 N 
HETATM   16  C   UNL     1      18.898   6.196   9.318  1.00  0.00     0.218 C 
HETATM   17  H   UNL     1      19.388   7.409  10.961  1.00  0.00     0.162 HD
HETATM   18  O   UNL     1      19.927   5.588   9.070  1.00  0.00    -0.274 OA
HETATM   19  C   UNL     1      17.587   6.033   8.588  1.00  0.00     0.113 C 
ENDBRANCH   9  13
BRANCH  12  20
HETATM   20  O   UNL     1      11.170   6.952   8.470  1.00  0.00    -0.353 OA
HETATM   21  C   UNL     1      10.669   6.401   7.254  1.00  0.00     0.210 C 
ENDBRANCH  12  20
ENDBRANCH   1   7
TORSDOF 4
ENDMDL
MODEL 3
REMARK VINA RESULT:      -6.6      2.785      5.646
REMARK  4 active torsions:
REMARK  status: ('A' for Active; 'I' for Inactive)
REMARK    1  A    between atoms: O_1  and  C_5 
REMARK    2  A    between atoms: O_1  and  C_14 
REMARK    3  A    between atoms: O_2  and  C_18 
REMARK    4  A    between atoms: C_10  and  C_13 
ROOT
HETATM    1  O   UNL     1      14.273   6.900   7.562  1.00  0.00    -0.343 OA
ENDROOT
BRANCH   1   2
HETATM    2  C   UNL     1      15.166   7.919   7.992  1.00  0.00     0.129 C 
HETATM    3  C   UNL     1      16.484   7.784   7.243  1.00  0.00     0.032 C 
HETATM    4  C   UNL     1      17.224   6.661   7.968  1.00  0.00     0.002 C 
HETATM    5  C   UNL     1      16.616   6.582   9.368  1.00  0.00     0.002 C 
HETATM    6  C   UNL     1      15.570   7.693   9.440  1.00  0.00     0.032 C 
ENDBRANCH   1   2
BRANCH   1   7
HETATM    7  C   UNL     1      12.966   7.019   7.956  1.00  0.00     0.103 A 
HETATM    8  C   UNL     1      12.681   7.575   9.199  1.00  0.00     0.047 A 
HETATM    9  C   UNL     1      11.355   7.701   9.612  1.00  0.00    -0.049 A 
HETATM   10  C   UNL     1      10.321   7.269   8.781  1.00  0.00     0.010 A 
HETATM   11  C   UNL     1      10.613   6.712   7.537  1.00  0.00     0.040 A 
HETATM   12  C   UNL     1      11.939   6.586   7.123  1.00  0.00     0.101 A 
BRANCH   9  13
HETATM   13  C   UNL     1      11.037   8.307  10.963  1.00  0.00     0.045 C 
HETATM   14  C   UNL     1      11.937   7.867  12.119  1.00  0.00     0.132 C 
HETATM   15  N   UNL     1      11.793   8.920  13.084  1.00  0.00    -0.360 N 
HETATM   16  C   UNL     1      11.333  10.103  12.520  1.00  0.00     0.218 C 
HETATM   17  H   UNL     1      11.998   8.816  14.041  1.00  0.00     0.162 HD
HETATM   18  O   UNL     1      11.160  11.173  13.079  1.00  0.00    -0.274 OA
HETATM   19  C   UNL     1      11.133   9.842  11.046  1.00  0.00     0.113 C 
ENDBRANCH   9  13
BRANCH  12  20
HETATM   20  O   UNL     1      12.213   6.039   5.906  1.00  0.00    -0.353 OA
HETATM   21  C   UNL     1      11.221   5.185   5.342  1.00  0.00     0.210 C 
ENDBRANCH  12  20
ENDBRANCH   1   7
TORSDOF 4
ENDMDL
MODEL 4
REMARK VINA RESULT:      -6.5      3.211      5.726
REMARK  4 active torsions:
REMARK  status: ('A' for Active; 'I' for Inactive)
REMARK    1  A    between atoms: O_1  and  C_5 
REMARK    2  A    between atoms: O_1  and  C_14 
REMARK    3  A    between atoms: O_2  and  C_18 
REMARK    4  A    between atoms: C_10  and  C_13 
ROOT
HETATM    1  O   UNL     1      14.333   6.729   8.489  1.00  0.00    -0.343 OA
ENDROOT
BRANCH   1   2
HETATM    2  C   UNL     1      15.305   7.763   8.403  1.00  0.00     0.129 C 
HETATM    3  C   UNL     1      16.341   7.396   7.350  1.00  0.00     0.032 C 
HETATM    4  C   UNL     1      17.273   6.413   8.056  1.00  0.00     0.002 C 
HETATM    5  C   UNL     1      17.111   6.670   9.554  1.00  0.00     0.002 C 
HETATM    6  C   UNL     1      16.125   7.829   9.682  1.00  0.00     0.032 C 
ENDBRANCH   1   2
BRANCH   1   7
HETATM    7  C   UNL     1      13.208   7.000   9.223  1.00  0.00     0.103 A 
HETATM    8  C   UNL     1      13.335   7.271  10.582  1.00  0.00     0.047 A 
HETATM    9  C   UNL     1      12.197   7.548  11.340  1.00  0.00    -0.049 A 
HETATM   10  C   UNL     1      10.939   7.550  10.736  1.00  0.00     0.010 A 
HETATM   11  C   UNL     1      10.820   7.277   9.374  1.00  0.00     0.040 A 
HETATM   12  C   UNL     1      11.957   7.001   8.615  1.00  0.00     0.101 A 
BRANCH   9  13
HETATM   13  C   UNL     1      12.327   7.845  12.818  1.00  0.00     0.045 C 
HETATM   14  C   UNL     1      11.027   8.198  13.544  1.00  0.00     0.132 C 
HETATM   15  N   UNL     1      11.315   7.909  14.921  1.00  0.00    -0.360 N 
HETATM   16  C   UNL     1      12.381   7.033  15.071  1.00  0.00     0.218 C 
HETATM   17  H   UNL     1      10.812   8.291  15.676  1.00  0.00     0.162 HD
HETATM   18  O   UNL     1      12.821   6.572  16.112  1.00  0.00    -0.274 OA
HETATM   19  C   UNL     1      12.877   6.697  13.686  1.00  0.00     0.113 C 
ENDBRANCH   9  13
BRANCH  12  20
HETATM   20  O   UNL     1      11.828   6.734   7.285  1.00  0.00    -0.353 OA
HETATM   21  C   UNL     1      10.618   6.107   6.865  1.00  0.00     0.210 C 
ENDBRANCH  12  20
ENDBRANCH   1   7
TORSDOF 4
ENDMDL
MODEL 5
REMARK VINA RESULT:      -6.5      3.194      6.900
REMARK  4 active torsions:
REMARK  status: ('A' for Active; 'I' for Inactive)
REMARK    1  A    between atoms: O_1  and  C_5 
REMARK    2  A    between atoms: O_1  and  C_14 
REMARK    3  A    between atoms: O_2  and  C_18 
REMARK    4  A    between atoms: C_10  and  C_13 
ROOT
HETATM    1  O   UNL     1      13.013   6.362   9.010  1.00  0.00    -0.343 OA
ENDROOT
BRANCH   1   2
HETATM    2  C   UNL     1      12.010   7.306   8.655  1.00  0.00     0.129 C 
HETATM    3  C   UNL     1      10.636   6.683   8.857  1.00  0.00     0.032 C 
HETATM    4  C   UNL     1      10.425   5.811   7.620  1.00  0.00     0.002 C 
HETATM    5  C   UNL     1      11.353   6.367   6.541  1.00  0.00     0.002 C 
HETATM    6  C   UNL     1      12.047   7.579   7.159  1.00  0.00     0.032 C 
ENDBRANCH   1   2
BRANCH   1   7
HETATM    7  C   UNL     1      13.909   6.748   9.972  1.00  0.00     0.103 A 
HETATM    8  C   UNL     1      13.473   6.892  11.286  1.00  0.00     0.047 A 
HETATM    9  C   UNL     1      14.376   7.285  12.274  1.00  0.00    -0.049 A 
HETATM   10  C   UNL     1      15.708   7.534  11.944  1.00  0.00     0.010 A 
HETATM   11  C   UNL     1      16.138   7.388  10.625  1.00  0.00     0.040 A 
HETATM   12  C   UNL     1      15.236   6.994   9.636  1.00  0.00     0.101 A 
BRANCH   9  13
HETATM   13  C   UNL     1      13.909   7.443  13.705  1.00  0.00     0.045 C 
HETATM   14  C   UNL     1      12.397   7.548  13.905  1.00  0.00     0.132 C 
HETATM   15  N   UNL     1      12.205   7.159  15.274  1.00  0.00    -0.360 N 
HETATM   16  C   UNL     1      13.267   6.416  15.772  1.00  0.00     0.218 C 
HETATM   17  H   UNL     1      11.407   7.392  15.802  1.00  0.00     0.162 HD
HETATM   18  O   UNL     1      13.364   5.911  16.878  1.00  0.00    -0.274 OA
HETATM   19  C   UNL     1      14.280   6.292  14.660  1.00  0.00     0.113 C 
ENDBRANCH   9  13
BRANCH  12  20
HETATM   20  O   UNL     1      15.667   6.856   8.351  1.00  0.00    -0.353 OA
HETATM   21  C   UNL     1      17.068   6.993   8.120  1.00  0.00     0.210 C 
ENDBRANCH  12  20
ENDBRANCH   1   7
TORSDOF 4
ENDMDL
MODEL 6
REMARK VINA RESULT:      -6.4      3.545      6.692
REMARK  4 active torsions:
REMARK  status: ('A' for Active; 'I' for Inactive)
REMARK    1  A    between atoms: O_1  and  C_5 
REMARK    2  A    between atoms: O_1  and  C_14 
REMARK    3  A    between atoms: O_2  and  C_18 
REMARK    4  A    between atoms: C_10  and  C_13 
ROOT
HETATM    1  O   UNL     1      13.289   9.157  10.078  1.00  0.00    -0.343 OA
ENDROOT
BRANCH   1   2
HETATM    2  C   UNL     1      12.754   8.674  11.303  1.00  0.00     0.129 C 
HETATM    3  C   UNL     1      11.471   7.905  11.026  1.00  0.00     0.032 C 
HETATM    4  C   UNL     1      10.406   8.986  10.846  1.00  0.00     0.002 C 
HETATM    5  C   UNL     1      10.940  10.232  11.553  1.00  0.00     0.002 C 
HETATM    6  C   UNL     1      12.279   9.832  12.167  1.00  0.00     0.032 C 
ENDBRANCH   1   2
BRANCH   1   7
HETATM    7  C   UNL     1      14.264   8.396   9.488  1.00  0.00     0.103 A 
HETATM    8  C   UNL     1      15.405   8.073  10.217  1.00  0.00     0.047 A 
HETATM    9  C   UNL     1      16.405   7.300   9.627  1.00  0.00    -0.049 A 
HETATM   10  C   UNL     1      16.260   6.854   8.313  1.00  0.00     0.010 A 
HETATM   11  C   UNL     1      15.115   7.182   7.589  1.00  0.00     0.040 A 
HETATM   12  C   UNL     1      14.113   7.955   8.177  1.00  0.00     0.101 A 
BRANCH   9  13
HETATM   13  C   UNL     1      17.648   6.944  10.414  1.00  0.00     0.045 C 
HETATM   14  C   UNL     1      18.963   6.974   9.633  1.00  0.00     0.132 C 
HETATM   15  N   UNL     1      19.962   7.133  10.651  1.00  0.00    -0.360 N 
HETATM   16  C   UNL     1      19.445   7.652  11.830  1.00  0.00     0.218 C 
HETATM   17  H   UNL     1      20.911   6.900  10.527  1.00  0.00     0.162 HD
HETATM   18  O   UNL     1      20.058   7.939  12.846  1.00  0.00    -0.274 OA
HETATM   19  C   UNL     1      17.966   7.858  11.613  1.00  0.00     0.113 C 
ENDBRANCH   9  13
BRANCH  12  20
HETATM   20  O   UNL     1      12.999   8.269   7.459  1.00  0.00    -0.353 OA
HETATM   21  C   UNL     1      12.002   7.258   7.337  1.00  0.00     0.210 C 
ENDBRANCH  12  20
ENDBRANCH   1   7
TORSDOF 4
ENDMDL
MODEL 7
REMARK VINA RESULT:      -6.2      2.576      3.761
REMARK  4 active torsions:
REMARK  status: ('A' for Active; 'I' for Inactive)
REMARK    1  A    between atoms: O_1  and  C_5 
REMARK    2  A    between atoms: O_1  and  C_14 
REMARK    3  A    between atoms: O_2  and  C_18 
REMARK    4  A    between atoms: C_10  and  C_13 
ROOT
HETATM    1  O   UNL     1      17.107   7.230  10.024  1.00  0.00    -0.343 OA
ENDROOT
BRANCH   1   2
HETATM    2  C   UNL     1      17.487   6.289   9.028  1.00  0.00     0.129 C 
HETATM    3  C   UNL     1      18.211   5.123   9.684  1.00  0.00     0.032 C 
HETATM    4  C   UNL     1      19.632   5.636   9.914  1.00  0.00     0.002 C 
HETATM    5  C   UNL     1      19.837   6.786   8.929  1.00  0.00     0.002 C 
HETATM    6  C   UNL     1      18.549   6.883   8.115  1.00  0.00     0.032 C 
ENDBRANCH   1   2
BRANCH   1   7
HETATM    7  C   UNL     1      15.788   7.234  10.397  1.00  0.00     0.103 A 
HETATM    8  C   UNL     1      14.821   6.860   9.470  1.00  0.00     0.047 A 
HETATM    9  C   UNL     1      13.475   6.861   9.837  1.00  0.00    -0.049 A 
HETATM   10  C   UNL     1      13.104   7.238  11.128  1.00  0.00     0.010 A 
HETATM   11  C   UNL     1      14.079   7.613  12.052  1.00  0.00     0.040 A 
HETATM   12  C   UNL     1      15.425   7.612  11.686  1.00  0.00     0.101 A 
BRANCH   9  13
HETATM   13  C   UNL     1      12.417   6.454   8.835  1.00  0.00     0.045 C 
HETATM   14  C   UNL     1      10.967   6.587   9.304  1.00  0.00     0.132 C 
HETATM   15  N   UNL     1      10.218   6.665   8.081  1.00  0.00    -0.360 N 
HETATM   16  C   UNL     1      10.997   7.054   7.001  1.00  0.00     0.218 C 
HETATM   17  H   UNL     1       9.256   6.464   8.016  1.00  0.00     0.162 HD
HETATM   18  O   UNL     1      10.630   7.250   5.854  1.00  0.00    -0.274 OA
HETATM   19  C   UNL     1      12.403   7.251   7.516  1.00  0.00     0.113 C 
ENDBRANCH   9  13
BRANCH  12  20
HETATM   20  O   UNL     1      16.369   7.981  12.596  1.00  0.00    -0.353 OA
HETATM   21  C   UNL     1      15.924   8.216  13.930  1.00  0.00     0.210 C 
ENDBRANCH  12  20
ENDBRANCH   1   7
TORSDOF 4
ENDMDL
MODEL 8
REMARK VINA RESULT:      -6.2      3.502      6.399
REMARK  4 active torsions:
REMARK  status: ('A' for Active; 'I' for Inactive)
REMARK    1  A    between atoms: O_1  and  C_5 
REMARK    2  A    between atoms: O_1  and  C_14 
REMARK    3  A    between atoms: O_2  and  C_18 
REMARK    4  A    between atoms: C_10  and  C_13 
ROOT
HETATM    1  O   UNL     1      12.696   6.579   9.772  1.00  0.00    -0.343 OA
ENDROOT
BRANCH   1   2
HETATM    2  C   UNL     1      12.014   7.614   9.076  1.00  0.00     0.129 C 
HETATM    3  C   UNL     1      10.547   7.242   8.928  1.00  0.00     0.032 C 
HETATM    4  C   UNL     1      10.516   6.265   7.753  1.00  0.00     0.002 C 
HETATM    5  C   UNL     1      11.783   6.533   6.941  1.00  0.00     0.002 C 
HETATM    6  C   UNL     1      12.496   7.691   7.636  1.00  0.00     0.032 C 
ENDBRANCH   1   2
BRANCH   1   7
HETATM    7  C   UNL     1      13.915   6.897  10.312  1.00  0.00     0.103 A 
HETATM    8  C   UNL     1      15.073   6.511   9.643  1.00  0.00     0.047 A 
HETATM    9  C   UNL     1      16.320   6.828  10.182  1.00  0.00    -0.049 A 
HETATM   10  C   UNL     1      16.403   7.527  11.387  1.00  0.00     0.010 A 
HETATM   11  C   UNL     1      15.238   7.909  12.052  1.00  0.00     0.040 A 
HETATM   12  C   UNL     1      13.990   7.593  11.513  1.00  0.00     0.101 A 
BRANCH   9  13
HETATM   13  C   UNL     1      17.584   6.414   9.460  1.00  0.00     0.045 C 
HETATM   14  C   UNL     1      17.680   6.831   7.992  1.00  0.00     0.132 C 
HETATM   15  N   UNL     1      19.090   6.808   7.722  1.00  0.00    -0.360 N 
HETATM   16  C   UNL     1      19.857   6.893   8.876  1.00  0.00     0.218 C 
HETATM   17  H   UNL     1      19.472   6.740   6.817  1.00  0.00     0.162 HD
HETATM   18  O   UNL     1      21.073   6.944   8.956  1.00  0.00    -0.274 OA
HETATM   19  C   UNL     1      18.899   6.971  10.040  1.00  0.00     0.113 C 
ENDBRANCH   9  13
BRANCH  12  20
HETATM   20  O   UNL     1      12.860   7.971  12.173  1.00  0.00    -0.353 OA
HETATM   21  C   UNL     1      12.584   9.369  12.237  1.00  0.00     0.210 C 
ENDBRANCH  12  20
ENDBRANCH   1   7
TORSDOF 4
ENDMDL
MODEL 9
REMARK VINA RESULT:      -6.1      2.564      3.485
REMARK  4 active torsions:
REMARK  status: ('A' for Active; 'I' for Inactive)
REMARK    1  A    between atoms: O_1  and  C_5 
REMARK    2  A    between atoms: O_1  and  C_14 
REMARK    3  A    between atoms: O_2  and  C_18 
REMARK    4  A    between atoms: C_10  and  C_13 
ROOT
HETATM    1  O   UNL     1      15.895   8.143  13.797  1.00  0.00    -0.343 OA
ENDROOT
BRANCH   1   2
HETATM    2  C   UNL     1      17.230   7.662  13.713  1.00  0.00     0.129 C 
HETATM    3  C   UNL     1      17.784   7.462  15.116  1.00  0.00     0.032 C 
HETATM    4  C   UNL     1      18.190   8.864  15.571  1.00  0.00     0.002 C 
HETATM    5  C   UNL     1      18.389   9.685  14.298  1.00  0.00     0.002 C 
HETATM    6  C   UNL     1      18.143   8.730  13.133  1.00  0.00     0.032 C 
ENDBRANCH   1   2
BRANCH   1   7
HETATM    7  C   UNL     1      14.954   7.484  13.051  1.00  0.00     0.103 A 
HETATM    8  C   UNL     1      14.789   7.826  11.712  1.00  0.00     0.047 A 
HETATM    9  C   UNL     1      13.834   7.163  10.942  1.00  0.00    -0.049 A 
HETATM   10  C   UNL     1      13.047   6.164  11.514  1.00  0.00     0.010 A 
HETATM   11  C   UNL     1      13.216   5.826  12.857  1.00  0.00     0.040 A 
HETATM   12  C   UNL     1      14.172   6.488  13.628  1.00  0.00     0.101 A 
BRANCH   9  13
HETATM   13  C   UNL     1      13.650   7.529   9.485  1.00  0.00     0.045 C 
HETATM   14  C   UNL     1      14.805   7.157   8.554  1.00  0.00     0.132 C 
HETATM   15  N   UNL     1      14.195   7.108   7.255  1.00  0.00    -0.360 N 
HETATM   16  C   UNL     1      12.818   6.941   7.317  1.00  0.00     0.218 C 
HETATM   17  H   UNL     1      14.697   7.186   6.412  1.00  0.00     0.162 HD
HETATM   18  O   UNL     1      12.043   6.818   6.383  1.00  0.00    -0.274 OA
HETATM   19  C   UNL     1      12.445   6.879   8.779  1.00  0.00     0.113 C 
ENDBRANCH   9  13
BRANCH  12  20
HETATM   20  O   UNL     1      14.328   6.151  14.938  1.00  0.00    -0.353 OA
HETATM   21  C   UNL     1      13.322   6.596  15.845  1.00  0.00     0.210 C 
ENDBRANCH  12  20
ENDBRANCH   1   7
TORSDOF 4
ENDMDL
