MODEL 1
REMARK VINA RESULT:      -6.9      0.000      0.000
REMARK  4 active torsions:
REMARK  status: ('A' for Active; 'I' for Inactive)
REMARK    1  A    between atoms: O_1  and  C_5 
REMARK    2  A    between atoms: O_1  and  C_14 
REMARK    3  A    between atoms: O_2  and  C_18 
REMARK    4  A    between atoms: C_10  and  C_13 
ROOT
HETATM    1  O   UNL     1      15.140   7.760  14.570  1.00  0.00    -0.343 OA
ENDROOT
BRANCH   1   2
HETATM    2  C   UNL     1      15.706   6.772  15.422  1.00  0.00     0.129 C 
HETATM    3  C   UNL     1      15.602   7.232  16.868  1.00  0.00     0.032 C 
HETATM    4  C   UNL     1      16.757   8.217  17.042  1.00  0.00     0.002 C 
HETATM    5  C   UNL     1      17.773   7.881  15.951  1.00  0.00     0.002 C 
HETATM    6  C   UNL     1      17.208   6.678  15.199  1.00  0.00     0.032 C 
ENDBRANCH   1   2
BRANCH   1   7
HETATM    7  C   UNL     1      14.134   7.351  13.735  1.00  0.00     0.103 A 
HETATM    8  C   UNL     1      14.341   6.243  12.917  1.00  0.00     0.047 A 
HETATM    9  C   UNL     1      13.325   5.818  12.061  1.00  0.00    -0.049 A 
HETATM   10  C   UNL     1      12.110   6.502  12.026  1.00  0.00     0.010 A 
HETATM   11  C   UNL     1      11.910   7.610  12.847  1.00  0.00     0.040 A 
HETATM   12  C   UNL     1      12.925   8.037  13.704  1.00  0.00     0.101 A 
BRANCH   9  13
HETATM   13  C   UNL     1      13.542   4.614  11.170  1.00  0.00     0.045 C 
HETATM   14  C   UNL     1      12.349   3.668  11.025  1.00  0.00     0.132 C 
HETATM   15  N   UNL     1      12.609   2.975   9.795  1.00  0.00    -0.360 N 
HETATM   16  C   UNL     1      13.495   3.659   8.974  1.00  0.00     0.218 C 
HETATM   17  H   UNL     1      12.203   2.110   9.558  1.00  0.00     0.162 HD
HETATM   18  O   UNL     1      13.865   3.342   7.855  1.00  0.00    -0.274 OA
HETATM   19  C   UNL     1      13.888   4.922   9.701  1.00  0.00     0.113 C 
ENDBRANCH   9  13
BRANCH  12  20
HETATM   20  O   UNL     1      12.719   9.122  14.501  1.00  0.00    -0.353 OA
HETATM   21  C   UNL     1      12.285  10.321  13.862  1.00  0.00     0.210 C 
ENDBRANCH  12  20
ENDBRANCH   1   7
TORSDOF 4
ENDMDL
MODEL 2
REMARK VINA RESULT:      -6.8      3.541      5.828
REMARK  4 active torsions:
REMARK  status: ('A' for Active; 'I' for Inactive)
REMARK    1  A    between atoms: O_1  and  C_5 
REMARK    2  A    between atoms: O_1  and  C_14 
REMARK    3  A    between atoms: O_2  and  C_18 
REMARK    4  A    between atoms: C_10  and  C_13 
ROOT
HETATM    1  O   UNL     1      13.963   5.732  13.568  1.00  0.00    -0.343 OA
ENDROOT
BRANCH   1   2
HETATM    2  C   UNL     1      13.885   6.934  14.323  1.00  0.00     0.129 C 
HETATM    3  C   UNL     1      12.668   6.879  15.235  1.00  0.00     0.032 C 
HETATM    4  C   UNL     1      11.492   7.231  14.326  1.00  0.00     0.002 C 
HETATM    5  C   UNL     1      12.081   7.996  13.141  1.00  0.00     0.002 C 
HETATM    6  C   UNL     1      13.579   8.113  13.413  1.00  0.00     0.032 C 
ENDBRANCH   1   2
BRANCH   1   7
HETATM    7  C   UNL     1      14.902   5.689  12.571  1.00  0.00     0.103 A 
HETATM    8  C   UNL     1      16.214   6.054  12.861  1.00  0.00     0.047 A 
HETATM    9  C   UNL     1      17.179   6.016  11.854  1.00  0.00    -0.049 A 
HETATM   10  C   UNL     1      16.828   5.616  10.565  1.00  0.00     0.010 A 
HETATM   11  C   UNL     1      15.512   5.253  10.282  1.00  0.00     0.040 A 
HETATM   12  C   UNL     1      14.546   5.290  11.288  1.00  0.00     0.101 A 
BRANCH   9  13
HETATM   13  C   UNL     1      18.608   6.410  12.162  1.00  0.00     0.045 C 
HETATM   14  C   UNL     1      18.841   7.063  13.525  1.00  0.00     0.132 C 
HETATM   15  N   UNL     1      20.238   6.845  13.774  1.00  0.00    -0.360 N 
HETATM   16  C   UNL     1      20.758   5.799  13.024  1.00  0.00     0.218 C 
HETATM   17  H   UNL     1      20.770   7.378  14.408  1.00  0.00     0.162 HD
HETATM   18  O   UNL     1      21.894   5.354  13.058  1.00  0.00    -0.274 OA
HETATM   19  C   UNL     1      19.630   5.257  12.179  1.00  0.00     0.113 C 
ENDBRANCH   9  13
BRANCH  12  20
HETATM   20  O   UNL     1      13.263   4.934  10.999  1.00  0.00    -0.353 OA
HETATM   21  C   UNL     1      13.058   4.143   9.831  1.00  0.00     0.210 C 
ENDBRANCH  12  20
ENDBRANCH   1   7
TORSDOF 4
ENDMDL
MODEL 3
REMARK VINA RESULT:      -6.5      3.239      5.759
REMARK  4 active torsions:
REMARK  status: ('A' for Active; 'I' for Inactive)
REMARK    1  A    between atoms: O_1  and  C_5 
REMARK    2  A    between atoms: O_1  and  C_14 
REMARK    3  A    between atoms: O_2  and  C_18 
REMARK    4  A    between atoms: C_10  and  C_13 
ROOT
HETATM    1  O   UNL     1      16.344   5.326  11.539  1.00  0.00    -0.343 OA
ENDROOT
BRANCH   1   2
HETATM    2  C   UNL     1      17.077   6.500  11.215  1.00  0.00     0.129 C 
HETATM    3  C   UNL     1      18.315   6.117  10.416  1.00  0.00     0.032 C 
HETATM    4  C   UNL     1      19.315   5.635  11.466  1.00  0.00     0.002 C 
HETATM    5  C   UNL     1      18.877   6.258  12.791  1.00  0.00     0.002 C 
HETATM    6  C   UNL     1      17.661   7.124  12.472  1.00  0.00     0.032 C 
ENDBRANCH   1   2
BRANCH   1   7
HETATM    7  C   UNL     1      15.073   5.506  12.020  1.00  0.00     0.103 A 
HETATM    8  C   UNL     1      14.901   6.006  13.308  1.00  0.00     0.047 A 
HETATM    9  C   UNL     1      13.613   6.192  13.810  1.00  0.00    -0.049 A 
HETATM   10  C   UNL     1      12.505   5.878  13.023  1.00  0.00     0.010 A 
HETATM   11  C   UNL     1      12.685   5.377  11.735  1.00  0.00     0.040 A 
HETATM   12  C   UNL     1      13.972   5.190  11.231  1.00  0.00     0.101 A 
BRANCH   9  13
HETATM   13  C   UNL     1      13.418   6.737  15.208  1.00  0.00     0.045 C 
HETATM   14  C   UNL     1      11.968   6.887  15.670  1.00  0.00     0.132 C 
HETATM   15  N   UNL     1      12.063   6.889  17.102  1.00  0.00    -0.360 N 
HETATM   16  C   UNL     1      13.242   6.318  17.560  1.00  0.00     0.218 C 
HETATM   17  H   UNL     1      11.367   7.256  17.695  1.00  0.00     0.162 HD
HETATM   18  O   UNL     1      13.578   6.139  18.720  1.00  0.00    -0.274 OA
HETATM   19  C   UNL     1      14.031   5.896  16.345  1.00  0.00     0.113 C 
ENDBRANCH   9  13
BRANCH  12  20
HETATM   20  O   UNL     1      14.136   4.699   9.971  1.00  0.00    -0.353 OA
HETATM   21  C   UNL     1      13.023   4.023   9.391  1.00  0.00     0.210 C 
ENDBRANCH  12  20
ENDBRANCH   1   7
TORSDOF 4
ENDMDL
MODEL 4
REMARK VINA RESULT:      -6.5      3.168      6.913
REMARK  4 active torsions:
REMARK  status: ('A' for Active; 'I' for Inactive)
REMARK    1  A    between atoms: O_1  and  C_5 
REMARK    2  A    between atoms: O_1  and  C_14 
REMARK    3  A    between atoms: O_2  and  C_18 
REMARK    4  A    between atoms: C_10  and  C_13 
ROOT
HETATM    1  O   UNL     1      15.081   4.871  11.835  1.00  0.00    -0.343 OA
ENDROOT
BRANCH   1   2
HETATM    2  C   UNL     1      14.078   5.586  11.126  1.00  0.00     0.129 C 
HETATM    3  C   UNL     1      12.736   4.893  11.312  1.00  0.00     0.032 C 
HETATM    4  C   UNL     1      12.769   3.724  10.329  1.00  0.00     0.002 C 
HETATM    5  C   UNL     1      13.803   4.089   9.264  1.00  0.00     0.002 C 
HETATM    6  C   UNL     1      14.312   5.482   9.627  1.00  0.00     0.032 C 
ENDBRANCH   1   2
BRANCH   1   7
HETATM    7  C   UNL     1      15.691   5.529  12.871  1.00  0.00     0.103 A 
HETATM    8  C   UNL     1      14.956   5.815  14.018  1.00  0.00     0.047 A 
HETATM    9  C   UNL     1      15.566   6.484  15.079  1.00  0.00    -0.049 A 
HETATM   10  C   UNL     1      16.905   6.866  14.987  1.00  0.00     0.010 A 
HETATM   11  C   UNL     1      17.634   6.577  13.835  1.00  0.00     0.040 A 
HETATM   12  C   UNL     1      17.026   5.906  12.773  1.00  0.00     0.101 A 
BRANCH   9  13
HETATM   13  C   UNL     1      14.774   6.797  16.330  1.00  0.00     0.045 C 
HETATM   14  C   UNL     1      13.259   6.619  16.223  1.00  0.00     0.132 C 
HETATM   15  N   UNL     1      12.837   6.453  17.585  1.00  0.00    -0.360 N 
HETATM   16  C   UNL     1      13.870   6.051  18.419  1.00  0.00     0.218 C 
HETATM   17  H   UNL     1      11.914   6.606  17.893  1.00  0.00     0.162 HD
HETATM   18  O   UNL     1      13.803   5.787  19.609  1.00  0.00    -0.274 OA
HETATM   19  C   UNL     1      15.111   5.942  17.567  1.00  0.00     0.113 C 
ENDBRANCH   9  13
BRANCH  12  20
HETATM   20  O   UNL     1      17.748   5.630  11.652  1.00  0.00    -0.353 OA
HETATM   21  C   UNL     1      19.165   5.763  11.745  1.00  0.00     0.210 C 
ENDBRANCH  12  20
ENDBRANCH   1   7
TORSDOF 4
ENDMDL
MODEL 5
REMARK VINA RESULT:      -6.5      3.573      6.715
REMARK  4 active torsions:
REMARK  status: ('A' for Active; 'I' for Inactive)
REMARK    1  A    between atoms: O_1  and  C_5 
REMARK    2  A    between atoms: O_1  and  C_14 
REMARK    3  A    between atoms: O_2  and  C_18 
REMARK    4  A    between atoms: C_10  and  C_13 
ROOT
HETATM    1  O   UNL     1      14.626   7.692  12.317  1.00  0.00    -0.343 OA
ENDROOT
BRANCH   1   2
HETATM    2  C   UNL     1      13.965   7.342  13.526  1.00  0.00     0.129 C 
HETATM    3  C   UNL     1      12.886   6.310  13.232  1.00  0.00     0.032 C 
HETATM    4  C   UNL     1      11.714   7.126  12.686  1.00  0.00     0.002 C 
HETATM    5  C   UNL     1      11.916   8.554  13.193  1.00  0.00     0.002 C 
HETATM    6  C   UNL     1      13.172   8.525  14.060  1.00  0.00     0.032 C 
ENDBRANCH   1   2
BRANCH   1   7
HETATM    7  C   UNL     1      15.811   7.057  12.055  1.00  0.00     0.103 A 
HETATM    8  C   UNL     1      16.825   7.097  13.007  1.00  0.00     0.047 A 
HETATM    9  C   UNL     1      18.037   6.454  12.751  1.00  0.00    -0.049 A 
HETATM   10  C   UNL     1      18.229   5.778  11.546  1.00  0.00     0.010 A 
HETATM   11  C   UNL     1      17.208   5.743  10.597  1.00  0.00     0.040 A 
HETATM   12  C   UNL     1      15.995   6.384  10.852  1.00  0.00     0.101 A 
BRANCH   9  13
HETATM   13  C   UNL     1      19.145   6.492  13.782  1.00  0.00     0.045 C 
HETATM   14  C   UNL     1      20.562   6.659  13.232  1.00  0.00     0.132 C 
HETATM   15  N   UNL     1      21.302   7.183  14.345  1.00  0.00    -0.360 N 
HETATM   16  C   UNL     1      20.485   7.773  15.299  1.00  0.00     0.218 C 
HETATM   17  H   UNL     1      22.282   7.130  14.424  1.00  0.00     0.162 HD
HETATM   18  O   UNL     1      20.829   8.340  16.323  1.00  0.00    -0.274 OA
HETATM   19  C   UNL     1      19.063   7.636  14.811  1.00  0.00     0.113 C 
ENDBRANCH   9  13
BRANCH  12  20
HETATM   20  O   UNL     1      15.006   6.344   9.916  1.00  0.00    -0.353 OA
HETATM   21  C   UNL     1      14.203   5.166   9.873  1.00  0.00     0.210 C 
ENDBRANCH  12  20
ENDBRANCH   1   7
TORSDOF 4
ENDMDL
MODEL 6
REMARK VINA RESULT:      -6.2      2.173      3.189
REMARK  4 active torsions:
REMARK  status: ('A' for Active; 'I' for Inactive)
REMARK    1  A    between atoms: O_1  and  C_5 
REMARK    2  A    between atoms: O_1  and  C_14 
REMARK    3  A    between atoms: O_2  and  C_18 
REMARK    4  A    between atoms: C_10  and  C_13 
ROOT
HETATM    1  O   UNL     1      14.960   6.665  15.947  1.00  0.00    -0.343 OA
ENDROOT
BRANCH   1   2
HETATM    2  C   UNL     1      14.802   5.547  16.811  1.00  0.00     0.129 C 
HETATM    3  C   UNL     1      13.909   5.934  17.980  1.00  0.00     0.032 C 
HETATM    4  C   UNL     1      14.832   6.694  18.932  1.00  0.00     0.002 C 
HETATM    5  C   UNL     1      16.255   6.251  18.593  1.00  0.00     0.002 C 
HETATM    6  C   UNL     1      16.123   5.209  17.485  1.00  0.00     0.032 C 
ENDBRANCH   1   2
BRANCH   1   7
HETATM    7  C   UNL     1      15.484   6.416  14.705  1.00  0.00     0.103 A 
HETATM    8  C   UNL     1      14.725   5.709  13.779  1.00  0.00     0.047 A 
HETATM    9  C   UNL     1      15.248   5.448  12.512  1.00  0.00    -0.049 A 
HETATM   10  C   UNL     1      16.527   5.894  12.180  1.00  0.00     0.010 A 
HETATM   11  C   UNL     1      17.283   6.602  13.113  1.00  0.00     0.040 A 
HETATM   12  C   UNL     1      16.761   6.864  14.380  1.00  0.00     0.101 A 
BRANCH   9  13
HETATM   13  C   UNL     1      14.427   4.680  11.498  1.00  0.00     0.045 C 
HETATM   14  C   UNL     1      12.914   4.694  11.717  1.00  0.00     0.132 C 
HETATM   15  N   UNL     1      12.378   4.393  10.420  1.00  0.00    -0.360 N 
HETATM   16  C   UNL     1      13.279   4.651   9.396  1.00  0.00     0.218 C 
HETATM   17  H   UNL     1      11.470   4.042  10.272  1.00  0.00     0.162 HD
HETATM   18  O   UNL     1      13.091   4.538   8.196  1.00  0.00    -0.274 OA
HETATM   19  C   UNL     1      14.545   5.162  10.039  1.00  0.00     0.113 C 
ENDBRANCH   9  13
BRANCH  12  20
HETATM   20  O   UNL     1      17.508   7.556  15.285  1.00  0.00    -0.353 OA
HETATM   21  C   UNL     1      18.833   7.910  14.894  1.00  0.00     0.210 C 
ENDBRANCH  12  20
ENDBRANCH   1   7
TORSDOF 4
ENDMDL
MODEL 7
REMARK VINA RESULT:      -6.2      3.449      6.286
REMARK  4 active torsions:
REMARK  status: ('A' for Active; 'I' for Inactive)
REMARK    1  A    between atoms: O_1  and  C_5 
REMARK    2  A    between atoms: O_1  and  C_14 
REMARK    3  A    between atoms: O_2  and  C_18 
REMARK    4  A    between atoms: C_10  and  C_13 
ROOT
HETATM    1  O   UNL     1      14.202   5.049  12.716  1.00  0.00    -0.343 OA
ENDROOT
BRANCH   1   2
HETATM    2  C   UNL     1      13.524   5.789  11.710  1.00  0.00     0.129 C 
HETATM    3  C   UNL     1      12.287   5.023  11.266  1.00  0.00     0.032 C 
HETATM    4  C   UNL     1      12.817   3.964  10.301  1.00  0.00     0.002 C 
HETATM    5  C   UNL     1      14.164   4.481   9.796  1.00  0.00     0.002 C 
HETATM    6  C   UNL     1      14.362   5.850  10.442  1.00  0.00     0.032 C 
ENDBRANCH   1   2
BRANCH   1   7
HETATM    7  C   UNL     1      15.276   5.657  13.311  1.00  0.00     0.103 A 
HETATM    8  C   UNL     1      16.557   5.378  12.844  1.00  0.00     0.047 A 
HETATM    9  C   UNL     1      17.659   5.990  13.442  1.00  0.00    -0.049 A 
HETATM   10  C   UNL     1      17.475   6.875  14.504  1.00  0.00     0.010 A 
HETATM   11  C   UNL     1      16.189   7.149  14.968  1.00  0.00     0.040 A 
HETATM   12  C   UNL     1      15.086   6.539  14.370  1.00  0.00     0.101 A 
BRANCH   9  13
HETATM   13  C   UNL     1      19.055   5.693  12.938  1.00  0.00     0.045 C 
HETATM   14  C   UNL     1      19.280   5.895  11.439  1.00  0.00     0.132 C 
HETATM   15  N   UNL     1      20.701   6.072  11.327  1.00  0.00    -0.360 N 
HETATM   16  C   UNL     1      21.287   6.459  12.525  1.00  0.00     0.218 C 
HETATM   17  H   UNL     1      21.204   5.934  10.493  1.00  0.00     0.162 HD
HETATM   18  O   UNL     1      22.460   6.727  12.724  1.00  0.00    -0.274 OA
HETATM   19  C   UNL     1      20.183   6.546  13.551  1.00  0.00     0.113 C 
ENDBRANCH   9  13
BRANCH  12  20
HETATM   20  O   UNL     1      13.834   6.813  14.832  1.00  0.00    -0.353 OA
HETATM   21  C   UNL     1      13.426   6.152  16.028  1.00  0.00     0.210 C 
ENDBRANCH  12  20
ENDBRANCH   1   7
TORSDOF 4
ENDMDL
MODEL 8
REMARK VINA RESULT:      -6.2      3.529      7.004
REMARK  4 active torsions:
REMARK  status: ('A' for Active; 'I' for Inactive)
REMARK    1  A    between atoms: O_1  and  C_5 
REMARK    2  A    between atoms: O_1  and  C_14 
REMARK    3  A    between atoms: O_2  and  C_18 
REMARK    4  A    between atoms: C_10  and  C_13 
ROOT
HETATM    1  O   UNL     1      14.893   7.565  13.088  1.00  0.00    -0.343 OA
ENDROOT
BRANCH   1   2
HETATM    2  C   UNL     1      16.004   6.918  12.479  1.00  0.00     0.129 C 
HETATM    3  C   UNL     1      16.085   7.325  11.015  1.00  0.00     0.032 C 
HETATM    4  C   UNL     1      15.040   6.454  10.317  1.00  0.00     0.002 C 
HETATM    5  C   UNL     1      14.815   5.246  11.226  1.00  0.00     0.002 C 
HETATM    6  C   UNL     1      15.768   5.418  12.406  1.00  0.00     0.032 C 
ENDBRANCH   1   2
BRANCH   1   7
HETATM    7  C   UNL     1      14.532   7.126  14.334  1.00  0.00     0.103 A 
HETATM    8  C   UNL     1      15.404   7.324  15.401  1.00  0.00     0.047 A 
HETATM    9  C   UNL     1      15.047   6.881  16.675  1.00  0.00    -0.049 A 
HETATM   10  C   UNL     1      13.824   6.242  16.876  1.00  0.00     0.010 A 
HETATM   11  C   UNL     1      12.955   6.047  15.802  1.00  0.00     0.040 A 
HETATM   12  C   UNL     1      13.310   6.490  14.528  1.00  0.00     0.101 A 
BRANCH   9  13
HETATM   13  C   UNL     1      15.990   7.094  17.840  1.00  0.00     0.045 C 
HETATM   14  C   UNL     1      16.906   8.314  17.743  1.00  0.00     0.132 C 
HETATM   15  N   UNL     1      17.268   8.580  19.106  1.00  0.00    -0.360 N 
HETATM   16  C   UNL     1      16.378   8.023  20.014  1.00  0.00     0.218 C 
HETATM   17  H   UNL     1      18.061   9.101  19.370  1.00  0.00     0.162 HD
HETATM   18  O   UNL     1      16.400   8.120  21.230  1.00  0.00    -0.274 OA
HETATM   19  C   UNL     1      15.320   7.304  19.212  1.00  0.00     0.113 C 
ENDBRANCH   9  13
BRANCH  12  20
HETATM   20  O   UNL     1      12.454   6.293  13.486  1.00  0.00    -0.353 OA
HETATM   21  C   UNL     1      11.580   7.369  13.154  1.00  0.00     0.210 C 
ENDBRANCH  12  20
ENDBRANCH   1   7
TORSDOF 4
ENDMDL
MODEL 9
REMARK VINA RESULT:      -6.1      2.732      3.990
REMARK  4 active torsions:
REMARK  status: ('A' for Active; 'I' for Inactive)
REMARK    1  A    between atoms: O_1  and  C_5 
REMARK    2  A    between atoms: O_1  and  C_14 
REMARK    3  A    between atoms: O_2  and  C_18 
REMARK    4  A    between atoms: C_10  and  C_13 
ROOT
HETATM    1  O   UNL     1      18.865   6.351  13.645  1.00  0.00    -0.343 OA
ENDROOT
BRANCH   1   2
HETATM    2  C   UNL     1      19.453   5.491  12.677  1.00  0.00     0.129 C 
HETATM    3  C   UNL     1      20.410   4.531  13.368  1.00  0.00     0.032 C 
HETATM    4  C   UNL     1      21.681   5.351  13.590  1.00  0.00     0.002 C 
HETATM    5  C   UNL     1      21.637   6.491  12.573  1.00  0.00     0.002 C 
HETATM    6  C   UNL     1      20.366   6.280  11.752  1.00  0.00     0.032 C 
ENDBRANCH   1   2
BRANCH   1   7
HETATM    7  C   UNL     1      17.497   6.359  13.713  1.00  0.00     0.103 A 
HETATM    8  C   UNL     1      16.767   5.652  12.762  1.00  0.00     0.047 A 
HETATM    9  C   UNL     1      15.373   5.653  12.819  1.00  0.00    -0.049 A 
HETATM   10  C   UNL     1      14.717   6.363  13.825  1.00  0.00     0.010 A 
HETATM   11  C   UNL     1      15.454   7.070  14.773  1.00  0.00     0.040 A 
HETATM   12  C   UNL     1      16.848   7.069  14.718  1.00  0.00     0.101 A 
BRANCH   9  13
HETATM   13  C   UNL     1      14.573   4.885  11.790  1.00  0.00     0.045 C 
HETATM   14  C   UNL     1      13.053   5.024  11.886  1.00  0.00     0.132 C 
HETATM   15  N   UNL     1      12.594   4.681  10.570  1.00  0.00    -0.360 N 
HETATM   16  C   UNL     1      13.586   4.806   9.608  1.00  0.00     0.218 C 
HETATM   17  H   UNL     1      11.675   4.389  10.371  1.00  0.00     0.162 HD
HETATM   18  O   UNL     1      13.480   4.630   8.405  1.00  0.00    -0.274 OA
HETATM   19  C   UNL     1      14.837   5.262  10.319  1.00  0.00     0.113 C 
ENDBRANCH   9  13
BRANCH  12  20
HETATM   20  O   UNL     1      17.558   7.765  15.649  1.00  0.00    -0.353 OA
HETATM   21  C   UNL     1      16.849   8.208  16.804  1.00  0.00     0.210 C 
ENDBRANCH  12  20
ENDBRANCH   1   7
TORSDOF 4
ENDMDL
