MODEL 1
REMARK VINA RESULT:      -6.9      0.000      0.000
REMARK  4 active torsions:
REMARK  status: ('A' for Active; 'I' for Inactive)
REMARK    1  A    between atoms: O_1  and  C_5 
REMARK    2  A    between atoms: O_1  and  C_14 
REMARK    3  A    between atoms: O_2  and  C_18 
REMARK    4  A    between atoms: C_10  and  C_13 
ROOT
HETATM    1  O   UNL     1      14.284   8.668  12.066  1.00  0.00    -0.343 OA
ENDROOT
BRANCH   1   2
HETATM    2  C   UNL     1      14.748   7.462  12.659  1.00  0.00     0.129 C 
HETATM    3  C   UNL     1      14.867   7.653  14.164  1.00  0.00     0.032 C 
HETATM    4  C   UNL     1      16.188   8.397  14.353  1.00  0.00     0.002 C 
HETATM    5  C   UNL     1      17.019   8.118  13.100  1.00  0.00     0.002 C 
HETATM    6  C   UNL     1      16.181   7.180  12.235  1.00  0.00     0.032 C 
ENDBRANCH   1   2
BRANCH   1   7
HETATM    7  C   UNL     1      13.085   8.609  11.405  1.00  0.00     0.103 A 
HETATM    8  C   UNL     1      12.911   7.660  10.402  1.00  0.00     0.047 A 
HETATM    9  C   UNL     1      11.695   7.590   9.721  1.00  0.00    -0.049 A 
HETATM   10  C   UNL     1      10.662   8.470  10.045  1.00  0.00     0.010 A 
HETATM   11  C   UNL     1      10.844   9.419  11.050  1.00  0.00     0.040 A 
HETATM   12  C   UNL     1      12.059   9.490  11.732  1.00  0.00     0.101 A 
BRANCH   9  13
HETATM   13  C   UNL     1      11.497   6.560   8.631  1.00  0.00     0.045 C 
HETATM   14  C   UNL     1      10.117   5.903   8.576  1.00  0.00     0.132 C 
HETATM   15  N   UNL     1      10.021   5.422   7.227  1.00  0.00    -0.360 N 
HETATM   16  C   UNL     1      10.895   6.069   6.365  1.00  0.00     0.218 C 
HETATM   17  H   UNL     1       9.401   4.711   6.943  1.00  0.00     0.162 HD
HETATM   18  O   UNL     1      11.005   5.907   5.160  1.00  0.00    -0.274 OA
HETATM   19  C   UNL     1      11.667   7.072   7.187  1.00  0.00     0.113 C 
ENDBRANCH   9  13
BRANCH  12  20
HETATM   20  O   UNL     1      12.226  10.422  12.711  1.00  0.00    -0.353 OA
HETATM   21  C   UNL     1      11.779  11.745  12.428  1.00  0.00     0.210 C 
ENDBRANCH  12  20
ENDBRANCH   1   7
TORSDOF 4
ENDMDL
MODEL 2
REMARK VINA RESULT:      -6.8      3.474      5.815
REMARK  4 active torsions:
REMARK  status: ('A' for Active; 'I' for Inactive)
REMARK    1  A    between atoms: O_1  and  C_5 
REMARK    2  A    between atoms: O_1  and  C_14 
REMARK    3  A    between atoms: O_2  and  C_18 
REMARK    4  A    between atoms: C_10  and  C_13 
ROOT
HETATM    1  O   UNL     1      12.353   7.129  11.009  1.00  0.00    -0.343 OA
ENDROOT
BRANCH   1   2
HETATM    2  C   UNL     1      12.666   8.113  11.986  1.00  0.00     0.129 C 
HETATM    3  C   UNL     1      11.625   8.072  13.095  1.00  0.00     0.032 C 
HETATM    4  C   UNL     1      10.431   8.840  12.529  1.00  0.00     0.002 C 
HETATM    5  C   UNL     1      10.985   9.738  11.424  1.00  0.00     0.002 C 
HETATM    6  C   UNL     1      12.495   9.508  11.406  1.00  0.00     0.032 C 
ENDBRANCH   1   2
BRANCH   1   7
HETATM    7  C   UNL     1      13.119   7.123   9.873  1.00  0.00     0.103 A 
HETATM    8  C   UNL     1      14.502   7.218   9.988  1.00  0.00     0.047 A 
HETATM    9  C   UNL     1      15.292   7.214   8.838  1.00  0.00    -0.049 A 
HETATM   10  C   UNL     1      14.696   7.117   7.581  1.00  0.00     0.010 A 
HETATM   11  C   UNL     1      13.309   7.023   7.473  1.00  0.00     0.040 A 
HETATM   12  C   UNL     1      12.517   7.026   8.622  1.00  0.00     0.101 A 
BRANCH   9  13
HETATM   13  C   UNL     1      16.798   7.316   8.955  1.00  0.00     0.045 C 
HETATM   14  C   UNL     1      17.338   7.636  10.350  1.00  0.00     0.132 C 
HETATM   15  N   UNL     1      18.693   7.162  10.309  1.00  0.00    -0.360 N 
HETATM   16  C   UNL     1      18.901   6.223   9.308  1.00  0.00     0.218 C 
HETATM   17  H   UNL     1      19.398   7.469  10.924  1.00  0.00     0.162 HD
HETATM   18  O   UNL     1      19.930   5.614   9.063  1.00  0.00    -0.274 OA
HETATM   19  C   UNL     1      17.585   6.042   8.590  1.00  0.00     0.113 C 
ENDBRANCH   9  13
BRANCH  12  20
HETATM   20  O   UNL     1      11.163   6.935   8.504  1.00  0.00    -0.353 OA
HETATM   21  C   UNL     1      10.654   6.424   7.275  1.00  0.00     0.210 C 
ENDBRANCH  12  20
ENDBRANCH   1   7
TORSDOF 4
ENDMDL
MODEL 3
REMARK VINA RESULT:      -6.6      2.805      5.646
REMARK  4 active torsions:
REMARK  status: ('A' for Active; 'I' for Inactive)
REMARK    1  A    between atoms: O_1  and  C_5 
REMARK    2  A    between atoms: O_1  and  C_14 
REMARK    3  A    between atoms: O_2  and  C_18 
REMARK    4  A    between atoms: C_10  and  C_13 
ROOT
HETATM    1  O   UNL     1      14.267   6.844   7.673  1.00  0.00    -0.343 OA
ENDROOT
BRANCH   1   2
HETATM    2  C   UNL     1      15.168   7.878   8.047  1.00  0.00     0.129 C 
HETATM    3  C   UNL     1      16.458   7.737   7.252  1.00  0.00     0.032 C 
HETATM    4  C   UNL     1      17.234   6.635   7.972  1.00  0.00     0.002 C 
HETATM    5  C   UNL     1      16.679   6.582   9.395  1.00  0.00     0.002 C 
HETATM    6  C   UNL     1      15.628   7.686   9.483  1.00  0.00     0.032 C 
ENDBRANCH   1   2
BRANCH   1   7
HETATM    7  C   UNL     1      12.961   6.994   8.057  1.00  0.00     0.103 A 
HETATM    8  C   UNL     1      12.681   7.579   9.288  1.00  0.00     0.047 A 
HETATM    9  C   UNL     1      11.355   7.737   9.692  1.00  0.00    -0.049 A 
HETATM   10  C   UNL     1      10.317   7.308   8.864  1.00  0.00     0.010 A 
HETATM   11  C   UNL     1      10.605   6.722   7.633  1.00  0.00     0.040 A 
HETATM   12  C   UNL     1      11.931   6.564   7.227  1.00  0.00     0.101 A 
BRANCH   9  13
HETATM   13  C   UNL     1      11.042   8.374  11.029  1.00  0.00     0.045 C 
HETATM   14  C   UNL     1      11.943   7.959  12.192  1.00  0.00     0.132 C 
HETATM   15  N   UNL     1      11.804   9.035  13.134  1.00  0.00    -0.360 N 
HETATM   16  C   UNL     1      11.347  10.205  12.544  1.00  0.00     0.218 C 
HETATM   17  H   UNL     1      12.011   8.952  14.093  1.00  0.00     0.162 HD
HETATM   18  O   UNL     1      11.177  11.288  13.079  1.00  0.00    -0.274 OA
HETATM   19  C   UNL     1      11.142   9.911  11.077  1.00  0.00     0.113 C 
ENDBRANCH   9  13
BRANCH  12  20
HETATM   20  O   UNL     1      12.200   5.989   6.022  1.00  0.00    -0.353 OA
HETATM   21  C   UNL     1      11.126   5.314   5.373  1.00  0.00     0.210 C 
ENDBRANCH  12  20
ENDBRANCH   1   7
TORSDOF 4
ENDMDL
MODEL 4
REMARK VINA RESULT:      -6.5      3.178      6.896
REMARK  4 active torsions:
REMARK  status: ('A' for Active; 'I' for Inactive)
REMARK    1  A    between atoms: O_1  and  C_5 
REMARK    2  A    between atoms: O_1  and  C_14 
REMARK    3  A    between atoms: O_2  and  C_18 
REMARK    4  A    between atoms: C_10  and  C_13 
ROOT
HETATM    1  O   UNL     1      13.013   6.399   9.041  1.00  0.00    -0.343 OA
ENDROOT
BRANCH   1   2
HETATM    2  C   UNL     1      12.011   7.349   8.703  1.00  0.00     0.129 C 
HETATM    3  C   UNL     1      10.637   6.733   8.920  1.00  0.00     0.032 C 
HETATM    4  C   UNL     1      10.405   5.867   7.682  1.00  0.00     0.002 C 
HETATM    5  C   UNL     1      11.322   6.424   6.593  1.00  0.00     0.002 C 
HETATM    6  C   UNL     1      12.030   7.629   7.208  1.00  0.00     0.032 C 
ENDBRANCH   1   2
BRANCH   1   7
HETATM    7  C   UNL     1      13.900   6.760  10.021  1.00  0.00     0.103 A 
HETATM    8  C   UNL     1      13.439   6.923  11.324  1.00  0.00     0.047 A 
HETATM    9  C   UNL     1      14.331   7.292  12.331  1.00  0.00    -0.049 A 
HETATM   10  C   UNL     1      15.678   7.496  12.030  1.00  0.00     0.010 A 
HETATM   11  C   UNL     1      16.133   7.332  10.723  1.00  0.00     0.040 A 
HETATM   12  C   UNL     1      15.241   6.963   9.715  1.00  0.00     0.101 A 
BRANCH   9  13
HETATM   13  C   UNL     1      13.838   7.469  13.751  1.00  0.00     0.045 C 
HETATM   14  C   UNL     1      12.323   7.587  13.921  1.00  0.00     0.132 C 
HETATM   15  N   UNL     1      12.102   7.215  15.290  1.00  0.00    -0.360 N 
HETATM   16  C   UNL     1      13.149   6.472  15.817  1.00  0.00     0.218 C 
HETATM   17  H   UNL     1      11.296   7.460  15.799  1.00  0.00     0.162 HD
HETATM   18  O   UNL     1      13.222   5.980  16.932  1.00  0.00    -0.274 OA
HETATM   19  C   UNL     1      14.183   6.328  14.727  1.00  0.00     0.113 C 
ENDBRANCH   9  13
BRANCH  12  20
HETATM   20  O   UNL     1      15.696   6.806   8.440  1.00  0.00    -0.353 OA
HETATM   21  C   UNL     1      17.109   6.841   8.249  1.00  0.00     0.210 C 
ENDBRANCH  12  20
ENDBRANCH   1   7
TORSDOF 4
ENDMDL
MODEL 5
REMARK VINA RESULT:      -6.5      3.217      5.751
REMARK  4 active torsions:
REMARK  status: ('A' for Active; 'I' for Inactive)
REMARK    1  A    between atoms: O_1  and  C_5 
REMARK    2  A    between atoms: O_1  and  C_14 
REMARK    3  A    between atoms: O_2  and  C_18 
REMARK    4  A    between atoms: C_10  and  C_13 
ROOT
HETATM    1  O   UNL     1      14.278   6.734   8.475  1.00  0.00    -0.343 OA
ENDROOT
BRANCH   1   2
HETATM    2  C   UNL     1      15.228   7.788   8.383  1.00  0.00     0.129 C 
HETATM    3  C   UNL     1      16.269   7.440   7.329  1.00  0.00     0.032 C 
HETATM    4  C   UNL     1      17.223   6.479   8.036  1.00  0.00     0.002 C 
HETATM    5  C   UNL     1      17.059   6.736   9.533  1.00  0.00     0.002 C 
HETATM    6  C   UNL     1      16.049   7.874   9.661  1.00  0.00     0.032 C 
ENDBRANCH   1   2
BRANCH   1   7
HETATM    7  C   UNL     1      13.161   6.975   9.231  1.00  0.00     0.103 A 
HETATM    8  C   UNL     1      13.307   7.257  10.585  1.00  0.00     0.047 A 
HETATM    9  C   UNL     1      12.177   7.503  11.366  1.00  0.00    -0.049 A 
HETATM   10  C   UNL     1      10.908   7.464  10.788  1.00  0.00     0.010 A 
HETATM   11  C   UNL     1      10.769   7.179   9.430  1.00  0.00     0.040 A 
HETATM   12  C   UNL     1      11.898   6.934   8.649  1.00  0.00     0.101 A 
BRANCH   9  13
HETATM   13  C   UNL     1      12.329   7.813  12.839  1.00  0.00     0.045 C 
HETATM   14  C   UNL     1      11.041   8.176  13.580  1.00  0.00     0.132 C 
HETATM   15  N   UNL     1      11.347   7.898  14.955  1.00  0.00    -0.360 N 
HETATM   16  C   UNL     1      12.412   7.019  15.098  1.00  0.00     0.218 C 
HETATM   17  H   UNL     1      10.855   8.288  15.714  1.00  0.00     0.162 HD
HETATM   18  O   UNL     1      12.865   6.566  16.136  1.00  0.00    -0.274 OA
HETATM   19  C   UNL     1      12.888   6.670  13.709  1.00  0.00     0.113 C 
ENDBRANCH   9  13
BRANCH  12  20
HETATM   20  O   UNL     1      11.750   6.656   7.324  1.00  0.00    -0.353 OA
HETATM   21  C   UNL     1      10.556   5.982   6.934  1.00  0.00     0.210 C 
ENDBRANCH  12  20
ENDBRANCH   1   7
TORSDOF 4
ENDMDL
MODEL 6
REMARK VINA RESULT:      -6.4      3.544      6.702
REMARK  4 active torsions:
REMARK  status: ('A' for Active; 'I' for Inactive)
REMARK    1  A    between atoms: O_1  and  C_5 
REMARK    2  A    between atoms: O_1  and  C_14 
REMARK    3  A    between atoms: O_2  and  C_18 
REMARK    4  A    between atoms: C_10  and  C_13 
ROOT
HETATM    1  O   UNL     1      13.341   9.215  10.223  1.00  0.00    -0.343 OA
ENDROOT
BRANCH   1   2
HETATM    2  C   UNL     1      12.752   8.714  11.416  1.00  0.00     0.129 C 
HETATM    3  C   UNL     1      11.492   7.934  11.068  1.00  0.00     0.032 C 
HETATM    4  C   UNL     1      10.426   9.007  10.848  1.00  0.00     0.002 C 
HETATM    5  C   UNL     1      10.911  10.251  11.592  1.00  0.00     0.002 C 
HETATM    6  C   UNL     1      12.223   9.858  12.267  1.00  0.00     0.032 C 
ENDBRANCH   1   2
BRANCH   1   7
HETATM    7  C   UNL     1      14.297   8.431   9.631  1.00  0.00     0.103 A 
HETATM    8  C   UNL     1      15.444   8.104  10.348  1.00  0.00     0.047 A 
HETATM    9  C   UNL     1      16.425   7.308   9.757  1.00  0.00    -0.049 A 
HETATM   10  C   UNL     1      16.255   6.846   8.452  1.00  0.00     0.010 A 
HETATM   11  C   UNL     1      15.104   7.178   7.739  1.00  0.00     0.040 A 
HETATM   12  C   UNL     1      14.122   7.974   8.329  1.00  0.00     0.101 A 
BRANCH   9  13
HETATM   13  C   UNL     1      17.674   6.947  10.531  1.00  0.00     0.045 C 
HETATM   14  C   UNL     1      18.979   6.956   9.733  1.00  0.00     0.132 C 
HETATM   15  N   UNL     1      19.993   7.115  10.738  1.00  0.00    -0.360 N 
HETATM   16  C   UNL     1      19.496   7.650  11.918  1.00  0.00     0.218 C 
HETATM   17  H   UNL     1      20.937   6.871  10.604  1.00  0.00     0.162 HD
HETATM   18  O   UNL     1      20.124   7.939  12.924  1.00  0.00    -0.274 OA
HETATM   19  C   UNL     1      18.016   7.869  11.717  1.00  0.00     0.113 C 
ENDBRANCH   9  13
BRANCH  12  20
HETATM   20  O   UNL     1      13.002   8.293   7.623  1.00  0.00    -0.353 OA
HETATM   21  C   UNL     1      12.049   7.253   7.416  1.00  0.00     0.210 C 
ENDBRANCH  12  20
ENDBRANCH   1   7
TORSDOF 4
ENDMDL
MODEL 7
REMARK VINA RESULT:      -6.2      2.555      3.733
REMARK  4 active torsions:
REMARK  status: ('A' for Active; 'I' for Inactive)
REMARK    1  A    between atoms: O_1  and  C_5 
REMARK    2  A    between atoms: O_1  and  C_14 
REMARK    3  A    between atoms: O_2  and  C_18 
REMARK    4  A    between atoms: C_10  and  C_13 
ROOT
HETATM    1  O   UNL     1      17.012   7.205  10.063  1.00  0.00    -0.343 OA
ENDROOT
BRANCH   1   2
HETATM    2  C   UNL     1      17.358   6.256   9.062  1.00  0.00     0.129 C 
HETATM    3  C   UNL     1      18.156   5.125   9.694  1.00  0.00     0.032 C 
HETATM    4  C   UNL     1      19.573   5.683   9.826  1.00  0.00     0.002 C 
HETATM    5  C   UNL     1      19.682   6.819   8.808  1.00  0.00     0.002 C 
HETATM    6  C   UNL     1      18.343   6.863   8.075  1.00  0.00     0.032 C 
ENDBRANCH   1   2
BRANCH   1   7
HETATM    7  C   UNL     1      15.694   7.257  10.435  1.00  0.00     0.103 A 
HETATM    8  C   UNL     1      14.718   6.860   9.527  1.00  0.00     0.047 A 
HETATM    9  C   UNL     1      13.373   6.909   9.893  1.00  0.00    -0.049 A 
HETATM   10  C   UNL     1      13.011   7.356  11.164  1.00  0.00     0.010 A 
HETATM   11  C   UNL     1      13.994   7.753  12.069  1.00  0.00     0.040 A 
HETATM   12  C   UNL     1      15.340   7.704  11.704  1.00  0.00     0.101 A 
BRANCH   9  13
HETATM   13  C   UNL     1      12.305   6.477   8.911  1.00  0.00     0.045 C 
HETATM   14  C   UNL     1      10.866   6.823   9.295  1.00  0.00     0.132 C 
HETATM   15  N   UNL     1      10.164   6.806   8.043  1.00  0.00    -0.360 N 
HETATM   16  C   UNL     1      11.011   6.959   6.954  1.00  0.00     0.218 C 
HETATM   17  H   UNL     1       9.188   6.698   7.965  1.00  0.00     0.162 HD
HETATM   18  O   UNL     1      10.699   7.030   5.776  1.00  0.00    -0.274 OA
HETATM   19  C   UNL     1      12.414   7.080   7.497  1.00  0.00     0.113 C 
ENDBRANCH   9  13
BRANCH  12  20
HETATM   20  O   UNL     1      16.292   8.096  12.596  1.00  0.00    -0.353 OA
HETATM   21  C   UNL     1      15.970   7.977  13.980  1.00  0.00     0.210 C 
ENDBRANCH  12  20
ENDBRANCH   1   7
TORSDOF 4
ENDMDL
MODEL 8
REMARK VINA RESULT:      -6.2      3.513      6.403
REMARK  4 active torsions:
REMARK  status: ('A' for Active; 'I' for Inactive)
REMARK    1  A    between atoms: O_1  and  C_5 
REMARK    2  A    between atoms: O_1  and  C_14 
REMARK    3  A    between atoms: O_2  and  C_18 
REMARK    4  A    between atoms: C_10  and  C_13 
ROOT
HETATM    1  O   UNL     1      12.686   6.565   9.761  1.00  0.00    -0.343 OA
ENDROOT
BRANCH   1   2
HETATM    2  C   UNL     1      11.997   7.599   9.070  1.00  0.00     0.129 C 
HETATM    3  C   UNL     1      10.529   7.223   8.932  1.00  0.00     0.032 C 
HETATM    4  C   UNL     1      10.492   6.246   7.758  1.00  0.00     0.002 C 
HETATM    5  C   UNL     1      11.753   6.516   6.937  1.00  0.00     0.002 C 
HETATM    6  C   UNL     1      12.468   7.676   7.626  1.00  0.00     0.032 C 
ENDBRANCH   1   2
BRANCH   1   7
HETATM    7  C   UNL     1      13.904   6.889  10.300  1.00  0.00     0.103 A 
HETATM    8  C   UNL     1      15.063   6.506   9.631  1.00  0.00     0.047 A 
HETATM    9  C   UNL     1      16.309   6.829  10.169  1.00  0.00    -0.049 A 
HETATM   10  C   UNL     1      16.389   7.530  11.372  1.00  0.00     0.010 A 
HETATM   11  C   UNL     1      15.224   7.909  12.037  1.00  0.00     0.040 A 
HETATM   12  C   UNL     1      13.977   7.588  11.500  1.00  0.00     0.101 A 
BRANCH   9  13
HETATM   13  C   UNL     1      17.574   6.417   9.447  1.00  0.00     0.045 C 
HETATM   14  C   UNL     1      17.681   6.857   7.986  1.00  0.00     0.132 C 
HETATM   15  N   UNL     1      19.092   6.829   7.723  1.00  0.00    -0.360 N 
HETATM   16  C   UNL     1      19.853   6.891   8.882  1.00  0.00     0.218 C 
HETATM   17  H   UNL     1      19.478   6.772   6.819  1.00  0.00     0.162 HD
HETATM   18  O   UNL     1      21.069   6.932   8.970  1.00  0.00    -0.274 OA
HETATM   19  C   UNL     1      18.889   6.956  10.042  1.00  0.00     0.113 C 
ENDBRANCH   9  13
BRANCH  12  20
HETATM   20  O   UNL     1      12.846   7.963  12.159  1.00  0.00    -0.353 OA
HETATM   21  C   UNL     1      12.572   9.360  12.231  1.00  0.00     0.210 C 
ENDBRANCH  12  20
ENDBRANCH   1   7
TORSDOF 4
ENDMDL
MODEL 9
REMARK VINA RESULT:      -6.2      2.526      3.443
REMARK  4 active torsions:
REMARK  status: ('A' for Active; 'I' for Inactive)
REMARK    1  A    between atoms: O_1  and  C_5 
REMARK    2  A    between atoms: O_1  and  C_14 
REMARK    3  A    between atoms: O_2  and  C_18 
REMARK    4  A    between atoms: C_10  and  C_13 
ROOT
HETATM    1  O   UNL     1      15.760   8.042  13.850  1.00  0.00    -0.343 OA
ENDROOT
BRANCH   1   2
HETATM    2  C   UNL     1      17.097   7.569  13.758  1.00  0.00     0.129 C 
HETATM    3  C   UNL     1      17.655   7.353  15.157  1.00  0.00     0.032 C 
HETATM    4  C   UNL     1      18.054   8.750  15.631  1.00  0.00     0.002 C 
HETATM    5  C   UNL     1      18.247   9.590  14.368  1.00  0.00     0.002 C 
HETATM    6  C   UNL     1      18.004   8.650  13.190  1.00  0.00     0.032 C 
ENDBRANCH   1   2
BRANCH   1   7
HETATM    7  C   UNL     1      14.823   7.398  13.085  1.00  0.00     0.103 A 
HETATM    8  C   UNL     1      14.669   7.767  11.752  1.00  0.00     0.047 A 
HETATM    9  C   UNL     1      13.718   7.120  10.962  1.00  0.00    -0.049 A 
HETATM   10  C   UNL     1      12.926   6.111  11.509  1.00  0.00     0.010 A 
HETATM   11  C   UNL     1      13.085   5.747  12.846  1.00  0.00     0.040 A 
HETATM   12  C   UNL     1      14.036   6.393  13.637  1.00  0.00     0.101 A 
BRANCH   9  13
HETATM   13  C   UNL     1      13.546   7.514   9.511  1.00  0.00     0.045 C 
HETATM   14  C   UNL     1      14.708   7.159   8.581  1.00  0.00     0.132 C 
HETATM   15  N   UNL     1      14.108   7.136   7.277  1.00  0.00    -0.360 N 
HETATM   16  C   UNL     1      12.731   6.967   7.326  1.00  0.00     0.218 C 
HETATM   17  H   UNL     1      14.617   7.230   6.440  1.00  0.00     0.162 HD
HETATM   18  O   UNL     1      11.963   6.862   6.383  1.00  0.00    -0.274 OA
HETATM   19  C   UNL     1      12.347   6.877   8.783  1.00  0.00     0.113 C 
ENDBRANCH   9  13
BRANCH  12  20
HETATM   20  O   UNL     1      14.182   6.030  14.942  1.00  0.00    -0.353 OA
HETATM   21  C   UNL     1      13.198   6.503  15.858  1.00  0.00     0.210 C 
ENDBRANCH  12  20
ENDBRANCH   1   7
TORSDOF 4
ENDMDL
