MODEL 1
REMARK VINA RESULT:      -6.9      0.000      0.000
REMARK  4 active torsions:
REMARK  status: ('A' for Active; 'I' for Inactive)
REMARK    1  A    between atoms: O_1  and  C_5 
REMARK    2  A    between atoms: O_1  and  C_14 
REMARK    3  A    between atoms: O_2  and  C_18 
REMARK    4  A    between atoms: C_10  and  C_13 
ROOT
HETATM    1  O   UNL     1      14.256   8.676  12.110  1.00  0.00    -0.343 OA
ENDROOT
BRANCH   1   2
HETATM    2  C   UNL     1      14.719   7.466  12.697  1.00  0.00     0.129 C 
HETATM    3  C   UNL     1      14.890   7.665  14.195  1.00  0.00     0.032 C 
HETATM    4  C   UNL     1      16.229   8.387  14.336  1.00  0.00     0.002 C 
HETATM    5  C   UNL     1      17.013   8.086  13.059  1.00  0.00     0.002 C 
HETATM    6  C   UNL     1      16.132   7.157  12.228  1.00  0.00     0.032 C 
ENDBRANCH   1   2
BRANCH   1   7
HETATM    7  C   UNL     1      13.065   8.619  11.436  1.00  0.00     0.103 A 
HETATM    8  C   UNL     1      12.900   7.670  10.431  1.00  0.00     0.047 A 
HETATM    9  C   UNL     1      11.692   7.602   9.737  1.00  0.00    -0.049 A 
HETATM   10  C   UNL     1      10.656   8.484  10.049  1.00  0.00     0.010 A 
HETATM   11  C   UNL     1      10.829   9.432  11.057  1.00  0.00     0.040 A 
HETATM   12  C   UNL     1      12.036   9.501  11.752  1.00  0.00     0.101 A 
BRANCH   9  13
HETATM   13  C   UNL     1      11.504   6.572   8.644  1.00  0.00     0.045 C 
HETATM   14  C   UNL     1      10.123   5.920   8.572  1.00  0.00     0.132 C 
HETATM   15  N   UNL     1      10.042   5.439   7.222  1.00  0.00    -0.360 N 
HETATM   16  C   UNL     1      10.929   6.083   6.371  1.00  0.00     0.218 C 
HETATM   17  H   UNL     1       9.424   4.729   6.931  1.00  0.00     0.162 HD
HETATM   18  O   UNL     1      11.053   5.921   5.168  1.00  0.00    -0.274 OA
HETATM   19  C   UNL     1      11.693   7.084   7.203  1.00  0.00     0.113 C 
ENDBRANCH   9  13
BRANCH  12  20
HETATM   20  O   UNL     1      12.194  10.432  12.734  1.00  0.00    -0.353 OA
HETATM   21  C   UNL     1      11.770  11.761  12.439  1.00  0.00     0.210 C 
ENDBRANCH  12  20
ENDBRANCH   1   7
TORSDOF 4
ENDMDL
MODEL 2
REMARK VINA RESULT:      -6.8      3.472      5.809
REMARK  4 active torsions:
REMARK  status: ('A' for Active; 'I' for Inactive)
REMARK    1  A    between atoms: O_1  and  C_5 
REMARK    2  A    between atoms: O_1  and  C_14 
REMARK    3  A    between atoms: O_2  and  C_18 
REMARK    4  A    between atoms: C_10  and  C_13 
ROOT
HETATM    1  O   UNL     1      12.332   7.139  10.991  1.00  0.00    -0.343 OA
ENDROOT
BRANCH   1   2
HETATM    2  C   UNL     1      12.656   8.111  11.978  1.00  0.00     0.129 C 
HETATM    3  C   UNL     1      11.621   8.063  13.092  1.00  0.00     0.032 C 
HETATM    4  C   UNL     1      10.428   8.843  12.541  1.00  0.00     0.002 C 
HETATM    5  C   UNL     1      10.981   9.751  11.443  1.00  0.00     0.002 C 
HETATM    6  C   UNL     1      12.489   9.514  11.415  1.00  0.00     0.032 C 
ENDBRANCH   1   2
BRANCH   1   7
HETATM    7  C   UNL     1      13.104   7.129   9.859  1.00  0.00     0.103 A 
HETATM    8  C   UNL     1      14.487   7.226   9.982  1.00  0.00     0.047 A 
HETATM    9  C   UNL     1      15.284   7.217   8.837  1.00  0.00    -0.049 A 
HETATM   10  C   UNL     1      14.696   7.113   7.577  1.00  0.00     0.010 A 
HETATM   11  C   UNL     1      13.309   7.017   7.462  1.00  0.00     0.040 A 
HETATM   12  C   UNL     1      12.511   7.025   8.606  1.00  0.00     0.101 A 
BRANCH   9  13
HETATM   13  C   UNL     1      16.789   7.321   8.963  1.00  0.00     0.045 C 
HETATM   14  C   UNL     1      17.322   7.620  10.365  1.00  0.00     0.132 C 
HETATM   15  N   UNL     1      18.679   7.151  10.323  1.00  0.00    -0.360 N 
HETATM   16  C   UNL     1      18.893   6.229   9.307  1.00  0.00     0.218 C 
HETATM   17  H   UNL     1      19.380   7.450  10.946  1.00  0.00     0.162 HD
HETATM   18  O   UNL     1      19.925   5.627   9.058  1.00  0.00    -0.274 OA
HETATM   19  C   UNL     1      17.581   6.056   8.581  1.00  0.00     0.113 C 
ENDBRANCH   9  13
BRANCH  12  20
HETATM   20  O   UNL     1      11.158   6.931   8.481  1.00  0.00    -0.353 OA
HETATM   21  C   UNL     1      10.653   6.494   7.221  1.00  0.00     0.210 C 
ENDBRANCH  12  20
ENDBRANCH   1   7
TORSDOF 4
ENDMDL
MODEL 3
REMARK VINA RESULT:      -6.5      3.246      5.744
REMARK  4 active torsions:
REMARK  status: ('A' for Active; 'I' for Inactive)
REMARK    1  A    between atoms: O_1  and  C_5 
REMARK    2  A    between atoms: O_1  and  C_14 
REMARK    3  A    between atoms: O_2  and  C_18 
REMARK    4  A    between atoms: C_10  and  C_13 
ROOT
HETATM    1  O   UNL     1      14.524   6.675   8.696  1.00  0.00    -0.343 OA
ENDROOT
BRANCH   1   2
HETATM    2  C   UNL     1      15.478   7.722   8.571  1.00  0.00     0.129 C 
HETATM    3  C   UNL     1      16.455   7.385   7.455  1.00  0.00     0.032 C 
HETATM    4  C   UNL     1      17.438   6.402   8.089  1.00  0.00     0.002 C 
HETATM    5  C   UNL     1      17.359   6.632   9.598  1.00  0.00     0.002 C 
HETATM    6  C   UNL     1      16.369   7.776   9.803  1.00  0.00     0.032 C 
ENDBRANCH   1   2
BRANCH   1   7
HETATM    7  C   UNL     1      13.382   6.960   9.397  1.00  0.00     0.103 A 
HETATM    8  C   UNL     1      13.473   7.225  10.760  1.00  0.00     0.047 A 
HETATM    9  C   UNL     1      12.317   7.517  11.485  1.00  0.00    -0.049 A 
HETATM   10  C   UNL     1      11.078   7.539  10.845  1.00  0.00     0.010 A 
HETATM   11  C   UNL     1      10.995   7.272   9.479  1.00  0.00     0.040 A 
HETATM   12  C   UNL     1      12.150   6.981   8.752  1.00  0.00     0.101 A 
BRANCH   9  13
HETATM   13  C   UNL     1      12.408   7.808  12.968  1.00  0.00     0.045 C 
HETATM   14  C   UNL     1      11.088   8.142  13.664  1.00  0.00     0.132 C 
HETATM   15  N   UNL     1      11.346   7.849  15.045  1.00  0.00    -0.360 N 
HETATM   16  C   UNL     1      12.417   6.984  15.217  1.00  0.00     0.218 C 
HETATM   17  H   UNL     1      10.820   8.221  15.790  1.00  0.00     0.162 HD
HETATM   18  O   UNL     1      12.838   6.523  16.266  1.00  0.00    -0.274 OA
HETATM   19  C   UNL     1      12.951   6.661  13.842  1.00  0.00     0.113 C 
ENDBRANCH   9  13
BRANCH  12  20
HETATM   20  O   UNL     1      12.056   6.721   7.419  1.00  0.00    -0.353 OA
HETATM   21  C   UNL     1      10.777   6.332   6.924  1.00  0.00     0.210 C 
ENDBRANCH  12  20
ENDBRANCH   1   7
TORSDOF 4
ENDMDL
MODEL 4
REMARK VINA RESULT:      -6.5      3.149      6.885
REMARK  4 active torsions:
REMARK  status: ('A' for Active; 'I' for Inactive)
REMARK    1  A    between atoms: O_1  and  C_5 
REMARK    2  A    between atoms: O_1  and  C_14 
REMARK    3  A    between atoms: O_2  and  C_18 
REMARK    4  A    between atoms: C_10  and  C_13 
ROOT
HETATM    1  O   UNL     1      13.072   6.461   9.147  1.00  0.00    -0.343 OA
ENDROOT
BRANCH   1   2
HETATM    2  C   UNL     1      12.193   7.483   8.695  1.00  0.00     0.129 C 
HETATM    3  C   UNL     1      10.754   7.065   8.959  1.00  0.00     0.032 C 
HETATM    4  C   UNL     1      10.418   6.105   7.819  1.00  0.00     0.002 C 
HETATM    5  C   UNL     1      11.396   6.425   6.688  1.00  0.00     0.002 C 
HETATM    6  C   UNL     1      12.245   7.595   7.179  1.00  0.00     0.032 C 
ENDBRANCH   1   2
BRANCH   1   7
HETATM    7  C   UNL     1      13.923   6.787  10.169  1.00  0.00     0.103 A 
HETATM    8  C   UNL     1      13.408   6.957  11.451  1.00  0.00     0.047 A 
HETATM    9  C   UNL     1      14.265   7.290  12.501  1.00  0.00    -0.049 A 
HETATM   10  C   UNL     1      15.630   7.452  12.263  1.00  0.00     0.010 A 
HETATM   11  C   UNL     1      16.139   7.281  10.977  1.00  0.00     0.040 A 
HETATM   12  C   UNL     1      15.283   6.947   9.926  1.00  0.00     0.101 A 
BRANCH   9  13
HETATM   13  C   UNL     1      13.712   7.475  13.898  1.00  0.00     0.045 C 
HETATM   14  C   UNL     1      12.193   7.621  14.000  1.00  0.00     0.132 C 
HETATM   15  N   UNL     1      11.905   7.252  15.357  1.00  0.00    -0.360 N 
HETATM   16  C   UNL     1      12.913   6.489  15.929  1.00  0.00     0.218 C 
HETATM   17  H   UNL     1      11.082   7.512  15.831  1.00  0.00     0.162 HD
HETATM   18  O   UNL     1      12.928   5.994  17.044  1.00  0.00    -0.274 OA
HETATM   19  C   UNL     1      13.992   6.326  14.885  1.00  0.00     0.113 C 
ENDBRANCH   9  13
BRANCH  12  20
HETATM   20  O   UNL     1      15.792   6.783   8.673  1.00  0.00    -0.353 OA
HETATM   21  C   UNL     1      17.175   6.454   8.574  1.00  0.00     0.210 C 
ENDBRANCH  12  20
ENDBRANCH   1   7
TORSDOF 4
ENDMDL
MODEL 5
REMARK VINA RESULT:      -6.5      3.538      6.703
REMARK  4 active torsions:
REMARK  status: ('A' for Active; 'I' for Inactive)
REMARK    1  A    between atoms: O_1  and  C_5 
REMARK    2  A    between atoms: O_1  and  C_14 
REMARK    3  A    between atoms: O_2  and  C_18 
REMARK    4  A    between atoms: C_10  and  C_13 
ROOT
HETATM    1  O   UNL     1      13.333   9.207  10.209  1.00  0.00    -0.343 OA
ENDROOT
BRANCH   1   2
HETATM    2  C   UNL     1      12.751   8.714  11.409  1.00  0.00     0.129 C 
HETATM    3  C   UNL     1      11.487   7.936  11.075  1.00  0.00     0.032 C 
HETATM    4  C   UNL     1      10.422   9.011  10.857  1.00  0.00     0.002 C 
HETATM    5  C   UNL     1      10.916  10.258  11.590  1.00  0.00     0.002 C 
HETATM    6  C   UNL     1      12.232   9.865  12.257  1.00  0.00     0.032 C 
ENDBRANCH   1   2
BRANCH   1   7
HETATM    7  C   UNL     1      14.296   8.426   9.625  1.00  0.00     0.103 A 
HETATM    8  C   UNL     1      15.439   8.104  10.351  1.00  0.00     0.047 A 
HETATM    9  C   UNL     1      16.427   7.312   9.767  1.00  0.00    -0.049 A 
HETATM   10  C   UNL     1      16.269   6.847   8.462  1.00  0.00     0.010 A 
HETATM   11  C   UNL     1      15.122   7.174   7.740  1.00  0.00     0.040 A 
HETATM   12  C   UNL     1      14.132   7.967   8.322  1.00  0.00     0.101 A 
BRANCH   9  13
HETATM   13  C   UNL     1      17.672   6.956  10.551  1.00  0.00     0.045 C 
HETATM   14  C   UNL     1      18.982   6.968   9.763  1.00  0.00     0.132 C 
HETATM   15  N   UNL     1      19.988   7.132  10.774  1.00  0.00    -0.360 N 
HETATM   16  C   UNL     1      19.481   7.667  11.950  1.00  0.00     0.218 C 
HETATM   17  H   UNL     1      20.934   6.891  10.648  1.00  0.00     0.162 HD
HETATM   18  O   UNL     1      20.101   7.961  12.960  1.00  0.00    -0.274 OA
HETATM   19  C   UNL     1      18.002   7.881  11.738  1.00  0.00     0.113 C 
ENDBRANCH   9  13
BRANCH  12  20
HETATM   20  O   UNL     1      13.016   8.281   7.607  1.00  0.00    -0.353 OA
HETATM   21  C   UNL     1      12.051   7.247   7.426  1.00  0.00     0.210 C 
ENDBRANCH  12  20
ENDBRANCH   1   7
TORSDOF 4
ENDMDL
MODEL 6
REMARK VINA RESULT:      -6.2      3.309      7.216
REMARK  4 active torsions:
REMARK  status: ('A' for Active; 'I' for Inactive)
REMARK    1  A    between atoms: O_1  and  C_5 
REMARK    2  A    between atoms: O_1  and  C_14 
REMARK    3  A    between atoms: O_2  and  C_18 
REMARK    4  A    between atoms: C_10  and  C_13 
ROOT
HETATM    1  O   UNL     1      13.066   6.507   9.327  1.00  0.00    -0.343 OA
ENDROOT
BRANCH   1   2
HETATM    2  C   UNL     1      12.152   7.502   8.883  1.00  0.00     0.129 C 
HETATM    3  C   UNL     1      10.728   7.018   9.112  1.00  0.00     0.032 C 
HETATM    4  C   UNL     1      10.452   6.072   7.945  1.00  0.00     0.002 C 
HETATM    5  C   UNL     1      11.435   6.459   6.840  1.00  0.00     0.002 C 
HETATM    6  C   UNL     1      12.225   7.652   7.372  1.00  0.00     0.032 C 
ENDBRANCH   1   2
BRANCH   1   7
HETATM    7  C   UNL     1      14.162   6.944  10.024  1.00  0.00     0.103 A 
HETATM    8  C   UNL     1      14.026   7.256  11.374  1.00  0.00     0.047 A 
HETATM    9  C   UNL     1      15.135   7.702  12.094  1.00  0.00    -0.049 A 
HETATM   10  C   UNL     1      16.371   7.835  11.462  1.00  0.00     0.010 A 
HETATM   11  C   UNL     1      16.499   7.521  10.109  1.00  0.00     0.040 A 
HETATM   12  C   UNL     1      15.392   7.074   9.388  1.00  0.00     0.101 A 
BRANCH   9  13
HETATM   13  C   UNL     1      14.995   8.042  13.562  1.00  0.00     0.045 C 
HETATM   14  C   UNL     1      13.972   7.216  14.344  1.00  0.00     0.132 C 
HETATM   15  N   UNL     1      14.401   7.343  15.708  1.00  0.00    -0.360 N 
HETATM   16  C   UNL     1      15.734   7.713  15.817  1.00  0.00     0.218 C 
HETATM   17  H   UNL     1      13.814   7.184  16.482  1.00  0.00     0.162 HD
HETATM   18  O   UNL     1      16.385   7.851  16.840  1.00  0.00    -0.274 OA
HETATM   19  C   UNL     1      16.268   7.866  14.413  1.00  0.00     0.113 C 
ENDBRANCH   9  13
BRANCH  12  20
HETATM   20  O   UNL     1      15.529   6.772   8.067  1.00  0.00    -0.353 OA
HETATM   21  C   UNL     1      16.399   7.601   7.300  1.00  0.00     0.210 C 
ENDBRANCH  12  20
ENDBRANCH   1   7
TORSDOF 4
ENDMDL
MODEL 7
REMARK VINA RESULT:      -6.2      2.487      3.393
REMARK  4 active torsions:
REMARK  status: ('A' for Active; 'I' for Inactive)
REMARK    1  A    between atoms: O_1  and  C_5 
REMARK    2  A    between atoms: O_1  and  C_14 
REMARK    3  A    between atoms: O_2  and  C_18 
REMARK    4  A    between atoms: C_10  and  C_13 
ROOT
HETATM    1  O   UNL     1      15.659   8.126  13.833  1.00  0.00    -0.343 OA
ENDROOT
BRANCH   1   2
HETATM    2  C   UNL     1      17.006   7.678  13.746  1.00  0.00     0.129 C 
HETATM    3  C   UNL     1      17.468   7.199  15.114  1.00  0.00     0.032 C 
HETATM    4  C   UNL     1      17.815   8.479  15.872  1.00  0.00     0.002 C 
HETATM    5  C   UNL     1      18.084   9.545  14.810  1.00  0.00     0.002 C 
HETATM    6  C   UNL     1      17.935   8.848  13.460  1.00  0.00     0.032 C 
ENDBRANCH   1   2
BRANCH   1   7
HETATM    7  C   UNL     1      14.738   7.463  13.065  1.00  0.00     0.103 A 
HETATM    8  C   UNL     1      14.596   7.812  11.725  1.00  0.00     0.047 A 
HETATM    9  C   UNL     1      13.661   7.145  10.933  1.00  0.00    -0.049 A 
HETATM   10  C   UNL     1      12.873   6.135  11.485  1.00  0.00     0.010 A 
HETATM   11  C   UNL     1      13.019   5.791  12.828  1.00  0.00     0.040 A 
HETATM   12  C   UNL     1      13.954   6.457  13.621  1.00  0.00     0.101 A 
BRANCH   9  13
HETATM   13  C   UNL     1      13.503   7.518   9.475  1.00  0.00     0.045 C 
HETATM   14  C   UNL     1      14.676   7.157   8.563  1.00  0.00     0.132 C 
HETATM   15  N   UNL     1      14.090   7.112   7.253  1.00  0.00    -0.360 N 
HETATM   16  C   UNL     1      12.714   6.936   7.289  1.00  0.00     0.218 C 
HETATM   17  H   UNL     1      14.608   7.197   6.420  1.00  0.00     0.162 HD
HETATM   18  O   UNL     1      11.956   6.814   6.340  1.00  0.00    -0.274 OA
HETATM   19  C   UNL     1      12.314   6.864   8.743  1.00  0.00     0.113 C 
ENDBRANCH   9  13
BRANCH  12  20
HETATM   20  O   UNL     1      14.088   6.113  14.932  1.00  0.00    -0.353 OA
HETATM   21  C   UNL     1      13.052   6.528  15.819  1.00  0.00     0.210 C 
ENDBRANCH  12  20
ENDBRANCH   1   7
TORSDOF 4
ENDMDL
MODEL 8
REMARK VINA RESULT:      -6.2      2.542      3.830
REMARK  4 active torsions:
REMARK  status: ('A' for Active; 'I' for Inactive)
REMARK    1  A    between atoms: O_1  and  C_5 
REMARK    2  A    between atoms: O_1  and  C_14 
REMARK    3  A    between atoms: O_2  and  C_18 
REMARK    4  A    between atoms: C_10  and  C_13 
ROOT
HETATM    1  O   UNL     1      16.950   7.400   9.850  1.00  0.00    -0.343 OA
ENDROOT
BRANCH   1   2
HETATM    2  C   UNL     1      17.411   6.366   8.989  1.00  0.00     0.129 C 
HETATM    3  C   UNL     1      18.036   5.257   9.821  1.00  0.00     0.032 C 
HETATM    4  C   UNL     1      19.436   5.769  10.154  1.00  0.00     0.002 C 
HETATM    5  C   UNL     1      19.769   6.821   9.095  1.00  0.00     0.002 C 
HETATM    6  C   UNL     1      18.575   6.860   8.145  1.00  0.00     0.032 C 
ENDBRANCH   1   2
BRANCH   1   7
HETATM    7  C   UNL     1      15.659   7.300  10.299  1.00  0.00     0.103 A 
HETATM    8  C   UNL     1      14.659   6.933   9.404  1.00  0.00     0.047 A 
HETATM    9  C   UNL     1      13.340   6.829   9.848  1.00  0.00    -0.049 A 
HETATM   10  C   UNL     1      13.029   7.094  11.181  1.00  0.00     0.010 A 
HETATM   11  C   UNL     1      14.037   7.463  12.072  1.00  0.00     0.040 A 
HETATM   12  C   UNL     1      15.356   7.567  11.630  1.00  0.00     0.101 A 
BRANCH   9  13
HETATM   13  C   UNL     1      12.247   6.428   8.881  1.00  0.00     0.045 C 
HETATM   14  C   UNL     1      10.824   6.820   9.284  1.00  0.00     0.132 C 
HETATM   15  N   UNL     1      10.105   6.822   8.041  1.00  0.00    -0.360 N 
HETATM   16  C   UNL     1      10.941   6.945   6.940  1.00  0.00     0.218 C 
HETATM   17  H   UNL     1       9.126   6.744   7.977  1.00  0.00     0.162 HD
HETATM   18  O   UNL     1      10.616   7.023   5.767  1.00  0.00    -0.274 OA
HETATM   19  C   UNL     1      12.355   7.023   7.464  1.00  0.00     0.113 C 
ENDBRANCH   9  13
BRANCH  12  20
HETATM   20  O   UNL     1      16.332   7.929  12.508  1.00  0.00    -0.353 OA
HETATM   21  C   UNL     1      16.994   6.879  13.209  1.00  0.00     0.210 C 
ENDBRANCH  12  20
ENDBRANCH   1   7
TORSDOF 4
ENDMDL
MODEL 9
REMARK VINA RESULT:      -6.2      3.420      6.240
REMARK  4 active torsions:
REMARK  status: ('A' for Active; 'I' for Inactive)
REMARK    1  A    between atoms: O_1  and  C_5 
REMARK    2  A    between atoms: O_1  and  C_14 
REMARK    3  A    between atoms: O_2  and  C_18 
REMARK    4  A    between atoms: C_10  and  C_13 
ROOT
HETATM    1  O   UNL     1      12.437   6.600  10.196  1.00  0.00    -0.343 OA
ENDROOT
BRANCH   1   2
HETATM    2  C   UNL     1      11.761   7.623   9.477  1.00  0.00     0.129 C 
HETATM    3  C   UNL     1      10.373   7.135   9.089  1.00  0.00     0.032 C 
HETATM    4  C   UNL     1      10.605   6.257   7.860  1.00  0.00     0.002 C 
HETATM    5  C   UNL     1      11.941   6.700   7.264  1.00  0.00     0.002 C 
HETATM    6  C   UNL     1      12.431   7.857   8.132  1.00  0.00     0.032 C 
ENDBRANCH   1   2
BRANCH   1   7
HETATM    7  C   UNL     1      13.697   6.893  10.648  1.00  0.00     0.103 A 
HETATM    8  C   UNL     1      14.797   6.499   9.891  1.00  0.00     0.047 A 
HETATM    9  C   UNL     1      16.085   6.790  10.340  1.00  0.00    -0.049 A 
HETATM   10  C   UNL     1      16.267   7.472  11.544  1.00  0.00     0.010 A 
HETATM   11  C   UNL     1      15.161   7.862  12.298  1.00  0.00     0.040 A 
HETATM   12  C   UNL     1      13.872   7.572  11.849  1.00  0.00     0.101 A 
BRANCH   9  13
HETATM   13  C   UNL     1      17.285   6.366   9.522  1.00  0.00     0.045 C 
HETATM   14  C   UNL     1      17.285   6.810   8.058  1.00  0.00     0.132 C 
HETATM   15  N   UNL     1      18.671   6.766   7.687  1.00  0.00    -0.360 N 
HETATM   16  C   UNL     1      19.520   6.816   8.784  1.00  0.00     0.218 C 
HETATM   17  H   UNL     1      18.985   6.708   6.756  1.00  0.00     0.162 HD
HETATM   18  O   UNL     1      20.739   6.842   8.777  1.00  0.00    -0.274 OA
HETATM   19  C   UNL     1      18.649   6.888  10.015  1.00  0.00     0.113 C 
ENDBRANCH   9  13
BRANCH  12  20
HETATM   20  O   UNL     1      12.799   7.958  12.594  1.00  0.00    -0.353 OA
HETATM   21  C   UNL     1      12.461   7.142  13.713  1.00  0.00     0.210 C 
ENDBRANCH  12  20
ENDBRANCH   1   7
TORSDOF 4
ENDMDL
