MODEL 1
REMARK VINA RESULT:      -6.9      0.000      0.000
REMARK  4 active torsions:
REMARK  status: ('A' for Active; 'I' for Inactive)
REMARK    1  A    between atoms: O_1  and  C_5 
REMARK    2  A    between atoms: O_1  and  C_14 
REMARK    3  A    between atoms: O_2  and  C_18 
REMARK    4  A    between atoms: C_10  and  C_13 
ROOT
HETATM    1  O   UNL     1      15.087   7.747  14.627  1.00  0.00    -0.343 OA
ENDROOT
BRANCH   1   2
HETATM    2  C   UNL     1      15.683   6.736  15.430  1.00  0.00     0.129 C 
HETATM    3  C   UNL     1      15.480   7.074  16.900  1.00  0.00     0.032 C 
HETATM    4  C   UNL     1      16.553   8.119  17.205  1.00  0.00     0.002 C 
HETATM    5  C   UNL     1      17.639   7.939  16.145  1.00  0.00     0.002 C 
HETATM    6  C   UNL     1      17.196   6.762  15.278  1.00  0.00     0.032 C 
ENDBRANCH   1   2
BRANCH   1   7
HETATM    7  C   UNL     1      14.098   7.348  13.767  1.00  0.00     0.103 A 
HETATM    8  C   UNL     1      14.314   6.238  12.955  1.00  0.00     0.047 A 
HETATM    9  C   UNL     1      13.315   5.823  12.075  1.00  0.00    -0.049 A 
HETATM   10  C   UNL     1      12.108   6.519  12.008  1.00  0.00     0.010 A 
HETATM   11  C   UNL     1      11.899   7.631  12.824  1.00  0.00     0.040 A 
HETATM   12  C   UNL     1      12.897   8.047  13.706  1.00  0.00     0.101 A 
BRANCH   9  13
HETATM   13  C   UNL     1      13.541   4.616  11.190  1.00  0.00     0.045 C 
HETATM   14  C   UNL     1      12.350   3.669  11.036  1.00  0.00     0.132 C 
HETATM   15  N   UNL     1      12.623   2.972   9.811  1.00  0.00    -0.360 N 
HETATM   16  C   UNL     1      13.516   3.654   8.996  1.00  0.00     0.218 C 
HETATM   17  H   UNL     1      12.220   2.105   9.574  1.00  0.00     0.162 HD
HETATM   18  O   UNL     1      13.897   3.333   7.882  1.00  0.00    -0.274 OA
HETATM   19  C   UNL     1      13.901   4.920   9.723  1.00  0.00     0.113 C 
ENDBRANCH   9  13
BRANCH  12  20
HETATM   20  O   UNL     1      12.682   9.135  14.497  1.00  0.00    -0.353 OA
HETATM   21  C   UNL     1      12.241  10.327  13.851  1.00  0.00     0.210 C 
ENDBRANCH  12  20
ENDBRANCH   1   7
TORSDOF 4
ENDMDL
MODEL 2
REMARK VINA RESULT:      -6.8      3.551      5.801
REMARK  4 active torsions:
REMARK  status: ('A' for Active; 'I' for Inactive)
REMARK    1  A    between atoms: O_1  and  C_5 
REMARK    2  A    between atoms: O_1  and  C_14 
REMARK    3  A    between atoms: O_2  and  C_18 
REMARK    4  A    between atoms: C_10  and  C_13 
ROOT
HETATM    1  O   UNL     1      13.941   5.732  13.597  1.00  0.00    -0.343 OA
ENDROOT
BRANCH   1   2
HETATM    2  C   UNL     1      13.865   6.932  14.357  1.00  0.00     0.129 C 
HETATM    3  C   UNL     1      12.642   6.882  15.260  1.00  0.00     0.032 C 
HETATM    4  C   UNL     1      11.474   7.245  14.344  1.00  0.00     0.002 C 
HETATM    5  C   UNL     1      12.077   8.010  13.167  1.00  0.00     0.002 C 
HETATM    6  C   UNL     1      13.573   8.116  13.449  1.00  0.00     0.032 C 
ENDBRANCH   1   2
BRANCH   1   7
HETATM    7  C   UNL     1      14.880   5.691  12.601  1.00  0.00     0.103 A 
HETATM    8  C   UNL     1      16.191   6.055  12.890  1.00  0.00     0.047 A 
HETATM    9  C   UNL     1      17.157   6.019  11.884  1.00  0.00    -0.049 A 
HETATM   10  C   UNL     1      16.806   5.620  10.594  1.00  0.00     0.010 A 
HETATM   11  C   UNL     1      15.490   5.257  10.311  1.00  0.00     0.040 A 
HETATM   12  C   UNL     1      14.523   5.293  11.316  1.00  0.00     0.101 A 
BRANCH   9  13
HETATM   13  C   UNL     1      18.585   6.412  12.192  1.00  0.00     0.045 C 
HETATM   14  C   UNL     1      18.820   7.054  13.560  1.00  0.00     0.132 C 
HETATM   15  N   UNL     1      20.218   6.836  13.804  1.00  0.00    -0.360 N 
HETATM   16  C   UNL     1      20.738   5.798  13.044  1.00  0.00     0.218 C 
HETATM   17  H   UNL     1      20.750   7.365  14.442  1.00  0.00     0.162 HD
HETATM   18  O   UNL     1      21.875   5.355  13.071  1.00  0.00    -0.274 OA
HETATM   19  C   UNL     1      19.610   5.261  12.196  1.00  0.00     0.113 C 
ENDBRANCH   9  13
BRANCH  12  20
HETATM   20  O   UNL     1      13.241   4.937  11.028  1.00  0.00    -0.353 OA
HETATM   21  C   UNL     1      13.042   4.094   9.895  1.00  0.00     0.210 C 
ENDBRANCH  12  20
ENDBRANCH   1   7
TORSDOF 4
ENDMDL
MODEL 3
REMARK VINA RESULT:      -6.5      3.163      6.913
REMARK  4 active torsions:
REMARK  status: ('A' for Active; 'I' for Inactive)
REMARK    1  A    between atoms: O_1  and  C_5 
REMARK    2  A    between atoms: O_1  and  C_14 
REMARK    3  A    between atoms: O_2  and  C_18 
REMARK    4  A    between atoms: C_10  and  C_13 
ROOT
HETATM    1  O   UNL     1      15.065   4.916  11.964  1.00  0.00    -0.343 OA
ENDROOT
BRANCH   1   2
HETATM    2  C   UNL     1      14.098   5.653  11.227  1.00  0.00     0.129 C 
HETATM    3  C   UNL     1      12.743   4.973  11.352  1.00  0.00     0.032 C 
HETATM    4  C   UNL     1      12.800   3.817  10.355  1.00  0.00     0.002 C 
HETATM    5  C   UNL     1      13.878   4.184   9.336  1.00  0.00     0.002 C 
HETATM    6  C   UNL     1      14.389   5.566   9.737  1.00  0.00     0.032 C 
ENDBRANCH   1   2
BRANCH   1   7
HETATM    7  C   UNL     1      15.647   5.554  13.029  1.00  0.00     0.103 A 
HETATM    8  C   UNL     1      14.875   5.840  14.151  1.00  0.00     0.047 A 
HETATM    9  C   UNL     1      15.454   6.490  15.241  1.00  0.00    -0.049 A 
HETATM   10  C   UNL     1      16.801   6.852  15.202  1.00  0.00     0.010 A 
HETATM   11  C   UNL     1      17.568   6.564  14.074  1.00  0.00     0.040 A 
HETATM   12  C   UNL     1      16.990   5.913  12.984  1.00  0.00     0.101 A 
BRANCH   9  13
HETATM   13  C   UNL     1      14.622   6.802  16.465  1.00  0.00     0.045 C 
HETATM   14  C   UNL     1      13.109   6.643  16.302  1.00  0.00     0.132 C 
HETATM   15  N   UNL     1      12.636   6.471  17.646  1.00  0.00    -0.360 N 
HETATM   16  C   UNL     1      13.634   6.050  18.514  1.00  0.00     0.218 C 
HETATM   17  H   UNL     1      11.705   6.633  17.923  1.00  0.00     0.162 HD
HETATM   18  O   UNL     1      13.521   5.777  19.698  1.00  0.00    -0.274 OA
HETATM   19  C   UNL     1      14.904   5.933  17.706  1.00  0.00     0.113 C 
ENDBRANCH   9  13
BRANCH  12  20
HETATM   20  O   UNL     1      17.749   5.637  11.887  1.00  0.00    -0.353 OA
HETATM   21  C   UNL     1      19.163   5.623  12.066  1.00  0.00     0.210 C 
ENDBRANCH  12  20
ENDBRANCH   1   7
TORSDOF 4
ENDMDL
MODEL 4
REMARK VINA RESULT:      -6.4      3.599      6.707
REMARK  4 active torsions:
REMARK  status: ('A' for Active; 'I' for Inactive)
REMARK    1  A    between atoms: O_1  and  C_5 
REMARK    2  A    between atoms: O_1  and  C_14 
REMARK    3  A    between atoms: O_2  and  C_18 
REMARK    4  A    between atoms: C_10  and  C_13 
ROOT
HETATM    1  O   UNL     1      14.604   7.615  12.297  1.00  0.00    -0.343 OA
ENDROOT
BRANCH   1   2
HETATM    2  C   UNL     1      13.943   7.249  13.501  1.00  0.00     0.129 C 
HETATM    3  C   UNL     1      12.834   6.256  13.188  1.00  0.00     0.032 C 
HETATM    4  C   UNL     1      11.681   7.118  12.675  1.00  0.00     0.002 C 
HETATM    5  C   UNL     1      11.925   8.526  13.219  1.00  0.00     0.002 C 
HETATM    6  C   UNL     1      13.188   8.438  14.073  1.00  0.00     0.032 C 
ENDBRANCH   1   2
BRANCH   1   7
HETATM    7  C   UNL     1      15.800   7.000  12.038  1.00  0.00     0.103 A 
HETATM    8  C   UNL     1      16.809   7.050  12.996  1.00  0.00     0.047 A 
HETATM    9  C   UNL     1      18.032   6.428  12.743  1.00  0.00    -0.049 A 
HETATM   10  C   UNL     1      18.241   5.762  11.536  1.00  0.00     0.010 A 
HETATM   11  C   UNL     1      17.226   5.717  10.580  1.00  0.00     0.040 A 
HETATM   12  C   UNL     1      16.002   6.338  10.831  1.00  0.00     0.101 A 
BRANCH   9  13
HETATM   13  C   UNL     1      19.133   6.477  13.781  1.00  0.00     0.045 C 
HETATM   14  C   UNL     1      20.555   6.619  13.238  1.00  0.00     0.132 C 
HETATM   15  N   UNL     1      21.292   7.159  14.345  1.00  0.00    -0.360 N 
HETATM   16  C   UNL     1      20.474   7.776  15.281  1.00  0.00     0.218 C 
HETATM   17  H   UNL     1      22.271   7.098  14.432  1.00  0.00     0.162 HD
HETATM   18  O   UNL     1      20.817   8.362  16.295  1.00  0.00    -0.274 OA
HETATM   19  C   UNL     1      19.054   7.642  14.785  1.00  0.00     0.113 C 
ENDBRANCH   9  13
BRANCH  12  20
HETATM   20  O   UNL     1      15.019   6.288   9.890  1.00  0.00    -0.353 OA
HETATM   21  C   UNL     1      14.226   5.104   9.845  1.00  0.00     0.210 C 
ENDBRANCH  12  20
ENDBRANCH   1   7
TORSDOF 4
ENDMDL
MODEL 5
REMARK VINA RESULT:      -6.2      2.666      3.858
REMARK  4 active torsions:
REMARK  status: ('A' for Active; 'I' for Inactive)
REMARK    1  A    between atoms: O_1  and  C_5 
REMARK    2  A    between atoms: O_1  and  C_14 
REMARK    3  A    between atoms: O_2  and  C_18 
REMARK    4  A    between atoms: C_10  and  C_13 
ROOT
HETATM    1  O   UNL     1      18.540   6.482  13.283  1.00  0.00    -0.343 OA
ENDROOT
BRANCH   1   2
HETATM    2  C   UNL     1      19.231   5.530  12.485  1.00  0.00     0.129 C 
HETATM    3  C   UNL     1      20.156   4.707  13.369  1.00  0.00     0.032 C 
HETATM    4  C   UNL     1      21.379   5.598  13.581  1.00  0.00     0.002 C 
HETATM    5  C   UNL     1      21.386   6.596  12.423  1.00  0.00     0.002 C 
HETATM    6  C   UNL     1      20.195   6.231  11.540  1.00  0.00     0.032 C 
ENDBRANCH   1   2
BRANCH   1   7
HETATM    7  C   UNL     1      17.190   6.300  13.430  1.00  0.00     0.103 A 
HETATM    8  C   UNL     1      16.489   5.609  12.446  1.00  0.00     0.047 A 
HETATM    9  C   UNL     1      15.114   5.418  12.583  1.00  0.00    -0.049 A 
HETATM   10  C   UNL     1      14.447   5.919  13.702  1.00  0.00     0.010 A 
HETATM   11  C   UNL     1      15.156   6.610  14.683  1.00  0.00     0.040 A 
HETATM   12  C   UNL     1      16.531   6.802  14.547  1.00  0.00     0.101 A 
BRANCH   9  13
HETATM   13  C   UNL     1      14.345   4.666  11.518  1.00  0.00     0.045 C 
HETATM   14  C   UNL     1      12.826   4.629  11.693  1.00  0.00     0.132 C 
HETATM   15  N   UNL     1      12.335   4.362  10.371  1.00  0.00    -0.360 N 
HETATM   16  C   UNL     1      13.257   4.685   9.384  1.00  0.00     0.218 C 
HETATM   17  H   UNL     1      11.443   3.991  10.184  1.00  0.00     0.162 HD
HETATM   18  O   UNL     1      13.105   4.612   8.175  1.00  0.00    -0.274 OA
HETATM   19  C   UNL     1      14.489   5.207  10.082  1.00  0.00     0.113 C 
ENDBRANCH   9  13
BRANCH  12  20
HETATM   20  O   UNL     1      17.213   7.480  15.512  1.00  0.00    -0.353 OA
HETATM   21  C   UNL     1      16.472   7.897  16.657  1.00  0.00     0.210 C 
ENDBRANCH  12  20
ENDBRANCH   1   7
TORSDOF 4
ENDMDL
MODEL 6
REMARK VINA RESULT:      -6.2      2.541      3.444
REMARK  4 active torsions:
REMARK  status: ('A' for Active; 'I' for Inactive)
REMARK    1  A    between atoms: O_1  and  C_5 
REMARK    2  A    between atoms: O_1  and  C_14 
REMARK    3  A    between atoms: O_2  and  C_18 
REMARK    4  A    between atoms: C_10  and  C_13 
ROOT
HETATM    1  O   UNL     1      16.463   7.836  16.509  1.00  0.00    -0.343 OA
ENDROOT
BRANCH   1   2
HETATM    2  C   UNL     1      17.850   7.628  16.740  1.00  0.00     0.129 C 
HETATM    3  C   UNL     1      18.109   7.565  18.238  1.00  0.00     0.032 C 
HETATM    4  C   UNL     1      18.131   9.026  18.685  1.00  0.00     0.002 C 
HETATM    5  C   UNL     1      18.446   9.850  17.438  1.00  0.00     0.002 C 
HETATM    6  C   UNL     1      18.649   8.847  16.305  1.00  0.00     0.032 C 
ENDBRANCH   1   2
BRANCH   1   7
HETATM    7  C   UNL     1      15.812   6.886  15.767  1.00  0.00     0.103 A 
HETATM    8  C   UNL     1      15.856   6.964  14.378  1.00  0.00     0.047 A 
HETATM    9  C   UNL     1      15.196   6.004  13.611  1.00  0.00    -0.049 A 
HETATM   10  C   UNL     1      14.494   4.973  14.236  1.00  0.00     0.010 A 
HETATM   11  C   UNL     1      14.453   4.902  15.628  1.00  0.00     0.040 A 
HETATM   12  C   UNL     1      15.113   5.861  16.396  1.00  0.00     0.101 A 
BRANCH   9  13
HETATM   13  C   UNL     1      15.242   6.081  12.100  1.00  0.00     0.045 C 
HETATM   14  C   UNL     1      16.601   5.798  11.459  1.00  0.00     0.132 C 
HETATM   15  N   UNL     1      16.272   5.416  10.114  1.00  0.00    -0.360 N 
HETATM   16  C   UNL     1      14.958   4.989   9.987  1.00  0.00     0.218 C 
HETATM   17  H   UNL     1      16.909   5.452   9.365  1.00  0.00     0.162 HD
HETATM   18  O   UNL     1      14.410   4.561   8.984  1.00  0.00    -0.274 OA
HETATM   19  C   UNL     1      14.323   5.095  11.353  1.00  0.00     0.113 C 
ENDBRANCH   9  13
BRANCH  12  20
HETATM   20  O   UNL     1      15.065   5.782  17.755  1.00  0.00    -0.353 OA
HETATM   21  C   UNL     1      13.836   6.143  18.381  1.00  0.00     0.210 C 
ENDBRANCH  12  20
ENDBRANCH   1   7
TORSDOF 4
ENDMDL
MODEL 7
REMARK VINA RESULT:      -6.2      3.500      6.323
REMARK  4 active torsions:
REMARK  status: ('A' for Active; 'I' for Inactive)
REMARK    1  A    between atoms: O_1  and  C_5 
REMARK    2  A    between atoms: O_1  and  C_14 
REMARK    3  A    between atoms: O_2  and  C_18 
REMARK    4  A    between atoms: C_10  and  C_13 
ROOT
HETATM    1  O   UNL     1      14.276   5.046  12.651  1.00  0.00    -0.343 OA
ENDROOT
BRANCH   1   2
HETATM    2  C   UNL     1      13.586   5.791  11.656  1.00  0.00     0.129 C 
HETATM    3  C   UNL     1      12.342   5.028  11.226  1.00  0.00     0.032 C 
HETATM    4  C   UNL     1      12.858   3.971  10.250  1.00  0.00     0.002 C 
HETATM    5  C   UNL     1      14.199   4.488   9.730  1.00  0.00     0.002 C 
HETATM    6  C   UNL     1      14.408   5.855  10.378  1.00  0.00     0.032 C 
ENDBRANCH   1   2
BRANCH   1   7
HETATM    7  C   UNL     1      15.338   5.663  13.258  1.00  0.00     0.103 A 
HETATM    8  C   UNL     1      16.627   5.387  12.812  1.00  0.00     0.047 A 
HETATM    9  C   UNL     1      17.717   6.008  13.422  1.00  0.00    -0.049 A 
HETATM   10  C   UNL     1      17.513   6.899  14.475  1.00  0.00     0.010 A 
HETATM   11  C   UNL     1      16.219   7.170  14.918  1.00  0.00     0.040 A 
HETATM   12  C   UNL     1      15.128   6.550  14.308  1.00  0.00     0.101 A 
BRANCH   9  13
HETATM   13  C   UNL     1      19.122   5.714  12.941  1.00  0.00     0.045 C 
HETATM   14  C   UNL     1      19.362   5.887  11.440  1.00  0.00     0.132 C 
HETATM   15  N   UNL     1      20.782   6.075  11.341  1.00  0.00    -0.360 N 
HETATM   16  C   UNL     1      21.350   6.493  12.536  1.00  0.00     0.218 C 
HETATM   17  H   UNL     1      21.297   5.925  10.515  1.00  0.00     0.162 HD
HETATM   18  O   UNL     1      22.519   6.778  12.743  1.00  0.00    -0.274 OA
HETATM   19  C   UNL     1      20.234   6.591  13.547  1.00  0.00     0.113 C 
ENDBRANCH   9  13
BRANCH  12  20
HETATM   20  O   UNL     1      13.869   6.822  14.750  1.00  0.00    -0.353 OA
HETATM   21  C   UNL     1      13.484   6.253  16.000  1.00  0.00     0.210 C 
ENDBRANCH  12  20
ENDBRANCH   1   7
TORSDOF 4
ENDMDL
MODEL 8
REMARK VINA RESULT:      -6.2      2.137      3.189
REMARK  4 active torsions:
REMARK  status: ('A' for Active; 'I' for Inactive)
REMARK    1  A    between atoms: O_1  and  C_5 
REMARK    2  A    between atoms: O_1  and  C_14 
REMARK    3  A    between atoms: O_2  and  C_18 
REMARK    4  A    between atoms: C_10  and  C_13 
ROOT
HETATM    1  O   UNL     1      15.039   6.798  15.879  1.00  0.00    -0.343 OA
ENDROOT
BRANCH   1   2
HETATM    2  C   UNL     1      14.744   5.678  16.704  1.00  0.00     0.129 C 
HETATM    3  C   UNL     1      13.940   6.138  17.911  1.00  0.00     0.032 C 
HETATM    4  C   UNL     1      14.981   6.721  18.866  1.00  0.00     0.002 C 
HETATM    5  C   UNL     1      16.319   6.097  18.471  1.00  0.00     0.002 C 
HETATM    6  C   UNL     1      16.018   5.130  17.328  1.00  0.00     0.032 C 
ENDBRANCH   1   2
BRANCH   1   7
HETATM    7  C   UNL     1      15.549   6.531  14.635  1.00  0.00     0.103 A 
HETATM    8  C   UNL     1      14.788   5.790  13.736  1.00  0.00     0.047 A 
HETATM    9  C   UNL     1      15.296   5.511  12.467  1.00  0.00    -0.049 A 
HETATM   10  C   UNL     1      16.563   5.971  12.106  1.00  0.00     0.010 A 
HETATM   11  C   UNL     1      17.320   6.711  13.012  1.00  0.00     0.040 A 
HETATM   12  C   UNL     1      16.813   6.992  14.281  1.00  0.00     0.101 A 
BRANCH   9  13
HETATM   13  C   UNL     1      14.474   4.707  11.483  1.00  0.00     0.045 C 
HETATM   14  C   UNL     1      12.963   4.710  11.718  1.00  0.00     0.132 C 
HETATM   15  N   UNL     1      12.416   4.369  10.435  1.00  0.00    -0.360 N 
HETATM   16  C   UNL     1      13.303   4.610   9.395  1.00  0.00     0.218 C 
HETATM   17  H   UNL     1      11.511   4.004  10.307  1.00  0.00     0.162 HD
HETATM   18  O   UNL     1      13.103   4.463   8.201  1.00  0.00    -0.274 OA
HETATM   19  C   UNL     1      14.570   5.152  10.011  1.00  0.00     0.113 C 
ENDBRANCH   9  13
BRANCH  12  20
HETATM   20  O   UNL     1      17.562   7.715  15.159  1.00  0.00    -0.353 OA
HETATM   21  C   UNL     1      18.712   7.076  15.708  1.00  0.00     0.210 C 
ENDBRANCH  12  20
ENDBRANCH   1   7
TORSDOF 4
ENDMDL
MODEL 9
REMARK VINA RESULT:      -6.0      3.086      4.722
REMARK  4 active torsions:
REMARK  status: ('A' for Active; 'I' for Inactive)
REMARK    1  A    between atoms: O_1  and  C_5 
REMARK    2  A    between atoms: O_1  and  C_14 
REMARK    3  A    between atoms: O_2  and  C_18 
REMARK    4  A    between atoms: C_10  and  C_13 
ROOT
HETATM    1  O   UNL     1      17.898   5.514  15.540  1.00  0.00    -0.343 OA
ENDROOT
BRANCH   1   2
HETATM    2  C   UNL     1      16.875   4.725  16.134  1.00  0.00     0.129 C 
HETATM    3  C   UNL     1      16.334   5.441  17.362  1.00  0.00     0.032 C 
HETATM    4  C   UNL     1      17.360   5.154  18.458  1.00  0.00     0.002 C 
HETATM    5  C   UNL     1      18.104   3.891  18.025  1.00  0.00     0.002 C 
HETATM    6  C   UNL     1      17.461   3.447  16.713  1.00  0.00     0.032 C 
ENDBRANCH   1   2
BRANCH   1   7
HETATM    7  C   UNL     1      17.878   5.624  14.175  1.00  0.00     0.103 A 
HETATM    8  C   UNL     1      16.652   5.678  13.518  1.00  0.00     0.047 A 
HETATM    9  C   UNL     1      16.617   5.789  12.128  1.00  0.00    -0.049 A 
HETATM   10  C   UNL     1      17.807   5.844  11.402  1.00  0.00     0.010 A 
HETATM   11  C   UNL     1      19.032   5.789  12.066  1.00  0.00     0.040 A 
HETATM   12  C   UNL     1      19.068   5.679  13.457  1.00  0.00     0.101 A 
BRANCH   9  13
HETATM   13  C   UNL     1      15.288   5.849  11.406  1.00  0.00     0.045 C 
HETATM   14  C   UNL     1      15.228   5.128  10.059  1.00  0.00     0.132 C 
HETATM   15  N   UNL     1      13.827   4.881   9.866  1.00  0.00    -0.360 N 
HETATM   16  C   UNL     1      13.109   4.919  11.053  1.00  0.00     0.218 C 
HETATM   17  H   UNL     1      13.419   4.703   8.987  1.00  0.00     0.162 HD
HETATM   18  O   UNL     1      11.918   4.702  11.207  1.00  0.00    -0.274 OA
HETATM   19  C   UNL     1      14.092   5.230  12.155  1.00  0.00     0.113 C 
ENDBRANCH   9  13
BRANCH  12  20
HETATM   20  O   UNL     1      20.270   5.625  14.095  1.00  0.00    -0.353 OA
HETATM   21  C   UNL     1      21.139   6.744  13.934  1.00  0.00     0.210 C 
ENDBRANCH  12  20
ENDBRANCH   1   7
TORSDOF 4
ENDMDL
