MODEL 1
REMARK VINA RESULT:      -6.9      0.000      0.000
REMARK  4 active torsions:
REMARK  status: ('A' for Active; 'I' for Inactive)
REMARK    1  A    between atoms: O_1  and  C_5 
REMARK    2  A    between atoms: O_1  and  C_14 
REMARK    3  A    between atoms: O_2  and  C_18 
REMARK    4  A    between atoms: C_10  and  C_13 
ROOT
HETATM    1  O   UNL     1      15.146   7.795  14.595  1.00  0.00    -0.343 OA
ENDROOT
BRANCH   1   2
HETATM    2  C   UNL     1      15.736   6.792  15.412  1.00  0.00     0.129 C 
HETATM    3  C   UNL     1      15.610   7.193  16.874  1.00  0.00     0.032 C 
HETATM    4  C   UNL     1      16.734   8.204  17.093  1.00  0.00     0.002 C 
HETATM    5  C   UNL     1      17.766   7.940  15.997  1.00  0.00     0.002 C 
HETATM    6  C   UNL     1      17.241   6.751  15.196  1.00  0.00     0.032 C 
ENDBRANCH   1   2
BRANCH   1   7
HETATM    7  C   UNL     1      14.146   7.393  13.749  1.00  0.00     0.103 A 
HETATM    8  C   UNL     1      14.350   6.278  12.941  1.00  0.00     0.047 A 
HETATM    9  C   UNL     1      13.340   5.859  12.075  1.00  0.00    -0.049 A 
HETATM   10  C   UNL     1      12.133   6.556  12.020  1.00  0.00     0.010 A 
HETATM   11  C   UNL     1      11.936   7.673  12.832  1.00  0.00     0.040 A 
HETATM   12  C   UNL     1      12.945   8.093  13.699  1.00  0.00     0.101 A 
BRANCH   9  13
HETATM   13  C   UNL     1      13.554   4.646  11.195  1.00  0.00     0.045 C 
HETATM   14  C   UNL     1      12.355   3.708  11.049  1.00  0.00     0.132 C 
HETATM   15  N   UNL     1      12.618   3.005   9.825  1.00  0.00    -0.360 N 
HETATM   16  C   UNL     1      13.514   3.676   9.005  1.00  0.00     0.218 C 
HETATM   17  H   UNL     1      12.208   2.140   9.593  1.00  0.00     0.162 HD
HETATM   18  O   UNL     1      13.889   3.348   7.891  1.00  0.00    -0.274 OA
HETATM   19  C   UNL     1      13.911   4.942   9.725  1.00  0.00     0.113 C 
ENDBRANCH   9  13
BRANCH  12  20
HETATM   20  O   UNL     1      12.742   9.185  14.486  1.00  0.00    -0.353 OA
HETATM   21  C   UNL     1      12.336  10.386  13.834  1.00  0.00     0.210 C 
ENDBRANCH  12  20
ENDBRANCH   1   7
TORSDOF 4
ENDMDL
MODEL 2
REMARK VINA RESULT:      -6.8      3.524      5.805
REMARK  4 active torsions:
REMARK  status: ('A' for Active; 'I' for Inactive)
REMARK    1  A    between atoms: O_1  and  C_5 
REMARK    2  A    between atoms: O_1  and  C_14 
REMARK    3  A    between atoms: O_2  and  C_18 
REMARK    4  A    between atoms: C_10  and  C_13 
ROOT
HETATM    1  O   UNL     1      13.937   5.722  13.600  1.00  0.00    -0.343 OA
ENDROOT
BRANCH   1   2
HETATM    2  C   UNL     1      13.867   6.914  14.373  1.00  0.00     0.129 C 
HETATM    3  C   UNL     1      12.647   6.857  15.279  1.00  0.00     0.032 C 
HETATM    4  C   UNL     1      11.477   7.233  14.371  1.00  0.00     0.002 C 
HETATM    5  C   UNL     1      12.078   8.010  13.199  1.00  0.00     0.002 C 
HETATM    6  C   UNL     1      13.576   8.108  13.478  1.00  0.00     0.032 C 
ENDBRANCH   1   2
BRANCH   1   7
HETATM    7  C   UNL     1      14.875   5.688  12.602  1.00  0.00     0.103 A 
HETATM    8  C   UNL     1      16.186   6.054  12.891  1.00  0.00     0.047 A 
HETATM    9  C   UNL     1      17.149   6.025  11.882  1.00  0.00    -0.049 A 
HETATM   10  C   UNL     1      16.797   5.631  10.591  1.00  0.00     0.010 A 
HETATM   11  C   UNL     1      15.481   5.267  10.308  1.00  0.00     0.040 A 
HETATM   12  C   UNL     1      14.517   5.295  11.316  1.00  0.00     0.101 A 
BRANCH   9  13
HETATM   13  C   UNL     1      18.578   6.420  12.190  1.00  0.00     0.045 C 
HETATM   14  C   UNL     1      18.812   7.063  13.558  1.00  0.00     0.132 C 
HETATM   15  N   UNL     1      20.210   6.847  13.802  1.00  0.00    -0.360 N 
HETATM   16  C   UNL     1      20.731   5.809  13.042  1.00  0.00     0.218 C 
HETATM   17  H   UNL     1      20.742   7.377  14.439  1.00  0.00     0.162 HD
HETATM   18  O   UNL     1      21.868   5.367  13.069  1.00  0.00    -0.274 OA
HETATM   19  C   UNL     1      19.603   5.270  12.195  1.00  0.00     0.113 C 
ENDBRANCH   9  13
BRANCH  12  20
HETATM   20  O   UNL     1      13.234   4.938  11.028  1.00  0.00    -0.353 OA
HETATM   21  C   UNL     1      13.036   4.098   9.893  1.00  0.00     0.210 C 
ENDBRANCH  12  20
ENDBRANCH   1   7
TORSDOF 4
ENDMDL
MODEL 3
REMARK VINA RESULT:      -6.6      3.188      6.888
REMARK  4 active torsions:
REMARK  status: ('A' for Active; 'I' for Inactive)
REMARK    1  A    between atoms: O_1  and  C_5 
REMARK    2  A    between atoms: O_1  and  C_14 
REMARK    3  A    between atoms: O_2  and  C_18 
REMARK    4  A    between atoms: C_10  and  C_13 
ROOT
HETATM    1  O   UNL     1      14.859   4.788  11.887  1.00  0.00    -0.343 OA
ENDROOT
BRANCH   1   2
HETATM    2  C   UNL     1      13.904   5.491  11.103  1.00  0.00     0.129 C 
HETATM    3  C   UNL     1      12.580   4.742  11.129  1.00  0.00     0.032 C 
HETATM    4  C   UNL     1      12.758   3.611  10.117  1.00  0.00     0.002 C 
HETATM    5  C   UNL     1      13.878   4.053   9.176  1.00  0.00     0.002 C 
HETATM    6  C   UNL     1      14.292   5.450   9.633  1.00  0.00     0.032 C 
ENDBRANCH   1   2
BRANCH   1   7
HETATM    7  C   UNL     1      15.462   5.488  12.899  1.00  0.00     0.103 A 
HETATM    8  C   UNL     1      14.733   5.775  14.050  1.00  0.00     0.047 A 
HETATM    9  C   UNL     1      15.335   6.488  15.087  1.00  0.00    -0.049 A 
HETATM   10  C   UNL     1      16.659   6.911  14.969  1.00  0.00     0.010 A 
HETATM   11  C   UNL     1      17.382   6.621  13.812  1.00  0.00     0.040 A 
HETATM   12  C   UNL     1      16.782   5.907  12.774  1.00  0.00     0.101 A 
BRANCH   9  13
HETATM   13  C   UNL     1      14.550   6.803  16.343  1.00  0.00     0.045 C 
HETATM   14  C   UNL     1      13.030   6.675  16.229  1.00  0.00     0.132 C 
HETATM   15  N   UNL     1      12.599   6.496  17.587  1.00  0.00    -0.360 N 
HETATM   16  C   UNL     1      13.617   6.047  18.416  1.00  0.00     0.218 C 
HETATM   17  H   UNL     1      11.681   6.673  17.896  1.00  0.00     0.162 HD
HETATM   18  O   UNL     1      13.539   5.762  19.600  1.00  0.00    -0.274 OA
HETATM   19  C   UNL     1      14.856   5.914  17.564  1.00  0.00     0.113 C 
ENDBRANCH   9  13
BRANCH  12  20
HETATM   20  O   UNL     1      17.498   5.630  11.649  1.00  0.00    -0.353 OA
HETATM   21  C   UNL     1      18.919   5.652  11.764  1.00  0.00     0.210 C 
ENDBRANCH  12  20
ENDBRANCH   1   7
TORSDOF 4
ENDMDL
MODEL 4
REMARK VINA RESULT:      -6.5      3.042      5.662
REMARK  4 active torsions:
REMARK  status: ('A' for Active; 'I' for Inactive)
REMARK    1  A    between atoms: O_1  and  C_5 
REMARK    2  A    between atoms: O_1  and  C_14 
REMARK    3  A    between atoms: O_2  and  C_18 
REMARK    4  A    between atoms: C_10  and  C_13 
ROOT
HETATM    1  O   UNL     1      16.347   5.185  10.751  1.00  0.00    -0.343 OA
ENDROOT
BRANCH   1   2
HETATM    2  C   UNL     1      16.935   6.472  10.889  1.00  0.00     0.129 C 
HETATM    3  C   UNL     1      18.333   6.457  10.289  1.00  0.00     0.032 C 
HETATM    4  C   UNL     1      19.204   5.810  11.364  1.00  0.00     0.002 C 
HETATM    5  C   UNL     1      18.458   5.991  12.686  1.00  0.00     0.002 C 
HETATM    6  C   UNL     1      17.194   6.781  12.355  1.00  0.00     0.032 C 
ENDBRANCH   1   2
BRANCH   1   7
HETATM    7  C   UNL     1      15.067   5.037  11.217  1.00  0.00     0.103 A 
HETATM    8  C   UNL     1      14.815   5.225  12.573  1.00  0.00     0.047 A 
HETATM    9  C   UNL     1      13.517   5.076  13.061  1.00  0.00    -0.049 A 
HETATM   10  C   UNL     1      12.479   4.740  12.192  1.00  0.00     0.010 A 
HETATM   11  C   UNL     1      12.739   4.553  10.835  1.00  0.00     0.040 A 
HETATM   12  C   UNL     1      14.037   4.701  10.346  1.00  0.00     0.101 A 
BRANCH   9  13
HETATM   13  C   UNL     1      13.235   5.280  14.534  1.00  0.00     0.045 C 
HETATM   14  C   UNL     1      13.368   4.038  15.417  1.00  0.00     0.132 C 
HETATM   15  N   UNL     1      13.579   4.574  16.732  1.00  0.00    -0.360 N 
HETATM   16  C   UNL     1      14.042   5.882  16.707  1.00  0.00     0.218 C 
HETATM   17  H   UNL     1      13.415   4.069  17.561  1.00  0.00     0.162 HD
HETATM   18  O   UNL     1      14.353   6.577  17.661  1.00  0.00    -0.274 OA
HETATM   19  C   UNL     1      14.149   6.288  15.257  1.00  0.00     0.113 C 
ENDBRANCH   9  13
BRANCH  12  20
HETATM   20  O   UNL     1      14.279   4.515   9.018  1.00  0.00    -0.353 OA
HETATM   21  C   UNL     1      13.558   3.470   8.369  1.00  0.00     0.210 C 
ENDBRANCH  12  20
ENDBRANCH   1   7
TORSDOF 4
ENDMDL
MODEL 5
REMARK VINA RESULT:      -6.4      3.559      6.700
REMARK  4 active torsions:
REMARK  status: ('A' for Active; 'I' for Inactive)
REMARK    1  A    between atoms: O_1  and  C_5 
REMARK    2  A    between atoms: O_1  and  C_14 
REMARK    3  A    between atoms: O_2  and  C_18 
REMARK    4  A    between atoms: C_10  and  C_13 
ROOT
HETATM    1  O   UNL     1      14.611   7.614  12.305  1.00  0.00    -0.343 OA
ENDROOT
BRANCH   1   2
HETATM    2  C   UNL     1      13.952   7.248  13.511  1.00  0.00     0.129 C 
HETATM    3  C   UNL     1      12.849   6.247  13.199  1.00  0.00     0.032 C 
HETATM    4  C   UNL     1      11.691   7.102  12.684  1.00  0.00     0.002 C 
HETATM    5  C   UNL     1      11.927   8.512  13.224  1.00  0.00     0.002 C 
HETATM    6  C   UNL     1      13.189   8.434  14.080  1.00  0.00     0.032 C 
ENDBRANCH   1   2
BRANCH   1   7
HETATM    7  C   UNL     1      15.804   6.994  12.041  1.00  0.00     0.103 A 
HETATM    8  C   UNL     1      16.816   7.038  12.995  1.00  0.00     0.047 A 
HETATM    9  C   UNL     1      18.035   6.412  12.738  1.00  0.00    -0.049 A 
HETATM   10  C   UNL     1      18.237   5.746  11.529  1.00  0.00     0.010 A 
HETATM   11  C   UNL     1      17.219   5.707  10.577  1.00  0.00     0.040 A 
HETATM   12  C   UNL     1      15.998   6.332  10.833  1.00  0.00     0.101 A 
BRANCH   9  13
HETATM   13  C   UNL     1      19.140   6.454  13.771  1.00  0.00     0.045 C 
HETATM   14  C   UNL     1      20.561   6.603  13.223  1.00  0.00     0.132 C 
HETATM   15  N   UNL     1      21.301   7.135  14.332  1.00  0.00    -0.360 N 
HETATM   16  C   UNL     1      20.486   7.744  15.276  1.00  0.00     0.218 C 
HETATM   17  H   UNL     1      22.280   7.075  14.414  1.00  0.00     0.162 HD
HETATM   18  O   UNL     1      20.832   8.323  16.293  1.00  0.00    -0.274 OA
HETATM   19  C   UNL     1      19.064   7.612  14.785  1.00  0.00     0.113 C 
ENDBRANCH   9  13
BRANCH  12  20
HETATM   20  O   UNL     1      15.011   6.288   9.896  1.00  0.00    -0.353 OA
HETATM   21  C   UNL     1      14.219   5.104   9.846  1.00  0.00     0.210 C 
ENDBRANCH  12  20
ENDBRANCH   1   7
TORSDOF 4
ENDMDL
MODEL 6
REMARK VINA RESULT:      -6.2      3.391      6.174
REMARK  4 active torsions:
REMARK  status: ('A' for Active; 'I' for Inactive)
REMARK    1  A    between atoms: O_1  and  C_5 
REMARK    2  A    between atoms: O_1  and  C_14 
REMARK    3  A    between atoms: O_2  and  C_18 
REMARK    4  A    between atoms: C_10  and  C_13 
ROOT
HETATM    1  O   UNL     1      14.104   5.152  12.901  1.00  0.00    -0.343 OA
ENDROOT
BRANCH   1   2
HETATM    2  C   UNL     1      13.444   5.885  11.877  1.00  0.00     0.129 C 
HETATM    3  C   UNL     1      12.296   5.054  11.321  1.00  0.00     0.032 C 
HETATM    4  C   UNL     1      12.965   4.074  10.357  1.00  0.00     0.002 C 
HETATM    5  C   UNL     1      14.302   4.703   9.967  1.00  0.00     0.002 C 
HETATM    6  C   UNL     1      14.358   6.055  10.674  1.00  0.00     0.032 C 
ENDBRANCH   1   2
BRANCH   1   7
HETATM    7  C   UNL     1      15.206   5.738  13.467  1.00  0.00     0.103 A 
HETATM    8  C   UNL     1      16.467   5.434  12.964  1.00  0.00     0.047 A 
HETATM    9  C   UNL     1      17.597   6.024  13.531  1.00  0.00    -0.049 A 
HETATM   10  C   UNL     1      17.460   6.911  14.599  1.00  0.00     0.010 A 
HETATM   11  C   UNL     1      16.193   7.210  15.098  1.00  0.00     0.040 A 
HETATM   12  C   UNL     1      15.062   6.622  14.531  1.00  0.00     0.101 A 
BRANCH   9  13
HETATM   13  C   UNL     1      18.972   5.699  12.988  1.00  0.00     0.045 C 
HETATM   14  C   UNL     1      19.127   5.787  11.469  1.00  0.00     0.132 C 
HETATM   15  N   UNL     1      20.539   5.966  11.279  1.00  0.00    -0.360 N 
HETATM   16  C   UNL     1      21.174   6.449  12.415  1.00  0.00     0.218 C 
HETATM   17  H   UNL     1      21.006   5.768  10.436  1.00  0.00     0.162 HD
HETATM   18  O   UNL     1      22.352   6.741  12.539  1.00  0.00    -0.274 OA
HETATM   19  C   UNL     1      20.117   6.606  13.481  1.00  0.00     0.113 C 
ENDBRANCH   9  13
BRANCH  12  20
HETATM   20  O   UNL     1      13.830   6.921  15.028  1.00  0.00    -0.353 OA
HETATM   21  C   UNL     1      13.430   6.244  16.217  1.00  0.00     0.210 C 
ENDBRANCH  12  20
ENDBRANCH   1   7
TORSDOF 4
ENDMDL
MODEL 7
REMARK VINA RESULT:      -6.1      3.355      7.259
REMARK  4 active torsions:
REMARK  status: ('A' for Active; 'I' for Inactive)
REMARK    1  A    between atoms: O_1  and  C_5 
REMARK    2  A    between atoms: O_1  and  C_14 
REMARK    3  A    between atoms: O_2  and  C_18 
REMARK    4  A    between atoms: C_10  and  C_13 
ROOT
HETATM    1  O   UNL     1      15.132   5.065  12.198  1.00  0.00    -0.343 OA
ENDROOT
BRANCH   1   2
HETATM    2  C   UNL     1      14.151   5.804  11.482  1.00  0.00     0.129 C 
HETATM    3  C   UNL     1      12.810   5.090  11.581  1.00  0.00     0.032 C 
HETATM    4  C   UNL     1      12.896   3.970  10.545  1.00  0.00     0.002 C 
HETATM    5  C   UNL     1      13.969   4.394   9.543  1.00  0.00     0.002 C 
HETATM    6  C   UNL     1      14.447   5.773   9.991  1.00  0.00     0.032 C 
ENDBRANCH   1   2
BRANCH   1   7
HETATM    7  C   UNL     1      16.004   5.785  12.971  1.00  0.00     0.103 A 
HETATM    8  C   UNL     1      15.560   6.314  14.179  1.00  0.00     0.047 A 
HETATM    9  C   UNL     1      16.438   7.050  14.975  1.00  0.00    -0.049 A 
HETATM   10  C   UNL     1      17.753   7.255  14.559  1.00  0.00     0.010 A 
HETATM   11  C   UNL     1      18.191   6.723  13.347  1.00  0.00     0.040 A 
HETATM   12  C   UNL     1      17.315   5.986  12.550  1.00  0.00     0.101 A 
BRANCH   9  13
HETATM   13  C   UNL     1      15.962   7.627  16.292  1.00  0.00     0.045 C 
HETATM   14  C   UNL     1      14.930   6.792  17.051  1.00  0.00     0.132 C 
HETATM   15  N   UNL     1      15.056   7.245  18.408  1.00  0.00    -0.360 N 
HETATM   16  C   UNL     1      16.275   7.859  18.655  1.00  0.00     0.218 C 
HETATM   17  H   UNL     1      14.354   7.131  19.089  1.00  0.00     0.162 HD
HETATM   18  O   UNL     1      16.683   8.298  19.718  1.00  0.00    -0.274 OA
HETATM   19  C   UNL     1      17.052   7.841  17.360  1.00  0.00     0.113 C 
ENDBRANCH   9  13
BRANCH  12  20
HETATM   20  O   UNL     1      17.753   5.472  11.367  1.00  0.00    -0.353 OA
HETATM   21  C   UNL     1      18.257   6.398  10.407  1.00  0.00     0.210 C 
ENDBRANCH  12  20
ENDBRANCH   1   7
TORSDOF 4
ENDMDL
MODEL 8
REMARK VINA RESULT:      -6.1      2.573      3.470
REMARK  4 active torsions:
REMARK  status: ('A' for Active; 'I' for Inactive)
REMARK    1  A    between atoms: O_1  and  C_5 
REMARK    2  A    between atoms: O_1  and  C_14 
REMARK    3  A    between atoms: O_2  and  C_18 
REMARK    4  A    between atoms: C_10  and  C_13 
ROOT
HETATM    1  O   UNL     1      16.639   7.917  16.447  1.00  0.00    -0.343 OA
ENDROOT
BRANCH   1   2
HETATM    2  C   UNL     1      17.986   7.623  16.794  1.00  0.00     0.129 C 
HETATM    3  C   UNL     1      18.229   8.007  18.246  1.00  0.00     0.032 C 
HETATM    4  C   UNL     1      18.439   9.520  18.213  1.00  0.00     0.002 C 
HETATM    5  C   UNL     1      18.865   9.861  16.786  1.00  0.00     0.002 C 
HETATM    6  C   UNL     1      18.939   8.534  16.035  1.00  0.00     0.032 C 
ENDBRANCH   1   2
BRANCH   1   7
HETATM    7  C   UNL     1      15.965   6.964  15.729  1.00  0.00     0.103 A 
HETATM    8  C   UNL     1      15.992   7.020  14.339  1.00  0.00     0.047 A 
HETATM    9  C   UNL     1      15.309   6.056  13.596  1.00  0.00    -0.049 A 
HETATM   10  C   UNL     1      14.603   5.044  14.246  1.00  0.00     0.010 A 
HETATM   11  C   UNL     1      14.580   4.995  15.639  1.00  0.00     0.040 A 
HETATM   12  C   UNL     1      15.263   5.957  16.384  1.00  0.00     0.101 A 
BRANCH   9  13
HETATM   13  C   UNL     1      15.334   6.109  12.083  1.00  0.00     0.045 C 
HETATM   14  C   UNL     1      16.683   5.808  11.428  1.00  0.00     0.132 C 
HETATM   15  N   UNL     1      16.333   5.407  10.095  1.00  0.00    -0.360 N 
HETATM   16  C   UNL     1      15.014   4.987   9.992  1.00  0.00     0.218 C 
HETATM   17  H   UNL     1      16.960   5.427   9.336  1.00  0.00     0.162 HD
HETATM   18  O   UNL     1      14.450   4.548   9.002  1.00  0.00    -0.274 OA
HETATM   19  C   UNL     1      14.399   5.119  11.364  1.00  0.00     0.113 C 
ENDBRANCH   9  13
BRANCH  12  20
HETATM   20  O   UNL     1      15.233   5.900  17.744  1.00  0.00    -0.353 OA
HETATM   21  C   UNL     1      13.989   6.192  18.377  1.00  0.00     0.210 C 
ENDBRANCH  12  20
ENDBRANCH   1   7
TORSDOF 4
ENDMDL
MODEL 9
REMARK VINA RESULT:      -6.1      2.782      4.433
REMARK  4 active torsions:
REMARK  status: ('A' for Active; 'I' for Inactive)
REMARK    1  A    between atoms: O_1  and  C_5 
REMARK    2  A    between atoms: O_1  and  C_14 
REMARK    3  A    between atoms: O_2  and  C_18 
REMARK    4  A    between atoms: C_10  and  C_13 
ROOT
HETATM    1  O   UNL     1      18.039   7.824  14.622  1.00  0.00    -0.343 OA
ENDROOT
BRANCH   1   2
HETATM    2  C   UNL     1      17.729   7.101  15.807  1.00  0.00     0.129 C 
HETATM    3  C   UNL     1      16.639   7.833  16.575  1.00  0.00     0.032 C 
HETATM    4  C   UNL     1      17.374   8.956  17.307  1.00  0.00     0.002 C 
HETATM    5  C   UNL     1      18.835   8.518  17.404  1.00  0.00     0.002 C 
HETATM    6  C   UNL     1      18.906   7.131  16.769  1.00  0.00     0.032 C 
ENDBRANCH   1   2
BRANCH   1   7
HETATM    7  C   UNL     1      17.911   7.148  13.437  1.00  0.00     0.103 A 
HETATM    8  C   UNL     1      16.645   6.992  12.880  1.00  0.00     0.047 A 
HETATM    9  C   UNL     1      16.502   6.305  11.674  1.00  0.00    -0.049 A 
HETATM   10  C   UNL     1      17.623   5.779  11.032  1.00  0.00     0.010 A 
HETATM   11  C   UNL     1      18.888   5.939  11.597  1.00  0.00     0.040 A 
HETATM   12  C   UNL     1      19.033   6.625  12.803  1.00  0.00     0.101 A 
BRANCH   9  13
HETATM   13  C   UNL     1      15.129   6.132  11.061  1.00  0.00     0.045 C 
HETATM   14  C   UNL     1      15.023   5.088   9.948  1.00  0.00     0.132 C 
HETATM   15  N   UNL     1      13.627   4.751   9.928  1.00  0.00    -0.360 N 
HETATM   16  C   UNL     1      12.984   5.068  11.116  1.00  0.00     0.218 C 
HETATM   17  H   UNL     1      13.176   4.340   9.156  1.00  0.00     0.162 HD
HETATM   18  O   UNL     1      11.818   4.856  11.408  1.00  0.00    -0.274 OA
HETATM   19  C   UNL     1      14.016   5.685  12.028  1.00  0.00     0.113 C 
ENDBRANCH   9  13
BRANCH  12  20
HETATM   20  O   UNL     1      20.274   6.775  13.345  1.00  0.00    -0.353 OA
HETATM   21  C   UNL     1      21.382   6.369  12.546  1.00  0.00     0.210 C 
ENDBRANCH  12  20
ENDBRANCH   1   7
TORSDOF 4
ENDMDL
