MODEL 1
REMARK VINA RESULT:      -5.5      0.000      0.000
REMARK  2 active torsions:
REMARK  status: ('A' for Active; 'I' for Inactive)
REMARK    1  A    between atoms: C_3  and  C_4 
REMARK    2  A    between atoms: C_4  and  C_6 
ROOT
ATOM      1  O   UNL A   1     -54.441  51.492   8.364  1.00  0.00    -0.648 OA
ATOM      2  O   UNL A   1     -53.809  51.438  10.559  1.00  0.00    -0.648 OA
ATOM      3  C   UNL A   1     -54.172  50.926   9.460  1.00  0.00     0.172 C 
ENDROOT
BRANCH   3   4
ATOM      4  C   UNL A   1     -54.315  49.401   9.493  1.00  0.00     0.113 C 
BRANCH   4   5
ATOM      5  C   UNL A   1     -55.737  48.851   9.496  1.00  0.00     0.006 C 
ATOM      6  C   UNL A   1     -55.845  47.510   8.786  1.00  0.00     0.005 C 
ENDBRANCH   4   5
ENDBRANCH   3   4
TORSDOF 2
ENDMDL
MODEL 2
REMARK VINA RESULT:      -5.5      0.036      1.319
REMARK  2 active torsions:
REMARK  status: ('A' for Active; 'I' for Inactive)
REMARK    1  A    between atoms: C_3  and  C_4 
REMARK    2  A    between atoms: C_4  and  C_6 
ROOT
ATOM      1  O   UNL A   1     -53.815  51.482  10.582  1.00  0.00    -0.648 OA
ATOM      2  O   UNL A   1     -54.451  51.492   8.388  1.00  0.00    -0.648 OA
ATOM      3  C   UNL A   1     -54.180  50.949   9.498  1.00  0.00     0.172 C 
ENDROOT
BRANCH   3   4
ATOM      4  C   UNL A   1     -54.302  49.421   9.498  1.00  0.00     0.113 C 
BRANCH   4   5
ATOM      5  C   UNL A   1     -55.716  48.851   9.509  1.00  0.00     0.006 C 
ATOM      6  C   UNL A   1     -55.815  47.522   8.775  1.00  0.00     0.005 C 
ENDBRANCH   4   5
ENDBRANCH   3   4
TORSDOF 2
ENDMDL
MODEL 3
REMARK VINA RESULT:      -5.2      1.033      1.987
REMARK  2 active torsions:
REMARK  status: ('A' for Active; 'I' for Inactive)
REMARK    1  A    between atoms: C_3  and  C_4 
REMARK    2  A    between atoms: C_4  and  C_6 
ROOT
ATOM      1  O   UNL A   1     -53.983  51.036  10.519  1.00  0.00    -0.648 OA
ATOM      2  O   UNL A   1     -54.482  51.499   8.338  1.00  0.00    -0.648 OA
ATOM      3  C   UNL A   1     -54.450  50.776   9.376  1.00  0.00     0.172 C 
ENDROOT
BRANCH   3   4
ATOM      4  C   UNL A   1     -55.055  49.380   9.188  1.00  0.00     0.113 C 
BRANCH   4   5
ATOM      5  C   UNL A   1     -54.178  48.199   9.590  1.00  0.00     0.006 C 
ATOM      6  C   UNL A   1     -52.826  48.214   8.891  1.00  0.00     0.005 C 
ENDBRANCH   4   5
ENDBRANCH   3   4
TORSDOF 2
ENDMDL
MODEL 4
REMARK VINA RESULT:      -4.9      1.642      1.997
REMARK  2 active torsions:
REMARK  status: ('A' for Active; 'I' for Inactive)
REMARK    1  A    between atoms: C_3  and  C_4 
REMARK    2  A    between atoms: C_4  and  C_6 
ROOT
ATOM      1  O   UNL A   1     -53.295  48.610   8.306  1.00  0.00    -0.648 OA
ATOM      2  O   UNL A   1     -53.558  49.617  10.340  1.00  0.00    -0.648 OA
ATOM      3  C   UNL A   1     -53.957  49.009   9.304  1.00  0.00     0.172 C 
ENDROOT
BRANCH   3   4
ATOM      4  C   UNL A   1     -55.466  48.747   9.269  1.00  0.00     0.113 C 
BRANCH   4   5
ATOM      5  C   UNL A   1     -55.904  47.345   8.862  1.00  0.00     0.006 C 
ATOM      6  C   UNL A   1     -57.396  47.121   9.058  1.00  0.00     0.005 C 
ENDBRANCH   4   5
ENDBRANCH   3   4
TORSDOF 2
ENDMDL
MODEL 5
REMARK VINA RESULT:      -4.9      2.249      3.283
REMARK  2 active torsions:
REMARK  status: ('A' for Active; 'I' for Inactive)
REMARK    1  A    between atoms: C_3  and  C_4 
REMARK    2  A    between atoms: C_4  and  C_6 
ROOT
ATOM      1  O   UNL A   1     -53.666  48.522   8.461  1.00  0.00    -0.648 OA
ATOM      2  O   UNL A   1     -53.161  48.411  10.686  1.00  0.00    -0.648 OA
ATOM      3  C   UNL A   1     -53.725  48.899   9.664  1.00  0.00     0.172 C 
ENDROOT
BRANCH   3   4
ATOM      4  C   UNL A   1     -54.583  50.136   9.948  1.00  0.00     0.113 C 
BRANCH   4   5
ATOM      5  C   UNL A   1     -54.179  51.423   9.238  1.00  0.00     0.006 C 
ATOM      6  C   UNL A   1     -53.862  52.550  10.211  1.00  0.00     0.005 C 
ENDBRANCH   4   5
ENDBRANCH   3   4
TORSDOF 2
ENDMDL
MODEL 6
REMARK VINA RESULT:      -4.9      1.748      2.399
REMARK  2 active torsions:
REMARK  status: ('A' for Active; 'I' for Inactive)
REMARK    1  A    between atoms: C_3  and  C_4 
REMARK    2  A    between atoms: C_4  and  C_6 
ROOT
ATOM      1  O   UNL A   1     -53.572  49.395  10.443  1.00  0.00    -0.648 OA
ATOM      2  O   UNL A   1     -53.314  48.553   8.335  1.00  0.00    -0.648 OA
ATOM      3  C   UNL A   1     -53.980  48.925   9.344  1.00  0.00     0.172 C 
ENDROOT
BRANCH   3   4
ATOM      4  C   UNL A   1     -55.495  48.754   9.197  1.00  0.00     0.113 C 
BRANCH   4   5
ATOM      5  C   UNL A   1     -55.991  47.359   8.836  1.00  0.00     0.006 C 
ATOM      6  C   UNL A   1     -57.481  47.185   9.095  1.00  0.00     0.005 C 
ENDBRANCH   4   5
ENDBRANCH   3   4
TORSDOF 2
ENDMDL
MODEL 7
REMARK VINA RESULT:      -4.8      2.578      3.328
REMARK  2 active torsions:
REMARK  status: ('A' for Active; 'I' for Inactive)
REMARK    1  A    between atoms: C_3  and  C_4 
REMARK    2  A    between atoms: C_4  and  C_6 
ROOT
ATOM      1  O   UNL A   1     -52.431  48.531   8.012  1.00  0.00    -0.648 OA
ATOM      2  O   UNL A   1     -53.981  47.012   8.726  1.00  0.00    -0.648 OA
ATOM      3  C   UNL A   1     -53.312  48.084   8.798  1.00  0.00     0.172 C 
ENDROOT
BRANCH   3   4
ATOM      4  C   UNL A   1     -53.619  48.936  10.033  1.00  0.00     0.113 C 
BRANCH   4   5
ATOM      5  C   UNL A   1     -54.700  49.999   9.875  1.00  0.00     0.006 C 
ATOM      6  C   UNL A   1     -54.146  51.322   9.364  1.00  0.00     0.005 C 
ENDBRANCH   4   5
ENDBRANCH   3   4
TORSDOF 2
ENDMDL
MODEL 8
REMARK VINA RESULT:      -4.6      3.762      4.662
REMARK  2 active torsions:
REMARK  status: ('A' for Active; 'I' for Inactive)
REMARK    1  A    between atoms: C_3  and  C_4 
REMARK    2  A    between atoms: C_4  and  C_6 
ROOT
ATOM      1  O   UNL A   1     -54.948  45.632   7.828  1.00  0.00    -0.648 OA
ATOM      2  O   UNL A   1     -57.038  45.284   8.681  1.00  0.00    -0.648 OA
ATOM      3  C   UNL A   1     -56.020  45.979   8.397  1.00  0.00     0.172 C 
ENDROOT
BRANCH   3   4
ATOM      4  C   UNL A   1     -56.117  47.445   8.831  1.00  0.00     0.113 C 
BRANCH   4   5
ATOM      5  C   UNL A   1     -54.800  48.163   9.102  1.00  0.00     0.006 C 
ATOM      6  C   UNL A   1     -54.989  49.653   9.351  1.00  0.00     0.005 C 
ENDBRANCH   4   5
ENDBRANCH   3   4
TORSDOF 2
ENDMDL
MODEL 9
REMARK VINA RESULT:      -4.5      3.938      4.716
REMARK  2 active torsions:
REMARK  status: ('A' for Active; 'I' for Inactive)
REMARK    1  A    between atoms: C_3  and  C_4 
REMARK    2  A    between atoms: C_4  and  C_6 
ROOT
ATOM      1  O   UNL A   1     -56.787  45.406   8.638  1.00  0.00    -0.648 OA
ATOM      2  O   UNL A   1     -54.793  45.257   7.533  1.00  0.00    -0.648 OA
ATOM      3  C   UNL A   1     -55.605  45.755   8.366  1.00  0.00     0.172 C 
ENDROOT
BRANCH   3   4
ATOM      4  C   UNL A   1     -55.059  46.965   9.130  1.00  0.00     0.113 C 
BRANCH   4   5
ATOM      5  C   UNL A   1     -55.643  48.324   8.761  1.00  0.00     0.006 C 
ATOM      6  C   UNL A   1     -55.048  49.457   9.583  1.00  0.00     0.005 C 
ENDBRANCH   4   5
ENDBRANCH   3   4
TORSDOF 2
ENDMDL
