MODEL 1
REMARK VINA RESULT:      -5.5      0.000      0.000
REMARK  2 active torsions:
REMARK  status: ('A' for Active; 'I' for Inactive)
REMARK    1  A    between atoms: C_3  and  C_4 
REMARK    2  A    between atoms: C_4  and  C_6 
ROOT
ATOM      1  O   UNL A   1     -54.406  51.534   8.348  1.00  0.00    -0.648 OA
ATOM      2  O   UNL A   1     -53.904  51.254  10.559  1.00  0.00    -0.648 OA
ATOM      3  C   UNL A   1     -54.216  50.859   9.398  1.00  0.00     0.172 C 
ENDROOT
BRANCH   3   4
ATOM      4  C   UNL A   1     -54.404  49.343   9.278  1.00  0.00     0.113 C 
BRANCH   4   5
ATOM      5  C   UNL A   1     -55.802  48.806   9.561  1.00  0.00     0.006 C 
ATOM      6  C   UNL A   1     -56.068  47.479   8.864  1.00  0.00     0.005 C 
ENDBRANCH   4   5
ENDBRANCH   3   4
TORSDOF 2
ENDMDL
MODEL 2
REMARK VINA RESULT:      -5.5      0.056      1.320
REMARK  2 active torsions:
REMARK  status: ('A' for Active; 'I' for Inactive)
REMARK    1  A    between atoms: C_3  and  C_4 
REMARK    2  A    between atoms: C_4  and  C_6 
ROOT
ATOM      1  O   UNL A   1     -53.931  51.237  10.568  1.00  0.00    -0.648 OA
ATOM      2  O   UNL A   1     -54.473  51.509   8.366  1.00  0.00    -0.648 OA
ATOM      3  C   UNL A   1     -54.264  50.838   9.418  1.00  0.00     0.172 C 
ENDROOT
BRANCH   3   4
ATOM      4  C   UNL A   1     -54.427  49.325   9.243  1.00  0.00     0.113 C 
BRANCH   4   5
ATOM      5  C   UNL A   1     -55.807  48.750   9.544  1.00  0.00     0.006 C 
ATOM      6  C   UNL A   1     -56.056  47.430   8.829  1.00  0.00     0.005 C 
ENDBRANCH   4   5
ENDBRANCH   3   4
TORSDOF 2
ENDMDL
MODEL 3
REMARK VINA RESULT:      -4.9      1.877      2.308
REMARK  2 active torsions:
REMARK  status: ('A' for Active; 'I' for Inactive)
REMARK    1  A    between atoms: C_3  and  C_4 
REMARK    2  A    between atoms: C_4  and  C_6 
ROOT
ATOM      1  O   UNL A   1     -53.266  48.785  10.534  1.00  0.00    -0.648 OA
ATOM      2  O   UNL A   1     -52.988  48.612   8.273  1.00  0.00    -0.648 OA
ATOM      3  C   UNL A   1     -53.632  48.876   9.329  1.00  0.00     0.172 C 
ENDROOT
BRANCH   3   4
ATOM      4  C   UNL A   1     -55.067  49.356   9.088  1.00  0.00     0.113 C 
BRANCH   4   5
ATOM      5  C   UNL A   1     -56.182  48.391   9.477  1.00  0.00     0.006 C 
ATOM      6  C   UNL A   1     -56.074  47.055   8.756  1.00  0.00     0.005 C 
ENDBRANCH   4   5
ENDBRANCH   3   4
TORSDOF 2
ENDMDL
MODEL 4
REMARK VINA RESULT:      -4.9      2.265      3.281
REMARK  2 active torsions:
REMARK  status: ('A' for Active; 'I' for Inactive)
REMARK    1  A    between atoms: C_3  and  C_4 
REMARK    2  A    between atoms: C_4  and  C_6 
ROOT
ATOM      1  O   UNL A   1     -53.592  48.548   8.454  1.00  0.00    -0.648 OA
ATOM      2  O   UNL A   1     -53.168  48.436  10.696  1.00  0.00    -0.648 OA
ATOM      3  C   UNL A   1     -53.707  48.914   9.656  1.00  0.00     0.172 C 
ENDROOT
BRANCH   3   4
ATOM      4  C   UNL A   1     -54.613  50.123   9.916  1.00  0.00     0.113 C 
BRANCH   4   5
ATOM      5  C   UNL A   1     -54.249  51.414   9.193  1.00  0.00     0.006 C 
ATOM      6  C   UNL A   1     -53.909  52.544  10.154  1.00  0.00     0.005 C 
ENDBRANCH   4   5
ENDBRANCH   3   4
TORSDOF 2
ENDMDL
MODEL 5
REMARK VINA RESULT:      -4.8      1.788      2.058
REMARK  2 active torsions:
REMARK  status: ('A' for Active; 'I' for Inactive)
REMARK    1  A    between atoms: C_3  and  C_4 
REMARK    2  A    between atoms: C_4  and  C_6 
ROOT
ATOM      1  O   UNL A   1     -53.412  48.615   8.357  1.00  0.00    -0.648 OA
ATOM      2  O   UNL A   1     -53.550  49.079  10.589  1.00  0.00    -0.648 OA
ATOM      3  C   UNL A   1     -54.020  48.806   9.446  1.00  0.00     0.172 C 
ENDROOT
BRANCH   3   4
ATOM      4  C   UNL A   1     -55.549  48.717   9.399  1.00  0.00     0.113 C 
BRANCH   4   5
ATOM      5  C   UNL A   1     -56.139  47.422   8.851  1.00  0.00     0.006 C 
ATOM      6  C   UNL A   1     -57.618  47.273   9.176  1.00  0.00     0.005 C 
ENDBRANCH   4   5
ENDBRANCH   3   4
TORSDOF 2
ENDMDL
MODEL 6
REMARK VINA RESULT:      -4.8      2.588      3.323
REMARK  2 active torsions:
REMARK  status: ('A' for Active; 'I' for Inactive)
REMARK    1  A    between atoms: C_3  and  C_4 
REMARK    2  A    between atoms: C_4  and  C_6 
ROOT
ATOM      1  O   UNL A   1     -52.506  48.551   8.011  1.00  0.00    -0.648 OA
ATOM      2  O   UNL A   1     -54.030  47.020   8.755  1.00  0.00    -0.648 OA
ATOM      3  C   UNL A   1     -53.371  48.098   8.812  1.00  0.00     0.172 C 
ENDROOT
BRANCH   3   4
ATOM      4  C   UNL A   1     -53.669  48.954  10.048  1.00  0.00     0.113 C 
BRANCH   4   5
ATOM      5  C   UNL A   1     -54.698  50.065   9.874  1.00  0.00     0.006 C 
ATOM      6  C   UNL A   1     -54.066  51.382   9.443  1.00  0.00     0.005 C 
ENDBRANCH   4   5
ENDBRANCH   3   4
TORSDOF 2
ENDMDL
MODEL 7
REMARK VINA RESULT:      -4.7      2.687      3.466
REMARK  2 active torsions:
REMARK  status: ('A' for Active; 'I' for Inactive)
REMARK    1  A    between atoms: C_3  and  C_4 
REMARK    2  A    between atoms: C_4  and  C_6 
ROOT
ATOM      1  O   UNL A   1     -53.596  46.763   8.691  1.00  0.00    -0.648 OA
ATOM      2  O   UNL A   1     -52.351  48.536   7.967  1.00  0.00    -0.648 OA
ATOM      3  C   UNL A   1     -53.103  47.921   8.778  1.00  0.00     0.172 C 
ENDROOT
BRANCH   3   4
ATOM      4  C   UNL A   1     -53.469  48.726  10.029  1.00  0.00     0.113 C 
BRANCH   4   5
ATOM      5  C   UNL A   1     -54.599  49.739   9.881  1.00  0.00     0.006 C 
ATOM      6  C   UNL A   1     -54.095  51.118   9.483  1.00  0.00     0.005 C 
ENDBRANCH   4   5
ENDBRANCH   3   4
TORSDOF 2
ENDMDL
MODEL 8
REMARK VINA RESULT:      -4.7      3.597      4.398
REMARK  2 active torsions:
REMARK  status: ('A' for Active; 'I' for Inactive)
REMARK    1  A    between atoms: C_3  and  C_4 
REMARK    2  A    between atoms: C_4  and  C_6 
ROOT
ATOM      1  O   UNL A   1     -54.687  46.057   8.157  1.00  0.00    -0.648 OA
ATOM      2  O   UNL A   1     -56.823  45.375   8.595  1.00  0.00    -0.648 OA
ATOM      3  C   UNL A   1     -55.882  46.218   8.534  1.00  0.00     0.172 C 
ENDROOT
BRANCH   3   4
ATOM      4  C   UNL A   1     -56.264  47.624   9.007  1.00  0.00     0.113 C 
BRANCH   4   5
ATOM      5  C   UNL A   1     -55.188  48.698   8.889  1.00  0.00     0.006 C 
ATOM      6  C   UNL A   1     -54.564  49.047  10.232  1.00  0.00     0.005 C 
ENDBRANCH   4   5
ENDBRANCH   3   4
TORSDOF 2
ENDMDL
MODEL 9
REMARK VINA RESULT:      -4.5      3.069      3.546
REMARK  2 active torsions:
REMARK  status: ('A' for Active; 'I' for Inactive)
REMARK    1  A    between atoms: C_3  and  C_4 
REMARK    2  A    between atoms: C_4  and  C_6 
ROOT
ATOM      1  O   UNL A   1     -52.464  48.417   8.140  1.00  0.00    -0.648 OA
ATOM      2  O   UNL A   1     -54.716  48.689   8.413  1.00  0.00    -0.648 OA
ATOM      3  C   UNL A   1     -53.535  48.465   8.807  1.00  0.00     0.172 C 
ENDROOT
BRANCH   3   4
ATOM      4  C   UNL A   1     -53.413  48.198  10.311  1.00  0.00     0.113 C 
BRANCH   4   5
ATOM      5  C   UNL A   1     -52.639  46.949  10.720  1.00  0.00     0.006 C 
ATOM      6  C   UNL A   1     -52.350  46.906  12.213  1.00  0.00     0.005 C 
ENDBRANCH   4   5
ENDBRANCH   3   4
TORSDOF 2
ENDMDL
