MODEL 1
REMARK VINA RESULT:      -5.6      0.000      0.000
REMARK  2 active torsions:
REMARK  status: ('A' for Active; 'I' for Inactive)
REMARK    1  A    between atoms: C_3  and  C_4 
REMARK    2  A    between atoms: C_4  and  C_6 
ROOT
ATOM      1  O   UNL A   1     -54.441  51.487   8.370  1.00  0.00    -0.648 OA
ATOM      2  O   UNL A   1     -53.831  51.419  10.570  1.00  0.00    -0.648 OA
ATOM      3  C   UNL A   1     -54.185  50.914   9.465  1.00  0.00     0.172 C 
ENDROOT
BRANCH   3   4
ATOM      4  C   UNL A   1     -54.334  49.389   9.488  1.00  0.00     0.113 C 
BRANCH   4   5
ATOM      5  C   UNL A   1     -55.758  48.845   9.508  1.00  0.00     0.006 C 
ATOM      6  C   UNL A   1     -55.875  47.495   8.816  1.00  0.00     0.005 C 
ENDBRANCH   4   5
ENDBRANCH   3   4
TORSDOF 2
ENDMDL
MODEL 2
REMARK VINA RESULT:      -5.5      0.049      1.320
REMARK  2 active torsions:
REMARK  status: ('A' for Active; 'I' for Inactive)
REMARK    1  A    between atoms: C_3  and  C_4 
REMARK    2  A    between atoms: C_4  and  C_6 
ROOT
ATOM      1  O   UNL A   1     -53.838  51.451  10.576  1.00  0.00    -0.648 OA
ATOM      2  O   UNL A   1     -54.499  51.481   8.390  1.00  0.00    -0.648 OA
ATOM      3  C   UNL A   1     -54.219  50.928   9.492  1.00  0.00     0.172 C 
ENDROOT
BRANCH   3   4
ATOM      4  C   UNL A   1     -54.350  49.401   9.482  1.00  0.00     0.113 C 
BRANCH   4   5
ATOM      5  C   UNL A   1     -55.767  48.841   9.447  1.00  0.00     0.006 C 
ATOM      6  C   UNL A   1     -55.837  47.473   8.782  1.00  0.00     0.005 C 
ENDBRANCH   4   5
ENDBRANCH   3   4
TORSDOF 2
ENDMDL
MODEL 3
REMARK VINA RESULT:      -4.9      1.914      1.954
REMARK  2 active torsions:
REMARK  status: ('A' for Active; 'I' for Inactive)
REMARK    1  A    between atoms: C_3  and  C_4 
REMARK    2  A    between atoms: C_4  and  C_6 
ROOT
ATOM      1  O   UNL A   1     -52.985  48.571   8.300  1.00  0.00    -0.648 OA
ATOM      2  O   UNL A   1     -53.307  48.938  10.532  1.00  0.00    -0.648 OA
ATOM      3  C   UNL A   1     -53.657  48.900   9.316  1.00  0.00     0.172 C 
ENDROOT
BRANCH   3   4
ATOM      4  C   UNL A   1     -55.103  49.337   9.064  1.00  0.00     0.113 C 
BRANCH   4   5
ATOM      5  C   UNL A   1     -56.193  48.352   9.471  1.00  0.00     0.006 C 
ATOM      6  C   UNL A   1     -56.097  47.033   8.718  1.00  0.00     0.005 C 
ENDBRANCH   4   5
ENDBRANCH   3   4
TORSDOF 2
ENDMDL
MODEL 4
REMARK VINA RESULT:      -4.9      2.211      3.504
REMARK  2 active torsions:
REMARK  status: ('A' for Active; 'I' for Inactive)
REMARK    1  A    between atoms: C_3  and  C_4 
REMARK    2  A    between atoms: C_4  and  C_6 
ROOT
ATOM      1  O   UNL A   1     -53.268  48.520  10.663  1.00  0.00    -0.648 OA
ATOM      2  O   UNL A   1     -53.582  48.456   8.401  1.00  0.00    -0.648 OA
ATOM      3  C   UNL A   1     -53.756  48.914   9.568  1.00  0.00     0.172 C 
ENDROOT
BRANCH   3   4
ATOM      4  C   UNL A   1     -54.714  50.108   9.638  1.00  0.00     0.113 C 
BRANCH   4   5
ATOM      5  C   UNL A   1     -54.136  51.468   9.265  1.00  0.00     0.006 C 
ATOM      6  C   UNL A   1     -53.934  52.367  10.477  1.00  0.00     0.005 C 
ENDBRANCH   4   5
ENDBRANCH   3   4
TORSDOF 2
ENDMDL
MODEL 5
REMARK VINA RESULT:      -4.9      1.638      2.010
REMARK  2 active torsions:
REMARK  status: ('A' for Active; 'I' for Inactive)
REMARK    1  A    between atoms: C_3  and  C_4 
REMARK    2  A    between atoms: C_4  and  C_6 
ROOT
ATOM      1  O   UNL A   1     -53.615  48.600   8.358  1.00  0.00    -0.648 OA
ATOM      2  O   UNL A   1     -53.693  49.604  10.409  1.00  0.00    -0.648 OA
ATOM      3  C   UNL A   1     -54.185  49.001   9.411  1.00  0.00     0.172 C 
ENDROOT
BRANCH   3   4
ATOM      4  C   UNL A   1     -55.692  48.746   9.509  1.00  0.00     0.113 C 
BRANCH   4   5
ATOM      5  C   UNL A   1     -56.214  47.478   8.842  1.00  0.00     0.006 C 
ATOM      6  C   UNL A   1     -57.668  47.193   9.189  1.00  0.00     0.005 C 
ENDBRANCH   4   5
ENDBRANCH   3   4
TORSDOF 2
ENDMDL
MODEL 6
REMARK VINA RESULT:      -4.8      2.501      3.318
REMARK  2 active torsions:
REMARK  status: ('A' for Active; 'I' for Inactive)
REMARK    1  A    between atoms: C_3  and  C_4 
REMARK    2  A    between atoms: C_4  and  C_6 
ROOT
ATOM      1  O   UNL A   1     -54.390  47.144   8.688  1.00  0.00    -0.648 OA
ATOM      2  O   UNL A   1     -52.649  48.509   8.121  1.00  0.00    -0.648 OA
ATOM      3  C   UNL A   1     -53.604  48.118   8.852  1.00  0.00     0.172 C 
ENDROOT
BRANCH   3   4
ATOM      4  C   UNL A   1     -53.833  48.976  10.101  1.00  0.00     0.113 C 
BRANCH   4   5
ATOM      5  C   UNL A   1     -54.767  50.171   9.944  1.00  0.00     0.006 C 
ATOM      6  C   UNL A   1     -54.050  51.404   9.412  1.00  0.00     0.005 C 
ENDBRANCH   4   5
ENDBRANCH   3   4
TORSDOF 2
ENDMDL
MODEL 7
REMARK VINA RESULT:      -4.7      3.646      4.528
REMARK  2 active torsions:
REMARK  status: ('A' for Active; 'I' for Inactive)
REMARK    1  A    between atoms: C_3  and  C_4 
REMARK    2  A    between atoms: C_4  and  C_6 
ROOT
ATOM      1  O   UNL A   1     -56.888  45.371   8.631  1.00  0.00    -0.648 OA
ATOM      2  O   UNL A   1     -54.718  45.823   8.080  1.00  0.00    -0.648 OA
ATOM      3  C   UNL A   1     -55.877  46.114   8.495  1.00  0.00     0.172 C 
ENDROOT
BRANCH   3   4
ATOM      4  C   UNL A   1     -56.061  47.590   8.863  1.00  0.00     0.113 C 
BRANCH   4   5
ATOM      5  C   UNL A   1     -54.797  48.368   9.209  1.00  0.00     0.006 C 
ATOM      6  C   UNL A   1     -55.057  49.858   9.373  1.00  0.00     0.005 C 
ENDBRANCH   4   5
ENDBRANCH   3   4
TORSDOF 2
ENDMDL
MODEL 8
REMARK VINA RESULT:      -4.3      3.958      4.780
REMARK  2 active torsions:
REMARK  status: ('A' for Active; 'I' for Inactive)
REMARK    1  A    between atoms: C_3  and  C_4 
REMARK    2  A    between atoms: C_4  and  C_6 
ROOT
ATOM      1  O   UNL A   1     -54.540  44.540   9.462  1.00  0.00    -0.648 OA
ATOM      2  O   UNL A   1     -55.293  45.536   7.549  1.00  0.00    -0.648 OA
ATOM      3  C   UNL A   1     -54.832  45.524   8.727  1.00  0.00     0.172 C 
ENDROOT
BRANCH   3   4
ATOM      4  C   UNL A   1     -54.625  46.915   9.336  1.00  0.00     0.113 C 
BRANCH   4   5
ATOM      5  C   UNL A   1     -55.560  48.017   8.851  1.00  0.00     0.006 C 
ATOM      6  C   UNL A   1     -55.200  49.380   9.423  1.00  0.00     0.005 C 
ENDBRANCH   4   5
ENDBRANCH   3   4
TORSDOF 2
ENDMDL
MODEL 9
REMARK VINA RESULT:      -4.3      2.356      2.860
REMARK  2 active torsions:
REMARK  status: ('A' for Active; 'I' for Inactive)
REMARK    1  A    between atoms: C_3  and  C_4 
REMARK    2  A    between atoms: C_4  and  C_6 
ROOT
ATOM      1  O   UNL A   1     -54.999  48.463   8.185  1.00  0.00    -0.648 OA
ATOM      2  O   UNL A   1     -53.930  50.369   8.852  1.00  0.00    -0.648 OA
ATOM      3  C   UNL A   1     -54.343  49.181   8.990  1.00  0.00     0.172 C 
ENDROOT
BRANCH   3   4
ATOM      4  C   UNL A   1     -54.002  48.550  10.344  1.00  0.00     0.113 C 
BRANCH   4   5
ATOM      5  C   UNL A   1     -52.843  47.559  10.360  1.00  0.00     0.006 C 
ATOM      6  C   UNL A   1     -52.560  47.018  11.754  1.00  0.00     0.005 C 
ENDBRANCH   4   5
ENDBRANCH   3   4
TORSDOF 2
ENDMDL
