MODEL 1
REMARK VINA RESULT:     -12.2      0.000      0.000
REMARK  6 active torsions:
REMARK  status: ('A' for Active; 'I' for Inactive)
REMARK    1  A    between atoms: N_3  and  CA_7 
REMARK    2  A    between atoms: N_4  and  C_8 
REMARK    3  A    between atoms: C_5  and  C_6 
REMARK    4  A    between atoms: C_5  and  CA_7 
REMARK    5  A    between atoms: C_6  and  C_8 
REMARK    6  A    between atoms: CA_7  and  C_9 
ROOT
HETATM    1  O   UNL     1     -52.956  48.606  13.592  1.00  0.00    -0.646 OA
HETATM    2  OXT UNL     1     -52.998  50.454  14.906  1.00  0.00    -0.646 OA
HETATM    3  C   UNL     1     -53.264  49.907  13.843  1.00  0.00     0.204 C 
ENDROOT
BRANCH   3   4
HETATM    4  CA  UNL     1     -53.960  50.563  12.664  1.00  0.00     0.283 C 
BRANCH   4   5
HETATM    5  N   UNL     1     -53.623  51.987  12.673  1.00  0.00    -0.065 N 
HETATM    6  H   UNL     1     -52.836  52.154  12.046  1.00  0.00     0.275 HD
HETATM    7  H   UNL     1     -53.371  52.270  13.620  1.00  0.00     0.275 HD
HETATM    8  H   UNL     1     -54.429  52.528  12.359  1.00  0.00     0.275 HD
ENDBRANCH   4   5
BRANCH   4   9
HETATM    9  C   UNL     1     -53.616  49.882  11.330  1.00  0.00     0.045 C 
BRANCH   9  10
HETATM   10  C   UNL     1     -54.486  50.310  10.140  1.00  0.00     0.030 C 
BRANCH  10  11
HETATM   11  C   UNL     1     -53.653  50.409   8.862  1.00  0.00     0.230 C 
BRANCH  11  12
HETATM   12  N   UNL     1     -53.977  51.634   8.139  1.00  0.00    -0.079 N 
HETATM   13  H   UNL     1     -54.971  51.837   8.242  1.00  0.00     0.274 HD
HETATM   14  H   UNL     1     -53.756  51.513   7.151  1.00  0.00     0.274 HD
HETATM   15  H   UNL     1     -53.431  52.407   8.518  1.00  0.00     0.274 HD
ENDBRANCH  11  12
ENDBRANCH  10  11
ENDBRANCH   9  10
ENDBRANCH   4   9
ENDBRANCH   3   4
TORSDOF 6
ENDMDL
MODEL 2
REMARK VINA RESULT:     -11.9      1.716      1.908
REMARK  6 active torsions:
REMARK  status: ('A' for Active; 'I' for Inactive)
REMARK    1  A    between atoms: N_3  and  CA_7 
REMARK    2  A    between atoms: N_4  and  C_8 
REMARK    3  A    between atoms: C_5  and  C_6 
REMARK    4  A    between atoms: C_5  and  CA_7 
REMARK    5  A    between atoms: C_6  and  C_8 
REMARK    6  A    between atoms: CA_7  and  C_9 
ROOT
HETATM    1  O   UNL     1     -53.685  51.767  12.971  1.00  0.00    -0.646 OA
HETATM    2  OXT UNL     1     -54.119  50.045  14.380  1.00  0.00    -0.646 OA
HETATM    3  C   UNL     1     -53.752  50.445  13.283  1.00  0.00     0.204 C 
ENDROOT
BRANCH   3   4
HETATM    4  CA  UNL     1     -53.323  49.565  12.122  1.00  0.00     0.283 C 
BRANCH   4   5
HETATM    5  N   UNL     1     -52.986  48.244  12.654  1.00  0.00    -0.065 N 
HETATM    6  H   UNL     1     -52.034  48.258  13.021  1.00  0.00     0.275 HD
HETATM    7  H   UNL     1     -53.054  47.551  11.909  1.00  0.00     0.275 HD
HETATM    8  H   UNL     1     -53.637  48.004  13.402  1.00  0.00     0.275 HD
ENDBRANCH   4   5
BRANCH   4   9
HETATM    9  C   UNL     1     -54.384  49.504  11.013  1.00  0.00     0.045 C 
BRANCH   9  10
HETATM   10  C   UNL     1     -53.897  49.940   9.624  1.00  0.00     0.030 C 
BRANCH  10  11
HETATM   11  C   UNL     1     -53.991  51.458   9.464  1.00  0.00     0.230 C 
BRANCH  11  12
HETATM   12  N   UNL     1     -53.924  51.824   8.054  1.00  0.00    -0.079 N 
HETATM   13  H   UNL     1     -54.837  52.157   7.745  1.00  0.00     0.274 HD
HETATM   14  H   UNL     1     -53.656  51.007   7.504  1.00  0.00     0.274 HD
HETATM   15  H   UNL     1     -53.232  52.562   7.926  1.00  0.00     0.274 HD
ENDBRANCH  11  12
ENDBRANCH  10  11
ENDBRANCH   9  10
ENDBRANCH   4   9
ENDBRANCH   3   4
TORSDOF 6
ENDMDL
MODEL 3
REMARK VINA RESULT:     -11.1      2.910      4.545
REMARK  6 active torsions:
REMARK  status: ('A' for Active; 'I' for Inactive)
REMARK    1  A    between atoms: N_3  and  CA_7 
REMARK    2  A    between atoms: N_4  and  C_8 
REMARK    3  A    between atoms: C_5  and  C_6 
REMARK    4  A    between atoms: C_5  and  CA_7 
REMARK    5  A    between atoms: C_6  and  C_8 
REMARK    6  A    between atoms: CA_7  and  C_9 
ROOT
HETATM    1  O   UNL     1     -54.876  48.556   8.655  1.00  0.00    -0.646 OA
HETATM    2  OXT UNL     1     -52.770  48.658   7.821  1.00  0.00    -0.646 OA
HETATM    3  C   UNL     1     -53.668  49.159   8.484  1.00  0.00     0.204 C 
ENDROOT
BRANCH   3   4
HETATM    4  CA  UNL     1     -53.592  50.493   9.206  1.00  0.00     0.283 C 
BRANCH   4   5
HETATM    5  N   UNL     1     -54.115  51.524   8.310  1.00  0.00    -0.065 N 
HETATM    6  H   UNL     1     -55.034  51.243   7.968  1.00  0.00     0.275 HD
HETATM    7  H   UNL     1     -53.479  51.642   7.521  1.00  0.00     0.275 HD
HETATM    8  H   UNL     1     -54.195  52.406   8.817  1.00  0.00     0.275 HD
ENDBRANCH   4   5
BRANCH   4   9
HETATM    9  C   UNL     1     -54.316  50.465  10.562  1.00  0.00     0.045 C 
BRANCH   9  10
HETATM   10  C   UNL     1     -53.611  49.653  11.657  1.00  0.00     0.030 C 
BRANCH  10  11
HETATM   11  C   UNL     1     -53.619  50.407  12.987  1.00  0.00     0.230 C 
BRANCH  11  12
HETATM   12  N   UNL     1     -53.694  51.845  12.753  1.00  0.00    -0.079 N 
HETATM   13  H   UNL     1     -52.828  52.165  12.320  1.00  0.00     0.274 HD
HETATM   14  H   UNL     1     -53.827  52.327  13.643  1.00  0.00     0.274 HD
HETATM   15  H   UNL     1     -54.479  52.049  12.136  1.00  0.00     0.274 HD
ENDBRANCH  11  12
ENDBRANCH  10  11
ENDBRANCH   9  10
ENDBRANCH   4   9
ENDBRANCH   3   4
TORSDOF 6
ENDMDL
MODEL 4
REMARK VINA RESULT:     -11.0      3.232      4.943
REMARK  6 active torsions:
REMARK  status: ('A' for Active; 'I' for Inactive)
REMARK    1  A    between atoms: N_3  and  CA_7 
REMARK    2  A    between atoms: N_4  and  C_8 
REMARK    3  A    between atoms: C_5  and  C_6 
REMARK    4  A    between atoms: C_5  and  CA_7 
REMARK    5  A    between atoms: C_6  and  C_8 
REMARK    6  A    between atoms: CA_7  and  C_9 
ROOT
HETATM    1  O   UNL     1     -54.183  47.500   6.952  1.00  0.00    -0.646 OA
HETATM    2  OXT UNL     1     -55.515  47.280   8.773  1.00  0.00    -0.646 OA
HETATM    3  C   UNL     1     -54.566  47.817   8.218  1.00  0.00     0.204 C 
ENDROOT
BRANCH   3   4
HETATM    4  CA  UNL     1     -53.683  48.892   8.826  1.00  0.00     0.283 C 
BRANCH   4   5
HETATM    5  N   UNL     1     -54.071  50.179   8.248  1.00  0.00    -0.065 N 
HETATM    6  H   UNL     1     -55.071  50.326   8.387  1.00  0.00     0.275 HD
HETATM    7  H   UNL     1     -53.863  50.179   7.249  1.00  0.00     0.275 HD
HETATM    8  H   UNL     1     -53.550  50.927   8.705  1.00  0.00     0.275 HD
ENDBRANCH   4   5
BRANCH   4   9
HETATM    9  C   UNL     1     -53.736  48.893  10.361  1.00  0.00     0.045 C 
BRANCH   9  10
HETATM   10  C   UNL     1     -53.909  50.276  11.003  1.00  0.00     0.030 C 
BRANCH  10  11
HETATM   11  C   UNL     1     -53.610  50.224  12.502  1.00  0.00     0.230 C 
BRANCH  11  12
HETATM   12  N   UNL     1     -53.617  51.569  13.067  1.00  0.00    -0.079 N 
HETATM   13  H   UNL     1     -54.311  52.138  12.583  1.00  0.00     0.274 HD
HETATM   14  H   UNL     1     -52.694  51.990  12.952  1.00  0.00     0.274 HD
HETATM   15  H   UNL     1     -53.848  51.520  14.059  1.00  0.00     0.274 HD
ENDBRANCH  11  12
ENDBRANCH  10  11
ENDBRANCH   9  10
ENDBRANCH   4   9
ENDBRANCH   3   4
TORSDOF 6
ENDMDL
MODEL 5
REMARK VINA RESULT:     -11.0      1.984      2.123
REMARK  6 active torsions:
REMARK  status: ('A' for Active; 'I' for Inactive)
REMARK    1  A    between atoms: N_3  and  CA_7 
REMARK    2  A    between atoms: N_4  and  C_8 
REMARK    3  A    between atoms: C_5  and  C_6 
REMARK    4  A    between atoms: C_5  and  CA_7 
REMARK    5  A    between atoms: C_6  and  C_8 
REMARK    6  A    between atoms: CA_7  and  C_9 
ROOT
HETATM    1  O   UNL     1     -54.083  50.234  14.187  1.00  0.00    -0.646 OA
HETATM    2  OXT UNL     1     -53.741  51.996  12.801  1.00  0.00    -0.646 OA
HETATM    3  C   UNL     1     -53.742  50.787  12.992  1.00  0.00     0.204 C 
ENDROOT
BRANCH   3   4
HETATM    4  CA  UNL     1     -53.375  49.732  11.963  1.00  0.00     0.283 C 
BRANCH   4   5
HETATM    5  N   UNL     1     -53.117  48.478  12.671  1.00  0.00    -0.065 N 
HETATM    6  H   UNL     1     -52.955  48.673  13.659  1.00  0.00     0.275 HD
HETATM    7  H   UNL     1     -52.293  48.027  12.273  1.00  0.00     0.275 HD
HETATM    8  H   UNL     1     -53.923  47.861  12.573  1.00  0.00     0.275 HD
ENDBRANCH   4   5
BRANCH   4   9
HETATM    9  C   UNL     1     -54.446  49.585  10.870  1.00  0.00     0.045 C 
BRANCH   9  10
HETATM   10  C   UNL     1     -54.038  50.114   9.488  1.00  0.00     0.030 C 
BRANCH  10  11
HETATM   11  C   UNL     1     -53.425  49.001   8.637  1.00  0.00     0.230 C 
BRANCH  11  12
HETATM   12  N   UNL     1     -54.321  48.650   7.540  1.00  0.00    -0.079 N 
HETATM   13  H   UNL     1     -54.966  49.421   7.368  1.00  0.00     0.274 HD
HETATM   14  H   UNL     1     -54.851  47.814   7.789  1.00  0.00     0.274 HD
HETATM   15  H   UNL     1     -53.775  48.469   6.699  1.00  0.00     0.274 HD
ENDBRANCH  11  12
ENDBRANCH  10  11
ENDBRANCH   9  10
ENDBRANCH   4   9
ENDBRANCH   3   4
TORSDOF 6
ENDMDL
MODEL 6
REMARK VINA RESULT:     -10.7      3.284      4.671
REMARK  6 active torsions:
REMARK  status: ('A' for Active; 'I' for Inactive)
REMARK    1  A    between atoms: N_3  and  CA_7 
REMARK    2  A    between atoms: N_4  and  C_8 
REMARK    3  A    between atoms: C_5  and  C_6 
REMARK    4  A    between atoms: C_5  and  CA_7 
REMARK    5  A    between atoms: C_6  and  C_8 
REMARK    6  A    between atoms: CA_7  and  C_9 
ROOT
HETATM    1  O   UNL     1     -53.260  49.510   8.256  1.00  0.00    -0.646 OA
HETATM    2  OXT UNL     1     -54.061  51.577   8.735  1.00  0.00    -0.646 OA
HETATM    3  C   UNL     1     -53.974  50.388   9.012  1.00  0.00     0.204 C 
ENDROOT
BRANCH   3   4
HETATM    4  CA  UNL     1     -54.625  49.710  10.204  1.00  0.00     0.283 C 
BRANCH   4   5
HETATM    5  N   UNL     1     -55.180  48.434   9.754  1.00  0.00    -0.065 N 
HETATM    6  H   UNL     1     -55.173  48.401   8.734  1.00  0.00     0.275 HD
HETATM    7  H   UNL     1     -56.138  48.342  10.091  1.00  0.00     0.275 HD
HETATM    8  H   UNL     1     -54.615  47.669  10.123  1.00  0.00     0.275 HD
ENDBRANCH   4   5
BRANCH   4   9
HETATM    9  C   UNL     1     -53.656  49.550  11.386  1.00  0.00     0.045 C 
BRANCH   9  10
HETATM   10  C   UNL     1     -53.711  50.677  12.427  1.00  0.00     0.030 C 
BRANCH  10  11
HETATM   11  C   UNL     1     -53.376  50.150  13.822  1.00  0.00     0.230 C 
BRANCH  11  12
HETATM   12  N   UNL     1     -53.008  48.740  13.755  1.00  0.00    -0.079 N 
HETATM   13  H   UNL     1     -53.704  48.183  14.252  1.00  0.00     0.274 HD
HETATM   14  H   UNL     1     -52.094  48.606  14.188  1.00  0.00     0.274 HD
HETATM   15  H   UNL     1     -52.969  48.444  12.780  1.00  0.00     0.274 HD
ENDBRANCH  11  12
ENDBRANCH  10  11
ENDBRANCH   9  10
ENDBRANCH   4   9
ENDBRANCH   3   4
TORSDOF 6
ENDMDL
MODEL 7
REMARK VINA RESULT:     -10.6      2.293      3.181
REMARK  6 active torsions:
REMARK  status: ('A' for Active; 'I' for Inactive)
REMARK    1  A    between atoms: N_3  and  CA_7 
REMARK    2  A    between atoms: N_4  and  C_8 
REMARK    3  A    between atoms: C_5  and  C_6 
REMARK    4  A    between atoms: C_5  and  CA_7 
REMARK    5  A    between atoms: C_6  and  C_8 
REMARK    6  A    between atoms: CA_7  and  C_9 
ROOT
HETATM    1  O   UNL     1     -54.117  48.823  16.016  1.00  0.00    -0.646 OA
HETATM    2  OXT UNL     1     -52.171  47.725  16.400  1.00  0.00    -0.646 OA
HETATM    3  C   UNL     1     -52.903  48.341  15.637  1.00  0.00     0.204 C 
ENDROOT
BRANCH   3   4
HETATM    4  CA  UNL     1     -52.593  48.662  14.185  1.00  0.00     0.283 C 
BRANCH   4   5
HETATM    5  N   UNL     1     -52.562  47.405  13.439  1.00  0.00    -0.065 N 
HETATM    6  H   UNL     1     -52.876  46.643  14.042  1.00  0.00     0.275 HD
HETATM    7  H   UNL     1     -51.609  47.220  13.125  1.00  0.00     0.275 HD
HETATM    8  H   UNL     1     -53.179  47.475  12.629  1.00  0.00     0.275 HD
ENDBRANCH   4   5
BRANCH   4   9
HETATM    9  C   UNL     1     -53.579  49.679  13.589  1.00  0.00     0.045 C 
BRANCH   9  10
HETATM   10  C   UNL     1     -53.691  49.654  12.059  1.00  0.00     0.030 C 
BRANCH  10  11
HETATM   11  C   UNL     1     -53.742  51.072  11.490  1.00  0.00     0.230 C 
BRANCH  11  12
HETATM   12  N   UNL     1     -53.732  52.051  12.571  1.00  0.00    -0.079 N 
HETATM   13  H   UNL     1     -53.117  52.826  12.323  1.00  0.00     0.274 HD
HETATM   14  H   UNL     1     -53.394  51.610  13.427  1.00  0.00     0.274 HD
HETATM   15  H   UNL     1     -54.678  52.403  12.721  1.00  0.00     0.274 HD
ENDBRANCH  11  12
ENDBRANCH  10  11
ENDBRANCH   9  10
ENDBRANCH   4   9
ENDBRANCH   3   4
TORSDOF 6
ENDMDL
MODEL 8
REMARK VINA RESULT:     -10.6      3.646      4.589
REMARK  6 active torsions:
REMARK  status: ('A' for Active; 'I' for Inactive)
REMARK    1  A    between atoms: N_3  and  CA_7 
REMARK    2  A    between atoms: N_4  and  C_8 
REMARK    3  A    between atoms: C_5  and  C_6 
REMARK    4  A    between atoms: C_5  and  CA_7 
REMARK    5  A    between atoms: C_6  and  C_8 
REMARK    6  A    between atoms: CA_7  and  C_9 
ROOT
HETATM    1  O   UNL     1     -56.188  46.788   8.841  1.00  0.00    -0.646 OA
HETATM    2  OXT UNL     1     -54.255  45.915   9.644  1.00  0.00    -0.646 OA
HETATM    3  C   UNL     1     -54.865  46.855   9.151  1.00  0.00     0.204 C 
ENDROOT
BRANCH   3   4
HETATM    4  CA  UNL     1     -54.270  48.210   8.811  1.00  0.00     0.283 C 
BRANCH   4   5
HETATM    5  N   UNL     1     -54.418  48.422   7.371  1.00  0.00    -0.065 N 
HETATM    6  H   UNL     1     -55.111  47.771   7.000  1.00  0.00     0.275 HD
HETATM    7  H   UNL     1     -53.522  48.265   6.910  1.00  0.00     0.275 HD
HETATM    8  H   UNL     1     -54.726  49.380   7.198  1.00  0.00     0.275 HD
ENDBRANCH   4   5
BRANCH   4   9
HETATM    9  C   UNL     1     -54.888  49.345   9.642  1.00  0.00     0.045 C 
BRANCH   9  10
HETATM   10  C   UNL     1     -53.886  50.376  10.179  1.00  0.00     0.030 C 
BRANCH  10  11
HETATM   11  C   UNL     1     -54.057  51.722   9.474  1.00  0.00     0.230 C 
BRANCH  11  12
HETATM   12  N   UNL     1     -53.578  51.639   8.099  1.00  0.00    -0.079 N 
HETATM   13  H   UNL     1     -53.333  52.571   7.767  1.00  0.00     0.274 HD
HETATM   14  H   UNL     1     -54.311  51.249   7.506  1.00  0.00     0.274 HD
HETATM   15  H   UNL     1     -52.754  51.038   8.062  1.00  0.00     0.274 HD
ENDBRANCH  11  12
ENDBRANCH  10  11
ENDBRANCH   9  10
ENDBRANCH   4   9
ENDBRANCH   3   4
TORSDOF 6
ENDMDL
MODEL 9
REMARK VINA RESULT:     -10.5      4.640      5.919
REMARK  6 active torsions:
REMARK  status: ('A' for Active; 'I' for Inactive)
REMARK    1  A    between atoms: N_3  and  CA_7 
REMARK    2  A    between atoms: N_4  and  C_8 
REMARK    3  A    between atoms: C_5  and  C_6 
REMARK    4  A    between atoms: C_5  and  CA_7 
REMARK    5  A    between atoms: C_6  and  C_8 
REMARK    6  A    between atoms: CA_7  and  C_9 
ROOT
HETATM    1  O   UNL     1     -54.352  46.087   6.923  1.00  0.00    -0.646 OA
HETATM    2  OXT UNL     1     -53.583  47.303   5.171  1.00  0.00    -0.646 OA
HETATM    3  C   UNL     1     -53.683  47.139   6.380  1.00  0.00     0.204 C 
ENDROOT
BRANCH   3   4
HETATM    4  CA  UNL     1     -53.097  48.050   7.444  1.00  0.00     0.283 C 
BRANCH   4   5
HETATM    5  N   UNL     1     -52.152  48.958   6.794  1.00  0.00    -0.065 N 
HETATM    6  H   UNL     1     -52.283  49.903   7.158  1.00  0.00     0.275 HD
HETATM    7  H   UNL     1     -52.316  48.956   5.788  1.00  0.00     0.275 HD
HETATM    8  H   UNL     1     -51.198  48.650   6.985  1.00  0.00     0.275 HD
ENDBRANCH   4   5
BRANCH   4   9
HETATM    9  C   UNL     1     -54.182  48.794   8.238  1.00  0.00     0.045 C 
BRANCH   9  10
HETATM   10  C   UNL     1     -53.675  49.564   9.465  1.00  0.00     0.030 C 
BRANCH  10  11
HETATM   11  C   UNL     1     -54.127  51.024   9.419  1.00  0.00     0.230 C 
BRANCH  11  12
HETATM   12  N   UNL     1     -53.710  51.644   8.166  1.00  0.00    -0.079 N 
HETATM   13  H   UNL     1     -54.011  52.618   8.152  1.00  0.00     0.274 HD
HETATM   14  H   UNL     1     -54.134  51.146   7.383  1.00  0.00     0.274 HD
HETATM   15  H   UNL     1     -52.694  51.601   8.087  1.00  0.00     0.274 HD
ENDBRANCH  11  12
ENDBRANCH  10  11
ENDBRANCH   9  10
ENDBRANCH   4   9
ENDBRANCH   3   4
TORSDOF 6
ENDMDL
