MODEL 1
REMARK VINA RESULT:      -5.8      0.000      0.000
REMARK  6 active torsions:
REMARK  status: ('A' for Active; 'I' for Inactive)
REMARK    1  A    between atoms: O_1  and  C_5 
REMARK    2  A    between atoms: O_2  and  C_7 
REMARK    3  A    between atoms: O_2  and  C_13 
REMARK    4  A    between atoms: C_4  and  C_5 
REMARK    5  A    between atoms: C_4  and  C_6 
REMARK    6  A    between atoms: C_5  and  C_7 
ROOT
HETATM    1  O   UNL     1     -51.724  48.524   7.024  1.00  0.00    -0.385 OA
HETATM    2  H   UNL     1     -51.210  48.055   6.349  1.00  0.00     0.210 HD
ENDROOT
BRANCH   1   3
HETATM    3  C   UNL     1     -52.538  47.596   7.729  1.00  0.00     0.221 C 
BRANCH   3   4
HETATM    4  C   UNL     1     -53.725  48.346   8.339  1.00  0.00     0.080 C 
BRANCH   4   5
HETATM    5  C   UNL     1     -53.504  48.671   9.796  1.00  0.00    -0.055 A 
HETATM    6  C   UNL     1     -53.112  47.663  10.664  1.00  0.00     0.007 A 
HETATM    7  C   UNL     1     -52.907  47.962  12.011  1.00  0.00     0.001 A 
HETATM    8  C   UNL     1     -53.098  49.265  12.472  1.00  0.00     0.000 A 
HETATM    9  C   UNL     1     -53.492  50.268  11.588  1.00  0.00     0.001 A 
HETATM   10  C   UNL     1     -53.697  49.969  10.240  1.00  0.00     0.007 A 
ENDBRANCH   4   5
ENDBRANCH   3   4
BRANCH   3  11
HETATM   11  C   UNL     1     -53.012  46.552   6.738  1.00  0.00     0.288 C 
HETATM   12  O   UNL     1     -52.680  46.509   5.561  1.00  0.00    -0.262 OA
BRANCH  11  13
HETATM   13  O   UNL     1     -53.836  45.664   7.367  1.00  0.00    -0.320 OA
BRANCH  13  14
HETATM   14  C   UNL     1     -53.179  44.640   8.122  1.00  0.00     0.174 C 
HETATM   15  C   UNL     1     -54.033  44.290   9.323  1.00  0.00     0.034 C 
ENDBRANCH  13  14
ENDBRANCH  11  13
ENDBRANCH   3  11
ENDBRANCH   1   3
TORSDOF 6
ENDMDL
MODEL 2
REMARK VINA RESULT:      -5.7      1.304      2.609
REMARK  6 active torsions:
REMARK  status: ('A' for Active; 'I' for Inactive)
REMARK    1  A    between atoms: O_1  and  C_5 
REMARK    2  A    between atoms: O_2  and  C_7 
REMARK    3  A    between atoms: O_2  and  C_13 
REMARK    4  A    between atoms: C_4  and  C_5 
REMARK    5  A    between atoms: C_4  and  C_6 
REMARK    6  A    between atoms: C_5  and  C_7 
ROOT
HETATM    1  O   UNL     1     -55.344  45.647   8.798  1.00  0.00    -0.385 OA
HETATM    2  H   UNL     1     -55.340  44.869   8.219  1.00  0.00     0.210 HD
ENDROOT
BRANCH   1   3
HETATM    3  C   UNL     1     -54.196  46.441   8.532  1.00  0.00     0.221 C 
BRANCH   3   4
HETATM    4  C   UNL     1     -53.392  46.594   9.826  1.00  0.00     0.080 C 
BRANCH   4   5
HETATM    5  C   UNL     1     -53.437  48.006  10.359  1.00  0.00    -0.055 A 
HETATM    6  C   UNL     1     -53.181  48.233  11.702  1.00  0.00     0.007 A 
HETATM    7  C   UNL     1     -53.223  49.537  12.195  1.00  0.00     0.001 A 
HETATM    8  C   UNL     1     -53.520  50.597  11.338  1.00  0.00     0.000 A 
HETATM    9  C   UNL     1     -53.775  50.353   9.989  1.00  0.00     0.001 A 
HETATM   10  C   UNL     1     -53.733  49.049   9.496  1.00  0.00     0.007 A 
ENDBRANCH   4   5
ENDBRANCH   3   4
BRANCH   3  11
HETATM   11  C   UNL     1     -53.379  45.730   7.472  1.00  0.00     0.288 C 
HETATM   12  O   UNL     1     -52.930  44.596   7.583  1.00  0.00    -0.262 OA
BRANCH  11  13
HETATM   13  O   UNL     1     -53.249  46.535   6.377  1.00  0.00    -0.320 OA
BRANCH  13  14
HETATM   14  C   UNL     1     -51.908  46.739   5.916  1.00  0.00     0.174 C 
HETATM   15  C   UNL     1     -51.244  47.787   6.783  1.00  0.00     0.034 C 
ENDBRANCH  13  14
ENDBRANCH  11  13
ENDBRANCH   3  11
ENDBRANCH   1   3
TORSDOF 6
ENDMDL
MODEL 3
REMARK VINA RESULT:      -5.7      1.188      2.160
REMARK  6 active torsions:
REMARK  status: ('A' for Active; 'I' for Inactive)
REMARK    1  A    between atoms: O_1  and  C_5 
REMARK    2  A    between atoms: O_2  and  C_7 
REMARK    3  A    between atoms: O_2  and  C_13 
REMARK    4  A    between atoms: C_4  and  C_5 
REMARK    5  A    between atoms: C_4  and  C_6 
REMARK    6  A    between atoms: C_5  and  C_7 
ROOT
HETATM    1  O   UNL     1     -51.653  48.660   6.905  1.00  0.00    -0.385 OA
HETATM    2  H   UNL     1     -51.905  48.400   6.005  1.00  0.00     0.210 HD
ENDROOT
BRANCH   1   3
HETATM    3  C   UNL     1     -52.401  47.899   7.844  1.00  0.00     0.221 C 
BRANCH   3   4
HETATM    4  C   UNL     1     -53.440  48.810   8.501  1.00  0.00     0.080 C 
BRANCH   4   5
HETATM    5  C   UNL     1     -53.309  48.830  10.005  1.00  0.00    -0.055 A 
HETATM    6  C   UNL     1     -53.562  50.007  10.693  1.00  0.00     0.007 A 
HETATM    7  C   UNL     1     -53.440  50.026  12.082  1.00  0.00     0.001 A 
HETATM    8  C   UNL     1     -53.067  48.868  12.765  1.00  0.00     0.000 A 
HETATM    9  C   UNL     1     -52.815  47.692  12.059  1.00  0.00     0.001 A 
HETATM   10  C   UNL     1     -52.937  47.673  10.670  1.00  0.00     0.007 A 
ENDBRANCH   4   5
ENDBRANCH   3   4
BRANCH   3  11
HETATM   11  C   UNL     1     -53.075  46.769   7.090  1.00  0.00     0.288 C 
HETATM   12  O   UNL     1     -54.039  46.136   7.500  1.00  0.00    -0.262 OA
BRANCH  11  13
HETATM   13  O   UNL     1     -52.458  46.592   5.884  1.00  0.00    -0.320 OA
BRANCH  13  14
HETATM   14  C   UNL     1     -52.726  45.346   5.232  1.00  0.00     0.174 C 
HETATM   15  C   UNL     1     -51.565  44.404   5.474  1.00  0.00     0.034 C 
ENDBRANCH  13  14
ENDBRANCH  11  13
ENDBRANCH   3  11
ENDBRANCH   1   3
TORSDOF 6
ENDMDL
MODEL 4
REMARK VINA RESULT:      -5.6      4.404      6.382
REMARK  6 active torsions:
REMARK  status: ('A' for Active; 'I' for Inactive)
REMARK    1  A    between atoms: O_1  and  C_5 
REMARK    2  A    between atoms: O_2  and  C_7 
REMARK    3  A    between atoms: O_2  and  C_13 
REMARK    4  A    between atoms: C_4  and  C_5 
REMARK    5  A    between atoms: C_4  and  C_6 
REMARK    6  A    between atoms: C_5  and  C_7 
ROOT
HETATM    1  O   UNL     1     -52.402  46.320  13.936  1.00  0.00    -0.385 OA
HETATM    2  H   UNL     1     -52.754  46.240  14.836  1.00  0.00     0.210 HD
ENDROOT
BRANCH   1   3
HETATM    3  C   UNL     1     -52.023  47.668  13.694  1.00  0.00     0.221 C 
BRANCH   3   4
HETATM    4  C   UNL     1     -53.275  48.477  13.345  1.00  0.00     0.080 C 
BRANCH   4   5
HETATM    5  C   UNL     1     -53.320  48.852  11.884  1.00  0.00    -0.055 A 
HETATM    6  C   UNL     1     -53.083  47.878  10.926  1.00  0.00     0.007 A 
HETATM    7  C   UNL     1     -53.124  48.224   9.575  1.00  0.00     0.001 A 
HETATM    8  C   UNL     1     -53.401  49.539   9.201  1.00  0.00     0.000 A 
HETATM    9  C   UNL     1     -53.637  50.508  10.175  1.00  0.00     0.001 A 
HETATM   10  C   UNL     1     -53.596  50.162  11.526  1.00  0.00     0.007 A 
ENDBRANCH   4   5
ENDBRANCH   3   4
BRANCH   3  11
HETATM   11  C   UNL     1     -51.373  48.198  14.957  1.00  0.00     0.288 C 
HETATM   12  O   UNL     1     -51.740  49.196  15.562  1.00  0.00    -0.262 OA
BRANCH  11  13
HETATM   13  O   UNL     1     -50.343  47.378  15.320  1.00  0.00    -0.320 OA
BRANCH  13  14
HETATM   14  C   UNL     1     -49.241  48.022  15.969  1.00  0.00     0.174 C 
HETATM   15  C   UNL     1     -47.991  47.814  15.141  1.00  0.00     0.034 C 
ENDBRANCH  13  14
ENDBRANCH  11  13
ENDBRANCH   3  11
ENDBRANCH   1   3
TORSDOF 6
ENDMDL
MODEL 5
REMARK VINA RESULT:      -5.6      1.548      2.264
REMARK  6 active torsions:
REMARK  status: ('A' for Active; 'I' for Inactive)
REMARK    1  A    between atoms: O_1  and  C_5 
REMARK    2  A    between atoms: O_2  and  C_7 
REMARK    3  A    between atoms: O_2  and  C_13 
REMARK    4  A    between atoms: C_4  and  C_5 
REMARK    5  A    between atoms: C_4  and  C_6 
REMARK    6  A    between atoms: C_5  and  C_7 
ROOT
HETATM    1  O   UNL     1     -53.321  50.012   7.967  1.00  0.00    -0.385 OA
HETATM    2  H   UNL     1     -53.992  50.595   8.353  1.00  0.00     0.210 HD
ENDROOT
BRANCH   1   3
HETATM    3  C   UNL     1     -53.173  48.856   8.781  1.00  0.00     0.221 C 
BRANCH   3   4
HETATM    4  C   UNL     1     -54.124  48.969   9.975  1.00  0.00     0.080 C 
BRANCH   4   5
HETATM    5  C   UNL     1     -53.481  48.503  11.259  1.00  0.00    -0.055 A 
HETATM    6  C   UNL     1     -52.842  47.273  11.290  1.00  0.00     0.007 A 
HETATM    7  C   UNL     1     -52.248  46.841  12.476  1.00  0.00     0.001 A 
HETATM    8  C   UNL     1     -52.302  47.645  13.615  1.00  0.00     0.000 A 
HETATM    9  C   UNL     1     -52.948  48.879  13.568  1.00  0.00     0.001 A 
HETATM   10  C   UNL     1     -53.542  49.311  12.382  1.00  0.00     0.007 A 
ENDBRANCH   4   5
ENDBRANCH   3   4
BRANCH   3  11
HETATM   11  C   UNL     1     -53.516  47.647   7.932  1.00  0.00     0.288 C 
HETATM   12  O   UNL     1     -54.563  47.018   8.007  1.00  0.00    -0.262 OA
BRANCH  11  13
HETATM   13  O   UNL     1     -52.493  47.393   7.063  1.00  0.00    -0.320 OA
BRANCH  13  14
HETATM   14  C   UNL     1     -52.782  46.444   6.031  1.00  0.00     0.174 C 
HETATM   15  C   UNL     1     -52.010  45.170   6.305  1.00  0.00     0.034 C 
ENDBRANCH  13  14
ENDBRANCH  11  13
ENDBRANCH   3  11
ENDBRANCH   1   3
TORSDOF 6
ENDMDL
MODEL 6
REMARK VINA RESULT:      -5.6      1.329      2.053
REMARK  6 active torsions:
REMARK  status: ('A' for Active; 'I' for Inactive)
REMARK    1  A    between atoms: O_1  and  C_5 
REMARK    2  A    between atoms: O_2  and  C_7 
REMARK    3  A    between atoms: O_2  and  C_13 
REMARK    4  A    between atoms: C_4  and  C_5 
REMARK    5  A    between atoms: C_4  and  C_6 
REMARK    6  A    between atoms: C_5  and  C_7 
ROOT
HETATM    1  O   UNL     1     -53.777  47.344   6.698  1.00  0.00    -0.385 OA
HETATM    2  H   UNL     1     -53.732  46.646   6.026  1.00  0.00     0.210 HD
ENDROOT
BRANCH   1   3
HETATM    3  C   UNL     1     -53.467  46.796   7.972  1.00  0.00     0.221 C 
BRANCH   3   4
HETATM    4  C   UNL     1     -54.569  47.190   8.959  1.00  0.00     0.080 C 
BRANCH   4   5
HETATM    5  C   UNL     1     -54.149  48.330   9.854  1.00  0.00    -0.055 A 
HETATM    6  C   UNL     1     -54.000  49.598   9.313  1.00  0.00     0.007 A 
HETATM    7  C   UNL     1     -53.611  50.653  10.140  1.00  0.00     0.001 A 
HETATM    8  C   UNL     1     -53.377  50.425  11.496  1.00  0.00     0.000 A 
HETATM    9  C   UNL     1     -53.530  49.144  12.026  1.00  0.00     0.001 A 
HETATM   10  C   UNL     1     -53.919  48.090  11.199  1.00  0.00     0.007 A 
ENDBRANCH   4   5
ENDBRANCH   3   4
BRANCH   3  11
HETATM   11  C   UNL     1     -53.393  45.290   7.820  1.00  0.00     0.288 C 
HETATM   12  O   UNL     1     -52.370  44.665   7.572  1.00  0.00    -0.262 OA
BRANCH  11  13
HETATM   13  O   UNL     1     -54.629  44.747   8.027  1.00  0.00    -0.320 OA
BRANCH  13  14
HETATM   14  C   UNL     1     -54.640  43.463   8.661  1.00  0.00     0.174 C 
HETATM   15  C   UNL     1     -56.011  42.843   8.490  1.00  0.00     0.034 C 
ENDBRANCH  13  14
ENDBRANCH  11  13
ENDBRANCH   3  11
ENDBRANCH   1   3
TORSDOF 6
ENDMDL
MODEL 7
REMARK VINA RESULT:      -5.6      1.259      2.388
REMARK  6 active torsions:
REMARK  status: ('A' for Active; 'I' for Inactive)
REMARK    1  A    between atoms: O_1  and  C_5 
REMARK    2  A    between atoms: O_2  and  C_7 
REMARK    3  A    between atoms: O_2  and  C_13 
REMARK    4  A    between atoms: C_4  and  C_5 
REMARK    5  A    between atoms: C_4  and  C_6 
REMARK    6  A    between atoms: C_5  and  C_7 
ROOT
HETATM    1  O   UNL     1     -54.460  45.524   8.018  1.00  0.00    -0.385 OA
HETATM    2  H   UNL     1     -54.063  44.890   7.401  1.00  0.00     0.210 HD
ENDROOT
BRANCH   1   3
HETATM    3  C   UNL     1     -53.715  46.734   7.999  1.00  0.00     0.221 C 
BRANCH   3   4
HETATM    4  C   UNL     1     -52.863  46.808   9.269  1.00  0.00     0.080 C 
BRANCH   4   5
HETATM    5  C   UNL     1     -53.108  48.081  10.043  1.00  0.00    -0.055 A 
HETATM    6  C   UNL     1     -53.477  49.230   9.361  1.00  0.00     0.007 A 
HETATM    7  C   UNL     1     -53.703  50.406  10.076  1.00  0.00     0.001 A 
HETATM    8  C   UNL     1     -53.557  50.417  11.463  1.00  0.00     0.000 A 
HETATM    9  C   UNL     1     -53.186  49.254  12.136  1.00  0.00     0.001 A 
HETATM   10  C   UNL     1     -52.960  48.077  11.421  1.00  0.00     0.007 A 
ENDBRANCH   4   5
ENDBRANCH   3   4
BRANCH   3  11
HETATM   11  C   UNL     1     -52.838  46.716   6.762  1.00  0.00     0.288 C 
HETATM   12  O   UNL     1     -51.843  47.411   6.605  1.00  0.00    -0.262 OA
BRANCH  11  13
HETATM   13  O   UNL     1     -53.315  45.793   5.876  1.00  0.00    -0.320 OA
BRANCH  13  14
HETATM   14  C   UNL     1     -52.321  45.082   5.130  1.00  0.00     0.174 C 
HETATM   15  C   UNL     1     -51.668  44.057   6.034  1.00  0.00     0.034 C 
ENDBRANCH  13  14
ENDBRANCH  11  13
ENDBRANCH   3  11
ENDBRANCH   1   3
TORSDOF 6
ENDMDL
MODEL 8
REMARK VINA RESULT:      -5.6      1.515      2.247
REMARK  6 active torsions:
REMARK  status: ('A' for Active; 'I' for Inactive)
REMARK    1  A    between atoms: O_1  and  C_5 
REMARK    2  A    between atoms: O_2  and  C_7 
REMARK    3  A    between atoms: O_2  and  C_13 
REMARK    4  A    between atoms: C_4  and  C_5 
REMARK    5  A    between atoms: C_4  and  C_6 
REMARK    6  A    between atoms: C_5  and  C_7 
ROOT
HETATM    1  O   UNL     1     -55.419  46.162   8.835  1.00  0.00    -0.385 OA
HETATM    2  H   UNL     1     -55.718  45.513   8.179  1.00  0.00     0.210 HD
ENDROOT
BRANCH   1   3
HETATM    3  C   UNL     1     -54.081  46.545   8.546  1.00  0.00     0.221 C 
BRANCH   3   4
HETATM    4  C   UNL     1     -53.327  46.735   9.865  1.00  0.00     0.080 C 
BRANCH   4   5
HETATM    5  C   UNL     1     -53.395  48.161  10.356  1.00  0.00    -0.055 A 
HETATM    6  C   UNL     1     -53.696  49.174   9.459  1.00  0.00     0.007 A 
HETATM    7  C   UNL     1     -53.758  50.492   9.913  1.00  0.00     0.001 A 
HETATM    8  C   UNL     1     -53.518  50.779  11.257  1.00  0.00     0.000 A 
HETATM    9  C   UNL     1     -53.216  49.749  12.147  1.00  0.00     0.001 A 
HETATM   10  C   UNL     1     -53.154  48.431  11.693  1.00  0.00     0.007 A 
ENDBRANCH   4   5
ENDBRANCH   3   4
BRANCH   3  11
HETATM   11  C   UNL     1     -53.453  45.438   7.721  1.00  0.00     0.288 C 
HETATM   12  O   UNL     1     -53.624  45.284   6.519  1.00  0.00    -0.262 OA
BRANCH  11  13
HETATM   13  O   UNL     1     -52.656  44.668   8.519  1.00  0.00    -0.320 OA
BRANCH  13  14
HETATM   14  C   UNL     1     -52.906  43.259   8.464  1.00  0.00     0.174 C 
HETATM   15  C   UNL     1     -54.078  42.931   9.365  1.00  0.00     0.034 C 
ENDBRANCH  13  14
ENDBRANCH  11  13
ENDBRANCH   3  11
ENDBRANCH   1   3
TORSDOF 6
ENDMDL
MODEL 9
REMARK VINA RESULT:      -5.5      1.457      1.971
REMARK  6 active torsions:
REMARK  status: ('A' for Active; 'I' for Inactive)
REMARK    1  A    between atoms: O_1  and  C_5 
REMARK    2  A    between atoms: O_2  and  C_7 
REMARK    3  A    between atoms: O_2  and  C_13 
REMARK    4  A    between atoms: C_4  and  C_5 
REMARK    5  A    between atoms: C_4  and  C_6 
REMARK    6  A    between atoms: C_5  and  C_7 
ROOT
HETATM    1  O   UNL     1     -52.039  48.126   6.702  1.00  0.00    -0.385 OA
HETATM    2  H   UNL     1     -51.558  47.685   5.984  1.00  0.00     0.210 HD
ENDROOT
BRANCH   1   3
HETATM    3  C   UNL     1     -52.515  47.153   7.622  1.00  0.00     0.221 C 
BRANCH   3   4
HETATM    4  C   UNL     1     -53.830  47.649   8.228  1.00  0.00     0.080 C 
BRANCH   4   5
HETATM    5  C   UNL     1     -53.616  48.371   9.536  1.00  0.00    -0.055 A 
HETATM    6  C   UNL     1     -53.239  47.647  10.657  1.00  0.00     0.007 A 
HETATM    7  C   UNL     1     -53.041  48.314  11.866  1.00  0.00     0.001 A 
HETATM    8  C   UNL     1     -53.223  49.695  11.938  1.00  0.00     0.000 A 
HETATM    9  C   UNL     1     -53.602  50.410  10.802  1.00  0.00     0.001 A 
HETATM   10  C   UNL     1     -53.800  49.743   9.593  1.00  0.00     0.007 A 
ENDBRANCH   4   5
ENDBRANCH   3   4
BRANCH   3  11
HETATM   11  C   UNL     1     -52.727  45.861   6.857  1.00  0.00     0.288 C 
HETATM   12  O   UNL     1     -53.798  45.277   6.762  1.00  0.00    -0.262 OA
BRANCH  11  13
HETATM   13  O   UNL     1     -51.552  45.474   6.279  1.00  0.00    -0.320 OA
BRANCH  13  14
HETATM   14  C   UNL     1     -51.665  44.923   4.962  1.00  0.00     0.174 C 
HETATM   15  C   UNL     1     -51.162  43.495   4.980  1.00  0.00     0.034 C 
ENDBRANCH  13  14
ENDBRANCH  11  13
ENDBRANCH   3  11
ENDBRANCH   1   3
TORSDOF 6
ENDMDL
