MODEL 1
REMARK VINA RESULT:      -9.1      0.000      0.000
REMARK  4 active torsions:
REMARK  status: ('A' for Active; 'I' for Inactive)
REMARK    1  A    between atoms: O_1  and  C_5 
REMARK    2  A    between atoms: O_1  and  C_14 
REMARK    3  A    between atoms: O_2  and  C_18 
REMARK    4  A    between atoms: C_10  and  C_13 
ROOT
HETATM    1  O   UNL     1      22.098  -5.283  33.747  1.00  0.00    -0.343 OA
ENDROOT
BRANCH   1   2
HETATM    2  C   UNL     1      21.888  -6.508  33.056  1.00  0.00     0.129 C 
HETATM    3  C   UNL     1      21.168  -7.488  33.970  1.00  0.00     0.032 C 
HETATM    4  C   UNL     1      22.266  -8.045  34.874  1.00  0.00     0.002 C 
HETATM    5  C   UNL     1      23.583  -7.833  34.129  1.00  0.00     0.002 C 
HETATM    6  C   UNL     1      23.215  -7.200  32.789  1.00  0.00     0.032 C 
ENDBRANCH   1   2
BRANCH   1   7
HETATM    7  C   UNL     1      21.805  -4.131  33.065  1.00  0.00     0.103 A 
HETATM    8  C   UNL     1      21.381  -4.215  31.742  1.00  0.00     0.047 A 
HETATM    9  C   UNL     1      21.081  -3.050  31.037  1.00  0.00    -0.049 A 
HETATM   10  C   UNL     1      21.206  -1.807  31.657  1.00  0.00     0.010 A 
HETATM   11  C   UNL     1      21.630  -1.730  32.984  1.00  0.00     0.040 A 
HETATM   12  C   UNL     1      21.931  -2.895  33.689  1.00  0.00     0.101 A 
BRANCH   9  13
HETATM   13  C   UNL     1      20.620  -3.135  29.599  1.00  0.00     0.045 C 
HETATM   14  C   UNL     1      21.611  -2.629  28.549  1.00  0.00     0.132 C 
HETATM   15  N   UNL     1      20.785  -2.323  27.416  1.00  0.00    -0.360 N 
HETATM   16  C   UNL     1      19.454  -2.130  27.763  1.00  0.00     0.218 C 
HETATM   17  H   UNL     1      21.124  -2.257  26.494  1.00  0.00     0.162 HD
HETATM   18  O   UNL     1      18.533  -1.817  27.025  1.00  0.00    -0.274 OA
HETATM   19  C   UNL     1      19.351  -2.330  29.254  1.00  0.00     0.113 C 
ENDBRANCH   9  13
BRANCH  12  20
HETATM   20  O   UNL     1      22.347  -2.806  34.984  1.00  0.00    -0.353 OA
HETATM   21  C   UNL     1      22.033  -1.603  35.683  1.00  0.00     0.210 C 
ENDBRANCH  12  20
ENDBRANCH   1   7
TORSDOF 4
ENDMDL
MODEL 2
REMARK VINA RESULT:      -8.9      1.024      1.251
REMARK  4 active torsions:
REMARK  status: ('A' for Active; 'I' for Inactive)
REMARK    1  A    between atoms: O_1  and  C_5 
REMARK    2  A    between atoms: O_1  and  C_14 
REMARK    3  A    between atoms: O_2  and  C_18 
REMARK    4  A    between atoms: C_10  and  C_13 
ROOT
HETATM    1  O   UNL     1      22.236  -5.195  33.783  1.00  0.00    -0.343 OA
ENDROOT
BRANCH   1   2
HETATM    2  C   UNL     1      21.952  -6.384  33.057  1.00  0.00     0.129 C 
HETATM    3  C   UNL     1      21.161  -7.339  33.937  1.00  0.00     0.032 C 
HETATM    4  C   UNL     1      22.211  -7.992  34.834  1.00  0.00     0.002 C 
HETATM    5  C   UNL     1      23.546  -7.848  34.105  1.00  0.00     0.002 C 
HETATM    6  C   UNL     1      23.234  -7.155  32.780  1.00  0.00     0.032 C 
ENDBRANCH   1   2
BRANCH   1   7
HETATM    7  C   UNL     1      21.912  -4.010  33.178  1.00  0.00     0.103 A 
HETATM    8  C   UNL     1      21.510  -4.015  31.846  1.00  0.00     0.047 A 
HETATM    9  C   UNL     1      21.179  -2.816  31.219  1.00  0.00    -0.049 A 
HETATM   10  C   UNL     1      21.251  -1.615  31.925  1.00  0.00     0.010 A 
HETATM   11  C   UNL     1      21.654  -1.616  33.261  1.00  0.00     0.040 A 
HETATM   12  C   UNL     1      21.986  -2.817  33.888  1.00  0.00     0.101 A 
BRANCH   9  13
HETATM   13  C   UNL     1      20.741  -2.815  29.770  1.00  0.00     0.045 C 
HETATM   14  C   UNL     1      19.282  -2.434  29.514  1.00  0.00     0.132 C 
HETATM   15  N   UNL     1      18.998  -3.006  28.229  1.00  0.00    -0.360 N 
HETATM   16  C   UNL     1      19.876  -4.028  27.895  1.00  0.00     0.218 C 
HETATM   17  H   UNL     1      18.261  -2.706  27.648  1.00  0.00     0.162 HD
HETATM   18  O   UNL     1      19.856  -4.726  26.892  1.00  0.00    -0.274 OA
HETATM   19  C   UNL     1      20.852  -4.166  29.036  1.00  0.00     0.113 C 
ENDBRANCH   9  13
BRANCH  12  20
HETATM   20  O   UNL     1      22.380  -2.804  35.193  1.00  0.00    -0.353 OA
HETATM   21  C   UNL     1      22.368  -1.544  35.860  1.00  0.00     0.210 C 
ENDBRANCH  12  20
ENDBRANCH   1   7
TORSDOF 4
ENDMDL
MODEL 3
REMARK VINA RESULT:      -8.6      1.172      3.957
REMARK  4 active torsions:
REMARK  status: ('A' for Active; 'I' for Inactive)
REMARK    1  A    between atoms: O_1  and  C_5 
REMARK    2  A    between atoms: O_1  and  C_14 
REMARK    3  A    between atoms: O_2  and  C_18 
REMARK    4  A    between atoms: C_10  and  C_13 
ROOT
HETATM    1  O   UNL     1      22.114  -3.559  33.983  1.00  0.00    -0.343 OA
ENDROOT
BRANCH   1   2
HETATM    2  C   UNL     1      21.778  -2.185  33.832  1.00  0.00     0.129 C 
HETATM    3  C   UNL     1      23.052  -1.362  33.714  1.00  0.00     0.032 C 
HETATM    4  C   UNL     1      23.543  -1.209  35.152  1.00  0.00     0.002 C 
HETATM    5  C   UNL     1      22.323  -1.424  36.047  1.00  0.00     0.002 C 
HETATM    6  C   UNL     1      21.142  -1.651  35.106  1.00  0.00     0.032 C 
ENDBRANCH   1   2
BRANCH   1   7
HETATM    7  C   UNL     1      22.119  -4.322  32.846  1.00  0.00     0.103 A 
HETATM    8  C   UNL     1      21.640  -3.775  31.660  1.00  0.00     0.047 A 
HETATM    9  C   UNL     1      21.638  -4.543  30.496  1.00  0.00    -0.049 A 
HETATM   10  C   UNL     1      22.115  -5.853  30.523  1.00  0.00     0.010 A 
HETATM   11  C   UNL     1      22.594  -6.395  31.716  1.00  0.00     0.040 A 
HETATM   12  C   UNL     1      22.595  -5.628  32.880  1.00  0.00     0.101 A 
BRANCH   9  13
HETATM   13  C   UNL     1      21.119  -3.954  29.202  1.00  0.00     0.045 C 
HETATM   14  C   UNL     1      21.374  -2.459  29.000  1.00  0.00     0.132 C 
HETATM   15  N   UNL     1      20.379  -2.068  28.042  1.00  0.00    -0.360 N 
HETATM   16  C   UNL     1      19.311  -2.953  27.991  1.00  0.00     0.218 C 
HETATM   17  H   UNL     1      20.447  -1.260  27.483  1.00  0.00     0.162 HD
HETATM   18  O   UNL     1      18.302  -2.860  27.309  1.00  0.00    -0.274 OA
HETATM   19  C   UNL     1      19.596  -4.051  28.986  1.00  0.00     0.113 C 
ENDBRANCH   9  13
BRANCH  12  20
HETATM   20  O   UNL     1      23.064  -6.170  34.039  1.00  0.00    -0.353 OA
HETATM   21  C   UNL     1      23.401  -7.556  34.016  1.00  0.00     0.210 C 
ENDBRANCH  12  20
ENDBRANCH   1   7
TORSDOF 4
ENDMDL
MODEL 4
REMARK VINA RESULT:      -7.9      2.774      6.468
REMARK  4 active torsions:
REMARK  status: ('A' for Active; 'I' for Inactive)
REMARK    1  A    between atoms: O_1  and  C_5 
REMARK    2  A    between atoms: O_1  and  C_14 
REMARK    3  A    between atoms: O_2  and  C_18 
REMARK    4  A    between atoms: C_10  and  C_13 
ROOT
HETATM    1  O   UNL     1      20.853  -3.827  28.387  1.00  0.00    -0.343 OA
ENDROOT
BRANCH   1   2
HETATM    2  C   UNL     1      19.522  -3.330  28.334  1.00  0.00     0.129 C 
HETATM    3  C   UNL     1      18.577  -4.344  28.961  1.00  0.00     0.032 C 
HETATM    4  C   UNL     1      18.359  -5.390  27.869  1.00  0.00     0.002 C 
HETATM    5  C   UNL     1      18.686  -4.701  26.544  1.00  0.00     0.002 C 
HETATM    6  C   UNL     1      19.041  -3.257  26.893  1.00  0.00     0.032 C 
ENDBRANCH   1   2
BRANCH   1   7
HETATM    7  C   UNL     1      21.311  -4.236  29.612  1.00  0.00     0.103 A 
HETATM    8  C   UNL     1      21.138  -3.403  30.713  1.00  0.00     0.047 A 
HETATM    9  C   UNL     1      21.601  -3.807  31.965  1.00  0.00    -0.049 A 
HETATM   10  C   UNL     1      22.235  -5.041  32.110  1.00  0.00     0.010 A 
HETATM   11  C   UNL     1      22.404  -5.872  31.002  1.00  0.00     0.040 A 
HETATM   12  C   UNL     1      21.942  -5.467  29.750  1.00  0.00     0.101 A 
BRANCH   9  13
HETATM   13  C   UNL     1      21.417  -2.906  33.167  1.00  0.00     0.045 C 
HETATM   14  C   UNL     1      21.843  -1.449  32.980  1.00  0.00     0.132 C 
HETATM   15  N   UNL     1      22.070  -0.983  34.319  1.00  0.00    -0.360 N 
HETATM   16  C   UNL     1      22.292  -2.022  35.213  1.00  0.00     0.218 C 
HETATM   17  H   UNL     1      22.069  -0.033  34.574  1.00  0.00     0.162 HD
HETATM   18  O   UNL     1      22.556  -1.933  36.402  1.00  0.00    -0.274 OA
HETATM   19  C   UNL     1      22.200  -3.309  34.431  1.00  0.00     0.113 C 
ENDBRANCH   9  13
BRANCH  12  20
HETATM   20  O   UNL     1      22.115  -6.287  28.675  1.00  0.00    -0.353 OA
HETATM   21  C   UNL     1      23.403  -6.289  28.063  1.00  0.00     0.210 C 
ENDBRANCH  12  20
ENDBRANCH   1   7
TORSDOF 4
ENDMDL
MODEL 5
REMARK VINA RESULT:      -7.5      1.807      2.097
REMARK  4 active torsions:
REMARK  status: ('A' for Active; 'I' for Inactive)
REMARK    1  A    between atoms: O_1  and  C_5 
REMARK    2  A    between atoms: O_1  and  C_14 
REMARK    3  A    between atoms: O_2  and  C_18 
REMARK    4  A    between atoms: C_10  and  C_13 
ROOT
HETATM    1  O   UNL     1      22.395  -5.394  32.239  1.00  0.00    -0.343 OA
ENDROOT
BRANCH   1   2
HETATM    2  C   UNL     1      21.972  -6.745  32.108  1.00  0.00     0.129 C 
HETATM    3  C   UNL     1      21.596  -7.293  33.477  1.00  0.00     0.032 C 
HETATM    4  C   UNL     1      22.932  -7.647  34.127  1.00  0.00     0.002 C 
HETATM    5  C   UNL     1      23.929  -7.833  32.984  1.00  0.00     0.002 C 
HETATM    6  C   UNL     1      23.138  -7.628  31.694  1.00  0.00     0.032 C 
ENDBRANCH   1   2
BRANCH   1   7
HETATM    7  C   UNL     1      21.662  -4.449  31.571  1.00  0.00     0.103 A 
HETATM    8  C   UNL     1      21.234  -4.715  30.274  1.00  0.00     0.047 A 
HETATM    9  C   UNL     1      20.489  -3.762  29.583  1.00  0.00    -0.049 A 
HETATM   10  C   UNL     1      20.174  -2.546  30.190  1.00  0.00     0.010 A 
HETATM   11  C   UNL     1      20.605  -2.286  31.491  1.00  0.00     0.040 A 
HETATM   12  C   UNL     1      21.351  -3.240  32.183  1.00  0.00     0.101 A 
BRANCH   9  13
HETATM   13  C   UNL     1      20.021  -4.045  28.171  1.00  0.00     0.045 C 
HETATM   14  C   UNL     1      19.200  -2.938  27.506  1.00  0.00     0.132 C 
HETATM   15  N   UNL     1      18.468  -3.624  26.479  1.00  0.00    -0.360 N 
HETATM   16  C   UNL     1      18.369  -4.989  26.716  1.00  0.00     0.218 C 
HETATM   17  H   UNL     1      18.080  -3.176  25.693  1.00  0.00     0.162 HD
HETATM   18  O   UNL     1      17.773  -5.817  26.045  1.00  0.00    -0.274 OA
HETATM   19  C   UNL     1      19.101  -5.270  28.005  1.00  0.00     0.113 C 
ENDBRANCH   9  13
BRANCH  12  20
HETATM   20  O   UNL     1      21.768  -2.973  33.453  1.00  0.00    -0.353 OA
HETATM   21  C   UNL     1      21.467  -1.680  33.974  1.00  0.00     0.210 C 
ENDBRANCH  12  20
ENDBRANCH   1   7
TORSDOF 4
ENDMDL
MODEL 6
REMARK VINA RESULT:      -7.4      2.527      3.795
REMARK  4 active torsions:
REMARK  status: ('A' for Active; 'I' for Inactive)
REMARK    1  A    between atoms: O_1  and  C_5 
REMARK    2  A    between atoms: O_1  and  C_14 
REMARK    3  A    between atoms: O_2  and  C_18 
REMARK    4  A    between atoms: C_10  and  C_13 
ROOT
HETATM    1  O   UNL     1      23.233  -7.901  30.923  1.00  0.00    -0.343 OA
ENDROOT
BRANCH   1   2
HETATM    2  C   UNL     1      24.348  -7.821  30.045  1.00  0.00     0.129 C 
HETATM    3  C   UNL     1      23.997  -8.479  28.719  1.00  0.00     0.032 C 
HETATM    4  C   UNL     1      24.157  -9.975  28.981  1.00  0.00     0.002 C 
HETATM    5  C   UNL     1      25.092 -10.103  30.182  1.00  0.00     0.002 C 
HETATM    6  C   UNL     1      25.492  -8.679  30.561  1.00  0.00     0.032 C 
ENDBRANCH   1   2
BRANCH   1   7
HETATM    7  C   UNL     1      22.770  -6.721  31.443  1.00  0.00     0.103 A 
HETATM    8  C   UNL     1      22.203  -5.780  30.589  1.00  0.00     0.047 A 
HETATM    9  C   UNL     1      21.729  -4.575  31.106  1.00  0.00    -0.049 A 
HETATM   10  C   UNL     1      21.825  -4.315  32.473  1.00  0.00     0.010 A 
HETATM   11  C   UNL     1      22.394  -5.263  33.323  1.00  0.00     0.040 A 
HETATM   12  C   UNL     1      22.869  -6.468  32.807  1.00  0.00     0.101 A 
BRANCH   9  13
HETATM   13  C   UNL     1      21.111  -3.547  30.183  1.00  0.00     0.045 C 
HETATM   14  C   UNL     1      20.258  -2.471  30.858  1.00  0.00     0.132 C 
HETATM   15  N   UNL     1      19.406  -1.997  29.805  1.00  0.00    -0.360 N 
HETATM   16  C   UNL     1      19.292  -2.907  28.761  1.00  0.00     0.218 C 
HETATM   17  H   UNL     1      18.952  -1.124  29.820  1.00  0.00     0.162 HD
HETATM   18  O   UNL     1      18.606  -2.801  27.757  1.00  0.00    -0.274 OA
HETATM   19  C   UNL     1      20.143  -4.100  29.118  1.00  0.00     0.113 C 
ENDBRANCH   9  13
BRANCH  12  20
HETATM   20  O   UNL     1      23.424  -7.385  33.648  1.00  0.00    -0.353 OA
HETATM   21  C   UNL     1      22.560  -7.991  34.607  1.00  0.00     0.210 C 
ENDBRANCH  12  20
ENDBRANCH   1   7
TORSDOF 4
ENDMDL
MODEL 7
REMARK VINA RESULT:      -7.3      3.008      6.126
REMARK  4 active torsions:
REMARK  status: ('A' for Active; 'I' for Inactive)
REMARK    1  A    between atoms: O_1  and  C_5 
REMARK    2  A    between atoms: O_1  and  C_14 
REMARK    3  A    between atoms: O_2  and  C_18 
REMARK    4  A    between atoms: C_10  and  C_13 
ROOT
HETATM    1  O   UNL     1      21.702  -3.344  33.931  1.00  0.00    -0.343 OA
ENDROOT
BRANCH   1   2
HETATM    2  C   UNL     1      21.656  -1.935  33.740  1.00  0.00     0.129 C 
HETATM    3  C   UNL     1      23.072  -1.382  33.701  1.00  0.00     0.032 C 
HETATM    4  C   UNL     1      23.488  -1.292  35.168  1.00  0.00     0.002 C 
HETATM    5  C   UNL     1      22.193  -1.241  35.978  1.00  0.00     0.002 C 
HETATM    6  C   UNL     1      21.055  -1.255  34.960  1.00  0.00     0.032 C 
ENDBRANCH   1   2
BRANCH   1   7
HETATM    7  C   UNL     1      21.781  -4.118  32.803  1.00  0.00     0.103 A 
HETATM    8  C   UNL     1      22.404  -5.359  32.875  1.00  0.00     0.047 A 
HETATM    9  C   UNL     1      22.491  -6.156  31.734  1.00  0.00    -0.049 A 
HETATM   10  C   UNL     1      21.956  -5.707  30.527  1.00  0.00     0.010 A 
HETATM   11  C   UNL     1      21.331  -4.462  30.462  1.00  0.00     0.040 A 
HETATM   12  C   UNL     1      21.245  -3.664  31.603  1.00  0.00     0.101 A 
BRANCH   9  13
HETATM   13  C   UNL     1      23.168  -7.508  31.805  1.00  0.00     0.045 C 
HETATM   14  C   UNL     1      23.953  -7.795  33.086  1.00  0.00     0.132 C 
HETATM   15  N   UNL     1      24.878  -8.821  32.699  1.00  0.00    -0.360 N 
HETATM   16  C   UNL     1      25.083  -8.864  31.327  1.00  0.00     0.218 C 
HETATM   17  H   UNL     1      25.320  -9.427  33.337  1.00  0.00     0.162 HD
HETATM   18  O   UNL     1      25.844  -9.596  30.712  1.00  0.00    -0.274 OA
HETATM   19  C   UNL     1      24.221  -7.788  30.715  1.00  0.00     0.113 C 
ENDBRANCH   9  13
BRANCH  12  20
HETATM   20  O   UNL     1      20.634  -2.449  31.526  1.00  0.00    -0.353 OA
HETATM   21  C   UNL     1      19.702  -2.258  30.463  1.00  0.00     0.210 C 
ENDBRANCH  12  20
ENDBRANCH   1   7
TORSDOF 4
ENDMDL
MODEL 8
REMARK VINA RESULT:      -7.3      3.008      6.228
REMARK  4 active torsions:
REMARK  status: ('A' for Active; 'I' for Inactive)
REMARK    1  A    between atoms: O_1  and  C_5 
REMARK    2  A    between atoms: O_1  and  C_14 
REMARK    3  A    between atoms: O_2  and  C_18 
REMARK    4  A    between atoms: C_10  and  C_13 
ROOT
HETATM    1  O   UNL     1      20.709  -3.290  30.113  1.00  0.00    -0.343 OA
ENDROOT
BRANCH   1   2
HETATM    2  C   UNL     1      20.671  -3.895  28.827  1.00  0.00     0.129 C 
HETATM    3  C   UNL     1      21.660  -3.193  27.908  1.00  0.00     0.032 C 
HETATM    4  C   UNL     1      20.935  -1.923  27.466  1.00  0.00     0.002 C 
HETATM    5  C   UNL     1      19.443  -2.193  27.653  1.00  0.00     0.002 C 
HETATM    6  C   UNL     1      19.332  -3.631  28.156  1.00  0.00     0.032 C 
ENDBRANCH   1   2
BRANCH   1   7
HETATM    7  C   UNL     1      21.324  -3.998  31.111  1.00  0.00     0.103 A 
HETATM    8  C   UNL     1      21.825  -5.266  30.833  1.00  0.00     0.047 A 
HETATM    9  C   UNL     1      22.452  -5.998  31.841  1.00  0.00    -0.049 A 
HETATM   10  C   UNL     1      22.576  -5.459  33.121  1.00  0.00     0.010 A 
HETATM   11  C   UNL     1      22.073  -4.187  33.393  1.00  0.00     0.040 A 
HETATM   12  C   UNL     1      21.444  -3.455  32.385  1.00  0.00     0.101 A 
BRANCH   9  13
HETATM   13  C   UNL     1      23.000  -7.377  31.545  1.00  0.00     0.045 C 
HETATM   14  C   UNL     1      24.057  -7.899  32.520  1.00  0.00     0.132 C 
HETATM   15  N   UNL     1      24.757  -8.899  31.765  1.00  0.00    -0.360 N 
HETATM   16  C   UNL     1      24.599  -8.739  30.394  1.00  0.00     0.218 C 
HETATM   17  H   UNL     1      25.290  -9.618  32.173  1.00  0.00     0.162 HD
HETATM   18  O   UNL     1      25.108  -9.405  29.506  1.00  0.00    -0.274 OA
HETATM   19  C   UNL     1      23.710  -7.539  30.187  1.00  0.00     0.113 C 
ENDBRANCH   9  13
BRANCH  12  20
HETATM   20  O   UNL     1      20.955  -2.214  32.664  1.00  0.00    -0.353 OA
HETATM   21  C   UNL     1      21.349  -1.626  33.903  1.00  0.00     0.210 C 
ENDBRANCH  12  20
ENDBRANCH   1   7
TORSDOF 4
ENDMDL
MODEL 9
REMARK VINA RESULT:      -7.3      2.867      5.447
REMARK  4 active torsions:
REMARK  status: ('A' for Active; 'I' for Inactive)
REMARK    1  A    between atoms: O_1  and  C_5 
REMARK    2  A    between atoms: O_1  and  C_14 
REMARK    3  A    between atoms: O_2  and  C_18 
REMARK    4  A    between atoms: C_10  and  C_13 
ROOT
HETATM    1  O   UNL     1      22.304  -5.966  29.203  1.00  0.00    -0.343 OA
ENDROOT
BRANCH   1   2
HETATM    2  C   UNL     1      22.028  -7.208  29.838  1.00  0.00     0.129 C 
HETATM    3  C   UNL     1      23.143  -7.534  30.820  1.00  0.00     0.032 C 
HETATM    4  C   UNL     1      24.268  -8.091  29.949  1.00  0.00     0.002 C 
HETATM    5  C   UNL     1      23.609  -8.586  28.662  1.00  0.00     0.002 C 
HETATM    6  C   UNL     1      22.110  -8.347  28.835  1.00  0.00     0.032 C 
ENDBRANCH   1   2
BRANCH   1   7
HETATM    7  C   UNL     1      21.474  -4.919  29.505  1.00  0.00     0.103 A 
HETATM    8  C   UNL     1      21.657  -4.233  30.702  1.00  0.00     0.047 A 
HETATM    9  C   UNL     1      20.818  -3.167  31.022  1.00  0.00    -0.049 A 
HETATM   10  C   UNL     1      19.801  -2.791  30.146  1.00  0.00     0.010 A 
HETATM   11  C   UNL     1      19.623  -3.482  28.947  1.00  0.00     0.040 A 
HETATM   12  C   UNL     1      20.462  -4.550  28.627  1.00  0.00     0.101 A 
BRANCH   9  13
HETATM   13  C   UNL     1      21.012  -2.416  32.322  1.00  0.00     0.045 C 
HETATM   14  C   UNL     1      21.895  -1.169  32.247  1.00  0.00     0.132 C 
HETATM   15  N   UNL     1      22.335  -0.979  33.600  1.00  0.00    -0.360 N 
HETATM   16  C   UNL     1      22.240  -2.137  34.359  1.00  0.00     0.218 C 
HETATM   17  H   UNL     1      22.669  -0.121  33.950  1.00  0.00     0.162 HD
HETATM   18  O   UNL     1      22.581  -2.293  35.522  1.00  0.00    -0.274 OA
HETATM   19  C   UNL     1      21.678  -3.211  33.462  1.00  0.00     0.113 C 
ENDBRANCH   9  13
BRANCH  12  20
HETATM   20  O   UNL     1      20.277  -5.218  27.454  1.00  0.00    -0.353 OA
HETATM   21  C   UNL     1      18.979  -5.150  26.867  1.00  0.00     0.210 C 
ENDBRANCH  12  20
ENDBRANCH   1   7
TORSDOF 4
ENDMDL
