MODEL 1
REMARK VINA RESULT:      -9.1      0.000      0.000
REMARK  4 active torsions:
REMARK  status: ('A' for Active; 'I' for Inactive)
REMARK    1  A    between atoms: O_1  and  C_5 
REMARK    2  A    between atoms: O_1  and  C_14 
REMARK    3  A    between atoms: O_2  and  C_18 
REMARK    4  A    between atoms: C_10  and  C_13 
ROOT
HETATM    1  O   UNL     1      22.093  -5.284  33.750  1.00  0.00    -0.343 OA
ENDROOT
BRANCH   1   2
HETATM    2  C   UNL     1      21.885  -6.508  33.058  1.00  0.00     0.129 C 
HETATM    3  C   UNL     1      21.165  -7.489  33.970  1.00  0.00     0.032 C 
HETATM    4  C   UNL     1      22.262  -8.047  34.874  1.00  0.00     0.002 C 
HETATM    5  C   UNL     1      23.580  -7.833  34.130  1.00  0.00     0.002 C 
HETATM    6  C   UNL     1      23.213  -7.199  32.791  1.00  0.00     0.032 C 
ENDBRANCH   1   2
BRANCH   1   7
HETATM    7  C   UNL     1      21.802  -4.131  33.070  1.00  0.00     0.103 A 
HETATM    8  C   UNL     1      21.385  -4.213  31.745  1.00  0.00     0.047 A 
HETATM    9  C   UNL     1      21.086  -3.048  31.041  1.00  0.00    -0.049 A 
HETATM   10  C   UNL     1      21.206  -1.806  31.664  1.00  0.00     0.010 A 
HETATM   11  C   UNL     1      21.623  -1.730  32.992  1.00  0.00     0.040 A 
HETATM   12  C   UNL     1      21.923  -2.896  33.697  1.00  0.00     0.101 A 
BRANCH   9  13
HETATM   13  C   UNL     1      20.632  -3.130  29.599  1.00  0.00     0.045 C 
HETATM   14  C   UNL     1      21.616  -2.592  28.558  1.00  0.00     0.132 C 
HETATM   15  N   UNL     1      20.787  -2.296  27.424  1.00  0.00    -0.360 N 
HETATM   16  C   UNL     1      19.451  -2.136  27.768  1.00  0.00     0.218 C 
HETATM   17  H   UNL     1      21.128  -2.214  26.505  1.00  0.00     0.162 HD
HETATM   18  O   UNL     1      18.525  -1.837  27.029  1.00  0.00    -0.274 OA
HETATM   19  C   UNL     1      19.347  -2.352  29.257  1.00  0.00     0.113 C 
ENDBRANCH   9  13
BRANCH  12  20
HETATM   20  O   UNL     1      22.331  -2.809  34.994  1.00  0.00    -0.353 OA
HETATM   21  C   UNL     1      22.059  -1.588  35.678  1.00  0.00     0.210 C 
ENDBRANCH  12  20
ENDBRANCH   1   7
TORSDOF 4
ENDMDL
MODEL 2
REMARK VINA RESULT:      -8.7      1.162      3.954
REMARK  4 active torsions:
REMARK  status: ('A' for Active; 'I' for Inactive)
REMARK    1  A    between atoms: O_1  and  C_5 
REMARK    2  A    between atoms: O_1  and  C_14 
REMARK    3  A    between atoms: O_2  and  C_18 
REMARK    4  A    between atoms: C_10  and  C_13 
ROOT
HETATM    1  O   UNL     1      22.089  -3.563  33.983  1.00  0.00    -0.343 OA
ENDROOT
BRANCH   1   2
HETATM    2  C   UNL     1      21.749  -2.190  33.832  1.00  0.00     0.129 C 
HETATM    3  C   UNL     1      23.020  -1.366  33.695  1.00  0.00     0.032 C 
HETATM    4  C   UNL     1      23.529  -1.208  35.126  1.00  0.00     0.002 C 
HETATM    5  C   UNL     1      22.322  -1.422  36.037  1.00  0.00     0.002 C 
HETATM    6  C   UNL     1      21.129  -1.654  35.112  1.00  0.00     0.032 C 
ENDBRANCH   1   2
BRANCH   1   7
HETATM    7  C   UNL     1      22.101  -4.326  32.845  1.00  0.00     0.103 A 
HETATM    8  C   UNL     1      21.630  -3.777  31.656  1.00  0.00     0.047 A 
HETATM    9  C   UNL     1      21.635  -4.543  30.492  1.00  0.00    -0.049 A 
HETATM   10  C   UNL     1      22.110  -5.854  30.520  1.00  0.00     0.010 A 
HETATM   11  C   UNL     1      22.582  -6.398  31.715  1.00  0.00     0.040 A 
HETATM   12  C   UNL     1      22.576  -5.632  32.881  1.00  0.00     0.101 A 
BRANCH   9  13
HETATM   13  C   UNL     1      21.124  -3.952  29.195  1.00  0.00     0.045 C 
HETATM   14  C   UNL     1      21.404  -2.463  28.984  1.00  0.00     0.132 C 
HETATM   15  N   UNL     1      20.415  -2.060  28.025  1.00  0.00    -0.360 N 
HETATM   16  C   UNL     1      19.332  -2.928  27.981  1.00  0.00     0.218 C 
HETATM   17  H   UNL     1      20.495  -1.257  27.462  1.00  0.00     0.162 HD
HETATM   18  O   UNL     1      18.323  -2.822  27.300  1.00  0.00    -0.274 OA
HETATM   19  C   UNL     1      19.600  -4.025  28.981  1.00  0.00     0.113 C 
ENDBRANCH   9  13
BRANCH  12  20
HETATM   20  O   UNL     1      23.038  -6.175  34.042  1.00  0.00    -0.353 OA
HETATM   21  C   UNL     1      23.312  -7.575  34.038  1.00  0.00     0.210 C 
ENDBRANCH  12  20
ENDBRANCH   1   7
TORSDOF 4
ENDMDL
MODEL 3
REMARK VINA RESULT:      -8.0      1.228      1.342
REMARK  4 active torsions:
REMARK  status: ('A' for Active; 'I' for Inactive)
REMARK    1  A    between atoms: O_1  and  C_5 
REMARK    2  A    between atoms: O_1  and  C_14 
REMARK    3  A    between atoms: O_2  and  C_18 
REMARK    4  A    between atoms: C_10  and  C_13 
ROOT
HETATM    1  O   UNL     1      22.540  -5.357  33.141  1.00  0.00    -0.343 OA
ENDROOT
BRANCH   1   2
HETATM    2  C   UNL     1      22.015  -6.647  32.857  1.00  0.00     0.129 C 
HETATM    3  C   UNL     1      21.823  -7.413  34.157  1.00  0.00     0.032 C 
HETATM    4  C   UNL     1      23.219  -7.925  34.508  1.00  0.00     0.002 C 
HETATM    5  C   UNL     1      24.010  -7.944  33.201  1.00  0.00     0.002 C 
HETATM    6  C   UNL     1      23.041  -7.486  32.113  1.00  0.00     0.032 C 
ENDBRANCH   1   2
BRANCH   1   7
HETATM    7  C   UNL     1      21.917  -4.291  32.546  1.00  0.00     0.103 A 
HETATM    8  C   UNL     1      21.473  -4.412  31.233  1.00  0.00     0.047 A 
HETATM    9  C   UNL     1      20.839  -3.335  30.616  1.00  0.00    -0.049 A 
HETATM   10  C   UNL     1      20.652  -2.142  31.314  1.00  0.00     0.010 A 
HETATM   11  C   UNL     1      21.099  -2.027  32.630  1.00  0.00     0.040 A 
HETATM   12  C   UNL     1      21.734  -3.105  33.247  1.00  0.00     0.101 A 
BRANCH   9  13
HETATM   13  C   UNL     1      20.352  -3.460  29.188  1.00  0.00     0.045 C 
HETATM   14  C   UNL     1      19.547  -2.275  28.652  1.00  0.00     0.132 C 
HETATM   15  N   UNL     1      18.793  -2.835  27.566  1.00  0.00    -0.360 N 
HETATM   16  C   UNL     1      18.670  -4.215  27.660  1.00  0.00     0.218 C 
HETATM   17  H   UNL     1      18.406  -2.301  26.836  1.00  0.00     0.162 HD
HETATM   18  O   UNL     1      18.052  -4.958  26.912  1.00  0.00    -0.274 OA
HETATM   19  C   UNL     1      19.407  -4.644  28.904  1.00  0.00     0.113 C 
ENDBRANCH   9  13
BRANCH  12  20
HETATM   20  O   UNL     1      22.168  -2.980  34.533  1.00  0.00    -0.353 OA
HETATM   21  C   UNL     1      22.085  -1.683  35.121  1.00  0.00     0.210 C 
ENDBRANCH  12  20
ENDBRANCH   1   7
TORSDOF 4
ENDMDL
MODEL 4
REMARK VINA RESULT:      -7.7      2.788      6.439
REMARK  4 active torsions:
REMARK  status: ('A' for Active; 'I' for Inactive)
REMARK    1  A    between atoms: O_1  and  C_5 
REMARK    2  A    between atoms: O_1  and  C_14 
REMARK    3  A    between atoms: O_2  and  C_18 
REMARK    4  A    between atoms: C_10  and  C_13 
ROOT
HETATM    1  O   UNL     1      20.976  -4.256  28.533  1.00  0.00    -0.343 OA
ENDROOT
BRANCH   1   2
HETATM    2  C   UNL     1      19.801  -3.458  28.455  1.00  0.00     0.129 C 
HETATM    3  C   UNL     1      18.636  -4.210  29.079  1.00  0.00     0.032 C 
HETATM    4  C   UNL     1      18.188  -5.189  27.996  1.00  0.00     0.002 C 
HETATM    5  C   UNL     1      18.684  -4.616  26.669  1.00  0.00     0.002 C 
HETATM    6  C   UNL     1      19.367  -3.293  27.007  1.00  0.00     0.032 C 
ENDBRANCH   1   2
BRANCH   1   7
HETATM    7  C   UNL     1      21.426  -4.572  29.787  1.00  0.00     0.103 A 
HETATM    8  C   UNL     1      21.229  -3.668  30.826  1.00  0.00     0.047 A 
HETATM    9  C   UNL     1      21.684  -3.978  32.107  1.00  0.00    -0.049 A 
HETATM   10  C   UNL     1      22.334  -5.189  32.343  1.00  0.00     0.010 A 
HETATM   11  C   UNL     1      22.528  -6.091  31.297  1.00  0.00     0.040 A 
HETATM   12  C   UNL     1      22.074  -5.781  30.016  1.00  0.00     0.101 A 
BRANCH   9  13
HETATM   13  C   UNL     1      21.473  -2.999  33.242  1.00  0.00     0.045 C 
HETATM   14  C   UNL     1      21.882  -1.552  32.960  1.00  0.00     0.132 C 
HETATM   15  N   UNL     1      22.086  -0.993  34.266  1.00  0.00    -0.360 N 
HETATM   16  C   UNL     1      22.311  -1.964  35.233  1.00  0.00     0.218 C 
HETATM   17  H   UNL     1      22.070  -0.027  34.456  1.00  0.00     0.162 HD
HETATM   18  O   UNL     1      22.560  -1.791  36.416  1.00  0.00    -0.274 OA
HETATM   19  C   UNL     1      22.246  -3.303  34.540  1.00  0.00     0.113 C 
ENDBRANCH   9  13
BRANCH  12  20
HETATM   20  O   UNL     1      22.271  -6.670  29.002  1.00  0.00    -0.353 OA
HETATM   21  C   UNL     1      21.276  -7.676  28.820  1.00  0.00     0.210 C 
ENDBRANCH  12  20
ENDBRANCH   1   7
TORSDOF 4
ENDMDL
MODEL 5
REMARK VINA RESULT:      -7.4      3.345      5.815
REMARK  4 active torsions:
REMARK  status: ('A' for Active; 'I' for Inactive)
REMARK    1  A    between atoms: O_1  and  C_5 
REMARK    2  A    between atoms: O_1  and  C_14 
REMARK    3  A    between atoms: O_2  and  C_18 
REMARK    4  A    between atoms: C_10  and  C_13 
ROOT
HETATM    1  O   UNL     1      22.165  -6.323  29.007  1.00  0.00    -0.343 OA
ENDROOT
BRANCH   1   2
HETATM    2  C   UNL     1      20.850  -6.639  28.568  1.00  0.00     0.129 C 
HETATM    3  C   UNL     1      20.652  -8.147  28.606  1.00  0.00     0.032 C 
HETATM    4  C   UNL     1      21.329  -8.654  27.334  1.00  0.00     0.002 C 
HETATM    5  C   UNL     1      21.382  -7.467  26.374  1.00  0.00     0.002 C 
HETATM    6  C   UNL     1      20.691  -6.309  27.092  1.00  0.00     0.032 C 
ENDBRANCH   1   2
BRANCH   1   7
HETATM    7  C   UNL     1      22.331  -6.100  30.349  1.00  0.00     0.103 A 
HETATM    8  C   UNL     1      21.839  -4.925  30.907  1.00  0.00     0.047 A 
HETATM    9  C   UNL     1      22.003  -4.685  32.270  1.00  0.00    -0.049 A 
HETATM   10  C   UNL     1      22.659  -5.622  33.070  1.00  0.00     0.010 A 
HETATM   11  C   UNL     1      23.149  -6.799  32.504  1.00  0.00     0.040 A 
HETATM   12  C   UNL     1      22.986  -7.038  31.139  1.00  0.00     0.101 A 
BRANCH   9  13
HETATM   13  C   UNL     1      21.470  -3.409  32.884  1.00  0.00     0.045 C 
HETATM   14  C   UNL     1      21.696  -2.133  32.071  1.00  0.00     0.132 C 
HETATM   15  N   UNL     1      21.605  -1.084  33.047  1.00  0.00    -0.360 N 
HETATM   16  C   UNL     1      21.818  -1.540  34.341  1.00  0.00     0.218 C 
HETATM   17  H   UNL     1      21.413  -0.145  32.823  1.00  0.00     0.162 HD
HETATM   18  O   UNL     1      21.847  -0.876  35.366  1.00  0.00    -0.274 OA
HETATM   19  C   UNL     1      22.065  -3.025  34.253  1.00  0.00     0.113 C 
ENDBRANCH   9  13
BRANCH  12  20
HETATM   20  O   UNL     1      23.471  -8.191  30.599  1.00  0.00    -0.353 OA
HETATM   21  C   UNL     1      24.798  -8.568  30.961  1.00  0.00     0.210 C 
ENDBRANCH  12  20
ENDBRANCH   1   7
TORSDOF 4
ENDMDL
MODEL 6
REMARK VINA RESULT:      -7.4      2.511      3.777
REMARK  4 active torsions:
REMARK  status: ('A' for Active; 'I' for Inactive)
REMARK    1  A    between atoms: O_1  and  C_5 
REMARK    2  A    between atoms: O_1  and  C_14 
REMARK    3  A    between atoms: O_2  and  C_18 
REMARK    4  A    between atoms: C_10  and  C_13 
ROOT
HETATM    1  O   UNL     1      23.204  -7.872  30.928  1.00  0.00    -0.343 OA
ENDROOT
BRANCH   1   2
HETATM    2  C   UNL     1      24.325  -7.796  30.057  1.00  0.00     0.129 C 
HETATM    3  C   UNL     1      23.970  -8.425  28.718  1.00  0.00     0.032 C 
HETATM    4  C   UNL     1      24.102  -9.929  28.955  1.00  0.00     0.002 C 
HETATM    5  C   UNL     1      25.029 -10.093  30.158  1.00  0.00     0.002 C 
HETATM    6  C   UNL     1      25.452  -8.683  30.564  1.00  0.00     0.032 C 
ENDBRANCH   1   2
BRANCH   1   7
HETATM    7  C   UNL     1      22.743  -6.691  31.446  1.00  0.00     0.103 A 
HETATM    8  C   UNL     1      22.182  -5.748  30.589  1.00  0.00     0.047 A 
HETATM    9  C   UNL     1      21.711  -4.541  31.103  1.00  0.00    -0.049 A 
HETATM   10  C   UNL     1      21.801  -4.282  32.470  1.00  0.00     0.010 A 
HETATM   11  C   UNL     1      22.363  -5.231  33.324  1.00  0.00     0.040 A 
HETATM   12  C   UNL     1      22.837  -6.438  32.810  1.00  0.00     0.101 A 
BRANCH   9  13
HETATM   13  C   UNL     1      21.099  -3.512  30.177  1.00  0.00     0.045 C 
HETATM   14  C   UNL     1      20.239  -2.439  30.847  1.00  0.00     0.132 C 
HETATM   15  N   UNL     1      19.396  -1.964  29.787  1.00  0.00    -0.360 N 
HETATM   16  C   UNL     1      19.294  -2.871  28.740  1.00  0.00     0.218 C 
HETATM   17  H   UNL     1      18.940  -1.092  29.800  1.00  0.00     0.162 HD
HETATM   18  O   UNL     1      18.618  -2.763  27.729  1.00  0.00    -0.274 OA
HETATM   19  C   UNL     1      20.143  -4.063  29.101  1.00  0.00     0.113 C 
ENDBRANCH   9  13
BRANCH  12  20
HETATM   20  O   UNL     1      23.385  -7.356  33.654  1.00  0.00    -0.353 OA
HETATM   21  C   UNL     1      22.504  -8.001  34.571  1.00  0.00     0.210 C 
ENDBRANCH  12  20
ENDBRANCH   1   7
TORSDOF 4
ENDMDL
MODEL 7
REMARK VINA RESULT:      -7.4      3.078      5.769
REMARK  4 active torsions:
REMARK  status: ('A' for Active; 'I' for Inactive)
REMARK    1  A    between atoms: O_1  and  C_5 
REMARK    2  A    between atoms: O_1  and  C_14 
REMARK    3  A    between atoms: O_2  and  C_18 
REMARK    4  A    between atoms: C_10  and  C_13 
ROOT
HETATM    1  O   UNL     1      21.523  -6.375  29.290  1.00  0.00    -0.343 OA
ENDROOT
BRANCH   1   2
HETATM    2  C   UNL     1      22.945  -6.384  29.281  1.00  0.00     0.129 C 
HETATM    3  C   UNL     1      23.446  -5.917  27.922  1.00  0.00     0.032 C 
HETATM    4  C   UNL     1      23.311  -7.144  27.023  1.00  0.00     0.002 C 
HETATM    5  C   UNL     1      23.294  -8.357  27.952  1.00  0.00     0.002 C 
HETATM    6  C   UNL     1      23.466  -7.809  29.367  1.00  0.00     0.032 C 
ENDBRANCH   1   2
BRANCH   1   7
HETATM    7  C   UNL     1      20.914  -5.168  29.515  1.00  0.00     0.103 A 
HETATM    8  C   UNL     1      21.195  -4.475  30.689  1.00  0.00     0.047 A 
HETATM    9  C   UNL     1      20.581  -3.247  30.930  1.00  0.00    -0.049 A 
HETATM   10  C   UNL     1      19.689  -2.718  29.998  1.00  0.00     0.010 A 
HETATM   11  C   UNL     1      19.412  -3.417  28.824  1.00  0.00     0.040 A 
HETATM   12  C   UNL     1      20.025  -4.646  28.582  1.00  0.00     0.101 A 
BRANCH   9  13
HETATM   13  C   UNL     1      20.883  -2.488  32.204  1.00  0.00     0.045 C 
HETATM   14  C   UNL     1      21.759  -1.244  32.048  1.00  0.00     0.132 C 
HETATM   15  N   UNL     1      22.310  -1.046  33.359  1.00  0.00    -0.360 N 
HETATM   16  C   UNL     1      22.276  -2.200  34.132  1.00  0.00     0.218 C 
HETATM   17  H   UNL     1      22.673  -0.188  33.675  1.00  0.00     0.162 HD
HETATM   18  O   UNL     1      22.710  -2.348  35.263  1.00  0.00    -0.274 OA
HETATM   19  C   UNL     1      21.639  -3.278  33.291  1.00  0.00     0.113 C 
ENDBRANCH   9  13
BRANCH  12  20
HETATM   20  O   UNL     1      19.745  -5.320  27.431  1.00  0.00    -0.353 OA
HETATM   21  C   UNL     1      18.578  -4.921  26.715  1.00  0.00     0.210 C 
ENDBRANCH  12  20
ENDBRANCH   1   7
TORSDOF 4
ENDMDL
MODEL 8
REMARK VINA RESULT:      -7.3      3.019      6.132
REMARK  4 active torsions:
REMARK  status: ('A' for Active; 'I' for Inactive)
REMARK    1  A    between atoms: O_1  and  C_5 
REMARK    2  A    between atoms: O_1  and  C_14 
REMARK    3  A    between atoms: O_2  and  C_18 
REMARK    4  A    between atoms: C_10  and  C_13 
ROOT
HETATM    1  O   UNL     1      21.817  -3.392  33.970  1.00  0.00    -0.343 OA
ENDROOT
BRANCH   1   2
HETATM    2  C   UNL     1      21.703  -1.989  33.771  1.00  0.00     0.129 C 
HETATM    3  C   UNL     1      23.091  -1.371  33.713  1.00  0.00     0.032 C 
HETATM    4  C   UNL     1      23.517  -1.251  35.175  1.00  0.00     0.002 C 
HETATM    5  C   UNL     1      22.230  -1.255  35.999  1.00  0.00     0.002 C 
HETATM    6  C   UNL     1      21.083  -1.329  34.993  1.00  0.00     0.032 C 
ENDBRANCH   1   2
BRANCH   1   7
HETATM    7  C   UNL     1      21.834  -4.176  32.846  1.00  0.00     0.103 A 
HETATM    8  C   UNL     1      22.475  -5.411  32.890  1.00  0.00     0.047 A 
HETATM    9  C   UNL     1      22.500  -6.217  31.753  1.00  0.00    -0.049 A 
HETATM   10  C   UNL     1      21.886  -5.786  30.578  1.00  0.00     0.010 A 
HETATM   11  C   UNL     1      21.244  -4.548  30.541  1.00  0.00     0.040 A 
HETATM   12  C   UNL     1      21.219  -3.741  31.678  1.00  0.00     0.101 A 
BRANCH   9  13
HETATM   13  C   UNL     1      23.196  -7.561  31.794  1.00  0.00     0.045 C 
HETATM   14  C   UNL     1      24.001  -7.857  33.061  1.00  0.00     0.132 C 
HETATM   15  N   UNL     1      24.935  -8.865  32.646  1.00  0.00    -0.360 N 
HETATM   16  C   UNL     1      25.123  -8.883  31.270  1.00  0.00     0.218 C 
HETATM   17  H   UNL     1      25.393  -9.475  33.268  1.00  0.00     0.162 HD
HETATM   18  O   UNL     1      25.884  -9.595  30.634  1.00  0.00    -0.274 OA
HETATM   19  C   UNL     1      24.238  -7.809  30.687  1.00  0.00     0.113 C 
ENDBRANCH   9  13
BRANCH  12  20
HETATM   20  O   UNL     1      20.591  -2.533  31.628  1.00  0.00    -0.353 OA
HETATM   21  C   UNL     1      19.796  -2.263  30.475  1.00  0.00     0.210 C 
ENDBRANCH  12  20
ENDBRANCH   1   7
TORSDOF 4
ENDMDL
MODEL 9
REMARK VINA RESULT:      -7.3      3.039      6.196
REMARK  4 active torsions:
REMARK  status: ('A' for Active; 'I' for Inactive)
REMARK    1  A    between atoms: O_1  and  C_5 
REMARK    2  A    between atoms: O_1  and  C_14 
REMARK    3  A    between atoms: O_2  and  C_18 
REMARK    4  A    between atoms: C_10  and  C_13 
ROOT
HETATM    1  O   UNL     1      20.879  -3.214  30.142  1.00  0.00    -0.343 OA
ENDROOT
BRANCH   1   2
HETATM    2  C   UNL     1      20.556  -3.852  28.913  1.00  0.00     0.129 C 
HETATM    3  C   UNL     1      21.494  -3.355  27.823  1.00  0.00     0.032 C 
HETATM    4  C   UNL     1      20.920  -2.001  27.412  1.00  0.00     0.002 C 
HETATM    5  C   UNL     1      19.448  -2.016  27.824  1.00  0.00     0.002 C 
HETATM    6  C   UNL     1      19.190  -3.397  28.423  1.00  0.00     0.032 C 
ENDBRANCH   1   2
BRANCH   1   7
HETATM    7  C   UNL     1      21.440  -3.998  31.116  1.00  0.00     0.103 A 
HETATM    8  C   UNL     1      21.922  -5.259  30.778  1.00  0.00     0.047 A 
HETATM    9  C   UNL     1      22.493  -6.067  31.759  1.00  0.00    -0.049 A 
HETATM   10  C   UNL     1      22.580  -5.612  33.075  1.00  0.00     0.010 A 
HETATM   11  C   UNL     1      22.096  -4.346  33.407  1.00  0.00     0.040 A 
HETATM   12  C   UNL     1      21.523  -3.538  32.425  1.00  0.00     0.101 A 
BRANCH   9  13
HETATM   13  C   UNL     1      23.020  -7.439  31.398  1.00  0.00     0.045 C 
HETATM   14  C   UNL     1      24.164  -7.965  32.267  1.00  0.00     0.132 C 
HETATM   15  N   UNL     1      24.798  -8.951  31.439  1.00  0.00    -0.360 N 
HETATM   16  C   UNL     1      24.517  -8.776  30.091  1.00  0.00     0.218 C 
HETATM   17  H   UNL     1      25.370  -9.672  31.789  1.00  0.00     0.162 HD
HETATM   18  O   UNL     1      24.948  -9.427  29.152  1.00  0.00    -0.274 OA
HETATM   19  C   UNL     1      23.605  -7.579  29.979  1.00  0.00     0.113 C 
ENDBRANCH   9  13
BRANCH  12  20
HETATM   20  O   UNL     1      21.052  -2.305  32.763  1.00  0.00    -0.353 OA
HETATM   21  C   UNL     1      21.694  -1.642  33.851  1.00  0.00     0.210 C 
ENDBRANCH  12  20
ENDBRANCH   1   7
TORSDOF 4
ENDMDL
