MODEL 1
REMARK VINA RESULT:      -6.6      0.000      0.000
REMARK  4 active torsions:
REMARK  status: ('A' for Active; 'I' for Inactive)
REMARK    1  A    between atoms: O_1  and  C_8 
REMARK    2  A    between atoms: O_2  and  C_9 
REMARK    3  A    between atoms: C_5  and  C_11 
REMARK    4  A    between atoms: C_12  and  C_13 
ROOT
ATOM      1  O   UNL A   1      31.799  76.208  23.668  1.00  0.00    -0.358 OA
ATOM      2  H   UNL A   1      30.928  76.157  24.009  1.00  0.00     0.217 HD
ENDROOT
BRANCH   1   3
ATOM      3  C   UNL A   1      32.028  75.972  22.346  1.00  0.00     0.099 A 
ATOM      4  C   UNL A   1      31.375  76.746  21.387  1.00  0.00     0.050 A 
ATOM      5  C   UNL A   1      31.603  76.515  20.030  1.00  0.00    -0.033 A 
ATOM      6  C   UNL A   1      32.486  75.510  19.633  1.00  0.00     0.014 A 
ATOM      7  C   UNL A   1      33.139  74.737  20.593  1.00  0.00     0.040 A 
ATOM      8  C   UNL A   1      32.910  74.968  21.949  1.00  0.00     0.098 A 
BRANCH   5   9
ATOM      9  C   UNL A   1      30.921  77.321  19.030  1.00  0.00     0.018 C 
ATOM     10  C   UNL A   1      30.944  77.031  17.732  1.00  0.00     0.085 C 
BRANCH  10  11
ATOM     11  C   UNL A   1      30.232  77.925  16.797  1.00  0.00     0.198 C 
ATOM     12  O   UNL A   1      29.642  77.170  15.840  1.00  0.00    -0.645 OA
ATOM     13  O   UNL A   1      30.174  79.142  16.858  1.00  0.00    -0.645 OA
ENDBRANCH  10  11
ENDBRANCH   5   9
BRANCH   8  14
ATOM     14  O   UNL A   1      33.555  74.207  22.876  1.00  0.00    -0.358 OA
ATOM     15  H   UNL A   1      33.920  73.379  22.631  1.00  0.00     0.217 HD
ENDBRANCH   8  14
ENDBRANCH   1   3
TORSDOF 4
ENDMDL
MODEL 2
REMARK VINA RESULT:      -6.6      1.214      1.793
REMARK  4 active torsions:
REMARK  status: ('A' for Active; 'I' for Inactive)
REMARK    1  A    between atoms: O_1  and  C_8 
REMARK    2  A    between atoms: O_2  and  C_9 
REMARK    3  A    between atoms: C_5  and  C_11 
REMARK    4  A    between atoms: C_12  and  C_13 
ROOT
ATOM      1  O   UNL A   1      30.696  78.558  22.970  1.00  0.00    -0.358 OA
ATOM      2  H   UNL A   1      31.249  78.801  23.686  1.00  0.00     0.217 HD
ENDROOT
BRANCH   1   3
ATOM      3  C   UNL A   1      31.146  77.685  22.027  1.00  0.00     0.099 A 
ATOM      4  C   UNL A   1      31.098  78.044  20.680  1.00  0.00     0.050 A 
ATOM      5  C   UNL A   1      31.559  77.159  19.705  1.00  0.00    -0.033 A 
ATOM      6  C   UNL A   1      32.070  75.916  20.078  1.00  0.00     0.014 A 
ATOM      7  C   UNL A   1      32.120  75.558  21.425  1.00  0.00     0.040 A 
ATOM      8  C   UNL A   1      31.658  76.442  22.399  1.00  0.00     0.098 A 
BRANCH   5   9
ATOM      9  C   UNL A   1      31.506  77.532  18.301  1.00  0.00     0.018 C 
ATOM     10  C   UNL A   1      30.378  77.886  17.691  1.00  0.00     0.085 C 
BRANCH  10  11
ATOM     11  C   UNL A   1      30.431  78.231  16.256  1.00  0.00     0.198 C 
ATOM     12  O   UNL A   1      31.485  79.055  16.046  1.00  0.00    -0.645 OA
ATOM     13  O   UNL A   1      29.663  77.849  15.389  1.00  0.00    -0.645 OA
ENDBRANCH  10  11
ENDBRANCH   5   9
BRANCH   8  14
ATOM     14  O   UNL A   1      31.713  76.082  23.711  1.00  0.00    -0.358 OA
ATOM     15  H   UNL A   1      31.840  75.183  23.945  1.00  0.00     0.217 HD
ENDBRANCH   8  14
ENDBRANCH   1   3
TORSDOF 4
ENDMDL
MODEL 3
REMARK VINA RESULT:      -6.5      1.349      2.304
REMARK  4 active torsions:
REMARK  status: ('A' for Active; 'I' for Inactive)
REMARK    1  A    between atoms: O_1  and  C_8 
REMARK    2  A    between atoms: O_2  and  C_9 
REMARK    3  A    between atoms: C_5  and  C_11 
REMARK    4  A    between atoms: C_12  and  C_13 
ROOT
ATOM      1  O   UNL A   1      32.144  74.228  21.752  1.00  0.00    -0.358 OA
ATOM      2  H   UNL A   1      31.885  73.523  21.191  1.00  0.00     0.217 HD
ENDROOT
BRANCH   1   3
ATOM      3  C   UNL A   1      31.744  75.500  21.475  1.00  0.00     0.099 A 
ATOM      4  C   UNL A   1      31.579  75.895  20.147  1.00  0.00     0.050 A 
ATOM      5  C   UNL A   1      31.168  77.195  19.852  1.00  0.00    -0.033 A 
ATOM      6  C   UNL A   1      30.921  78.099  20.885  1.00  0.00     0.014 A 
ATOM      7  C   UNL A   1      31.085  77.704  22.212  1.00  0.00     0.040 A 
ATOM      8  C   UNL A   1      31.497  76.404  22.507  1.00  0.00     0.098 A 
BRANCH   5   9
ATOM      9  C   UNL A   1      30.998  77.606  18.468  1.00  0.00     0.018 C 
ATOM     10  C   UNL A   1      32.024  77.832  17.651  1.00  0.00     0.085 C 
BRANCH  10  11
ATOM     11  C   UNL A   1      31.742  78.263  16.267  1.00  0.00     0.198 C 
ATOM     12  O   UNL A   1      30.687  79.112  16.284  1.00  0.00    -0.645 OA
ATOM     13  O   UNL A   1      32.347  77.924  15.264  1.00  0.00    -0.645 OA
ENDBRANCH  10  11
ENDBRANCH   5   9
BRANCH   8  14
ATOM     14  O   UNL A   1      31.652  76.030  23.807  1.00  0.00    -0.358 OA
ATOM     15  H   UNL A   1      31.954  75.167  24.014  1.00  0.00     0.217 HD
ENDBRANCH   8  14
ENDBRANCH   1   3
TORSDOF 4
ENDMDL
MODEL 4
REMARK VINA RESULT:      -6.3      1.192      1.370
REMARK  4 active torsions:
REMARK  status: ('A' for Active; 'I' for Inactive)
REMARK    1  A    between atoms: O_1  and  C_8 
REMARK    2  A    between atoms: O_2  and  C_9 
REMARK    3  A    between atoms: C_5  and  C_11 
REMARK    4  A    between atoms: C_12  and  C_13 
ROOT
ATOM      1  O   UNL A   1      31.819  76.046  23.818  1.00  0.00    -0.358 OA
ATOM      2  H   UNL A   1      31.535  75.462  24.493  1.00  0.00     0.217 HD
ENDROOT
BRANCH   1   3
ATOM      3  C   UNL A   1      31.728  75.673  22.512  1.00  0.00     0.099 A 
ATOM      4  C   UNL A   1      31.765  76.647  21.514  1.00  0.00     0.050 A 
ATOM      5  C   UNL A   1      31.675  76.275  20.172  1.00  0.00    -0.033 A 
ATOM      6  C   UNL A   1      31.550  74.929  19.829  1.00  0.00     0.014 A 
ATOM      7  C   UNL A   1      31.515  73.955  20.826  1.00  0.00     0.040 A 
ATOM      8  C   UNL A   1      31.604  74.327  22.167  1.00  0.00     0.098 A 
BRANCH   5   9
ATOM      9  C   UNL A   1      31.711  77.291  19.133  1.00  0.00     0.018 C 
ATOM     10  C   UNL A   1      30.801  77.367  18.166  1.00  0.00     0.085 C 
BRANCH  10  11
ATOM     11  C   UNL A   1      30.939  78.427  17.148  1.00  0.00     0.198 C 
ATOM     12  O   UNL A   1      32.255  78.700  16.981  1.00  0.00    -0.645 OA
ATOM     13  O   UNL A   1      30.032  78.978  16.546  1.00  0.00    -0.645 OA
ENDBRANCH  10  11
ENDBRANCH   5   9
BRANCH   8  14
ATOM     14  O   UNL A   1      31.569  73.366  23.132  1.00  0.00    -0.358 OA
ATOM     15  H   UNL A   1      32.268  73.300  23.753  1.00  0.00     0.217 HD
ENDBRANCH   8  14
ENDBRANCH   1   3
TORSDOF 4
ENDMDL
MODEL 5
REMARK VINA RESULT:      -6.3      1.434      5.687
REMARK  4 active torsions:
REMARK  status: ('A' for Active; 'I' for Inactive)
REMARK    1  A    between atoms: O_1  and  C_8 
REMARK    2  A    between atoms: O_2  and  C_9 
REMARK    3  A    between atoms: C_5  and  C_11 
REMARK    4  A    between atoms: C_12  and  C_13 
ROOT
ATOM      1  O   UNL A   1      29.884  79.092  16.661  1.00  0.00    -0.358 OA
ATOM      2  H   UNL A   1      28.965  79.274  16.686  1.00  0.00     0.217 HD
ENDROOT
BRANCH   1   3
ATOM      3  C   UNL A   1      30.356  77.906  17.135  1.00  0.00     0.099 A 
ATOM      4  C   UNL A   1      30.801  77.821  18.454  1.00  0.00     0.050 A 
ATOM      5  C   UNL A   1      31.286  76.611  18.951  1.00  0.00    -0.033 A 
ATOM      6  C   UNL A   1      31.323  75.485  18.129  1.00  0.00     0.014 A 
ATOM      7  C   UNL A   1      30.877  75.569  16.810  1.00  0.00     0.040 A 
ATOM      8  C   UNL A   1      30.394  76.780  16.313  1.00  0.00     0.098 A 
BRANCH   5   9
ATOM      9  C   UNL A   1      31.751  76.524  20.326  1.00  0.00     0.018 C 
ATOM     10  C   UNL A   1      31.915  77.593  21.101  1.00  0.00     0.085 C 
BRANCH  10  11
ATOM     11  C   UNL A   1      32.409  77.396  22.478  1.00  0.00     0.198 C 
ATOM     12  O   UNL A   1      32.955  78.557  22.913  1.00  0.00    -0.645 OA
ATOM     13  O   UNL A   1      32.347  76.369  23.132  1.00  0.00    -0.645 OA
ENDBRANCH  10  11
ENDBRANCH   5   9
BRANCH   8  14
ATOM     14  O   UNL A   1      29.960  76.849  15.024  1.00  0.00    -0.358 OA
ATOM     15  H   UNL A   1      30.573  76.998  14.331  1.00  0.00     0.217 HD
ENDBRANCH   8  14
ENDBRANCH   1   3
TORSDOF 4
ENDMDL
MODEL 6
REMARK VINA RESULT:      -6.2      2.506      5.736
REMARK  4 active torsions:
REMARK  status: ('A' for Active; 'I' for Inactive)
REMARK    1  A    between atoms: O_1  and  C_8 
REMARK    2  A    between atoms: O_2  and  C_9 
REMARK    3  A    between atoms: C_5  and  C_11 
REMARK    4  A    between atoms: C_12  and  C_13 
ROOT
ATOM      1  O   UNL A   1      32.228  79.103  22.701  1.00  0.00    -0.358 OA
ATOM      2  H   UNL A   1      32.548  79.872  22.272  1.00  0.00     0.217 HD
ENDROOT
BRANCH   1   3
ATOM      3  C   UNL A   1      32.153  77.926  22.020  1.00  0.00     0.099 A 
ATOM      4  C   UNL A   1      32.792  76.795  22.530  1.00  0.00     0.050 A 
ATOM      5  C   UNL A   1      32.720  75.583  21.842  1.00  0.00    -0.033 A 
ATOM      6  C   UNL A   1      32.007  75.502  20.646  1.00  0.00     0.014 A 
ATOM      7  C   UNL A   1      31.367  76.632  20.137  1.00  0.00     0.040 A 
ATOM      8  C   UNL A   1      31.440  77.844  20.824  1.00  0.00     0.098 A 
BRANCH   5   9
ATOM      9  C   UNL A   1      33.387  74.406  22.373  1.00  0.00     0.018 C 
ATOM     10  C   UNL A   1      33.221  73.190  21.860  1.00  0.00     0.085 C 
BRANCH  10  11
ATOM     11  C   UNL A   1      33.933  72.057  22.485  1.00  0.00     0.198 C 
ATOM     12  O   UNL A   1      34.729  71.478  21.555  1.00  0.00    -0.645 OA
ATOM     13  O   UNL A   1      33.834  71.688  23.643  1.00  0.00    -0.645 OA
ENDBRANCH  10  11
ENDBRANCH   5   9
BRANCH   8  14
ATOM     14  O   UNL A   1      30.810  78.940  20.317  1.00  0.00    -0.358 OA
ATOM     15  H   UNL A   1      31.260  79.761  20.276  1.00  0.00     0.217 HD
ENDBRANCH   8  14
ENDBRANCH   1   3
TORSDOF 4
ENDMDL
MODEL 7
REMARK VINA RESULT:      -6.0      0.845      1.830
REMARK  4 active torsions:
REMARK  status: ('A' for Active; 'I' for Inactive)
REMARK    1  A    between atoms: O_1  and  C_8 
REMARK    2  A    between atoms: O_2  and  C_9 
REMARK    3  A    between atoms: C_5  and  C_11 
REMARK    4  A    between atoms: C_12  and  C_13 
ROOT
ATOM      1  O   UNL A   1      33.315  73.857  20.581  1.00  0.00    -0.358 OA
ATOM      2  H   UNL A   1      32.815  73.148  20.227  1.00  0.00     0.217 HD
ENDROOT
BRANCH   1   3
ATOM      3  C   UNL A   1      32.721  75.059  20.816  1.00  0.00     0.099 A 
ATOM      4  C   UNL A   1      32.176  75.776  19.750  1.00  0.00     0.050 A 
ATOM      5  C   UNL A   1      31.562  77.008  19.979  1.00  0.00    -0.033 A 
ATOM      6  C   UNL A   1      31.493  77.522  21.273  1.00  0.00     0.014 A 
ATOM      7  C   UNL A   1      32.037  76.805  22.339  1.00  0.00     0.040 A 
ATOM      8  C   UNL A   1      32.650  75.574  22.110  1.00  0.00     0.098 A 
BRANCH   5   9
ATOM      9  C   UNL A   1      30.996  77.755  18.867  1.00  0.00     0.018 C 
ATOM     10  C   UNL A   1      30.746  77.206  17.682  1.00  0.00     0.085 C 
BRANCH  10  11
ATOM     11  C   UNL A   1      30.186  78.058  16.614  1.00  0.00     0.198 C 
ATOM     12  O   UNL A   1      29.915  77.281  15.537  1.00  0.00    -0.645 OA
ATOM     13  O   UNL A   1      29.992  79.260  16.671  1.00  0.00    -0.645 OA
ENDBRANCH  10  11
ENDBRANCH   5   9
BRANCH   8  14
ATOM     14  O   UNL A   1      33.177  74.883  23.159  1.00  0.00    -0.358 OA
ATOM     15  H   UNL A   1      33.636  74.080  23.008  1.00  0.00     0.217 HD
ENDBRANCH   8  14
ENDBRANCH   1   3
TORSDOF 4
ENDMDL
MODEL 8
REMARK VINA RESULT:      -5.9      3.074      4.769
REMARK  4 active torsions:
REMARK  status: ('A' for Active; 'I' for Inactive)
REMARK    1  A    between atoms: O_1  and  C_8 
REMARK    2  A    between atoms: O_2  and  C_9 
REMARK    3  A    between atoms: C_5  and  C_11 
REMARK    4  A    between atoms: C_12  and  C_13 
ROOT
ATOM      1  O   UNL A   1      31.499  75.956  24.009  1.00  0.00    -0.358 OA
ATOM      2  H   UNL A   1      32.249  75.810  24.552  1.00  0.00     0.217 HD
ENDROOT
BRANCH   1   3
ATOM      3  C   UNL A   1      31.657  76.178  22.675  1.00  0.00     0.099 A 
ATOM      4  C   UNL A   1      32.333  75.238  21.897  1.00  0.00     0.050 A 
ATOM      5  C   UNL A   1      32.499  75.454  20.529  1.00  0.00    -0.033 A 
ATOM      6  C   UNL A   1      31.986  76.609  19.938  1.00  0.00     0.014 A 
ATOM      7  C   UNL A   1      31.309  77.548  20.716  1.00  0.00     0.040 A 
ATOM      8  C   UNL A   1      31.144  77.332  22.084  1.00  0.00     0.098 A 
BRANCH   5   9
ATOM      9  C   UNL A   1      33.205  74.474  19.719  1.00  0.00     0.018 C 
ATOM     10  C   UNL A   1      34.059  73.594  20.234  1.00  0.00     0.085 C 
BRANCH  10  11
ATOM     11  C   UNL A   1      34.738  72.652  19.322  1.00  0.00     0.198 C 
ATOM     12  O   UNL A   1      35.937  72.319  19.856  1.00  0.00    -0.645 OA
ATOM     13  O   UNL A   1      34.308  72.233  18.260  1.00  0.00    -0.645 OA
ENDBRANCH  10  11
ENDBRANCH   5   9
BRANCH   8  14
ATOM     14  O   UNL A   1      30.480  78.257  22.832  1.00  0.00    -0.358 OA
ATOM     15  H   UNL A   1      30.555  79.168  22.626  1.00  0.00     0.217 HD
ENDBRANCH   8  14
ENDBRANCH   1   3
TORSDOF 4
ENDMDL
MODEL 9
REMARK VINA RESULT:      -5.9      2.322      5.677
REMARK  4 active torsions:
REMARK  status: ('A' for Active; 'I' for Inactive)
REMARK    1  A    between atoms: O_1  and  C_8 
REMARK    2  A    between atoms: O_2  and  C_9 
REMARK    3  A    between atoms: C_5  and  C_11 
REMARK    4  A    between atoms: C_12  and  C_13 
ROOT
ATOM      1  O   UNL A   1      30.961  78.101  18.896  1.00  0.00    -0.358 OA
ATOM      2  H   UNL A   1      30.038  78.034  18.750  1.00  0.00     0.217 HD
ENDROOT
BRANCH   1   3
ATOM      3  C   UNL A   1      31.513  77.571  20.022  1.00  0.00     0.099 A 
ATOM      4  C   UNL A   1      31.778  76.202  20.079  1.00  0.00     0.050 A 
ATOM      5  C   UNL A   1      32.344  75.648  21.228  1.00  0.00    -0.033 A 
ATOM      6  C   UNL A   1      32.648  76.463  22.318  1.00  0.00     0.014 A 
ATOM      7  C   UNL A   1      32.384  77.832  22.261  1.00  0.00     0.040 A 
ATOM      8  C   UNL A   1      31.817  78.385  21.113  1.00  0.00     0.098 A 
BRANCH   5   9
ATOM      9  C   UNL A   1      32.618  74.221  21.287  1.00  0.00     0.018 C 
ATOM     10  C   UNL A   1      33.529  73.696  22.101  1.00  0.00     0.085 C 
BRANCH  10  11
ATOM     11  C   UNL A   1      33.743  72.235  22.072  1.00  0.00     0.198 C 
ATOM     12  O   UNL A   1      33.351  71.763  20.864  1.00  0.00    -0.645 OA
ATOM     13  O   UNL A   1      34.194  71.549  22.973  1.00  0.00    -0.645 OA
ENDBRANCH  10  11
ENDBRANCH   5   9
BRANCH   8  14
ATOM     14  O   UNL A   1      31.565  79.723  21.069  1.00  0.00    -0.358 OA
ATOM     15  H   UNL A   1      30.709  80.046  21.271  1.00  0.00     0.217 HD
ENDBRANCH   8  14
ENDBRANCH   1   3
TORSDOF 4
ENDMDL
