MODEL 1
REMARK VINA RESULT:      -6.6      0.000      0.000
REMARK  4 active torsions:
REMARK  status: ('A' for Active; 'I' for Inactive)
REMARK    1  A    between atoms: O_1  and  C_8 
REMARK    2  A    between atoms: O_2  and  C_9 
REMARK    3  A    between atoms: C_5  and  C_11 
REMARK    4  A    between atoms: C_12  and  C_13 
ROOT
ATOM      1  O   UNL A   1      30.673  78.557  22.976  1.00  0.00    -0.358 OA
ATOM      2  H   UNL A   1      30.993  78.508  23.856  1.00  0.00     0.217 HD
ENDROOT
BRANCH   1   3
ATOM      3  C   UNL A   1      31.137  77.690  22.035  1.00  0.00     0.099 A 
ATOM      4  C   UNL A   1      31.092  78.049  20.688  1.00  0.00     0.050 A 
ATOM      5  C   UNL A   1      31.567  77.170  19.714  1.00  0.00    -0.033 A 
ATOM      6  C   UNL A   1      32.089  75.931  20.089  1.00  0.00     0.014 A 
ATOM      7  C   UNL A   1      32.135  75.572  21.436  1.00  0.00     0.040 A 
ATOM      8  C   UNL A   1      31.659  76.452  22.408  1.00  0.00     0.098 A 
BRANCH   5   9
ATOM      9  C   UNL A   1      31.518  77.544  18.310  1.00  0.00     0.018 C 
ATOM     10  C   UNL A   1      30.389  77.885  17.694  1.00  0.00     0.085 C 
BRANCH  10  11
ATOM     11  C   UNL A   1      30.445  78.232  16.260  1.00  0.00     0.198 C 
ATOM     12  O   UNL A   1      31.505  79.050  16.053  1.00  0.00    -0.645 OA
ATOM     13  O   UNL A   1      29.676  77.856  15.391  1.00  0.00    -0.645 OA
ENDBRANCH  10  11
ENDBRANCH   5   9
BRANCH   8  14
ATOM     14  O   UNL A   1      31.711  76.090  23.720  1.00  0.00    -0.358 OA
ATOM     15  H   UNL A   1      32.307  76.520  24.302  1.00  0.00     0.217 HD
ENDBRANCH   8  14
ENDBRANCH   1   3
TORSDOF 4
ENDMDL
MODEL 2
REMARK VINA RESULT:      -6.5      1.104      2.119
REMARK  4 active torsions:
REMARK  status: ('A' for Active; 'I' for Inactive)
REMARK    1  A    between atoms: O_1  and  C_8 
REMARK    2  A    between atoms: O_2  and  C_9 
REMARK    3  A    between atoms: C_5  and  C_11 
REMARK    4  A    between atoms: C_12  and  C_13 
ROOT
ATOM      1  O   UNL A   1      32.060  74.252  21.707  1.00  0.00    -0.358 OA
ATOM      2  H   UNL A   1      31.417  73.616  21.951  1.00  0.00     0.217 HD
ENDROOT
BRANCH   1   3
ATOM      3  C   UNL A   1      31.686  75.537  21.456  1.00  0.00     0.099 A 
ATOM      4  C   UNL A   1      31.519  75.959  20.137  1.00  0.00     0.050 A 
ATOM      5  C   UNL A   1      31.134  77.273  19.867  1.00  0.00    -0.033 A 
ATOM      6  C   UNL A   1      30.914  78.164  20.918  1.00  0.00     0.014 A 
ATOM      7  C   UNL A   1      31.080  77.742  22.237  1.00  0.00     0.040 A 
ATOM      8  C   UNL A   1      31.466  76.429  22.505  1.00  0.00     0.098 A 
BRANCH   5   9
ATOM      9  C   UNL A   1      30.962  77.712  18.492  1.00  0.00     0.018 C 
ATOM     10  C   UNL A   1      31.970  77.787  17.628  1.00  0.00     0.085 C 
BRANCH  10  11
ATOM     11  C   UNL A   1      31.691  78.262  16.258  1.00  0.00     0.198 C 
ATOM     12  O   UNL A   1      30.600  79.064  16.291  1.00  0.00    -0.645 OA
ATOM     13  O   UNL A   1      32.324  77.991  15.252  1.00  0.00    -0.645 OA
ENDBRANCH  10  11
ENDBRANCH   5   9
BRANCH   8  14
ATOM     14  O   UNL A   1      31.624  76.028  23.798  1.00  0.00    -0.358 OA
ATOM     15  H   UNL A   1      30.902  75.653  24.263  1.00  0.00     0.217 HD
ENDBRANCH   8  14
ENDBRANCH   1   3
TORSDOF 4
ENDMDL
MODEL 3
REMARK VINA RESULT:      -6.4      1.164      1.565
REMARK  4 active torsions:
REMARK  status: ('A' for Active; 'I' for Inactive)
REMARK    1  A    between atoms: O_1  and  C_8 
REMARK    2  A    between atoms: O_2  and  C_9 
REMARK    3  A    between atoms: C_5  and  C_11 
REMARK    4  A    between atoms: C_12  and  C_13 
ROOT
ATOM      1  O   UNL A   1      31.696  76.263  23.674  1.00  0.00    -0.358 OA
ATOM      2  H   UNL A   1      31.975  75.679  24.352  1.00  0.00     0.217 HD
ENDROOT
BRANCH   1   3
ATOM      3  C   UNL A   1      31.981  75.981  22.373  1.00  0.00     0.099 A 
ATOM      4  C   UNL A   1      31.380  76.727  21.360  1.00  0.00     0.050 A 
ATOM      5  C   UNL A   1      31.666  76.448  20.023  1.00  0.00    -0.033 A 
ATOM      6  C   UNL A   1      32.556  75.423  19.700  1.00  0.00     0.014 A 
ATOM      7  C   UNL A   1      33.158  74.678  20.714  1.00  0.00     0.040 A 
ATOM      8  C   UNL A   1      32.871  74.956  22.049  1.00  0.00     0.098 A 
BRANCH   5   9
ATOM      9  C   UNL A   1      31.037  77.225  18.967  1.00  0.00     0.018 C 
ATOM     10  C   UNL A   1      30.966  76.805  17.707  1.00  0.00     0.085 C 
BRANCH  10  11
ATOM     11  C   UNL A   1      30.321  77.679  16.707  1.00  0.00     0.198 C 
ATOM     12  O   UNL A   1      30.787  78.940  16.868  1.00  0.00    -0.645 OA
ATOM     13  O   UNL A   1      29.502  77.342  15.869  1.00  0.00    -0.645 OA
ENDBRANCH  10  11
ENDBRANCH   5   9
BRANCH   8  14
ATOM     14  O   UNL A   1      33.467  74.222  23.030  1.00  0.00    -0.358 OA
ATOM     15  H   UNL A   1      33.482  73.287  22.971  1.00  0.00     0.217 HD
ENDBRANCH   8  14
ENDBRANCH   1   3
TORSDOF 4
ENDMDL
MODEL 4
REMARK VINA RESULT:      -6.3      3.260      5.457
REMARK  4 active torsions:
REMARK  status: ('A' for Active; 'I' for Inactive)
REMARK    1  A    between atoms: O_1  and  C_8 
REMARK    2  A    between atoms: O_2  and  C_9 
REMARK    3  A    between atoms: C_5  and  C_11 
REMARK    4  A    between atoms: C_12  and  C_13 
ROOT
ATOM      1  O   UNL A   1      33.250  79.333  23.371  1.00  0.00    -0.358 OA
ATOM      2  H   UNL A   1      32.802  80.053  23.770  1.00  0.00     0.217 HD
ENDROOT
BRANCH   1   3
ATOM      3  C   UNL A   1      32.599  78.537  22.478  1.00  0.00     0.099 A 
ATOM      4  C   UNL A   1      32.748  77.152  22.556  1.00  0.00     0.050 A 
ATOM      5  C   UNL A   1      32.085  76.326  21.647  1.00  0.00    -0.033 A 
ATOM      6  C   UNL A   1      31.272  76.886  20.662  1.00  0.00     0.014 A 
ATOM      7  C   UNL A   1      31.122  78.270  20.585  1.00  0.00     0.040 A 
ATOM      8  C   UNL A   1      31.786  79.095  21.492  1.00  0.00     0.098 A 
BRANCH   5   9
ATOM      9  C   UNL A   1      32.243  74.883  21.728  1.00  0.00     0.018 C 
ATOM     10  C   UNL A   1      33.329  74.303  22.231  1.00  0.00     0.085 C 
BRANCH  10  11
ATOM     11  C   UNL A   1      33.397  72.828  22.251  1.00  0.00     0.198 C 
ATOM     12  O   UNL A   1      32.163  72.341  22.524  1.00  0.00    -0.645 OA
ATOM     13  O   UNL A   1      34.387  72.144  22.057  1.00  0.00    -0.645 OA
ENDBRANCH  10  11
ENDBRANCH   5   9
BRANCH   8  14
ATOM     14  O   UNL A   1      31.630  80.446  21.407  1.00  0.00    -0.358 OA
ATOM     15  H   UNL A   1      32.364  80.990  21.197  1.00  0.00     0.217 HD
ENDBRANCH   8  14
ENDBRANCH   1   3
TORSDOF 4
ENDMDL
MODEL 5
REMARK VINA RESULT:      -6.0      1.493      5.664
REMARK  4 active torsions:
REMARK  status: ('A' for Active; 'I' for Inactive)
REMARK    1  A    between atoms: O_1  and  C_8 
REMARK    2  A    between atoms: O_2  and  C_9 
REMARK    3  A    between atoms: C_5  and  C_11 
REMARK    4  A    between atoms: C_12  and  C_13 
ROOT
ATOM      1  O   UNL A   1      29.595  78.291  15.714  1.00  0.00    -0.358 OA
ATOM      2  H   UNL A   1      29.924  79.162  15.605  1.00  0.00     0.217 HD
ENDROOT
BRANCH   1   3
ATOM      3  C   UNL A   1      30.198  77.440  16.589  1.00  0.00     0.099 A 
ATOM      4  C   UNL A   1      30.551  77.897  17.859  1.00  0.00     0.050 A 
ATOM      5  C   UNL A   1      31.167  77.033  18.765  1.00  0.00    -0.033 A 
ATOM      6  C   UNL A   1      31.429  75.713  18.401  1.00  0.00     0.014 A 
ATOM      7  C   UNL A   1      31.075  75.256  17.131  1.00  0.00     0.040 A 
ATOM      8  C   UNL A   1      30.460  76.120  16.226  1.00  0.00     0.098 A 
BRANCH   5   9
ATOM      9  C   UNL A   1      31.536  77.511  20.088  1.00  0.00     0.018 C 
ATOM     10  C   UNL A   1      32.002  76.707  21.040  1.00  0.00     0.085 C 
BRANCH  10  11
ATOM     11  C   UNL A   1      32.332  77.290  22.356  1.00  0.00     0.198 C 
ATOM     12  O   UNL A   1      32.221  76.324  23.299  1.00  0.00    -0.645 OA
ATOM     13  O   UNL A   1      32.653  78.445  22.578  1.00  0.00    -0.645 OA
ENDBRANCH  10  11
ENDBRANCH   5   9
BRANCH   8  14
ATOM     14  O   UNL A   1      30.118  75.661  14.989  1.00  0.00    -0.358 OA
ATOM     15  H   UNL A   1      30.443  76.092  14.224  1.00  0.00     0.217 HD
ENDBRANCH   8  14
ENDBRANCH   1   3
TORSDOF 4
ENDMDL
MODEL 6
REMARK VINA RESULT:      -6.0      3.631      4.769
REMARK  4 active torsions:
REMARK  status: ('A' for Active; 'I' for Inactive)
REMARK    1  A    between atoms: O_1  and  C_8 
REMARK    2  A    between atoms: O_2  and  C_9 
REMARK    3  A    between atoms: C_5  and  C_11 
REMARK    4  A    between atoms: C_12  and  C_13 
ROOT
ATOM      1  O   UNL A   1      34.099  73.343  23.016  1.00  0.00    -0.358 OA
ATOM      2  H   UNL A   1      33.553  72.857  23.602  1.00  0.00     0.217 HD
ENDROOT
BRANCH   1   3
ATOM      3  C   UNL A   1      33.542  74.212  22.128  1.00  0.00     0.099 A 
ATOM      4  C   UNL A   1      33.009  75.416  22.588  1.00  0.00     0.050 A 
ATOM      5  C   UNL A   1      32.437  76.316  21.687  1.00  0.00    -0.033 A 
ATOM      6  C   UNL A   1      32.401  76.010  20.326  1.00  0.00     0.014 A 
ATOM      7  C   UNL A   1      32.935  74.807  19.867  1.00  0.00     0.040 A 
ATOM      8  C   UNL A   1      33.506  73.908  20.768  1.00  0.00     0.098 A 
BRANCH   5   9
ATOM      9  C   UNL A   1      31.880  77.570  22.166  1.00  0.00     0.018 C 
ATOM     10  C   UNL A   1      30.616  77.926  21.951  1.00  0.00     0.085 C 
BRANCH  10  11
ATOM     11  C   UNL A   1      30.154  79.231  22.467  1.00  0.00     0.198 C 
ATOM     12  O   UNL A   1      31.233  79.951  22.855  1.00  0.00    -0.645 OA
ATOM     13  O   UNL A   1      28.998  79.614  22.539  1.00  0.00    -0.645 OA
ENDBRANCH  10  11
ENDBRANCH   5   9
BRANCH   8  14
ATOM     14  O   UNL A   1      34.025  72.736  20.306  1.00  0.00    -0.358 OA
ATOM     15  H   UNL A   1      34.879  72.462  20.580  1.00  0.00     0.217 HD
ENDBRANCH   8  14
ENDBRANCH   1   3
TORSDOF 4
ENDMDL
MODEL 7
REMARK VINA RESULT:      -6.0      1.605      2.502
REMARK  4 active torsions:
REMARK  status: ('A' for Active; 'I' for Inactive)
REMARK    1  A    between atoms: O_1  and  C_8 
REMARK    2  A    between atoms: O_2  and  C_9 
REMARK    3  A    between atoms: C_5  and  C_11 
REMARK    4  A    between atoms: C_12  and  C_13 
ROOT
ATOM      1  O   UNL A   1      33.383  73.804  20.494  1.00  0.00    -0.358 OA
ATOM      2  H   UNL A   1      34.164  73.783  19.977  1.00  0.00     0.217 HD
ENDROOT
BRANCH   1   3
ATOM      3  C   UNL A   1      32.774  74.992  20.761  1.00  0.00     0.099 A 
ATOM      4  C   UNL A   1      32.127  75.679  19.734  1.00  0.00     0.050 A 
ATOM      5  C   UNL A   1      31.499  76.897  19.997  1.00  0.00    -0.033 A 
ATOM      6  C   UNL A   1      31.516  77.426  21.287  1.00  0.00     0.014 A 
ATOM      7  C   UNL A   1      32.163  76.738  22.314  1.00  0.00     0.040 A 
ATOM      8  C   UNL A   1      32.791  75.522  22.051  1.00  0.00     0.098 A 
BRANCH   5   9
ATOM      9  C   UNL A   1      30.826  77.614  18.926  1.00  0.00     0.018 C 
ATOM     10  C   UNL A   1      30.930  77.262  17.647  1.00  0.00     0.085 C 
BRANCH  10  11
ATOM     11  C   UNL A   1      30.219  78.068  16.634  1.00  0.00     0.198 C 
ATOM     12  O   UNL A   1      29.512  77.234  15.834  1.00  0.00    -0.645 OA
ATOM     13  O   UNL A   1      30.251  79.282  16.519  1.00  0.00    -0.645 OA
ENDBRANCH  10  11
ENDBRANCH   5   9
BRANCH   8  14
ATOM     14  O   UNL A   1      33.418  74.859  23.063  1.00  0.00    -0.358 OA
ATOM     15  H   UNL A   1      32.983  74.738  23.884  1.00  0.00     0.217 HD
ENDBRANCH   8  14
ENDBRANCH   1   3
TORSDOF 4
ENDMDL
MODEL 8
REMARK VINA RESULT:      -6.0      3.120      5.005
REMARK  4 active torsions:
REMARK  status: ('A' for Active; 'I' for Inactive)
REMARK    1  A    between atoms: O_1  and  C_8 
REMARK    2  A    between atoms: O_2  and  C_9 
REMARK    3  A    between atoms: C_5  and  C_11 
REMARK    4  A    between atoms: C_12  and  C_13 
ROOT
ATOM      1  O   UNL A   1      33.879  72.479  23.632  1.00  0.00    -0.358 OA
ATOM      2  H   UNL A   1      33.580  71.600  23.753  1.00  0.00     0.217 HD
ENDROOT
BRANCH   1   3
ATOM      3  C   UNL A   1      33.743  73.084  22.419  1.00  0.00     0.099 A 
ATOM      4  C   UNL A   1      33.035  74.282  22.324  1.00  0.00     0.050 A 
ATOM      5  C   UNL A   1      32.891  74.912  21.088  1.00  0.00    -0.033 A 
ATOM      6  C   UNL A   1      33.456  74.343  19.946  1.00  0.00     0.014 A 
ATOM      7  C   UNL A   1      34.164  73.145  20.041  1.00  0.00     0.040 A 
ATOM      8  C   UNL A   1      34.307  72.516  21.278  1.00  0.00     0.098 A 
BRANCH   5   9
ATOM      9  C   UNL A   1      32.152  76.160  20.989  1.00  0.00     0.018 C 
ATOM     10  C   UNL A   1      32.268  77.139  21.883  1.00  0.00     0.085 C 
BRANCH  10  11
ATOM     11  C   UNL A   1      31.459  78.361  21.699  1.00  0.00     0.198 C 
ATOM     12  O   UNL A   1      30.681  78.535  22.794  1.00  0.00    -0.645 OA
ATOM     13  O   UNL A   1      31.474  79.102  20.731  1.00  0.00    -0.645 OA
ENDBRANCH  10  11
ENDBRANCH   5   9
BRANCH   8  14
ATOM     14  O   UNL A   1      35.002  71.347  21.358  1.00  0.00    -0.358 OA
ATOM     15  H   UNL A   1      34.863  70.768  22.082  1.00  0.00     0.217 HD
ENDBRANCH   8  14
ENDBRANCH   1   3
TORSDOF 4
ENDMDL
MODEL 9
REMARK VINA RESULT:      -5.9      1.176      1.528
REMARK  4 active torsions:
REMARK  status: ('A' for Active; 'I' for Inactive)
REMARK    1  A    between atoms: O_1  and  C_8 
REMARK    2  A    between atoms: O_2  and  C_9 
REMARK    3  A    between atoms: C_5  and  C_11 
REMARK    4  A    between atoms: C_12  and  C_13 
ROOT
ATOM      1  O   UNL A   1      30.887  79.486  21.487  1.00  0.00    -0.358 OA
ATOM      2  H   UNL A   1      30.348  79.523  22.253  1.00  0.00     0.217 HD
ENDROOT
BRANCH   1   3
ATOM      3  C   UNL A   1      31.103  78.296  20.863  1.00  0.00     0.099 A 
ATOM      4  C   UNL A   1      30.846  78.179  19.497  1.00  0.00     0.050 A 
ATOM      5  C   UNL A   1      31.065  76.964  18.846  1.00  0.00    -0.033 A 
ATOM      6  C   UNL A   1      31.543  75.867  19.562  1.00  0.00     0.014 A 
ATOM      7  C   UNL A   1      31.801  75.984  20.928  1.00  0.00     0.040 A 
ATOM      8  C   UNL A   1      31.581  77.198  21.578  1.00  0.00     0.098 A 
BRANCH   5   9
ATOM      9  C   UNL A   1      30.795  76.843  17.423  1.00  0.00     0.018 C 
ATOM     10  C   UNL A   1      30.291  77.838  16.697  1.00  0.00     0.085 C 
BRANCH  10  11
ATOM     11  C   UNL A   1      30.038  77.606  15.261  1.00  0.00     0.198 C 
ATOM     12  O   UNL A   1      28.717  77.368  15.086  1.00  0.00    -0.645 OA
ATOM     13  O   UNL A   1      30.867  77.622  14.366  1.00  0.00    -0.645 OA
ENDBRANCH  10  11
ENDBRANCH   5   9
BRANCH   8  14
ATOM     14  O   UNL A   1      31.838  77.300  22.911  1.00  0.00    -0.358 OA
ATOM     15  H   UNL A   1      31.314  76.826  23.527  1.00  0.00     0.217 HD
ENDBRANCH   8  14
ENDBRANCH   1   3
TORSDOF 4
ENDMDL
