MODEL 1
REMARK VINA RESULT:      -6.6      0.000      0.000
REMARK  4 active torsions:
REMARK  status: ('A' for Active; 'I' for Inactive)
REMARK    1  A    between atoms: O_1  and  C_8 
REMARK    2  A    between atoms: O_2  and  C_9 
REMARK    3  A    between atoms: C_5  and  C_11 
REMARK    4  A    between atoms: C_12  and  C_13 
ROOT
ATOM      1  O   UNL A   1      30.728  78.568  22.972  1.00  0.00    -0.358 OA
ATOM      2  H   UNL A   1      31.346  79.110  23.422  1.00  0.00     0.217 HD
ENDROOT
BRANCH   1   3
ATOM      3  C   UNL A   1      31.158  77.686  22.028  1.00  0.00     0.099 A 
ATOM      4  C   UNL A   1      31.108  78.042  20.680  1.00  0.00     0.050 A 
ATOM      5  C   UNL A   1      31.547  77.147  19.704  1.00  0.00    -0.033 A 
ATOM      6  C   UNL A   1      32.037  75.896  20.077  1.00  0.00     0.014 A 
ATOM      7  C   UNL A   1      32.088  75.539  21.425  1.00  0.00     0.040 A 
ATOM      8  C   UNL A   1      31.648  76.434  22.400  1.00  0.00     0.098 A 
BRANCH   5   9
ATOM      9  C   UNL A   1      31.493  77.519  18.300  1.00  0.00     0.018 C 
ATOM     10  C   UNL A   1      30.371  77.905  17.699  1.00  0.00     0.085 C 
BRANCH  10  11
ATOM     11  C   UNL A   1      30.421  78.245  16.262  1.00  0.00     0.198 C 
ATOM     12  O   UNL A   1      31.470  79.075  16.049  1.00  0.00    -0.645 OA
ATOM     13  O   UNL A   1      29.655  77.855  15.397  1.00  0.00    -0.645 OA
ENDBRANCH  10  11
ENDBRANCH   5   9
BRANCH   8  14
ATOM     14  O   UNL A   1      31.704  76.075  23.712  1.00  0.00    -0.358 OA
ATOM     15  H   UNL A   1      32.341  75.451  24.001  1.00  0.00     0.217 HD
ENDBRANCH   8  14
ENDBRANCH   1   3
TORSDOF 4
ENDMDL
MODEL 2
REMARK VINA RESULT:      -6.6      1.198      1.765
REMARK  4 active torsions:
REMARK  status: ('A' for Active; 'I' for Inactive)
REMARK    1  A    between atoms: O_1  and  C_8 
REMARK    2  A    between atoms: O_2  and  C_9 
REMARK    3  A    between atoms: C_5  and  C_11 
REMARK    4  A    between atoms: C_12  and  C_13 
ROOT
ATOM      1  O   UNL A   1      31.839  76.308  23.671  1.00  0.00    -0.358 OA
ATOM      2  H   UNL A   1      30.998  76.153  24.054  1.00  0.00     0.217 HD
ENDROOT
BRANCH   1   3
ATOM      3  C   UNL A   1      32.043  76.046  22.350  1.00  0.00     0.099 A 
ATOM      4  C   UNL A   1      31.389  76.816  21.388  1.00  0.00     0.050 A 
ATOM      5  C   UNL A   1      31.592  76.559  20.032  1.00  0.00    -0.033 A 
ATOM      6  C   UNL A   1      32.451  75.533  19.638  1.00  0.00     0.014 A 
ATOM      7  C   UNL A   1      33.106  74.764  20.600  1.00  0.00     0.040 A 
ATOM      8  C   UNL A   1      32.902  75.021  21.956  1.00  0.00     0.098 A 
BRANCH   5   9
ATOM      9  C   UNL A   1      30.908  77.360  19.030  1.00  0.00     0.018 C 
ATOM     10  C   UNL A   1      30.909  77.051  17.736  1.00  0.00     0.085 C 
BRANCH  10  11
ATOM     11  C   UNL A   1      30.197  77.942  16.797  1.00  0.00     0.198 C 
ATOM     12  O   UNL A   1      29.570  77.181  15.868  1.00  0.00    -0.645 OA
ATOM     13  O   UNL A   1      30.167  79.160  16.835  1.00  0.00    -0.645 OA
ENDBRANCH  10  11
ENDBRANCH   5   9
BRANCH   8  14
ATOM     14  O   UNL A   1      33.549  74.264  22.886  1.00  0.00    -0.358 OA
ATOM     15  H   UNL A   1      34.353  74.567  23.260  1.00  0.00     0.217 HD
ENDBRANCH   8  14
ENDBRANCH   1   3
TORSDOF 4
ENDMDL
MODEL 3
REMARK VINA RESULT:      -6.5      1.132      2.152
REMARK  4 active torsions:
REMARK  status: ('A' for Active; 'I' for Inactive)
REMARK    1  A    between atoms: O_1  and  C_8 
REMARK    2  A    between atoms: O_2  and  C_9 
REMARK    3  A    between atoms: C_5  and  C_11 
REMARK    4  A    between atoms: C_12  and  C_13 
ROOT
ATOM      1  O   UNL A   1      31.869  74.162  21.728  1.00  0.00    -0.358 OA
ATOM      2  H   UNL A   1      32.618  73.766  21.327  1.00  0.00     0.217 HD
ENDROOT
BRANCH   1   3
ATOM      3  C   UNL A   1      31.574  75.468  21.481  1.00  0.00     0.099 A 
ATOM      4  C   UNL A   1      31.443  75.905  20.163  1.00  0.00     0.050 A 
ATOM      5  C   UNL A   1      31.140  77.241  19.898  1.00  0.00    -0.033 A 
ATOM      6  C   UNL A   1      30.966  78.139  20.951  1.00  0.00     0.014 A 
ATOM      7  C   UNL A   1      31.096  77.701  22.269  1.00  0.00     0.040 A 
ATOM      8  C   UNL A   1      31.400  76.366  22.534  1.00  0.00     0.098 A 
BRANCH   5   9
ATOM      9  C   UNL A   1      31.005  77.697  18.523  1.00  0.00     0.018 C 
ATOM     10  C   UNL A   1      32.042  77.813  17.698  1.00  0.00     0.085 C 
BRANCH  10  11
ATOM     11  C   UNL A   1      31.799  78.302  16.325  1.00  0.00     0.198 C 
ATOM     12  O   UNL A   1      30.652  79.022  16.318  1.00  0.00    -0.645 OA
ATOM     13  O   UNL A   1      32.502  78.102  15.349  1.00  0.00    -0.645 OA
ENDBRANCH  10  11
ENDBRANCH   5   9
BRANCH   8  14
ATOM     14  O   UNL A   1      31.523  75.951  23.825  1.00  0.00    -0.358 OA
ATOM     15  H   UNL A   1      30.916  76.249  24.473  1.00  0.00     0.217 HD
ENDBRANCH   8  14
ENDBRANCH   1   3
TORSDOF 4
ENDMDL
MODEL 4
REMARK VINA RESULT:      -6.4      0.811      1.897
REMARK  4 active torsions:
REMARK  status: ('A' for Active; 'I' for Inactive)
REMARK    1  A    between atoms: O_1  and  C_8 
REMARK    2  A    between atoms: O_2  and  C_9 
REMARK    3  A    between atoms: C_5  and  C_11 
REMARK    4  A    between atoms: C_12  and  C_13 
ROOT
ATOM      1  O   UNL A   1      32.117  74.091  21.932  1.00  0.00    -0.358 OA
ATOM      2  H   UNL A   1      31.438  73.477  22.129  1.00  0.00     0.217 HD
ENDROOT
BRANCH   1   3
ATOM      3  C   UNL A   1      31.800  75.362  21.560  1.00  0.00     0.099 A 
ATOM      4  C   UNL A   1      31.752  75.689  20.205  1.00  0.00     0.050 A 
ATOM      5  C   UNL A   1      31.426  76.988  19.812  1.00  0.00    -0.033 A 
ATOM      6  C   UNL A   1      31.146  77.957  20.774  1.00  0.00     0.014 A 
ATOM      7  C   UNL A   1      31.193  77.630  22.129  1.00  0.00     0.040 A 
ATOM      8  C   UNL A   1      31.519  76.332  22.522  1.00  0.00     0.098 A 
BRANCH   5   9
ATOM      9  C   UNL A   1      31.379  77.329  18.399  1.00  0.00     0.018 C 
ATOM     10  C   UNL A   1      30.368  78.000  17.853  1.00  0.00     0.085 C 
BRANCH  10  11
ATOM     11  C   UNL A   1      30.409  78.281  16.404  1.00  0.00     0.198 C 
ATOM     12  O   UNL A   1      31.540  78.974  16.128  1.00  0.00    -0.645 OA
ATOM     13  O   UNL A   1      29.575  77.953  15.577  1.00  0.00    -0.645 OA
ENDBRANCH  10  11
ENDBRANCH   5   9
BRANCH   8  14
ATOM     14  O   UNL A   1      31.560  76.024  23.848  1.00  0.00    -0.358 OA
ATOM     15  H   UNL A   1      32.357  76.131  24.329  1.00  0.00     0.217 HD
ENDBRANCH   8  14
ENDBRANCH   1   3
TORSDOF 4
ENDMDL
MODEL 5
REMARK VINA RESULT:      -6.3      1.468      5.542
REMARK  4 active torsions:
REMARK  status: ('A' for Active; 'I' for Inactive)
REMARK    1  A    between atoms: O_1  and  C_8 
REMARK    2  A    between atoms: O_2  and  C_9 
REMARK    3  A    between atoms: C_5  and  C_11 
REMARK    4  A    between atoms: C_12  and  C_13 
ROOT
ATOM      1  O   UNL A   1      29.887  79.077  16.570  1.00  0.00    -0.358 OA
ATOM      2  H   UNL A   1      29.716  79.138  15.651  1.00  0.00     0.217 HD
ENDROOT
BRANCH   1   3
ATOM      3  C   UNL A   1      30.347  77.910  17.101  1.00  0.00     0.099 A 
ATOM      4  C   UNL A   1      30.686  77.856  18.453  1.00  0.00     0.050 A 
ATOM      5  C   UNL A   1      31.157  76.666  19.008  1.00  0.00    -0.033 A 
ATOM      6  C   UNL A   1      31.287  75.529  18.210  1.00  0.00     0.014 A 
ATOM      7  C   UNL A   1      30.948  75.583  16.858  1.00  0.00     0.040 A 
ATOM      8  C   UNL A   1      30.478  76.773  16.304  1.00  0.00     0.098 A 
BRANCH   5   9
ATOM      9  C   UNL A   1      31.511  76.611  20.417  1.00  0.00     0.018 C 
ATOM     10  C   UNL A   1      32.138  77.604  21.042  1.00  0.00     0.085 C 
BRANCH  10  11
ATOM     11  C   UNL A   1      32.468  77.441  22.472  1.00  0.00     0.198 C 
ATOM     12  O   UNL A   1      32.914  78.626  22.952  1.00  0.00    -0.645 OA
ATOM     13  O   UNL A   1      32.363  76.419  23.129  1.00  0.00    -0.645 OA
ENDBRANCH  10  11
ENDBRANCH   5   9
BRANCH   8  14
ATOM     14  O   UNL A   1      30.149  76.812  14.983  1.00  0.00    -0.358 OA
ATOM     15  H   UNL A   1      30.670  76.350  14.356  1.00  0.00     0.217 HD
ENDBRANCH   8  14
ENDBRANCH   1   3
TORSDOF 4
ENDMDL
MODEL 6
REMARK VINA RESULT:      -6.2      2.718      5.473
REMARK  4 active torsions:
REMARK  status: ('A' for Active; 'I' for Inactive)
REMARK    1  A    between atoms: O_1  and  C_8 
REMARK    2  A    between atoms: O_2  and  C_9 
REMARK    3  A    between atoms: C_5  and  C_11 
REMARK    4  A    between atoms: C_12  and  C_13 
ROOT
ATOM      1  O   UNL A   1      30.405  78.656  19.546  1.00  0.00    -0.358 OA
ATOM      2  H   UNL A   1      30.220  79.575  19.572  1.00  0.00     0.217 HD
ENDROOT
BRANCH   1   3
ATOM      3  C   UNL A   1      31.189  78.092  20.505  1.00  0.00     0.099 A 
ATOM      4  C   UNL A   1      31.448  76.722  20.463  1.00  0.00     0.050 A 
ATOM      5  C   UNL A   1      32.252  76.132  21.439  1.00  0.00    -0.033 A 
ATOM      6  C   UNL A   1      32.798  76.914  22.456  1.00  0.00     0.014 A 
ATOM      7  C   UNL A   1      32.541  78.285  22.498  1.00  0.00     0.040 A 
ATOM      8  C   UNL A   1      31.737  78.873  21.522  1.00  0.00     0.098 A 
BRANCH   5   9
ATOM      9  C   UNL A   1      32.519  74.704  21.395  1.00  0.00     0.018 C 
ATOM     10  C   UNL A   1      33.420  74.115  22.177  1.00  0.00     0.085 C 
BRANCH  10  11
ATOM     11  C   UNL A   1      33.627  72.659  22.041  1.00  0.00     0.198 C 
ATOM     12  O   UNL A   1      33.955  72.153  23.254  1.00  0.00    -0.645 OA
ATOM     13  O   UNL A   1      33.525  72.004  21.018  1.00  0.00    -0.645 OA
ENDBRANCH  10  11
ENDBRANCH   5   9
BRANCH   8  14
ATOM     14  O   UNL A   1      31.494  80.212  21.573  1.00  0.00    -0.358 OA
ATOM     15  H   UNL A   1      32.043  80.769  22.090  1.00  0.00     0.217 HD
ENDBRANCH   8  14
ENDBRANCH   1   3
TORSDOF 4
ENDMDL
MODEL 7
REMARK VINA RESULT:      -6.1      2.764      5.831
REMARK  4 active torsions:
REMARK  status: ('A' for Active; 'I' for Inactive)
REMARK    1  A    between atoms: O_1  and  C_8 
REMARK    2  A    between atoms: O_2  and  C_9 
REMARK    3  A    between atoms: C_5  and  C_11 
REMARK    4  A    between atoms: C_12  and  C_13 
ROOT
ATOM      1  O   UNL A   1      32.455  79.025  22.798  1.00  0.00    -0.358 OA
ATOM      2  H   UNL A   1      32.001  79.128  23.611  1.00  0.00     0.217 HD
ENDROOT
BRANCH   1   3
ATOM      3  C   UNL A   1      32.301  77.883  22.072  1.00  0.00     0.099 A 
ATOM      4  C   UNL A   1      32.909  76.706  22.507  1.00  0.00     0.050 A 
ATOM      5  C   UNL A   1      32.757  75.529  21.772  1.00  0.00    -0.033 A 
ATOM      6  C   UNL A   1      31.994  75.531  20.604  1.00  0.00     0.014 A 
ATOM      7  C   UNL A   1      31.385  76.708  20.171  1.00  0.00     0.040 A 
ATOM      8  C   UNL A   1      31.539  77.884  20.905  1.00  0.00     0.098 A 
BRANCH   5   9
ATOM      9  C   UNL A   1      33.393  74.303  22.225  1.00  0.00     0.018 C 
ATOM     10  C   UNL A   1      32.822  73.107  22.103  1.00  0.00     0.085 C 
BRANCH  10  11
ATOM     11  C   UNL A   1      33.546  71.925  22.611  1.00  0.00     0.198 C 
ATOM     12  O   UNL A   1      33.840  71.114  21.566  1.00  0.00    -0.645 OA
ATOM     13  O   UNL A   1      33.839  71.697  23.772  1.00  0.00    -0.645 OA
ENDBRANCH  10  11
ENDBRANCH   5   9
BRANCH   8  14
ATOM     14  O   UNL A   1      30.938  79.027  20.471  1.00  0.00    -0.358 OA
ATOM     15  H   UNL A   1      31.010  79.814  20.975  1.00  0.00     0.217 HD
ENDBRANCH   8  14
ENDBRANCH   1   3
TORSDOF 4
ENDMDL
MODEL 8
REMARK VINA RESULT:      -6.0      3.695      5.232
REMARK  4 active torsions:
REMARK  status: ('A' for Active; 'I' for Inactive)
REMARK    1  A    between atoms: O_1  and  C_8 
REMARK    2  A    between atoms: O_2  and  C_9 
REMARK    3  A    between atoms: C_5  and  C_11 
REMARK    4  A    between atoms: C_12  and  C_13 
ROOT
ATOM      1  O   UNL A   1      31.865  80.175  21.357  1.00  0.00    -0.358 OA
ATOM      2  H   UNL A   1      32.687  80.552  21.605  1.00  0.00     0.217 HD
ENDROOT
BRANCH   1   3
ATOM      3  C   UNL A   1      31.487  78.971  21.869  1.00  0.00     0.099 A 
ATOM      4  C   UNL A   1      32.405  77.921  21.906  1.00  0.00     0.050 A 
ATOM      5  C   UNL A   1      32.030  76.684  22.430  1.00  0.00    -0.033 A 
ATOM      6  C   UNL A   1      30.736  76.497  22.918  1.00  0.00     0.014 A 
ATOM      7  C   UNL A   1      29.819  77.547  22.882  1.00  0.00     0.040 A 
ATOM      8  C   UNL A   1      30.195  78.784  22.357  1.00  0.00     0.098 A 
BRANCH   5   9
ATOM      9  C   UNL A   1      32.986  75.589  22.467  1.00  0.00     0.018 C 
ATOM     10  C   UNL A   1      33.051  74.656  21.521  1.00  0.00     0.085 C 
BRANCH  10  11
ATOM     11  C   UNL A   1      34.049  73.576  21.663  1.00  0.00     0.198 C 
ATOM     12  O   UNL A   1      34.175  73.271  22.976  1.00  0.00    -0.645 OA
ATOM     13  O   UNL A   1      34.667  73.037  20.760  1.00  0.00    -0.645 OA
ENDBRANCH  10  11
ENDBRANCH   5   9
BRANCH   8  14
ATOM     14  O   UNL A   1      29.290  79.801  22.328  1.00  0.00    -0.358 OA
ATOM     15  H   UNL A   1      28.850  80.060  23.115  1.00  0.00     0.217 HD
ENDBRANCH   8  14
ENDBRANCH   1   3
TORSDOF 4
ENDMDL
MODEL 9
REMARK VINA RESULT:      -5.9      3.262      4.738
REMARK  4 active torsions:
REMARK  status: ('A' for Active; 'I' for Inactive)
REMARK    1  A    between atoms: O_1  and  C_8 
REMARK    2  A    between atoms: O_2  and  C_9 
REMARK    3  A    between atoms: C_5  and  C_11 
REMARK    4  A    between atoms: C_12  and  C_13 
ROOT
ATOM      1  O   UNL A   1      31.501  75.971  24.023  1.00  0.00    -0.358 OA
ATOM      2  H   UNL A   1      31.269  75.115  24.325  1.00  0.00     0.217 HD
ENDROOT
BRANCH   1   3
ATOM      3  C   UNL A   1      31.658  76.204  22.690  1.00  0.00     0.099 A 
ATOM      4  C   UNL A   1      32.358  75.284  21.909  1.00  0.00     0.050 A 
ATOM      5  C   UNL A   1      32.523  75.511  20.542  1.00  0.00    -0.033 A 
ATOM      6  C   UNL A   1      31.984  76.657  19.957  1.00  0.00     0.014 A 
ATOM      7  C   UNL A   1      31.283  77.576  20.737  1.00  0.00     0.040 A 
ATOM      8  C   UNL A   1      31.120  77.349  22.103  1.00  0.00     0.098 A 
BRANCH   5   9
ATOM      9  C   UNL A   1      33.255  74.553  19.730  1.00  0.00     0.018 C 
ATOM     10  C   UNL A   1      33.977  73.567  20.253  1.00  0.00     0.085 C 
BRANCH  10  11
ATOM     11  C   UNL A   1      34.697  72.657  19.339  1.00  0.00     0.198 C 
ATOM     12  O   UNL A   1      35.960  72.490  19.799  1.00  0.00    -0.645 OA
ATOM     13  O   UNL A   1      34.248  72.134  18.333  1.00  0.00    -0.645 OA
ENDBRANCH  10  11
ENDBRANCH   5   9
BRANCH   8  14
ATOM     14  O   UNL A   1      30.431  78.253  22.854  1.00  0.00    -0.358 OA
ATOM     15  H   UNL A   1      30.371  78.142  23.783  1.00  0.00     0.217 HD
ENDBRANCH   8  14
ENDBRANCH   1   3
TORSDOF 4
ENDMDL
