REMARK  6 active torsions:
REMARK  status: ('A' for Active; 'I' for Inactive)
REMARK    1  A    between atoms: O_1  and  C_11 
REMARK    2  A    between atoms: C_4  and  C_5 
REMARK    3  A    between atoms: C_4  and  C_6 
REMARK    4  A    between atoms: C_5  and  C_7 
REMARK    5  A    between atoms: C_6  and  C_8 
REMARK    6  A    between atoms: C_8  and  C_12 
ROOT
HETATM    1  O   UNL     1      -4.343  -2.009  -0.005  1.00  0.00    -0.361 OA
HETATM    2  H   UNL     1      -3.953  -2.787  -0.352  1.00  0.00     0.217 HD
ENDROOT
BRANCH   1   3
HETATM    3  C   UNL     1      -3.633  -0.849   0.029  1.00  0.00     0.066 A 
HETATM    4  C   UNL     1      -2.324  -0.817  -0.453  1.00  0.00     0.043 A 
HETATM    5  C   UNL     1      -1.613   0.373  -0.411  1.00  0.00    -0.056 A 
HETATM    6  C   UNL     1      -2.179   1.531   0.101  1.00  0.00     0.007 A 
HETATM    7  C   UNL     1      -3.487   1.499   0.582  1.00  0.00     0.003 A 
HETATM    8  C   UNL     1      -4.215   0.309   0.546  1.00  0.00     0.036 A 
BRANCH   5   9
HETATM    9  C   UNL     1      -0.198   0.408  -0.930  1.00  0.00     0.038 C 
BRANCH   9  10
HETATM   10  C   UNL     1       0.862   0.092   0.132  1.00  0.00     0.005 C 
BRANCH  10  11
HETATM   11  C   UNL     1       2.296   0.203  -0.403  1.00  0.00     0.011 C 
BRANCH  11  12
HETATM   12  C   UNL     1       3.340  -0.189   0.645  1.00  0.00     0.113 C 
BRANCH  12  13
HETATM   13  C   UNL     1       4.758  -0.155   0.119  1.00  0.00     0.172 C 
HETATM   14  O   UNL     1       5.644  -0.586   1.054  1.00  0.00    -0.648 OA
HETATM   15  O   UNL     1       5.090   0.190  -1.006  1.00  0.00    -0.648 OA
ENDBRANCH  12  13
ENDBRANCH  11  12
ENDBRANCH  10  11
ENDBRANCH   9  10
ENDBRANCH   5   9
ENDBRANCH   1   3
TORSDOF 6
