REMARK  7 active torsions:
REMARK  status: ('A' for Active; 'I' for Inactive)
REMARK    1  A    between atoms: O_1  and  C_2 
REMARK    2  A    between atoms: C_2  and  C_3 
REMARK    3  A    between atoms: C_2  and  C_8 
REMARK    4  A    between atoms: C_3  and  C_4 
REMARK    5  A    between atoms: C_4  and  C_5 
REMARK    6  A    between atoms: C_8  and  C_9 
REMARK    7  A    between atoms: C_11  and  O_15 
ROOT
HETATM    1  O   UNL     1       0.953   0.152   1.584  1.00  0.00    -0.395 OA
HETATM    2  H   UNL     1       1.495   0.884   1.917  1.00  0.00     0.210 HD
ENDROOT
BRANCH   1   3
HETATM    3  C   UNL     1       0.900   0.210   0.159  1.00  0.00     0.122 C 
BRANCH   3   4
HETATM    4  C   UNL     1       2.323   0.145  -0.419  1.00  0.00     0.042 C 
BRANCH   4   5
HETATM    5  C   UNL     1       3.236   1.264   0.087  1.00  0.00     0.116 C 
BRANCH   5   6
HETATM    6  C   UNL     1       3.712   1.134   1.511  1.00  0.00     0.172 C 
HETATM    7  O   UNL     1       4.152   2.046   2.193  1.00  0.00    -0.648 OA
HETATM    8  O   UNL     1       3.712  -0.125   1.993  1.00  0.00    -0.648 OA
ENDBRANCH   5   6
ENDBRANCH   4   5
ENDBRANCH   3   4
BRANCH   3   9
HETATM    9  C   UNL     1       0.040  -0.951  -0.378  1.00  0.00     0.070 C 
BRANCH   9  10
HETATM   10  C   UNL     1      -1.447  -0.684  -0.282  1.00  0.00    -0.053 A 
HETATM   11  C   UNL     1      -2.207  -0.462  -1.441  1.00  0.00     0.043 A 
HETATM   12  C   UNL     1      -3.576  -0.220  -1.339  1.00  0.00     0.066 A 
HETATM   13  C   UNL     1      -4.206  -0.193  -0.101  1.00  0.00     0.036 A 
HETATM   14  C   UNL     1      -3.460  -0.411   1.055  1.00  0.00     0.003 A 
HETATM   15  C   UNL     1      -2.088  -0.656   0.965  1.00  0.00     0.007 A 
BRANCH  12  16
HETATM   16  O   UNL     1      -4.343  -0.002  -2.445  1.00  0.00    -0.361 OA
HETATM   17  H   UNL     1      -3.952  -0.013  -3.296  1.00  0.00     0.217 HD
ENDBRANCH  12  16
ENDBRANCH   9  10
ENDBRANCH   3   9
ENDBRANCH   1   3
TORSDOF 7
