MODEL 1
REMARK VINA RESULT:      -7.9      0.000      0.000
REMARK  7 active torsions:
REMARK  status: ('A' for Active; 'I' for Inactive)
REMARK    1  A    between atoms: O_5  and  C_13 
REMARK    2  A    between atoms: O_5  and  C_14 
REMARK    3  A    between atoms: O_6  and  C_15 
REMARK    4  A    between atoms: O_6  and  C_22 
REMARK       I    between atoms: N_8  and  C_20 
REMARK    5  A    between atoms: N_8  and  C_21 
REMARK    6  A    between atoms: C_10  and  C_13 
REMARK    7  A    between atoms: C_17  and  C_20 
ROOT
ATOM      1 CL   UNL A   1     -52.283  43.918   9.059  1.00  0.00    -0.080 Cl
ATOM      2 CL   UNL A   1     -51.575  47.607   5.084  1.00  0.00    -0.080 Cl
ATOM      3  N   UNL A   1     -51.263  43.648   5.228  1.00  0.00    -0.270 NA
ATOM      4  C   UNL A   1     -51.905  45.686   7.005  1.00  0.00     0.081 A 
ATOM      5  C   UNL A   1     -51.903  44.375   7.443  1.00  0.00     0.080 A 
ATOM      6  C   UNL A   1     -51.591  45.997   5.695  1.00  0.00     0.080 A 
ATOM      7  C   UNL A   1     -51.576  43.395   6.519  1.00  0.00     0.142 A 
ATOM      8  C   UNL A   1     -51.279  44.945   4.849  1.00  0.00     0.142 A 
ENDROOT
BRANCH   4   9
ATOM      9  N   UNL A   1     -52.233  46.725   7.911  1.00  0.00    -0.320 N 
ATOM     10  C   UNL A   1     -53.502  47.172   8.304  1.00  0.00     0.256 C 
ATOM     11  O   UNL A   1     -54.579  46.704   7.900  1.00  0.00    -0.267 OA
ATOM     12  H   UNL A   1     -51.469  47.194   8.317  1.00  0.00     0.169 HD
BRANCH  10  13
ATOM     13  C   UNL A   1     -53.521  48.287   9.238  1.00  0.00     0.035 A 
ATOM     14  C   UNL A   1     -53.623  48.047  10.608  1.00  0.00     0.056 A 
ATOM     15  C   UNL A   1     -53.642  49.117  11.503  1.00  0.00     0.103 A 
ATOM     16  C   UNL A   1     -53.559  50.426  11.028  1.00  0.00     0.108 A 
ATOM     17  C   UNL A   1     -53.457  50.666   9.657  1.00  0.00     0.041 A 
ATOM     18  C   UNL A   1     -53.438  49.596   8.762  1.00  0.00     0.020 A 
BRANCH  15  19
ATOM     19  O   UNL A   1     -53.743  48.872  12.839  1.00  0.00    -0.348 OA
BRANCH  19  20
ATOM     20  C   UNL A   1     -52.526  48.654  13.551  1.00  0.00     0.180 C 
BRANCH  20  21
ATOM     21  C   UNL A   1     -52.388  47.205  13.869  1.00  0.00     0.010 A 
ATOM     22  C   UNL A   1     -51.484  46.359  13.027  1.00  0.00     0.007 A 
ATOM     23  C   UNL A   1     -51.095  46.705  14.433  1.00  0.00     0.007 A 
ENDBRANCH  20  21
ENDBRANCH  19  20
ENDBRANCH  15  19
BRANCH  16  24
ATOM     24  O   UNL A   1     -53.576  51.479  11.892  1.00  0.00    -0.287 OA
BRANCH  24  25
ATOM     25  C   UNL A   1     -53.262  52.762  11.364  1.00  0.00     0.505 C 
ATOM     26  F   UNL A   1     -54.425  53.455  11.253  1.00  0.00    -0.184 F 
ATOM     27  F   UNL A   1     -52.496  53.434  12.258  1.00  0.00    -0.184 F 
ENDBRANCH  24  25
ENDBRANCH  16  24
ENDBRANCH  10  13
ENDBRANCH   4   9
TORSDOF 7
ENDMDL
MODEL 2
REMARK VINA RESULT:      -7.8      1.809      2.113
REMARK  7 active torsions:
REMARK  status: ('A' for Active; 'I' for Inactive)
REMARK    1  A    between atoms: O_5  and  C_13 
REMARK    2  A    between atoms: O_5  and  C_14 
REMARK    3  A    between atoms: O_6  and  C_15 
REMARK    4  A    between atoms: O_6  and  C_22 
REMARK       I    between atoms: N_8  and  C_20 
REMARK    5  A    between atoms: N_8  and  C_21 
REMARK    6  A    between atoms: C_10  and  C_13 
REMARK    7  A    between atoms: C_17  and  C_20 
ROOT
ATOM      1 CL   UNL A   1     -52.975  42.834  10.114  1.00  0.00    -0.080 Cl
ATOM      2 CL   UNL A   1     -51.232  44.773   5.306  1.00  0.00    -0.080 Cl
ATOM      3  N   UNL A   1     -51.331  41.141   6.917  1.00  0.00    -0.270 NA
ATOM      4  C   UNL A   1     -52.075  43.707   7.682  1.00  0.00     0.081 A 
ATOM      5  C   UNL A   1     -52.276  42.651   8.551  1.00  0.00     0.080 A 
ATOM      6  C   UNL A   1     -51.509  43.504   6.437  1.00  0.00     0.080 A 
ATOM      7  C   UNL A   1     -51.887  41.392   8.124  1.00  0.00     0.142 A 
ATOM      8  C   UNL A   1     -51.155  42.206   6.103  1.00  0.00     0.142 A 
ENDROOT
BRANCH   4   9
ATOM      9  N   UNL A   1     -52.456  45.015   8.071  1.00  0.00    -0.320 N 
ATOM     10  C   UNL A   1     -51.678  46.002   8.693  1.00  0.00     0.256 C 
ATOM     11  O   UNL A   1     -50.484  45.873   9.011  1.00  0.00    -0.267 OA
ATOM     12  H   UNL A   1     -53.389  45.263   7.880  1.00  0.00     0.169 HD
BRANCH  10  13
ATOM     13  C   UNL A   1     -52.361  47.250   8.996  1.00  0.00     0.035 A 
ATOM     14  C   UNL A   1     -52.843  47.485  10.284  1.00  0.00     0.056 A 
ATOM     15  C   UNL A   1     -53.499  48.682  10.574  1.00  0.00     0.103 A 
ATOM     16  C   UNL A   1     -53.671  49.642   9.578  1.00  0.00     0.108 A 
ATOM     17  C   UNL A   1     -53.189  49.407   8.290  1.00  0.00     0.041 A 
ATOM     18  C   UNL A   1     -52.534  48.210   8.000  1.00  0.00     0.020 A 
BRANCH  15  19
ATOM     19  O   UNL A   1     -53.966  48.902  11.834  1.00  0.00    -0.348 OA
BRANCH  19  20
ATOM     20  C   UNL A   1     -53.029  49.376  12.800  1.00  0.00     0.180 C 
BRANCH  20  21
ATOM     21  C   UNL A   1     -52.971  48.426  13.946  1.00  0.00     0.010 A 
ATOM     22  C   UNL A   1     -52.025  47.267  13.883  1.00  0.00     0.007 A 
ATOM     23  C   UNL A   1     -51.753  48.410  14.815  1.00  0.00     0.007 A 
ENDBRANCH  20  21
ENDBRANCH  19  20
ENDBRANCH  15  19
BRANCH  16  24
ATOM     24  O   UNL A   1     -54.309  50.816   9.849  1.00  0.00    -0.287 OA
BRANCH  24  25
ATOM     25  C   UNL A   1     -53.517  51.997   9.881  1.00  0.00     0.505 C 
ATOM     26  F   UNL A   1     -54.299  53.025   9.460  1.00  0.00    -0.184 F 
ATOM     27  F   UNL A   1     -53.177  52.271  11.164  1.00  0.00    -0.184 F 
ENDBRANCH  24  25
ENDBRANCH  16  24
ENDBRANCH  10  13
ENDBRANCH   4   9
TORSDOF 7
ENDMDL
MODEL 3
REMARK VINA RESULT:      -7.2      3.014      5.574
REMARK  7 active torsions:
REMARK  status: ('A' for Active; 'I' for Inactive)
REMARK    1  A    between atoms: O_5  and  C_13 
REMARK    2  A    between atoms: O_5  and  C_14 
REMARK    3  A    between atoms: O_6  and  C_15 
REMARK    4  A    between atoms: O_6  and  C_22 
REMARK       I    between atoms: N_8  and  C_20 
REMARK    5  A    between atoms: N_8  and  C_21 
REMARK    6  A    between atoms: C_10  and  C_13 
REMARK    7  A    between atoms: C_17  and  C_20 
ROOT
ATOM      1 CL   UNL A   1     -48.866  46.541  14.007  1.00  0.00    -0.080 Cl
ATOM      2 CL   UNL A   1     -52.746  43.319  11.891  1.00  0.00    -0.080 Cl
ATOM      3  N   UNL A   1     -49.559  42.630  14.164  1.00  0.00    -0.270 NA
ATOM      4  C   UNL A   1     -50.761  44.847  12.993  1.00  0.00     0.081 A 
ATOM      5  C   UNL A   1     -49.613  45.011  13.746  1.00  0.00     0.080 A 
ATOM      6  C   UNL A   1     -51.319  43.594  12.815  1.00  0.00     0.080 A 
ATOM      7  C   UNL A   1     -49.052  43.876  14.308  1.00  0.00     0.142 A 
ATOM      8  C   UNL A   1     -50.682  42.522  13.419  1.00  0.00     0.142 A 
ENDROOT
BRANCH   4   9
ATOM      9  N   UNL A   1     -51.374  45.976  12.397  1.00  0.00    -0.320 N 
ATOM     10  C   UNL A   1     -52.274  46.885  12.971  1.00  0.00     0.256 C 
ATOM     11  O   UNL A   1     -52.688  46.836  14.141  1.00  0.00    -0.267 OA
ATOM     12  H   UNL A   1     -51.137  46.144  11.457  1.00  0.00     0.169 HD
BRANCH  10  13
ATOM     13  C   UNL A   1     -52.758  47.939  12.093  1.00  0.00     0.035 A 
ATOM     14  C   UNL A   1     -52.989  47.671  10.744  1.00  0.00     0.056 A 
ATOM     15  C   UNL A   1     -53.453  48.682   9.902  1.00  0.00     0.103 A 
ATOM     16  C   UNL A   1     -53.684  49.960  10.409  1.00  0.00     0.108 A 
ATOM     17  C   UNL A   1     -53.453  50.229  11.758  1.00  0.00     0.041 A 
ATOM     18  C   UNL A   1     -52.989  49.217  12.600  1.00  0.00     0.020 A 
BRANCH  15  19
ATOM     19  O   UNL A   1     -53.675  48.409   8.586  1.00  0.00    -0.348 OA
BRANCH  19  20
ATOM     20  C   UNL A   1     -53.548  47.049   8.176  1.00  0.00     0.180 C 
BRANCH  20  21
ATOM     21  C   UNL A   1     -52.423  46.924   7.207  1.00  0.00     0.010 A 
ATOM     22  C   UNL A   1     -51.433  48.042   7.094  1.00  0.00     0.007 A 
ATOM     23  C   UNL A   1     -51.031  46.744   7.728  1.00  0.00     0.007 A 
ENDBRANCH  20  21
ENDBRANCH  19  20
ENDBRANCH  15  19
BRANCH  16  24
ATOM     24  O   UNL A   1     -54.138  50.956   9.597  1.00  0.00    -0.287 OA
BRANCH  24  25
ATOM     25  C   UNL A   1     -53.668  52.273   9.853  1.00  0.00     0.505 C 
ATOM     26  F   UNL A   1     -52.587  52.485   9.058  1.00  0.00    -0.184 F 
ATOM     27  F   UNL A   1     -54.612  53.165   9.467  1.00  0.00    -0.184 F 
ENDBRANCH  24  25
ENDBRANCH  16  24
ENDBRANCH  10  13
ENDBRANCH   4   9
TORSDOF 7
ENDMDL
MODEL 4
REMARK VINA RESULT:      -7.2      3.010      5.522
REMARK  7 active torsions:
REMARK  status: ('A' for Active; 'I' for Inactive)
REMARK    1  A    between atoms: O_5  and  C_13 
REMARK    2  A    between atoms: O_5  and  C_14 
REMARK    3  A    between atoms: O_6  and  C_15 
REMARK    4  A    between atoms: O_6  and  C_22 
REMARK       I    between atoms: N_8  and  C_20 
REMARK    5  A    between atoms: N_8  and  C_21 
REMARK    6  A    between atoms: C_10  and  C_13 
REMARK    7  A    between atoms: C_17  and  C_20 
ROOT
ATOM      1 CL   UNL A   1     -53.014  43.279  12.363  1.00  0.00    -0.080 Cl
ATOM      2 CL   UNL A   1     -48.519  46.225  13.374  1.00  0.00    -0.080 Cl
ATOM      3  N   UNL A   1     -49.507  42.431  14.028  1.00  0.00    -0.270 NA
ATOM      4  C   UNL A   1     -50.721  44.668  12.911  1.00  0.00     0.081 A 
ATOM      5  C   UNL A   1     -51.411  43.472  12.962  1.00  0.00     0.080 A 
ATOM      6  C   UNL A   1     -49.435  44.767  13.408  1.00  0.00     0.080 A 
ATOM      7  C   UNL A   1     -50.763  42.386  13.529  1.00  0.00     0.142 A 
ATOM      8  C   UNL A   1     -48.874  43.624  13.954  1.00  0.00     0.142 A 
ENDROOT
BRANCH   4   9
ATOM      9  N   UNL A   1     -51.340  45.808  12.341  1.00  0.00    -0.320 N 
ATOM     10  C   UNL A   1     -52.152  46.764  12.965  1.00  0.00     0.256 C 
ATOM     11  O   UNL A   1     -52.467  46.757  14.166  1.00  0.00    -0.267 OA
ATOM     12  H   UNL A   1     -51.177  45.946  11.379  1.00  0.00     0.169 HD
BRANCH  10  13
ATOM     13  C   UNL A   1     -52.669  47.817  12.105  1.00  0.00     0.035 A 
ATOM     14  C   UNL A   1     -52.642  47.661  10.719  1.00  0.00     0.056 A 
ATOM     15  C   UNL A   1     -53.137  48.672   9.894  1.00  0.00     0.103 A 
ATOM     16  C   UNL A   1     -53.658  49.838  10.455  1.00  0.00     0.108 A 
ATOM     17  C   UNL A   1     -53.684  49.994  11.841  1.00  0.00     0.041 A 
ATOM     18  C   UNL A   1     -53.189  48.983  12.666  1.00  0.00     0.020 A 
BRANCH  15  19
ATOM     19  O   UNL A   1     -53.106  48.509   8.543  1.00  0.00    -0.348 OA
BRANCH  19  20
ATOM     20  C   UNL A   1     -53.697  47.321   8.019  1.00  0.00     0.180 C 
BRANCH  20  21
ATOM     21  C   UNL A   1     -52.782  46.711   7.013  1.00  0.00     0.010 A 
ATOM     22  C   UNL A   1     -51.460  47.361   6.744  1.00  0.00     0.007 A 
ATOM     23  C   UNL A   1     -51.520  46.057   7.482  1.00  0.00     0.007 A 
ENDBRANCH  20  21
ENDBRANCH  19  20
ENDBRANCH  15  19
BRANCH  16  24
ATOM     24  O   UNL A   1     -54.145  50.831   9.661  1.00  0.00    -0.287 OA
BRANCH  24  25
ATOM     25  C   UNL A   1     -53.635  52.143   9.868  1.00  0.00     0.505 C 
ATOM     26  F   UNL A   1     -52.607  52.324   8.998  1.00  0.00    -0.184 F 
ATOM     27  F   UNL A   1     -54.587  53.048   9.534  1.00  0.00    -0.184 F 
ENDBRANCH  24  25
ENDBRANCH  16  24
ENDBRANCH  10  13
ENDBRANCH   4   9
TORSDOF 7
ENDMDL
MODEL 5
REMARK VINA RESULT:      -7.1      2.143      2.347
REMARK  7 active torsions:
REMARK  status: ('A' for Active; 'I' for Inactive)
REMARK    1  A    between atoms: O_5  and  C_13 
REMARK    2  A    between atoms: O_5  and  C_14 
REMARK    3  A    between atoms: O_6  and  C_15 
REMARK    4  A    between atoms: O_6  and  C_22 
REMARK       I    between atoms: N_8  and  C_20 
REMARK    5  A    between atoms: N_8  and  C_21 
REMARK    6  A    between atoms: C_10  and  C_13 
REMARK    7  A    between atoms: C_17  and  C_20 
ROOT
ATOM      1 CL   UNL A   1     -49.919  44.943   9.765  1.00  0.00    -0.080 Cl
ATOM      2 CL   UNL A   1     -55.266  44.258   8.844  1.00  0.00    -0.080 Cl
ATOM      3  N   UNL A   1     -52.092  41.907   8.405  1.00  0.00    -0.270 NA
ATOM      4  C   UNL A   1     -52.574  44.503   9.272  1.00  0.00     0.081 A 
ATOM      5  C   UNL A   1     -51.280  44.017   9.262  1.00  0.00     0.080 A 
ATOM      6  C   UNL A   1     -53.632  43.715   8.856  1.00  0.00     0.080 A 
ATOM      7  C   UNL A   1     -51.092  42.717   8.820  1.00  0.00     0.142 A 
ATOM      8  C   UNL A   1     -53.339  42.428   8.433  1.00  0.00     0.142 A 
ENDROOT
BRANCH   4   9
ATOM      9  N   UNL A   1     -52.821  45.826   9.714  1.00  0.00    -0.320 N 
ATOM     10  C   UNL A   1     -52.916  46.998   8.952  1.00  0.00     0.256 C 
ATOM     11  O   UNL A   1     -52.793  47.058   7.717  1.00  0.00    -0.267 OA
ATOM     12  H   UNL A   1     -52.941  45.936  10.685  1.00  0.00     0.169 HD
BRANCH  10  13
ATOM     13  C   UNL A   1     -53.152  48.224   9.699  1.00  0.00     0.035 A 
ATOM     14  C   UNL A   1     -53.152  48.202  11.093  1.00  0.00     0.056 A 
ATOM     15  C   UNL A   1     -53.379  49.377  11.809  1.00  0.00     0.103 A 
ATOM     16  C   UNL A   1     -53.607  50.574  11.130  1.00  0.00     0.108 A 
ATOM     17  C   UNL A   1     -53.607  50.597   9.736  1.00  0.00     0.041 A 
ATOM     18  C   UNL A   1     -53.379  49.421   9.020  1.00  0.00     0.020 A 
BRANCH  15  19
ATOM     19  O   UNL A   1     -53.377  49.344  13.170  1.00  0.00    -0.348 OA
BRANCH  19  20
ATOM     20  C   UNL A   1     -52.964  48.127  13.788  1.00  0.00     0.180 C 
BRANCH  20  21
ATOM     21  C   UNL A   1     -51.517  48.209  14.134  1.00  0.00     0.010 A 
ATOM     22  C   UNL A   1     -51.114  48.248  15.575  1.00  0.00     0.007 A 
ATOM     23  C   UNL A   1     -50.849  47.021  14.754  1.00  0.00     0.007 A 
ENDBRANCH  20  21
ENDBRANCH  19  20
ENDBRANCH  15  19
BRANCH  16  24
ATOM     24  O   UNL A   1     -53.828  51.729  11.818  1.00  0.00    -0.287 OA
BRANCH  24  25
ATOM     25  C   UNL A   1     -53.391  52.942  11.218  1.00  0.00     0.505 C 
ATOM     26  F   UNL A   1     -54.493  53.604  10.781  1.00  0.00    -0.184 F 
ATOM     27  F   UNL A   1     -52.819  53.726  12.164  1.00  0.00    -0.184 F 
ENDBRANCH  24  25
ENDBRANCH  16  24
ENDBRANCH  10  13
ENDBRANCH   4   9
TORSDOF 7
ENDMDL
MODEL 6
REMARK VINA RESULT:      -7.0      2.531      3.423
REMARK  7 active torsions:
REMARK  status: ('A' for Active; 'I' for Inactive)
REMARK    1  A    between atoms: O_5  and  C_13 
REMARK    2  A    between atoms: O_5  and  C_14 
REMARK    3  A    between atoms: O_6  and  C_15 
REMARK    4  A    between atoms: O_6  and  C_22 
REMARK       I    between atoms: N_8  and  C_20 
REMARK    5  A    between atoms: N_8  and  C_21 
REMARK    6  A    between atoms: C_10  and  C_13 
REMARK    7  A    between atoms: C_17  and  C_20 
ROOT
ATOM      1 CL   UNL A   1     -52.324  43.642   7.632  1.00  0.00    -0.080 Cl
ATOM      2 CL   UNL A   1     -51.132  48.901   6.717  1.00  0.00    -0.080 Cl
ATOM      3  N   UNL A   1     -51.401  45.709   4.365  1.00  0.00    -0.270 NA
ATOM      4  C   UNL A   1     -51.716  46.251   7.073  1.00  0.00     0.081 A 
ATOM      5  C   UNL A   1     -51.901  44.962   6.610  1.00  0.00     0.080 A 
ATOM      6  C   UNL A   1     -51.376  47.274   6.207  1.00  0.00     0.080 A 
ATOM      7  C   UNL A   1     -51.732  44.743   5.252  1.00  0.00     0.142 A 
ATOM      8  C   UNL A   1     -51.231  46.952   4.867  1.00  0.00     0.142 A 
ENDROOT
BRANCH   4   9
ATOM      9  N   UNL A   1     -51.878  46.528   8.453  1.00  0.00    -0.320 N 
ATOM     10  C   UNL A   1     -52.946  47.170   9.095  1.00  0.00     0.256 C 
ATOM     11  O   UNL A   1     -53.958  47.612   8.526  1.00  0.00    -0.267 OA
ATOM     12  H   UNL A   1     -51.144  46.231   9.037  1.00  0.00     0.169 HD
BRANCH  10  13
ATOM     13  C   UNL A   1     -52.815  47.335  10.534  1.00  0.00     0.035 A 
ATOM     14  C   UNL A   1     -52.410  46.260  11.325  1.00  0.00     0.056 A 
ATOM     15  C   UNL A   1     -52.285  46.419  12.706  1.00  0.00     0.103 A 
ATOM     16  C   UNL A   1     -52.565  47.652  13.294  1.00  0.00     0.108 A 
ATOM     17  C   UNL A   1     -52.969  48.727  12.503  1.00  0.00     0.041 A 
ATOM     18  C   UNL A   1     -53.094  48.568  11.122  1.00  0.00     0.020 A 
BRANCH  15  19
ATOM     19  O   UNL A   1     -51.890  45.363  13.469  1.00  0.00    -0.348 OA
BRANCH  19  20
ATOM     20  C   UNL A   1     -51.018  44.413  12.859  1.00  0.00     0.180 C 
BRANCH  20  21
ATOM     21  C   UNL A   1     -51.600  43.047  12.988  1.00  0.00     0.010 A 
ATOM     22  C   UNL A   1     -53.020  42.902  13.439  1.00  0.00     0.007 A 
ATOM     23  C   UNL A   1     -52.650  42.610  12.015  1.00  0.00     0.007 A 
ENDBRANCH  20  21
ENDBRANCH  19  20
ENDBRANCH  15  19
BRANCH  16  24
ATOM     24  O   UNL A   1     -52.445  47.820  14.640  1.00  0.00    -0.287 OA
BRANCH  24  25
ATOM     25  C   UNL A   1     -51.662  48.917  15.095  1.00  0.00     0.505 C 
ATOM     26  F   UNL A   1     -52.494  49.777  15.736  1.00  0.00    -0.184 F 
ATOM     27  F   UNL A   1     -50.775  48.476  16.021  1.00  0.00    -0.184 F 
ENDBRANCH  24  25
ENDBRANCH  16  24
ENDBRANCH  10  13
ENDBRANCH   4   9
TORSDOF 7
ENDMDL
MODEL 7
REMARK VINA RESULT:      -7.0      2.458      3.263
REMARK  7 active torsions:
REMARK  status: ('A' for Active; 'I' for Inactive)
REMARK    1  A    between atoms: O_5  and  C_13 
REMARK    2  A    between atoms: O_5  and  C_14 
REMARK    3  A    between atoms: O_6  and  C_15 
REMARK    4  A    between atoms: O_6  and  C_22 
REMARK       I    between atoms: N_8  and  C_20 
REMARK    5  A    between atoms: N_8  and  C_21 
REMARK    6  A    between atoms: C_10  and  C_13 
REMARK    7  A    between atoms: C_17  and  C_20 
ROOT
ATOM      1 CL   UNL A   1     -52.219  43.662   7.734  1.00  0.00    -0.080 Cl
ATOM      2 CL   UNL A   1     -51.189  48.941   6.744  1.00  0.00    -0.080 Cl
ATOM      3  N   UNL A   1     -51.378  45.712   4.435  1.00  0.00    -0.270 NA
ATOM      4  C   UNL A   1     -51.692  46.280   7.138  1.00  0.00     0.081 A 
ATOM      5  C   UNL A   1     -51.842  44.980   6.692  1.00  0.00     0.080 A 
ATOM      6  C   UNL A   1     -51.388  47.301   6.257  1.00  0.00     0.080 A 
ATOM      7  C   UNL A   1     -51.675  44.749   5.337  1.00  0.00     0.142 A 
ATOM      8  C   UNL A   1     -51.242  46.966   4.920  1.00  0.00     0.142 A 
ENDROOT
BRANCH   4   9
ATOM      9  N   UNL A   1     -51.853  46.570   8.515  1.00  0.00    -0.320 N 
ATOM     10  C   UNL A   1     -52.974  47.096   9.171  1.00  0.00     0.256 C 
ATOM     11  O   UNL A   1     -54.045  47.401   8.620  1.00  0.00    -0.267 OA
ATOM     12  H   UNL A   1     -51.075  46.377   9.086  1.00  0.00     0.169 HD
BRANCH  10  13
ATOM     13  C   UNL A   1     -52.829  47.311  10.603  1.00  0.00     0.035 A 
ATOM     14  C   UNL A   1     -52.075  46.423  11.368  1.00  0.00     0.056 A 
ATOM     15  C   UNL A   1     -51.937  46.629  12.741  1.00  0.00     0.103 A 
ATOM     16  C   UNL A   1     -52.554  47.724  13.347  1.00  0.00     0.108 A 
ATOM     17  C   UNL A   1     -53.308  48.612  12.581  1.00  0.00     0.041 A 
ATOM     18  C   UNL A   1     -53.446  48.406  11.209  1.00  0.00     0.020 A 
BRANCH  15  19
ATOM     19  O   UNL A   1     -51.198  45.756  13.480  1.00  0.00    -0.348 OA
BRANCH  19  20
ATOM     20  C   UNL A   1     -49.781  45.825  13.339  1.00  0.00     0.180 C 
BRANCH  20  21
ATOM     21  C   UNL A   1     -49.166  46.182  14.648  1.00  0.00     0.010 A 
ATOM     22  C   UNL A   1     -47.751  45.777  14.922  1.00  0.00     0.007 A 
ATOM     23  C   UNL A   1     -48.089  47.220  14.687  1.00  0.00     0.007 A 
ENDBRANCH  20  21
ENDBRANCH  19  20
ENDBRANCH  15  19
BRANCH  16  24
ATOM     24  O   UNL A   1     -52.425  47.937  14.687  1.00  0.00    -0.287 OA
BRANCH  24  25
ATOM     25  C   UNL A   1     -51.750  49.119  15.099  1.00  0.00     0.505 C 
ATOM     26  F   UNL A   1     -52.609  49.833  15.872  1.00  0.00    -0.184 F 
ATOM     27  F   UNL A   1     -50.706  48.781  15.893  1.00  0.00    -0.184 F 
ENDBRANCH  24  25
ENDBRANCH  16  24
ENDBRANCH  10  13
ENDBRANCH   4   9
TORSDOF 7
ENDMDL
MODEL 8
REMARK VINA RESULT:      -6.9      2.386      3.544
REMARK  7 active torsions:
REMARK  status: ('A' for Active; 'I' for Inactive)
REMARK    1  A    between atoms: O_5  and  C_13 
REMARK    2  A    between atoms: O_5  and  C_14 
REMARK    3  A    between atoms: O_6  and  C_15 
REMARK    4  A    between atoms: O_6  and  C_22 
REMARK       I    between atoms: N_8  and  C_20 
REMARK    5  A    between atoms: N_8  and  C_21 
REMARK    6  A    between atoms: C_10  and  C_13 
REMARK    7  A    between atoms: C_17  and  C_20 
ROOT
ATOM      1 CL   UNL A   1     -51.165  48.911   6.665  1.00  0.00    -0.080 Cl
ATOM      2 CL   UNL A   1     -52.320  43.667   7.700  1.00  0.00    -0.080 Cl
ATOM      3  N   UNL A   1     -51.363  45.655   4.395  1.00  0.00    -0.270 NA
ATOM      4  C   UNL A   1     -51.729  46.266   7.082  1.00  0.00     0.081 A 
ATOM      5  C   UNL A   1     -51.385  47.269   6.195  1.00  0.00     0.080 A 
ATOM      6  C   UNL A   1     -51.894  44.963   6.650  1.00  0.00     0.080 A 
ATOM      7  C   UNL A   1     -51.214  46.914   4.867  1.00  0.00     0.142 A 
ATOM      8  C   UNL A   1     -51.699  44.711   5.301  1.00  0.00     0.142 A 
ENDROOT
BRANCH   4   9
ATOM      9  N   UNL A   1     -51.915  46.577   8.451  1.00  0.00    -0.320 N 
ATOM     10  C   UNL A   1     -53.037  47.139   9.075  1.00  0.00     0.256 C 
ATOM     11  O   UNL A   1     -54.087  47.464   8.495  1.00  0.00    -0.267 OA
ATOM     12  H   UNL A   1     -51.155  46.371   9.043  1.00  0.00     0.169 HD
BRANCH  10  13
ATOM     13  C   UNL A   1     -52.921  47.368  10.506  1.00  0.00     0.035 A 
ATOM     14  C   UNL A   1     -52.263  46.437  11.310  1.00  0.00     0.056 A 
ATOM     15  C   UNL A   1     -52.152  46.657  12.683  1.00  0.00     0.103 A 
ATOM     16  C   UNL A   1     -52.699  47.807  13.252  1.00  0.00     0.108 A 
ATOM     17  C   UNL A   1     -53.357  48.738  12.448  1.00  0.00     0.041 A 
ATOM     18  C   UNL A   1     -53.467  48.518  11.075  1.00  0.00     0.020 A 
BRANCH  15  19
ATOM     19  O   UNL A   1     -51.508  45.742  13.459  1.00  0.00    -0.348 OA
BRANCH  19  20
ATOM     20  C   UNL A   1     -50.094  45.642  13.305  1.00  0.00     0.180 C 
BRANCH  20  21
ATOM     21  C   UNL A   1     -49.422  46.133  14.541  1.00  0.00     0.010 A 
ATOM     22  C   UNL A   1     -48.218  45.404  15.052  1.00  0.00     0.007 A 
ATOM     23  C   UNL A   1     -48.068  46.762  14.431  1.00  0.00     0.007 A 
ENDBRANCH  20  21
ENDBRANCH  19  20
ENDBRANCH  15  19
BRANCH  16  24
ATOM     24  O   UNL A   1     -52.596  48.034  14.591  1.00  0.00    -0.287 OA
BRANCH  24  25
ATOM     25  C   UNL A   1     -51.810  49.143  15.008  1.00  0.00     0.505 C 
ATOM     26  F   UNL A   1     -52.591  49.926  15.796  1.00  0.00    -0.184 F 
ATOM     27  F   UNL A   1     -50.795  48.701  15.789  1.00  0.00    -0.184 F 
ENDBRANCH  24  25
ENDBRANCH  16  24
ENDBRANCH  10  13
ENDBRANCH   4   9
TORSDOF 7
ENDMDL
MODEL 9
REMARK VINA RESULT:      -6.9      2.239      3.369
REMARK  7 active torsions:
REMARK  status: ('A' for Active; 'I' for Inactive)
REMARK    1  A    between atoms: O_5  and  C_13 
REMARK    2  A    between atoms: O_5  and  C_14 
REMARK    3  A    between atoms: O_6  and  C_15 
REMARK    4  A    between atoms: O_6  and  C_22 
REMARK       I    between atoms: N_8  and  C_20 
REMARK    5  A    between atoms: N_8  and  C_21 
REMARK    6  A    between atoms: C_10  and  C_13 
REMARK    7  A    between atoms: C_17  and  C_20 
ROOT
ATOM      1 CL   UNL A   1     -51.027  48.648   6.527  1.00  0.00    -0.080 Cl
ATOM      2 CL   UNL A   1     -52.786  43.654   7.898  1.00  0.00    -0.080 Cl
ATOM      3  N   UNL A   1     -51.377  45.229   4.532  1.00  0.00    -0.270 NA
ATOM      4  C   UNL A   1     -51.887  46.118   7.115  1.00  0.00     0.081 A 
ATOM      5  C   UNL A   1     -51.375  46.998   6.180  1.00  0.00     0.080 A 
ATOM      6  C   UNL A   1     -52.149  44.802   6.782  1.00  0.00     0.080 A 
ATOM      7  C   UNL A   1     -51.139  46.506   4.906  1.00  0.00     0.142 A 
ATOM      8  C   UNL A   1     -51.877  44.408   5.482  1.00  0.00     0.142 A 
ENDROOT
BRANCH   4   9
ATOM      9  N   UNL A   1     -52.147  46.571   8.432  1.00  0.00    -0.320 N 
ATOM     10  C   UNL A   1     -53.144  47.453   8.872  1.00  0.00     0.256 C 
ATOM     11  O   UNL A   1     -53.989  47.995   8.140  1.00  0.00    -0.267 OA
ATOM     12  H   UNL A   1     -51.548  46.220   9.130  1.00  0.00     0.169 HD
BRANCH  10  13
ATOM     13  C   UNL A   1     -53.144  47.752  10.295  1.00  0.00     0.035 A 
ATOM     14  C   UNL A   1     -52.687  46.802  11.208  1.00  0.00     0.056 A 
ATOM     15  C   UNL A   1     -52.689  47.090  12.573  1.00  0.00     0.103 A 
ATOM     16  C   UNL A   1     -53.146  48.327  13.024  1.00  0.00     0.108 A 
ATOM     17  C   UNL A   1     -53.603  49.278  12.111  1.00  0.00     0.041 A 
ATOM     18  C   UNL A   1     -53.602  48.990  10.746  1.00  0.00     0.020 A 
BRANCH  15  19
ATOM     19  O   UNL A   1     -52.241  46.154  13.455  1.00  0.00    -0.348 OA
BRANCH  19  20
ATOM     20  C   UNL A   1     -51.033  45.473  13.121  1.00  0.00     0.180 C 
BRANCH  20  21
ATOM     21  C   UNL A   1     -51.220  44.006  13.306  1.00  0.00     0.010 A 
ATOM     22  C   UNL A   1     -52.589  43.422  13.144  1.00  0.00     0.007 A 
ATOM     23  C   UNL A   1     -51.532  43.157  12.113  1.00  0.00     0.007 A 
ENDBRANCH  20  21
ENDBRANCH  19  20
ENDBRANCH  15  19
BRANCH  16  24
ATOM     24  O   UNL A   1     -53.151  48.621  14.355  1.00  0.00    -0.287 OA
BRANCH  24  25
ATOM     25  C   UNL A   1     -52.033  49.332  14.871  1.00  0.00     0.505 C 
ATOM     26  F   UNL A   1     -52.433  49.952  16.012  1.00  0.00    -0.184 F 
ATOM     27  F   UNL A   1     -51.070  48.448  15.229  1.00  0.00    -0.184 F 
ENDBRANCH  24  25
ENDBRANCH  16  24
ENDBRANCH  10  13
ENDBRANCH   4   9
TORSDOF 7
ENDMDL
