MODEL 1
REMARK VINA RESULT:      -7.7      0.000      0.000
REMARK  7 active torsions:
REMARK  status: ('A' for Active; 'I' for Inactive)
REMARK    1  A    between atoms: O_5  and  C_13 
REMARK    2  A    between atoms: O_5  and  C_14 
REMARK    3  A    between atoms: O_6  and  C_15 
REMARK    4  A    between atoms: O_6  and  C_22 
REMARK       I    between atoms: N_8  and  C_20 
REMARK    5  A    between atoms: N_8  and  C_21 
REMARK    6  A    between atoms: C_10  and  C_13 
REMARK    7  A    between atoms: C_17  and  C_20 
ROOT
ATOM      1 CL   UNL A   1     -52.208  43.042   9.410  1.00  0.00    -0.080 Cl
ATOM      2 CL   UNL A   1     -51.370  45.441   4.567  1.00  0.00    -0.080 Cl
ATOM      3  N   UNL A   1     -50.897  41.725   5.897  1.00  0.00    -0.270 NA
ATOM      4  C   UNL A   1     -51.756  44.150   6.949  1.00  0.00     0.081 A 
ATOM      5  C   UNL A   1     -51.730  43.028   7.756  1.00  0.00     0.080 A 
ATOM      6  C   UNL A   1     -51.361  44.082   5.626  1.00  0.00     0.080 A 
ATOM      7  C   UNL A   1     -51.293  41.843   7.184  1.00  0.00     0.142 A 
ATOM      8  C   UNL A   1     -50.942  42.851   5.149  1.00  0.00     0.142 A 
ENDROOT
BRANCH   4   9
ATOM      9  N   UNL A   1     -52.195  45.386   7.485  1.00  0.00    -0.320 N 
ATOM     10  C   UNL A   1     -51.516  46.251   8.353  1.00  0.00     0.256 C 
ATOM     11  O   UNL A   1     -50.375  46.058   8.805  1.00  0.00    -0.267 OA
ATOM     12  H   UNL A   1     -53.096  45.674   7.211  1.00  0.00     0.169 HD
BRANCH  10  13
ATOM     13  C   UNL A   1     -52.242  47.446   8.755  1.00  0.00     0.035 A 
ATOM     14  C   UNL A   1     -52.722  47.564  10.060  1.00  0.00     0.056 A 
ATOM     15  C   UNL A   1     -53.419  48.709  10.444  1.00  0.00     0.103 A 
ATOM     16  C   UNL A   1     -53.636  49.736   9.526  1.00  0.00     0.108 A 
ATOM     17  C   UNL A   1     -53.156  49.618   8.221  1.00  0.00     0.041 A 
ATOM     18  C   UNL A   1     -52.458  48.472   7.836  1.00  0.00     0.020 A 
BRANCH  15  19
ATOM     19  O   UNL A   1     -53.884  48.814  11.720  1.00  0.00    -0.348 OA
BRANCH  19  20
ATOM     20  C   UNL A   1     -52.957  49.248  12.714  1.00  0.00     0.180 C 
BRANCH  20  21
ATOM     21  C   UNL A   1     -52.919  48.258  13.827  1.00  0.00     0.010 A 
ATOM     22  C   UNL A   1     -51.957  47.114  13.748  1.00  0.00     0.007 A 
ATOM     23  C   UNL A   1     -51.725  48.225  14.729  1.00  0.00     0.007 A 
ENDBRANCH  20  21
ENDBRANCH  19  20
ENDBRANCH  15  19
BRANCH  16  24
ATOM     24  O   UNL A   1     -54.314  50.860   9.890  1.00  0.00    -0.287 OA
BRANCH  24  25
ATOM     25  C   UNL A   1     -53.573  52.071   9.975  1.00  0.00     0.505 C 
ATOM     26  F   UNL A   1     -54.390  53.079   9.571  1.00  0.00    -0.184 F 
ATOM     27  F   UNL A   1     -53.270  52.317  11.272  1.00  0.00    -0.184 F 
ENDBRANCH  24  25
ENDBRANCH  16  24
ENDBRANCH  10  13
ENDBRANCH   4   9
TORSDOF 7
ENDMDL
MODEL 2
REMARK VINA RESULT:      -7.7      0.786      1.973
REMARK  7 active torsions:
REMARK  status: ('A' for Active; 'I' for Inactive)
REMARK    1  A    between atoms: O_5  and  C_13 
REMARK    2  A    between atoms: O_5  and  C_14 
REMARK    3  A    between atoms: O_6  and  C_15 
REMARK    4  A    between atoms: O_6  and  C_22 
REMARK       I    between atoms: N_8  and  C_20 
REMARK    5  A    between atoms: N_8  and  C_21 
REMARK    6  A    between atoms: C_10  and  C_13 
REMARK    7  A    between atoms: C_17  and  C_20 
ROOT
ATOM      1 CL   UNL A   1     -51.482  44.390   5.491  1.00  0.00    -0.080 Cl
ATOM      2 CL   UNL A   1     -52.643  42.828  10.603  1.00  0.00    -0.080 Cl
ATOM      3  N   UNL A   1     -51.269  40.912   7.403  1.00  0.00    -0.270 NA
ATOM      4  C   UNL A   1     -52.033  43.511   8.023  1.00  0.00     0.081 A 
ATOM      5  C   UNL A   1     -51.591  43.217   6.747  1.00  0.00     0.080 A 
ATOM      6  C   UNL A   1     -52.102  42.530   8.995  1.00  0.00     0.080 A 
ATOM      7  C   UNL A   1     -51.222  41.907   6.488  1.00  0.00     0.142 A 
ATOM      8  C   UNL A   1     -51.709  41.251   8.635  1.00  0.00     0.142 A 
ENDROOT
BRANCH   4   9
ATOM      9  N   UNL A   1     -52.422  44.836   8.340  1.00  0.00    -0.320 N 
ATOM     10  C   UNL A   1     -51.629  45.888   8.820  1.00  0.00     0.256 C 
ATOM     11  O   UNL A   1     -50.411  45.814   9.050  1.00  0.00    -0.267 OA
ATOM     12  H   UNL A   1     -53.375  45.046   8.206  1.00  0.00     0.169 HD
BRANCH  10  13
ATOM     13  C   UNL A   1     -52.324  47.139   9.081  1.00  0.00     0.035 A 
ATOM     14  C   UNL A   1     -52.821  47.407  10.356  1.00  0.00     0.056 A 
ATOM     15  C   UNL A   1     -53.488  48.607  10.606  1.00  0.00     0.103 A 
ATOM     16  C   UNL A   1     -53.657  49.537   9.580  1.00  0.00     0.108 A 
ATOM     17  C   UNL A   1     -53.160  49.269   8.305  1.00  0.00     0.041 A 
ATOM     18  C   UNL A   1     -52.493  48.069   8.056  1.00  0.00     0.020 A 
BRANCH  15  19
ATOM     19  O   UNL A   1     -53.969  48.859  11.854  1.00  0.00    -0.348 OA
BRANCH  19  20
ATOM     20  C   UNL A   1     -53.050  49.383  12.810  1.00  0.00     0.180 C 
BRANCH  20  21
ATOM     21  C   UNL A   1     -52.985  48.475  13.989  1.00  0.00     0.010 A 
ATOM     22  C   UNL A   1     -52.195  47.207  13.887  1.00  0.00     0.007 A 
ATOM     23  C   UNL A   1     -51.692  48.340  14.732  1.00  0.00     0.007 A 
ENDBRANCH  20  21
ENDBRANCH  19  20
ENDBRANCH  15  19
BRANCH  16  24
ATOM     24  O   UNL A   1     -54.306  50.713   9.812  1.00  0.00    -0.287 OA
BRANCH  24  25
ATOM     25  C   UNL A   1     -53.510  51.887   9.922  1.00  0.00     0.505 C 
ATOM     26  F   UNL A   1     -54.238  52.922   9.429  1.00  0.00    -0.184 F 
ATOM     27  F   UNL A   1     -53.295  52.157  11.233  1.00  0.00    -0.184 F 
ENDBRANCH  24  25
ENDBRANCH  16  24
ENDBRANCH  10  13
ENDBRANCH   4   9
TORSDOF 7
ENDMDL
MODEL 3
REMARK VINA RESULT:      -7.4      1.545      2.528
REMARK  7 active torsions:
REMARK  status: ('A' for Active; 'I' for Inactive)
REMARK    1  A    between atoms: O_5  and  C_13 
REMARK    2  A    between atoms: O_5  and  C_14 
REMARK    3  A    between atoms: O_6  and  C_15 
REMARK    4  A    between atoms: O_6  and  C_22 
REMARK       I    between atoms: N_8  and  C_20 
REMARK    5  A    between atoms: N_8  and  C_21 
REMARK    6  A    between atoms: C_10  and  C_13 
REMARK    7  A    between atoms: C_17  and  C_20 
ROOT
ATOM      1 CL   UNL A   1     -51.851  47.095   5.187  1.00  0.00    -0.080 Cl
ATOM      2 CL   UNL A   1     -51.895  43.632   9.420  1.00  0.00    -0.080 Cl
ATOM      3  N   UNL A   1     -51.228  43.185   5.528  1.00  0.00    -0.270 NA
ATOM      4  C   UNL A   1     -51.849  45.284   7.239  1.00  0.00     0.081 A 
ATOM      5  C   UNL A   1     -51.687  45.531   5.889  1.00  0.00     0.080 A 
ATOM      6  C   UNL A   1     -51.707  44.007   7.750  1.00  0.00     0.080 A 
ATOM      7  C   UNL A   1     -51.379  44.451   5.077  1.00  0.00     0.142 A 
ATOM      8  C   UNL A   1     -51.397  42.996   6.856  1.00  0.00     0.142 A 
ENDROOT
BRANCH   4   9
ATOM      9  N   UNL A   1     -52.165  46.355   8.112  1.00  0.00    -0.320 N 
ATOM     10  C   UNL A   1     -53.428  46.794   8.534  1.00  0.00     0.256 C 
ATOM     11  O   UNL A   1     -54.510  46.289   8.191  1.00  0.00    -0.267 OA
ATOM     12  H   UNL A   1     -51.397  46.856   8.469  1.00  0.00     0.169 HD
BRANCH  10  13
ATOM     13  C   UNL A   1     -53.435  47.947   9.420  1.00  0.00     0.035 A 
ATOM     14  C   UNL A   1     -53.140  47.788  10.774  1.00  0.00     0.056 A 
ATOM     15  C   UNL A   1     -53.148  48.895  11.623  1.00  0.00     0.103 A 
ATOM     16  C   UNL A   1     -53.452  50.159  11.120  1.00  0.00     0.108 A 
ATOM     17  C   UNL A   1     -53.748  50.318   9.766  1.00  0.00     0.041 A 
ATOM     18  C   UNL A   1     -53.740  49.212   8.916  1.00  0.00     0.020 A 
BRANCH  15  19
ATOM     19  O   UNL A   1     -52.858  48.728  12.944  1.00  0.00    -0.348 OA
BRANCH  19  20
ATOM     20  C   UNL A   1     -52.758  47.388  13.421  1.00  0.00     0.180 C 
BRANCH  20  21
ATOM     21  C   UNL A   1     -51.334  47.071  13.723  1.00  0.00     0.010 A 
ATOM     22  C   UNL A   1     -51.004  45.777  14.401  1.00  0.00     0.007 A 
ATOM     23  C   UNL A   1     -50.653  45.980  12.957  1.00  0.00     0.007 A 
ENDBRANCH  20  21
ENDBRANCH  19  20
ENDBRANCH  15  19
BRANCH  16  24
ATOM     24  O   UNL A   1     -53.463  51.247  11.939  1.00  0.00    -0.287 OA
BRANCH  24  25
ATOM     25  C   UNL A   1     -53.222  52.516  11.344  1.00  0.00     0.505 C 
ATOM     26  F   UNL A   1     -54.401  53.190  11.326  1.00  0.00    -0.184 F 
ATOM     27  F   UNL A   1     -52.383  53.227  12.135  1.00  0.00    -0.184 F 
ENDBRANCH  24  25
ENDBRANCH  16  24
ENDBRANCH  10  13
ENDBRANCH   4   9
TORSDOF 7
ENDMDL
MODEL 4
REMARK VINA RESULT:      -7.2      3.327      5.373
REMARK  7 active torsions:
REMARK  status: ('A' for Active; 'I' for Inactive)
REMARK    1  A    between atoms: O_5  and  C_13 
REMARK    2  A    between atoms: O_5  and  C_14 
REMARK    3  A    between atoms: O_6  and  C_15 
REMARK    4  A    between atoms: O_6  and  C_22 
REMARK       I    between atoms: N_8  and  C_20 
REMARK    5  A    between atoms: N_8  and  C_21 
REMARK    6  A    between atoms: C_10  and  C_13 
REMARK    7  A    between atoms: C_17  and  C_20 
ROOT
ATOM      1 CL   UNL A   1     -52.925  43.265  12.002  1.00  0.00    -0.080 Cl
ATOM      2 CL   UNL A   1     -48.832  46.378  13.863  1.00  0.00    -0.080 Cl
ATOM      3  N   UNL A   1     -49.670  42.504  14.152  1.00  0.00    -0.270 NA
ATOM      4  C   UNL A   1     -50.835  44.737  12.977  1.00  0.00     0.081 A 
ATOM      5  C   UNL A   1     -51.449  43.505  12.856  1.00  0.00     0.080 A 
ATOM      6  C   UNL A   1     -49.649  44.874  13.675  1.00  0.00     0.080 A 
ATOM      7  C   UNL A   1     -50.829  42.423  13.460  1.00  0.00     0.142 A 
ATOM      8  C   UNL A   1     -49.109  43.730  14.242  1.00  0.00     0.142 A 
ENDROOT
BRANCH   4   9
ATOM      9  N   UNL A   1     -51.428  45.876  12.378  1.00  0.00    -0.320 N 
ATOM     10  C   UNL A   1     -52.252  46.844  12.968  1.00  0.00     0.256 C 
ATOM     11  O   UNL A   1     -52.604  46.850  14.159  1.00  0.00    -0.267 OA
ATOM     12  H   UNL A   1     -51.235  46.003  11.421  1.00  0.00     0.169 HD
BRANCH  10  13
ATOM     13  C   UNL A   1     -52.735  47.892  12.083  1.00  0.00     0.035 A 
ATOM     14  C   UNL A   1     -52.949  47.619  10.731  1.00  0.00     0.056 A 
ATOM     15  C   UNL A   1     -53.411  48.625   9.883  1.00  0.00     0.103 A 
ATOM     16  C   UNL A   1     -53.659  49.902  10.385  1.00  0.00     0.108 A 
ATOM     17  C   UNL A   1     -53.445  50.175  11.736  1.00  0.00     0.041 A 
ATOM     18  C   UNL A   1     -52.983  49.169  12.585  1.00  0.00     0.020 A 
BRANCH  15  19
ATOM     19  O   UNL A   1     -53.617  48.348   8.565  1.00  0.00    -0.348 OA
BRANCH  19  20
ATOM     20  C   UNL A   1     -53.422  46.998   8.149  1.00  0.00     0.180 C 
BRANCH  20  21
ATOM     21  C   UNL A   1     -52.270  46.928   7.207  1.00  0.00     0.010 A 
ATOM     22  C   UNL A   1     -51.418  48.143   7.009  1.00  0.00     0.007 A 
ATOM     23  C   UNL A   1     -50.879  46.961   7.757  1.00  0.00     0.007 A 
ENDBRANCH  20  21
ENDBRANCH  19  20
ENDBRANCH  15  19
BRANCH  16  24
ATOM     24  O   UNL A   1     -54.112  50.893   9.566  1.00  0.00    -0.287 OA
BRANCH  24  25
ATOM     25  C   UNL A   1     -53.700  52.222   9.859  1.00  0.00     0.505 C 
ATOM     26  F   UNL A   1     -52.604  52.487   9.100  1.00  0.00    -0.184 F 
ATOM     27  F   UNL A   1     -54.665  53.085   9.457  1.00  0.00    -0.184 F 
ENDBRANCH  24  25
ENDBRANCH  16  24
ENDBRANCH  10  13
ENDBRANCH   4   9
TORSDOF 7
ENDMDL
MODEL 5
REMARK VINA RESULT:      -7.1      3.168      5.400
REMARK  7 active torsions:
REMARK  status: ('A' for Active; 'I' for Inactive)
REMARK    1  A    between atoms: O_5  and  C_13 
REMARK    2  A    between atoms: O_5  and  C_14 
REMARK    3  A    between atoms: O_6  and  C_15 
REMARK    4  A    between atoms: O_6  and  C_22 
REMARK       I    between atoms: N_8  and  C_20 
REMARK    5  A    between atoms: N_8  and  C_21 
REMARK    6  A    between atoms: C_10  and  C_13 
REMARK    7  A    between atoms: C_17  and  C_20 
ROOT
ATOM      1 CL   UNL A   1     -48.566  46.241  13.420  1.00  0.00    -0.080 Cl
ATOM      2 CL   UNL A   1     -52.997  43.270  12.212  1.00  0.00    -0.080 Cl
ATOM      3  N   UNL A   1     -49.534  42.426  13.970  1.00  0.00    -0.270 NA
ATOM      4  C   UNL A   1     -50.736  44.671  12.858  1.00  0.00     0.081 A 
ATOM      5  C   UNL A   1     -49.467  44.774  13.396  1.00  0.00     0.080 A 
ATOM      6  C   UNL A   1     -51.415  43.467  12.864  1.00  0.00     0.080 A 
ATOM      7  C   UNL A   1     -48.911  43.626  13.938  1.00  0.00     0.142 A 
ATOM      8  C   UNL A   1     -50.772  42.378  13.431  1.00  0.00     0.142 A 
ENDROOT
BRANCH   4   9
ATOM      9  N   UNL A   1     -51.349  45.816  12.291  1.00  0.00    -0.320 N 
ATOM     10  C   UNL A   1     -52.182  46.758  12.912  1.00  0.00     0.256 C 
ATOM     11  O   UNL A   1     -52.523  46.730  14.106  1.00  0.00    -0.267 OA
ATOM     12  H   UNL A   1     -51.167  45.970  11.336  1.00  0.00     0.169 HD
BRANCH  10  13
ATOM     13  C   UNL A   1     -52.687  47.820  12.057  1.00  0.00     0.035 A 
ATOM     14  C   UNL A   1     -52.676  47.664  10.671  1.00  0.00     0.056 A 
ATOM     15  C   UNL A   1     -53.159  48.684   9.851  1.00  0.00     0.103 A 
ATOM     16  C   UNL A   1     -53.653  49.860  10.418  1.00  0.00     0.108 A 
ATOM     17  C   UNL A   1     -53.664  50.016  11.804  1.00  0.00     0.041 A 
ATOM     18  C   UNL A   1     -53.180  48.995  12.623  1.00  0.00     0.020 A 
BRANCH  15  19
ATOM     19  O   UNL A   1     -53.144  48.522   8.499  1.00  0.00    -0.348 OA
BRANCH  19  20
ATOM     20  C   UNL A   1     -53.729  47.328   7.984  1.00  0.00     0.180 C 
BRANCH  20  21
ATOM     21  C   UNL A   1     -52.811  46.716   6.981  1.00  0.00     0.010 A 
ATOM     22  C   UNL A   1     -51.523  47.407   6.657  1.00  0.00     0.007 A 
ATOM     23  C   UNL A   1     -51.514  46.131   7.445  1.00  0.00     0.007 A 
ENDBRANCH  20  21
ENDBRANCH  19  20
ENDBRANCH  15  19
BRANCH  16  24
ATOM     24  O   UNL A   1     -54.129  50.862   9.628  1.00  0.00    -0.287 OA
BRANCH  24  25
ATOM     25  C   UNL A   1     -53.605  52.167   9.842  1.00  0.00     0.505 C 
ATOM     26  F   UNL A   1     -52.590  52.352   8.957  1.00  0.00    -0.184 F 
ATOM     27  F   UNL A   1     -54.556  53.083   9.535  1.00  0.00    -0.184 F 
ENDBRANCH  24  25
ENDBRANCH  16  24
ENDBRANCH  10  13
ENDBRANCH   4   9
TORSDOF 7
ENDMDL
MODEL 6
REMARK VINA RESULT:      -7.1      2.261      2.474
REMARK  7 active torsions:
REMARK  status: ('A' for Active; 'I' for Inactive)
REMARK    1  A    between atoms: O_5  and  C_13 
REMARK    2  A    between atoms: O_5  and  C_14 
REMARK    3  A    between atoms: O_6  and  C_15 
REMARK    4  A    between atoms: O_6  and  C_22 
REMARK       I    between atoms: N_8  and  C_20 
REMARK    5  A    between atoms: N_8  and  C_21 
REMARK    6  A    between atoms: C_10  and  C_13 
REMARK    7  A    between atoms: C_17  and  C_20 
ROOT
ATOM      1 CL   UNL A   1     -55.045  44.157   8.743  1.00  0.00    -0.080 Cl
ATOM      2 CL   UNL A   1     -49.774  44.791  10.054  1.00  0.00    -0.080 Cl
ATOM      3  N   UNL A   1     -51.859  41.797   8.480  1.00  0.00    -0.270 NA
ATOM      4  C   UNL A   1     -52.390  44.377   9.365  1.00  0.00     0.081 A 
ATOM      5  C   UNL A   1     -53.419  43.605   8.860  1.00  0.00     0.080 A 
ATOM      6  C   UNL A   1     -51.100  43.883   9.437  1.00  0.00     0.080 A 
ATOM      7  C   UNL A   1     -53.103  42.325   8.432  1.00  0.00     0.142 A 
ATOM      8  C   UNL A   1     -50.888  42.591   8.983  1.00  0.00     0.142 A 
ENDROOT
BRANCH   4   9
ATOM      9  N   UNL A   1     -52.660  45.693   9.816  1.00  0.00    -0.320 N 
ATOM     10  C   UNL A   1     -52.849  46.855   9.055  1.00  0.00     0.256 C 
ATOM     11  O   UNL A   1     -52.807  46.909   7.814  1.00  0.00    -0.267 OA
ATOM     12  H   UNL A   1     -52.723  45.806  10.792  1.00  0.00     0.169 HD
BRANCH  10  13
ATOM     13  C   UNL A   1     -53.086  48.076   9.809  1.00  0.00     0.035 A 
ATOM     14  C   UNL A   1     -53.061  48.051  11.203  1.00  0.00     0.056 A 
ATOM     15  C   UNL A   1     -53.289  49.222  11.925  1.00  0.00     0.103 A 
ATOM     16  C   UNL A   1     -53.542  50.418  11.253  1.00  0.00     0.108 A 
ATOM     17  C   UNL A   1     -53.566  50.443   9.859  1.00  0.00     0.041 A 
ATOM     18  C   UNL A   1     -53.338  49.272   9.137  1.00  0.00     0.020 A 
BRANCH  15  19
ATOM     19  O   UNL A   1     -53.262  49.186  13.286  1.00  0.00    -0.348 OA
BRANCH  19  20
ATOM     20  C   UNL A   1     -52.791  47.985  13.894  1.00  0.00     0.180 C 
BRANCH  20  21
ATOM     21  C   UNL A   1     -51.339  48.119  14.203  1.00  0.00     0.010 A 
ATOM     22  C   UNL A   1     -50.904  48.187  15.634  1.00  0.00     0.007 A 
ATOM     23  C   UNL A   1     -50.617  46.961  14.818  1.00  0.00     0.007 A 
ENDBRANCH  20  21
ENDBRANCH  19  20
ENDBRANCH  15  19
BRANCH  16  24
ATOM     24  O   UNL A   1     -53.764  51.569  11.948  1.00  0.00    -0.287 OA
BRANCH  24  25
ATOM     25  C   UNL A   1     -53.283  52.779  11.377  1.00  0.00     0.505 C 
ATOM     26  F   UNL A   1     -54.323  53.652  11.332  1.00  0.00    -0.184 F 
ATOM     27  F   UNL A   1     -52.358  53.324  12.205  1.00  0.00    -0.184 F 
ENDBRANCH  24  25
ENDBRANCH  16  24
ENDBRANCH  10  13
ENDBRANCH   4   9
TORSDOF 7
ENDMDL
MODEL 7
REMARK VINA RESULT:      -7.0      3.034      4.262
REMARK  7 active torsions:
REMARK  status: ('A' for Active; 'I' for Inactive)
REMARK    1  A    between atoms: O_5  and  C_13 
REMARK    2  A    between atoms: O_5  and  C_14 
REMARK    3  A    between atoms: O_6  and  C_15 
REMARK    4  A    between atoms: O_6  and  C_22 
REMARK       I    between atoms: N_8  and  C_20 
REMARK    5  A    between atoms: N_8  and  C_21 
REMARK    6  A    between atoms: C_10  and  C_13 
REMARK    7  A    between atoms: C_17  and  C_20 
ROOT
ATOM      1 CL   UNL A   1     -52.297  43.537   7.727  1.00  0.00    -0.080 Cl
ATOM      2 CL   UNL A   1     -51.165  48.781   6.666  1.00  0.00    -0.080 Cl
ATOM      3  N   UNL A   1     -51.392  45.521   4.405  1.00  0.00    -0.270 NA
ATOM      4  C   UNL A   1     -51.719  46.136   7.096  1.00  0.00     0.081 A 
ATOM      5  C   UNL A   1     -51.888  44.832   6.669  1.00  0.00     0.080 A 
ATOM      6  C   UNL A   1     -51.389  47.138   6.202  1.00  0.00     0.080 A 
ATOM      7  C   UNL A   1     -51.713  44.577   5.318  1.00  0.00     0.142 A 
ATOM      8  C   UNL A   1     -51.238  46.780   4.872  1.00  0.00     0.142 A 
ENDROOT
BRANCH   4   9
ATOM      9  N   UNL A   1     -51.887  46.450   8.467  1.00  0.00    -0.320 N 
ATOM     10  C   UNL A   1     -52.991  47.038   9.099  1.00  0.00     0.256 C 
ATOM     11  O   UNL A   1     -54.036  47.389   8.528  1.00  0.00    -0.267 OA
ATOM     12  H   UNL A   1     -51.128  46.225   9.052  1.00  0.00     0.169 HD
BRANCH  10  13
ATOM     13  C   UNL A   1     -52.857  47.263  10.530  1.00  0.00     0.035 A 
ATOM     14  C   UNL A   1     -52.267  46.290  11.337  1.00  0.00     0.056 A 
ATOM     15  C   UNL A   1     -52.141  46.506  12.709  1.00  0.00     0.103 A 
ATOM     16  C   UNL A   1     -52.604  47.694  13.274  1.00  0.00     0.108 A 
ATOM     17  C   UNL A   1     -53.194  48.667  12.467  1.00  0.00     0.041 A 
ATOM     18  C   UNL A   1     -53.321  48.451  11.095  1.00  0.00     0.020 A 
BRANCH  15  19
ATOM     19  O   UNL A   1     -51.563  45.550  13.488  1.00  0.00    -0.348 OA
BRANCH  19  20
ATOM     20  C   UNL A   1     -51.446  44.243  12.928  1.00  0.00     0.180 C 
BRANCH  20  21
ATOM     21  C   UNL A   1     -52.653  43.442  13.276  1.00  0.00     0.010 A 
ATOM     22  C   UNL A   1     -53.178  42.451  12.283  1.00  0.00     0.007 A 
ATOM     23  C   UNL A   1     -52.503  41.975  13.535  1.00  0.00     0.007 A 
ENDBRANCH  20  21
ENDBRANCH  19  20
ENDBRANCH  15  19
BRANCH  16  24
ATOM     24  O   UNL A   1     -52.485  47.917  14.613  1.00  0.00    -0.287 OA
BRANCH  24  25
ATOM     25  C   UNL A   1     -51.740  49.058  15.021  1.00  0.00     0.505 C 
ATOM     26  F   UNL A   1     -52.526  49.780  15.863  1.00  0.00    -0.184 F 
ATOM     27  F   UNL A   1     -50.669  48.653  15.746  1.00  0.00    -0.184 F 
ENDBRANCH  24  25
ENDBRANCH  16  24
ENDBRANCH  10  13
ENDBRANCH   4   9
TORSDOF 7
ENDMDL
MODEL 8
REMARK VINA RESULT:      -7.0      2.987      4.523
REMARK  7 active torsions:
REMARK  status: ('A' for Active; 'I' for Inactive)
REMARK    1  A    between atoms: O_5  and  C_13 
REMARK    2  A    between atoms: O_5  and  C_14 
REMARK    3  A    between atoms: O_6  and  C_15 
REMARK    4  A    between atoms: O_6  and  C_22 
REMARK       I    between atoms: N_8  and  C_20 
REMARK    5  A    between atoms: N_8  and  C_21 
REMARK    6  A    between atoms: C_10  and  C_13 
REMARK    7  A    between atoms: C_17  and  C_20 
ROOT
ATOM      1 CL   UNL A   1     -51.171  48.965   6.751  1.00  0.00    -0.080 Cl
ATOM      2 CL   UNL A   1     -52.292  43.699   7.710  1.00  0.00    -0.080 Cl
ATOM      3  N   UNL A   1     -51.374  45.746   4.430  1.00  0.00    -0.270 NA
ATOM      4  C   UNL A   1     -51.719  46.311   7.129  1.00  0.00     0.081 A 
ATOM      5  C   UNL A   1     -51.388  47.330   6.256  1.00  0.00     0.080 A 
ATOM      6  C   UNL A   1     -51.881  45.014   6.677  1.00  0.00     0.080 A 
ATOM      7  C   UNL A   1     -51.228  46.997   4.920  1.00  0.00     0.142 A 
ATOM      8  C   UNL A   1     -51.698  44.785   5.323  1.00  0.00     0.142 A 
ENDROOT
BRANCH   4   9
ATOM      9  N   UNL A   1     -51.894  46.598   8.505  1.00  0.00    -0.320 N 
ATOM     10  C   UNL A   1     -52.966  47.249   9.132  1.00  0.00     0.256 C 
ATOM     11  O   UNL A   1     -53.970  47.691   8.550  1.00  0.00    -0.267 OA
ATOM     12  H   UNL A   1     -51.166  46.302   9.099  1.00  0.00     0.169 HD
BRANCH  10  13
ATOM     13  C   UNL A   1     -52.848  47.424  10.571  1.00  0.00     0.035 A 
ATOM     14  C   UNL A   1     -52.386  46.374  11.366  1.00  0.00     0.056 A 
ATOM     15  C   UNL A   1     -52.275  46.543  12.746  1.00  0.00     0.103 A 
ATOM     16  C   UNL A   1     -52.625  47.759  13.331  1.00  0.00     0.108 A 
ATOM     17  C   UNL A   1     -53.087  48.808  12.537  1.00  0.00     0.041 A 
ATOM     18  C   UNL A   1     -53.199  48.640  11.156  1.00  0.00     0.020 A 
BRANCH  15  19
ATOM     19  O   UNL A   1     -51.822  45.512  13.512  1.00  0.00    -0.348 OA
BRANCH  19  20
ATOM     20  C   UNL A   1     -50.996  44.542  12.872  1.00  0.00     0.180 C 
BRANCH  20  21
ATOM     21  C   UNL A   1     -51.551  43.179  13.109  1.00  0.00     0.010 A 
ATOM     22  C   UNL A   1     -53.017  43.027  13.372  1.00  0.00     0.007 A 
ATOM     23  C   UNL A   1     -52.434  42.563  12.070  1.00  0.00     0.007 A 
ENDBRANCH  20  21
ENDBRANCH  19  20
ENDBRANCH  15  19
BRANCH  16  24
ATOM     24  O   UNL A   1     -52.519  47.936  14.678  1.00  0.00    -0.287 OA
BRANCH  24  25
ATOM     25  C   UNL A   1     -51.620  48.938  15.137  1.00  0.00     0.505 C 
ATOM     26  F   UNL A   1     -52.358  49.903  15.745  1.00  0.00    -0.184 F 
ATOM     27  F   UNL A   1     -50.815  48.410  16.090  1.00  0.00    -0.184 F 
ENDBRANCH  24  25
ENDBRANCH  16  24
ENDBRANCH  10  13
ENDBRANCH   4   9
TORSDOF 7
ENDMDL
MODEL 9
REMARK VINA RESULT:      -7.0      2.234      4.227
REMARK  7 active torsions:
REMARK  status: ('A' for Active; 'I' for Inactive)
REMARK    1  A    between atoms: O_5  and  C_13 
REMARK    2  A    between atoms: O_5  and  C_14 
REMARK    3  A    between atoms: O_6  and  C_15 
REMARK    4  A    between atoms: O_6  and  C_22 
REMARK       I    between atoms: N_8  and  C_20 
REMARK    5  A    between atoms: N_8  and  C_21 
REMARK    6  A    between atoms: C_10  and  C_13 
REMARK    7  A    between atoms: C_17  and  C_20 
ROOT
ATOM      1 CL   UNL A   1     -51.788  46.481   6.496  1.00  0.00    -0.080 Cl
ATOM      2 CL   UNL A   1     -51.484  41.804   9.314  1.00  0.00    -0.080 Cl
ATOM      3  N   UNL A   1     -51.311  42.679   5.441  1.00  0.00    -0.270 NA
ATOM      4  C   UNL A   1     -51.624  44.089   7.815  1.00  0.00     0.081 A 
ATOM      5  C   UNL A   1     -51.614  44.772   6.613  1.00  0.00     0.080 A 
ATOM      6  C   UNL A   1     -51.481  42.715   7.853  1.00  0.00     0.080 A 
ATOM      7  C   UNL A   1     -51.456  44.023   5.458  1.00  0.00     0.142 A 
ATOM      8  C   UNL A   1     -51.328  42.058   6.642  1.00  0.00     0.142 A 
ENDROOT
BRANCH   4   9
ATOM      9  N   UNL A   1     -51.783  44.808   9.026  1.00  0.00    -0.320 N 
ATOM     10  C   UNL A   1     -50.801  45.184   9.953  1.00  0.00     0.256 C 
ATOM     11  O   UNL A   1     -49.589  44.934   9.849  1.00  0.00    -0.267 OA
ATOM     12  H   UNL A   1     -52.704  45.079   9.244  1.00  0.00     0.169 HD
BRANCH  10  13
ATOM     13  C   UNL A   1     -51.277  45.900  11.127  1.00  0.00     0.035 A 
ATOM     14  C   UNL A   1     -52.299  46.841  11.002  1.00  0.00     0.056 A 
ATOM     15  C   UNL A   1     -52.754  47.528  12.128  1.00  0.00     0.103 A 
ATOM     16  C   UNL A   1     -52.188  47.273  13.377  1.00  0.00     0.108 A 
ATOM     17  C   UNL A   1     -51.166  46.332  13.501  1.00  0.00     0.041 A 
ATOM     18  C   UNL A   1     -50.711  45.645  12.375  1.00  0.00     0.020 A 
BRANCH  15  19
ATOM     19  O   UNL A   1     -53.752  48.445  11.996  1.00  0.00    -0.348 OA
BRANCH  19  20
ATOM     20  C   UNL A   1     -53.375  49.759  11.590  1.00  0.00     0.180 C 
BRANCH  20  21
ATOM     21  C   UNL A   1     -54.062  50.102  10.312  1.00  0.00     0.010 A 
ATOM     22  C   UNL A   1     -53.448  51.128   9.410  1.00  0.00     0.007 A 
ATOM     23  C   UNL A   1     -53.441  49.680   9.018  1.00  0.00     0.007 A 
ENDBRANCH  20  21
ENDBRANCH  19  20
ENDBRANCH  15  19
BRANCH  16  24
ATOM     24  O   UNL A   1     -52.625  47.936  14.484  1.00  0.00    -0.287 OA
BRANCH  24  25
ATOM     25  C   UNL A   1     -51.739  48.882  15.071  1.00  0.00     0.505 C 
ATOM     26  F   UNL A   1     -52.498  49.821  15.695  1.00  0.00    -0.184 F 
ATOM     27  F   UNL A   1     -51.011  48.270  16.037  1.00  0.00    -0.184 F 
ENDBRANCH  24  25
ENDBRANCH  16  24
ENDBRANCH  10  13
ENDBRANCH   4   9
TORSDOF 7
ENDMDL
