MODEL 1
REMARK VINA RESULT:      -6.8      0.000      0.000
REMARK  11 active torsions:
REMARK  status: ('A' for Active; 'I' for Inactive)
REMARK    1  A    between atoms: C1_1  and  C2_2 
REMARK    2  A    between atoms: C1_1  and  C10_13 
REMARK    3  A    between atoms: C2_2  and  C3_3 
REMARK    4  A    between atoms: C3_3  and  C4_4 
REMARK    5  A    between atoms: C6_6  and  O1_7 
REMARK    6  A    between atoms: C7_8  and  O2_9 
REMARK    7  A    between atoms: C10_13  and  O4_14 
REMARK    8  A    between atoms: C10_13  and  C11_15 
REMARK    9  A    between atoms: C11_15  and  O5_16 
REMARK   10  A    between atoms: C11_15  and  C12_17 
REMARK   11  A    between atoms: C12_17  and  O6_18 
ROOT
HETATM    1  C1  UNL     1      34.033  73.218  21.590  1.00  0.00     0.158 C 
HETATM    2  O3  UNL     1      34.363  73.941  22.535  1.00  0.00    -0.295 OA
ENDROOT
BRANCH   1   3
HETATM    3  C2  UNL     1      33.772  73.812  20.217  1.00  0.00     0.086 C 
BRANCH   3   4
HETATM    4  C3  UNL     1      32.297  74.093  19.941  1.00  0.00     0.046 C 
BRANCH   4   5
HETATM    5  C4  UNL     1      31.872  75.502  20.281  1.00  0.00    -0.055 A 
HETATM    6  C5  UNL     1      31.494  75.842  21.590  1.00  0.00     0.046 A 
HETATM    7  C6  UNL     1      31.096  77.144  21.876  1.00  0.00     0.099 A 
HETATM    8  C7  UNL     1      31.078  78.111  20.875  1.00  0.00     0.098 A 
HETATM    9  C8  UNL     1      31.452  77.796  19.579  1.00  0.00     0.040 A 
HETATM   10  C9  UNL     1      31.852  76.492  19.282  1.00  0.00     0.010 A 
BRANCH   7  11
HETATM   11  O1  UNL     1      30.713  77.523  23.132  1.00  0.00    -0.358 OA
HETATM   12  H   UNL     1      30.640  78.433  23.346  1.00  0.00     0.217 HD
ENDBRANCH   7  11
BRANCH   8  13
HETATM   13  O2  UNL     1      30.686  79.386  21.166  1.00  0.00    -0.358 OA
HETATM   14  H   UNL     1      31.309  80.085  21.143  1.00  0.00     0.217 HD
ENDBRANCH   8  13
ENDBRANCH   4   5
ENDBRANCH   3   4
ENDBRANCH   1   3
BRANCH   1  15
HETATM   15  C10 UNL     1      33.926  71.699  21.742  1.00  0.00     0.218 C 
BRANCH  15  16
HETATM   16  O4  UNL     1      35.196  71.131  21.420  1.00  0.00    -0.385 OA
HETATM   17  H   UNL     1      35.571  71.592  20.653  1.00  0.00     0.210 HD
ENDBRANCH  15  16
BRANCH  15  18
HETATM   18  C11 UNL     1      33.482  71.310  23.168  1.00  0.00     0.177 C 
BRANCH  18  19
HETATM   19  O5  UNL     1      32.196  71.865  23.485  1.00  0.00    -0.390 OA
HETATM   20  H   UNL     1      31.535  71.524  22.862  1.00  0.00     0.210 HD
ENDBRANCH  18  19
BRANCH  18  21
HETATM   21  C12 UNL     1      33.352  69.788  23.316  1.00  0.00     0.198 C 
BRANCH  21  22
HETATM   22  O6  UNL     1      34.601  69.234  23.734  1.00  0.00    -0.398 OA
HETATM   23  H   UNL     1      35.320  69.633  23.219  1.00  0.00     0.209 HD
ENDBRANCH  21  22
ENDBRANCH  18  21
ENDBRANCH  15  18
ENDBRANCH   1  15
TORSDOF 11
ENDMDL
MODEL 2
REMARK VINA RESULT:      -6.8      1.213      1.859
REMARK  11 active torsions:
REMARK  status: ('A' for Active; 'I' for Inactive)
REMARK    1  A    between atoms: C1_1  and  C2_2 
REMARK    2  A    between atoms: C1_1  and  C10_13 
REMARK    3  A    between atoms: C2_2  and  C3_3 
REMARK    4  A    between atoms: C3_3  and  C4_4 
REMARK    5  A    between atoms: C6_6  and  O1_7 
REMARK    6  A    between atoms: C7_8  and  O2_9 
REMARK    7  A    between atoms: C10_13  and  O4_14 
REMARK    8  A    between atoms: C10_13  and  C11_15 
REMARK    9  A    between atoms: C11_15  and  O5_16 
REMARK   10  A    between atoms: C11_15  and  C12_17 
REMARK   11  A    between atoms: C12_17  and  O6_18 
ROOT
HETATM    1  C1  UNL     1      31.940  72.628  22.085  1.00  0.00     0.158 C 
HETATM    2  O3  UNL     1      31.147  72.522  23.025  1.00  0.00    -0.295 OA
ENDROOT
BRANCH   1   3
HETATM    3  C2  UNL     1      31.470  73.127  20.730  1.00  0.00     0.086 C 
BRANCH   3   4
HETATM    4  C3  UNL     1      32.431  74.116  20.075  1.00  0.00     0.046 C 
BRANCH   4   5
HETATM    5  C4  UNL     1      32.113  75.562  20.375  1.00  0.00    -0.055 A 
HETATM    6  C5  UNL     1      32.578  76.169  21.553  1.00  0.00     0.046 A 
HETATM    7  C6  UNL     1      32.263  77.499  21.812  1.00  0.00     0.099 A 
HETATM    8  C7  UNL     1      31.498  78.231  20.910  1.00  0.00     0.098 A 
HETATM    9  C8  UNL     1      31.035  77.651  19.740  1.00  0.00     0.040 A 
HETATM   10  C9  UNL     1      31.344  76.317  19.471  1.00  0.00     0.010 A 
BRANCH   7  11
HETATM   11  O1  UNL     1      32.686  78.134  22.947  1.00  0.00    -0.358 OA
HETATM   12  H   UNL     1      33.349  77.744  23.483  1.00  0.00     0.217 HD
ENDBRANCH   7  11
BRANCH   8  13
HETATM   13  O2  UNL     1      31.194  79.536  21.174  1.00  0.00    -0.358 OA
HETATM   14  H   UNL     1      30.327  79.856  21.019  1.00  0.00     0.217 HD
ENDBRANCH   8  13
ENDBRANCH   4   5
ENDBRANCH   3   4
ENDBRANCH   1   3
BRANCH   1  15
HETATM   15  C10 UNL     1      33.429  72.317  22.254  1.00  0.00     0.218 C 
BRANCH  15  16
HETATM   16  O4  UNL     1      33.811  72.688  23.579  1.00  0.00    -0.385 OA
HETATM   17  H   UNL     1      33.123  73.251  23.968  1.00  0.00     0.210 HD
ENDBRANCH  15  16
BRANCH  15  18
HETATM   18  C11 UNL     1      33.724  70.828  21.980  1.00  0.00     0.177 C 
BRANCH  18  19
HETATM   19  O5  UNL     1      34.931  70.666  21.217  1.00  0.00    -0.390 OA
HETATM   20  H   UNL     1      35.205  71.525  20.860  1.00  0.00     0.210 HD
ENDBRANCH  18  19
BRANCH  18  21
HETATM   21  C12 UNL     1      33.925  70.049  23.287  1.00  0.00     0.198 C 
BRANCH  21  22
HETATM   22  O6  UNL     1      32.701  70.020  24.025  1.00  0.00    -0.398 OA
HETATM   23  H   UNL     1      32.211  69.212  23.807  1.00  0.00     0.209 HD
ENDBRANCH  21  22
ENDBRANCH  18  21
ENDBRANCH  15  18
ENDBRANCH   1  15
TORSDOF 11
ENDMDL
MODEL 3
REMARK VINA RESULT:      -6.8      1.247      2.289
REMARK  11 active torsions:
REMARK  status: ('A' for Active; 'I' for Inactive)
REMARK    1  A    between atoms: C1_1  and  C2_2 
REMARK    2  A    between atoms: C1_1  and  C10_13 
REMARK    3  A    between atoms: C2_2  and  C3_3 
REMARK    4  A    between atoms: C3_3  and  C4_4 
REMARK    5  A    between atoms: C6_6  and  O1_7 
REMARK    6  A    between atoms: C7_8  and  O2_9 
REMARK    7  A    between atoms: C10_13  and  O4_14 
REMARK    8  A    between atoms: C10_13  and  C11_15 
REMARK    9  A    between atoms: C11_15  and  O5_16 
REMARK   10  A    between atoms: C11_15  and  C12_17 
REMARK   11  A    between atoms: C12_17  and  O6_18 
ROOT
HETATM    1  C1  UNL     1      32.004  72.601  22.118  1.00  0.00     0.158 C 
HETATM    2  O3  UNL     1      31.179  72.435  23.022  1.00  0.00    -0.295 OA
ENDROOT
BRANCH   1   3
HETATM    3  C2  UNL     1      31.587  73.221  20.797  1.00  0.00     0.086 C 
BRANCH   3   4
HETATM    4  C3  UNL     1      32.576  74.256  20.267  1.00  0.00     0.046 C 
BRANCH   4   5
HETATM    5  C4  UNL     1      32.160  75.685  20.529  1.00  0.00    -0.055 A 
HETATM    6  C5  UNL     1      31.435  76.409  19.569  1.00  0.00     0.046 A 
HETATM    7  C6  UNL     1      31.072  77.726  19.829  1.00  0.00     0.099 A 
HETATM    8  C7  UNL     1      31.417  78.327  21.036  1.00  0.00     0.098 A 
HETATM    9  C8  UNL     1      32.128  77.627  21.997  1.00  0.00     0.040 A 
HETATM   10  C9  UNL     1      32.497  76.305  21.745  1.00  0.00     0.010 A 
BRANCH   7  11
HETATM   11  O1  UNL     1      30.372  78.475  18.924  1.00  0.00    -0.358 OA
HETATM   12  H   UNL     1      29.435  78.445  18.916  1.00  0.00     0.217 HD
ENDBRANCH   7  11
BRANCH   8  13
HETATM   13  O2  UNL     1      31.057  79.621  21.281  1.00  0.00    -0.358 OA
HETATM   14  H   UNL     1      31.445  80.317  20.789  1.00  0.00     0.217 HD
ENDBRANCH   8  13
ENDBRANCH   4   5
ENDBRANCH   3   4
ENDBRANCH   1   3
BRANCH   1  15
HETATM   15  C10 UNL     1      33.480  72.243  22.305  1.00  0.00     0.218 C 
BRANCH  15  16
HETATM   16  O4  UNL     1      33.850  72.575  23.644  1.00  0.00    -0.385 OA
HETATM   17  H   UNL     1      34.625  72.053  23.904  1.00  0.00     0.210 HD
ENDBRANCH  15  16
BRANCH  15  18
HETATM   18  C11 UNL     1      33.738  70.752  22.004  1.00  0.00     0.177 C 
BRANCH  18  19
HETATM   19  O5  UNL     1      34.932  70.575  21.224  1.00  0.00    -0.390 OA
HETATM   20  H   UNL     1      35.615  71.189  21.536  1.00  0.00     0.210 HD
ENDBRANCH  18  19
BRANCH  18  21
HETATM   21  C12 UNL     1      33.934  69.947  23.295  1.00  0.00     0.198 C 
BRANCH  21  22
HETATM   22  O6  UNL     1      32.712  69.915  24.036  1.00  0.00    -0.398 OA
HETATM   23  H   UNL     1      32.761  69.219  24.710  1.00  0.00     0.209 HD
ENDBRANCH  21  22
ENDBRANCH  18  21
ENDBRANCH  15  18
ENDBRANCH   1  15
TORSDOF 11
ENDMDL
MODEL 4
REMARK VINA RESULT:      -6.8      1.590      5.933
REMARK  11 active torsions:
REMARK  status: ('A' for Active; 'I' for Inactive)
REMARK    1  A    between atoms: C1_1  and  C2_2 
REMARK    2  A    between atoms: C1_1  and  C10_13 
REMARK    3  A    between atoms: C2_2  and  C3_3 
REMARK    4  A    between atoms: C3_3  and  C4_4 
REMARK    5  A    between atoms: C6_6  and  O1_7 
REMARK    6  A    between atoms: C7_8  and  O2_9 
REMARK    7  A    between atoms: C10_13  and  O4_14 
REMARK    8  A    between atoms: C10_13  and  C11_15 
REMARK    9  A    between atoms: C11_15  and  O5_16 
REMARK   10  A    between atoms: C11_15  and  C12_17 
REMARK   11  A    between atoms: C12_17  and  O6_18 
ROOT
HETATM    1  C1  UNL     1      31.370  77.704  19.520  1.00  0.00     0.158 C 
HETATM    2  O3  UNL     1      30.453  78.006  18.750  1.00  0.00    -0.295 OA
ENDROOT
BRANCH   1   3
HETATM    3  C2  UNL     1      32.267  76.515  19.226  1.00  0.00     0.086 C 
BRANCH   3   4
HETATM    4  C3  UNL     1      31.574  75.167  19.403  1.00  0.00     0.046 C 
BRANCH   4   5
HETATM    5  C4  UNL     1      32.158  74.324  20.512  1.00  0.00    -0.055 A 
HETATM    6  C5  UNL     1      31.323  73.675  21.436  1.00  0.00     0.046 A 
HETATM    7  C6  UNL     1      31.886  72.913  22.455  1.00  0.00     0.099 A 
HETATM    8  C7  UNL     1      33.267  72.785  22.559  1.00  0.00     0.098 A 
HETATM    9  C8  UNL     1      34.107  73.413  21.654  1.00  0.00     0.040 A 
HETATM   10  C9  UNL     1      33.552  74.180  20.629  1.00  0.00     0.010 A 
BRANCH   7  11
HETATM   11  O1  UNL     1      31.116  72.268  23.384  1.00  0.00    -0.358 OA
HETATM   12  H   UNL     1      30.978  71.343  23.317  1.00  0.00     0.217 HD
ENDBRANCH   7  11
BRANCH   8  13
HETATM   13  O2  UNL     1      33.809  72.034  23.563  1.00  0.00    -0.358 OA
HETATM   14  H   UNL     1      33.921  72.405  24.417  1.00  0.00     0.217 HD
ENDBRANCH   8  13
ENDBRANCH   4   5
ENDBRANCH   3   4
ENDBRANCH   1   3
BRANCH   1  15
HETATM   15  C10 UNL     1      31.676  78.539  20.766  1.00  0.00     0.218 C 
BRANCH  15  16
HETATM   16  O4  UNL     1      30.487  79.238  21.135  1.00  0.00    -0.385 OA
HETATM   17  H   UNL     1      30.720  80.017  21.663  1.00  0.00     0.210 HD
ENDBRANCH  15  16
BRANCH  15  18
HETATM   18  C11 UNL     1      32.188  77.653  21.921  1.00  0.00     0.177 C 
BRANCH  18  19
HETATM   19  O5  UNL     1      32.943  78.420  22.873  1.00  0.00    -0.390 OA
HETATM   20  H   UNL     1      32.490  79.261  23.041  1.00  0.00     0.210 HD
ENDBRANCH  18  19
BRANCH  18  21
HETATM   21  C12 UNL     1      31.026  77.016  22.694  1.00  0.00     0.198 C 
BRANCH  21  22
HETATM   22  O6  UNL     1      31.536  76.215  23.762  1.00  0.00    -0.398 OA
HETATM   23  H   UNL     1      31.225  75.302  23.658  1.00  0.00     0.209 HD
ENDBRANCH  21  22
ENDBRANCH  18  21
ENDBRANCH  15  18
ENDBRANCH   1  15
TORSDOF 11
ENDMDL
MODEL 5
REMARK VINA RESULT:      -6.6      1.229      1.739
REMARK  11 active torsions:
REMARK  status: ('A' for Active; 'I' for Inactive)
REMARK    1  A    between atoms: C1_1  and  C2_2 
REMARK    2  A    between atoms: C1_1  and  C10_13 
REMARK    3  A    between atoms: C2_2  and  C3_3 
REMARK    4  A    between atoms: C3_3  and  C4_4 
REMARK    5  A    between atoms: C6_6  and  O1_7 
REMARK    6  A    between atoms: C7_8  and  O2_9 
REMARK    7  A    between atoms: C10_13  and  O4_14 
REMARK    8  A    between atoms: C10_13  and  C11_15 
REMARK    9  A    between atoms: C11_15  and  O5_16 
REMARK   10  A    between atoms: C11_15  and  C12_17 
REMARK   11  A    between atoms: C12_17  and  O6_18 
ROOT
HETATM    1  C1  UNL     1      32.950  72.763  22.129  1.00  0.00     0.158 C 
HETATM    2  O3  UNL     1      31.805  72.744  22.590  1.00  0.00    -0.295 OA
ENDROOT
BRANCH   1   3
HETATM    3  C2  UNL     1      33.667  74.080  21.895  1.00  0.00     0.086 C 
BRANCH   3   4
HETATM    4  C3  UNL     1      32.932  75.288  22.470  1.00  0.00     0.046 C 
BRANCH   4   5
HETATM    5  C4  UNL     1      32.242  76.134  21.426  1.00  0.00    -0.055 A 
HETATM    6  C5  UNL     1      31.704  77.388  21.759  1.00  0.00     0.046 A 
HETATM    7  C6  UNL     1      31.065  78.144  20.782  1.00  0.00     0.099 A 
HETATM    8  C7  UNL     1      30.961  77.669  19.478  1.00  0.00     0.098 A 
HETATM    9  C8  UNL     1      31.490  76.438  19.130  1.00  0.00     0.040 A 
HETATM   10  C9  UNL     1      32.133  75.671  20.103  1.00  0.00     0.010 A 
BRANCH   7  11
HETATM   11  O1  UNL     1      30.519  79.368  21.058  1.00  0.00    -0.358 OA
HETATM   12  H   UNL     1      29.768  79.664  20.581  1.00  0.00     0.217 HD
ENDBRANCH   7  11
BRANCH   8  13
HETATM   13  O2  UNL     1      30.331  78.420  18.527  1.00  0.00    -0.358 OA
HETATM   14  H   UNL     1      29.584  78.936  18.757  1.00  0.00     0.217 HD
ENDBRANCH   8  13
ENDBRANCH   4   5
ENDBRANCH   3   4
ENDBRANCH   1   3
BRANCH   1  15
HETATM   15  C10 UNL     1      33.714  71.471  21.827  1.00  0.00     0.218 C 
BRANCH  15  16
HETATM   16  O4  UNL     1      34.860  71.806  21.045  1.00  0.00    -0.385 OA
HETATM   17  H   UNL     1      34.627  71.786  20.104  1.00  0.00     0.210 HD
ENDBRANCH  15  16
BRANCH  15  18
HETATM   18  C11 UNL     1      34.114  70.741  23.127  1.00  0.00     0.177 C 
BRANCH  18  19
HETATM   19  O5  UNL     1      33.740  71.499  24.288  1.00  0.00    -0.390 OA
HETATM   20  H   UNL     1      32.896  71.947  24.124  1.00  0.00     0.210 HD
ENDBRANCH  18  19
BRANCH  18  21
HETATM   21  C12 UNL     1      33.409  69.383  23.244  1.00  0.00     0.198 C 
BRANCH  21  22
HETATM   22  O6  UNL     1      34.133  68.538  24.140  1.00  0.00    -0.398 OA
HETATM   23  H   UNL     1      34.025  67.612  23.871  1.00  0.00     0.209 HD
ENDBRANCH  21  22
ENDBRANCH  18  21
ENDBRANCH  15  18
ENDBRANCH   1  15
TORSDOF 11
ENDMDL
MODEL 6
REMARK VINA RESULT:      -6.6      1.570      6.750
REMARK  11 active torsions:
REMARK  status: ('A' for Active; 'I' for Inactive)
REMARK    1  A    between atoms: C1_1  and  C2_2 
REMARK    2  A    between atoms: C1_1  and  C10_13 
REMARK    3  A    between atoms: C2_2  and  C3_3 
REMARK    4  A    between atoms: C3_3  and  C4_4 
REMARK    5  A    between atoms: C6_6  and  O1_7 
REMARK    6  A    between atoms: C7_8  and  O2_9 
REMARK    7  A    between atoms: C10_13  and  O4_14 
REMARK    8  A    between atoms: C10_13  and  C11_15 
REMARK    9  A    between atoms: C11_15  and  O5_16 
REMARK   10  A    between atoms: C11_15  and  C12_17 
REMARK   11  A    between atoms: C12_17  and  O6_18 
ROOT
HETATM    1  C1  UNL     1      32.161  77.015  21.795  1.00  0.00     0.158 C 
HETATM    2  O3  UNL     1      32.625  76.965  22.938  1.00  0.00    -0.295 OA
ENDROOT
BRANCH   1   3
HETATM    3  C2  UNL     1      31.775  75.742  21.062  1.00  0.00     0.086 C 
BRANCH   3   4
HETATM    4  C3  UNL     1      32.944  75.071  20.346  1.00  0.00     0.046 C 
BRANCH   4   5
HETATM    5  C4  UNL     1      33.308  73.718  20.911  1.00  0.00    -0.055 A 
HETATM    6  C5  UNL     1      33.286  73.491  22.297  1.00  0.00     0.046 A 
HETATM    7  C6  UNL     1      33.635  72.239  22.795  1.00  0.00     0.099 A 
HETATM    8  C7  UNL     1      33.999  71.213  21.929  1.00  0.00     0.098 A 
HETATM    9  C8  UNL     1      34.022  71.417  20.559  1.00  0.00     0.040 A 
HETATM   10  C9  UNL     1      33.674  72.669  20.050  1.00  0.00     0.010 A 
BRANCH   7  11
HETATM   11  O1  UNL     1      33.636  71.969  24.136  1.00  0.00    -0.358 OA
HETATM   12  H   UNL     1      33.060  71.316  24.482  1.00  0.00     0.217 HD
ENDBRANCH   7  11
BRANCH   8  13
HETATM   13  O2  UNL     1      34.341  69.988  22.428  1.00  0.00    -0.358 OA
HETATM   14  H   UNL     1      33.677  69.415  22.757  1.00  0.00     0.217 HD
ENDBRANCH   8  13
ENDBRANCH   4   5
ENDBRANCH   3   4
ENDBRANCH   1   3
BRANCH   1  15
HETATM   15  C10 UNL     1      31.902  78.350  21.093  1.00  0.00     0.218 C 
BRANCH  15  16
HETATM   16  O4  UNL     1      31.327  78.074  19.815  1.00  0.00    -0.385 OA
HETATM   17  H   UNL     1      32.007  77.710  19.226  1.00  0.00     0.210 HD
ENDBRANCH  15  16
BRANCH  15  18
HETATM   18  C11 UNL     1      30.985  79.258  21.938  1.00  0.00     0.177 C 
BRANCH  18  19
HETATM   19  O5  UNL     1      30.381  78.531  23.019  1.00  0.00    -0.390 OA
HETATM   20  H   UNL     1      30.062  77.674  22.694  1.00  0.00     0.210 HD
ENDBRANCH  18  19
BRANCH  18  21
HETATM   21  C12 UNL     1      31.773  80.412  22.572  1.00  0.00     0.198 C 
BRANCH  21  22
HETATM   22  O6  UNL     1      32.898  79.894  23.287  1.00  0.00    -0.398 OA
HETATM   23  H   UNL     1      32.593  79.254  23.950  1.00  0.00     0.209 HD
ENDBRANCH  21  22
ENDBRANCH  18  21
ENDBRANCH  15  18
ENDBRANCH   1  15
TORSDOF 11
ENDMDL
MODEL 7
REMARK VINA RESULT:      -6.6      1.036      1.694
REMARK  11 active torsions:
REMARK  status: ('A' for Active; 'I' for Inactive)
REMARK    1  A    between atoms: C1_1  and  C2_2 
REMARK    2  A    between atoms: C1_1  and  C10_13 
REMARK    3  A    between atoms: C2_2  and  C3_3 
REMARK    4  A    between atoms: C3_3  and  C4_4 
REMARK    5  A    between atoms: C6_6  and  O1_7 
REMARK    6  A    between atoms: C7_8  and  O2_9 
REMARK    7  A    between atoms: C10_13  and  O4_14 
REMARK    8  A    between atoms: C10_13  and  C11_15 
REMARK    9  A    between atoms: C11_15  and  O5_16 
REMARK   10  A    between atoms: C11_15  and  C12_17 
REMARK   11  A    between atoms: C12_17  and  O6_18 
ROOT
HETATM    1  C1  UNL     1      33.673  72.899  22.113  1.00  0.00     0.158 C 
HETATM    2  O3  UNL     1      34.403  73.667  22.748  1.00  0.00    -0.295 OA
ENDROOT
BRANCH   1   3
HETATM    3  C2  UNL     1      32.384  73.401  21.485  1.00  0.00     0.086 C 
BRANCH   3   4
HETATM    4  C3  UNL     1      32.605  74.332  20.296  1.00  0.00     0.046 C 
BRANCH   4   5
HETATM    5  C4  UNL     1      32.147  75.751  20.542  1.00  0.00    -0.055 A 
HETATM    6  C5  UNL     1      31.442  76.458  19.554  1.00  0.00     0.046 A 
HETATM    7  C6  UNL     1      31.041  77.768  19.800  1.00  0.00     0.099 A 
HETATM    8  C7  UNL     1      31.327  78.376  21.018  1.00  0.00     0.098 A 
HETATM    9  C8  UNL     1      32.017  77.692  22.006  1.00  0.00     0.040 A 
HETATM   10  C9  UNL     1      32.425  76.379  21.769  1.00  0.00     0.010 A 
BRANCH   7  11
HETATM   11  O1  UNL     1      30.358  78.501  18.869  1.00  0.00    -0.358 OA
HETATM   12  H   UNL     1      29.565  78.939  19.107  1.00  0.00     0.217 HD
ENDBRANCH   7  11
BRANCH   8  13
HETATM   13  O2  UNL     1      30.929  79.661  21.249  1.00  0.00    -0.358 OA
HETATM   14  H   UNL     1      30.591  79.903  22.089  1.00  0.00     0.217 HD
ENDBRANCH   8  13
ENDBRANCH   4   5
ENDBRANCH   3   4
ENDBRANCH   1   3
BRANCH   1  15
HETATM   15  C10 UNL     1      34.056  71.435  21.885  1.00  0.00     0.218 C 
BRANCH  15  16
HETATM   16  O4  UNL     1      35.262  71.407  21.121  1.00  0.00    -0.385 OA
HETATM   17  H   UNL     1      35.677  70.534  21.204  1.00  0.00     0.210 HD
ENDBRANCH  15  16
BRANCH  15  18
HETATM   18  C11 UNL     1      34.220  70.685  23.223  1.00  0.00     0.177 C 
BRANCH  18  19
HETATM   19  O5  UNL     1      33.611  71.407  24.305  1.00  0.00    -0.390 OA
HETATM   20  H   UNL     1      33.930  71.053  25.150  1.00  0.00     0.210 HD
ENDBRANCH  18  19
BRANCH  18  21
HETATM   21  C12 UNL     1      33.542  69.309  23.178  1.00  0.00     0.198 C 
BRANCH  21  22
HETATM   22  O6  UNL     1      34.468  68.300  23.584  1.00  0.00    -0.398 OA
HETATM   23  H   UNL     1      34.352  68.114  24.529  1.00  0.00     0.209 HD
ENDBRANCH  21  22
ENDBRANCH  18  21
ENDBRANCH  15  18
ENDBRANCH   1  15
TORSDOF 11
ENDMDL
MODEL 8
REMARK VINA RESULT:      -6.6      3.724      7.360
REMARK  11 active torsions:
REMARK  status: ('A' for Active; 'I' for Inactive)
REMARK    1  A    between atoms: C1_1  and  C2_2 
REMARK    2  A    between atoms: C1_1  and  C10_13 
REMARK    3  A    between atoms: C2_2  and  C3_3 
REMARK    4  A    between atoms: C3_3  and  C4_4 
REMARK    5  A    between atoms: C6_6  and  O1_7 
REMARK    6  A    between atoms: C7_8  and  O2_9 
REMARK    7  A    between atoms: C10_13  and  O4_14 
REMARK    8  A    between atoms: C10_13  and  C11_15 
REMARK    9  A    between atoms: C11_15  and  O5_16 
REMARK   10  A    between atoms: C11_15  and  C12_17 
REMARK   11  A    between atoms: C12_17  and  O6_18 
ROOT
HETATM    1  C1  UNL     1      32.069  78.351  16.640  1.00  0.00     0.158 C 
HETATM    2  O3  UNL     1      32.834  78.902  15.842  1.00  0.00    -0.295 OA
ENDROOT
BRANCH   1   3
HETATM    3  C2  UNL     1      32.526  78.026  18.051  1.00  0.00     0.086 C 
BRANCH   3   4
HETATM    4  C3  UNL     1      32.193  76.603  18.490  1.00  0.00     0.046 C 
BRANCH   4   5
HETATM    5  C4  UNL     1      32.022  76.452  19.984  1.00  0.00    -0.055 A 
HETATM    6  C5  UNL     1      31.303  77.406  20.723  1.00  0.00     0.046 A 
HETATM    7  C6  UNL     1      31.168  77.250  22.099  1.00  0.00     0.099 A 
HETATM    8  C7  UNL     1      31.734  76.154  22.744  1.00  0.00     0.098 A 
HETATM    9  C8  UNL     1      32.442  75.202  22.030  1.00  0.00     0.040 A 
HETATM   10  C9  UNL     1      32.584  75.349  20.650  1.00  0.00     0.010 A 
BRANCH   7  11
HETATM   11  O1  UNL     1      30.483  78.153  22.864  1.00  0.00    -0.358 OA
HETATM   12  H   UNL     1      30.553  79.070  22.682  1.00  0.00     0.217 HD
ENDBRANCH   7  11
BRANCH   8  13
HETATM   13  O2  UNL     1      31.595  76.012  24.095  1.00  0.00    -0.358 OA
HETATM   14  H   UNL     1      32.051  75.326  24.543  1.00  0.00     0.217 HD
ENDBRANCH   8  13
ENDBRANCH   4   5
ENDBRANCH   3   4
ENDBRANCH   1   3
BRANCH   1  15
HETATM   15  C10 UNL     1      30.622  78.021  16.265  1.00  0.00     0.218 C 
BRANCH  15  16
HETATM   16  O4  UNL     1      29.825  79.179  16.515  1.00  0.00    -0.385 OA
HETATM   17  H   UNL     1      30.325  79.803  17.065  1.00  0.00     0.210 HD
ENDBRANCH  15  16
BRANCH  15  18
HETATM   18  C11 UNL     1      30.514  77.572  14.793  1.00  0.00     0.177 C 
BRANCH  18  19
HETATM   19  O5  UNL     1      31.571  76.663  14.444  1.00  0.00    -0.390 OA
HETATM   20  H   UNL     1      32.189  77.103  13.840  1.00  0.00     0.210 HD
ENDBRANCH  18  19
BRANCH  18  21
HETATM   21  C12 UNL     1      29.196  76.833  14.529  1.00  0.00     0.198 C 
BRANCH  21  22
HETATM   22  O6  UNL     1      28.109  77.762  14.542  1.00  0.00    -0.398 OA
HETATM   23  H   UNL     1      27.381  77.416  14.003  1.00  0.00     0.209 HD
ENDBRANCH  21  22
ENDBRANCH  18  21
ENDBRANCH  15  18
ENDBRANCH   1  15
TORSDOF 11
ENDMDL
MODEL 9
REMARK VINA RESULT:      -6.5      1.825      6.437
REMARK  11 active torsions:
REMARK  status: ('A' for Active; 'I' for Inactive)
REMARK    1  A    between atoms: C1_1  and  C2_2 
REMARK    2  A    between atoms: C1_1  and  C10_13 
REMARK    3  A    between atoms: C2_2  and  C3_3 
REMARK    4  A    between atoms: C3_3  and  C4_4 
REMARK    5  A    between atoms: C6_6  and  O1_7 
REMARK    6  A    between atoms: C7_8  and  O2_9 
REMARK    7  A    between atoms: C10_13  and  O4_14 
REMARK    8  A    between atoms: C10_13  and  C11_15 
REMARK    9  A    between atoms: C11_15  and  O5_16 
REMARK   10  A    between atoms: C11_15  and  C12_17 
REMARK   11  A    between atoms: C12_17  and  O6_18 
ROOT
HETATM    1  C1  UNL     1      31.353  77.958  19.845  1.00  0.00     0.158 C 
HETATM    2  O3  UNL     1      30.421  78.385  19.156  1.00  0.00    -0.295 OA
ENDROOT
BRANCH   1   3
HETATM    3  C2  UNL     1      32.378  77.006  19.253  1.00  0.00     0.086 C 
BRANCH   3   4
HETATM    4  C3  UNL     1      31.831  75.606  18.989  1.00  0.00     0.046 C 
BRANCH   4   5
HETATM    5  C4  UNL     1      31.952  74.673  20.170  1.00  0.00    -0.055 A 
HETATM    6  C5  UNL     1      33.044  74.766  21.050  1.00  0.00     0.046 A 
HETATM    7  C6  UNL     1      33.139  73.888  22.124  1.00  0.00     0.099 A 
HETATM    8  C7  UNL     1      32.158  72.925  22.337  1.00  0.00     0.098 A 
HETATM    9  C8  UNL     1      31.072  72.821  21.484  1.00  0.00     0.040 A 
HETATM   10  C9  UNL     1      30.967  73.696  20.402  1.00  0.00     0.010 A 
BRANCH   7  11
HETATM   11  O1  UNL     1      34.185  73.934  23.005  1.00  0.00    -0.358 OA
HETATM   12  H   UNL     1      34.085  73.589  23.870  1.00  0.00     0.217 HD
ENDBRANCH   7  11
BRANCH   8  13
HETATM   13  O2  UNL     1      32.261  72.068  23.395  1.00  0.00    -0.358 OA
HETATM   14  H   UNL     1      32.704  71.249  23.293  1.00  0.00     0.217 HD
ENDBRANCH   8  13
ENDBRANCH   4   5
ENDBRANCH   3   4
ENDBRANCH   1   3
BRANCH   1  15
HETATM   15  C10 UNL     1      31.549  78.407  21.295  1.00  0.00     0.218 C 
BRANCH  15  16
HETATM   16  O4  UNL     1      31.718  79.825  21.301  1.00  0.00    -0.385 OA
HETATM   17  H   UNL     1      31.794  80.145  20.389  1.00  0.00     0.210 HD
ENDBRANCH  15  16
BRANCH  15  18
HETATM   18  C11 UNL     1      30.358  77.979  22.178  1.00  0.00     0.177 C 
BRANCH  18  19
HETATM   19  O5  UNL     1      30.794  77.180  23.291  1.00  0.00    -0.390 OA
HETATM   20  H   UNL     1      31.034  77.760  24.030  1.00  0.00     0.210 HD
ENDBRANCH  18  19
BRANCH  18  21
HETATM   21  C12 UNL     1      29.635  79.196  22.769  1.00  0.00     0.198 C 
BRANCH  21  22
HETATM   22  O6  UNL     1      28.875  79.849  21.750  1.00  0.00    -0.398 OA
HETATM   23  H   UNL     1      27.949  79.565  21.805  1.00  0.00     0.209 HD
ENDBRANCH  21  22
ENDBRANCH  18  21
ENDBRANCH  15  18
ENDBRANCH   1  15
TORSDOF 11
ENDMDL
