MODEL 1
REMARK VINA RESULT:      -6.9      0.000      0.000
REMARK  11 active torsions:
REMARK  status: ('A' for Active; 'I' for Inactive)
REMARK    1  A    between atoms: C1_1  and  C2_2 
REMARK    2  A    between atoms: C1_1  and  C10_13 
REMARK    3  A    between atoms: C2_2  and  C3_3 
REMARK    4  A    between atoms: C3_3  and  C4_4 
REMARK    5  A    between atoms: C6_6  and  O1_7 
REMARK    6  A    between atoms: C7_8  and  O2_9 
REMARK    7  A    between atoms: C10_13  and  O4_14 
REMARK    8  A    between atoms: C10_13  and  C11_15 
REMARK    9  A    between atoms: C11_15  and  O5_16 
REMARK   10  A    between atoms: C11_15  and  C12_17 
REMARK   11  A    between atoms: C12_17  and  O6_18 
ROOT
HETATM    1  C1  UNL     1      31.918  72.662  22.100  1.00  0.00     0.158 C 
HETATM    2  O3  UNL     1      31.132  72.543  23.045  1.00  0.00    -0.295 OA
ENDROOT
BRANCH   1   3
HETATM    3  C2  UNL     1      31.423  73.104  20.734  1.00  0.00     0.086 C 
BRANCH   3   4
HETATM    4  C3  UNL     1      32.364  74.075  20.027  1.00  0.00     0.046 C 
BRANCH   4   5
HETATM    5  C4  UNL     1      32.068  75.528  20.316  1.00  0.00    -0.055 A 
HETATM    6  C5  UNL     1      32.551  76.139  21.485  1.00  0.00     0.046 A 
HETATM    7  C6  UNL     1      32.256  77.476  21.735  1.00  0.00     0.099 A 
HETATM    8  C7  UNL     1      31.493  78.210  20.832  1.00  0.00     0.098 A 
HETATM    9  C8  UNL     1      31.013  77.626  19.671  1.00  0.00     0.040 A 
HETATM   10  C9  UNL     1      31.302  76.285  19.412  1.00  0.00     0.010 A 
BRANCH   7  11
HETATM   11  O1  UNL     1      32.697  78.115  22.861  1.00  0.00    -0.358 OA
HETATM   12  H   UNL     1      33.610  78.293  22.971  1.00  0.00     0.217 HD
ENDBRANCH   7  11
BRANCH   8  13
HETATM   13  O2  UNL     1      31.210  79.521  21.086  1.00  0.00    -0.358 OA
HETATM   14  H   UNL     1      31.161  79.827  21.971  1.00  0.00     0.217 HD
ENDBRANCH   8  13
ENDBRANCH   4   5
ENDBRANCH   3   4
ENDBRANCH   1   3
BRANCH   1  15
HETATM   15  C10 UNL     1      33.420  72.424  22.273  1.00  0.00     0.218 C 
BRANCH  15  16
HETATM   16  O4  UNL     1      33.752  72.669  23.639  1.00  0.00    -0.385 OA
HETATM   17  H   UNL     1      33.477  71.912  24.180  1.00  0.00     0.210 HD
ENDBRANCH  15  16
BRANCH  15  18
HETATM   18  C11 UNL     1      33.812  70.994  21.846  1.00  0.00     0.177 C 
BRANCH  18  19
HETATM   19  O5  UNL     1      35.175  70.939  21.393  1.00  0.00    -0.390 OA
HETATM   20  H   UNL     1      35.342  71.675  20.784  1.00  0.00     0.210 HD
ENDBRANCH  18  19
BRANCH  18  21
HETATM   21  C12 UNL     1      33.701  70.011  23.019  1.00  0.00     0.198 C 
BRANCH  21  22
HETATM   22  O6  UNL     1      34.860  70.115  23.849  1.00  0.00    -0.398 OA
HETATM   23  H   UNL     1      35.619  70.390  23.312  1.00  0.00     0.209 HD
ENDBRANCH  21  22
ENDBRANCH  18  21
ENDBRANCH  15  18
ENDBRANCH   1  15
TORSDOF 11
ENDMDL
MODEL 2
REMARK VINA RESULT:      -6.9      0.860      1.668
REMARK  11 active torsions:
REMARK  status: ('A' for Active; 'I' for Inactive)
REMARK    1  A    between atoms: C1_1  and  C2_2 
REMARK    2  A    between atoms: C1_1  and  C10_13 
REMARK    3  A    between atoms: C2_2  and  C3_3 
REMARK    4  A    between atoms: C3_3  and  C4_4 
REMARK    5  A    between atoms: C6_6  and  O1_7 
REMARK    6  A    between atoms: C7_8  and  O2_9 
REMARK    7  A    between atoms: C10_13  and  O4_14 
REMARK    8  A    between atoms: C10_13  and  C11_15 
REMARK    9  A    between atoms: C11_15  and  O5_16 
REMARK   10  A    between atoms: C11_15  and  C12_17 
REMARK   11  A    between atoms: C12_17  and  O6_18 
ROOT
HETATM    1  C1  UNL     1      31.992  72.603  22.127  1.00  0.00     0.158 C 
HETATM    2  O3  UNL     1      31.163  72.432  23.026  1.00  0.00    -0.295 OA
ENDROOT
BRANCH   1   3
HETATM    3  C2  UNL     1      31.581  73.231  20.807  1.00  0.00     0.086 C 
BRANCH   3   4
HETATM    4  C3  UNL     1      32.579  74.260  20.281  1.00  0.00     0.046 C 
BRANCH   4   5
HETATM    5  C4  UNL     1      32.172  75.691  20.543  1.00  0.00    -0.055 A 
HETATM    6  C5  UNL     1      31.448  76.418  19.584  1.00  0.00     0.046 A 
HETATM    7  C6  UNL     1      31.095  77.738  19.845  1.00  0.00     0.099 A 
HETATM    8  C7  UNL     1      31.447  78.338  21.050  1.00  0.00     0.098 A 
HETATM    9  C8  UNL     1      32.157  77.635  22.009  1.00  0.00     0.040 A 
HETATM   10  C9  UNL     1      32.517  76.311  21.757  1.00  0.00     0.010 A 
BRANCH   7  11
HETATM   11  O1  UNL     1      30.396  78.491  18.941  1.00  0.00    -0.358 OA
HETATM   12  H   UNL     1      29.671  78.116  18.480  1.00  0.00     0.217 HD
ENDBRANCH   7  11
BRANCH   8  13
HETATM   13  O2  UNL     1      31.095  79.634  21.295  1.00  0.00    -0.358 OA
HETATM   14  H   UNL     1      31.575  80.334  20.897  1.00  0.00     0.217 HD
ENDBRANCH   8  13
ENDBRANCH   4   5
ENDBRANCH   3   4
ENDBRANCH   1   3
BRANCH   1  15
HETATM   15  C10 UNL     1      33.468  72.246  22.319  1.00  0.00     0.218 C 
BRANCH  15  16
HETATM   16  O4  UNL     1      33.831  72.573  23.661  1.00  0.00    -0.385 OA
HETATM   17  H   UNL     1      33.469  71.906  24.265  1.00  0.00     0.210 HD
ENDBRANCH  15  16
BRANCH  15  18
HETATM   18  C11 UNL     1      33.727  70.756  22.013  1.00  0.00     0.177 C 
BRANCH  18  19
HETATM   19  O5  UNL     1      34.921  70.583  21.233  1.00  0.00    -0.390 OA
HETATM   20  H   UNL     1      34.705  70.114  20.412  1.00  0.00     0.210 HD
ENDBRANCH  18  19
BRANCH  18  21
HETATM   21  C12 UNL     1      33.924  69.948  23.302  1.00  0.00     0.198 C 
BRANCH  21  22
HETATM   22  O6  UNL     1      32.704  69.915  24.045  1.00  0.00    -0.398 OA
HETATM   23  H   UNL     1      32.299  70.797  24.040  1.00  0.00     0.209 HD
ENDBRANCH  21  22
ENDBRANCH  18  21
ENDBRANCH  15  18
ENDBRANCH   1  15
TORSDOF 11
ENDMDL
MODEL 3
REMARK VINA RESULT:      -6.9      1.352      5.916
REMARK  11 active torsions:
REMARK  status: ('A' for Active; 'I' for Inactive)
REMARK    1  A    between atoms: C1_1  and  C2_2 
REMARK    2  A    between atoms: C1_1  and  C10_13 
REMARK    3  A    between atoms: C2_2  and  C3_3 
REMARK    4  A    between atoms: C3_3  and  C4_4 
REMARK    5  A    between atoms: C6_6  and  O1_7 
REMARK    6  A    between atoms: C7_8  and  O2_9 
REMARK    7  A    between atoms: C10_13  and  O4_14 
REMARK    8  A    between atoms: C10_13  and  C11_15 
REMARK    9  A    between atoms: C11_15  and  O5_16 
REMARK   10  A    between atoms: C11_15  and  C12_17 
REMARK   11  A    between atoms: C12_17  and  O6_18 
ROOT
HETATM    1  C1  UNL     1      31.376  77.699  19.516  1.00  0.00     0.158 C 
HETATM    2  O3  UNL     1      30.457  77.995  18.746  1.00  0.00    -0.295 OA
ENDROOT
BRANCH   1   3
HETATM    3  C2  UNL     1      32.280  76.515  19.221  1.00  0.00     0.086 C 
BRANCH   3   4
HETATM    4  C3  UNL     1      31.592  75.163  19.392  1.00  0.00     0.046 C 
BRANCH   4   5
HETATM    5  C4  UNL     1      32.173  74.322  20.504  1.00  0.00    -0.055 A 
HETATM    6  C5  UNL     1      31.334  73.674  21.427  1.00  0.00     0.046 A 
HETATM    7  C6  UNL     1      31.894  72.914  22.449  1.00  0.00     0.099 A 
HETATM    8  C7  UNL     1      33.275  72.786  22.558  1.00  0.00     0.098 A 
HETATM    9  C8  UNL     1      34.117  73.412  21.654  1.00  0.00     0.040 A 
HETATM   10  C9  UNL     1      33.566  74.179  20.626  1.00  0.00     0.010 A 
BRANCH   7  11
HETATM   11  O1  UNL     1      31.121  72.270  23.376  1.00  0.00    -0.358 OA
HETATM   12  H   UNL     1      30.248  72.007  23.157  1.00  0.00     0.217 HD
ENDBRANCH   7  11
BRANCH   8  13
HETATM   13  O2  UNL     1      33.813  72.037  23.565  1.00  0.00    -0.358 OA
HETATM   14  H   UNL     1      34.616  72.303  23.969  1.00  0.00     0.217 HD
ENDBRANCH   8  13
ENDBRANCH   4   5
ENDBRANCH   3   4
ENDBRANCH   1   3
BRANCH   1  15
HETATM   15  C10 UNL     1      31.679  78.536  20.761  1.00  0.00     0.218 C 
BRANCH  15  16
HETATM   16  O4  UNL     1      30.490  79.240  21.121  1.00  0.00    -0.385 OA
HETATM   17  H   UNL     1      29.772  78.605  21.272  1.00  0.00     0.210 HD
ENDBRANCH  15  16
BRANCH  15  18
HETATM   18  C11 UNL     1      32.182  77.652  21.920  1.00  0.00     0.177 C 
BRANCH  18  19
HETATM   19  O5  UNL     1      32.929  78.420  22.877  1.00  0.00    -0.390 OA
HETATM   20  H   UNL     1      33.804  78.019  23.001  1.00  0.00     0.210 HD
ENDBRANCH  18  19
BRANCH  18  21
HETATM   21  C12 UNL     1      31.014  77.016  22.685  1.00  0.00     0.198 C 
BRANCH  21  22
HETATM   22  O6  UNL     1      31.516  76.219  23.760  1.00  0.00    -0.398 OA
HETATM   23  H   UNL     1      30.867  76.201  24.481  1.00  0.00     0.209 HD
ENDBRANCH  21  22
ENDBRANCH  18  21
ENDBRANCH  15  18
ENDBRANCH   1  15
TORSDOF 11
ENDMDL
MODEL 4
REMARK VINA RESULT:      -6.8      1.181      1.769
REMARK  11 active torsions:
REMARK  status: ('A' for Active; 'I' for Inactive)
REMARK    1  A    between atoms: C1_1  and  C2_2 
REMARK    2  A    between atoms: C1_1  and  C10_13 
REMARK    3  A    between atoms: C2_2  and  C3_3 
REMARK    4  A    between atoms: C3_3  and  C4_4 
REMARK    5  A    between atoms: C6_6  and  O1_7 
REMARK    6  A    between atoms: C7_8  and  O2_9 
REMARK    7  A    between atoms: C10_13  and  O4_14 
REMARK    8  A    between atoms: C10_13  and  C11_15 
REMARK    9  A    between atoms: C11_15  and  O5_16 
REMARK   10  A    between atoms: C11_15  and  C12_17 
REMARK   11  A    between atoms: C12_17  and  O6_18 
ROOT
HETATM    1  C1  UNL     1      33.533  72.521  22.037  1.00  0.00     0.158 C 
HETATM    2  O3  UNL     1      34.118  73.170  22.910  1.00  0.00    -0.295 OA
ENDROOT
BRANCH   1   3
HETATM    3  C2  UNL     1      32.414  73.152  21.226  1.00  0.00     0.086 C 
BRANCH   3   4
HETATM    4  C3  UNL     1      32.893  74.232  20.260  1.00  0.00     0.046 C 
BRANCH   4   5
HETATM    5  C4  UNL     1      32.252  75.580  20.489  1.00  0.00    -0.055 A 
HETATM    6  C5  UNL     1      31.719  75.918  21.744  1.00  0.00     0.046 A 
HETATM    7  C6  UNL     1      31.124  77.162  21.927  1.00  0.00     0.099 A 
HETATM    8  C7  UNL     1      31.060  78.074  20.878  1.00  0.00     0.098 A 
HETATM    9  C8  UNL     1      31.584  77.761  19.635  1.00  0.00     0.040 A 
HETATM   10  C9  UNL     1      32.182  76.515  19.440  1.00  0.00     0.010 A 
BRANCH   7  11
HETATM   11  O1  UNL     1      30.585  77.535  23.127  1.00  0.00    -0.358 OA
HETATM   12  H   UNL     1      31.140  77.857  23.810  1.00  0.00     0.217 HD
ENDBRANCH   7  11
BRANCH   8  13
HETATM   13  O2  UNL     1      30.473  79.292  21.069  1.00  0.00    -0.358 OA
HETATM   14  H   UNL     1      29.921  79.435  21.812  1.00  0.00     0.217 HD
ENDBRANCH   8  13
ENDBRANCH   4   5
ENDBRANCH   3   4
ENDBRANCH   1   3
BRANCH   1  15
HETATM   15  C10 UNL     1      33.940  71.086  21.698  1.00  0.00     0.218 C 
BRANCH  15  16
HETATM   16  O4  UNL     1      35.194  71.130  21.016  1.00  0.00    -0.385 OA
HETATM   17  H   UNL     1      35.690  70.317  21.200  1.00  0.00     0.210 HD
ENDBRANCH  15  16
BRANCH  15  18
HETATM   18  C11 UNL     1      34.020  70.212  22.967  1.00  0.00     0.177 C 
BRANCH  18  19
HETATM   19  O5  UNL     1      33.021  70.591  23.927  1.00  0.00    -0.390 OA
HETATM   20  H   UNL     1      32.402  69.855  24.057  1.00  0.00     0.210 HD
ENDBRANCH  18  19
BRANCH  18  21
HETATM   21  C12 UNL     1      33.777  68.732  22.642  1.00  0.00     0.198 C 
BRANCH  21  22
HETATM   22  O6  UNL     1      34.550  67.911  23.520  1.00  0.00    -0.398 OA
HETATM   23  H   UNL     1      34.533  68.287  24.414  1.00  0.00     0.209 HD
ENDBRANCH  21  22
ENDBRANCH  18  21
ENDBRANCH  15  18
ENDBRANCH   1  15
TORSDOF 11
ENDMDL
MODEL 5
REMARK VINA RESULT:      -6.8      1.547      1.811
REMARK  11 active torsions:
REMARK  status: ('A' for Active; 'I' for Inactive)
REMARK    1  A    between atoms: C1_1  and  C2_2 
REMARK    2  A    between atoms: C1_1  and  C10_13 
REMARK    3  A    between atoms: C2_2  and  C3_3 
REMARK    4  A    between atoms: C3_3  and  C4_4 
REMARK    5  A    between atoms: C6_6  and  O1_7 
REMARK    6  A    between atoms: C7_8  and  O2_9 
REMARK    7  A    between atoms: C10_13  and  O4_14 
REMARK    8  A    between atoms: C10_13  and  C11_15 
REMARK    9  A    between atoms: C11_15  and  O5_16 
REMARK   10  A    between atoms: C11_15  and  C12_17 
REMARK   11  A    between atoms: C12_17  and  O6_18 
ROOT
HETATM    1  C1  UNL     1      33.777  72.248  20.251  1.00  0.00     0.158 C 
HETATM    2  O3  UNL     1      33.122  71.593  19.434  1.00  0.00    -0.295 OA
ENDROOT
BRANCH   1   3
HETATM    3  C2  UNL     1      34.018  73.732  20.036  1.00  0.00     0.086 C 
BRANCH   3   4
HETATM    4  C3  UNL     1      32.819  74.467  19.443  1.00  0.00     0.046 C 
BRANCH   4   5
HETATM    5  C4  UNL     1      32.234  75.515  20.360  1.00  0.00    -0.055 A 
HETATM    6  C5  UNL     1      32.185  75.308  21.748  1.00  0.00     0.046 A 
HETATM    7  C6  UNL     1      31.632  76.284  22.570  1.00  0.00     0.099 A 
HETATM    8  C7  UNL     1      31.134  77.464  22.027  1.00  0.00     0.098 A 
HETATM    9  C8  UNL     1      31.177  77.689  20.661  1.00  0.00     0.040 A 
HETATM   10  C9  UNL     1      31.729  76.715  19.827  1.00  0.00     0.010 A 
BRANCH   7  11
HETATM   11  O1  UNL     1      31.556  76.128  23.927  1.00  0.00    -0.358 OA
HETATM   12  H   UNL     1      32.067  75.467  24.352  1.00  0.00     0.217 HD
ENDBRANCH   7  11
BRANCH   8  13
HETATM   13  O2  UNL     1      30.592  78.416  22.844  1.00  0.00    -0.358 OA
HETATM   14  H   UNL     1      30.901  79.300  22.802  1.00  0.00     0.217 HD
ENDBRANCH   8  13
ENDBRANCH   4   5
ENDBRANCH   3   4
ENDBRANCH   1   3
BRANCH   1  15
HETATM   15  C10 UNL     1      34.324  71.613  21.531  1.00  0.00     0.218 C 
BRANCH  15  16
HETATM   16  O4  UNL     1      34.068  72.508  22.614  1.00  0.00    -0.385 OA
HETATM   17  H   UNL     1      34.338  73.405  22.362  1.00  0.00     0.210 HD
ENDBRANCH  15  16
BRANCH  15  18
HETATM   18  C11 UNL     1      33.691  70.229  21.784  1.00  0.00     0.177 C 
BRANCH  18  19
HETATM   19  O5  UNL     1      34.425  69.188  21.118  1.00  0.00    -0.390 OA
HETATM   20  H   UNL     1      34.757  68.557  21.775  1.00  0.00     0.210 HD
ENDBRANCH  18  19
BRANCH  18  21
HETATM   21  C12 UNL     1      33.692  69.879  23.278  1.00  0.00     0.198 C 
BRANCH  21  22
HETATM   22  O6  UNL     1      35.005  70.054  23.815  1.00  0.00    -0.398 OA
HETATM   23  H   UNL     1      35.282  70.977  23.698  1.00  0.00     0.209 HD
ENDBRANCH  21  22
ENDBRANCH  18  21
ENDBRANCH  15  18
ENDBRANCH   1  15
TORSDOF 11
ENDMDL
MODEL 6
REMARK VINA RESULT:      -6.7      1.235      2.040
REMARK  11 active torsions:
REMARK  status: ('A' for Active; 'I' for Inactive)
REMARK    1  A    between atoms: C1_1  and  C2_2 
REMARK    2  A    between atoms: C1_1  and  C10_13 
REMARK    3  A    between atoms: C2_2  and  C3_3 
REMARK    4  A    between atoms: C3_3  and  C4_4 
REMARK    5  A    between atoms: C6_6  and  O1_7 
REMARK    6  A    between atoms: C7_8  and  O2_9 
REMARK    7  A    between atoms: C10_13  and  O4_14 
REMARK    8  A    between atoms: C10_13  and  C11_15 
REMARK    9  A    between atoms: C11_15  and  O5_16 
REMARK   10  A    between atoms: C11_15  and  C12_17 
REMARK   11  A    between atoms: C12_17  and  O6_18 
ROOT
HETATM    1  C1  UNL     1      32.909  72.782  22.135  1.00  0.00     0.158 C 
HETATM    2  O3  UNL     1      31.759  72.782  22.585  1.00  0.00    -0.295 OA
ENDROOT
BRANCH   1   3
HETATM    3  C2  UNL     1      33.640  74.088  21.881  1.00  0.00     0.086 C 
BRANCH   3   4
HETATM    4  C3  UNL     1      32.920  75.311  22.444  1.00  0.00     0.046 C 
BRANCH   4   5
HETATM    5  C4  UNL     1      32.233  76.151  21.392  1.00  0.00    -0.055 A 
HETATM    6  C5  UNL     1      31.643  77.380  21.729  1.00  0.00     0.046 A 
HETATM    7  C6  UNL     1      31.007  78.130  20.745  1.00  0.00     0.099 A 
HETATM    8  C7  UNL     1      30.957  77.672  19.432  1.00  0.00     0.098 A 
HETATM    9  C8  UNL     1      31.537  76.465  19.080  1.00  0.00     0.040 A 
HETATM   10  C9  UNL     1      32.177  75.704  20.060  1.00  0.00     0.010 A 
BRANCH   7  11
HETATM   11  O1  UNL     1      30.412  79.330  21.022  1.00  0.00    -0.358 OA
HETATM   12  H   UNL     1      30.472  79.695  21.883  1.00  0.00     0.217 HD
ENDBRANCH   7  11
BRANCH   8  13
HETATM   13  O2  UNL     1      30.329  78.416  18.474  1.00  0.00    -0.358 OA
HETATM   14  H   UNL     1      30.744  78.560  17.646  1.00  0.00     0.217 HD
ENDBRANCH   8  13
ENDBRANCH   4   5
ENDBRANCH   3   4
ENDBRANCH   1   3
BRANCH   1  15
HETATM   15  C10 UNL     1      33.664  71.478  21.867  1.00  0.00     0.218 C 
BRANCH  15  16
HETATM   16  O4  UNL     1      34.789  71.779  21.041  1.00  0.00    -0.385 OA
HETATM   17  H   UNL     1      34.482  72.139  20.194  1.00  0.00     0.210 HD
ENDBRANCH  15  16
BRANCH  15  18
HETATM   18  C11 UNL     1      34.099  70.802  23.184  1.00  0.00     0.177 C 
BRANCH  18  19
HETATM   19  O5  UNL     1      33.703  71.579  24.326  1.00  0.00    -0.390 OA
HETATM   20  H   UNL     1      33.958  72.505  24.190  1.00  0.00     0.210 HD
ENDBRANCH  18  19
BRANCH  18  21
HETATM   21  C12 UNL     1      33.447  69.423  23.346  1.00  0.00     0.198 C 
BRANCH  21  22
HETATM   22  O6  UNL     1      34.458  68.425  23.504  1.00  0.00    -0.398 OA
HETATM   23  H   UNL     1      34.544  68.198  24.443  1.00  0.00     0.209 HD
ENDBRANCH  21  22
ENDBRANCH  18  21
ENDBRANCH  15  18
ENDBRANCH   1  15
TORSDOF 11
ENDMDL
MODEL 7
REMARK VINA RESULT:      -6.7      1.464      6.746
REMARK  11 active torsions:
REMARK  status: ('A' for Active; 'I' for Inactive)
REMARK    1  A    between atoms: C1_1  and  C2_2 
REMARK    2  A    between atoms: C1_1  and  C10_13 
REMARK    3  A    between atoms: C2_2  and  C3_3 
REMARK    4  A    between atoms: C3_3  and  C4_4 
REMARK    5  A    between atoms: C6_6  and  O1_7 
REMARK    6  A    between atoms: C7_8  and  O2_9 
REMARK    7  A    between atoms: C10_13  and  O4_14 
REMARK    8  A    between atoms: C10_13  and  C11_15 
REMARK    9  A    between atoms: C11_15  and  O5_16 
REMARK   10  A    between atoms: C11_15  and  C12_17 
REMARK   11  A    between atoms: C12_17  and  O6_18 
ROOT
HETATM    1  C1  UNL     1      32.160  77.029  21.805  1.00  0.00     0.158 C 
HETATM    2  O3  UNL     1      32.612  76.974  22.953  1.00  0.00    -0.295 OA
ENDROOT
BRANCH   1   3
HETATM    3  C2  UNL     1      31.777  75.761  21.063  1.00  0.00     0.086 C 
BRANCH   3   4
HETATM    4  C3  UNL     1      32.948  75.093  20.347  1.00  0.00     0.046 C 
BRANCH   4   5
HETATM    5  C4  UNL     1      33.316  73.741  20.914  1.00  0.00    -0.055 A 
HETATM    6  C5  UNL     1      33.288  73.513  22.299  1.00  0.00     0.046 A 
HETATM    7  C6  UNL     1      33.641  72.263  22.797  1.00  0.00     0.099 A 
HETATM    8  C7  UNL     1      34.015  71.239  21.932  1.00  0.00     0.098 A 
HETATM    9  C8  UNL     1      34.043  71.444  20.563  1.00  0.00     0.040 A 
HETATM   10  C9  UNL     1      33.692  72.695  20.053  1.00  0.00     0.010 A 
BRANCH   7  11
HETATM   11  O1  UNL     1      33.637  71.991  24.138  1.00  0.00    -0.358 OA
HETATM   12  H   UNL     1      33.162  71.252  24.465  1.00  0.00     0.217 HD
ENDBRANCH   7  11
BRANCH   8  13
HETATM   13  O2  UNL     1      34.360  70.016  22.432  1.00  0.00    -0.358 OA
HETATM   14  H   UNL     1      33.705  69.356  22.549  1.00  0.00     0.217 HD
ENDBRANCH   8  13
ENDBRANCH   4   5
ENDBRANCH   3   4
ENDBRANCH   1   3
BRANCH   1  15
HETATM   15  C10 UNL     1      31.916  78.368  21.104  1.00  0.00     0.218 C 
BRANCH  15  16
HETATM   16  O4  UNL     1      31.340  78.100  19.826  1.00  0.00    -0.385 OA
HETATM   17  H   UNL     1      31.892  77.460  19.349  1.00  0.00     0.210 HD
ENDBRANCH  15  16
BRANCH  15  18
HETATM   18  C11 UNL     1      31.008  79.285  21.949  1.00  0.00     0.177 C 
BRANCH  18  19
HETATM   19  O5  UNL     1      30.380  78.557  23.018  1.00  0.00    -0.390 OA
HETATM   20  H   UNL     1      29.897  77.800  22.652  1.00  0.00     0.210 HD
ENDBRANCH  18  19
BRANCH  18  21
HETATM   21  C12 UNL     1      31.810  80.417  22.603  1.00  0.00     0.198 C 
BRANCH  21  22
HETATM   22  O6  UNL     1      32.933  79.875  23.301  1.00  0.00    -0.398 OA
HETATM   23  H   UNL     1      33.507  80.597  23.602  1.00  0.00     0.209 HD
ENDBRANCH  21  22
ENDBRANCH  18  21
ENDBRANCH  15  18
ENDBRANCH   1  15
TORSDOF 11
ENDMDL
MODEL 8
REMARK VINA RESULT:      -6.7      1.381      1.796
REMARK  11 active torsions:
REMARK  status: ('A' for Active; 'I' for Inactive)
REMARK    1  A    between atoms: C1_1  and  C2_2 
REMARK    2  A    between atoms: C1_1  and  C10_13 
REMARK    3  A    between atoms: C2_2  and  C3_3 
REMARK    4  A    between atoms: C3_3  and  C4_4 
REMARK    5  A    between atoms: C6_6  and  O1_7 
REMARK    6  A    between atoms: C7_8  and  O2_9 
REMARK    7  A    between atoms: C10_13  and  O4_14 
REMARK    8  A    between atoms: C10_13  and  C11_15 
REMARK    9  A    between atoms: C11_15  and  O5_16 
REMARK   10  A    between atoms: C11_15  and  C12_17 
REMARK   11  A    between atoms: C12_17  and  O6_18 
ROOT
HETATM    1  C1  UNL     1      32.400  72.962  22.590  1.00  0.00     0.158 C 
HETATM    2  O3  UNL     1      31.297  72.459  22.821  1.00  0.00    -0.295 OA
ENDROOT
BRANCH   1   3
HETATM    3  C2  UNL     1      32.507  74.383  22.065  1.00  0.00     0.086 C 
BRANCH   3   4
HETATM    4  C3  UNL     1      32.863  74.463  20.583  1.00  0.00     0.046 C 
BRANCH   4   5
HETATM    5  C4  UNL     1      32.147  75.569  19.844  1.00  0.00    -0.055 A 
HETATM    6  C5  UNL     1      31.692  76.710  20.526  1.00  0.00     0.046 A 
HETATM    7  C6  UNL     1      31.026  77.710  19.825  1.00  0.00     0.099 A 
HETATM    8  C7  UNL     1      30.815  77.591  18.455  1.00  0.00     0.098 A 
HETATM    9  C8  UNL     1      31.261  76.476  17.765  1.00  0.00     0.040 A 
HETATM   10  C9  UNL     1      31.929  75.466  18.459  1.00  0.00     0.010 A 
BRANCH   7  11
HETATM   11  O1  UNL     1      30.558  78.837  20.444  1.00  0.00    -0.358 OA
HETATM   12  H   UNL     1      31.119  79.580  20.551  1.00  0.00     0.217 HD
ENDBRANCH   7  11
BRANCH   8  13
HETATM   13  O2  UNL     1      30.160  78.579  17.778  1.00  0.00    -0.358 OA
HETATM   14  H   UNL     1      30.161  78.585  16.841  1.00  0.00     0.217 HD
ENDBRANCH   8  13
ENDBRANCH   4   5
ENDBRANCH   3   4
ENDBRANCH   1   3
BRANCH   1  15
HETATM   15  C10 UNL     1      33.700  72.205  22.871  1.00  0.00     0.218 C 
BRANCH  15  16
HETATM   16  O4  UNL     1      33.845  72.084  24.286  1.00  0.00    -0.385 OA
HETATM   17  H   UNL     1      34.338  72.847  24.628  1.00  0.00     0.210 HD
ENDBRANCH  15  16
BRANCH  15  18
HETATM   18  C11 UNL     1      33.703  70.823  22.185  1.00  0.00     0.177 C 
BRANCH  18  19
HETATM   19  O5  UNL     1      34.871  70.647  21.368  1.00  0.00    -0.390 OA
HETATM   20  H   UNL     1      34.625  70.722  20.432  1.00  0.00     0.210 HD
ENDBRANCH  18  19
BRANCH  18  21
HETATM   21  C12 UNL     1      33.715  69.688  23.217  1.00  0.00     0.198 C 
BRANCH  21  22
HETATM   22  O6  UNL     1      32.526  69.741  24.009  1.00  0.00    -0.398 OA
HETATM   23  H   UNL     1      31.902  70.370  23.614  1.00  0.00     0.209 HD
ENDBRANCH  21  22
ENDBRANCH  18  21
ENDBRANCH  15  18
ENDBRANCH   1  15
TORSDOF 11
ENDMDL
MODEL 9
REMARK VINA RESULT:      -6.7      3.844      7.391
REMARK  11 active torsions:
REMARK  status: ('A' for Active; 'I' for Inactive)
REMARK    1  A    between atoms: C1_1  and  C2_2 
REMARK    2  A    between atoms: C1_1  and  C10_13 
REMARK    3  A    between atoms: C2_2  and  C3_3 
REMARK    4  A    between atoms: C3_3  and  C4_4 
REMARK    5  A    between atoms: C6_6  and  O1_7 
REMARK    6  A    between atoms: C7_8  and  O2_9 
REMARK    7  A    between atoms: C10_13  and  O4_14 
REMARK    8  A    between atoms: C10_13  and  C11_15 
REMARK    9  A    between atoms: C11_15  and  O5_16 
REMARK   10  A    between atoms: C11_15  and  C12_17 
REMARK   11  A    between atoms: C12_17  and  O6_18 
ROOT
HETATM    1  C1  UNL     1      31.790  78.218  16.546  1.00  0.00     0.158 C 
HETATM    2  O3  UNL     1      32.553  78.713  15.711  1.00  0.00    -0.295 OA
ENDROOT
BRANCH   1   3
HETATM    3  C2  UNL     1      32.312  77.770  17.900  1.00  0.00     0.086 C 
BRANCH   3   4
HETATM    4  C3  UNL     1      31.695  76.463  18.392  1.00  0.00     0.046 C 
BRANCH   4   5
HETATM    5  C4  UNL     1      31.647  76.342  19.897  1.00  0.00    -0.055 A 
HETATM    6  C5  UNL     1      31.176  77.403  20.687  1.00  0.00     0.046 A 
HETATM    7  C6  UNL     1      31.151  77.271  22.071  1.00  0.00     0.099 A 
HETATM    8  C7  UNL     1      31.582  76.095  22.676  1.00  0.00     0.098 A 
HETATM    9  C8  UNL     1      32.045  75.036  21.913  1.00  0.00     0.040 A 
HETATM   10  C9  UNL     1      32.076  75.158  20.523  1.00  0.00     0.010 A 
BRANCH   7  11
HETATM   11  O1  UNL     1      30.708  78.278  22.885  1.00  0.00    -0.358 OA
HETATM   12  H   UNL     1      31.076  79.137  22.811  1.00  0.00     0.217 HD
ENDBRANCH   7  11
BRANCH   8  13
HETATM   13  O2  UNL     1      31.554  75.976  24.036  1.00  0.00    -0.358 OA
HETATM   14  H   UNL     1      30.733  75.906  24.483  1.00  0.00     0.217 HD
ENDBRANCH   8  13
ENDBRANCH   4   5
ENDBRANCH   3   4
ENDBRANCH   1   3
BRANCH   1  15
HETATM   15  C10 UNL     1      30.289  78.085  16.280  1.00  0.00     0.218 C 
BRANCH  15  16
HETATM   16  O4  UNL     1      29.683  79.356  16.514  1.00  0.00    -0.385 OA
HETATM   17  H   UNL     1      29.162  79.614  15.737  1.00  0.00     0.210 HD
ENDBRANCH  15  16
BRANCH  15  18
HETATM   18  C11 UNL     1      30.017  77.588  14.844  1.00  0.00     0.177 C 
BRANCH  18  19
HETATM   19  O5  UNL     1      31.036  76.675  14.405  1.00  0.00    -0.390 OA
HETATM   20  H   UNL     1      30.858  75.794  14.769  1.00  0.00     0.210 HD
ENDBRANCH  18  19
BRANCH  18  21
HETATM   21  C12 UNL     1      28.685  76.832  14.758  1.00  0.00     0.198 C 
BRANCH  21  22
HETATM   22  O6  UNL     1      27.614  77.760  14.566  1.00  0.00    -0.398 OA
HETATM   23  H   UNL     1      27.967  78.664  14.557  1.00  0.00     0.209 HD
ENDBRANCH  21  22
ENDBRANCH  18  21
ENDBRANCH  15  18
ENDBRANCH   1  15
TORSDOF 11
ENDMDL
