MODEL 1
REMARK VINA RESULT:      -5.9      0.000      0.000
REMARK  6 active torsions:
REMARK  status: ('A' for Active; 'I' for Inactive)
REMARK    1  A    between atoms: O_1  and  C_5 
REMARK    2  A    between atoms: O_2  and  C_7 
REMARK    3  A    between atoms: O_2  and  C_13 
REMARK    4  A    between atoms: C_4  and  C_5 
REMARK    5  A    between atoms: C_4  and  C_6 
REMARK    6  A    between atoms: C_5  and  C_7 
ROOT
HETATM    1  O   UNL     1     -51.626  48.838   6.881  1.00  0.00    -0.385 OA
HETATM    2  H   UNL     1     -50.834  49.214   7.295  1.00  0.00     0.210 HD
ENDROOT
BRANCH   1   3
HETATM    3  C   UNL     1     -52.182  47.846   7.734  1.00  0.00     0.221 C 
BRANCH   3   4
HETATM    4  C   UNL     1     -53.497  48.373   8.311  1.00  0.00     0.080 C 
BRANCH   4   5
HETATM    5  C   UNL     1     -53.382  48.698   9.781  1.00  0.00    -0.055 A 
HETATM    6  C   UNL     1     -53.031  47.695  10.672  1.00  0.00     0.007 A 
HETATM    7  C   UNL     1     -52.924  47.995  12.030  1.00  0.00     0.001 A 
HETATM    8  C   UNL     1     -53.171  49.293  12.479  1.00  0.00     0.000 A 
HETATM    9  C   UNL     1     -53.523  50.290  11.571  1.00  0.00     0.001 A 
HETATM   10  C   UNL     1     -53.629  49.991  10.213  1.00  0.00     0.007 A 
ENDBRANCH   4   5
ENDBRANCH   3   4
BRANCH   3  11
HETATM   11  C   UNL     1     -52.419  46.602   6.900  1.00  0.00     0.288 C 
HETATM   12  O   UNL     1     -51.600  46.111   6.134  1.00  0.00    -0.262 OA
BRANCH  11  13
HETATM   13  O   UNL     1     -53.666  46.108   7.158  1.00  0.00    -0.320 OA
BRANCH  13  14
HETATM   14  C   UNL     1     -53.704  44.795   7.726  1.00  0.00     0.174 C 
HETATM   15  C   UNL     1     -54.618  44.807   8.933  1.00  0.00     0.034 C 
ENDBRANCH  13  14
ENDBRANCH  11  13
ENDBRANCH   3  11
ENDBRANCH   1   3
TORSDOF 6
ENDMDL
MODEL 2
REMARK VINA RESULT:      -5.8      1.270      2.635
REMARK  6 active torsions:
REMARK  status: ('A' for Active; 'I' for Inactive)
REMARK    1  A    between atoms: O_1  and  C_5 
REMARK    2  A    between atoms: O_2  and  C_7 
REMARK    3  A    between atoms: O_2  and  C_13 
REMARK    4  A    between atoms: C_4  and  C_5 
REMARK    5  A    between atoms: C_4  and  C_6 
REMARK    6  A    between atoms: C_5  and  C_7 
ROOT
HETATM    1  O   UNL     1     -55.456  45.773   8.878  1.00  0.00    -0.385 OA
HETATM    2  H   UNL     1     -55.800  45.387   8.057  1.00  0.00     0.210 HD
ENDROOT
BRANCH   1   3
HETATM    3  C   UNL     1     -54.297  46.543   8.589  1.00  0.00     0.221 C 
BRANCH   3   4
HETATM    4  C   UNL     1     -53.474  46.694   9.871  1.00  0.00     0.080 C 
BRANCH   4   5
HETATM    5  C   UNL     1     -53.476  48.114  10.383  1.00  0.00    -0.055 A 
HETATM    6  C   UNL     1     -53.211  48.353  11.722  1.00  0.00     0.007 A 
HETATM    7  C   UNL     1     -53.213  49.665  12.196  1.00  0.00     0.001 A 
HETATM    8  C   UNL     1     -53.480  50.721  11.323  1.00  0.00     0.000 A 
HETATM    9  C   UNL     1     -53.744  50.465   9.978  1.00  0.00     0.001 A 
HETATM   10  C   UNL     1     -53.742  49.153   9.505  1.00  0.00     0.007 A 
ENDBRANCH   4   5
ENDBRANCH   3   4
BRANCH   3  11
HETATM   11  C   UNL     1     -53.507  45.806   7.525  1.00  0.00     0.288 C 
HETATM   12  O   UNL     1     -53.164  44.634   7.600  1.00  0.00    -0.262 OA
BRANCH  11  13
HETATM   13  O   UNL     1     -53.266  46.642   6.473  1.00  0.00    -0.320 OA
BRANCH  13  14
HETATM   14  C   UNL     1     -51.890  46.785   6.101  1.00  0.00     0.174 C 
HETATM   15  C   UNL     1     -51.268  47.889   6.930  1.00  0.00     0.034 C 
ENDBRANCH  13  14
ENDBRANCH  11  13
ENDBRANCH   3  11
ENDBRANCH   1   3
TORSDOF 6
ENDMDL
MODEL 3
REMARK VINA RESULT:      -5.7      1.250      2.783
REMARK  6 active torsions:
REMARK  status: ('A' for Active; 'I' for Inactive)
REMARK    1  A    between atoms: O_1  and  C_5 
REMARK    2  A    between atoms: O_2  and  C_7 
REMARK    3  A    between atoms: O_2  and  C_13 
REMARK    4  A    between atoms: C_4  and  C_5 
REMARK    5  A    between atoms: C_4  and  C_6 
REMARK    6  A    between atoms: C_5  and  C_7 
ROOT
HETATM    1  O   UNL     1     -55.027  45.566   8.586  1.00  0.00    -0.385 OA
HETATM    2  H   UNL     1     -55.660  45.659   7.857  1.00  0.00     0.210 HD
ENDROOT
BRANCH   1   3
HETATM    3  C   UNL     1     -53.922  46.432   8.367  1.00  0.00     0.221 C 
BRANCH   3   4
HETATM    4  C   UNL     1     -53.143  46.579   9.676  1.00  0.00     0.080 C 
BRANCH   4   5
HETATM    5  C   UNL     1     -53.282  47.960  10.268  1.00  0.00    -0.055 A 
HETATM    6  C   UNL     1     -53.634  49.019   9.445  1.00  0.00     0.007 A 
HETATM    7  C   UNL     1     -53.763  50.296   9.991  1.00  0.00     0.001 A 
HETATM    8  C   UNL     1     -53.539  50.497  11.353  1.00  0.00     0.000 A 
HETATM    9  C   UNL     1     -53.186  49.423  12.169  1.00  0.00     0.001 A 
HETATM   10  C   UNL     1     -53.057  48.146  11.622  1.00  0.00     0.007 A 
ENDBRANCH   4   5
ENDBRANCH   3   4
BRANCH   3  11
HETATM   11  C   UNL     1     -53.055  45.809   7.290  1.00  0.00     0.288 C 
HETATM   12  O   UNL     1     -52.580  44.682   7.345  1.00  0.00    -0.262 OA
BRANCH  11  13
HETATM   13  O   UNL     1     -52.913  46.685   6.252  1.00  0.00    -0.320 OA
BRANCH  13  14
HETATM   14  C   UNL     1     -51.564  46.985   5.878  1.00  0.00     0.174 C 
HETATM   15  C   UNL     1     -51.026  48.062   6.796  1.00  0.00     0.034 C 
ENDBRANCH  13  14
ENDBRANCH  11  13
ENDBRANCH   3  11
ENDBRANCH   1   3
TORSDOF 6
ENDMDL
MODEL 4
REMARK VINA RESULT:      -5.7      1.009      1.875
REMARK  6 active torsions:
REMARK  status: ('A' for Active; 'I' for Inactive)
REMARK    1  A    between atoms: O_1  and  C_5 
REMARK    2  A    between atoms: O_2  and  C_7 
REMARK    3  A    between atoms: O_2  and  C_13 
REMARK    4  A    between atoms: C_4  and  C_5 
REMARK    5  A    between atoms: C_4  and  C_6 
REMARK    6  A    between atoms: C_5  and  C_7 
ROOT
HETATM    1  O   UNL     1     -51.695  48.491   6.798  1.00  0.00    -0.385 OA
HETATM    2  H   UNL     1     -50.741  48.578   6.947  1.00  0.00     0.210 HD
ENDROOT
BRANCH   1   3
HETATM    3  C   UNL     1     -52.274  47.739   7.856  1.00  0.00     0.221 C 
BRANCH   3   4
HETATM    4  C   UNL     1     -53.475  48.509   8.409  1.00  0.00     0.080 C 
BRANCH   4   5
HETATM    5  C   UNL     1     -53.354  48.759   9.893  1.00  0.00    -0.055 A 
HETATM    6  C   UNL     1     -53.019  47.708  10.733  1.00  0.00     0.007 A 
HETATM    7  C   UNL     1     -52.907  47.938  12.104  1.00  0.00     0.001 A 
HETATM    8  C   UNL     1     -53.133  49.216  12.617  1.00  0.00     0.000 A 
HETATM    9  C   UNL     1     -53.469  50.263  11.760  1.00  0.00     0.001 A 
HETATM   10  C   UNL     1     -53.580  50.033  10.388  1.00  0.00     0.007 A 
ENDBRANCH   4   5
ENDBRANCH   3   4
BRANCH   3  11
HETATM   11  C   UNL     1     -52.707  46.402   7.286  1.00  0.00     0.288 C 
HETATM   12  O   UNL     1     -53.870  46.067   7.105  1.00  0.00    -0.262 OA
BRANCH  11  13
HETATM   13  O   UNL     1     -51.605  45.652   6.988  1.00  0.00    -0.320 OA
BRANCH  13  14
HETATM   14  C   UNL     1     -51.699  44.863   5.798  1.00  0.00     0.174 C 
HETATM   15  C   UNL     1     -51.343  45.725   4.605  1.00  0.00     0.034 C 
ENDBRANCH  13  14
ENDBRANCH  11  13
ENDBRANCH   3  11
ENDBRANCH   1   3
TORSDOF 6
ENDMDL
MODEL 5
REMARK VINA RESULT:      -5.7      1.028      2.299
REMARK  6 active torsions:
REMARK  status: ('A' for Active; 'I' for Inactive)
REMARK    1  A    between atoms: O_1  and  C_5 
REMARK    2  A    between atoms: O_2  and  C_7 
REMARK    3  A    between atoms: O_2  and  C_13 
REMARK    4  A    between atoms: C_4  and  C_5 
REMARK    5  A    between atoms: C_4  and  C_6 
REMARK    6  A    between atoms: C_5  and  C_7 
ROOT
HETATM    1  O   UNL     1     -51.614  48.362   6.722  1.00  0.00    -0.385 OA
HETATM    2  H   UNL     1     -51.574  47.780   5.946  1.00  0.00     0.210 HD
ENDROOT
BRANCH   1   3
HETATM    3  C   UNL     1     -52.205  47.662   7.809  1.00  0.00     0.221 C 
BRANCH   3   4
HETATM    4  C   UNL     1     -53.411  48.459   8.311  1.00  0.00     0.080 C 
BRANCH   4   5
HETATM    5  C   UNL     1     -53.334  48.733   9.793  1.00  0.00    -0.055 A 
HETATM    6  C   UNL     1     -53.607  50.008  10.263  1.00  0.00     0.007 A 
HETATM    7  C   UNL     1     -53.535  50.262  11.633  1.00  0.00     0.001 A 
HETATM    8  C   UNL     1     -53.192  49.237  12.514  1.00  0.00     0.000 A 
HETATM    9  C   UNL     1     -52.920  47.959  12.027  1.00  0.00     0.001 A 
HETATM   10  C   UNL     1     -52.991  47.705  10.657  1.00  0.00     0.007 A 
ENDBRANCH   4   5
ENDBRANCH   3   4
BRANCH   3  11
HETATM   11  C   UNL     1     -52.632  46.299   7.301  1.00  0.00     0.288 C 
HETATM   12  O   UNL     1     -53.790  45.905   7.258  1.00  0.00    -0.262 OA
BRANCH  11  13
HETATM   13  O   UNL     1     -51.536  45.602   6.881  1.00  0.00    -0.320 OA
BRANCH  13  14
HETATM   14  C   UNL     1     -51.732  44.780   5.725  1.00  0.00     0.174 C 
HETATM   15  C   UNL     1     -51.316  45.556   4.494  1.00  0.00     0.034 C 
ENDBRANCH  13  14
ENDBRANCH  11  13
ENDBRANCH   3  11
ENDBRANCH   1   3
TORSDOF 6
ENDMDL
MODEL 6
REMARK VINA RESULT:      -5.6      0.916      1.630
REMARK  6 active torsions:
REMARK  status: ('A' for Active; 'I' for Inactive)
REMARK    1  A    between atoms: O_1  and  C_5 
REMARK    2  A    between atoms: O_2  and  C_7 
REMARK    3  A    between atoms: O_2  and  C_13 
REMARK    4  A    between atoms: C_4  and  C_5 
REMARK    5  A    between atoms: C_4  and  C_6 
REMARK    6  A    between atoms: C_5  and  C_7 
ROOT
HETATM    1  O   UNL     1     -52.301  47.753   6.539  1.00  0.00    -0.385 OA
HETATM    2  H   UNL     1     -52.898  47.421   5.850  1.00  0.00     0.210 HD
ENDROOT
BRANCH   1   3
HETATM    3  C   UNL     1     -52.678  47.206   7.796  1.00  0.00     0.221 C 
BRANCH   3   4
HETATM    4  C   UNL     1     -53.881  47.985   8.332  1.00  0.00     0.080 C 
BRANCH   4   5
HETATM    5  C   UNL     1     -53.628  48.541   9.712  1.00  0.00    -0.055 A 
HETATM    6  C   UNL     1     -53.742  49.906   9.925  1.00  0.00     0.007 A 
HETATM    7  C   UNL     1     -53.508  50.421  11.200  1.00  0.00     0.001 A 
HETATM    8  C   UNL     1     -53.162  49.564  12.245  1.00  0.00     0.000 A 
HETATM    9  C   UNL     1     -53.052  48.193  12.016  1.00  0.00     0.001 A 
HETATM   10  C   UNL     1     -53.286  47.678  10.741  1.00  0.00     0.007 A 
ENDBRANCH   4   5
ENDBRANCH   3   4
BRANCH   3  11
HETATM   11  C   UNL     1     -53.033  45.748   7.576  1.00  0.00     0.288 C 
HETATM   12  O   UNL     1     -52.256  44.897   7.166  1.00  0.00    -0.262 OA
BRANCH  11  13
HETATM   13  O   UNL     1     -54.335  45.537   7.928  1.00  0.00    -0.320 OA
BRANCH  13  14
HETATM   14  C   UNL     1     -54.546  44.562   8.957  1.00  0.00     0.174 C 
HETATM   15  C   UNL     1     -55.629  43.603   8.511  1.00  0.00     0.034 C 
ENDBRANCH  13  14
ENDBRANCH  11  13
ENDBRANCH   3  11
ENDBRANCH   1   3
TORSDOF 6
ENDMDL
MODEL 7
REMARK VINA RESULT:      -5.5      1.594      2.113
REMARK  6 active torsions:
REMARK  status: ('A' for Active; 'I' for Inactive)
REMARK    1  A    between atoms: O_1  and  C_5 
REMARK    2  A    between atoms: O_2  and  C_7 
REMARK    3  A    between atoms: O_2  and  C_13 
REMARK    4  A    between atoms: C_4  and  C_5 
REMARK    5  A    between atoms: C_4  and  C_6 
REMARK    6  A    between atoms: C_5  and  C_7 
ROOT
HETATM    1  O   UNL     1     -55.074  46.013   8.592  1.00  0.00    -0.385 OA
HETATM    2  H   UNL     1     -55.295  46.236   9.509  1.00  0.00     0.210 HD
ENDROOT
BRANCH   1   3
HETATM    3  C   UNL     1     -53.807  46.567   8.261  1.00  0.00     0.221 C 
BRANCH   3   4
HETATM    4  C   UNL     1     -52.982  46.707   9.543  1.00  0.00     0.080 C 
BRANCH   4   5
HETATM    5  C   UNL     1     -53.183  48.049  10.204  1.00  0.00    -0.055 A 
HETATM    6  C   UNL     1     -53.022  48.160  11.576  1.00  0.00     0.007 A 
HETATM    7  C   UNL     1     -53.208  49.400  12.188  1.00  0.00     0.001 A 
HETATM    8  C   UNL     1     -53.552  50.512  11.418  1.00  0.00     0.000 A 
HETATM    9  C   UNL     1     -53.710  50.384  10.039  1.00  0.00     0.001 A 
HETATM   10  C   UNL     1     -53.524  49.144   9.427  1.00  0.00     0.007 A 
ENDBRANCH   4   5
ENDBRANCH   3   4
BRANCH   3  11
HETATM   11  C   UNL     1     -53.132  45.623   7.286  1.00  0.00     0.288 C 
HETATM   12  O   UNL     1     -53.475  45.464   6.121  1.00  0.00    -0.262 OA
BRANCH  11  13
HETATM   13  O   UNL     1     -52.079  45.006   7.899  1.00  0.00    -0.320 OA
BRANCH  13  14
HETATM   14  C   UNL     1     -52.006  43.588   7.721  1.00  0.00     0.174 C 
HETATM   15  C   UNL     1     -53.015  42.924   8.635  1.00  0.00     0.034 C 
ENDBRANCH  13  14
ENDBRANCH  11  13
ENDBRANCH   3  11
ENDBRANCH   1   3
TORSDOF 6
ENDMDL
MODEL 8
REMARK VINA RESULT:      -5.5      4.506      6.613
REMARK  6 active torsions:
REMARK  status: ('A' for Active; 'I' for Inactive)
REMARK    1  A    between atoms: O_1  and  C_5 
REMARK    2  A    between atoms: O_2  and  C_7 
REMARK    3  A    between atoms: O_2  and  C_13 
REMARK    4  A    between atoms: C_4  and  C_5 
REMARK    5  A    between atoms: C_4  and  C_6 
REMARK    6  A    between atoms: C_5  and  C_7 
ROOT
HETATM    1  O   UNL     1     -52.471  46.362  13.936  1.00  0.00    -0.385 OA
HETATM    2  H   UNL     1     -51.692  45.826  14.150  1.00  0.00     0.210 HD
ENDROOT
BRANCH   1   3
HETATM    3  C   UNL     1     -52.066  47.697  13.662  1.00  0.00     0.221 C 
BRANCH   3   4
HETATM    4  C   UNL     1     -53.303  48.523  13.303  1.00  0.00     0.080 C 
BRANCH   4   5
HETATM    5  C   UNL     1     -53.347  48.870  11.834  1.00  0.00    -0.055 A 
HETATM    6  C   UNL     1     -53.605  50.178  11.453  1.00  0.00     0.007 A 
HETATM    7  C   UNL     1     -53.646  50.498  10.096  1.00  0.00     0.001 A 
HETATM    8  C   UNL     1     -53.429  49.507   9.138  1.00  0.00     0.000 A 
HETATM    9  C   UNL     1     -53.171  48.196   9.537  1.00  0.00     0.001 A 
HETATM   10  C   UNL     1     -53.130  47.875  10.894  1.00  0.00     0.007 A 
ENDBRANCH   4   5
ENDBRANCH   3   4
BRANCH   3  11
HETATM   11  C   UNL     1     -51.399  48.241  14.910  1.00  0.00     0.288 C 
HETATM   12  O   UNL     1     -51.813  49.189  15.564  1.00  0.00    -0.262 OA
BRANCH  11  13
HETATM   13  O   UNL     1     -50.291  47.497  15.198  1.00  0.00    -0.320 OA
BRANCH  13  14
HETATM   14  C   UNL     1     -49.456  48.011  16.242  1.00  0.00     0.174 C 
HETATM   15  C   UNL     1     -49.530  47.080  17.434  1.00  0.00     0.034 C 
ENDBRANCH  13  14
ENDBRANCH  11  13
ENDBRANCH   3  11
ENDBRANCH   1   3
TORSDOF 6
ENDMDL
MODEL 9
REMARK VINA RESULT:      -5.5      1.008      1.723
REMARK  6 active torsions:
REMARK  status: ('A' for Active; 'I' for Inactive)
REMARK    1  A    between atoms: O_1  and  C_5 
REMARK    2  A    between atoms: O_2  and  C_7 
REMARK    3  A    between atoms: O_2  and  C_13 
REMARK    4  A    between atoms: C_4  and  C_5 
REMARK    5  A    between atoms: C_4  and  C_6 
REMARK    6  A    between atoms: C_5  and  C_7 
ROOT
HETATM    1  O   UNL     1     -51.103  46.863   7.784  1.00  0.00    -0.385 OA
HETATM    2  H   UNL     1     -50.530  46.237   8.253  1.00  0.00     0.210 HD
ENDROOT
BRANCH   1   3
HETATM    3  C   UNL     1     -52.451  46.669   8.191  1.00  0.00     0.221 C 
BRANCH   3   4
HETATM    4  C   UNL     1     -53.122  48.036   8.345  1.00  0.00     0.080 C 
BRANCH   4   5
HETATM    5  C   UNL     1     -53.176  48.483   9.785  1.00  0.00    -0.055 A 
HETATM    6  C   UNL     1     -53.497  49.800  10.075  1.00  0.00     0.007 A 
HETATM    7  C   UNL     1     -53.547  50.214  11.407  1.00  0.00     0.001 A 
HETATM    8  C   UNL     1     -53.276  49.305  12.430  1.00  0.00     0.000 A 
HETATM    9  C   UNL     1     -52.956  47.984  12.123  1.00  0.00     0.001 A 
HETATM   10  C   UNL     1     -52.905  47.570  10.791  1.00  0.00     0.007 A 
ENDBRANCH   4   5
ENDBRANCH   3   4
BRANCH   3  11
HETATM   11  C   UNL     1     -53.142  45.846   7.121  1.00  0.00     0.288 C 
HETATM   12  O   UNL     1     -53.347  46.227   5.976  1.00  0.00    -0.262 OA
BRANCH  11  13
HETATM   13  O   UNL     1     -53.469  44.620   7.626  1.00  0.00    -0.320 OA
BRANCH  13  14
HETATM   14  C   UNL     1     -54.271  44.635   8.811  1.00  0.00     0.174 C 
HETATM   15  C   UNL     1     -53.803  43.531   9.736  1.00  0.00     0.034 C 
ENDBRANCH  13  14
ENDBRANCH  11  13
ENDBRANCH   3  11
ENDBRANCH   1   3
TORSDOF 6
ENDMDL
