MODEL 1
REMARK VINA RESULT:      -5.9      0.000      0.000
REMARK  6 active torsions:
REMARK  status: ('A' for Active; 'I' for Inactive)
REMARK    1  A    between atoms: O_1  and  C_5 
REMARK    2  A    between atoms: O_2  and  C_7 
REMARK    3  A    between atoms: O_2  and  C_13 
REMARK    4  A    between atoms: C_4  and  C_5 
REMARK    5  A    between atoms: C_4  and  C_6 
REMARK    6  A    between atoms: C_5  and  C_7 
ROOT
HETATM    1  O   UNL     1     -51.596  48.734   6.794  1.00  0.00    -0.385 OA
HETATM    2  H   UNL     1     -52.280  49.349   6.485  1.00  0.00     0.210 HD
ENDROOT
BRANCH   1   3
HETATM    3  C   UNL     1     -52.170  47.810   7.710  1.00  0.00     0.221 C 
BRANCH   3   4
HETATM    4  C   UNL     1     -53.460  48.411   8.273  1.00  0.00     0.080 C 
BRANCH   4   5
HETATM    5  C   UNL     1     -53.345  48.725   9.745  1.00  0.00    -0.055 A 
HETATM    6  C   UNL     1     -52.990  47.716  10.628  1.00  0.00     0.007 A 
HETATM    7  C   UNL     1     -52.883  48.005  11.988  1.00  0.00     0.001 A 
HETATM    8  C   UNL     1     -53.133  49.298  12.448  1.00  0.00     0.000 A 
HETATM    9  C   UNL     1     -53.489  50.302  11.548  1.00  0.00     0.001 A 
HETATM   10  C   UNL     1     -53.596  50.013  10.187  1.00  0.00     0.007 A 
ENDBRANCH   4   5
ENDBRANCH   3   4
BRANCH   3  11
HETATM   11  C   UNL     1     -52.457  46.529   6.952  1.00  0.00     0.288 C 
HETATM   12  O   UNL     1     -51.668  45.974   6.200  1.00  0.00    -0.262 OA
BRANCH  11  13
HETATM   13  O   UNL     1     -53.712  46.087   7.261  1.00  0.00    -0.320 OA
BRANCH  13  14
HETATM   14  C   UNL     1     -53.784  44.760   7.795  1.00  0.00     0.174 C 
HETATM   15  C   UNL     1     -54.858  44.718   8.863  1.00  0.00     0.034 C 
ENDBRANCH  13  14
ENDBRANCH  11  13
ENDBRANCH   3  11
ENDBRANCH   1   3
TORSDOF 6
ENDMDL
MODEL 2
REMARK VINA RESULT:      -5.8      1.639      2.674
REMARK  6 active torsions:
REMARK  status: ('A' for Active; 'I' for Inactive)
REMARK    1  A    between atoms: O_1  and  C_5 
REMARK    2  A    between atoms: O_2  and  C_7 
REMARK    3  A    between atoms: O_2  and  C_13 
REMARK    4  A    between atoms: C_4  and  C_5 
REMARK    5  A    between atoms: C_4  and  C_6 
REMARK    6  A    between atoms: C_5  and  C_7 
ROOT
HETATM    1  O   UNL     1     -53.364  50.072   8.002  1.00  0.00    -0.385 OA
HETATM    2  H   UNL     1     -53.773  49.807   7.163  1.00  0.00     0.210 HD
ENDROOT
BRANCH   1   3
HETATM    3  C   UNL     1     -53.184  48.927   8.824  1.00  0.00     0.221 C 
BRANCH   3   4
HETATM    4  C   UNL     1     -54.118  49.035  10.032  1.00  0.00     0.080 C 
BRANCH   4   5
HETATM    5  C   UNL     1     -53.460  48.556  11.303  1.00  0.00    -0.055 A 
HETATM    6  C   UNL     1     -53.469  49.375  12.422  1.00  0.00     0.007 A 
HETATM    7  C   UNL     1     -52.861  48.933  13.597  1.00  0.00     0.001 A 
HETATM    8  C   UNL     1     -52.252  47.678  13.637  1.00  0.00     0.000 A 
HETATM    9  C   UNL     1     -52.251  46.866  12.504  1.00  0.00     0.001 A 
HETATM   10  C   UNL     1     -52.859  47.308  11.329  1.00  0.00     0.007 A 
ENDBRANCH   4   5
ENDBRANCH   3   4
BRANCH   3  11
HETATM   11  C   UNL     1     -53.519  47.705   7.991  1.00  0.00     0.288 C 
HETATM   12  O   UNL     1     -54.585  47.104   8.035  1.00  0.00    -0.262 OA
BRANCH  11  13
HETATM   13  O   UNL     1     -52.465  47.403   7.177  1.00  0.00    -0.320 OA
BRANCH  13  14
HETATM   14  C   UNL     1     -51.232  47.115   7.845  1.00  0.00     0.174 C 
HETATM   15  C   UNL     1     -51.303  45.719   8.429  1.00  0.00     0.034 C 
ENDBRANCH  13  14
ENDBRANCH  11  13
ENDBRANCH   3  11
ENDBRANCH   1   3
TORSDOF 6
ENDMDL
MODEL 3
REMARK VINA RESULT:      -5.8      1.262      2.659
REMARK  6 active torsions:
REMARK  status: ('A' for Active; 'I' for Inactive)
REMARK    1  A    between atoms: O_1  and  C_5 
REMARK    2  A    between atoms: O_2  and  C_7 
REMARK    3  A    between atoms: O_2  and  C_13 
REMARK    4  A    between atoms: C_4  and  C_5 
REMARK    5  A    between atoms: C_4  and  C_6 
REMARK    6  A    between atoms: C_5  and  C_7 
ROOT
HETATM    1  O   UNL     1     -55.304  45.577   8.867  1.00  0.00    -0.385 OA
HETATM    2  H   UNL     1     -54.996  44.674   9.043  1.00  0.00     0.210 HD
ENDROOT
BRANCH   1   3
HETATM    3  C   UNL     1     -54.189  46.408   8.571  1.00  0.00     0.221 C 
BRANCH   3   4
HETATM    4  C   UNL     1     -53.358  46.589   9.844  1.00  0.00     0.080 C 
BRANCH   4   5
HETATM    5  C   UNL     1     -53.408  48.008  10.357  1.00  0.00    -0.055 A 
HETATM    6  C   UNL     1     -53.170  48.253  11.700  1.00  0.00     0.007 A 
HETATM    7  C   UNL     1     -53.216  49.564  12.175  1.00  0.00     0.001 A 
HETATM    8  C   UNL     1     -53.500  50.612  11.299  1.00  0.00     0.000 A 
HETATM    9  C   UNL     1     -53.737  50.350   9.951  1.00  0.00     0.001 A 
HETATM   10  C   UNL     1     -53.691  49.039   9.476  1.00  0.00     0.007 A 
ENDBRANCH   4   5
ENDBRANCH   3   4
BRANCH   3  11
HETATM   11  C   UNL     1     -53.377  45.721   7.490  1.00  0.00     0.288 C 
HETATM   12  O   UNL     1     -52.931  44.584   7.571  1.00  0.00    -0.262 OA
BRANCH  11  13
HETATM   13  O   UNL     1     -53.246  46.555   6.417  1.00  0.00    -0.320 OA
BRANCH  13  14
HETATM   14  C   UNL     1     -51.904  46.797   5.982  1.00  0.00     0.174 C 
HETATM   15  C   UNL     1     -51.300  47.893   6.836  1.00  0.00     0.034 C 
ENDBRANCH  13  14
ENDBRANCH  11  13
ENDBRANCH   3  11
ENDBRANCH   1   3
TORSDOF 6
ENDMDL
MODEL 4
REMARK VINA RESULT:      -5.8      1.425      1.769
REMARK  6 active torsions:
REMARK  status: ('A' for Active; 'I' for Inactive)
REMARK    1  A    between atoms: O_1  and  C_5 
REMARK    2  A    between atoms: O_2  and  C_7 
REMARK    3  A    between atoms: O_2  and  C_13 
REMARK    4  A    between atoms: C_4  and  C_5 
REMARK    5  A    between atoms: C_4  and  C_6 
REMARK    6  A    between atoms: C_5  and  C_7 
ROOT
HETATM    1  O   UNL     1     -53.779  47.322   6.960  1.00  0.00    -0.385 OA
HETATM    2  H   UNL     1     -54.310  46.754   6.380  1.00  0.00     0.210 HD
ENDROOT
BRANCH   1   3
HETATM    3  C   UNL     1     -53.554  46.658   8.197  1.00  0.00     0.221 C 
BRANCH   3   4
HETATM    4  C   UNL     1     -54.620  47.107   9.198  1.00  0.00     0.080 C 
BRANCH   4   5
HETATM    5  C   UNL     1     -54.117  48.199  10.111  1.00  0.00    -0.055 A 
HETATM    6  C   UNL     1     -53.561  47.858  11.335  1.00  0.00     0.007 A 
HETATM    7  C   UNL     1     -53.096  48.866  12.179  1.00  0.00     0.001 A 
HETATM    8  C   UNL     1     -53.194  50.202  11.789  1.00  0.00     0.000 A 
HETATM    9  C   UNL     1     -53.755  50.530  10.555  1.00  0.00     0.001 A 
HETATM   10  C   UNL     1     -54.220  49.521   9.711  1.00  0.00     0.007 A 
ENDBRANCH   4   5
ENDBRANCH   3   4
BRANCH   3  11
HETATM   11  C   UNL     1     -53.647  45.166   7.942  1.00  0.00     0.288 C 
HETATM   12  O   UNL     1     -52.732  44.475   7.514  1.00  0.00    -0.262 OA
BRANCH  11  13
HETATM   13  O   UNL     1     -54.890  44.720   8.288  1.00  0.00    -0.320 OA
BRANCH  13  14
HETATM   14  C   UNL     1     -54.955  43.363   8.742  1.00  0.00     0.174 C 
HETATM   15  C   UNL     1     -56.375  42.860   8.587  1.00  0.00     0.034 C 
ENDBRANCH  13  14
ENDBRANCH  11  13
ENDBRANCH   3  11
ENDBRANCH   1   3
TORSDOF 6
ENDMDL
MODEL 5
REMARK VINA RESULT:      -5.7      0.808      1.547
REMARK  6 active torsions:
REMARK  status: ('A' for Active; 'I' for Inactive)
REMARK    1  A    between atoms: O_1  and  C_5 
REMARK    2  A    between atoms: O_2  and  C_7 
REMARK    3  A    between atoms: O_2  and  C_13 
REMARK    4  A    between atoms: C_4  and  C_5 
REMARK    5  A    between atoms: C_4  and  C_6 
REMARK    6  A    between atoms: C_5  and  C_7 
ROOT
HETATM    1  O   UNL     1     -51.942  48.179   6.991  1.00  0.00    -0.385 OA
HETATM    2  H   UNL     1     -52.311  49.049   6.773  1.00  0.00     0.210 HD
ENDROOT
BRANCH   1   3
HETATM    3  C   UNL     1     -52.741  47.563   7.993  1.00  0.00     0.221 C 
BRANCH   3   4
HETATM    4  C   UNL     1     -53.662  48.620   8.607  1.00  0.00     0.080 C 
BRANCH   4   5
HETATM    5  C   UNL     1     -53.434  48.779  10.090  1.00  0.00    -0.055 A 
HETATM    6  C   UNL     1     -53.642  50.016  10.681  1.00  0.00     0.007 A 
HETATM    7  C   UNL     1     -53.430  50.163  12.052  1.00  0.00     0.001 A 
HETATM    8  C   UNL     1     -53.014  49.072  12.814  1.00  0.00     0.000 A 
HETATM    9  C   UNL     1     -52.809  47.834  12.206  1.00  0.00     0.001 A 
HETATM   10  C   UNL     1     -53.020  47.686  10.835  1.00  0.00     0.007 A 
ENDBRANCH   4   5
ENDBRANCH   3   4
BRANCH   3  11
HETATM   11  C   UNL     1     -53.548  46.466   7.327  1.00  0.00     0.288 C 
HETATM   12  O   UNL     1     -53.290  45.977   6.236  1.00  0.00    -0.262 OA
BRANCH  11  13
HETATM   13  O   UNL     1     -54.580  46.098   8.143  1.00  0.00    -0.320 OA
BRANCH  13  14
HETATM   14  C   UNL     1     -54.379  44.890   8.885  1.00  0.00     0.174 C 
HETATM   15  C   UNL     1     -55.496  43.920   8.558  1.00  0.00     0.034 C 
ENDBRANCH  13  14
ENDBRANCH  11  13
ENDBRANCH   3  11
ENDBRANCH   1   3
TORSDOF 6
ENDMDL
MODEL 6
REMARK VINA RESULT:      -5.7      1.331      2.783
REMARK  6 active torsions:
REMARK  status: ('A' for Active; 'I' for Inactive)
REMARK    1  A    between atoms: O_1  and  C_5 
REMARK    2  A    between atoms: O_2  and  C_7 
REMARK    3  A    between atoms: O_2  and  C_13 
REMARK    4  A    between atoms: C_4  and  C_5 
REMARK    5  A    between atoms: C_4  and  C_6 
REMARK    6  A    between atoms: C_5  and  C_7 
ROOT
HETATM    1  O   UNL     1     -55.364  45.806   8.892  1.00  0.00    -0.385 OA
HETATM    2  H   UNL     1     -56.129  46.278   8.528  1.00  0.00     0.210 HD
ENDROOT
BRANCH   1   3
HETATM    3  C   UNL     1     -54.173  46.507   8.561  1.00  0.00     0.221 C 
BRANCH   3   4
HETATM    4  C   UNL     1     -53.330  46.674   9.827  1.00  0.00     0.080 C 
BRANCH   4   5
HETATM    5  C   UNL     1     -53.391  48.081  10.368  1.00  0.00    -0.055 A 
HETATM    6  C   UNL     1     -53.711  49.124   9.512  1.00  0.00     0.007 A 
HETATM    7  C   UNL     1     -53.767  50.426  10.011  1.00  0.00     0.001 A 
HETATM    8  C   UNL     1     -53.502  50.667  11.360  1.00  0.00     0.000 A 
HETATM    9  C   UNL     1     -53.182  49.608  12.209  1.00  0.00     0.001 A 
HETATM   10  C   UNL     1     -53.126  48.307  11.709  1.00  0.00     0.007 A 
ENDBRANCH   4   5
ENDBRANCH   3   4
BRANCH   3  11
HETATM   11  C   UNL     1     -53.430  45.688   7.523  1.00  0.00     0.288 C 
HETATM   12  O   UNL     1     -52.974  44.568   7.717  1.00  0.00    -0.262 OA
BRANCH  11  13
HETATM   13  O   UNL     1     -53.376  46.379   6.347  1.00  0.00    -0.320 OA
BRANCH  13  14
HETATM   14  C   UNL     1     -52.065  46.574   5.805  1.00  0.00     0.174 C 
HETATM   15  C   UNL     1     -51.316  47.562   6.674  1.00  0.00     0.034 C 
ENDBRANCH  13  14
ENDBRANCH  11  13
ENDBRANCH   3  11
ENDBRANCH   1   3
TORSDOF 6
ENDMDL
MODEL 7
REMARK VINA RESULT:      -5.7      1.088      2.304
REMARK  6 active torsions:
REMARK  status: ('A' for Active; 'I' for Inactive)
REMARK    1  A    between atoms: O_1  and  C_5 
REMARK    2  A    between atoms: O_2  and  C_7 
REMARK    3  A    between atoms: O_2  and  C_13 
REMARK    4  A    between atoms: C_4  and  C_5 
REMARK    5  A    between atoms: C_4  and  C_6 
REMARK    6  A    between atoms: C_5  and  C_7 
ROOT
HETATM    1  O   UNL     1     -51.709  48.638   6.738  1.00  0.00    -0.385 OA
HETATM    2  H   UNL     1     -52.398  48.898   6.108  1.00  0.00     0.210 HD
ENDROOT
BRANCH   1   3
HETATM    3  C   UNL     1     -52.269  47.785   7.728  1.00  0.00     0.221 C 
BRANCH   3   4
HETATM    4  C   UNL     1     -53.522  48.452   8.301  1.00  0.00     0.080 C 
BRANCH   4   5
HETATM    5  C   UNL     1     -53.392  48.728   9.780  1.00  0.00    -0.055 A 
HETATM    6  C   UNL     1     -53.613  50.013  10.252  1.00  0.00     0.007 A 
HETATM    7  C   UNL     1     -53.493  50.268  11.618  1.00  0.00     0.001 A 
HETATM    8  C   UNL     1     -53.154  49.236  12.493  1.00  0.00     0.000 A 
HETATM    9  C   UNL     1     -52.935  47.949  12.003  1.00  0.00     0.001 A 
HETATM   10  C   UNL     1     -53.055  47.694  10.637  1.00  0.00     0.007 A 
ENDBRANCH   4   5
ENDBRANCH   3   4
BRANCH   3  11
HETATM   11  C   UNL     1     -52.617  46.470   7.059  1.00  0.00     0.288 C 
HETATM   12  O   UNL     1     -53.732  45.966   7.054  1.00  0.00    -0.262 OA
BRANCH  11  13
HETATM   13  O   UNL     1     -51.507  45.958   6.450  1.00  0.00    -0.320 OA
BRANCH  13  14
HETATM   14  C   UNL     1     -51.691  45.520   5.100  1.00  0.00     0.174 C 
HETATM   15  C   UNL     1     -51.292  44.063   4.996  1.00  0.00     0.034 C 
ENDBRANCH  13  14
ENDBRANCH  11  13
ENDBRANCH   3  11
ENDBRANCH   1   3
TORSDOF 6
ENDMDL
MODEL 8
REMARK VINA RESULT:      -5.7      4.440      6.529
REMARK  6 active torsions:
REMARK  status: ('A' for Active; 'I' for Inactive)
REMARK    1  A    between atoms: O_1  and  C_5 
REMARK    2  A    between atoms: O_2  and  C_7 
REMARK    3  A    between atoms: O_2  and  C_13 
REMARK    4  A    between atoms: C_4  and  C_5 
REMARK    5  A    between atoms: C_4  and  C_6 
REMARK    6  A    between atoms: C_5  and  C_7 
ROOT
HETATM    1  O   UNL     1     -52.383  46.398  13.816  1.00  0.00    -0.385 OA
HETATM    2  H   UNL     1     -51.594  45.870  13.621  1.00  0.00     0.210 HD
ENDROOT
BRANCH   1   3
HETATM    3  C   UNL     1     -52.082  47.778  13.653  1.00  0.00     0.221 C 
BRANCH   3   4
HETATM    4  C   UNL     1     -53.374  48.528  13.321  1.00  0.00     0.080 C 
BRANCH   4   5
HETATM    5  C   UNL     1     -53.434  48.940  11.870  1.00  0.00    -0.055 A 
HETATM    6  C   UNL     1     -53.530  50.285  11.550  1.00  0.00     0.007 A 
HETATM    7  C   UNL     1     -53.586  50.666  10.209  1.00  0.00     0.001 A 
HETATM    8  C   UNL     1     -53.546  49.696   9.207  1.00  0.00     0.000 A 
HETATM    9  C   UNL     1     -53.449  48.347   9.544  1.00  0.00     0.001 A 
HETATM   10  C   UNL     1     -53.393  47.966  10.885  1.00  0.00     0.007 A 
ENDBRANCH   4   5
ENDBRANCH   3   4
BRANCH   3  11
HETATM   11  C   UNL     1     -51.488  48.277  14.956  1.00  0.00     0.288 C 
HETATM   12  O   UNL     1     -51.851  49.287  15.544  1.00  0.00    -0.262 OA
BRANCH  11  13
HETATM   13  O   UNL     1     -50.514  47.416  15.375  1.00  0.00    -0.320 OA
BRANCH  13  14
HETATM   14  C   UNL     1     -49.361  48.027  15.963  1.00  0.00     0.174 C 
HETATM   15  C   UNL     1     -48.155  47.743  15.092  1.00  0.00     0.034 C 
ENDBRANCH  13  14
ENDBRANCH  11  13
ENDBRANCH   3  11
ENDBRANCH   1   3
TORSDOF 6
ENDMDL
MODEL 9
REMARK VINA RESULT:      -5.6      1.283      2.379
REMARK  6 active torsions:
REMARK  status: ('A' for Active; 'I' for Inactive)
REMARK    1  A    between atoms: O_1  and  C_5 
REMARK    2  A    between atoms: O_2  and  C_7 
REMARK    3  A    between atoms: O_2  and  C_13 
REMARK    4  A    between atoms: C_4  and  C_5 
REMARK    5  A    between atoms: C_4  and  C_6 
REMARK    6  A    between atoms: C_5  and  C_7 
ROOT
HETATM    1  O   UNL     1     -54.860  45.676   8.241  1.00  0.00    -0.385 OA
HETATM    2  H   UNL     1     -55.753  45.931   8.520  1.00  0.00     0.210 HD
ENDROOT
BRANCH   1   3
HETATM    3  C   UNL     1     -54.013  46.818   8.261  1.00  0.00     0.221 C 
BRANCH   3   4
HETATM    4  C   UNL     1     -53.271  46.857   9.599  1.00  0.00     0.080 C 
BRANCH   4   5
HETATM    5  C   UNL     1     -53.356  48.213  10.256  1.00  0.00    -0.055 A 
HETATM    6  C   UNL     1     -53.694  49.318   9.490  1.00  0.00     0.007 A 
HETATM    7  C   UNL     1     -53.773  50.572  10.097  1.00  0.00     0.001 A 
HETATM    8  C   UNL     1     -53.513  50.704  11.461  1.00  0.00     0.000 A 
HETATM    9  C   UNL     1     -53.174  49.583  12.219  1.00  0.00     0.001 A 
HETATM   10  C   UNL     1     -53.095  48.329  11.612  1.00  0.00     0.007 A 
ENDBRANCH   4   5
ENDBRANCH   3   4
BRANCH   3  11
HETATM   11  C   UNL     1     -53.038  46.689   7.107  1.00  0.00     0.288 C 
HETATM   12  O   UNL     1     -52.106  47.454   6.895  1.00  0.00    -0.262 OA
BRANCH  11  13
HETATM   13  O   UNL     1     -53.347  45.583   6.368  1.00  0.00    -0.320 OA
BRANCH  13  14
HETATM   14  C   UNL     1     -52.233  44.781   5.963  1.00  0.00     0.174 C 
HETATM   15  C   UNL     1     -51.816  43.898   7.121  1.00  0.00     0.034 C 
ENDBRANCH  13  14
ENDBRANCH  11  13
ENDBRANCH   3  11
ENDBRANCH   1   3
TORSDOF 6
ENDMDL
