MODEL 1
REMARK VINA RESULT:      -6.6      0.000      0.000
REMARK  6 active torsions:
REMARK  status: ('A' for Active; 'I' for Inactive)
REMARK    1  A    between atoms: O_1  and  C_8 
REMARK    2  A    between atoms: O_2  and  C_11 
REMARK    3  A    between atoms: O_3  and  C_13 
REMARK    4  A    between atoms: C_6  and  C_7 
REMARK    5  A    between atoms: C_6  and  C_8 
REMARK    6  A    between atoms: C_8  and  C_14 
ROOT
HETATM    1  O   UNL     1     -52.328  46.939  13.985  1.00  0.00    -0.385 OA
HETATM    2  H   UNL     1     -52.222  46.762  14.932  1.00  0.00     0.210 HD
ENDROOT
BRANCH   1   3
HETATM    3  C   UNL     1     -52.243  48.340  13.753  1.00  0.00     0.223 C 
BRANCH   3   4
HETATM    4  C   UNL     1     -53.591  48.825  13.194  1.00  0.00     0.081 C 
BRANCH   4   5
HETATM    5  C   UNL     1     -53.506  49.228  11.761  1.00  0.00    -0.052 A 
HETATM    6  C   UNL     1     -53.706  50.560  11.398  1.00  0.00     0.046 A 
HETATM    7  C   UNL     1     -53.628  50.937  10.057  1.00  0.00     0.099 A 
HETATM    8  C   UNL     1     -53.350  49.982   9.080  1.00  0.00     0.098 A 
HETATM    9  C   UNL     1     -53.152  48.649   9.443  1.00  0.00     0.040 A 
HETATM   10  C   UNL     1     -53.230  48.273  10.783  1.00  0.00     0.010 A 
BRANCH   7  11
HETATM   11  O   UNL     1     -53.823  52.240   9.715  1.00  0.00    -0.358 OA
HETATM   12  H   UNL     1     -54.692  52.569   9.599  1.00  0.00     0.217 HD
ENDBRANCH   7  11
BRANCH   8  13
HETATM   13  O   UNL     1     -53.270  50.338   7.767  1.00  0.00    -0.358 OA
HETATM   14  H   UNL     1     -53.749  51.080   7.453  1.00  0.00     0.217 HD
ENDBRANCH   8  13
ENDBRANCH   4   5
ENDBRANCH   3   4
BRANCH   3  15
HETATM   15  C   UNL     1     -51.924  49.004  15.077  1.00  0.00     0.203 C 
HETATM   16  O   UNL     1     -50.855  48.434  15.691  1.00  0.00    -0.646 OA
HETATM   17  O   UNL     1     -52.554  49.933  15.564  1.00  0.00    -0.646 OA
ENDBRANCH   3  15
ENDBRANCH   1   3
TORSDOF 6
ENDMDL
MODEL 2
REMARK VINA RESULT:      -6.3      0.750      2.007
REMARK  6 active torsions:
REMARK  status: ('A' for Active; 'I' for Inactive)
REMARK    1  A    between atoms: O_1  and  C_8 
REMARK    2  A    between atoms: O_2  and  C_11 
REMARK    3  A    between atoms: O_3  and  C_13 
REMARK    4  A    between atoms: C_6  and  C_7 
REMARK    5  A    between atoms: C_6  and  C_8 
REMARK    6  A    between atoms: C_8  and  C_14 
ROOT
HETATM    1  O   UNL     1     -52.323  46.659  13.969  1.00  0.00    -0.385 OA
HETATM    2  H   UNL     1     -52.510  46.192  13.141  1.00  0.00     0.210 HD
ENDROOT
BRANCH   1   3
HETATM    3  C   UNL     1     -52.203  48.053  13.711  1.00  0.00     0.223 C 
BRANCH   3   4
HETATM    4  C   UNL     1     -53.559  48.576  13.210  1.00  0.00     0.081 C 
BRANCH   4   5
HETATM    5  C   UNL     1     -53.502  49.070  11.805  1.00  0.00    -0.052 A 
HETATM    6  C   UNL     1     -53.360  48.165  10.753  1.00  0.00     0.046 A 
HETATM    7  C   UNL     1     -53.305  48.628   9.437  1.00  0.00     0.099 A 
HETATM    8  C   UNL     1     -53.393  49.994   9.175  1.00  0.00     0.098 A 
HETATM    9  C   UNL     1     -53.534  50.899  10.228  1.00  0.00     0.040 A 
HETATM   10  C   UNL     1     -53.589  50.437  11.542  1.00  0.00     0.010 A 
BRANCH   7  11
HETATM   11  O   UNL     1     -53.167  47.735   8.419  1.00  0.00    -0.358 OA
HETATM   12  H   UNL     1     -53.644  47.856   7.622  1.00  0.00     0.217 HD
ENDBRANCH   7  11
BRANCH   8  13
HETATM   13  O   UNL     1     -53.342  50.458   7.895  1.00  0.00    -0.358 OA
HETATM   14  H   UNL     1     -52.556  50.365   7.393  1.00  0.00     0.217 HD
ENDBRANCH   8  13
ENDBRANCH   4   5
ENDBRANCH   3   4
BRANCH   3  15
HETATM   15  C   UNL     1     -51.796  48.725  15.006  1.00  0.00     0.203 C 
HETATM   16  O   UNL     1     -52.520  49.847  15.250  1.00  0.00    -0.646 OA
HETATM   17  O   UNL     1     -50.909  48.328  15.751  1.00  0.00    -0.646 OA
ENDBRANCH   3  15
ENDBRANCH   1   3
TORSDOF 6
ENDMDL
MODEL 3
REMARK VINA RESULT:      -6.0      2.930      5.274
REMARK  6 active torsions:
REMARK  status: ('A' for Active; 'I' for Inactive)
REMARK    1  A    between atoms: O_1  and  C_8 
REMARK    2  A    between atoms: O_2  and  C_11 
REMARK    3  A    between atoms: O_3  and  C_13 
REMARK    4  A    between atoms: C_6  and  C_7 
REMARK    5  A    between atoms: C_6  and  C_8 
REMARK    6  A    between atoms: C_8  and  C_14 
ROOT
HETATM    1  O   UNL     1     -55.567  46.296   8.956  1.00  0.00    -0.385 OA
HETATM    2  H   UNL     1     -56.157  46.424   8.197  1.00  0.00     0.210 HD
ENDROOT
BRANCH   1   3
HETATM    3  C   UNL     1     -54.217  46.471   8.542  1.00  0.00     0.223 C 
BRANCH   3   4
HETATM    4  C   UNL     1     -53.349  46.697   9.791  1.00  0.00     0.081 C 
BRANCH   4   5
HETATM    5  C   UNL     1     -53.394  48.105  10.276  1.00  0.00    -0.052 A 
HETATM    6  C   UNL     1     -53.520  49.153   9.364  1.00  0.00     0.046 A 
HETATM    7  C   UNL     1     -53.562  50.472   9.819  1.00  0.00     0.099 A 
HETATM    8  C   UNL     1     -53.477  50.742  11.184  1.00  0.00     0.098 A 
HETATM    9  C   UNL     1     -53.349  49.694  12.096  1.00  0.00     0.040 A 
HETATM   10  C   UNL     1     -53.308  48.376  11.642  1.00  0.00     0.010 A 
BRANCH   7  11
HETATM   11  O   UNL     1     -53.687  51.486   8.919  1.00  0.00    -0.358 OA
HETATM   12  H   UNL     1     -54.460  51.555   8.395  1.00  0.00     0.217 HD
ENDBRANCH   7  11
BRANCH   8  13
HETATM   13  O   UNL     1     -53.517  52.025  11.639  1.00  0.00    -0.358 OA
HETATM   14  H   UNL     1     -53.055  52.261  12.420  1.00  0.00     0.217 HD
ENDBRANCH   8  13
ENDBRANCH   4   5
ENDBRANCH   3   4
BRANCH   3  15
HETATM   15  C   UNL     1     -53.801  45.219   7.798  1.00  0.00     0.203 C 
HETATM   16  O   UNL     1     -53.502  45.471   6.498  1.00  0.00    -0.646 OA
HETATM   17  O   UNL     1     -53.750  44.099   8.289  1.00  0.00    -0.646 OA
ENDBRANCH   3  15
ENDBRANCH   1   3
TORSDOF 6
ENDMDL
MODEL 4
REMARK VINA RESULT:      -6.0      2.400      5.798
REMARK  6 active torsions:
REMARK  status: ('A' for Active; 'I' for Inactive)
REMARK    1  A    between atoms: O_1  and  C_8 
REMARK    2  A    between atoms: O_2  and  C_11 
REMARK    3  A    between atoms: O_3  and  C_13 
REMARK    4  A    between atoms: C_6  and  C_7 
REMARK    5  A    between atoms: C_6  and  C_8 
REMARK    6  A    between atoms: C_8  and  C_14 
ROOT
HETATM    1  O   UNL     1     -51.798  48.746   7.048  1.00  0.00    -0.385 OA
HETATM    2  H   UNL     1     -52.254  49.548   7.346  1.00  0.00     0.210 HD
ENDROOT
BRANCH   1   3
HETATM    3  C   UNL     1     -52.426  47.605   7.619  1.00  0.00     0.223 C 
BRANCH   3   4
HETATM    4  C   UNL     1     -53.716  48.058   8.322  1.00  0.00     0.081 C 
BRANCH   4   5
HETATM    5  C   UNL     1     -53.484  48.483   9.731  1.00  0.00    -0.052 A 
HETATM    6  C   UNL     1     -53.620  49.825  10.087  1.00  0.00     0.046 A 
HETATM    7  C   UNL     1     -53.402  50.224  11.406  1.00  0.00     0.099 A 
HETATM    8  C   UNL     1     -53.047  49.280  12.369  1.00  0.00     0.098 A 
HETATM    9  C   UNL     1     -52.909  47.938  12.014  1.00  0.00     0.040 A 
HETATM   10  C   UNL     1     -53.128  47.540  10.696  1.00  0.00     0.010 A 
BRANCH   7  11
HETATM   11  O   UNL     1     -53.539  51.537  11.740  1.00  0.00    -0.358 OA
HETATM   12  H   UNL     1     -54.390  51.926  11.770  1.00  0.00     0.217 HD
ENDBRANCH   7  11
BRANCH   8  13
HETATM   13  O   UNL     1     -52.832  49.657  13.661  1.00  0.00    -0.358 OA
HETATM   14  H   UNL     1     -51.959  49.694  13.999  1.00  0.00     0.217 HD
ENDBRANCH   8  13
ENDBRANCH   4   5
ENDBRANCH   3   4
BRANCH   3  15
HETATM   15  C   UNL     1     -52.722  46.635   6.493  1.00  0.00     0.203 C 
HETATM   16  O   UNL     1     -53.670  45.725   6.836  1.00  0.00    -0.646 OA
HETATM   17  O   UNL     1     -52.169  46.642   5.401  1.00  0.00    -0.646 OA
ENDBRANCH   3  15
ENDBRANCH   1   3
TORSDOF 6
ENDMDL
MODEL 5
REMARK VINA RESULT:      -5.9      2.854      5.089
REMARK  6 active torsions:
REMARK  status: ('A' for Active; 'I' for Inactive)
REMARK    1  A    between atoms: O_1  and  C_8 
REMARK    2  A    between atoms: O_2  and  C_11 
REMARK    3  A    between atoms: O_3  and  C_13 
REMARK    4  A    between atoms: C_6  and  C_7 
REMARK    5  A    between atoms: C_6  and  C_8 
REMARK    6  A    between atoms: C_8  and  C_14 
ROOT
HETATM    1  O   UNL     1     -54.076  45.871   7.437  1.00  0.00    -0.385 OA
HETATM    2  H   UNL     1     -53.831  45.706   6.514  1.00  0.00     0.210 HD
ENDROOT
BRANCH   1   3
HETATM    3  C   UNL     1     -53.185  46.827   8.000  1.00  0.00     0.223 C 
BRANCH   3   4
HETATM    4  C   UNL     1     -53.364  46.822   9.527  1.00  0.00     0.081 C 
BRANCH   4   5
HETATM    5  C   UNL     1     -53.402  48.195  10.106  1.00  0.00    -0.052 A 
HETATM    6  C   UNL     1     -53.548  49.301   9.268  1.00  0.00     0.046 A 
HETATM    7  C   UNL     1     -53.582  50.587   9.810  1.00  0.00     0.099 A 
HETATM    8  C   UNL     1     -53.471  50.765  11.189  1.00  0.00     0.098 A 
HETATM    9  C   UNL     1     -53.324  49.659  12.026  1.00  0.00     0.040 A 
HETATM   10  C   UNL     1     -53.289  48.374  11.485  1.00  0.00     0.010 A 
BRANCH   7  11
HETATM   11  O   UNL     1     -53.726  51.658   8.983  1.00  0.00    -0.358 OA
HETATM   12  H   UNL     1     -54.229  52.398   9.258  1.00  0.00     0.217 HD
ENDBRANCH   7  11
BRANCH   8  13
HETATM   13  O   UNL     1     -53.505  52.015  11.730  1.00  0.00    -0.358 OA
HETATM   14  H   UNL     1     -54.059  52.673  11.356  1.00  0.00     0.217 HD
ENDBRANCH   8  13
ENDBRANCH   4   5
ENDBRANCH   3   4
BRANCH   3  15
HETATM   15  C   UNL     1     -51.777  46.426   7.607  1.00  0.00     0.203 C 
HETATM   16  O   UNL     1     -51.678  45.098   7.343  1.00  0.00    -0.646 OA
HETATM   17  O   UNL     1     -50.824  47.191   7.546  1.00  0.00    -0.646 OA
ENDBRANCH   3  15
ENDBRANCH   1   3
TORSDOF 6
ENDMDL
MODEL 6
REMARK VINA RESULT:      -5.8      3.565      5.935
REMARK  6 active torsions:
REMARK  status: ('A' for Active; 'I' for Inactive)
REMARK    1  A    between atoms: O_1  and  C_8 
REMARK    2  A    between atoms: O_2  and  C_11 
REMARK    3  A    between atoms: O_3  and  C_13 
REMARK    4  A    between atoms: C_6  and  C_7 
REMARK    5  A    between atoms: C_6  and  C_8 
REMARK    6  A    between atoms: C_8  and  C_14 
ROOT
HETATM    1  O   UNL     1     -52.896  50.445   7.692  1.00  0.00    -0.385 OA
HETATM    2  H   UNL     1     -52.390  49.929   7.046  1.00  0.00     0.210 HD
ENDROOT
BRANCH   1   3
HETATM    3  C   UNL     1     -53.518  49.564   8.620  1.00  0.00     0.223 C 
BRANCH   3   4
HETATM    4  C   UNL     1     -52.639  48.311   8.768  1.00  0.00     0.081 C 
BRANCH   4   5
HETATM    5  C   UNL     1     -52.265  47.712   7.456  1.00  0.00    -0.052 A 
HETATM    6  C   UNL     1     -53.090  46.756   6.864  1.00  0.00     0.046 A 
HETATM    7  C   UNL     1     -52.739  46.195   5.636  1.00  0.00     0.099 A 
HETATM    8  C   UNL     1     -51.563  46.591   5.000  1.00  0.00     0.098 A 
HETATM    9  C   UNL     1     -50.737  47.547   5.592  1.00  0.00     0.040 A 
HETATM   10  C   UNL     1     -51.088  48.107   6.819  1.00  0.00     0.010 A 
BRANCH   7  11
HETATM   11  O   UNL     1     -53.553  45.264   5.068  1.00  0.00    -0.358 OA
HETATM   12  H   UNL     1     -53.926  44.584   5.594  1.00  0.00     0.217 HD
ENDBRANCH   7  11
BRANCH   8  13
HETATM   13  O   UNL     1     -51.210  46.052   3.799  1.00  0.00    -0.358 OA
HETATM   14  H   UNL     1     -50.305  45.946   3.580  1.00  0.00     0.217 HD
ENDBRANCH   8  13
ENDBRANCH   4   5
ENDBRANCH   3   4
BRANCH   3  15
HETATM   15  C   UNL     1     -53.652  50.304   9.935  1.00  0.00     0.203 C 
HETATM   16  O   UNL     1     -54.076  51.582   9.762  1.00  0.00    -0.646 OA
HETATM   17  O   UNL     1     -53.395  49.830  11.033  1.00  0.00    -0.646 OA
ENDBRANCH   3  15
ENDBRANCH   1   3
TORSDOF 6
ENDMDL
MODEL 7
REMARK VINA RESULT:      -5.8      1.628      5.615
REMARK  6 active torsions:
REMARK  status: ('A' for Active; 'I' for Inactive)
REMARK    1  A    between atoms: O_1  and  C_8 
REMARK    2  A    between atoms: O_2  and  C_11 
REMARK    3  A    between atoms: O_3  and  C_13 
REMARK    4  A    between atoms: C_6  and  C_7 
REMARK    5  A    between atoms: C_6  and  C_8 
REMARK    6  A    between atoms: C_8  and  C_14 
ROOT
HETATM    1  O   UNL     1     -53.497  50.069   8.144  1.00  0.00    -0.385 OA
HETATM    2  H   UNL     1     -54.291  50.506   8.490  1.00  0.00     0.210 HD
ENDROOT
BRANCH   1   3
HETATM    3  C   UNL     1     -53.241  48.889   8.896  1.00  0.00     0.223 C 
BRANCH   3   4
HETATM    4  C   UNL     1     -54.140  48.901  10.144  1.00  0.00     0.081 C 
BRANCH   4   5
HETATM    5  C   UNL     1     -53.423  48.457  11.373  1.00  0.00    -0.052 A 
HETATM    6  C   UNL     1     -53.390  49.282  12.498  1.00  0.00     0.046 A 
HETATM    7  C   UNL     1     -52.718  48.867  13.648  1.00  0.00     0.099 A 
HETATM    8  C   UNL     1     -52.079  47.627  13.673  1.00  0.00     0.098 A 
HETATM    9  C   UNL     1     -52.112  46.803  12.548  1.00  0.00     0.040 A 
HETATM   10  C   UNL     1     -52.783  47.218  11.399  1.00  0.00     0.010 A 
BRANCH   7  11
HETATM   11  O   UNL     1     -52.693  49.680  14.739  1.00  0.00    -0.358 OA
HETATM   12  H   UNL     1     -52.310  49.380  15.539  1.00  0.00     0.217 HD
ENDBRANCH   7  11
BRANCH   8  13
HETATM   13  O   UNL     1     -51.421  47.211  14.791  1.00  0.00    -0.358 OA
HETATM   14  H   UNL     1     -50.996  46.375  14.801  1.00  0.00     0.217 HD
ENDBRANCH   8  13
ENDBRANCH   4   5
ENDBRANCH   3   4
BRANCH   3  15
HETATM   15  C   UNL     1     -53.549  47.703   8.005  1.00  0.00     0.203 C 
HETATM   16  O   UNL     1     -52.519  47.409   7.170  1.00  0.00    -0.646 OA
HETATM   17  O   UNL     1     -54.602  47.080   8.008  1.00  0.00    -0.646 OA
ENDBRANCH   3  15
ENDBRANCH   1   3
TORSDOF 6
ENDMDL
MODEL 8
REMARK VINA RESULT:      -5.8      3.254      5.152
REMARK  6 active torsions:
REMARK  status: ('A' for Active; 'I' for Inactive)
REMARK    1  A    between atoms: O_1  and  C_8 
REMARK    2  A    between atoms: O_2  and  C_11 
REMARK    3  A    between atoms: O_3  and  C_13 
REMARK    4  A    between atoms: C_6  and  C_7 
REMARK    5  A    between atoms: C_6  and  C_8 
REMARK    6  A    between atoms: C_8  and  C_14 
ROOT
HETATM    1  O   UNL     1     -53.153  50.702   8.256  1.00  0.00    -0.385 OA
HETATM    2  H   UNL     1     -53.383  50.009   7.618  1.00  0.00     0.210 HD
ENDROOT
BRANCH   1   3
HETATM    3  C   UNL     1     -53.887  50.502   9.458  1.00  0.00     0.223 C 
BRANCH   3   4
HETATM    4  C   UNL     1     -53.278  49.306  10.209  1.00  0.00     0.081 C 
BRANCH   4   5
HETATM    5  C   UNL     1     -53.631  47.998   9.589  1.00  0.00    -0.052 A 
HETATM    6  C   UNL     1     -54.949  47.541   9.625  1.00  0.00     0.046 A 
HETATM    7  C   UNL     1     -55.279  46.315   9.045  1.00  0.00     0.099 A 
HETATM    8  C   UNL     1     -54.291  45.548   8.429  1.00  0.00     0.098 A 
HETATM    9  C   UNL     1     -52.973  46.004   8.394  1.00  0.00     0.040 A 
HETATM   10  C   UNL     1     -52.643  47.228   8.973  1.00  0.00     0.010 A 
BRANCH   7  11
HETATM   11  O   UNL     1     -56.568  45.881   9.086  1.00  0.00    -0.358 OA
HETATM   12  H   UNL     1     -57.155  46.217   9.734  1.00  0.00     0.217 HD
ENDBRANCH   7  11
BRANCH   8  13
HETATM   13  O   UNL     1     -54.601  44.350   7.858  1.00  0.00    -0.358 OA
HETATM   14  H   UNL     1     -54.011  43.955   7.247  1.00  0.00     0.217 HD
ENDBRANCH   8  13
ENDBRANCH   4   5
ENDBRANCH   3   4
BRANCH   3  15
HETATM   15  C   UNL     1     -53.787  51.775  10.273  1.00  0.00     0.203 C 
HETATM   16  O   UNL     1     -54.202  52.863   9.575  1.00  0.00    -0.646 OA
HETATM   17  O   UNL     1     -53.367  51.840  11.421  1.00  0.00    -0.646 OA
ENDBRANCH   3  15
ENDBRANCH   1   3
TORSDOF 6
ENDMDL
MODEL 9
REMARK VINA RESULT:      -5.8      2.389      5.207
REMARK  6 active torsions:
REMARK  status: ('A' for Active; 'I' for Inactive)
REMARK    1  A    between atoms: O_1  and  C_8 
REMARK    2  A    between atoms: O_2  and  C_11 
REMARK    3  A    between atoms: O_3  and  C_13 
REMARK    4  A    between atoms: C_6  and  C_7 
REMARK    5  A    between atoms: C_6  and  C_8 
REMARK    6  A    between atoms: C_8  and  C_14 
ROOT
HETATM    1  O   UNL     1     -53.623  45.968   7.040  1.00  0.00    -0.385 OA
HETATM    2  H   UNL     1     -53.315  45.977   6.121  1.00  0.00     0.210 HD
ENDROOT
BRANCH   1   3
HETATM    3  C   UNL     1     -53.181  47.148   7.700  1.00  0.00     0.223 C 
BRANCH   3   4
HETATM    4  C   UNL     1     -53.555  47.044   9.188  1.00  0.00     0.081 C 
BRANCH   4   5
HETATM    5  C   UNL     1     -53.521  48.363   9.883  1.00  0.00    -0.052 A 
HETATM    6  C   UNL     1     -53.233  48.426  11.246  1.00  0.00     0.046 A 
HETATM    7  C   UNL     1     -53.201  49.661  11.896  1.00  0.00     0.099 A 
HETATM    8  C   UNL     1     -53.459  50.831  11.182  1.00  0.00     0.098 A 
HETATM    9  C   UNL     1     -53.748  50.767   9.819  1.00  0.00     0.040 A 
HETATM   10  C   UNL     1     -53.779  49.534   9.169  1.00  0.00     0.010 A 
BRANCH   7  11
HETATM   11  O   UNL     1     -52.918  49.709  13.227  1.00  0.00    -0.358 OA
HETATM   12  H   UNL     1     -52.137  50.131  13.524  1.00  0.00     0.217 HD
ENDBRANCH   7  11
BRANCH   8  13
HETATM   13  O   UNL     1     -53.430  52.042  11.806  1.00  0.00    -0.358 OA
HETATM   14  H   UNL     1     -52.809  52.202  12.489  1.00  0.00     0.217 HD
ENDBRANCH   8  13
ENDBRANCH   4   5
ENDBRANCH   3   4
BRANCH   3  15
HETATM   15  C   UNL     1     -51.681  47.243   7.513  1.00  0.00     0.203 C 
HETATM   16  O   UNL     1     -51.021  46.240   8.148  1.00  0.00    -0.646 OA
HETATM   17  O   UNL     1     -51.109  48.122   6.882  1.00  0.00    -0.646 OA
ENDBRANCH   3  15
ENDBRANCH   1   3
TORSDOF 6
ENDMDL
