MODEL 1
REMARK VINA RESULT:      -6.6      0.000      0.000
REMARK  6 active torsions:
REMARK  status: ('A' for Active; 'I' for Inactive)
REMARK    1  A    between atoms: O_1  and  C_8 
REMARK    2  A    between atoms: O_2  and  C_11 
REMARK    3  A    between atoms: O_3  and  C_13 
REMARK    4  A    between atoms: C_6  and  C_7 
REMARK    5  A    between atoms: C_6  and  C_8 
REMARK    6  A    between atoms: C_8  and  C_14 
ROOT
HETATM    1  O   UNL     1     -52.395  46.956  13.992  1.00  0.00    -0.385 OA
HETATM    2  H   UNL     1     -52.465  46.798  14.946  1.00  0.00     0.210 HD
ENDROOT
BRANCH   1   3
HETATM    3  C   UNL     1     -52.269  48.352  13.751  1.00  0.00     0.223 C 
BRANCH   3   4
HETATM    4  C   UNL     1     -53.605  48.875  13.197  1.00  0.00     0.081 C 
BRANCH   4   5
HETATM    5  C   UNL     1     -53.519  49.267  11.762  1.00  0.00    -0.052 A 
HETATM    6  C   UNL     1     -53.695  50.600  11.390  1.00  0.00     0.046 A 
HETATM    7  C   UNL     1     -53.615  50.966  10.046  1.00  0.00     0.099 A 
HETATM    8  C   UNL     1     -53.358  49.999   9.075  1.00  0.00     0.098 A 
HETATM    9  C   UNL     1     -53.183  48.666   9.446  1.00  0.00     0.040 A 
HETATM   10  C   UNL     1     -53.263  48.300  10.789  1.00  0.00     0.010 A 
BRANCH   7  11
HETATM   11  O   UNL     1     -53.788  52.270   9.697  1.00  0.00    -0.358 OA
HETATM   12  H   UNL     1     -54.595  52.549   9.313  1.00  0.00     0.217 HD
ENDBRANCH   7  11
BRANCH   8  13
HETATM   13  O   UNL     1     -53.276  50.345   7.759  1.00  0.00    -0.358 OA
HETATM   14  H   UNL     1     -54.013  50.218   7.195  1.00  0.00     0.217 HD
ENDBRANCH   8  13
ENDBRANCH   4   5
ENDBRANCH   3   4
BRANCH   3  15
HETATM   15  C   UNL     1     -51.920  49.014  15.069  1.00  0.00     0.203 C 
HETATM   16  O   UNL     1     -50.833  48.448  15.653  1.00  0.00    -0.646 OA
HETATM   17  O   UNL     1     -52.543  49.938  15.574  1.00  0.00    -0.646 OA
ENDBRANCH   3  15
ENDBRANCH   1   3
TORSDOF 6
ENDMDL
MODEL 2
REMARK VINA RESULT:      -6.4      0.745      2.010
REMARK  6 active torsions:
REMARK  status: ('A' for Active; 'I' for Inactive)
REMARK    1  A    between atoms: O_1  and  C_8 
REMARK    2  A    between atoms: O_2  and  C_11 
REMARK    3  A    between atoms: O_3  and  C_13 
REMARK    4  A    between atoms: C_6  and  C_7 
REMARK    5  A    between atoms: C_6  and  C_8 
REMARK    6  A    between atoms: C_8  and  C_14 
ROOT
HETATM    1  O   UNL     1     -52.325  46.717  13.861  1.00  0.00    -0.385 OA
HETATM    2  H   UNL     1     -51.515  46.274  13.563  1.00  0.00     0.210 HD
ENDROOT
BRANCH   1   3
HETATM    3  C   UNL     1     -52.196  48.121  13.667  1.00  0.00     0.223 C 
BRANCH   3   4
HETATM    4  C   UNL     1     -53.545  48.671  13.173  1.00  0.00     0.081 C 
BRANCH   4   5
HETATM    5  C   UNL     1     -53.491  49.137  11.759  1.00  0.00    -0.052 A 
HETATM    6  C   UNL     1     -53.340  48.214  10.724  1.00  0.00     0.046 A 
HETATM    7  C   UNL     1     -53.290  48.651   9.400  1.00  0.00     0.099 A 
HETATM    8  C   UNL     1     -53.390  50.011   9.111  1.00  0.00     0.098 A 
HETATM    9  C   UNL     1     -53.541  50.935  10.145  1.00  0.00     0.040 A 
HETATM   10  C   UNL     1     -53.591  50.498  11.469  1.00  0.00     0.010 A 
BRANCH   7  11
HETATM   11  O   UNL     1     -53.142  47.739   8.400  1.00  0.00    -0.358 OA
HETATM   12  H   UNL     1     -53.780  47.687   7.716  1.00  0.00     0.217 HD
ENDBRANCH   7  11
BRANCH   8  13
HETATM   13  O   UNL     1     -53.344  50.449   7.822  1.00  0.00    -0.358 OA
HETATM   14  H   UNL     1     -52.732  50.072   7.220  1.00  0.00     0.217 HD
ENDBRANCH   8  13
ENDBRANCH   4   5
ENDBRANCH   3   4
BRANCH   3  15
HETATM   15  C   UNL     1     -51.804  48.731  14.997  1.00  0.00     0.203 C 
HETATM   16  O   UNL     1     -52.517  49.853  15.275  1.00  0.00    -0.646 OA
HETATM   17  O   UNL     1     -50.937  48.291  15.740  1.00  0.00    -0.646 OA
ENDBRANCH   3  15
ENDBRANCH   1   3
TORSDOF 6
ENDMDL
MODEL 3
REMARK VINA RESULT:      -6.0      2.894      5.191
REMARK  6 active torsions:
REMARK  status: ('A' for Active; 'I' for Inactive)
REMARK    1  A    between atoms: O_1  and  C_8 
REMARK    2  A    between atoms: O_2  and  C_11 
REMARK    3  A    between atoms: O_3  and  C_13 
REMARK    4  A    between atoms: C_6  and  C_7 
REMARK    5  A    between atoms: C_6  and  C_8 
REMARK    6  A    between atoms: C_8  and  C_14 
ROOT
HETATM    1  O   UNL     1     -55.314  46.003   8.593  1.00  0.00    -0.385 OA
HETATM    2  H   UNL     1     -55.976  46.363   7.983  1.00  0.00     0.210 HD
ENDROOT
BRANCH   1   3
HETATM    3  C   UNL     1     -54.076  46.676   8.399  1.00  0.00     0.223 C 
BRANCH   3   4
HETATM    4  C   UNL     1     -53.387  46.836   9.764  1.00  0.00     0.081 C 
BRANCH   4   5
HETATM    5  C   UNL     1     -53.413  48.241  10.260  1.00  0.00    -0.052 A 
HETATM    6  C   UNL     1     -53.537  49.297   9.357  1.00  0.00     0.046 A 
HETATM    7  C   UNL     1     -53.561  50.613   9.822  1.00  0.00     0.099 A 
HETATM    8  C   UNL     1     -53.460  50.871  11.188  1.00  0.00     0.098 A 
HETATM    9  C   UNL     1     -53.335  49.815  12.091  1.00  0.00     0.040 A 
HETATM   10  C   UNL     1     -53.311  48.500  11.627  1.00  0.00     0.010 A 
BRANCH   7  11
HETATM   11  O   UNL     1     -53.684  51.635   8.931  1.00  0.00    -0.358 OA
HETATM   12  H   UNL     1     -53.726  52.520   9.236  1.00  0.00     0.217 HD
ENDBRANCH   7  11
BRANCH   8  13
HETATM   13  O   UNL     1     -53.483  52.152  11.654  1.00  0.00    -0.358 OA
HETATM   14  H   UNL     1     -52.860  52.776  11.339  1.00  0.00     0.217 HD
ENDBRANCH   8  13
ENDBRANCH   4   5
ENDBRANCH   3   4
BRANCH   3  15
HETATM   15  C   UNL     1     -53.242  45.834   7.454  1.00  0.00     0.203 C 
HETATM   16  O   UNL     1     -52.092  45.402   8.033  1.00  0.00    -0.646 OA
HETATM   17  O   UNL     1     -53.542  45.577   6.296  1.00  0.00    -0.646 OA
ENDBRANCH   3  15
ENDBRANCH   1   3
TORSDOF 6
ENDMDL
MODEL 4
REMARK VINA RESULT:      -6.0      2.856      4.915
REMARK  6 active torsions:
REMARK  status: ('A' for Active; 'I' for Inactive)
REMARK    1  A    between atoms: O_1  and  C_8 
REMARK    2  A    between atoms: O_2  and  C_11 
REMARK    3  A    between atoms: O_3  and  C_13 
REMARK    4  A    between atoms: C_6  and  C_7 
REMARK    5  A    between atoms: C_6  and  C_8 
REMARK    6  A    between atoms: C_8  and  C_14 
ROOT
HETATM    1  O   UNL     1     -52.783  45.102   9.616  1.00  0.00    -0.385 OA
HETATM    2  H   UNL     1     -52.863  44.606  10.445  1.00  0.00     0.210 HD
ENDROOT
BRANCH   1   3
HETATM    3  C   UNL     1     -53.781  46.115   9.570  1.00  0.00     0.223 C 
BRANCH   3   4
HETATM    4  C   UNL     1     -53.215  47.324   8.807  1.00  0.00     0.081 C 
BRANCH   4   5
HETATM    5  C   UNL     1     -53.306  48.590   9.588  1.00  0.00    -0.052 A 
HETATM    6  C   UNL     1     -53.433  49.811   8.926  1.00  0.00     0.046 A 
HETATM    7  C   UNL     1     -53.517  50.996   9.657  1.00  0.00     0.099 A 
HETATM    8  C   UNL     1     -53.473  50.960  11.051  1.00  0.00     0.098 A 
HETATM    9  C   UNL     1     -53.345  49.739  11.713  1.00  0.00     0.040 A 
HETATM   10  C   UNL     1     -53.261  48.554  10.982  1.00  0.00     0.010 A 
BRANCH   7  11
HETATM   11  O   UNL     1     -53.642  52.182   8.999  1.00  0.00    -0.358 OA
HETATM   12  H   UNL     1     -54.312  52.291   8.355  1.00  0.00     0.217 HD
ENDBRANCH   7  11
BRANCH   8  13
HETATM   13  O   UNL     1     -53.556  52.111  11.776  1.00  0.00    -0.358 OA
HETATM   14  H   UNL     1     -54.056  52.834  11.452  1.00  0.00     0.217 HD
ENDBRANCH   8  13
ENDBRANCH   4   5
ENDBRANCH   3   4
BRANCH   3  15
HETATM   15  C   UNL     1     -54.990  45.534   8.867  1.00  0.00     0.203 C 
HETATM   16  O   UNL     1     -56.107  46.278   9.070  1.00  0.00    -0.646 OA
HETATM   17  O   UNL     1     -54.986  44.505   8.204  1.00  0.00    -0.646 OA
ENDBRANCH   3  15
ENDBRANCH   1   3
TORSDOF 6
ENDMDL
MODEL 5
REMARK VINA RESULT:      -6.0      2.944      5.288
REMARK  6 active torsions:
REMARK  status: ('A' for Active; 'I' for Inactive)
REMARK    1  A    between atoms: O_1  and  C_8 
REMARK    2  A    between atoms: O_2  and  C_11 
REMARK    3  A    between atoms: O_3  and  C_13 
REMARK    4  A    between atoms: C_6  and  C_7 
REMARK    5  A    between atoms: C_6  and  C_8 
REMARK    6  A    between atoms: C_8  and  C_14 
ROOT
HETATM    1  O   UNL     1     -53.761  47.331   6.811  1.00  0.00    -0.385 OA
HETATM    2  H   UNL     1     -54.084  48.222   6.607  1.00  0.00     0.210 HD
ENDROOT
BRANCH   1   3
HETATM    3  C   UNL     1     -52.679  47.417   7.730  1.00  0.00     0.223 C 
BRANCH   3   4
HETATM    4  C   UNL     1     -53.240  47.307   9.157  1.00  0.00     0.081 C 
BRANCH   4   5
HETATM    5  C   UNL     1     -53.306  48.624   9.852  1.00  0.00    -0.052 A 
HETATM    6  C   UNL     1     -53.471  49.796   9.112  1.00  0.00     0.046 A 
HETATM    7  C   UNL     1     -53.532  51.028   9.763  1.00  0.00     0.099 A 
HETATM    8  C   UNL     1     -53.429  51.089  11.152  1.00  0.00     0.098 A 
HETATM    9  C   UNL     1     -53.263  49.918  11.892  1.00  0.00     0.040 A 
HETATM   10  C   UNL     1     -53.202  48.686  11.241  1.00  0.00     0.010 A 
BRANCH   7  11
HETATM   11  O   UNL     1     -53.694  52.164   9.030  1.00  0.00    -0.358 OA
HETATM   12  H   UNL     1     -53.939  52.963   9.453  1.00  0.00     0.217 HD
ENDBRANCH   7  11
BRANCH   8  13
HETATM   13  O   UNL     1     -53.488  52.287  11.799  1.00  0.00    -0.358 OA
HETATM   14  H   UNL     1     -53.411  53.085  11.314  1.00  0.00     0.217 HD
ENDBRANCH   8  13
ENDBRANCH   4   5
ENDBRANCH   3   4
BRANCH   3  15
HETATM   15  C   UNL     1     -51.726  46.280   7.421  1.00  0.00     0.203 C 
HETATM   16  O   UNL     1     -51.448  46.190   6.096  1.00  0.00    -0.646 OA
HETATM   17  O   UNL     1     -51.264  45.510   8.253  1.00  0.00    -0.646 OA
ENDBRANCH   3  15
ENDBRANCH   1   3
TORSDOF 6
ENDMDL
MODEL 6
REMARK VINA RESULT:      -6.0      2.383      5.795
REMARK  6 active torsions:
REMARK  status: ('A' for Active; 'I' for Inactive)
REMARK    1  A    between atoms: O_1  and  C_8 
REMARK    2  A    between atoms: O_2  and  C_11 
REMARK    3  A    between atoms: O_3  and  C_13 
REMARK    4  A    between atoms: C_6  and  C_7 
REMARK    5  A    between atoms: C_6  and  C_8 
REMARK    6  A    between atoms: C_8  and  C_14 
ROOT
HETATM    1  O   UNL     1     -51.729  48.686   7.101  1.00  0.00    -0.385 OA
HETATM    2  H   UNL     1     -51.028  48.944   7.720  1.00  0.00     0.210 HD
ENDROOT
BRANCH   1   3
HETATM    3  C   UNL     1     -52.450  47.583   7.637  1.00  0.00     0.223 C 
BRANCH   3   4
HETATM    4  C   UNL     1     -53.729  48.114   8.306  1.00  0.00     0.081 C 
BRANCH   4   5
HETATM    5  C   UNL     1     -53.502  48.551   9.713  1.00  0.00    -0.052 A 
HETATM    6  C   UNL     1     -53.619  49.899  10.053  1.00  0.00     0.046 A 
HETATM    7  C   UNL     1     -53.407  50.308  11.370  1.00  0.00     0.099 A 
HETATM    8  C   UNL     1     -53.076  49.368  12.346  1.00  0.00     0.098 A 
HETATM    9  C   UNL     1     -52.958  48.020  12.006  1.00  0.00     0.040 A 
HETATM   10  C   UNL     1     -53.171  47.612  10.690  1.00  0.00     0.010 A 
BRANCH   7  11
HETATM   11  O   UNL     1     -53.525  51.626  11.689  1.00  0.00    -0.358 OA
HETATM   12  H   UNL     1     -54.344  52.064  11.574  1.00  0.00     0.217 HD
ENDBRANCH   7  11
BRANCH   8  13
HETATM   13  O   UNL     1     -52.868  49.755  13.636  1.00  0.00    -0.358 OA
HETATM   14  H   UNL     1     -52.009  49.702  14.008  1.00  0.00     0.217 HD
ENDBRANCH   8  13
ENDBRANCH   4   5
ENDBRANCH   3   4
BRANCH   3  15
HETATM   15  C   UNL     1     -52.775  46.648   6.490  1.00  0.00     0.203 C 
HETATM   16  O   UNL     1     -51.989  46.876   5.406  1.00  0.00    -0.646 OA
HETATM   17  O   UNL     1     -53.651  45.794   6.510  1.00  0.00    -0.646 OA
ENDBRANCH   3  15
ENDBRANCH   1   3
TORSDOF 6
ENDMDL
MODEL 7
REMARK VINA RESULT:      -5.8      1.792      5.644
REMARK  6 active torsions:
REMARK  status: ('A' for Active; 'I' for Inactive)
REMARK    1  A    between atoms: O_1  and  C_8 
REMARK    2  A    between atoms: O_2  and  C_11 
REMARK    3  A    between atoms: O_3  and  C_13 
REMARK    4  A    between atoms: C_6  and  C_7 
REMARK    5  A    between atoms: C_6  and  C_8 
REMARK    6  A    between atoms: C_8  and  C_14 
ROOT
HETATM    1  O   UNL     1     -53.589  49.683   8.171  1.00  0.00    -0.385 OA
HETATM    2  H   UNL     1     -53.245  49.461   7.292  1.00  0.00     0.210 HD
ENDROOT
BRANCH   1   3
HETATM    3  C   UNL     1     -53.525  48.535   9.008  1.00  0.00     0.223 C 
BRANCH   3   4
HETATM    4  C   UNL     1     -54.233  48.858  10.335  1.00  0.00     0.081 C 
BRANCH   4   5
HETATM    5  C   UNL     1     -53.448  48.426  11.525  1.00  0.00    -0.052 A 
HETATM    6  C   UNL     1     -53.420  49.224  12.669  1.00  0.00     0.046 A 
HETATM    7  C   UNL     1     -52.684  48.820  13.784  1.00  0.00     0.099 A 
HETATM    8  C   UNL     1     -51.977  47.618  13.754  1.00  0.00     0.098 A 
HETATM    9  C   UNL     1     -52.004  46.821  12.609  1.00  0.00     0.040 A 
HETATM   10  C   UNL     1     -52.740  47.225  11.496  1.00  0.00     0.010 A 
BRANCH   7  11
HETATM   11  O   UNL     1     -52.665  49.607  14.895  1.00  0.00    -0.358 OA
HETATM   12  H   UNL     1     -53.167  49.366  15.648  1.00  0.00     0.217 HD
ENDBRANCH   7  11
BRANCH   8  13
HETATM   13  O   UNL     1     -51.256  47.213  14.837  1.00  0.00    -0.358 OA
HETATM   14  H   UNL     1     -50.536  47.730  15.140  1.00  0.00     0.217 HD
ENDBRANCH   8  13
ENDBRANCH   4   5
ENDBRANCH   3   4
BRANCH   3  15
HETATM   15  C   UNL     1     -54.211  47.398   8.278  1.00  0.00     0.203 C 
HETATM   16  O   UNL     1     -53.613  47.117   7.092  1.00  0.00    -0.646 OA
HETATM   17  O   UNL     1     -55.200  46.803   8.684  1.00  0.00    -0.646 OA
ENDBRANCH   3  15
ENDBRANCH   1   3
TORSDOF 6
ENDMDL
MODEL 8
REMARK VINA RESULT:      -5.8      2.940      5.487
REMARK  6 active torsions:
REMARK  status: ('A' for Active; 'I' for Inactive)
REMARK    1  A    between atoms: O_1  and  C_8 
REMARK    2  A    between atoms: O_2  and  C_11 
REMARK    3  A    between atoms: O_3  and  C_13 
REMARK    4  A    between atoms: C_6  and  C_7 
REMARK    5  A    between atoms: C_6  and  C_8 
REMARK    6  A    between atoms: C_8  and  C_14 
ROOT
HETATM    1  O   UNL     1     -55.361  46.040   8.648  1.00  0.00    -0.385 OA
HETATM    2  H   UNL     1     -55.550  46.097   9.598  1.00  0.00     0.210 HD
ENDROOT
BRANCH   1   3
HETATM    3  C   UNL     1     -54.016  46.435   8.409  1.00  0.00     0.223 C 
BRANCH   3   4
HETATM    4  C   UNL     1     -53.302  46.584   9.763  1.00  0.00     0.081 C 
BRANCH   4   5
HETATM    5  C   UNL     1     -53.354  47.978  10.289  1.00  0.00    -0.052 A 
HETATM    6  C   UNL     1     -53.092  48.225  11.637  1.00  0.00     0.046 A 
HETATM    7  C   UNL     1     -53.140  49.529  12.130  1.00  0.00     0.099 A 
HETATM    8  C   UNL     1     -53.451  50.586  11.275  1.00  0.00     0.098 A 
HETATM    9  C   UNL     1     -53.715  50.339   9.927  1.00  0.00     0.040 A 
HETATM   10  C   UNL     1     -53.666  49.035   9.435  1.00  0.00     0.010 A 
BRANCH   7  11
HETATM   11  O   UNL     1     -52.882  49.757  13.447  1.00  0.00    -0.358 OA
HETATM   12  H   UNL     1     -53.126  49.121  14.089  1.00  0.00     0.217 HD
ENDBRANCH   7  11
BRANCH   8  13
HETATM   13  O   UNL     1     -53.501  51.864  11.744  1.00  0.00    -0.358 OA
HETATM   14  H   UNL     1     -52.978  52.531  11.344  1.00  0.00     0.217 HD
ENDBRANCH   8  13
ENDBRANCH   4   5
ENDBRANCH   3   4
BRANCH   3  15
HETATM   15  C   UNL     1     -53.368  45.362   7.558  1.00  0.00     0.203 C 
HETATM   16  O   UNL     1     -53.361  45.688   6.240  1.00  0.00    -0.646 OA
HETATM   17  O   UNL     1     -52.915  44.309   7.987  1.00  0.00    -0.646 OA
ENDBRANCH   3  15
ENDBRANCH   1   3
TORSDOF 6
ENDMDL
MODEL 9
REMARK VINA RESULT:      -5.7      2.373      6.099
REMARK  6 active torsions:
REMARK  status: ('A' for Active; 'I' for Inactive)
REMARK    1  A    between atoms: O_1  and  C_8 
REMARK    2  A    between atoms: O_2  and  C_11 
REMARK    3  A    between atoms: O_3  and  C_13 
REMARK    4  A    between atoms: C_6  and  C_7 
REMARK    5  A    between atoms: C_6  and  C_8 
REMARK    6  A    between atoms: C_8  and  C_14 
ROOT
HETATM    1  O   UNL     1     -51.749  48.421   6.915  1.00  0.00    -0.385 OA
HETATM    2  H   UNL     1     -52.197  49.280   6.870  1.00  0.00     0.210 HD
ENDROOT
BRANCH   1   3
HETATM    3  C   UNL     1     -52.538  47.515   7.678  1.00  0.00     0.223 C 
BRANCH   3   4
HETATM    4  C   UNL     1     -53.716  48.290   8.291  1.00  0.00     0.081 C 
BRANCH   4   5
HETATM    5  C   UNL     1     -53.496  48.631   9.725  1.00  0.00    -0.052 A 
HETATM    6  C   UNL     1     -53.097  47.643  10.624  1.00  0.00     0.046 A 
HETATM    7  C   UNL     1     -52.892  47.962  11.967  1.00  0.00     0.099 A 
HETATM    8  C   UNL     1     -53.086  49.270  12.409  1.00  0.00     0.098 A 
HETATM    9  C   UNL     1     -53.486  50.259  11.510  1.00  0.00     0.040 A 
HETATM   10  C   UNL     1     -53.691  49.940  10.168  1.00  0.00     0.010 A 
BRANCH   7  11
HETATM   11  O   UNL     1     -52.501  46.988  12.834  1.00  0.00    -0.358 OA
HETATM   12  H   UNL     1     -52.904  46.144  12.803  1.00  0.00     0.217 HD
ENDBRANCH   7  11
BRANCH   8  13
HETATM   13  O   UNL     1     -52.887  49.594  13.718  1.00  0.00    -0.358 OA
HETATM   14  H   UNL     1     -52.908  50.492  13.987  1.00  0.00     0.217 HD
ENDBRANCH   8  13
ENDBRANCH   4   5
ENDBRANCH   3   4
BRANCH   3  15
HETATM   15  C   UNL     1     -53.020  46.427   6.741  1.00  0.00     0.203 C 
HETATM   16  O   UNL     1     -52.597  46.625   5.466  1.00  0.00    -0.646 OA
HETATM   17  O   UNL     1     -53.724  45.482   7.070  1.00  0.00    -0.646 OA
ENDBRANCH   3  15
ENDBRANCH   1   3
TORSDOF 6
ENDMDL
