MODEL 1
REMARK VINA RESULT:      -8.1      0.000      0.000
REMARK  4 active torsions:
REMARK  status: ('A' for Active; 'I' for Inactive)
REMARK    1  A    between atoms: O_1  and  C_5 
REMARK    2  A    between atoms: O_1  and  C_14 
REMARK    3  A    between atoms: O_2  and  C_18 
REMARK    4  A    between atoms: C_10  and  C_13 
ROOT
HETATM    1  O   UNL     1     -54.104  43.868   8.336  1.00  0.00    -0.343 OA
ENDROOT
BRANCH   1   2
HETATM    2  C   UNL     1     -53.756  44.181   6.993  1.00  0.00     0.129 C 
HETATM    3  C   UNL     1     -54.936  43.881   6.081  1.00  0.00     0.032 C 
HETATM    4  C   UNL     1     -54.881  42.369   5.871  1.00  0.00     0.002 C 
HETATM    5  C   UNL     1     -53.442  41.947   6.162  1.00  0.00     0.002 C 
HETATM    6  C   UNL     1     -52.682  43.230   6.489  1.00  0.00     0.032 C 
ENDBRANCH   1   2
BRANCH   1   7
HETATM    7  C   UNL     1     -53.651  44.722   9.307  1.00  0.00     0.103 A 
HETATM    8  C   UNL     1     -54.065  46.050   9.288  1.00  0.00     0.047 A 
HETATM    9  C   UNL     1     -53.610  46.929  10.270  1.00  0.00    -0.049 A 
HETATM   10  C   UNL     1     -52.744  46.477  11.265  1.00  0.00     0.010 A 
HETATM   11  C   UNL     1     -52.334  45.144  11.279  1.00  0.00     0.040 A 
HETATM   12  C   UNL     1     -52.788  44.264  10.296  1.00  0.00     0.101 A 
BRANCH   9  13
HETATM   13  C   UNL     1     -54.056  48.375  10.255  1.00  0.00     0.045 C 
HETATM   14  C   UNL     1     -55.504  48.623   9.829  1.00  0.00     0.132 C 
HETATM   15  N   UNL     1     -55.506  49.991   9.397  1.00  0.00    -0.360 N 
HETATM   16  C   UNL     1     -54.236  50.448   9.069  1.00  0.00     0.218 C 
HETATM   17  H   UNL     1     -56.318  50.545   9.339  1.00  0.00     0.162 HD
HETATM   18  O   UNL     1     -53.933  51.547   8.631  1.00  0.00    -0.274 OA
HETATM   19  C   UNL     1     -53.279  49.306   9.304  1.00  0.00     0.113 C 
ENDBRANCH   9  13
BRANCH  12  20
HETATM   20  O   UNL     1     -52.378  42.965  10.320  1.00  0.00    -0.353 OA
HETATM   21  C   UNL     1     -51.066  42.691   9.832  1.00  0.00     0.210 C 
ENDBRANCH  12  20
ENDBRANCH   1   7
TORSDOF 4
ENDMDL
MODEL 2
REMARK VINA RESULT:      -7.9      3.404      6.279
REMARK  4 active torsions:
REMARK  status: ('A' for Active; 'I' for Inactive)
REMARK    1  A    between atoms: O_1  and  C_5 
REMARK    2  A    between atoms: O_1  and  C_14 
REMARK    3  A    between atoms: O_2  and  C_18 
REMARK    4  A    between atoms: C_10  and  C_13 
ROOT
HETATM    1  O   UNL     1     -51.761  47.527  13.718  1.00  0.00    -0.343 OA
ENDROOT
BRANCH   1   2
HETATM    2  C   UNL     1     -52.678  46.774  14.502  1.00  0.00     0.129 C 
HETATM    3  C   UNL     1     -53.017  47.547  15.768  1.00  0.00     0.032 C 
HETATM    4  C   UNL     1     -51.830  47.299  16.697  1.00  0.00     0.002 C 
HETATM    5  C   UNL     1     -51.166  46.012  16.209  1.00  0.00     0.002 C 
HETATM    6  C   UNL     1     -52.010  45.517  15.037  1.00  0.00     0.032 C 
ENDBRANCH   1   2
BRANCH   1   7
HETATM    7  C   UNL     1     -51.493  47.058  12.459  1.00  0.00     0.103 A 
HETATM    8  C   UNL     1     -52.509  47.050  11.509  1.00  0.00     0.047 A 
HETATM    9  C   UNL     1     -52.250  46.573  10.225  1.00  0.00    -0.049 A 
HETATM   10  C   UNL     1     -50.977  46.107   9.896  1.00  0.00     0.010 A 
HETATM   11  C   UNL     1     -49.963  46.119  10.854  1.00  0.00     0.040 A 
HETATM   12  C   UNL     1     -50.222  46.594  12.139  1.00  0.00     0.101 A 
BRANCH   9  13
HETATM   13  C   UNL     1     -53.350  46.562   9.185  1.00  0.00     0.045 C 
HETATM   14  C   UNL     1     -54.223  47.816   9.124  1.00  0.00     0.132 C 
HETATM   15  N   UNL     1     -55.433  47.363   8.498  1.00  0.00    -0.360 N 
HETATM   16  C   UNL     1     -55.600  45.987   8.595  1.00  0.00     0.218 C 
HETATM   17  H   UNL     1     -56.074  47.961   8.050  1.00  0.00     0.162 HD
HETATM   18  O   UNL     1     -56.546  45.325   8.199  1.00  0.00    -0.274 OA
HETATM   19  C   UNL     1     -54.403  45.447   9.337  1.00  0.00     0.113 C 
ENDBRANCH   9  13
BRANCH  12  20
HETATM   20  O   UNL     1     -49.224  46.599  13.066  1.00  0.00    -0.353 OA
HETATM   21  C   UNL     1     -48.362  45.462  13.096  1.00  0.00     0.210 C 
ENDBRANCH  12  20
ENDBRANCH   1   7
TORSDOF 4
ENDMDL
MODEL 3
REMARK VINA RESULT:      -7.8      3.135      7.052
REMARK  4 active torsions:
REMARK  status: ('A' for Active; 'I' for Inactive)
REMARK    1  A    between atoms: O_1  and  C_5 
REMARK    2  A    between atoms: O_1  and  C_14 
REMARK    3  A    between atoms: O_2  and  C_18 
REMARK    4  A    between atoms: C_10  and  C_13 
ROOT
HETATM    1  O   UNL     1     -52.201  47.499  12.290  1.00  0.00    -0.343 OA
ENDROOT
BRANCH   1   2
HETATM    2  C   UNL     1     -51.650  46.514  13.156  1.00  0.00     0.129 C 
HETATM    3  C   UNL     1     -52.541  46.361  14.380  1.00  0.00     0.032 C 
HETATM    4  C   UNL     1     -52.162  47.537  15.278  1.00  0.00     0.002 C 
HETATM    5  C   UNL     1     -50.760  47.968  14.852  1.00  0.00     0.002 C 
HETATM    6  C   UNL     1     -50.337  47.002  13.747  1.00  0.00     0.032 C 
ENDBRANCH   1   2
BRANCH   1   7
HETATM    7  C   UNL     1     -52.863  47.045  11.180  1.00  0.00     0.103 A 
HETATM    8  C   UNL     1     -52.760  45.703  10.830  1.00  0.00     0.047 A 
HETATM    9  C   UNL     1     -53.428  45.229   9.703  1.00  0.00    -0.049 A 
HETATM   10  C   UNL     1     -54.196  46.099   8.929  1.00  0.00     0.010 A 
HETATM   11  C   UNL     1     -54.297  47.444   9.286  1.00  0.00     0.040 A 
HETATM   12  C   UNL     1     -53.628  47.918  10.414  1.00  0.00     0.101 A 
BRANCH   9  13
HETATM   13  C   UNL     1     -53.320  43.770   9.316  1.00  0.00     0.045 C 
HETATM   14  C   UNL     1     -52.046  43.053   9.768  1.00  0.00     0.132 C 
HETATM   15  N   UNL     1     -51.944  41.937   8.871  1.00  0.00    -0.360 N 
HETATM   16  C   UNL     1     -52.669  42.124   7.701  1.00  0.00     0.218 C 
HETATM   17  H   UNL     1     -51.418  41.127   9.063  1.00  0.00     0.162 HD
HETATM   18  O   UNL     1     -52.737  41.373   6.741  1.00  0.00    -0.274 OA
HETATM   19  C   UNL     1     -53.334  43.475   7.804  1.00  0.00     0.113 C 
ENDBRANCH   9  13
BRANCH  12  20
HETATM   20  O   UNL     1     -53.732  49.234  10.751  1.00  0.00    -0.353 OA
HETATM   21  C   UNL     1     -54.062  50.146   9.705  1.00  0.00     0.210 C 
ENDBRANCH  12  20
ENDBRANCH   1   7
TORSDOF 4
ENDMDL
MODEL 4
REMARK VINA RESULT:      -7.4      3.156      6.809
REMARK  4 active torsions:
REMARK  status: ('A' for Active; 'I' for Inactive)
REMARK    1  A    between atoms: O_1  and  C_5 
REMARK    2  A    between atoms: O_1  and  C_14 
REMARK    3  A    between atoms: O_2  and  C_18 
REMARK    4  A    between atoms: C_10  and  C_13 
ROOT
HETATM    1  O   UNL     1     -53.264  46.625   8.461  1.00  0.00    -0.343 OA
ENDROOT
BRANCH   1   2
HETATM    2  C   UNL     1     -54.026  46.928   9.623  1.00  0.00     0.129 C 
HETATM    3  C   UNL     1     -55.354  47.545   9.211  1.00  0.00     0.032 C 
HETATM    4  C   UNL     1     -55.019  49.003   8.903  1.00  0.00     0.002 C 
HETATM    5  C   UNL     1     -53.724  49.313   9.652  1.00  0.00     0.002 C 
HETATM    6  C   UNL     1     -53.361  48.042  10.417  1.00  0.00     0.032 C 
ENDBRANCH   1   2
BRANCH   1   7
HETATM    7  C   UNL     1     -52.854  45.327   8.312  1.00  0.00     0.103 A 
HETATM    8  C   UNL     1     -51.654  44.924   8.890  1.00  0.00     0.047 A 
HETATM    9  C   UNL     1     -51.225  43.606   8.745  1.00  0.00    -0.049 A 
HETATM   10  C   UNL     1     -51.996  42.696   8.022  1.00  0.00     0.010 A 
HETATM   11  C   UNL     1     -53.198  43.106   7.446  1.00  0.00     0.040 A 
HETATM   12  C   UNL     1     -53.628  44.425   7.590  1.00  0.00     0.101 A 
BRANCH   9  13
HETATM   13  C   UNL     1     -49.921  43.161   9.372  1.00  0.00     0.045 C 
HETATM   14  C   UNL     1     -48.892  42.557   8.414  1.00  0.00     0.132 C 
HETATM   15  N   UNL     1     -48.047  41.773   9.268  1.00  0.00    -0.360 N 
HETATM   16  C   UNL     1     -48.660  41.447  10.471  1.00  0.00     0.218 C 
HETATM   17  H   UNL     1     -47.133  41.495   9.028  1.00  0.00     0.162 HD
HETATM   18  O   UNL     1     -48.208  40.756  11.371  1.00  0.00    -0.274 OA
HETATM   19  C   UNL     1     -50.035  42.066  10.450  1.00  0.00     0.113 C 
ENDBRANCH   9  13
BRANCH  12  20
HETATM   20  O   UNL     1     -54.803  44.813   7.021  1.00  0.00    -0.353 OA
HETATM   21  C   UNL     1     -55.279  44.035   5.924  1.00  0.00     0.210 C 
ENDBRANCH  12  20
ENDBRANCH   1   7
TORSDOF 4
ENDMDL
MODEL 5
REMARK VINA RESULT:      -7.4      1.210      1.414
REMARK  4 active torsions:
REMARK  status: ('A' for Active; 'I' for Inactive)
REMARK    1  A    between atoms: O_1  and  C_5 
REMARK    2  A    between atoms: O_1  and  C_14 
REMARK    3  A    between atoms: O_2  and  C_18 
REMARK    4  A    between atoms: C_10  and  C_13 
ROOT
HETATM    1  O   UNL     1     -53.895  43.265   7.872  1.00  0.00    -0.343 OA
ENDROOT
BRANCH   1   2
HETATM    2  C   UNL     1     -54.197  43.965   6.671  1.00  0.00     0.129 C 
HETATM    3  C   UNL     1     -55.152  43.135   5.827  1.00  0.00     0.032 C 
HETATM    4  C   UNL     1     -54.258  42.102   5.143  1.00  0.00     0.002 C 
HETATM    5  C   UNL     1     -52.846  42.686   5.147  1.00  0.00     0.002 C 
HETATM    6  C   UNL     1     -52.961  44.066   5.792  1.00  0.00     0.032 C 
ENDBRANCH   1   2
BRANCH   1   7
HETATM    7  C   UNL     1     -53.113  43.918   8.788  1.00  0.00     0.103 A 
HETATM    8  C   UNL     1     -53.297  45.283   8.986  1.00  0.00     0.047 A 
HETATM    9  C   UNL     1     -52.506  45.959   9.914  1.00  0.00    -0.049 A 
HETATM   10  C   UNL     1     -51.536  45.269  10.639  1.00  0.00     0.010 A 
HETATM   11  C   UNL     1     -51.357  43.900  10.436  1.00  0.00     0.040 A 
HETATM   12  C   UNL     1     -52.147  43.224   9.507  1.00  0.00     0.101 A 
BRANCH   9  13
HETATM   13  C   UNL     1     -52.701  47.444  10.135  1.00  0.00     0.045 C 
HETATM   14  C   UNL     1     -53.898  47.838  11.003  1.00  0.00     0.132 C 
HETATM   15  N   UNL     1     -54.163  49.197  10.626  1.00  0.00    -0.360 N 
HETATM   16  C   UNL     1     -53.634  49.518   9.383  1.00  0.00     0.218 C 
HETATM   17  H   UNL     1     -54.665  49.832  11.187  1.00  0.00     0.162 HD
HETATM   18  O   UNL     1     -53.736  50.578   8.784  1.00  0.00    -0.274 OA
HETATM   19  C   UNL     1     -52.937  48.284   8.865  1.00  0.00     0.113 C 
ENDBRANCH   9  13
BRANCH  12  20
HETATM   20  O   UNL     1     -51.962  41.887   9.317  1.00  0.00    -0.353 OA
HETATM   21  C   UNL     1     -50.956  41.500   8.382  1.00  0.00     0.210 C 
ENDBRANCH  12  20
ENDBRANCH   1   7
TORSDOF 4
ENDMDL
MODEL 6
REMARK VINA RESULT:      -7.4      2.963      6.414
REMARK  4 active torsions:
REMARK  status: ('A' for Active; 'I' for Inactive)
REMARK    1  A    between atoms: O_1  and  C_5 
REMARK    2  A    between atoms: O_1  and  C_14 
REMARK    3  A    between atoms: O_2  and  C_18 
REMARK    4  A    between atoms: C_10  and  C_13 
ROOT
HETATM    1  O   UNL     1     -53.670  46.790   8.534  1.00  0.00    -0.343 OA
ENDROOT
BRANCH   1   2
HETATM    2  C   UNL     1     -54.414  47.179   9.681  1.00  0.00     0.129 C 
HETATM    3  C   UNL     1     -55.666  47.925   9.244  1.00  0.00     0.032 C 
HETATM    4  C   UNL     1     -55.179  49.338   8.930  1.00  0.00     0.002 C 
HETATM    5  C   UNL     1     -53.870  49.521   9.698  1.00  0.00     0.002 C 
HETATM    6  C   UNL     1     -53.651  48.226  10.477  1.00  0.00     0.032 C 
ENDBRANCH   1   2
BRANCH   1   7
HETATM    7  C   UNL     1     -53.146  45.524   8.538  1.00  0.00     0.103 A 
HETATM    8  C   UNL     1     -51.947  45.288   9.203  1.00  0.00     0.047 A 
HETATM    9  C   UNL     1     -51.403  44.004   9.213  1.00  0.00    -0.049 A 
HETATM   10  C   UNL     1     -52.060  42.963   8.557  1.00  0.00     0.010 A 
HETATM   11  C   UNL     1     -53.262  43.206   7.893  1.00  0.00     0.040 A 
HETATM   12  C   UNL     1     -53.806  44.490   7.882  1.00  0.00     0.101 A 
BRANCH   9  13
HETATM   13  C   UNL     1     -50.100  43.741   9.935  1.00  0.00     0.045 C 
HETATM   14  C   UNL     1     -49.102  44.900   9.955  1.00  0.00     0.132 C 
HETATM   15  N   UNL     1     -47.838  44.262  10.191  1.00  0.00    -0.360 N 
HETATM   16  C   UNL     1     -47.853  42.912   9.863  1.00  0.00     0.218 C 
HETATM   17  H   UNL     1     -47.048  44.728  10.547  1.00  0.00     0.162 HD
HETATM   18  O   UNL     1     -46.920  42.126   9.914  1.00  0.00    -0.274 OA
HETATM   19  C   UNL     1     -49.242  42.591   9.370  1.00  0.00     0.113 C 
ENDBRANCH   9  13
BRANCH  12  20
HETATM   20  O   UNL     1     -54.980  44.715   7.228  1.00  0.00    -0.353 OA
HETATM   21  C   UNL     1     -55.180  44.019   6.000  1.00  0.00     0.210 C 
ENDBRANCH  12  20
ENDBRANCH   1   7
TORSDOF 4
ENDMDL
MODEL 7
REMARK VINA RESULT:      -7.3      2.904      6.154
REMARK  4 active torsions:
REMARK  status: ('A' for Active; 'I' for Inactive)
REMARK    1  A    between atoms: O_1  and  C_5 
REMARK    2  A    between atoms: O_1  and  C_14 
REMARK    3  A    between atoms: O_2  and  C_18 
REMARK    4  A    between atoms: C_10  and  C_13 
ROOT
HETATM    1  O   UNL     1     -53.275  48.148  11.051  1.00  0.00    -0.343 OA
ENDROOT
BRANCH   1   2
HETATM    2  C   UNL     1     -53.406  48.383   9.655  1.00  0.00     0.129 C 
HETATM    3  C   UNL     1     -53.587  49.873   9.407  1.00  0.00     0.032 C 
HETATM    4  C   UNL     1     -55.060  50.135   9.713  1.00  0.00     0.002 C 
HETATM    5  C   UNL     1     -55.774  48.792   9.570  1.00  0.00     0.002 C 
HETATM    6  C   UNL     1     -54.707  47.789   9.138  1.00  0.00     0.032 C 
ENDBRANCH   1   2
BRANCH   1   7
HETATM    7  C   UNL     1     -52.726  46.950  11.427  1.00  0.00     0.103 A 
HETATM    8  C   UNL     1     -52.389  46.022  10.447  1.00  0.00     0.047 A 
HETATM    9  C   UNL     1     -51.831  44.799  10.817  1.00  0.00    -0.049 A 
HETATM   10  C   UNL     1     -51.613  44.509  12.164  1.00  0.00     0.010 A 
HETATM   11  C   UNL     1     -51.953  45.445  13.141  1.00  0.00     0.040 A 
HETATM   12  C   UNL     1     -52.512  46.668  12.772  1.00  0.00     0.101 A 
BRANCH   9  13
HETATM   13  C   UNL     1     -51.461  43.784   9.757  1.00  0.00     0.045 C 
HETATM   14  C   UNL     1     -51.122  44.354   8.378  1.00  0.00     0.132 C 
HETATM   15  N   UNL     1     -51.336  43.248   7.488  1.00  0.00    -0.360 N 
HETATM   16  C   UNL     1     -52.167  42.278   8.033  1.00  0.00     0.218 C 
HETATM   17  H   UNL     1     -50.938  43.185   6.590  1.00  0.00     0.162 HD
HETATM   18  O   UNL     1     -52.562  41.254   7.498  1.00  0.00    -0.274 OA
HETATM   19  C   UNL     1     -52.548  42.747   9.415  1.00  0.00     0.113 C 
ENDBRANCH   9  13
BRANCH  12  20
HETATM   20  O   UNL     1     -52.841  47.573  13.736  1.00  0.00    -0.353 OA
HETATM   21  C   UNL     1     -52.684  47.160  15.092  1.00  0.00     0.210 C 
ENDBRANCH  12  20
ENDBRANCH   1   7
TORSDOF 4
ENDMDL
MODEL 8
REMARK VINA RESULT:      -7.2      3.503      5.923
REMARK  4 active torsions:
REMARK  status: ('A' for Active; 'I' for Inactive)
REMARK    1  A    between atoms: O_1  and  C_5 
REMARK    2  A    between atoms: O_1  and  C_14 
REMARK    3  A    between atoms: O_2  and  C_18 
REMARK    4  A    between atoms: C_10  and  C_13 
ROOT
HETATM    1  O   UNL     1     -53.310  47.310   8.473  1.00  0.00    -0.343 OA
ENDROOT
BRANCH   1   2
HETATM    2  C   UNL     1     -54.339  47.358   9.453  1.00  0.00     0.129 C 
HETATM    3  C   UNL     1     -55.578  48.007   8.856  1.00  0.00     0.032 C 
HETATM    4  C   UNL     1     -55.289  49.506   8.912  1.00  0.00     0.002 C 
HETATM    5  C   UNL     1     -54.228  49.698   9.994  1.00  0.00     0.002 C 
HETATM    6  C   UNL     1     -53.959  48.311  10.575  1.00  0.00     0.032 C 
ENDBRANCH   1   2
BRANCH   1   7
HETATM    7  C   UNL     1     -52.334  46.365   8.646  1.00  0.00     0.103 A 
HETATM    8  C   UNL     1     -51.274  46.634   9.506  1.00  0.00     0.047 A 
HETATM    9  C   UNL     1     -50.274  45.680   9.691  1.00  0.00    -0.049 A 
HETATM   10  C   UNL     1     -50.338  44.462   9.014  1.00  0.00     0.010 A 
HETATM   11  C   UNL     1     -51.403  44.198   8.154  1.00  0.00     0.040 A 
HETATM   12  C   UNL     1     -52.404  45.153   7.968  1.00  0.00     0.101 A 
BRANCH   9  13
HETATM   13  C   UNL     1     -49.119  45.967  10.625  1.00  0.00     0.045 C 
HETATM   14  C   UNL     1     -48.235  44.769  10.980  1.00  0.00     0.132 C 
HETATM   15  N   UNL     1     -47.609  45.158  12.212  1.00  0.00    -0.360 N 
HETATM   16  C   UNL     1     -48.304  46.164  12.869  1.00  0.00     0.218 C 
HETATM   17  H   UNL     1     -46.778  44.756  12.553  1.00  0.00     0.162 HD
HETATM   18  O   UNL     1     -48.040  46.664  13.952  1.00  0.00    -0.274 OA
HETATM   19  C   UNL     1     -49.501  46.505  12.017  1.00  0.00     0.113 C 
ENDBRANCH   9  13
BRANCH  12  20
HETATM   20  O   UNL     1     -53.438  44.884   7.124  1.00  0.00    -0.353 OA
HETATM   21  C   UNL     1     -53.811  43.515   6.972  1.00  0.00     0.210 C 
ENDBRANCH  12  20
ENDBRANCH   1   7
TORSDOF 4
ENDMDL
MODEL 9
REMARK VINA RESULT:      -7.1      1.182      1.493
REMARK  4 active torsions:
REMARK  status: ('A' for Active; 'I' for Inactive)
REMARK    1  A    between atoms: O_1  and  C_5 
REMARK    2  A    between atoms: O_1  and  C_14 
REMARK    3  A    between atoms: O_2  and  C_18 
REMARK    4  A    between atoms: C_10  and  C_13 
ROOT
HETATM    1  O   UNL     1     -53.183  43.758   9.203  1.00  0.00    -0.343 OA
ENDROOT
BRANCH   1   2
HETATM    2  C   UNL     1     -52.990  43.873   7.798  1.00  0.00     0.129 C 
HETATM    3  C   UNL     1     -53.528  42.628   7.110  1.00  0.00     0.032 C 
HETATM    4  C   UNL     1     -52.430  41.583   7.298  1.00  0.00     0.002 C 
HETATM    5  C   UNL     1     -51.139  42.358   7.554  1.00  0.00     0.002 C 
HETATM    6  C   UNL     1     -51.508  43.837   7.463  1.00  0.00     0.032 C 
ENDBRANCH   1   2
BRANCH   1   7
HETATM    7  C   UNL     1     -52.989  44.891   9.948  1.00  0.00     0.103 A 
HETATM    8  C   UNL     1     -53.715  46.038   9.640  1.00  0.00     0.047 A 
HETATM    9  C   UNL     1     -53.525  47.198  10.389  1.00  0.00    -0.049 A 
HETATM   10  C   UNL     1     -52.612  47.207  11.443  1.00  0.00     0.010 A 
HETATM   11  C   UNL     1     -51.888  46.053  11.747  1.00  0.00     0.040 A 
HETATM   12  C   UNL     1     -52.077  44.893  10.997  1.00  0.00     0.101 A 
BRANCH   9  13
HETATM   13  C   UNL     1     -54.311  48.449  10.060  1.00  0.00     0.045 C 
HETATM   14  C   UNL     1     -55.285  48.334   8.885  1.00  0.00     0.132 C 
HETATM   15  N   UNL     1     -55.473  49.693   8.462  1.00  0.00    -0.360 N 
HETATM   16  C   UNL     1     -54.444  50.528   8.879  1.00  0.00     0.218 C 
HETATM   17  H   UNL     1     -56.245  49.999   7.934  1.00  0.00     0.162 HD
HETATM   18  O   UNL     1     -54.308  51.717   8.634  1.00  0.00    -0.274 OA
HETATM   19  C   UNL     1     -53.474  49.680   9.663  1.00  0.00     0.113 C 
ENDBRANCH   9  13
BRANCH  12  20
HETATM   20  O   UNL     1     -51.363  43.774  11.303  1.00  0.00    -0.353 OA
HETATM   21  C   UNL     1     -51.410  43.325  12.656  1.00  0.00     0.210 C 
ENDBRANCH  12  20
ENDBRANCH   1   7
TORSDOF 4
ENDMDL
