MODEL 1
REMARK VINA RESULT:     -21.3      0.000      0.000
REMARK  4 active torsions:
REMARK  status: ('A' for Active; 'I' for Inactive)
REMARK    1  A    between atoms: O_1  and  C_5 
REMARK    2  A    between atoms: O_1  and  C_14 
REMARK    3  A    between atoms: O_2  and  C_18 
REMARK    4  A    between atoms: C_10  and  C_13 
ROOT
HETATM    1  O   UNL     1     -53.565  48.111   9.318  1.00  0.00    -0.343 OA
ENDROOT
BRANCH   1   2
HETATM    2  C   UNL     1     -52.292  47.774   8.781  1.00  0.00     0.129 C 
HETATM    3  C   UNL     1     -52.111  48.461   7.436  1.00  0.00     0.032 C 
HETATM    4  C   UNL     1     -52.892  47.591   6.453  1.00  0.00     0.002 C 
HETATM    5  C   UNL     1     -53.003  46.210   7.098  1.00  0.00     0.002 C 
HETATM    6  C   UNL     1     -52.244  46.297   8.420  1.00  0.00     0.032 C 
ENDBRANCH   1   2
BRANCH   1   7
HETATM    7  C   UNL     1     -53.572  48.865  10.462  1.00  0.00     0.103 A 
HETATM    8  C   UNL     1     -53.246  48.263  11.673  1.00  0.00     0.047 A 
HETATM    9  C   UNL     1     -53.252  49.019  12.844  1.00  0.00    -0.049 A 
HETATM   10  C   UNL     1     -53.583  50.373  12.800  1.00  0.00     0.010 A 
HETATM   11  C   UNL     1     -53.907  50.971  11.582  1.00  0.00     0.040 A 
HETATM   12  C   UNL     1     -53.903  50.215  10.410  1.00  0.00     0.101 A 
BRANCH   9  13
HETATM   13  C   UNL     1     -52.898  48.370  14.165  1.00  0.00     0.045 C 
HETATM   14  C   UNL     1     -52.467  49.322  15.282  1.00  0.00     0.132 C 
HETATM   15  N   UNL     1     -51.714  48.487  16.174  1.00  0.00    -0.360 N 
HETATM   16  C   UNL     1     -51.247  47.334  15.557  1.00  0.00     0.218 C 
HETATM   17  H   UNL     1     -51.547  48.707  17.118  1.00  0.00     0.162 HD
HETATM   18  O   UNL     1     -50.545  46.462  16.047  1.00  0.00    -0.274 OA
HETATM   19  C   UNL     1     -51.726  47.370  14.127  1.00  0.00     0.113 C 
ENDBRANCH   9  13
BRANCH  12  20
HETATM   20  O   UNL     1     -54.224  50.810   9.227  1.00  0.00    -0.353 OA
HETATM   21  C   UNL     1     -53.906  52.194   9.092  1.00  0.00     0.210 C 
ENDBRANCH  12  20
ENDBRANCH   1   7
TORSDOF 4
ENDMDL
MODEL 2
REMARK VINA RESULT:     -20.9      1.162      1.383
REMARK  4 active torsions:
REMARK  status: ('A' for Active; 'I' for Inactive)
REMARK    1  A    between atoms: O_1  and  C_5 
REMARK    2  A    between atoms: O_1  and  C_14 
REMARK    3  A    between atoms: O_2  and  C_18 
REMARK    4  A    between atoms: C_10  and  C_13 
ROOT
HETATM    1  O   UNL     1     -53.848  48.308   9.424  1.00  0.00    -0.343 OA
ENDROOT
BRANCH   1   2
HETATM    2  C   UNL     1     -52.884  47.314   9.098  1.00  0.00     0.129 C 
HETATM    3  C   UNL     1     -51.861  47.898   8.136  1.00  0.00     0.032 C 
HETATM    4  C   UNL     1     -52.548  47.853   6.772  1.00  0.00     0.002 C 
HETATM    5  C   UNL     1     -53.637  46.785   6.876  1.00  0.00     0.002 C 
HETATM    6  C   UNL     1     -53.526  46.202   8.283  1.00  0.00     0.032 C 
ENDBRANCH   1   2
BRANCH   1   7
HETATM    7  C   UNL     1     -53.680  48.963  10.616  1.00  0.00     0.103 A 
HETATM    8  C   UNL     1     -53.195  48.260  11.714  1.00  0.00     0.047 A 
HETATM    9  C   UNL     1     -53.021  48.915  12.932  1.00  0.00    -0.049 A 
HETATM   10  C   UNL     1     -53.333  50.269  13.048  1.00  0.00     0.010 A 
HETATM   11  C   UNL     1     -53.818  50.969  11.943  1.00  0.00     0.040 A 
HETATM   12  C   UNL     1     -53.993  50.314  10.724  1.00  0.00     0.101 A 
BRANCH   9  13
HETATM   13  C   UNL     1     -52.493  48.156  14.131  1.00  0.00     0.045 C 
HETATM   14  C   UNL     1     -52.416  46.636  13.976  1.00  0.00     0.132 C 
HETATM   15  N   UNL     1     -52.416  46.153  15.328  1.00  0.00    -0.360 N 
HETATM   16  C   UNL     1     -52.933  47.080  16.225  1.00  0.00     0.218 C 
HETATM   17  H   UNL     1     -52.086  45.264  15.591  1.00  0.00     0.162 HD
HETATM   18  O   UNL     1     -53.099  46.937  17.426  1.00  0.00    -0.274 OA
HETATM   19  C   UNL     1     -53.309  48.305  15.429  1.00  0.00     0.113 C 
ENDBRANCH   9  13
BRANCH  12  20
HETATM   20  O   UNL     1     -54.469  51.008   9.652  1.00  0.00    -0.353 OA
HETATM   21  C   UNL     1     -54.014  52.350   9.496  1.00  0.00     0.210 C 
ENDBRANCH  12  20
ENDBRANCH   1   7
TORSDOF 4
ENDMDL
MODEL 3
REMARK VINA RESULT:     -20.7      2.412      3.919
REMARK  4 active torsions:
REMARK  status: ('A' for Active; 'I' for Inactive)
REMARK    1  A    between atoms: O_1  and  C_5 
REMARK    2  A    between atoms: O_1  and  C_14 
REMARK    3  A    between atoms: O_2  and  C_18 
REMARK    4  A    between atoms: C_10  and  C_13 
ROOT
HETATM    1  O   UNL     1     -52.409  45.844   9.138  1.00  0.00    -0.343 OA
ENDROOT
BRANCH   1   2
HETATM    2  C   UNL     1     -53.347  44.867   8.707  1.00  0.00     0.129 C 
HETATM    3  C   UNL     1     -54.181  44.407   9.894  1.00  0.00     0.032 C 
HETATM    4  C   UNL     1     -53.288  43.404  10.622  1.00  0.00     0.002 C 
HETATM    5  C   UNL     1     -52.274  42.906   9.594  1.00  0.00     0.002 C 
HETATM    6  C   UNL     1     -52.631  43.596   8.279  1.00  0.00     0.032 C 
ENDBRANCH   1   2
BRANCH   1   7
HETATM    7  C   UNL     1     -52.835  47.146   9.155  1.00  0.00     0.103 A 
HETATM    8  C   UNL     1     -53.169  47.735  10.370  1.00  0.00     0.047 A 
HETATM    9  C   UNL     1     -53.606  49.058  10.400  1.00  0.00    -0.049 A 
HETATM   10  C   UNL     1     -53.708  49.787   9.215  1.00  0.00     0.010 A 
HETATM   11  C   UNL     1     -53.370  49.191   8.000  1.00  0.00     0.040 A 
HETATM   12  C   UNL     1     -52.934  47.866   7.970  1.00  0.00     0.101 A 
BRANCH   9  13
HETATM   13  C   UNL     1     -53.970  49.705  11.719  1.00  0.00     0.045 C 
HETATM   14  C   UNL     1     -53.681  51.203  11.830  1.00  0.00     0.132 C 
HETATM   15  N   UNL     1     -53.603  51.434  13.244  1.00  0.00    -0.360 N 
HETATM   16  C   UNL     1     -53.344  50.272  13.960  1.00  0.00     0.218 C 
HETATM   17  H   UNL     1     -53.719  52.318  13.661  1.00  0.00     0.162 HD
HETATM   18  O   UNL     1     -53.180  50.164  15.166  1.00  0.00    -0.274 OA
HETATM   19  C   UNL     1     -53.248  49.147  12.961  1.00  0.00     0.113 C 
ENDBRANCH   9  13
BRANCH  12  20
HETATM   20  O   UNL     1     -52.610  47.295   6.776  1.00  0.00    -0.353 OA
HETATM   21  C   UNL     1     -53.685  46.988   5.891  1.00  0.00     0.210 C 
ENDBRANCH  12  20
ENDBRANCH   1   7
TORSDOF 4
ENDMDL
MODEL 4
REMARK VINA RESULT:     -20.6      2.945      4.591
REMARK  4 active torsions:
REMARK  status: ('A' for Active; 'I' for Inactive)
REMARK    1  A    between atoms: O_1  and  C_5 
REMARK    2  A    between atoms: O_1  and  C_14 
REMARK    3  A    between atoms: O_2  and  C_18 
REMARK    4  A    between atoms: C_10  and  C_13 
ROOT
HETATM    1  O   UNL     1     -53.077  44.911   9.473  1.00  0.00    -0.343 OA
ENDROOT
BRANCH   1   2
HETATM    2  C   UNL     1     -51.834  44.956   8.784  1.00  0.00     0.129 C 
HETATM    3  C   UNL     1     -52.032  44.488   7.350  1.00  0.00     0.032 C 
HETATM    4  C   UNL     1     -52.062  42.963   7.446  1.00  0.00     0.002 C 
HETATM    5  C   UNL     1     -51.346  42.601   8.747  1.00  0.00     0.002 C 
HETATM    6  C   UNL     1     -50.875  43.922   9.353  1.00  0.00     0.032 C 
ENDBRANCH   1   2
BRANCH   1   7
HETATM    7  C   UNL     1     -53.773  46.087   9.568  1.00  0.00     0.103 A 
HETATM    8  C   UNL     1     -53.259  47.117  10.349  1.00  0.00     0.047 A 
HETATM    9  C   UNL     1     -53.959  48.318  10.456  1.00  0.00    -0.049 A 
HETATM   10  C   UNL     1     -55.169  48.484   9.782  1.00  0.00     0.010 A 
HETATM   11  C   UNL     1     -55.678  47.447   8.999  1.00  0.00     0.040 A 
HETATM   12  C   UNL     1     -54.978  46.245   8.894  1.00  0.00     0.101 A 
BRANCH   9  13
HETATM   13  C   UNL     1     -53.406  49.444  11.303  1.00  0.00     0.045 C 
HETATM   14  C   UNL     1     -53.660  49.332  12.808  1.00  0.00     0.132 C 
HETATM   15  N   UNL     1     -53.536  50.683  13.278  1.00  0.00    -0.360 N 
HETATM   16  C   UNL     1     -53.705  51.617  12.264  1.00  0.00     0.218 C 
HETATM   17  H   UNL     1     -53.353  50.921  14.215  1.00  0.00     0.162 HD
HETATM   18  O   UNL     1     -53.700  52.834  12.368  1.00  0.00    -0.274 OA
HETATM   19  C   UNL     1     -53.954  50.849  10.990  1.00  0.00     0.113 C 
ENDBRANCH   9  13
BRANCH  12  20
HETATM   20  O   UNL     1     -55.487  45.239   8.128  1.00  0.00    -0.353 OA
HETATM   21  C   UNL     1     -56.338  44.297   8.778  1.00  0.00     0.210 C 
ENDBRANCH  12  20
ENDBRANCH   1   7
TORSDOF 4
ENDMDL
MODEL 5
REMARK VINA RESULT:     -20.3      1.547      1.933
REMARK  4 active torsions:
REMARK  status: ('A' for Active; 'I' for Inactive)
REMARK    1  A    between atoms: O_1  and  C_5 
REMARK    2  A    between atoms: O_1  and  C_14 
REMARK    3  A    between atoms: O_2  and  C_18 
REMARK    4  A    between atoms: C_10  and  C_13 
ROOT
HETATM    1  O   UNL     1     -53.290  47.644  10.730  1.00  0.00    -0.343 OA
ENDROOT
BRANCH   1   2
HETATM    2  C   UNL     1     -52.283  46.644  10.821  1.00  0.00     0.129 C 
HETATM    3  C   UNL     1     -51.585  46.504   9.477  1.00  0.00     0.032 C 
HETATM    4  C   UNL     1     -52.533  45.646   8.641  1.00  0.00     0.002 C 
HETATM    5  C   UNL     1     -53.405  44.879   9.634  1.00  0.00     0.002 C 
HETATM    6  C   UNL     1     -52.912  45.275  11.025  1.00  0.00     0.032 C 
ENDBRANCH   1   2
BRANCH   1   7
HETATM    7  C   UNL     1     -53.314  48.589  11.722  1.00  0.00     0.103 A 
HETATM    8  C   UNL     1     -52.978  48.218  13.020  1.00  0.00     0.047 A 
HETATM    9  C   UNL     1     -53.000  49.170  14.038  1.00  0.00    -0.049 A 
HETATM   10  C   UNL     1     -53.357  50.489  13.754  1.00  0.00     0.010 A 
HETATM   11  C   UNL     1     -53.691  50.854  12.450  1.00  0.00     0.040 A 
HETATM   12  C   UNL     1     -53.670  49.901  11.431  1.00  0.00     0.101 A 
BRANCH   9  13
HETATM   13  C   UNL     1     -52.636  48.774  15.452  1.00  0.00     0.045 C 
HETATM   14  C   UNL     1     -51.148  48.538  15.717  1.00  0.00     0.132 C 
HETATM   15  N   UNL     1     -51.135  47.702  16.884  1.00  0.00    -0.360 N 
HETATM   16  C   UNL     1     -52.340  47.040  17.078  1.00  0.00     0.218 C 
HETATM   17  H   UNL     1     -50.357  47.608  17.480  1.00  0.00     0.162 HD
HETATM   18  O   UNL     1     -52.611  46.233  17.954  1.00  0.00    -0.274 OA
HETATM   19  C   UNL     1     -53.263  47.462  15.962  1.00  0.00     0.113 C 
ENDBRANCH   9  13
BRANCH  12  20
HETATM   20  O   UNL     1     -54.001  50.270  10.162  1.00  0.00    -0.353 OA
HETATM   21  C   UNL     1     -54.004  51.667   9.874  1.00  0.00     0.210 C 
ENDBRANCH  12  20
ENDBRANCH   1   7
TORSDOF 4
ENDMDL
MODEL 6
REMARK VINA RESULT:     -19.7      1.750      2.604
REMARK  4 active torsions:
REMARK  status: ('A' for Active; 'I' for Inactive)
REMARK    1  A    between atoms: O_1  and  C_5 
REMARK    2  A    between atoms: O_1  and  C_14 
REMARK    3  A    between atoms: O_2  and  C_18 
REMARK    4  A    between atoms: C_10  and  C_13 
ROOT
HETATM    1  O   UNL     1     -52.419  46.343   9.310  1.00  0.00    -0.343 OA
ENDROOT
BRANCH   1   2
HETATM    2  C   UNL     1     -52.427  45.156  10.093  1.00  0.00     0.129 C 
HETATM    3  C   UNL     1     -51.797  44.021   9.300  1.00  0.00     0.032 C 
HETATM    4  C   UNL     1     -52.904  43.552   8.358  1.00  0.00     0.002 C 
HETATM    5  C   UNL     1     -54.222  43.997   8.991  1.00  0.00     0.002 C 
HETATM    6  C   UNL     1     -53.853  44.673  10.309  1.00  0.00     0.032 C 
ENDBRANCH   1   2
BRANCH   1   7
HETATM    7  C   UNL     1     -52.884  47.483   9.911  1.00  0.00     0.103 A 
HETATM    8  C   UNL     1     -52.878  47.568  11.300  1.00  0.00     0.047 A 
HETATM    9  C   UNL     1     -53.349  48.722  11.924  1.00  0.00    -0.049 A 
HETATM   10  C   UNL     1     -53.825  49.786  11.157  1.00  0.00     0.010 A 
HETATM   11  C   UNL     1     -53.828  49.694   9.765  1.00  0.00     0.040 A 
HETATM   12  C   UNL     1     -53.357  48.539   9.141  1.00  0.00     0.101 A 
BRANCH   9  13
HETATM   13  C   UNL     1     -53.345  48.822  13.434  1.00  0.00     0.045 C 
HETATM   14  C   UNL     1     -53.160  50.227  14.009  1.00  0.00     0.132 C 
HETATM   15  N   UNL     1     -52.672  49.992  15.339  1.00  0.00    -0.360 N 
HETATM   16  C   UNL     1     -52.112  48.730  15.486  1.00  0.00     0.218 C 
HETATM   17  H   UNL     1     -52.727  50.653  16.066  1.00  0.00     0.162 HD
HETATM   18  O   UNL     1     -51.579  48.266  16.482  1.00  0.00    -0.274 OA
HETATM   19  C   UNL     1     -52.233  48.033  14.153  1.00  0.00     0.113 C 
ENDBRANCH   9  13
BRANCH  12  20
HETATM   20  O   UNL     1     -53.367  48.461   7.781  1.00  0.00    -0.353 OA
HETATM   21  C   UNL     1     -52.127  48.680   7.110  1.00  0.00     0.210 C 
ENDBRANCH  12  20
ENDBRANCH   1   7
TORSDOF 4
ENDMDL
MODEL 7
REMARK VINA RESULT:     -19.7      2.643      6.537
REMARK  4 active torsions:
REMARK  status: ('A' for Active; 'I' for Inactive)
REMARK    1  A    between atoms: O_1  and  C_5 
REMARK    2  A    between atoms: O_1  and  C_14 
REMARK    3  A    between atoms: O_2  and  C_18 
REMARK    4  A    between atoms: C_10  and  C_13 
ROOT
HETATM    1  O   UNL     1     -51.269  46.427  14.262  1.00  0.00    -0.343 OA
ENDROOT
BRANCH   1   2
HETATM    2  C   UNL     1     -52.001  45.250  14.577  1.00  0.00     0.129 C 
HETATM    3  C   UNL     1     -51.677  44.816  15.998  1.00  0.00     0.032 C 
HETATM    4  C   UNL     1     -50.335  44.096  15.881  1.00  0.00     0.002 C 
HETATM    5  C   UNL     1     -50.213  43.650  14.425  1.00  0.00     0.002 C 
HETATM    6  C   UNL     1     -51.509  44.080  13.740  1.00  0.00     0.032 C 
ENDBRANCH   1   2
BRANCH   1   7
HETATM    7  C   UNL     1     -51.988  47.587  14.135  1.00  0.00     0.103 A 
HETATM    8  C   UNL     1     -52.585  47.884  12.914  1.00  0.00     0.047 A 
HETATM    9  C   UNL     1     -53.318  49.061  12.772  1.00  0.00    -0.049 A 
HETATM   10  C   UNL     1     -53.450  49.936  13.850  1.00  0.00     0.010 A 
HETATM   11  C   UNL     1     -52.850  49.631  15.072  1.00  0.00     0.040 A 
HETATM   12  C   UNL     1     -52.116  48.454  15.214  1.00  0.00     0.101 A 
BRANCH   9  13
HETATM   13  C   UNL     1     -53.970  49.391  11.446  1.00  0.00     0.045 C 
HETATM   14  C   UNL     1     -53.423  48.643  10.229  1.00  0.00     0.132 C 
HETATM   15  N   UNL     1     -53.794  49.475   9.120  1.00  0.00    -0.360 N 
HETATM   16  C   UNL     1     -54.056  50.785   9.500  1.00  0.00     0.218 C 
HETATM   17  H   UNL     1     -53.855  49.153   8.192  1.00  0.00     0.162 HD
HETATM   18  O   UNL     1     -54.348  51.723   8.775  1.00  0.00    -0.274 OA
HETATM   19  C   UNL     1     -53.861  50.860  10.994  1.00  0.00     0.113 C 
ENDBRANCH   9  13
BRANCH  12  20
HETATM   20  O   UNL     1     -51.533  48.169  16.412  1.00  0.00    -0.353 OA
HETATM   21  C   UNL     1     -50.108  48.194  16.461  1.00  0.00     0.210 C 
ENDBRANCH  12  20
ENDBRANCH   1   7
TORSDOF 4
ENDMDL
MODEL 8
REMARK VINA RESULT:     -19.6      2.807      6.534
REMARK  4 active torsions:
REMARK  status: ('A' for Active; 'I' for Inactive)
REMARK    1  A    between atoms: O_1  and  C_5 
REMARK    2  A    between atoms: O_1  and  C_14 
REMARK    3  A    between atoms: O_2  and  C_18 
REMARK    4  A    between atoms: C_10  and  C_13 
ROOT
HETATM    1  O   UNL     1     -52.618  47.286  14.373  1.00  0.00    -0.343 OA
ENDROOT
BRANCH   1   2
HETATM    2  C   UNL     1     -51.229  47.013  14.515  1.00  0.00     0.129 C 
HETATM    3  C   UNL     1     -51.037  45.554  14.901  1.00  0.00     0.032 C 
HETATM    4  C   UNL     1     -51.321  45.516  16.402  1.00  0.00     0.002 C 
HETATM    5  C   UNL     1     -51.110  46.939  16.915  1.00  0.00     0.002 C 
HETATM    6  C   UNL     1     -50.661  47.762  15.709  1.00  0.00     0.032 C 
ENDBRANCH   1   2
BRANCH   1   7
HETATM    7  C   UNL     1     -52.969  48.239  13.455  1.00  0.00     0.103 A 
HETATM    8  C   UNL     1     -52.960  47.914  12.102  1.00  0.00     0.047 A 
HETATM    9  C   UNL     1     -53.314  48.876  11.157  1.00  0.00    -0.049 A 
HETATM   10  C   UNL     1     -53.676  50.159  11.569  1.00  0.00     0.010 A 
HETATM   11  C   UNL     1     -53.684  50.478  12.927  1.00  0.00     0.040 A 
HETATM   12  C   UNL     1     -53.328  49.516  13.872  1.00  0.00     0.101 A 
BRANCH   9  13
HETATM   13  C   UNL     1     -53.307  48.529   9.684  1.00  0.00     0.045 C 
HETATM   14  C   UNL     1     -54.119  49.454   8.777  1.00  0.00     0.132 C 
HETATM   15  N   UNL     1     -54.383  48.652   7.616  1.00  0.00    -0.360 N 
HETATM   16  C   UNL     1     -54.264  47.292   7.870  1.00  0.00     0.218 C 
HETATM   17  H   UNL     1     -54.622  49.025   6.737  1.00  0.00     0.162 HD
HETATM   18  O   UNL     1     -54.470  46.371   7.095  1.00  0.00    -0.274 OA
HETATM   19  C   UNL     1     -53.875  47.144   9.320  1.00  0.00     0.113 C 
ENDBRANCH   9  13
BRANCH  12  20
HETATM   20  O   UNL     1     -53.338  49.841  15.195  1.00  0.00    -0.353 OA
HETATM   21  C   UNL     1     -54.093  48.998  16.063  1.00  0.00     0.210 C 
ENDBRANCH  12  20
ENDBRANCH   1   7
TORSDOF 4
ENDMDL
MODEL 9
REMARK VINA RESULT:     -19.3      2.941      5.731
REMARK  4 active torsions:
REMARK  status: ('A' for Active; 'I' for Inactive)
REMARK    1  A    between atoms: O_1  and  C_5 
REMARK    2  A    between atoms: O_1  and  C_14 
REMARK    3  A    between atoms: O_2  and  C_18 
REMARK    4  A    between atoms: C_10  and  C_13 
ROOT
HETATM    1  O   UNL     1     -52.908  49.555  13.749  1.00  0.00    -0.343 OA
ENDROOT
BRANCH   1   2
HETATM    2  C   UNL     1     -53.186  48.344  14.442  1.00  0.00     0.129 C 
HETATM    3  C   UNL     1     -52.916  48.537  15.926  1.00  0.00     0.032 C 
HETATM    4  C   UNL     1     -51.400  48.406  16.059  1.00  0.00     0.002 C 
HETATM    5  C   UNL     1     -50.929  47.618  14.838  1.00  0.00     0.002 C 
HETATM    6  C   UNL     1     -52.188  47.267  14.048  1.00  0.00     0.032 C 
ENDBRANCH   1   2
BRANCH   1   7
HETATM    7  C   UNL     1     -53.313  49.626  12.442  1.00  0.00     0.103 A 
HETATM    8  C   UNL     1     -53.365  48.461  11.684  1.00  0.00     0.047 A 
HETATM    9  C   UNL     1     -53.774  48.520  10.353  1.00  0.00    -0.049 A 
HETATM   10  C   UNL     1     -54.129  49.744   9.785  1.00  0.00     0.010 A 
HETATM   11  C   UNL     1     -54.075  50.908  10.551  1.00  0.00     0.040 A 
HETATM   12  C   UNL     1     -53.665  50.849  11.883  1.00  0.00     0.101 A 
BRANCH   9  13
HETATM   13  C   UNL     1     -53.833  47.256   9.522  1.00  0.00     0.045 C 
HETATM   14  C   UNL     1     -55.201  46.908   8.934  1.00  0.00     0.132 C 
HETATM   15  N   UNL     1     -55.118  45.497   8.684  1.00  0.00    -0.360 N 
HETATM   16  C   UNL     1     -54.124  44.880   9.432  1.00  0.00     0.218 C 
HETATM   17  H   UNL     1     -55.702  45.019   8.052  1.00  0.00     0.162 HD
HETATM   18  O   UNL     1     -53.850  43.691   9.465  1.00  0.00    -0.274 OA
HETATM   19  C   UNL     1     -53.460  45.954  10.258  1.00  0.00     0.113 C 
ENDBRANCH   9  13
BRANCH  12  20
HETATM   20  O   UNL     1     -53.615  51.994  12.620  1.00  0.00    -0.353 OA
HETATM   21  C   UNL     1     -53.695  53.227  11.907  1.00  0.00     0.210 C 
ENDBRANCH  12  20
ENDBRANCH   1   7
TORSDOF 4
ENDMDL
