MODEL 1
REMARK VINA RESULT:      -8.1      0.000      0.000
REMARK  4 active torsions:
REMARK  status: ('A' for Active; 'I' for Inactive)
REMARK    1  A    between atoms: O_1  and  C_5 
REMARK    2  A    between atoms: O_1  and  C_14 
REMARK    3  A    between atoms: O_2  and  C_18 
REMARK    4  A    between atoms: C_10  and  C_13 
ROOT
HETATM    1  O   UNL     1     -54.108  43.867   8.325  1.00  0.00    -0.343 OA
ENDROOT
BRANCH   1   2
HETATM    2  C   UNL     1     -53.761  44.185   6.983  1.00  0.00     0.129 C 
HETATM    3  C   UNL     1     -54.943  43.894   6.071  1.00  0.00     0.032 C 
HETATM    4  C   UNL     1     -54.896  42.383   5.854  1.00  0.00     0.002 C 
HETATM    5  C   UNL     1     -53.458  41.953   6.141  1.00  0.00     0.002 C 
HETATM    6  C   UNL     1     -52.692  43.231   6.473  1.00  0.00     0.032 C 
ENDBRANCH   1   2
BRANCH   1   7
HETATM    7  C   UNL     1     -53.652  44.715   9.299  1.00  0.00     0.103 A 
HETATM    8  C   UNL     1     -54.052  46.048   9.280  1.00  0.00     0.047 A 
HETATM    9  C   UNL     1     -53.593  46.921  10.265  1.00  0.00    -0.049 A 
HETATM   10  C   UNL     1     -52.736  46.459  11.263  1.00  0.00     0.010 A 
HETATM   11  C   UNL     1     -52.339  45.122  11.277  1.00  0.00     0.040 A 
HETATM   12  C   UNL     1     -52.797  44.248  10.291  1.00  0.00     0.101 A 
BRANCH   9  13
HETATM   13  C   UNL     1     -54.025  48.372  10.250  1.00  0.00     0.045 C 
HETATM   14  C   UNL     1     -55.466  48.634   9.810  1.00  0.00     0.132 C 
HETATM   15  N   UNL     1     -55.450  50.004   9.382  1.00  0.00    -0.360 N 
HETATM   16  C   UNL     1     -54.173  50.450   9.069  1.00  0.00     0.218 C 
HETATM   17  H   UNL     1     -56.256  50.566   9.318  1.00  0.00     0.162 HD
HETATM   18  O   UNL     1     -53.854  51.547   8.637  1.00  0.00    -0.274 OA
HETATM   19  C   UNL     1     -53.229  49.298   9.310  1.00  0.00     0.113 C 
ENDBRANCH   9  13
BRANCH  12  20
HETATM   20  O   UNL     1     -52.401  42.945  10.314  1.00  0.00    -0.353 OA
HETATM   21  C   UNL     1     -51.066  42.667   9.896  1.00  0.00     0.210 C 
ENDBRANCH  12  20
ENDBRANCH   1   7
TORSDOF 4
ENDMDL
MODEL 2
REMARK VINA RESULT:      -7.9      3.405      6.289
REMARK  4 active torsions:
REMARK  status: ('A' for Active; 'I' for Inactive)
REMARK    1  A    between atoms: O_1  and  C_5 
REMARK    2  A    between atoms: O_1  and  C_14 
REMARK    3  A    between atoms: O_2  and  C_18 
REMARK    4  A    between atoms: C_10  and  C_13 
ROOT
HETATM    1  O   UNL     1     -51.744  47.525  13.726  1.00  0.00    -0.343 OA
ENDROOT
BRANCH   1   2
HETATM    2  C   UNL     1     -52.685  46.787  14.495  1.00  0.00     0.129 C 
HETATM    3  C   UNL     1     -53.025  47.562  15.759  1.00  0.00     0.032 C 
HETATM    4  C   UNL     1     -51.856  47.287  16.703  1.00  0.00     0.002 C 
HETATM    5  C   UNL     1     -51.210  45.989  16.219  1.00  0.00     0.002 C 
HETATM    6  C   UNL     1     -52.048  45.515  15.034  1.00  0.00     0.032 C 
ENDBRANCH   1   2
BRANCH   1   7
HETATM    7  C   UNL     1     -51.474  47.058  12.466  1.00  0.00     0.103 A 
HETATM    8  C   UNL     1     -52.489  47.051  11.514  1.00  0.00     0.047 A 
HETATM    9  C   UNL     1     -52.227  46.578  10.230  1.00  0.00    -0.049 A 
HETATM   10  C   UNL     1     -50.953  46.113   9.902  1.00  0.00     0.010 A 
HETATM   11  C   UNL     1     -49.940  46.124  10.861  1.00  0.00     0.040 A 
HETATM   12  C   UNL     1     -50.202  46.597  12.147  1.00  0.00     0.101 A 
BRANCH   9  13
HETATM   13  C   UNL     1     -53.326  46.567   9.189  1.00  0.00     0.045 C 
HETATM   14  C   UNL     1     -54.204  47.819   9.133  1.00  0.00     0.132 C 
HETATM   15  N   UNL     1     -55.411  47.363   8.503  1.00  0.00    -0.360 N 
HETATM   16  C   UNL     1     -55.572  45.987   8.593  1.00  0.00     0.218 C 
HETATM   17  H   UNL     1     -56.054  47.961   8.058  1.00  0.00     0.162 HD
HETATM   18  O   UNL     1     -56.516  45.323   8.192  1.00  0.00    -0.274 OA
HETATM   19  C   UNL     1     -54.375  45.447   9.334  1.00  0.00     0.113 C 
ENDBRANCH   9  13
BRANCH  12  20
HETATM   20  O   UNL     1     -49.205  46.601  13.075  1.00  0.00    -0.353 OA
HETATM   21  C   UNL     1     -48.658  45.336  13.444  1.00  0.00     0.210 C 
ENDBRANCH  12  20
ENDBRANCH   1   7
TORSDOF 4
ENDMDL
MODEL 3
REMARK VINA RESULT:      -7.8      3.137      7.058
REMARK  4 active torsions:
REMARK  status: ('A' for Active; 'I' for Inactive)
REMARK    1  A    between atoms: O_1  and  C_5 
REMARK    2  A    between atoms: O_1  and  C_14 
REMARK    3  A    between atoms: O_2  and  C_18 
REMARK    4  A    between atoms: C_10  and  C_13 
ROOT
HETATM    1  O   UNL     1     -52.192  47.499  12.292  1.00  0.00    -0.343 OA
ENDROOT
BRANCH   1   2
HETATM    2  C   UNL     1     -51.649  46.513  13.161  1.00  0.00     0.129 C 
HETATM    3  C   UNL     1     -52.542  46.369  14.384  1.00  0.00     0.032 C 
HETATM    4  C   UNL     1     -52.156  47.545  15.279  1.00  0.00     0.002 C 
HETATM    5  C   UNL     1     -50.750  47.965  14.853  1.00  0.00     0.002 C 
HETATM    6  C   UNL     1     -50.333  46.993  13.751  1.00  0.00     0.032 C 
ENDBRANCH   1   2
BRANCH   1   7
HETATM    7  C   UNL     1     -52.854  47.047  11.181  1.00  0.00     0.103 A 
HETATM    8  C   UNL     1     -52.755  45.703  10.832  1.00  0.00     0.047 A 
HETATM    9  C   UNL     1     -53.424  45.231   9.704  1.00  0.00    -0.049 A 
HETATM   10  C   UNL     1     -54.188  46.104   8.929  1.00  0.00     0.010 A 
HETATM   11  C   UNL     1     -54.284  47.449   9.285  1.00  0.00     0.040 A 
HETATM   12  C   UNL     1     -53.614  47.922  10.413  1.00  0.00     0.101 A 
BRANCH   9  13
HETATM   13  C   UNL     1     -53.321  43.771   9.319  1.00  0.00     0.045 C 
HETATM   14  C   UNL     1     -52.050  43.050   9.773  1.00  0.00     0.132 C 
HETATM   15  N   UNL     1     -51.952  41.932   8.877  1.00  0.00    -0.360 N 
HETATM   16  C   UNL     1     -52.674  42.122   7.707  1.00  0.00     0.218 C 
HETATM   17  H   UNL     1     -51.430  41.121   9.071  1.00  0.00     0.162 HD
HETATM   18  O   UNL     1     -52.743  41.370   6.747  1.00  0.00    -0.274 OA
HETATM   19  C   UNL     1     -53.334  43.475   7.807  1.00  0.00     0.113 C 
ENDBRANCH   9  13
BRANCH  12  20
HETATM   20  O   UNL     1     -53.714  49.239  10.749  1.00  0.00    -0.353 OA
HETATM   21  C   UNL     1     -54.074  50.146   9.709  1.00  0.00     0.210 C 
ENDBRANCH  12  20
ENDBRANCH   1   7
TORSDOF 4
ENDMDL
MODEL 4
REMARK VINA RESULT:      -7.5      3.156      6.717
REMARK  4 active torsions:
REMARK  status: ('A' for Active; 'I' for Inactive)
REMARK    1  A    between atoms: O_1  and  C_5 
REMARK    2  A    between atoms: O_1  and  C_14 
REMARK    3  A    between atoms: O_2  and  C_18 
REMARK    4  A    between atoms: C_10  and  C_13 
ROOT
HETATM    1  O   UNL     1     -53.391  46.653   8.461  1.00  0.00    -0.343 OA
ENDROOT
BRANCH   1   2
HETATM    2  C   UNL     1     -54.136  46.964   9.632  1.00  0.00     0.129 C 
HETATM    3  C   UNL     1     -55.435  47.651   9.239  1.00  0.00     0.032 C 
HETATM    4  C   UNL     1     -55.033  49.099   8.963  1.00  0.00     0.002 C 
HETATM    5  C   UNL     1     -53.723  49.331   9.716  1.00  0.00     0.002 C 
HETATM    6  C   UNL     1     -53.419  48.027  10.449  1.00  0.00     0.032 C 
ENDBRANCH   1   2
BRANCH   1   7
HETATM    7  C   UNL     1     -52.955  45.361   8.330  1.00  0.00     0.103 A 
HETATM    8  C   UNL     1     -51.693  45.020   8.806  1.00  0.00     0.047 A 
HETATM    9  C   UNL     1     -51.237  43.709   8.678  1.00  0.00    -0.049 A 
HETATM   10  C   UNL     1     -52.045  42.745   8.075  1.00  0.00     0.010 A 
HETATM   11  C   UNL     1     -53.310  43.093   7.601  1.00  0.00     0.040 A 
HETATM   12  C   UNL     1     -53.766  44.405   7.728  1.00  0.00     0.101 A 
BRANCH   9  13
HETATM   13  C   UNL     1     -49.865  43.331   9.193  1.00  0.00     0.045 C 
HETATM   14  C   UNL     1     -49.035  42.427   8.280  1.00  0.00     0.132 C 
HETATM   15  N   UNL     1     -48.091  41.814   9.170  1.00  0.00    -0.360 N 
HETATM   16  C   UNL     1     -48.507  41.849  10.494  1.00  0.00     0.218 C 
HETATM   17  H   UNL     1     -47.242  41.414   8.874  1.00  0.00     0.162 HD
HETATM   18  O   UNL     1     -47.938  41.370  11.464  1.00  0.00    -0.274 OA
HETATM   19  C   UNL     1     -49.841  42.552  10.522  1.00  0.00     0.113 C 
ENDBRANCH   9  13
BRANCH  12  20
HETATM   20  O   UNL     1     -55.002  44.733   7.260  1.00  0.00    -0.353 OA
HETATM   21  C   UNL     1     -55.411  44.130   6.033  1.00  0.00     0.210 C 
ENDBRANCH  12  20
ENDBRANCH   1   7
TORSDOF 4
ENDMDL
MODEL 5
REMARK VINA RESULT:      -7.5      3.077      6.066
REMARK  4 active torsions:
REMARK  status: ('A' for Active; 'I' for Inactive)
REMARK    1  A    between atoms: O_1  and  C_5 
REMARK    2  A    between atoms: O_1  and  C_14 
REMARK    3  A    between atoms: O_2  and  C_18 
REMARK    4  A    between atoms: C_10  and  C_13 
ROOT
HETATM    1  O   UNL     1     -53.608  46.831   8.478  1.00  0.00    -0.343 OA
ENDROOT
BRANCH   1   2
HETATM    2  C   UNL     1     -54.361  47.173   9.635  1.00  0.00     0.129 C 
HETATM    3  C   UNL     1     -55.617  47.923   9.218  1.00  0.00     0.032 C 
HETATM    4  C   UNL     1     -55.140  49.351   8.957  1.00  0.00     0.002 C 
HETATM    5  C   UNL     1     -53.837  49.517   9.738  1.00  0.00     0.002 C 
HETATM    6  C   UNL     1     -53.612  48.197  10.472  1.00  0.00     0.032 C 
ENDBRANCH   1   2
BRANCH   1   7
HETATM    7  C   UNL     1     -53.045  45.582   8.455  1.00  0.00     0.103 A 
HETATM    8  C   UNL     1     -51.795  45.390   9.034  1.00  0.00     0.047 A 
HETATM    9  C   UNL     1     -51.211  44.124   9.015  1.00  0.00    -0.049 A 
HETATM   10  C   UNL     1     -51.879  43.056   8.417  1.00  0.00     0.010 A 
HETATM   11  C   UNL     1     -53.133  43.255   7.839  1.00  0.00     0.040 A 
HETATM   12  C   UNL     1     -53.717  44.522   7.857  1.00  0.00     0.101 A 
BRANCH   9  13
HETATM   13  C   UNL     1     -49.852  43.909   9.644  1.00  0.00     0.045 C 
HETATM   14  C   UNL     1     -49.838  43.103  10.944  1.00  0.00     0.132 C 
HETATM   15  N   UNL     1     -48.608  43.489  11.574  1.00  0.00    -0.360 N 
HETATM   16  C   UNL     1     -48.124  44.701  11.101  1.00  0.00     0.218 C 
HETATM   17  H   UNL     1     -48.156  42.953  12.266  1.00  0.00     0.162 HD
HETATM   18  O   UNL     1     -47.129  45.301  11.477  1.00  0.00    -0.274 OA
HETATM   19  C   UNL     1     -49.092  45.186  10.052  1.00  0.00     0.113 C 
ENDBRANCH   9  13
BRANCH  12  20
HETATM   20  O   UNL     1     -54.941  44.703   7.286  1.00  0.00    -0.353 OA
HETATM   21  C   UNL     1     -55.187  44.032   6.052  1.00  0.00     0.210 C 
ENDBRANCH  12  20
ENDBRANCH   1   7
TORSDOF 4
ENDMDL
MODEL 6
REMARK VINA RESULT:      -7.3      2.778      6.128
REMARK  4 active torsions:
REMARK  status: ('A' for Active; 'I' for Inactive)
REMARK    1  A    between atoms: O_1  and  C_5 
REMARK    2  A    between atoms: O_1  and  C_14 
REMARK    3  A    between atoms: O_2  and  C_18 
REMARK    4  A    between atoms: C_10  and  C_13 
ROOT
HETATM    1  O   UNL     1     -53.294  48.215  10.849  1.00  0.00    -0.343 OA
ENDROOT
BRANCH   1   2
HETATM    2  C   UNL     1     -53.486  48.591   9.492  1.00  0.00     0.129 C 
HETATM    3  C   UNL     1     -53.539  50.108   9.389  1.00  0.00     0.032 C 
HETATM    4  C   UNL     1     -54.959  50.471   9.817  1.00  0.00     0.002 C 
HETATM    5  C   UNL     1     -55.805  49.216   9.605  1.00  0.00     0.002 C 
HETATM    6  C   UNL     1     -54.866  48.167   9.015  1.00  0.00     0.032 C 
ENDBRANCH   1   2
BRANCH   1   7
HETATM    7  C   UNL     1     -52.718  46.993  11.076  1.00  0.00     0.103 A 
HETATM    8  C   UNL     1     -52.451  46.158   9.996  1.00  0.00     0.047 A 
HETATM    9  C   UNL     1     -51.867  44.912  10.214  1.00  0.00    -0.049 A 
HETATM   10  C   UNL     1     -51.553  44.505  11.510  1.00  0.00     0.010 A 
HETATM   11  C   UNL     1     -51.822  45.347  12.589  1.00  0.00     0.040 A 
HETATM   12  C   UNL     1     -52.408  46.594  12.372  1.00  0.00     0.101 A 
BRANCH   9  13
HETATM   13  C   UNL     1     -51.572  43.999   9.043  1.00  0.00     0.045 C 
HETATM   14  C   UNL     1     -51.854  44.580   7.656  1.00  0.00     0.132 C 
HETATM   15  N   UNL     1     -52.011  43.422   6.824  1.00  0.00    -0.360 N 
HETATM   16  C   UNL     1     -52.321  42.280   7.551  1.00  0.00     0.218 C 
HETATM   17  H   UNL     1     -51.911  43.435   5.845  1.00  0.00     0.162 HD
HETATM   18  O   UNL     1     -52.554  41.163   7.116  1.00  0.00    -0.274 OA
HETATM   19  C   UNL     1     -52.370  42.681   9.005  1.00  0.00     0.113 C 
ENDBRANCH   9  13
BRANCH  12  20
HETATM   20  O   UNL     1     -52.668  47.406  13.434  1.00  0.00    -0.353 OA
HETATM   21  C   UNL     1     -52.694  46.798  14.724  1.00  0.00     0.210 C 
ENDBRANCH  12  20
ENDBRANCH   1   7
TORSDOF 4
ENDMDL
MODEL 7
REMARK VINA RESULT:      -7.2      1.490      1.582
REMARK  4 active torsions:
REMARK  status: ('A' for Active; 'I' for Inactive)
REMARK    1  A    between atoms: O_1  and  C_5 
REMARK    2  A    between atoms: O_1  and  C_14 
REMARK    3  A    between atoms: O_2  and  C_18 
REMARK    4  A    between atoms: C_10  and  C_13 
ROOT
HETATM    1  O   UNL     1     -51.751  44.855   8.089  1.00  0.00    -0.343 OA
ENDROOT
BRANCH   1   2
HETATM    2  C   UNL     1     -52.853  44.282   7.398  1.00  0.00     0.129 C 
HETATM    3  C   UNL     1     -53.041  42.842   7.850  1.00  0.00     0.032 C 
HETATM    4  C   UNL     1     -51.988  42.056   7.071  1.00  0.00     0.002 C 
HETATM    5  C   UNL     1     -51.641  42.902   5.847  1.00  0.00     0.002 C 
HETATM    6  C   UNL     1     -52.535  44.139   5.919  1.00  0.00     0.032 C 
ENDBRANCH   1   2
BRANCH   1   7
HETATM    7  C   UNL     1     -52.033  45.541   9.241  1.00  0.00     0.103 A 
HETATM    8  C   UNL     1     -52.789  46.707   9.169  1.00  0.00     0.047 A 
HETATM    9  C   UNL     1     -53.081  47.415  10.333  1.00  0.00    -0.049 A 
HETATM   10  C   UNL     1     -52.617  46.955  11.565  1.00  0.00     0.010 A 
HETATM   11  C   UNL     1     -51.860  45.785  11.631  1.00  0.00     0.040 A 
HETATM   12  C   UNL     1     -51.566  45.077  10.466  1.00  0.00     0.101 A 
BRANCH   9  13
HETATM   13  C   UNL     1     -53.904  48.683  10.261  1.00  0.00     0.045 C 
HETATM   14  C   UNL     1     -55.354  48.513   9.805  1.00  0.00     0.132 C 
HETATM   15  N   UNL     1     -55.718  49.816   9.324  1.00  0.00    -0.360 N 
HETATM   16  C   UNL     1     -54.613  50.592   8.999  1.00  0.00     0.218 C 
HETATM   17  H   UNL     1     -56.648  50.126   9.235  1.00  0.00     0.162 HD
HETATM   18  O   UNL     1     -54.610  51.718   8.527  1.00  0.00    -0.274 OA
HETATM   19  C   UNL     1     -53.387  49.762   9.289  1.00  0.00     0.113 C 
ENDBRANCH   9  13
BRANCH  12  20
HETATM   20  O   UNL     1     -50.824  43.937  10.544  1.00  0.00    -0.353 OA
HETATM   21  C   UNL     1     -49.409  44.077  10.437  1.00  0.00     0.210 C 
ENDBRANCH  12  20
ENDBRANCH   1   7
TORSDOF 4
ENDMDL
MODEL 8
REMARK VINA RESULT:      -7.2      3.665      6.589
REMARK  4 active torsions:
REMARK  status: ('A' for Active; 'I' for Inactive)
REMARK    1  A    between atoms: O_1  and  C_5 
REMARK    2  A    between atoms: O_1  and  C_14 
REMARK    3  A    between atoms: O_2  and  C_18 
REMARK    4  A    between atoms: C_10  and  C_13 
ROOT
HETATM    1  O   UNL     1     -50.828  46.887  14.448  1.00  0.00    -0.343 OA
ENDROOT
BRANCH   1   2
HETATM    2  C   UNL     1     -51.756  47.639  15.218  1.00  0.00     0.129 C 
HETATM    3  C   UNL     1     -51.022  48.755  15.947  1.00  0.00     0.032 C 
HETATM    4  C   UNL     1     -50.389  48.070  17.156  1.00  0.00     0.002 C 
HETATM    5  C   UNL     1     -51.197  46.796  17.399  1.00  0.00     0.002 C 
HETATM    6  C   UNL     1     -52.310  46.794  16.354  1.00  0.00     0.032 C 
ENDBRANCH   1   2
BRANCH   1   7
HETATM    7  C   UNL     1     -51.334  46.178  13.390  1.00  0.00     0.103 A 
HETATM    8  C   UNL     1     -51.907  46.865  12.325  1.00  0.00     0.047 A 
HETATM    9  C   UNL     1     -52.427  46.156  11.244  1.00  0.00    -0.049 A 
HETATM   10  C   UNL     1     -52.372  44.762  11.232  1.00  0.00     0.010 A 
HETATM   11  C   UNL     1     -51.795  44.079  12.303  1.00  0.00     0.040 A 
HETATM   12  C   UNL     1     -51.276  44.789  13.385  1.00  0.00     0.101 A 
BRANCH   9  13
HETATM   13  C   UNL     1     -53.051  46.897  10.082  1.00  0.00     0.045 C 
HETATM   14  C   UNL     1     -52.113  47.224   8.918  1.00  0.00     0.132 C 
HETATM   15  N   UNL     1     -52.758  48.323   8.256  1.00  0.00    -0.360 N 
HETATM   16  C   UNL     1     -53.660  48.985   9.078  1.00  0.00     0.218 C 
HETATM   17  H   UNL     1     -52.580  48.579   7.323  1.00  0.00     0.162 HD
HETATM   18  O   UNL     1     -54.320  49.977   8.809  1.00  0.00    -0.274 OA
HETATM   19  C   UNL     1     -53.645  48.280  10.412  1.00  0.00     0.113 C 
ENDBRANCH   9  13
BRANCH  12  20
HETATM   20  O   UNL     1     -50.717  44.110  14.426  1.00  0.00    -0.353 OA
HETATM   21  C   UNL     1     -51.558  43.199  15.131  1.00  0.00     0.210 C 
ENDBRANCH  12  20
ENDBRANCH   1   7
TORSDOF 4
ENDMDL
MODEL 9
REMARK VINA RESULT:      -7.2      2.818      4.413
REMARK  4 active torsions:
REMARK  status: ('A' for Active; 'I' for Inactive)
REMARK    1  A    between atoms: O_1  and  C_5 
REMARK    2  A    between atoms: O_1  and  C_14 
REMARK    3  A    between atoms: O_2  and  C_18 
REMARK    4  A    between atoms: C_10  and  C_13 
ROOT
HETATM    1  O   UNL     1     -53.843  43.927   8.797  1.00  0.00    -0.343 OA
ENDROOT
BRANCH   1   2
HETATM    2  C   UNL     1     -52.749  43.449   8.024  1.00  0.00     0.129 C 
HETATM    3  C   UNL     1     -52.577  44.327   6.793  1.00  0.00     0.032 C 
HETATM    4  C   UNL     1     -53.641  43.830   5.817  1.00  0.00     0.002 C 
HETATM    5  C   UNL     1     -53.983  42.403   6.245  1.00  0.00     0.002 C 
HETATM    6  C   UNL     1     -53.074  42.087   7.431  1.00  0.00     0.032 C 
ENDBRANCH   1   2
BRANCH   1   7
HETATM    7  C   UNL     1     -53.701  45.164   9.369  1.00  0.00     0.103 A 
HETATM    8  C   UNL     1     -52.739  45.348  10.358  1.00  0.00     0.047 A 
HETATM    9  C   UNL     1     -52.586  46.601  10.949  1.00  0.00    -0.049 A 
HETATM   10  C   UNL     1     -53.395  47.665  10.550  1.00  0.00     0.010 A 
HETATM   11  C   UNL     1     -54.357  47.474   9.557  1.00  0.00     0.040 A 
HETATM   12  C   UNL     1     -54.511  46.220   8.966  1.00  0.00     0.101 A 
BRANCH   9  13
HETATM   13  C   UNL     1     -51.542  46.807  12.024  1.00  0.00     0.045 C 
HETATM   14  C   UNL     1     -50.421  45.768  12.074  1.00  0.00     0.132 C 
HETATM   15  N   UNL     1     -49.920  45.867  13.416  1.00  0.00    -0.360 N 
HETATM   16  C   UNL     1     -50.835  46.448  14.285  1.00  0.00     0.218 C 
HETATM   17  H   UNL     1     -49.027  45.557  13.690  1.00  0.00     0.162 HD
HETATM   18  O   UNL     1     -50.709  46.622  15.487  1.00  0.00    -0.274 OA
HETATM   19  C   UNL     1     -52.062  46.787  13.475  1.00  0.00     0.113 C 
ENDBRANCH   9  13
BRANCH  12  20
HETATM   20  O   UNL     1     -55.455  46.046   8.000  1.00  0.00    -0.353 OA
HETATM   21  C   UNL     1     -56.809  45.921   8.432  1.00  0.00     0.210 C 
ENDBRANCH  12  20
ENDBRANCH   1   7
TORSDOF 4
ENDMDL
