MODEL 1
REMARK VINA RESULT:      -8.1      0.000      0.000
REMARK  4 active torsions:
REMARK  status: ('A' for Active; 'I' for Inactive)
REMARK    1  A    between atoms: O_1  and  C_5 
REMARK    2  A    between atoms: O_1  and  C_14 
REMARK    3  A    between atoms: O_2  and  C_18 
REMARK    4  A    between atoms: C_10  and  C_13 
ROOT
HETATM    1  O   UNL     1     -54.168  43.875   8.284  1.00  0.00    -0.343 OA
ENDROOT
BRANCH   1   2
HETATM    2  C   UNL     1     -53.805  44.174   6.942  1.00  0.00     0.129 C 
HETATM    3  C   UNL     1     -54.982  43.888   6.022  1.00  0.00     0.032 C 
HETATM    4  C   UNL     1     -54.951  42.374   5.821  1.00  0.00     0.002 C 
HETATM    5  C   UNL     1     -53.521  41.930   6.126  1.00  0.00     0.002 C 
HETATM    6  C   UNL     1     -52.743  43.203   6.451  1.00  0.00     0.032 C 
ENDBRANCH   1   2
BRANCH   1   7
HETATM    7  C   UNL     1     -53.695  44.718   9.254  1.00  0.00     0.103 A 
HETATM    8  C   UNL     1     -54.097  46.050   9.251  1.00  0.00     0.047 A 
HETATM    9  C   UNL     1     -53.621  46.917  10.233  1.00  0.00    -0.049 A 
HETATM   10  C   UNL     1     -52.746  46.451  11.213  1.00  0.00     0.010 A 
HETATM   11  C   UNL     1     -52.347  45.114  11.211  1.00  0.00     0.040 A 
HETATM   12  C   UNL     1     -52.822  44.245  10.228  1.00  0.00     0.101 A 
BRANCH   9  13
HETATM   13  C   UNL     1     -54.055  48.367  10.236  1.00  0.00     0.045 C 
HETATM   14  C   UNL     1     -55.500  48.632   9.810  1.00  0.00     0.132 C 
HETATM   15  N   UNL     1     -55.489  50.006   9.394  1.00  0.00    -0.360 N 
HETATM   16  C   UNL     1     -54.215  50.456   9.074  1.00  0.00     0.218 C 
HETATM   17  H   UNL     1     -56.296  50.568   9.342  1.00  0.00     0.162 HD
HETATM   18  O   UNL     1     -53.902  51.558   8.650  1.00  0.00    -0.274 OA
HETATM   19  C   UNL     1     -53.268  49.303   9.297  1.00  0.00     0.113 C 
ENDBRANCH   9  13
BRANCH  12  20
HETATM   20  O   UNL     1     -52.424  42.942  10.236  1.00  0.00    -0.353 OA
HETATM   21  C   UNL     1     -52.545  42.236  11.469  1.00  0.00     0.210 C 
ENDBRANCH  12  20
ENDBRANCH   1   7
TORSDOF 4
ENDMDL
MODEL 2
REMARK VINA RESULT:      -7.9      3.422      6.312
REMARK  4 active torsions:
REMARK  status: ('A' for Active; 'I' for Inactive)
REMARK    1  A    between atoms: O_1  and  C_5 
REMARK    2  A    between atoms: O_1  and  C_14 
REMARK    3  A    between atoms: O_2  and  C_18 
REMARK    4  A    between atoms: C_10  and  C_13 
ROOT
HETATM    1  O   UNL     1     -51.706  47.497  13.711  1.00  0.00    -0.343 OA
ENDROOT
BRANCH   1   2
HETATM    2  C   UNL     1     -52.683  46.785  14.459  1.00  0.00     0.129 C 
HETATM    3  C   UNL     1     -53.035  47.573  15.712  1.00  0.00     0.032 C 
HETATM    4  C   UNL     1     -51.896  47.274  16.684  1.00  0.00     0.002 C 
HETATM    5  C   UNL     1     -51.271  45.959  16.221  1.00  0.00     0.002 C 
HETATM    6  C   UNL     1     -52.091  45.500  15.017  1.00  0.00     0.032 C 
ENDBRANCH   1   2
BRANCH   1   7
HETATM    7  C   UNL     1     -51.448  47.044  12.444  1.00  0.00     0.103 A 
HETATM    8  C   UNL     1     -52.472  47.042  11.502  1.00  0.00     0.047 A 
HETATM    9  C   UNL     1     -52.222  46.582  10.210  1.00  0.00    -0.049 A 
HETATM   10  C   UNL     1     -50.950  46.126   9.865  1.00  0.00     0.010 A 
HETATM   11  C   UNL     1     -49.927  46.131  10.814  1.00  0.00     0.040 A 
HETATM   12  C   UNL     1     -50.177  46.590  12.107  1.00  0.00     0.101 A 
BRANCH   9  13
HETATM   13  C   UNL     1     -53.331  46.579   9.180  1.00  0.00     0.045 C 
HETATM   14  C   UNL     1     -54.212  47.829   9.144  1.00  0.00     0.132 C 
HETATM   15  N   UNL     1     -55.424  47.376   8.523  1.00  0.00    -0.360 N 
HETATM   16  C   UNL     1     -55.582  45.999   8.601  1.00  0.00     0.218 C 
HETATM   17  H   UNL     1     -56.073  47.976   8.089  1.00  0.00     0.162 HD
HETATM   18  O   UNL     1     -56.528  45.336   8.205  1.00  0.00    -0.274 OA
HETATM   19  C   UNL     1     -54.376  45.455   9.326  1.00  0.00     0.113 C 
ENDBRANCH   9  13
BRANCH  12  20
HETATM   20  O   UNL     1     -49.171  46.588  13.025  1.00  0.00    -0.353 OA
HETATM   21  C   UNL     1     -48.669  45.316  13.433  1.00  0.00     0.210 C 
ENDBRANCH  12  20
ENDBRANCH   1   7
TORSDOF 4
ENDMDL
MODEL 3
REMARK VINA RESULT:      -7.8      3.174      7.099
REMARK  4 active torsions:
REMARK  status: ('A' for Active; 'I' for Inactive)
REMARK    1  A    between atoms: O_1  and  C_5 
REMARK    2  A    between atoms: O_1  and  C_14 
REMARK    3  A    between atoms: O_2  and  C_18 
REMARK    4  A    between atoms: C_10  and  C_13 
ROOT
HETATM    1  O   UNL     1     -52.208  47.513  12.318  1.00  0.00    -0.343 OA
ENDROOT
BRANCH   1   2
HETATM    2  C   UNL     1     -51.652  46.532  13.185  1.00  0.00     0.129 C 
HETATM    3  C   UNL     1     -52.532  46.388  14.417  1.00  0.00     0.032 C 
HETATM    4  C   UNL     1     -52.142  47.568  15.305  1.00  0.00     0.002 C 
HETATM    5  C   UNL     1     -50.742  47.992  14.864  1.00  0.00     0.002 C 
HETATM    6  C   UNL     1     -50.332  47.019  13.760  1.00  0.00     0.032 C 
ENDBRANCH   1   2
BRANCH   1   7
HETATM    7  C   UNL     1     -52.864  47.056  11.206  1.00  0.00     0.103 A 
HETATM    8  C   UNL     1     -52.753  45.713  10.858  1.00  0.00     0.047 A 
HETATM    9  C   UNL     1     -53.415  45.236   9.728  1.00  0.00    -0.049 A 
HETATM   10  C   UNL     1     -54.184  46.102   8.951  1.00  0.00     0.010 A 
HETATM   11  C   UNL     1     -54.292  47.446   9.306  1.00  0.00     0.040 A 
HETATM   12  C   UNL     1     -53.629  47.925  10.436  1.00  0.00     0.101 A 
BRANCH   9  13
HETATM   13  C   UNL     1     -53.299  43.776   9.343  1.00  0.00     0.045 C 
HETATM   14  C   UNL     1     -52.011  43.073   9.775  1.00  0.00     0.132 C 
HETATM   15  N   UNL     1     -51.914  41.955   8.880  1.00  0.00    -0.360 N 
HETATM   16  C   UNL     1     -52.659  42.133   7.722  1.00  0.00     0.218 C 
HETATM   17  H   UNL     1     -51.377  41.151   9.066  1.00  0.00     0.162 HD
HETATM   18  O   UNL     1     -52.735  41.379   6.765  1.00  0.00    -0.274 OA
HETATM   19  C   UNL     1     -53.335  43.477   7.832  1.00  0.00     0.113 C 
ENDBRANCH   9  13
BRANCH  12  20
HETATM   20  O   UNL     1     -53.740  49.241  10.771  1.00  0.00    -0.353 OA
HETATM   21  C   UNL     1     -53.995  50.160   9.711  1.00  0.00     0.210 C 
ENDBRANCH  12  20
ENDBRANCH   1   7
TORSDOF 4
ENDMDL
MODEL 4
REMARK VINA RESULT:      -7.5      3.417      6.793
REMARK  4 active torsions:
REMARK  status: ('A' for Active; 'I' for Inactive)
REMARK    1  A    between atoms: O_1  and  C_5 
REMARK    2  A    between atoms: O_1  and  C_14 
REMARK    3  A    between atoms: O_2  and  C_18 
REMARK    4  A    between atoms: C_10  and  C_13 
ROOT
HETATM    1  O   UNL     1     -53.275  46.646   8.459  1.00  0.00    -0.343 OA
ENDROOT
BRANCH   1   2
HETATM    2  C   UNL     1     -54.051  46.926   9.617  1.00  0.00     0.129 C 
HETATM    3  C   UNL     1     -55.369  47.564   9.202  1.00  0.00     0.032 C 
HETATM    4  C   UNL     1     -55.019  49.026   8.934  1.00  0.00     0.002 C 
HETATM    5  C   UNL     1     -53.732  49.308   9.709  1.00  0.00     0.002 C 
HETATM    6  C   UNL     1     -53.390  48.015  10.447  1.00  0.00     0.032 C 
ENDBRANCH   1   2
BRANCH   1   7
HETATM    7  C   UNL     1     -52.833  45.359   8.308  1.00  0.00     0.103 A 
HETATM    8  C   UNL     1     -51.617  44.989   8.874  1.00  0.00     0.047 A 
HETATM    9  C   UNL     1     -51.155  43.682   8.726  1.00  0.00    -0.049 A 
HETATM   10  C   UNL     1     -51.910  42.751   8.014  1.00  0.00     0.010 A 
HETATM   11  C   UNL     1     -53.129  43.127   7.450  1.00  0.00     0.040 A 
HETATM   12  C   UNL     1     -53.591  44.435   7.596  1.00  0.00     0.101 A 
BRANCH   9  13
HETATM   13  C   UNL     1     -49.833  43.273   9.340  1.00  0.00     0.045 C 
HETATM   14  C   UNL     1     -48.879  42.508   8.420  1.00  0.00     0.132 C 
HETATM   15  N   UNL     1     -48.013  41.810   9.328  1.00  0.00    -0.360 N 
HETATM   16  C   UNL     1     -48.569  41.670  10.593  1.00  0.00     0.218 C 
HETATM   17  H   UNL     1     -47.124  41.468   9.081  1.00  0.00     0.162 HD
HETATM   18  O   UNL     1     -48.090  41.088  11.554  1.00  0.00    -0.274 OA
HETATM   19  C   UNL     1     -49.922  42.335  10.559  1.00  0.00     0.113 C 
ENDBRANCH   9  13
BRANCH  12  20
HETATM   20  O   UNL     1     -54.782  44.791   7.039  1.00  0.00    -0.353 OA
HETATM   21  C   UNL     1     -55.226  44.029   5.918  1.00  0.00     0.210 C 
ENDBRANCH  12  20
ENDBRANCH   1   7
TORSDOF 4
ENDMDL
MODEL 5
REMARK VINA RESULT:      -7.5      3.306      6.105
REMARK  4 active torsions:
REMARK  status: ('A' for Active; 'I' for Inactive)
REMARK    1  A    between atoms: O_1  and  C_5 
REMARK    2  A    between atoms: O_1  and  C_14 
REMARK    3  A    between atoms: O_2  and  C_18 
REMARK    4  A    between atoms: C_10  and  C_13 
ROOT
HETATM    1  O   UNL     1     -53.613  46.744   8.469  1.00  0.00    -0.343 OA
ENDROOT
BRANCH   1   2
HETATM    2  C   UNL     1     -54.357  47.097   9.629  1.00  0.00     0.129 C 
HETATM    3  C   UNL     1     -55.620  47.836   9.216  1.00  0.00     0.032 C 
HETATM    4  C   UNL     1     -55.153  49.262   8.933  1.00  0.00     0.002 C 
HETATM    5  C   UNL     1     -53.843  49.444   9.698  1.00  0.00     0.002 C 
HETATM    6  C   UNL     1     -53.603  48.135  10.446  1.00  0.00     0.032 C 
ENDBRANCH   1   2
BRANCH   1   7
HETATM    7  C   UNL     1     -53.015  45.511   8.470  1.00  0.00     0.103 A 
HETATM    8  C   UNL     1     -51.728  45.383   8.982  1.00  0.00     0.047 A 
HETATM    9  C   UNL     1     -51.107  44.134   8.987  1.00  0.00    -0.049 A 
HETATM   10  C   UNL     1     -51.776  43.020   8.481  1.00  0.00     0.010 A 
HETATM   11  C   UNL     1     -53.067  43.155   7.970  1.00  0.00     0.040 A 
HETATM   12  C   UNL     1     -53.688  44.405   7.964  1.00  0.00     0.101 A 
BRANCH   9  13
HETATM   13  C   UNL     1     -49.707  43.988   9.543  1.00  0.00     0.045 C 
HETATM   14  C   UNL     1     -49.544  42.982  10.684  1.00  0.00     0.132 C 
HETATM   15  N   UNL     1     -48.344  43.407  11.347  1.00  0.00    -0.360 N 
HETATM   16  C   UNL     1     -48.029  44.733  11.081  1.00  0.00     0.218 C 
HETATM   17  H   UNL     1     -47.804  42.823  11.927  1.00  0.00     0.162 HD
HETATM   18  O   UNL     1     -47.099  45.380  11.536  1.00  0.00    -0.274 OA
HETATM   19  C   UNL     1     -49.091  45.263  10.151  1.00  0.00     0.113 C 
ENDBRANCH   9  13
BRANCH  12  20
HETATM   20  O   UNL     1     -54.948  44.524   7.461  1.00  0.00    -0.353 OA
HETATM   21  C   UNL     1     -55.163  44.047   6.133  1.00  0.00     0.210 C 
ENDBRANCH  12  20
ENDBRANCH   1   7
TORSDOF 4
ENDMDL
MODEL 6
REMARK VINA RESULT:      -7.4      2.811      6.126
REMARK  4 active torsions:
REMARK  status: ('A' for Active; 'I' for Inactive)
REMARK    1  A    between atoms: O_1  and  C_5 
REMARK    2  A    between atoms: O_1  and  C_14 
REMARK    3  A    between atoms: O_2  and  C_18 
REMARK    4  A    between atoms: C_10  and  C_13 
ROOT
HETATM    1  O   UNL     1     -53.144  48.310  10.773  1.00  0.00    -0.343 OA
ENDROOT
BRANCH   1   2
HETATM    2  C   UNL     1     -53.419  48.710   9.436  1.00  0.00     0.129 C 
HETATM    3  C   UNL     1     -53.539  50.226   9.376  1.00  0.00     0.032 C 
HETATM    4  C   UNL     1     -54.950  50.518   9.883  1.00  0.00     0.002 C 
HETATM    5  C   UNL     1     -55.753  49.234   9.681  1.00  0.00     0.002 C 
HETATM    6  C   UNL     1     -54.803  48.240   9.017  1.00  0.00     0.032 C 
ENDBRANCH   1   2
BRANCH   1   7
HETATM    7  C   UNL     1     -52.541  47.091  10.940  1.00  0.00     0.103 A 
HETATM    8  C   UNL     1     -52.336  46.277   9.831  1.00  0.00     0.047 A 
HETATM    9  C   UNL     1     -51.725  45.034   9.989  1.00  0.00    -0.049 A 
HETATM   10  C   UNL     1     -51.322  44.610  11.255  1.00  0.00     0.010 A 
HETATM   11  C   UNL     1     -51.529  45.432  12.363  1.00  0.00     0.040 A 
HETATM   12  C   UNL     1     -52.141  46.675  12.205  1.00  0.00     0.101 A 
BRANCH   9  13
HETATM   13  C   UNL     1     -51.500  44.144   8.786  1.00  0.00     0.045 C 
HETATM   14  C   UNL     1     -52.168  44.596   7.486  1.00  0.00     0.132 C 
HETATM   15  N   UNL     1     -52.257  43.392   6.709  1.00  0.00    -0.360 N 
HETATM   16  C   UNL     1     -52.177  42.246   7.490  1.00  0.00     0.218 C 
HETATM   17  H   UNL     1     -52.363  43.380   5.731  1.00  0.00     0.162 HD
HETATM   18  O   UNL     1     -52.266  41.087   7.118  1.00  0.00    -0.274 OA
HETATM   19  C   UNL     1     -52.008  42.695   8.920  1.00  0.00     0.113 C 
ENDBRANCH   9  13
BRANCH  12  20
HETATM   20  O   UNL     1     -52.339  47.467  13.296  1.00  0.00    -0.353 OA
HETATM   21  C   UNL     1     -52.639  46.811  14.527  1.00  0.00     0.210 C 
ENDBRANCH  12  20
ENDBRANCH   1   7
TORSDOF 4
ENDMDL
MODEL 7
REMARK VINA RESULT:      -7.3      3.787      7.424
REMARK  4 active torsions:
REMARK  status: ('A' for Active; 'I' for Inactive)
REMARK    1  A    between atoms: O_1  and  C_5 
REMARK    2  A    between atoms: O_1  and  C_14 
REMARK    3  A    between atoms: O_2  and  C_18 
REMARK    4  A    between atoms: C_10  and  C_13 
ROOT
HETATM    1  O   UNL     1     -52.523  45.982   7.811  1.00  0.00    -0.343 OA
ENDROOT
BRANCH   1   2
HETATM    2  C   UNL     1     -52.486  46.360   9.181  1.00  0.00     0.129 C 
HETATM    3  C   UNL     1     -53.832  46.069   9.825  1.00  0.00     0.032 C 
HETATM    4  C   UNL     1     -54.720  47.237   9.401  1.00  0.00     0.002 C 
HETATM    5  C   UNL     1     -53.777  48.384   9.041  1.00  0.00     0.002 C 
HETATM    6  C   UNL     1     -52.364  47.871   9.310  1.00  0.00     0.032 C 
ENDBRANCH   1   2
BRANCH   1   7
HETATM    7  C   UNL     1     -52.574  44.639   7.542  1.00  0.00     0.103 A 
HETATM    8  C   UNL     1     -51.447  43.858   7.777  1.00  0.00     0.047 A 
HETATM    9  C   UNL     1     -51.486  42.491   7.506  1.00  0.00    -0.049 A 
HETATM   10  C   UNL     1     -52.650  41.911   7.002  1.00  0.00     0.010 A 
HETATM   11  C   UNL     1     -53.776  42.700   6.769  1.00  0.00     0.040 A 
HETATM   12  C   UNL     1     -53.738  44.068   7.039  1.00  0.00     0.101 A 
BRANCH   9  13
HETATM   13  C   UNL     1     -50.264  41.635   7.760  1.00  0.00     0.045 C 
HETATM   14  C   UNL     1     -49.237  41.586   6.627  1.00  0.00     0.132 C 
HETATM   15  N   UNL     1     -48.513  40.371   6.871  1.00  0.00    -0.360 N 
HETATM   16  C   UNL     1     -49.222  39.480   7.667  1.00  0.00     0.218 C 
HETATM   17  H   UNL     1     -47.615  40.188   6.514  1.00  0.00     0.162 HD
HETATM   18  O   UNL     1     -48.884  38.355   8.004  1.00  0.00    -0.274 OA
HETATM   19  C   UNL     1     -50.535  40.138   8.009  1.00  0.00     0.113 C 
ENDBRANCH   9  13
BRANCH  12  20
HETATM   20  O   UNL     1     -54.844  44.829   6.806  1.00  0.00    -0.353 OA
HETATM   21  C   UNL     1     -55.873  44.248   6.006  1.00  0.00     0.210 C 
ENDBRANCH  12  20
ENDBRANCH   1   7
TORSDOF 4
ENDMDL
MODEL 8
REMARK VINA RESULT:      -7.1      2.672      3.463
REMARK  4 active torsions:
REMARK  status: ('A' for Active; 'I' for Inactive)
REMARK    1  A    between atoms: O_1  and  C_5 
REMARK    2  A    between atoms: O_1  and  C_14 
REMARK    3  A    between atoms: O_2  and  C_18 
REMARK    4  A    between atoms: C_10  and  C_13 
ROOT
HETATM    1  O   UNL     1     -53.846  42.628   7.595  1.00  0.00    -0.343 OA
ENDROOT
BRANCH   1   2
HETATM    2  C   UNL     1     -54.040  43.721   6.706  1.00  0.00     0.129 C 
HETATM    3  C   UNL     1     -54.930  43.284   5.552  1.00  0.00     0.032 C 
HETATM    4  C   UNL     1     -53.994  42.527   4.612  1.00  0.00     0.002 C 
HETATM    5  C   UNL     1     -52.581  43.016   4.929  1.00  0.00     0.002 C 
HETATM    6  C   UNL     1     -52.734  44.080   6.014  1.00  0.00     0.032 C 
ENDBRANCH   1   2
BRANCH   1   7
HETATM    7  C   UNL     1     -53.022  42.843   8.668  1.00  0.00     0.103 A 
HETATM    8  C   UNL     1     -53.287  43.907   9.525  1.00  0.00     0.047 A 
HETATM    9  C   UNL     1     -52.455  44.137  10.619  1.00  0.00    -0.049 A 
HETATM   10  C   UNL     1     -51.361  43.304  10.852  1.00  0.00     0.010 A 
HETATM   11  C   UNL     1     -51.101  42.239   9.989  1.00  0.00     0.040 A 
HETATM   12  C   UNL     1     -51.933  42.009   8.894  1.00  0.00     0.101 A 
BRANCH   9  13
HETATM   13  C   UNL     1     -52.739  45.292  11.556  1.00  0.00     0.045 C 
HETATM   14  C   UNL     1     -52.924  46.658  10.893  1.00  0.00     0.132 C 
HETATM   15  N   UNL     1     -52.646  47.591  11.948  1.00  0.00    -0.360 N 
HETATM   16  C   UNL     1     -51.897  47.029  12.973  1.00  0.00     0.218 C 
HETATM   17  H   UNL     1     -52.953  48.527  11.945  1.00  0.00     0.162 HD
HETATM   18  O   UNL     1     -51.474  47.586  13.974  1.00  0.00    -0.274 OA
HETATM   19  C   UNL     1     -51.647  45.589  12.602  1.00  0.00     0.113 C 
ENDBRANCH   9  13
BRANCH  12  20
HETATM   20  O   UNL     1     -51.666  40.967   8.057  1.00  0.00    -0.353 OA
HETATM   21  C   UNL     1     -50.967  39.854   8.612  1.00  0.00     0.210 C 
ENDBRANCH  12  20
ENDBRANCH   1   7
TORSDOF 4
ENDMDL
MODEL 9
REMARK VINA RESULT:      -7.1      3.122      6.717
REMARK  4 active torsions:
REMARK  status: ('A' for Active; 'I' for Inactive)
REMARK    1  A    between atoms: O_1  and  C_5 
REMARK    2  A    between atoms: O_1  and  C_14 
REMARK    3  A    between atoms: O_2  and  C_18 
REMARK    4  A    between atoms: C_10  and  C_13 
ROOT
HETATM    1  O   UNL     1     -53.686  46.013   8.285  1.00  0.00    -0.343 OA
ENDROOT
BRANCH   1   2
HETATM    2  C   UNL     1     -54.338  46.432   9.477  1.00  0.00     0.129 C 
HETATM    3  C   UNL     1     -55.603  47.199   9.121  1.00  0.00     0.032 C 
HETATM    4  C   UNL     1     -55.111  48.598   8.754  1.00  0.00     0.002 C 
HETATM    5  C   UNL     1     -53.747  48.762   9.423  1.00  0.00     0.002 C 
HETATM    6  C   UNL     1     -53.499  47.473  10.203  1.00  0.00     0.032 C 
ENDBRANCH   1   2
BRANCH   1   7
HETATM    7  C   UNL     1     -53.291  44.703   8.225  1.00  0.00     0.103 A 
HETATM    8  C   UNL     1     -52.652  44.136   9.323  1.00  0.00     0.047 A 
HETATM    9  C   UNL     1     -52.244  42.804   9.273  1.00  0.00    -0.049 A 
HETATM   10  C   UNL     1     -52.477  42.044   8.126  1.00  0.00     0.010 A 
HETATM   11  C   UNL     1     -53.118  42.619   7.029  1.00  0.00     0.040 A 
HETATM   12  C   UNL     1     -53.526  43.952   7.078  1.00  0.00     0.101 A 
BRANCH   9  13
HETATM   13  C   UNL     1     -51.549  42.180  10.464  1.00  0.00     0.045 C 
HETATM   14  C   UNL     1     -50.949  40.792  10.235  1.00  0.00     0.132 C 
HETATM   15  N   UNL     1     -50.851  40.238  11.556  1.00  0.00    -0.360 N 
HETATM   16  C   UNL     1     -51.698  40.865  12.461  1.00  0.00     0.218 C 
HETATM   17  H   UNL     1     -50.251  39.495  11.794  1.00  0.00     0.162 HD
HETATM   18  O   UNL     1     -51.865  40.584  13.637  1.00  0.00    -0.274 OA
HETATM   19  C   UNL     1     -52.431  41.946  11.707  1.00  0.00     0.113 C 
ENDBRANCH   9  13
BRANCH  12  20
HETATM   20  O   UNL     1     -54.150  44.502   5.999  1.00  0.00    -0.353 OA
HETATM   21  C   UNL     1     -55.547  44.251   5.862  1.00  0.00     0.210 C 
ENDBRANCH  12  20
ENDBRANCH   1   7
TORSDOF 4
ENDMDL
