MODEL 1
REMARK VINA RESULT:     -19.3      0.000      0.000
REMARK  7 active torsions:
REMARK  status: ('A' for Active; 'I' for Inactive)
REMARK    1  A    between atoms: O_1  and  C_2 
REMARK    2  A    between atoms: C_2  and  C_3 
REMARK    3  A    between atoms: C_2  and  C_8 
REMARK    4  A    between atoms: C_3  and  C_4 
REMARK    5  A    between atoms: C_4  and  C_5 
REMARK    6  A    between atoms: C_8  and  C_9 
REMARK    7  A    between atoms: C_11  and  O_15 
ROOT
HETATM    1  O   UNL     1     -54.017  51.604   8.144  1.00  0.00    -0.395 OA
HETATM    2  H   UNL     1     -53.270  51.625   7.526  1.00  0.00     0.210 HD
ENDROOT
BRANCH   1   3
HETATM    3  C   UNL     1     -53.749  50.661   9.184  1.00  0.00     0.122 C 
BRANCH   3   4
HETATM    4  C   UNL     1     -54.588  49.405   8.925  1.00  0.00     0.042 C 
BRANCH   4   5
HETATM    5  C   UNL     1     -53.805  48.341   8.162  1.00  0.00     0.116 C 
BRANCH   5   6
HETATM    6  C   UNL     1     -54.639  47.109   7.980  1.00  0.00     0.172 C 
HETATM    7  O   UNL     1     -55.592  46.776   8.664  1.00  0.00    -0.648 OA
HETATM    8  O   UNL     1     -54.256  46.369   6.923  1.00  0.00    -0.648 OA
ENDBRANCH   5   6
ENDBRANCH   4   5
ENDBRANCH   3   4
BRANCH   3   9
HETATM    9  C   UNL     1     -54.070  51.257  10.566  1.00  0.00     0.070 C 
BRANCH   9  10
HETATM   10  C   UNL     1     -53.663  50.353  11.706  1.00  0.00    -0.053 A 
HETATM   11  C   UNL     1     -53.522  50.862  13.004  1.00  0.00     0.043 A 
HETATM   12  C   UNL     1     -53.141  50.022  14.046  1.00  0.00     0.066 A 
HETATM   13  C   UNL     1     -52.892  48.672  13.821  1.00  0.00     0.036 A 
HETATM   14  C   UNL     1     -53.028  48.158  12.533  1.00  0.00     0.003 A 
HETATM   15  C   UNL     1     -53.410  48.992  11.480  1.00  0.00     0.007 A 
BRANCH  12  16
HETATM   16  O   UNL     1     -53.022  50.569  15.289  1.00  0.00    -0.361 OA
HETATM   17  H   UNL     1     -52.272  51.089  15.502  1.00  0.00     0.217 HD
ENDBRANCH  12  16
ENDBRANCH   9  10
ENDBRANCH   3   9
ENDBRANCH   1   3
TORSDOF 7
ENDMDL
MODEL 2
REMARK VINA RESULT:     -19.2      1.825      2.505
REMARK  7 active torsions:
REMARK  status: ('A' for Active; 'I' for Inactive)
REMARK    1  A    between atoms: O_1  and  C_2 
REMARK    2  A    between atoms: C_2  and  C_3 
REMARK    3  A    between atoms: C_2  and  C_8 
REMARK    4  A    between atoms: C_3  and  C_4 
REMARK    5  A    between atoms: C_4  and  C_5 
REMARK    6  A    between atoms: C_8  and  C_9 
REMARK    7  A    between atoms: C_11  and  O_15 
ROOT
HETATM    1  O   UNL     1     -54.565  49.349   8.142  1.00  0.00    -0.395 OA
HETATM    2  H   UNL     1     -54.884  48.542   7.710  1.00  0.00     0.210 HD
ENDROOT
BRANCH   1   3
HETATM    3  C   UNL     1     -53.295  49.096   8.746  1.00  0.00     0.122 C 
BRANCH   3   4
HETATM    4  C   UNL     1     -52.358  48.520   7.679  1.00  0.00     0.042 C 
BRANCH   4   5
HETATM    5  C   UNL     1     -52.924  47.251   7.049  1.00  0.00     0.116 C 
BRANCH   5   6
HETATM    6  C   UNL     1     -52.927  47.368   5.554  1.00  0.00     0.172 C 
HETATM    7  O   UNL     1     -52.301  48.178   4.893  1.00  0.00    -0.648 OA
HETATM    8  O   UNL     1     -53.693  46.435   4.957  1.00  0.00    -0.648 OA
ENDBRANCH   5   6
ENDBRANCH   4   5
ENDBRANCH   3   4
BRANCH   3   9
HETATM    9  C   UNL     1     -53.432  48.127   9.934  1.00  0.00     0.070 C 
BRANCH   9  10
HETATM   10  C   UNL     1     -53.387  48.825  11.273  1.00  0.00    -0.053 A 
HETATM   11  C   UNL     1     -53.693  50.188  11.378  1.00  0.00     0.043 A 
HETATM   12  C   UNL     1     -53.641  50.822  12.615  1.00  0.00     0.066 A 
HETATM   13  C   UNL     1     -53.286  50.121  13.763  1.00  0.00     0.036 A 
HETATM   14  C   UNL     1     -52.978  48.765  13.668  1.00  0.00     0.003 A 
HETATM   15  C   UNL     1     -53.027  48.119  12.430  1.00  0.00     0.007 A 
BRANCH  12  16
HETATM   16  O   UNL     1     -53.951  52.149  12.660  1.00  0.00    -0.361 OA
HETATM   17  H   UNL     1     -53.972  52.598  13.482  1.00  0.00     0.217 HD
ENDBRANCH  12  16
ENDBRANCH   9  10
ENDBRANCH   3   9
ENDBRANCH   1   3
TORSDOF 7
ENDMDL
MODEL 3
REMARK VINA RESULT:     -19.1      2.328      6.025
REMARK  7 active torsions:
REMARK  status: ('A' for Active; 'I' for Inactive)
REMARK    1  A    between atoms: O_1  and  C_2 
REMARK    2  A    between atoms: C_2  and  C_3 
REMARK    3  A    between atoms: C_2  and  C_8 
REMARK    4  A    between atoms: C_3  and  C_4 
REMARK    5  A    between atoms: C_4  and  C_5 
REMARK    6  A    between atoms: C_8  and  C_9 
REMARK    7  A    between atoms: C_11  and  O_15 
ROOT
HETATM    1  O   UNL     1     -54.872  49.745  14.928  1.00  0.00    -0.395 OA
HETATM    2  H   UNL     1     -55.143  48.891  15.299  1.00  0.00     0.210 HD
ENDROOT
BRANCH   1   3
HETATM    3  C   UNL     1     -53.789  49.547  14.017  1.00  0.00     0.122 C 
BRANCH   3   4
HETATM    4  C   UNL     1     -52.506  49.340  14.828  1.00  0.00     0.042 C 
BRANCH   4   5
HETATM    5  C   UNL     1     -52.226  47.862  15.089  1.00  0.00     0.116 C 
BRANCH   5   6
HETATM    6  C   UNL     1     -52.760  47.460  16.431  1.00  0.00     0.172 C 
HETATM    7  O   UNL     1     -53.924  47.508  16.788  1.00  0.00    -0.648 OA
HETATM    8  O   UNL     1     -51.806  46.981  17.251  1.00  0.00    -0.648 OA
ENDBRANCH   5   6
ENDBRANCH   4   5
ENDBRANCH   3   4
BRANCH   3   9
HETATM    9  C   UNL     1     -53.644  50.746  13.063  1.00  0.00     0.070 C 
BRANCH   9  10
HETATM   10  C   UNL     1     -53.720  50.353  11.606  1.00  0.00    -0.053 A 
HETATM   11  C   UNL     1     -53.895  51.325  10.613  1.00  0.00     0.043 A 
HETATM   12  C   UNL     1     -53.971  50.951   9.275  1.00  0.00     0.066 A 
HETATM   13  C   UNL     1     -53.876  49.615   8.899  1.00  0.00     0.036 A 
HETATM   14  C   UNL     1     -53.705  48.641   9.881  1.00  0.00     0.003 A 
HETATM   15  C   UNL     1     -53.627  49.005  11.227  1.00  0.00     0.007 A 
BRANCH  12  16
HETATM   16  O   UNL     1     -54.139  51.940   8.350  1.00  0.00    -0.361 OA
HETATM   17  H   UNL     1     -54.217  51.723   7.442  1.00  0.00     0.217 HD
ENDBRANCH  12  16
ENDBRANCH   9  10
ENDBRANCH   3   9
ENDBRANCH   1   3
TORSDOF 7
ENDMDL
MODEL 4
REMARK VINA RESULT:     -18.9      2.182      3.850
REMARK  7 active torsions:
REMARK  status: ('A' for Active; 'I' for Inactive)
REMARK    1  A    between atoms: O_1  and  C_2 
REMARK    2  A    between atoms: C_2  and  C_3 
REMARK    3  A    between atoms: C_2  and  C_8 
REMARK    4  A    between atoms: C_3  and  C_4 
REMARK    5  A    between atoms: C_4  and  C_5 
REMARK    6  A    between atoms: C_8  and  C_9 
REMARK    7  A    between atoms: C_11  and  O_15 
ROOT
HETATM    1  O   UNL     1     -56.036  46.661   8.831  1.00  0.00    -0.395 OA
HETATM    2  H   UNL     1     -55.907  45.715   8.659  1.00  0.00     0.210 HD
ENDROOT
BRANCH   1   3
HETATM    3  C   UNL     1     -54.829  47.367   8.536  1.00  0.00     0.122 C 
BRANCH   3   4
HETATM    4  C   UNL     1     -54.047  46.569   7.487  1.00  0.00     0.042 C 
BRANCH   4   5
HETATM    5  C   UNL     1     -52.891  47.376   6.901  1.00  0.00     0.116 C 
BRANCH   5   6
HETATM    6  C   UNL     1     -52.928  47.326   5.403  1.00  0.00     0.172 C 
HETATM    7  O   UNL     1     -52.304  48.045   4.641  1.00  0.00    -0.648 OA
HETATM    8  O   UNL     1     -53.724  46.347   4.931  1.00  0.00    -0.648 OA
ENDBRANCH   5   6
ENDBRANCH   4   5
ENDBRANCH   3   4
BRANCH   3   9
HETATM    9  C   UNL     1     -53.985  47.573   9.806  1.00  0.00     0.070 C 
BRANCH   9  10
HETATM   10  C   UNL     1     -53.942  49.014  10.258  1.00  0.00    -0.053 A 
HETATM   11  C   UNL     1     -54.122  50.056   9.338  1.00  0.00     0.043 A 
HETATM   12  C   UNL     1     -54.073  51.379   9.764  1.00  0.00     0.066 A 
HETATM   13  C   UNL     1     -53.845  51.693  11.100  1.00  0.00     0.036 A 
HETATM   14  C   UNL     1     -53.662  50.663  12.021  1.00  0.00     0.003 A 
HETATM   15  C   UNL     1     -53.710  49.330  11.605  1.00  0.00     0.007 A 
BRANCH  12  16
HETATM   16  O   UNL     1     -54.257  52.353   8.827  1.00  0.00    -0.361 OA
HETATM   17  H   UNL     1     -55.063  52.831   8.800  1.00  0.00     0.217 HD
ENDBRANCH  12  16
ENDBRANCH   9  10
ENDBRANCH   3   9
ENDBRANCH   1   3
TORSDOF 7
ENDMDL
MODEL 5
REMARK VINA RESULT:     -18.9      1.826      2.592
REMARK  7 active torsions:
REMARK  status: ('A' for Active; 'I' for Inactive)
REMARK    1  A    between atoms: O_1  and  C_2 
REMARK    2  A    between atoms: C_2  and  C_3 
REMARK    3  A    between atoms: C_2  and  C_8 
REMARK    4  A    between atoms: C_3  and  C_4 
REMARK    5  A    between atoms: C_4  and  C_5 
REMARK    6  A    between atoms: C_8  and  C_9 
REMARK    7  A    between atoms: C_11  and  O_15 
ROOT
HETATM    1  O   UNL     1     -52.540  49.479   7.471  1.00  0.00    -0.395 OA
HETATM    2  H   UNL     1     -52.301  48.863   6.761  1.00  0.00     0.210 HD
ENDROOT
BRANCH   1   3
HETATM    3  C   UNL     1     -53.441  48.836   8.375  1.00  0.00     0.122 C 
BRANCH   3   4
HETATM    4  C   UNL     1     -54.361  47.915   7.567  1.00  0.00     0.042 C 
BRANCH   4   5
HETATM    5  C   UNL     1     -53.597  46.752   6.939  1.00  0.00     0.116 C 
BRANCH   5   6
HETATM    6  C   UNL     1     -53.334  47.025   5.489  1.00  0.00     0.172 C 
HETATM    7  O   UNL     1     -52.721  47.975   5.032  1.00  0.00    -0.648 OA
HETATM    8  O   UNL     1     -53.825  46.068   4.678  1.00  0.00    -0.648 OA
ENDBRANCH   5   6
ENDBRANCH   4   5
ENDBRANCH   3   4
BRANCH   3   9
HETATM    9  C   UNL     1     -54.262  49.870   9.165  1.00  0.00     0.070 C 
BRANCH   9  10
HETATM   10  C   UNL     1     -53.905  49.910  10.633  1.00  0.00    -0.053 A 
HETATM   11  C   UNL     1     -53.515  48.743  11.304  1.00  0.00     0.043 A 
HETATM   12  C   UNL     1     -53.195  48.790  12.657  1.00  0.00     0.066 A 
HETATM   13  C   UNL     1     -53.258  49.985  13.366  1.00  0.00     0.036 A 
HETATM   14  C   UNL     1     -53.648  51.150  12.707  1.00  0.00     0.003 A 
HETATM   15  C   UNL     1     -53.971  51.115  11.348  1.00  0.00     0.007 A 
BRANCH  12  16
HETATM   16  O   UNL     1     -52.819  47.626  13.259  1.00  0.00    -0.361 OA
HETATM   17  H   UNL     1     -52.189  47.639  13.953  1.00  0.00     0.217 HD
ENDBRANCH  12  16
ENDBRANCH   9  10
ENDBRANCH   3   9
ENDBRANCH   1   3
TORSDOF 7
ENDMDL
MODEL 6
REMARK VINA RESULT:     -18.8      1.719      3.065
REMARK  7 active torsions:
REMARK  status: ('A' for Active; 'I' for Inactive)
REMARK    1  A    between atoms: O_1  and  C_2 
REMARK    2  A    between atoms: C_2  and  C_3 
REMARK    3  A    between atoms: C_2  and  C_8 
REMARK    4  A    between atoms: C_3  and  C_4 
REMARK    5  A    between atoms: C_4  and  C_5 
REMARK    6  A    between atoms: C_8  and  C_9 
REMARK    7  A    between atoms: C_11  and  O_15 
ROOT
HETATM    1  O   UNL     1     -55.449  46.927   8.538  1.00  0.00    -0.395 OA
HETATM    2  H   UNL     1     -55.253  45.984   8.646  1.00  0.00     0.210 HD
ENDROOT
BRANCH   1   3
HETATM    3  C   UNL     1     -54.255  47.687   8.739  1.00  0.00     0.122 C 
BRANCH   3   4
HETATM    4  C   UNL     1     -53.137  47.062   7.899  1.00  0.00     0.042 C 
BRANCH   4   5
HETATM    5  C   UNL     1     -52.574  48.044   6.876  1.00  0.00     0.116 C 
BRANCH   5   6
HETATM    6  C   UNL     1     -52.884  47.582   5.484  1.00  0.00     0.172 C 
HETATM    7  O   UNL     1     -53.698  46.729   5.171  1.00  0.00    -0.648 OA
HETATM    8  O   UNL     1     -52.179  48.240   4.544  1.00  0.00    -0.648 OA
ENDBRANCH   5   6
ENDBRANCH   4   5
ENDBRANCH   3   4
BRANCH   3   9
HETATM    9  C   UNL     1     -53.867  47.720  10.228  1.00  0.00     0.070 C 
BRANCH   9  10
HETATM   10  C   UNL     1     -53.828  49.119  10.797  1.00  0.00    -0.053 A 
HETATM   11  C   UNL     1     -53.637  49.326  12.170  1.00  0.00     0.043 A 
HETATM   12  C   UNL     1     -53.610  50.618  12.684  1.00  0.00     0.066 A 
HETATM   13  C   UNL     1     -53.772  51.722  11.853  1.00  0.00     0.036 A 
HETATM   14  C   UNL     1     -53.965  51.525  10.487  1.00  0.00     0.003 A 
HETATM   15  C   UNL     1     -53.993  50.232   9.960  1.00  0.00     0.007 A 
BRANCH  12  16
HETATM   16  O   UNL     1     -53.419  50.761  14.027  1.00  0.00    -0.361 OA
HETATM   17  H   UNL     1     -54.099  50.522  14.625  1.00  0.00     0.217 HD
ENDBRANCH  12  16
ENDBRANCH   9  10
ENDBRANCH   3   9
ENDBRANCH   1   3
TORSDOF 7
ENDMDL
MODEL 7
REMARK VINA RESULT:     -18.5      1.496      2.009
REMARK  7 active torsions:
REMARK  status: ('A' for Active; 'I' for Inactive)
REMARK    1  A    between atoms: O_1  and  C_2 
REMARK    2  A    between atoms: C_2  and  C_3 
REMARK    3  A    between atoms: C_2  and  C_8 
REMARK    4  A    between atoms: C_3  and  C_4 
REMARK    5  A    between atoms: C_4  and  C_5 
REMARK    6  A    between atoms: C_8  and  C_9 
REMARK    7  A    between atoms: C_11  and  O_15 
ROOT
HETATM    1  O   UNL     1     -54.222  50.688   8.226  1.00  0.00    -0.395 OA
HETATM    2  H   UNL     1     -54.381  51.615   8.461  1.00  0.00     0.210 HD
ENDROOT
BRANCH   1   3
HETATM    3  C   UNL     1     -53.981  49.930   9.414  1.00  0.00     0.122 C 
BRANCH   3   4
HETATM    4  C   UNL     1     -55.036  48.822   9.502  1.00  0.00     0.042 C 
BRANCH   4   5
HETATM    5  C   UNL     1     -54.823  47.745   8.443  1.00  0.00     0.116 C 
BRANCH   5   6
HETATM    6  C   UNL     1     -54.944  46.382   9.054  1.00  0.00     0.172 C 
HETATM    7  O   UNL     1     -54.177  45.881   9.857  1.00  0.00    -0.648 OA
HETATM    8  O   UNL     1     -56.047  45.723   8.650  1.00  0.00    -0.648 OA
ENDBRANCH   5   6
ENDBRANCH   4   5
ENDBRANCH   3   4
BRANCH   3   9
HETATM    9  C   UNL     1     -54.030  50.831  10.662  1.00  0.00     0.070 C 
BRANCH   9  10
HETATM   10  C   UNL     1     -53.608  50.114  11.923  1.00  0.00    -0.053 A 
HETATM   11  C   UNL     1     -53.255  48.758  11.889  1.00  0.00     0.043 A 
HETATM   12  C   UNL     1     -52.874  48.106  13.057  1.00  0.00     0.066 A 
HETATM   13  C   UNL     1     -52.837  48.781  14.273  1.00  0.00     0.036 A 
HETATM   14  C   UNL     1     -53.189  50.129  14.316  1.00  0.00     0.003 A 
HETATM   15  C   UNL     1     -53.572  50.794  13.149  1.00  0.00     0.007 A 
BRANCH  12  16
HETATM   16  O   UNL     1     -52.539  46.787  12.966  1.00  0.00    -0.361 OA
HETATM   17  H   UNL     1     -52.894  46.170  13.576  1.00  0.00     0.217 HD
ENDBRANCH  12  16
ENDBRANCH   9  10
ENDBRANCH   3   9
ENDBRANCH   1   3
TORSDOF 7
ENDMDL
MODEL 8
REMARK VINA RESULT:     -18.5      1.518      2.094
REMARK  7 active torsions:
REMARK  status: ('A' for Active; 'I' for Inactive)
REMARK    1  A    between atoms: O_1  and  C_2 
REMARK    2  A    between atoms: C_2  and  C_3 
REMARK    3  A    between atoms: C_2  and  C_8 
REMARK    4  A    between atoms: C_3  and  C_4 
REMARK    5  A    between atoms: C_4  and  C_5 
REMARK    6  A    between atoms: C_8  and  C_9 
REMARK    7  A    between atoms: C_11  and  O_15 
ROOT
HETATM    1  O   UNL     1     -52.228  49.060   7.106  1.00  0.00    -0.395 OA
HETATM    2  H   UNL     1     -51.976  48.377   6.465  1.00  0.00     0.210 HD
ENDROOT
BRANCH   1   3
HETATM    3  C   UNL     1     -53.134  48.504   8.061  1.00  0.00     0.122 C 
BRANCH   3   4
HETATM    4  C   UNL     1     -54.089  47.556   7.328  1.00  0.00     0.042 C 
BRANCH   4   5
HETATM    5  C   UNL     1     -54.068  46.151   7.924  1.00  0.00     0.116 C 
BRANCH   5   6
HETATM    6  C   UNL     1     -55.325  45.896   8.700  1.00  0.00     0.172 C 
HETATM    7  O   UNL     1     -56.221  46.696   8.905  1.00  0.00    -0.648 OA
HETATM    8  O   UNL     1     -55.411  44.632   9.155  1.00  0.00    -0.648 OA
ENDBRANCH   5   6
ENDBRANCH   4   5
ENDBRANCH   3   4
BRANCH   3   9
HETATM    9  C   UNL     1     -53.918  49.612   8.788  1.00  0.00     0.070 C 
BRANCH   9  10
HETATM   10  C   UNL     1     -53.717  49.591  10.285  1.00  0.00    -0.053 A 
HETATM   11  C   UNL     1     -53.832  50.768  11.037  1.00  0.00     0.043 A 
HETATM   12  C   UNL     1     -53.638  50.739  12.414  1.00  0.00     0.066 A 
HETATM   13  C   UNL     1     -53.328  49.550  13.067  1.00  0.00     0.036 A 
HETATM   14  C   UNL     1     -53.209  48.375  12.327  1.00  0.00     0.003 A 
HETATM   15  C   UNL     1     -53.402  48.394  10.943  1.00  0.00     0.007 A 
BRANCH  12  16
HETATM   16  O   UNL     1     -53.764  51.913  13.096  1.00  0.00    -0.361 OA
HETATM   17  H   UNL     1     -54.350  52.575  12.786  1.00  0.00     0.217 HD
ENDBRANCH  12  16
ENDBRANCH   9  10
ENDBRANCH   3   9
ENDBRANCH   1   3
TORSDOF 7
ENDMDL
MODEL 9
REMARK VINA RESULT:     -18.4      2.007      6.116
REMARK  7 active torsions:
REMARK  status: ('A' for Active; 'I' for Inactive)
REMARK    1  A    between atoms: O_1  and  C_2 
REMARK    2  A    between atoms: C_2  and  C_3 
REMARK    3  A    between atoms: C_2  and  C_8 
REMARK    4  A    between atoms: C_3  and  C_4 
REMARK    5  A    between atoms: C_4  and  C_5 
REMARK    6  A    between atoms: C_8  and  C_9 
REMARK    7  A    between atoms: C_11  and  O_15 
ROOT
HETATM    1  O   UNL     1     -53.572  51.212  13.661  1.00  0.00    -0.395 OA
HETATM    2  H   UNL     1     -53.645  51.385  12.710  1.00  0.00     0.210 HD
ENDROOT
BRANCH   1   3
HETATM    3  C   UNL     1     -53.698  49.809  13.901  1.00  0.00     0.122 C 
BRANCH   3   4
HETATM    4  C   UNL     1     -52.759  49.429  15.050  1.00  0.00     0.042 C 
BRANCH   4   5
HETATM    5  C   UNL     1     -52.553  47.920  15.144  1.00  0.00     0.116 C 
BRANCH   5   6
HETATM    6  C   UNL     1     -53.088  47.401  16.444  1.00  0.00     0.172 C 
HETATM    7  O   UNL     1     -54.184  47.642  16.921  1.00  0.00    -0.648 OA
HETATM    8  O   UNL     1     -52.232  46.571  17.070  1.00  0.00    -0.648 OA
ENDBRANCH   5   6
ENDBRANCH   4   5
ENDBRANCH   3   4
BRANCH   3   9
HETATM    9  C   UNL     1     -53.366  49.001  12.634  1.00  0.00     0.070 C 
BRANCH   9  10
HETATM   10  C   UNL     1     -53.625  49.770  11.359  1.00  0.00    -0.053 A 
HETATM   11  C   UNL     1     -53.749  49.100  10.135  1.00  0.00     0.043 A 
HETATM   12  C   UNL     1     -53.981  49.819   8.967  1.00  0.00     0.066 A 
HETATM   13  C   UNL     1     -54.092  51.205   8.990  1.00  0.00     0.036 A 
HETATM   14  C   UNL     1     -53.967  51.880  10.203  1.00  0.00     0.003 A 
HETATM   15  C   UNL     1     -53.734  51.168  11.383  1.00  0.00     0.007 A 
BRANCH  12  16
HETATM   16  O   UNL     1     -54.096  49.116   7.803  1.00  0.00    -0.361 OA
HETATM   17  H   UNL     1     -54.763  48.464   7.713  1.00  0.00     0.217 HD
ENDBRANCH  12  16
ENDBRANCH   9  10
ENDBRANCH   3   9
ENDBRANCH   1   3
TORSDOF 7
ENDMDL
