MODEL 1
REMARK VINA RESULT:     -18.8      0.000      0.000
REMARK  7 active torsions:
REMARK  status: ('A' for Active; 'I' for Inactive)
REMARK    1  A    between atoms: O_1  and  C_2 
REMARK    2  A    between atoms: C_2  and  C_3 
REMARK    3  A    between atoms: C_2  and  C_8 
REMARK    4  A    between atoms: C_3  and  C_4 
REMARK    5  A    between atoms: C_4  and  C_5 
REMARK    6  A    between atoms: C_8  and  C_9 
REMARK    7  A    between atoms: C_11  and  O_15 
ROOT
HETATM    1  O   UNL     1     -54.394  49.737   8.136  1.00  0.00    -0.395 OA
HETATM    2  H   UNL     1     -54.219  50.669   7.933  1.00  0.00     0.210 HD
ENDROOT
BRANCH   1   3
HETATM    3  C   UNL     1     -53.253  49.167   8.780  1.00  0.00     0.122 C 
BRANCH   3   4
HETATM    4  C   UNL     1     -52.476  48.344   7.747  1.00  0.00     0.042 C 
BRANCH   4   5
HETATM    5  C   UNL     1     -53.383  47.386   6.980  1.00  0.00     0.116 C 
BRANCH   5   6
HETATM    6  C   UNL     1     -53.038  47.397   5.522  1.00  0.00     0.172 C 
HETATM    7  O   UNL     1     -52.333  48.212   4.952  1.00  0.00    -0.648 OA
HETATM    8  O   UNL     1     -53.570  46.357   4.850  1.00  0.00    -0.648 OA
ENDBRANCH   5   6
ENDBRANCH   4   5
ENDBRANCH   3   4
BRANCH   3   9
HETATM    9  C   UNL     1     -53.673  48.289   9.972  1.00  0.00     0.070 C 
BRANCH   9  10
HETATM   10  C   UNL     1     -53.535  48.995  11.301  1.00  0.00    -0.053 A 
HETATM   11  C   UNL     1     -53.777  50.370  11.407  1.00  0.00     0.043 A 
HETATM   12  C   UNL     1     -53.640  51.011  12.635  1.00  0.00     0.066 A 
HETATM   13  C   UNL     1     -53.261  50.304  13.771  1.00  0.00     0.036 A 
HETATM   14  C   UNL     1     -53.015  48.936  13.674  1.00  0.00     0.003 A 
HETATM   15  C   UNL     1     -53.150  48.283  12.447  1.00  0.00     0.007 A 
BRANCH  12  16
HETATM   16  O   UNL     1     -53.891  52.351  12.681  1.00  0.00    -0.361 OA
HETATM   17  H   UNL     1     -54.452  52.745  12.042  1.00  0.00     0.217 HD
ENDBRANCH  12  16
ENDBRANCH   9  10
ENDBRANCH   3   9
ENDBRANCH   1   3
TORSDOF 7
ENDMDL
MODEL 2
REMARK VINA RESULT:     -18.8      1.969      2.581
REMARK  7 active torsions:
REMARK  status: ('A' for Active; 'I' for Inactive)
REMARK    1  A    between atoms: O_1  and  C_2 
REMARK    2  A    between atoms: C_2  and  C_3 
REMARK    3  A    between atoms: C_2  and  C_8 
REMARK    4  A    between atoms: C_3  and  C_4 
REMARK    5  A    between atoms: C_4  and  C_5 
REMARK    6  A    between atoms: C_8  and  C_9 
REMARK    7  A    between atoms: C_11  and  O_15 
ROOT
HETATM    1  O   UNL     1     -54.048  51.593   8.171  1.00  0.00    -0.395 OA
HETATM    2  H   UNL     1     -54.998  51.746   8.055  1.00  0.00     0.210 HD
ENDROOT
BRANCH   1   3
HETATM    3  C   UNL     1     -53.844  50.613   9.191  1.00  0.00     0.122 C 
BRANCH   3   4
HETATM    4  C   UNL     1     -54.766  49.423   8.909  1.00  0.00     0.042 C 
BRANCH   4   5
HETATM    5  C   UNL     1     -54.116  48.404   7.976  1.00  0.00     0.116 C 
BRANCH   5   6
HETATM    6  C   UNL     1     -54.776  47.067   8.125  1.00  0.00     0.172 C 
HETATM    7  O   UNL     1     -54.424  46.026   7.597  1.00  0.00    -0.648 OA
HETATM    8  O   UNL     1     -55.832  47.093   8.960  1.00  0.00    -0.648 OA
ENDBRANCH   5   6
ENDBRANCH   4   5
ENDBRANCH   3   4
BRANCH   3   9
HETATM    9  C   UNL     1     -54.123  51.202  10.585  1.00  0.00     0.070 C 
BRANCH   9  10
HETATM   10  C   UNL     1     -53.681  50.293  11.708  1.00  0.00    -0.053 A 
HETATM   11  C   UNL     1     -53.524  50.790  13.009  1.00  0.00     0.043 A 
HETATM   12  C   UNL     1     -53.110  49.945  14.034  1.00  0.00     0.066 A 
HETATM   13  C   UNL     1     -52.844  48.602  13.790  1.00  0.00     0.036 A 
HETATM   14  C   UNL     1     -52.994  48.100  12.498  1.00  0.00     0.003 A 
HETATM   15  C   UNL     1     -53.410  48.939  11.462  1.00  0.00     0.007 A 
BRANCH  12  16
HETATM   16  O   UNL     1     -52.977  50.482  15.281  1.00  0.00    -0.361 OA
HETATM   17  H   UNL     1     -52.502  51.280  15.399  1.00  0.00     0.217 HD
ENDBRANCH  12  16
ENDBRANCH   9  10
ENDBRANCH   3   9
ENDBRANCH   1   3
TORSDOF 7
ENDMDL
MODEL 3
REMARK VINA RESULT:     -18.6      3.008      6.850
REMARK  7 active torsions:
REMARK  status: ('A' for Active; 'I' for Inactive)
REMARK    1  A    between atoms: O_1  and  C_2 
REMARK    2  A    between atoms: C_2  and  C_3 
REMARK    3  A    between atoms: C_2  and  C_8 
REMARK    4  A    between atoms: C_3  and  C_4 
REMARK    5  A    between atoms: C_4  and  C_5 
REMARK    6  A    between atoms: C_8  and  C_9 
REMARK    7  A    between atoms: C_11  and  O_15 
ROOT
HETATM    1  O   UNL     1     -54.847  49.745  14.909  1.00  0.00    -0.395 OA
HETATM    2  H   UNL     1     -55.472  50.371  14.510  1.00  0.00     0.210 HD
ENDROOT
BRANCH   1   3
HETATM    3  C   UNL     1     -53.745  49.543  14.022  1.00  0.00     0.122 C 
BRANCH   3   4
HETATM    4  C   UNL     1     -52.478  49.350  14.862  1.00  0.00     0.042 C 
BRANCH   4   5
HETATM    5  C   UNL     1     -52.173  47.875  15.106  1.00  0.00     0.116 C 
BRANCH   5   6
HETATM    6  C   UNL     1     -52.718  47.444  16.435  1.00  0.00     0.172 C 
HETATM    7  O   UNL     1     -53.880  47.514  16.796  1.00  0.00    -0.648 OA
HETATM    8  O   UNL     1     -51.777  46.911  17.238  1.00  0.00    -0.648 OA
ENDBRANCH   5   6
ENDBRANCH   4   5
ENDBRANCH   3   4
BRANCH   3   9
HETATM    9  C   UNL     1     -53.586  50.733  13.059  1.00  0.00     0.070 C 
BRANCH   9  10
HETATM   10  C   UNL     1     -53.703  50.335  11.606  1.00  0.00    -0.053 A 
HETATM   11  C   UNL     1     -53.881  51.306  10.612  1.00  0.00     0.043 A 
HETATM   12  C   UNL     1     -53.994  50.928   9.278  1.00  0.00     0.066 A 
HETATM   13  C   UNL     1     -53.934  49.589   8.907  1.00  0.00     0.036 A 
HETATM   14  C   UNL     1     -53.759  48.616   9.889  1.00  0.00     0.003 A 
HETATM   15  C   UNL     1     -53.644  48.984  11.232  1.00  0.00     0.007 A 
BRANCH  12  16
HETATM   16  O   UNL     1     -54.164  51.916   8.352  1.00  0.00    -0.361 OA
HETATM   17  H   UNL     1     -55.001  52.043   7.951  1.00  0.00     0.217 HD
ENDBRANCH  12  16
ENDBRANCH   9  10
ENDBRANCH   3   9
ENDBRANCH   1   3
TORSDOF 7
ENDMDL
MODEL 4
REMARK VINA RESULT:     -18.4      1.606      2.176
REMARK  7 active torsions:
REMARK  status: ('A' for Active; 'I' for Inactive)
REMARK    1  A    between atoms: O_1  and  C_2 
REMARK    2  A    between atoms: C_2  and  C_3 
REMARK    3  A    between atoms: C_2  and  C_8 
REMARK    4  A    between atoms: C_3  and  C_4 
REMARK    5  A    between atoms: C_4  and  C_5 
REMARK    6  A    between atoms: C_8  and  C_9 
REMARK    7  A    between atoms: C_11  and  O_15 
ROOT
HETATM    1  O   UNL     1     -55.978  46.699   8.883  1.00  0.00    -0.395 OA
HETATM    2  H   UNL     1     -56.398  47.114   9.652  1.00  0.00     0.210 HD
ENDROOT
BRANCH   1   3
HETATM    3  C   UNL     1     -54.772  47.396   8.565  1.00  0.00     0.122 C 
BRANCH   3   4
HETATM    4  C   UNL     1     -54.001  46.578   7.523  1.00  0.00     0.042 C 
BRANCH   4   5
HETATM    5  C   UNL     1     -52.841  47.366   6.922  1.00  0.00     0.116 C 
BRANCH   5   6
HETATM    6  C   UNL     1     -52.941  47.383   5.427  1.00  0.00     0.172 C 
HETATM    7  O   UNL     1     -52.376  48.158   4.675  1.00  0.00    -0.648 OA
HETATM    8  O   UNL     1     -53.724  46.400   4.943  1.00  0.00    -0.648 OA
ENDBRANCH   5   6
ENDBRANCH   4   5
ENDBRANCH   3   4
BRANCH   3   9
HETATM    9  C   UNL     1     -53.916  47.620   9.824  1.00  0.00     0.070 C 
BRANCH   9  10
HETATM   10  C   UNL     1     -53.899  49.062  10.276  1.00  0.00    -0.053 A 
HETATM   11  C   UNL     1     -54.084  50.101   9.354  1.00  0.00     0.043 A 
HETATM   12  C   UNL     1     -54.059  51.425   9.780  1.00  0.00     0.066 A 
HETATM   13  C   UNL     1     -53.850  51.742  11.119  1.00  0.00     0.036 A 
HETATM   14  C   UNL     1     -53.662  50.715  12.042  1.00  0.00     0.003 A 
HETATM   15  C   UNL     1     -53.685  49.381  11.625  1.00  0.00     0.007 A 
BRANCH  12  16
HETATM   16  O   UNL     1     -54.248  52.396   8.841  1.00  0.00    -0.361 OA
HETATM   17  H   UNL     1     -54.790  52.228   8.096  1.00  0.00     0.217 HD
ENDBRANCH  12  16
ENDBRANCH   9  10
ENDBRANCH   3   9
ENDBRANCH   1   3
TORSDOF 7
ENDMDL
MODEL 5
REMARK VINA RESULT:     -18.2      1.356      2.199
REMARK  7 active torsions:
REMARK  status: ('A' for Active; 'I' for Inactive)
REMARK    1  A    between atoms: O_1  and  C_2 
REMARK    2  A    between atoms: C_2  and  C_3 
REMARK    3  A    between atoms: C_2  and  C_8 
REMARK    4  A    between atoms: C_3  and  C_4 
REMARK    5  A    between atoms: C_4  and  C_5 
REMARK    6  A    between atoms: C_8  and  C_9 
REMARK    7  A    between atoms: C_11  and  O_15 
ROOT
HETATM    1  O   UNL     1     -55.908  47.091   8.887  1.00  0.00    -0.395 OA
HETATM    2  H   UNL     1     -55.926  46.198   8.509  1.00  0.00     0.210 HD
ENDROOT
BRANCH   1   3
HETATM    3  C   UNL     1     -54.604  47.653   8.720  1.00  0.00     0.122 C 
BRANCH   3   4
HETATM    4  C   UNL     1     -53.825  46.781   7.730  1.00  0.00     0.042 C 
BRANCH   4   5
HETATM    5  C   UNL     1     -52.774  47.582   6.967  1.00  0.00     0.116 C 
BRANCH   5   6
HETATM    6  C   UNL     1     -52.931  47.375   5.491  1.00  0.00     0.172 C 
HETATM    7  O   UNL     1     -53.617  46.525   4.950  1.00  0.00    -0.648 OA
HETATM    8  O   UNL     1     -52.243  48.273   4.760  1.00  0.00    -0.648 OA
ENDBRANCH   5   6
ENDBRANCH   4   5
ENDBRANCH   3   4
BRANCH   3   9
HETATM    9  C   UNL     1     -53.865  47.742  10.067  1.00  0.00     0.070 C 
BRANCH   9  10
HETATM   10  C   UNL     1     -53.837  49.143  10.633  1.00  0.00    -0.053 A 
HETATM   11  C   UNL     1     -53.654  49.355  12.006  1.00  0.00     0.043 A 
HETATM   12  C   UNL     1     -53.637  50.648  12.516  1.00  0.00     0.066 A 
HETATM   13  C   UNL     1     -53.801  51.749  11.681  1.00  0.00     0.036 A 
HETATM   14  C   UNL     1     -53.986  51.548  10.315  1.00  0.00     0.003 A 
HETATM   15  C   UNL     1     -54.005  50.253   9.791  1.00  0.00     0.007 A 
BRANCH  12  16
HETATM   16  O   UNL     1     -53.453  50.796  13.860  1.00  0.00    -0.361 OA
HETATM   17  H   UNL     1     -54.104  50.487  14.459  1.00  0.00     0.217 HD
ENDBRANCH  12  16
ENDBRANCH   9  10
ENDBRANCH   3   9
ENDBRANCH   1   3
TORSDOF 7
ENDMDL
MODEL 6
REMARK VINA RESULT:     -18.2      1.538      2.019
REMARK  7 active torsions:
REMARK  status: ('A' for Active; 'I' for Inactive)
REMARK    1  A    between atoms: O_1  and  C_2 
REMARK    2  A    between atoms: C_2  and  C_3 
REMARK    3  A    between atoms: C_2  and  C_8 
REMARK    4  A    between atoms: C_3  and  C_4 
REMARK    5  A    between atoms: C_4  and  C_5 
REMARK    6  A    between atoms: C_8  and  C_9 
REMARK    7  A    between atoms: C_11  and  O_15 
ROOT
HETATM    1  O   UNL     1     -52.541  49.598   7.641  1.00  0.00    -0.395 OA
HETATM    2  H   UNL     1     -52.639  49.335   6.713  1.00  0.00     0.210 HD
ENDROOT
BRANCH   1   3
HETATM    3  C   UNL     1     -53.466  48.863   8.445  1.00  0.00     0.122 C 
BRANCH   3   4
HETATM    4  C   UNL     1     -54.332  48.001   7.520  1.00  0.00     0.042 C 
BRANCH   4   5
HETATM    5  C   UNL     1     -53.552  46.825   6.938  1.00  0.00     0.116 C 
BRANCH   5   6
HETATM    6  C   UNL     1     -53.261  47.060   5.487  1.00  0.00     0.172 C 
HETATM    7  O   UNL     1     -52.689  48.026   5.012  1.00  0.00    -0.648 OA
HETATM    8  O   UNL     1     -53.673  46.048   4.700  1.00  0.00    -0.648 OA
ENDBRANCH   5   6
ENDBRANCH   4   5
ENDBRANCH   3   4
BRANCH   3   9
HETATM    9  C   UNL     1     -54.341  49.810   9.285  1.00  0.00     0.070 C 
BRANCH   9  10
HETATM   10  C   UNL     1     -53.942  49.845  10.742  1.00  0.00    -0.053 A 
HETATM   11  C   UNL     1     -53.527  48.677  11.396  1.00  0.00     0.043 A 
HETATM   12  C   UNL     1     -53.168  48.720  12.739  1.00  0.00     0.066 A 
HETATM   13  C   UNL     1     -53.215  49.912  13.455  1.00  0.00     0.036 A 
HETATM   14  C   UNL     1     -53.629  51.077  12.813  1.00  0.00     0.003 A 
HETATM   15  C   UNL     1     -53.992  51.046  11.464  1.00  0.00     0.007 A 
BRANCH  12  16
HETATM   16  O   UNL     1     -52.769  47.554  13.325  1.00  0.00    -0.361 OA
HETATM   17  H   UNL     1     -51.935  47.184  13.113  1.00  0.00     0.217 HD
ENDBRANCH  12  16
ENDBRANCH   9  10
ENDBRANCH   3   9
ENDBRANCH   1   3
TORSDOF 7
ENDMDL
MODEL 7
REMARK VINA RESULT:     -18.0      2.480      2.947
REMARK  7 active torsions:
REMARK  status: ('A' for Active; 'I' for Inactive)
REMARK    1  A    between atoms: O_1  and  C_2 
REMARK    2  A    between atoms: C_2  and  C_3 
REMARK    3  A    between atoms: C_2  and  C_8 
REMARK    4  A    between atoms: C_3  and  C_4 
REMARK    5  A    between atoms: C_4  and  C_5 
REMARK    6  A    between atoms: C_8  and  C_9 
REMARK    7  A    between atoms: C_11  and  O_15 
ROOT
HETATM    1  O   UNL     1     -54.344  48.270   6.918  1.00  0.00    -0.395 OA
HETATM    2  H   UNL     1     -54.734  47.437   6.609  1.00  0.00     0.210 HD
ENDROOT
BRANCH   1   3
HETATM    3  C   UNL     1     -54.208  48.234   8.340  1.00  0.00     0.122 C 
BRANCH   3   4
HETATM    4  C   UNL     1     -55.252  47.262   8.901  1.00  0.00     0.042 C 
BRANCH   4   5
HETATM    5  C   UNL     1     -54.695  45.850   9.052  1.00  0.00     0.116 C 
BRANCH   5   6
HETATM    6  C   UNL     1     -55.774  44.836   8.821  1.00  0.00     0.172 C 
HETATM    7  O   UNL     1     -56.967  45.064   8.717  1.00  0.00    -0.648 OA
HETATM    8  O   UNL     1     -55.298  43.583   8.699  1.00  0.00    -0.648 OA
ENDBRANCH   5   6
ENDBRANCH   4   5
ENDBRANCH   3   4
BRANCH   3   9
HETATM    9  C   UNL     1     -54.388  49.637   8.946  1.00  0.00     0.070 C 
BRANCH   9  10
HETATM   10  C   UNL     1     -53.986  49.707  10.401  1.00  0.00    -0.053 A 
HETATM   11  C   UNL     1     -53.976  50.932  11.081  1.00  0.00     0.043 A 
HETATM   12  C   UNL     1     -53.598  50.985  12.418  1.00  0.00     0.066 A 
HETATM   13  C   UNL     1     -53.225  49.833  13.102  1.00  0.00     0.036 A 
HETATM   14  C   UNL     1     -53.229  48.610  12.433  1.00  0.00     0.003 A 
HETATM   15  C   UNL     1     -53.607  48.545  11.090  1.00  0.00     0.007 A 
BRANCH  12  16
HETATM   16  O   UNL     1     -53.608  52.204  13.031  1.00  0.00    -0.361 OA
HETATM   17  H   UNL     1     -52.827  52.535  13.429  1.00  0.00     0.217 HD
ENDBRANCH  12  16
ENDBRANCH   9  10
ENDBRANCH   3   9
ENDBRANCH   1   3
TORSDOF 7
ENDMDL
MODEL 8
REMARK VINA RESULT:     -17.9      2.303      2.972
REMARK  7 active torsions:
REMARK  status: ('A' for Active; 'I' for Inactive)
REMARK    1  A    between atoms: O_1  and  C_2 
REMARK    2  A    between atoms: C_2  and  C_3 
REMARK    3  A    between atoms: C_2  and  C_8 
REMARK    4  A    between atoms: C_3  and  C_4 
REMARK    5  A    between atoms: C_4  and  C_5 
REMARK    6  A    between atoms: C_8  and  C_9 
REMARK    7  A    between atoms: C_11  and  O_15 
ROOT
HETATM    1  O   UNL     1     -52.952  49.937   7.842  1.00  0.00    -0.395 OA
HETATM    2  H   UNL     1     -53.539  50.149   7.100  1.00  0.00     0.210 HD
ENDROOT
BRANCH   1   3
HETATM    3  C   UNL     1     -53.708  49.318   8.885  1.00  0.00     0.122 C 
BRANCH   3   4
HETATM    4  C   UNL     1     -54.930  48.639   8.258  1.00  0.00     0.042 C 
BRANCH   4   5
HETATM    5  C   UNL     1     -55.427  47.467   9.100  1.00  0.00     0.116 C 
BRANCH   5   6
HETATM    6  C   UNL     1     -54.724  46.204   8.702  1.00  0.00     0.172 C 
HETATM    7  O   UNL     1     -54.476  45.844   7.564  1.00  0.00    -0.648 OA
HETATM    8  O   UNL     1     -54.334  45.467   9.759  1.00  0.00    -0.648 OA
ENDBRANCH   5   6
ENDBRANCH   4   5
ENDBRANCH   3   4
BRANCH   3   9
HETATM    9  C   UNL     1     -54.140  50.351   9.941  1.00  0.00     0.070 C 
BRANCH   9  10
HETATM   10  C   UNL     1     -53.741  49.962  11.345  1.00  0.00    -0.053 A 
HETATM   11  C   UNL     1     -53.328  48.654  11.632  1.00  0.00     0.043 A 
HETATM   12  C   UNL     1     -52.969  48.305  12.930  1.00  0.00     0.066 A 
HETATM   13  C   UNL     1     -53.014  49.238  13.960  1.00  0.00     0.036 A 
HETATM   14  C   UNL     1     -53.426  50.541  13.684  1.00  0.00     0.003 A 
HETATM   15  C   UNL     1     -53.788  50.903  12.384  1.00  0.00     0.007 A 
BRANCH  12  16
HETATM   16  O   UNL     1     -52.572  47.019  13.153  1.00  0.00    -0.361 OA
HETATM   17  H   UNL     1     -51.660  46.814  13.220  1.00  0.00     0.217 HD
ENDBRANCH  12  16
ENDBRANCH   9  10
ENDBRANCH   3   9
ENDBRANCH   1   3
TORSDOF 7
ENDMDL
MODEL 9
REMARK VINA RESULT:     -17.8      3.190      4.018
REMARK  7 active torsions:
REMARK  status: ('A' for Active; 'I' for Inactive)
REMARK    1  A    between atoms: O_1  and  C_2 
REMARK    2  A    between atoms: C_2  and  C_3 
REMARK    3  A    between atoms: C_2  and  C_8 
REMARK    4  A    between atoms: C_3  and  C_4 
REMARK    5  A    between atoms: C_4  and  C_5 
REMARK    6  A    between atoms: C_8  and  C_9 
REMARK    7  A    between atoms: C_11  and  O_15 
ROOT
HETATM    1  O   UNL     1     -55.989  46.905   8.894  1.00  0.00    -0.395 OA
HETATM    2  H   UNL     1     -56.318  46.323   9.597  1.00  0.00     0.210 HD
ENDROOT
BRANCH   1   3
HETATM    3  C   UNL     1     -54.597  46.657   8.685  1.00  0.00     0.122 C 
BRANCH   3   4
HETATM    4  C   UNL     1     -54.409  45.163   8.397  1.00  0.00     0.042 C 
BRANCH   4   5
HETATM    5  C   UNL     1     -55.112  44.290   9.432  1.00  0.00     0.116 C 
BRANCH   5   6
HETATM    6  C   UNL     1     -56.442  43.833   8.911  1.00  0.00     0.172 C 
HETATM    7  O   UNL     1     -56.892  44.044   7.799  1.00  0.00    -0.648 OA
HETATM    8  O   UNL     1     -57.130  43.099   9.806  1.00  0.00    -0.648 OA
ENDBRANCH   5   6
ENDBRANCH   4   5
ENDBRANCH   3   4
BRANCH   3   9
HETATM    9  C   UNL     1     -53.770  47.084   9.911  1.00  0.00     0.070 C 
BRANCH   9  10
HETATM   10  C   UNL     1     -53.813  48.574  10.161  1.00  0.00    -0.053 A 
HETATM   11  C   UNL     1     -53.998  49.470   9.100  1.00  0.00     0.043 A 
HETATM   12  C   UNL     1     -54.029  50.840   9.341  1.00  0.00     0.066 A 
HETATM   13  C   UNL     1     -53.877  51.343  10.628  1.00  0.00     0.036 A 
HETATM   14  C   UNL     1     -53.689  50.459  11.689  1.00  0.00     0.003 A 
HETATM   15  C   UNL     1     -53.657  49.082  11.459  1.00  0.00     0.007 A 
BRANCH  12  16
HETATM   16  O   UNL     1     -54.215  51.666   8.271  1.00  0.00    -0.361 OA
HETATM   17  H   UNL     1     -53.508  51.832   7.679  1.00  0.00     0.217 HD
ENDBRANCH  12  16
ENDBRANCH   9  10
ENDBRANCH   3   9
ENDBRANCH   1   3
TORSDOF 7
ENDMDL
