MODEL 1
REMARK VINA RESULT:     -18.7      0.000      0.000
REMARK  7 active torsions:
REMARK  status: ('A' for Active; 'I' for Inactive)
REMARK    1  A    between atoms: O_1  and  C_2 
REMARK    2  A    between atoms: C_2  and  C_3 
REMARK    3  A    between atoms: C_2  and  C_8 
REMARK    4  A    between atoms: C_3  and  C_4 
REMARK    5  A    between atoms: C_4  and  C_5 
REMARK    6  A    between atoms: C_8  and  C_9 
REMARK    7  A    between atoms: C_11  and  O_15 
ROOT
HETATM    1  O   UNL     1     -54.594  49.410   8.155  1.00  0.00    -0.395 OA
HETATM    2  H   UNL     1     -55.042  48.566   7.988  1.00  0.00     0.210 HD
ENDROOT
BRANCH   1   3
HETATM    3  C   UNL     1     -53.316  49.161   8.745  1.00  0.00     0.122 C 
BRANCH   3   4
HETATM    4  C   UNL     1     -52.385  48.604   7.663  1.00  0.00     0.042 C 
BRANCH   4   5
HETATM    5  C   UNL     1     -52.914  47.303   7.068  1.00  0.00     0.116 C 
BRANCH   5   6
HETATM    6  C   UNL     1     -52.923  47.380   5.571  1.00  0.00     0.172 C 
HETATM    7  O   UNL     1     -52.284  48.157   4.885  1.00  0.00    -0.648 OA
HETATM    8  O   UNL     1     -53.714  46.448   5.004  1.00  0.00    -0.648 OA
ENDBRANCH   5   6
ENDBRANCH   4   5
ENDBRANCH   3   4
BRANCH   3   9
HETATM    9  C   UNL     1     -53.434  48.177   9.923  1.00  0.00     0.070 C 
BRANCH   9  10
HETATM   10  C   UNL     1     -53.395  48.862  11.269  1.00  0.00    -0.053 A 
HETATM   11  C   UNL     1     -53.700  50.225  11.386  1.00  0.00     0.043 A 
HETATM   12  C   UNL     1     -53.655  50.846  12.629  1.00  0.00     0.066 A 
HETATM   13  C   UNL     1     -53.307  50.134  13.772  1.00  0.00     0.036 A 
HETATM   14  C   UNL     1     -53.000  48.779  13.665  1.00  0.00     0.003 A 
HETATM   15  C   UNL     1     -53.042  48.145  12.422  1.00  0.00     0.007 A 
BRANCH  12  16
HETATM   16  O   UNL     1     -53.963  52.174  12.685  1.00  0.00    -0.361 OA
HETATM   17  H   UNL     1     -53.286  52.807  12.822  1.00  0.00     0.217 HD
ENDBRANCH  12  16
ENDBRANCH   9  10
ENDBRANCH   3   9
ENDBRANCH   1   3
TORSDOF 7
ENDMDL
MODEL 2
REMARK VINA RESULT:     -18.6      2.057      2.644
REMARK  7 active torsions:
REMARK  status: ('A' for Active; 'I' for Inactive)
REMARK    1  A    between atoms: O_1  and  C_2 
REMARK    2  A    between atoms: C_2  and  C_3 
REMARK    3  A    between atoms: C_2  and  C_8 
REMARK    4  A    between atoms: C_3  and  C_4 
REMARK    5  A    between atoms: C_4  and  C_5 
REMARK    6  A    between atoms: C_8  and  C_9 
REMARK    7  A    between atoms: C_11  and  O_15 
ROOT
HETATM    1  O   UNL     1     -54.082  51.592   8.207  1.00  0.00    -0.395 OA
HETATM    2  H   UNL     1     -54.428  51.167   7.407  1.00  0.00     0.210 HD
ENDROOT
BRANCH   1   3
HETATM    3  C   UNL     1     -53.868  50.604   9.217  1.00  0.00     0.122 C 
BRANCH   3   4
HETATM    4  C   UNL     1     -54.829  49.437   8.962  1.00  0.00     0.042 C 
BRANCH   4   5
HETATM    5  C   UNL     1     -54.268  48.447   7.946  1.00  0.00     0.116 C 
BRANCH   5   6
HETATM    6  C   UNL     1     -54.828  47.078   8.188  1.00  0.00     0.172 C 
HETATM    7  O   UNL     1     -54.368  46.027   7.776  1.00  0.00    -0.648 OA
HETATM    8  O   UNL     1     -55.924  47.091   8.970  1.00  0.00    -0.648 OA
ENDBRANCH   5   6
ENDBRANCH   4   5
ENDBRANCH   3   4
BRANCH   3   9
HETATM    9  C   UNL     1     -54.086  51.194  10.621  1.00  0.00     0.070 C 
BRANCH   9  10
HETATM   10  C   UNL     1     -53.659  50.257  11.727  1.00  0.00    -0.053 A 
HETATM   11  C   UNL     1     -53.497  50.727  13.037  1.00  0.00     0.043 A 
HETATM   12  C   UNL     1     -53.097  49.857  14.046  1.00  0.00     0.066 A 
HETATM   13  C   UNL     1     -52.851  48.515  13.778  1.00  0.00     0.036 A 
HETATM   14  C   UNL     1     -53.007  48.039  12.477  1.00  0.00     0.003 A 
HETATM   15  C   UNL     1     -53.409  48.904  11.456  1.00  0.00     0.007 A 
BRANCH  12  16
HETATM   16  O   UNL     1     -52.957  50.368  15.304  1.00  0.00    -0.361 OA
HETATM   17  H   UNL     1     -53.359  51.184  15.526  1.00  0.00     0.217 HD
ENDBRANCH  12  16
ENDBRANCH   9  10
ENDBRANCH   3   9
ENDBRANCH   1   3
TORSDOF 7
ENDMDL
MODEL 3
REMARK VINA RESULT:     -18.6      2.976      6.838
REMARK  7 active torsions:
REMARK  status: ('A' for Active; 'I' for Inactive)
REMARK    1  A    between atoms: O_1  and  C_2 
REMARK    2  A    between atoms: C_2  and  C_3 
REMARK    3  A    between atoms: C_2  and  C_8 
REMARK    4  A    between atoms: C_3  and  C_4 
REMARK    5  A    between atoms: C_4  and  C_5 
REMARK    6  A    between atoms: C_8  and  C_9 
REMARK    7  A    between atoms: C_11  and  O_15 
ROOT
HETATM    1  O   UNL     1     -54.887  49.747  14.893  1.00  0.00    -0.395 OA
HETATM    2  H   UNL     1     -55.707  49.551  14.414  1.00  0.00     0.210 HD
ENDROOT
BRANCH   1   3
HETATM    3  C   UNL     1     -53.769  49.546  14.026  1.00  0.00     0.122 C 
BRANCH   3   4
HETATM    4  C   UNL     1     -52.516  49.357  14.889  1.00  0.00     0.042 C 
BRANCH   4   5
HETATM    5  C   UNL     1     -52.201  47.883  15.125  1.00  0.00     0.116 C 
BRANCH   5   6
HETATM    6  C   UNL     1     -52.758  47.436  16.443  1.00  0.00     0.172 C 
HETATM    7  O   UNL     1     -53.918  47.524  16.804  1.00  0.00    -0.648 OA
HETATM    8  O   UNL     1     -51.831  46.864  17.235  1.00  0.00    -0.648 OA
ENDBRANCH   5   6
ENDBRANCH   4   5
ENDBRANCH   3   4
BRANCH   3   9
HETATM    9  C   UNL     1     -53.595  50.734  13.064  1.00  0.00     0.070 C 
BRANCH   9  10
HETATM   10  C   UNL     1     -53.702  50.337  11.611  1.00  0.00    -0.053 A 
HETATM   11  C   UNL     1     -53.883  51.308  10.617  1.00  0.00     0.043 A 
HETATM   12  C   UNL     1     -53.986  50.930   9.282  1.00  0.00     0.066 A 
HETATM   13  C   UNL     1     -53.915  49.592   8.910  1.00  0.00     0.036 A 
HETATM   14  C   UNL     1     -53.738  48.619   9.892  1.00  0.00     0.003 A 
HETATM   15  C   UNL     1     -53.632  48.987  11.236  1.00  0.00     0.007 A 
BRANCH  12  16
HETATM   16  O   UNL     1     -54.159  51.917   8.356  1.00  0.00    -0.361 OA
HETATM   17  H   UNL     1     -55.018  52.240   8.170  1.00  0.00     0.217 HD
ENDBRANCH  12  16
ENDBRANCH   9  10
ENDBRANCH   3   9
ENDBRANCH   1   3
TORSDOF 7
ENDMDL
MODEL 4
REMARK VINA RESULT:     -18.5      1.231      2.066
REMARK  7 active torsions:
REMARK  status: ('A' for Active; 'I' for Inactive)
REMARK    1  A    between atoms: O_1  and  C_2 
REMARK    2  A    between atoms: C_2  and  C_3 
REMARK    3  A    between atoms: C_2  and  C_8 
REMARK    4  A    between atoms: C_3  and  C_4 
REMARK    5  A    between atoms: C_4  and  C_5 
REMARK    6  A    between atoms: C_8  and  C_9 
REMARK    7  A    between atoms: C_11  and  O_15 
ROOT
HETATM    1  O   UNL     1     -55.139  47.224   8.143  1.00  0.00    -0.395 OA
HETATM    2  H   UNL     1     -54.898  46.284   8.141  1.00  0.00     0.210 HD
ENDROOT
BRANCH   1   3
HETATM    3  C   UNL     1     -54.037  47.996   8.625  1.00  0.00     0.122 C 
BRANCH   3   4
HETATM    4  C   UNL     1     -52.752  47.450   7.994  1.00  0.00     0.042 C 
BRANCH   4   5
HETATM    5  C   UNL     1     -52.280  48.309   6.824  1.00  0.00     0.116 C 
BRANCH   5   6
HETATM    6  C   UNL     1     -52.798  47.758   5.530  1.00  0.00     0.172 C 
HETATM    7  O   UNL     1     -53.714  46.964   5.399  1.00  0.00    -0.648 OA
HETATM    8  O   UNL     1     -52.161  48.258   4.455  1.00  0.00    -0.648 OA
ENDBRANCH   5   6
ENDBRANCH   4   5
ENDBRANCH   3   4
BRANCH   3   9
HETATM    9  C   UNL     1     -53.956  47.943  10.161  1.00  0.00     0.070 C 
BRANCH   9  10
HETATM   10  C   UNL     1     -53.877  49.312  10.795  1.00  0.00    -0.053 A 
HETATM   11  C   UNL     1     -53.669  49.449  12.174  1.00  0.00     0.043 A 
HETATM   12  C   UNL     1     -53.604  50.714  12.748  1.00  0.00     0.066 A 
HETATM   13  C   UNL     1     -53.746  51.860  11.972  1.00  0.00     0.036 A 
HETATM   14  C   UNL     1     -53.956  51.733  10.600  1.00  0.00     0.003 A 
HETATM   15  C   UNL     1     -54.021  50.467  10.013  1.00  0.00     0.007 A 
BRANCH  12  16
HETATM   16  O   UNL     1     -53.398  50.789  14.094  1.00  0.00    -0.361 OA
HETATM   17  H   UNL     1     -52.770  51.393  14.439  1.00  0.00     0.217 HD
ENDBRANCH  12  16
ENDBRANCH   9  10
ENDBRANCH   3   9
ENDBRANCH   1   3
TORSDOF 7
ENDMDL
MODEL 5
REMARK VINA RESULT:     -18.4      1.671      2.327
REMARK  7 active torsions:
REMARK  status: ('A' for Active; 'I' for Inactive)
REMARK    1  A    between atoms: O_1  and  C_2 
REMARK    2  A    between atoms: C_2  and  C_3 
REMARK    3  A    between atoms: C_2  and  C_8 
REMARK    4  A    between atoms: C_3  and  C_4 
REMARK    5  A    between atoms: C_4  and  C_5 
REMARK    6  A    between atoms: C_8  and  C_9 
REMARK    7  A    between atoms: C_11  and  O_15 
ROOT
HETATM    1  O   UNL     1     -55.907  46.623   8.879  1.00  0.00    -0.395 OA
HETATM    2  H   UNL     1     -56.204  46.221   8.048  1.00  0.00     0.210 HD
ENDROOT
BRANCH   1   3
HETATM    3  C   UNL     1     -54.706  47.363   8.647  1.00  0.00     0.122 C 
BRANCH   3   4
HETATM    4  C   UNL     1     -53.835  46.575   7.662  1.00  0.00     0.042 C 
BRANCH   4   5
HETATM    5  C   UNL     1     -52.902  47.485   6.869  1.00  0.00     0.116 C 
BRANCH   5   6
HETATM    6  C   UNL     1     -53.040  47.221   5.400  1.00  0.00     0.172 C 
HETATM    7  O   UNL     1     -53.736  46.364   4.883  1.00  0.00    -0.648 OA
HETATM    8  O   UNL     1     -52.319  48.072   4.645  1.00  0.00    -0.648 OA
ENDBRANCH   5   6
ENDBRANCH   4   5
ENDBRANCH   3   4
BRANCH   3   9
HETATM    9  C   UNL     1     -53.950  47.613   9.964  1.00  0.00     0.070 C 
BRANCH   9  10
HETATM   10  C   UNL     1     -53.922  49.071  10.359  1.00  0.00    -0.053 A 
HETATM   11  C   UNL     1     -54.096  50.075   9.397  1.00  0.00     0.043 A 
HETATM   12  C   UNL     1     -54.063  51.414   9.772  1.00  0.00     0.066 A 
HETATM   13  C   UNL     1     -53.855  51.781  11.097  1.00  0.00     0.036 A 
HETATM   14  C   UNL     1     -53.678  50.789  12.061  1.00  0.00     0.003 A 
HETATM   15  C   UNL     1     -53.710  49.441  11.696  1.00  0.00     0.007 A 
BRANCH  12  16
HETATM   16  O   UNL     1     -54.241  52.350   8.795  1.00  0.00    -0.361 OA
HETATM   17  H   UNL     1     -54.975  52.930   8.830  1.00  0.00     0.217 HD
ENDBRANCH  12  16
ENDBRANCH   9  10
ENDBRANCH   3   9
ENDBRANCH   1   3
TORSDOF 7
ENDMDL
MODEL 6
REMARK VINA RESULT:     -18.3      1.226      1.925
REMARK  7 active torsions:
REMARK  status: ('A' for Active; 'I' for Inactive)
REMARK    1  A    between atoms: O_1  and  C_2 
REMARK    2  A    between atoms: C_2  and  C_3 
REMARK    3  A    between atoms: C_2  and  C_8 
REMARK    4  A    between atoms: C_3  and  C_4 
REMARK    5  A    between atoms: C_4  and  C_5 
REMARK    6  A    between atoms: C_8  and  C_9 
REMARK    7  A    between atoms: C_11  and  O_15 
ROOT
HETATM    1  O   UNL     1     -54.419  50.123   8.186  1.00  0.00    -0.395 OA
HETATM    2  H   UNL     1     -55.231  49.651   8.430  1.00  0.00     0.210 HD
ENDROOT
BRANCH   1   3
HETATM    3  C   UNL     1     -53.287  49.424   8.709  1.00  0.00     0.122 C 
BRANCH   3   4
HETATM    4  C   UNL     1     -52.661  48.602   7.578  1.00  0.00     0.042 C 
BRANCH   4   5
HETATM    5  C   UNL     1     -53.660  47.629   6.959  1.00  0.00     0.116 C 
BRANCH   5   6
HETATM    6  C   UNL     1     -53.268  47.306   5.549  1.00  0.00     0.172 C 
HETATM    7  O   UNL     1     -53.682  46.376   4.879  1.00  0.00    -0.648 OA
HETATM    8  O   UNL     1     -52.396  48.193   5.032  1.00  0.00    -0.648 OA
ENDBRANCH   5   6
ENDBRANCH   4   5
ENDBRANCH   3   4
BRANCH   3   9
HETATM    9  C   UNL     1     -53.694  48.516   9.883  1.00  0.00     0.070 C 
BRANCH   9  10
HETATM   10  C   UNL     1     -53.579  49.200  11.225  1.00  0.00    -0.053 A 
HETATM   11  C   UNL     1     -53.203  48.477  12.365  1.00  0.00     0.043 A 
HETATM   12  C   UNL     1     -53.107  49.116  13.597  1.00  0.00     0.066 A 
HETATM   13  C   UNL     1     -53.382  50.474  13.722  1.00  0.00     0.036 A 
HETATM   14  C   UNL     1     -53.760  51.200  12.594  1.00  0.00     0.003 A 
HETATM   15  C   UNL     1     -53.859  50.569  11.352  1.00  0.00     0.007 A 
BRANCH  12  16
HETATM   16  O   UNL     1     -52.735  48.365  14.673  1.00  0.00    -0.361 OA
HETATM   17  H   UNL     1     -51.987  47.803  14.616  1.00  0.00     0.217 HD
ENDBRANCH  12  16
ENDBRANCH   9  10
ENDBRANCH   3   9
ENDBRANCH   1   3
TORSDOF 7
ENDMDL
MODEL 7
REMARK VINA RESULT:     -18.1      1.941      2.527
REMARK  7 active torsions:
REMARK  status: ('A' for Active; 'I' for Inactive)
REMARK    1  A    between atoms: O_1  and  C_2 
REMARK    2  A    between atoms: C_2  and  C_3 
REMARK    3  A    between atoms: C_2  and  C_8 
REMARK    4  A    between atoms: C_3  and  C_4 
REMARK    5  A    between atoms: C_4  and  C_5 
REMARK    6  A    between atoms: C_8  and  C_9 
REMARK    7  A    between atoms: C_11  and  O_15 
ROOT
HETATM    1  O   UNL     1     -52.396  49.345   7.148  1.00  0.00    -0.395 OA
HETATM    2  H   UNL     1     -52.276  48.748   6.393  1.00  0.00     0.210 HD
ENDROOT
BRANCH   1   3
HETATM    3  C   UNL     1     -53.236  48.720   8.121  1.00  0.00     0.122 C 
BRANCH   3   4
HETATM    4  C   UNL     1     -54.165  47.739   7.398  1.00  0.00     0.042 C 
BRANCH   4   5
HETATM    5  C   UNL     1     -54.029  46.319   7.939  1.00  0.00     0.116 C 
BRANCH   5   6
HETATM    6  C   UNL     1     -55.319  45.871   8.557  1.00  0.00     0.172 C 
HETATM    7  O   UNL     1     -56.231  46.590   8.926  1.00  0.00    -0.648 OA
HETATM    8  O   UNL     1     -55.417  44.531   8.650  1.00  0.00    -0.648 OA
ENDBRANCH   5   6
ENDBRANCH   4   5
ENDBRANCH   3   4
BRANCH   3   9
HETATM    9  C   UNL     1     -54.049  49.768   8.901  1.00  0.00     0.070 C 
BRANCH   9  10
HETATM   10  C   UNL     1     -53.792  49.725  10.389  1.00  0.00    -0.053 A 
HETATM   11  C   UNL     1     -53.852  50.896  11.157  1.00  0.00     0.043 A 
HETATM   12  C   UNL     1     -53.607  50.846  12.526  1.00  0.00     0.066 A 
HETATM   13  C   UNL     1     -53.298  49.643  13.154  1.00  0.00     0.036 A 
HETATM   14  C   UNL     1     -53.234  48.475  12.397  1.00  0.00     0.003 A 
HETATM   15  C   UNL     1     -53.479  48.513  11.022  1.00  0.00     0.007 A 
BRANCH  12  16
HETATM   16  O   UNL     1     -53.680  52.014  13.225  1.00  0.00    -0.361 OA
HETATM   17  H   UNL     1     -54.425  52.191  13.765  1.00  0.00     0.217 HD
ENDBRANCH  12  16
ENDBRANCH   9  10
ENDBRANCH   3   9
ENDBRANCH   1   3
TORSDOF 7
ENDMDL
MODEL 8
REMARK VINA RESULT:     -17.7      2.143      2.786
REMARK  7 active torsions:
REMARK  status: ('A' for Active; 'I' for Inactive)
REMARK    1  A    between atoms: O_1  and  C_2 
REMARK    2  A    between atoms: C_2  and  C_3 
REMARK    3  A    between atoms: C_2  and  C_8 
REMARK    4  A    between atoms: C_3  and  C_4 
REMARK    5  A    between atoms: C_4  and  C_5 
REMARK    6  A    between atoms: C_8  and  C_9 
REMARK    7  A    between atoms: C_11  and  O_15 
ROOT
HETATM    1  O   UNL     1     -53.019  49.816   7.847  1.00  0.00    -0.395 OA
HETATM    2  H   UNL     1     -53.095  50.781   7.904  1.00  0.00     0.210 HD
ENDROOT
BRANCH   1   3
HETATM    3  C   UNL     1     -53.710  49.219   8.946  1.00  0.00     0.122 C 
BRANCH   3   4
HETATM    4  C   UNL     1     -54.937  48.479   8.400  1.00  0.00     0.042 C 
BRANCH   4   5
HETATM    5  C   UNL     1     -55.082  47.088   9.010  1.00  0.00     0.116 C 
BRANCH   5   6
HETATM    6  C   UNL     1     -54.360  46.074   8.174  1.00  0.00     0.172 C 
HETATM    7  O   UNL     1     -53.947  44.991   8.551  1.00  0.00    -0.648 OA
HETATM    8  O   UNL     1     -54.222  46.457   6.891  1.00  0.00    -0.648 OA
ENDBRANCH   5   6
ENDBRANCH   4   5
ENDBRANCH   3   4
BRANCH   3   9
HETATM    9  C   UNL     1     -54.129  50.281   9.978  1.00  0.00     0.070 C 
BRANCH   9  10
HETATM   10  C   UNL     1     -53.727  49.922  11.390  1.00  0.00    -0.053 A 
HETATM   11  C   UNL     1     -53.312  48.621  11.704  1.00  0.00     0.043 A 
HETATM   12  C   UNL     1     -52.951  48.300  13.009  1.00  0.00     0.066 A 
HETATM   13  C   UNL     1     -52.995  49.255  14.019  1.00  0.00     0.036 A 
HETATM   14  C   UNL     1     -53.408  50.551  13.715  1.00  0.00     0.003 A 
HETATM   15  C   UNL     1     -53.773  50.885  12.409  1.00  0.00     0.007 A 
BRANCH  12  16
HETATM   16  O   UNL     1     -52.553  47.019  13.258  1.00  0.00    -0.361 OA
HETATM   17  H   UNL     1     -53.192  46.341  13.358  1.00  0.00     0.217 HD
ENDBRANCH  12  16
ENDBRANCH   9  10
ENDBRANCH   3   9
ENDBRANCH   1   3
TORSDOF 7
ENDMDL
MODEL 9
REMARK VINA RESULT:     -17.3      4.208      7.319
REMARK  7 active torsions:
REMARK  status: ('A' for Active; 'I' for Inactive)
REMARK    1  A    between atoms: O_1  and  C_2 
REMARK    2  A    between atoms: C_2  and  C_3 
REMARK    3  A    between atoms: C_2  and  C_8 
REMARK    4  A    between atoms: C_3  and  C_4 
REMARK    5  A    between atoms: C_4  and  C_5 
REMARK    6  A    between atoms: C_8  and  C_9 
REMARK    7  A    between atoms: C_11  and  O_15 
ROOT
HETATM    1  O   UNL     1     -52.631  49.973  15.607  1.00  0.00    -0.395 OA
HETATM    2  H   UNL     1     -52.865  50.805  15.168  1.00  0.00     0.210 HD
ENDROOT
BRANCH   1   3
HETATM    3  C   UNL     1     -53.464  48.922  15.111  1.00  0.00     0.122 C 
BRANCH   3   4
HETATM    4  C   UNL     1     -53.456  47.778  16.131  1.00  0.00     0.042 C 
BRANCH   4   5
HETATM    5  C   UNL     1     -52.153  46.984  16.090  1.00  0.00     0.116 C 
BRANCH   5   6
HETATM    6  C   UNL     1     -51.816  46.465  17.455  1.00  0.00     0.172 C 
HETATM    7  O   UNL     1     -52.610  46.094  18.302  1.00  0.00    -0.648 OA
HETATM    8  O   UNL     1     -50.490  46.404  17.679  1.00  0.00    -0.648 OA
ENDBRANCH   5   6
ENDBRANCH   4   5
ENDBRANCH   3   4
BRANCH   3   9
HETATM    9  C   UNL     1     -52.973  48.431  13.737  1.00  0.00     0.070 C 
BRANCH   9  10
HETATM   10  C   UNL     1     -53.334  49.373  12.612  1.00  0.00    -0.053 A 
HETATM   11  C   UNL     1     -53.446  50.751  12.843  1.00  0.00     0.043 A 
HETATM   12  C   UNL     1     -53.784  51.608  11.801  1.00  0.00     0.066 A 
HETATM   13  C   UNL     1     -54.019  51.119  10.520  1.00  0.00     0.036 A 
HETATM   14  C   UNL     1     -53.913  49.750  10.282  1.00  0.00     0.003 A 
HETATM   15  C   UNL     1     -53.572  48.880  11.321  1.00  0.00     0.007 A 
BRANCH  12  16
HETATM   16  O   UNL     1     -53.877  52.940  12.082  1.00  0.00    -0.361 OA
HETATM   17  H   UNL     1     -54.333  53.227  12.848  1.00  0.00     0.217 HD
ENDBRANCH  12  16
ENDBRANCH   9  10
ENDBRANCH   3   9
ENDBRANCH   1   3
TORSDOF 7
ENDMDL
