MODEL 1
REMARK VINA RESULT:      -6.8      0.000      0.000
REMARK  8 active torsions:
REMARK  status: ('A' for Active; 'I' for Inactive)
REMARK    1  A    between atoms: O_1  and  C_2 
REMARK    2  A    between atoms: C_2  and  C_3 
REMARK    3  A    between atoms: C_2  and  C_8 
REMARK    4  A    between atoms: C_3  and  C_4 
REMARK    5  A    between atoms: C_4  and  C_5 
REMARK    6  A    between atoms: C_8  and  C_9 
REMARK    7  A    between atoms: C_11  and  O_16 
REMARK    8  A    between atoms: C_12  and  O_15 
ROOT
HETATM    1  O   UNL     1     -53.349  50.439   7.958  1.00  0.00    -0.395 OA
HETATM    2  H   UNL     1     -53.095  50.215   7.049  1.00  0.00     0.210 HD
ENDROOT
BRANCH   1   3
HETATM    3  C   UNL     1     -53.840  49.271   8.616  1.00  0.00     0.122 C 
BRANCH   3   4
HETATM    4  C   UNL     1     -54.387  49.647  10.002  1.00  0.00     0.042 C 
BRANCH   4   5
HETATM    5  C   UNL     1     -53.432  50.524  10.814  1.00  0.00     0.116 C 
BRANCH   5   6
HETATM    6  C   UNL     1     -53.627  52.012  10.673  1.00  0.00     0.172 C 
HETATM    7  O   UNL     1     -54.066  52.575   9.684  1.00  0.00    -0.648 OA
HETATM    8  O   UNL     1     -53.366  52.721  11.789  1.00  0.00    -0.648 OA
ENDBRANCH   5   6
ENDBRANCH   4   5
ENDBRANCH   3   4
BRANCH   3   9
HETATM    9  C   UNL     1     -52.713  48.230   8.740  1.00  0.00     0.070 C 
BRANCH   9  10
HETATM   10  C   UNL     1     -52.309  47.643   7.406  1.00  0.00    -0.053 A 
HETATM   11  C   UNL     1     -53.117  46.683   6.777  1.00  0.00     0.046 A 
HETATM   12  C   UNL     1     -52.722  46.142   5.562  1.00  0.00     0.099 A 
HETATM   13  C   UNL     1     -51.548  46.561   4.946  1.00  0.00     0.098 A 
HETATM   14  C   UNL     1     -50.726  47.494   5.561  1.00  0.00     0.040 A 
HETATM   15  C   UNL     1     -51.105  48.033   6.793  1.00  0.00     0.010 A 
BRANCH  12  16
HETATM   16  O   UNL     1     -53.485  45.163   4.992  1.00  0.00    -0.358 OA
HETATM   17  H   UNL     1     -54.285  45.387   4.559  1.00  0.00     0.217 HD
ENDBRANCH  12  16
BRANCH  13  18
HETATM   18  O   UNL     1     -51.202  46.084   3.715  1.00  0.00    -0.358 OA
HETATM   19  H   UNL     1     -50.462  46.442   3.264  1.00  0.00     0.217 HD
ENDBRANCH  13  18
ENDBRANCH   9  10
ENDBRANCH   3   9
ENDBRANCH   1   3
TORSDOF 8
ENDMDL
MODEL 2
REMARK VINA RESULT:      -6.6      1.269      1.499
REMARK  8 active torsions:
REMARK  status: ('A' for Active; 'I' for Inactive)
REMARK    1  A    between atoms: O_1  and  C_2 
REMARK    2  A    between atoms: C_2  and  C_3 
REMARK    3  A    between atoms: C_2  and  C_8 
REMARK    4  A    between atoms: C_3  and  C_4 
REMARK    5  A    between atoms: C_4  and  C_5 
REMARK    6  A    between atoms: C_8  and  C_9 
REMARK    7  A    between atoms: C_11  and  O_16 
REMARK    8  A    between atoms: C_12  and  O_15 
ROOT
HETATM    1  O   UNL     1     -53.640  50.279   8.767  1.00  0.00    -0.395 OA
HETATM    2  H   UNL     1     -54.450  50.781   8.588  1.00  0.00     0.210 HD
ENDROOT
BRANCH   1   3
HETATM    3  C   UNL     1     -53.966  48.903   8.961  1.00  0.00     0.122 C 
BRANCH   3   4
HETATM    4  C   UNL     1     -54.696  48.726  10.302  1.00  0.00     0.042 C 
BRANCH   4   5
HETATM    5  C   UNL     1     -53.749  48.493  11.482  1.00  0.00     0.116 C 
BRANCH   5   6
HETATM    6  C   UNL     1     -53.300  49.729  12.218  1.00  0.00     0.172 C 
HETATM    7  O   UNL     1     -53.320  50.863  11.769  1.00  0.00    -0.648 OA
HETATM    8  O   UNL     1     -52.943  49.520  13.500  1.00  0.00    -0.648 OA
ENDBRANCH   5   6
ENDBRANCH   4   5
ENDBRANCH   3   4
BRANCH   3   9
HETATM    9  C   UNL     1     -52.684  48.052   8.924  1.00  0.00     0.070 C 
BRANCH   9  10
HETATM   10  C   UNL     1     -52.331  47.587   7.528  1.00  0.00    -0.053 A 
HETATM   11  C   UNL     1     -53.117  46.622   6.880  1.00  0.00     0.046 A 
HETATM   12  C   UNL     1     -52.768  46.193   5.607  1.00  0.00     0.099 A 
HETATM   13  C   UNL     1     -51.664  46.731   4.955  1.00  0.00     0.098 A 
HETATM   14  C   UNL     1     -50.863  47.671   5.586  1.00  0.00     0.040 A 
HETATM   15  C   UNL     1     -51.195  48.097   6.875  1.00  0.00     0.010 A 
BRANCH  12  16
HETATM   16  O   UNL     1     -53.505  45.209   5.013  1.00  0.00    -0.358 OA
HETATM   17  H   UNL     1     -53.461  44.331   5.338  1.00  0.00     0.217 HD
ENDBRANCH  12  16
BRANCH  13  18
HETATM   18  O   UNL     1     -51.369  46.364   3.673  1.00  0.00    -0.358 OA
HETATM   19  H   UNL     1     -51.220  47.019   3.021  1.00  0.00     0.217 HD
ENDBRANCH  13  18
ENDBRANCH   9  10
ENDBRANCH   3   9
ENDBRANCH   1   3
TORSDOF 8
ENDMDL
MODEL 3
REMARK VINA RESULT:      -6.3      1.464      6.451
REMARK  8 active torsions:
REMARK  status: ('A' for Active; 'I' for Inactive)
REMARK    1  A    between atoms: O_1  and  C_2 
REMARK    2  A    between atoms: C_2  and  C_3 
REMARK    3  A    between atoms: C_2  and  C_8 
REMARK    4  A    between atoms: C_3  and  C_4 
REMARK    5  A    between atoms: C_4  and  C_5 
REMARK    6  A    between atoms: C_8  and  C_9 
REMARK    7  A    between atoms: C_11  and  O_16 
REMARK    8  A    between atoms: C_12  and  O_15 
ROOT
HETATM    1  O   UNL     1     -54.058  45.680   7.494  1.00  0.00    -0.395 OA
HETATM    2  H   UNL     1     -53.416  45.175   6.971  1.00  0.00     0.210 HD
ENDROOT
BRANCH   1   3
HETATM    3  C   UNL     1     -53.398  46.775   8.129  1.00  0.00     0.122 C 
BRANCH   3   4
HETATM    4  C   UNL     1     -51.875  46.597   8.020  1.00  0.00     0.042 C 
BRANCH   4   5
HETATM    5  C   UNL     1     -51.248  47.412   6.887  1.00  0.00     0.116 C 
BRANCH   5   6
HETATM    6  C   UNL     1     -51.493  46.894   5.492  1.00  0.00     0.172 C 
HETATM    7  O   UNL     1     -51.849  45.761   5.214  1.00  0.00    -0.648 OA
HETATM    8  O   UNL     1     -51.383  47.821   4.522  1.00  0.00    -0.648 OA
ENDBRANCH   5   6
ENDBRANCH   4   5
ENDBRANCH   3   4
BRANCH   3   9
HETATM    9  C   UNL     1     -53.831  46.861   9.603  1.00  0.00     0.070 C 
BRANCH   9  10
HETATM   10  C   UNL     1     -53.709  48.259  10.168  1.00  0.00    -0.053 A 
HETATM   11  C   UNL     1     -53.815  49.378   9.328  1.00  0.00     0.046 A 
HETATM   12  C   UNL     1     -53.683  50.652   9.860  1.00  0.00     0.099 A 
HETATM   13  C   UNL     1     -53.475  50.835  11.223  1.00  0.00     0.098 A 
HETATM   14  C   UNL     1     -53.348  49.742  12.067  1.00  0.00     0.040 A 
HETATM   15  C   UNL     1     -53.462  48.453  11.539  1.00  0.00     0.010 A 
BRANCH  12  16
HETATM   16  O   UNL     1     -53.725  51.729   9.021  1.00  0.00    -0.358 OA
HETATM   17  H   UNL     1     -54.349  52.413   9.168  1.00  0.00     0.217 HD
ENDBRANCH  12  16
BRANCH  13  18
HETATM   18  O   UNL     1     -53.423  52.091  11.754  1.00  0.00    -0.358 OA
HETATM   19  H   UNL     1     -52.666  52.626  11.620  1.00  0.00     0.217 HD
ENDBRANCH  13  18
ENDBRANCH   9  10
ENDBRANCH   3   9
ENDBRANCH   1   3
TORSDOF 8
ENDMDL
MODEL 4
REMARK VINA RESULT:      -6.3      3.308      6.908
REMARK  8 active torsions:
REMARK  status: ('A' for Active; 'I' for Inactive)
REMARK    1  A    between atoms: O_1  and  C_2 
REMARK    2  A    between atoms: C_2  and  C_3 
REMARK    3  A    between atoms: C_2  and  C_8 
REMARK    4  A    between atoms: C_3  and  C_4 
REMARK    5  A    between atoms: C_4  and  C_5 
REMARK    6  A    between atoms: C_8  and  C_9 
REMARK    7  A    between atoms: C_11  and  O_16 
REMARK    8  A    between atoms: C_12  and  O_15 
ROOT
HETATM    1  O   UNL     1     -55.890  46.037   8.962  1.00  0.00    -0.395 OA
HETATM    2  H   UNL     1     -56.481  45.960   8.197  1.00  0.00     0.210 HD
ENDROOT
BRANCH   1   3
HETATM    3  C   UNL     1     -54.550  45.758   8.558  1.00  0.00     0.122 C 
BRANCH   3   4
HETATM    4  C   UNL     1     -54.402  44.259   8.250  1.00  0.00     0.042 C 
BRANCH   4   5
HETATM    5  C   UNL     1     -55.126  43.359   9.253  1.00  0.00     0.116 C 
BRANCH   5   6
HETATM    6  C   UNL     1     -56.368  42.673   8.745  1.00  0.00     0.172 C 
HETATM    7  O   UNL     1     -56.734  42.650   7.581  1.00  0.00    -0.648 OA
HETATM    8  O   UNL     1     -57.041  41.969   9.675  1.00  0.00    -0.648 OA
ENDBRANCH   5   6
ENDBRANCH   4   5
ENDBRANCH   3   4
BRANCH   3   9
HETATM    9  C   UNL     1     -53.571  46.183   9.667  1.00  0.00     0.070 C 
BRANCH   9  10
HETATM   10  C   UNL     1     -53.553  47.679   9.889  1.00  0.00    -0.053 A 
HETATM   11  C   UNL     1     -53.446  48.559   8.801  1.00  0.00     0.046 A 
HETATM   12  C   UNL     1     -53.413  49.928   9.024  1.00  0.00     0.099 A 
HETATM   13  C   UNL     1     -53.512  50.440  10.314  1.00  0.00     0.098 A 
HETATM   14  C   UNL     1     -53.598  49.587  11.404  1.00  0.00     0.040 A 
HETATM   15  C   UNL     1     -53.616  48.205  11.192  1.00  0.00     0.010 A 
BRANCH  12  16
HETATM   16  O   UNL     1     -53.246  50.770   7.962  1.00  0.00    -0.358 OA
HETATM   17  H   UNL     1     -52.451  50.745   7.466  1.00  0.00     0.217 HD
ENDBRANCH  12  16
BRANCH  13  18
HETATM   18  O   UNL     1     -53.557  51.788  10.523  1.00  0.00    -0.358 OA
HETATM   19  H   UNL     1     -53.845  52.124  11.348  1.00  0.00     0.217 HD
ENDBRANCH  13  18
ENDBRANCH   9  10
ENDBRANCH   3   9
ENDBRANCH   1   3
TORSDOF 8
ENDMDL
MODEL 5
REMARK VINA RESULT:      -6.3      4.620      6.694
REMARK  8 active torsions:
REMARK  status: ('A' for Active; 'I' for Inactive)
REMARK    1  A    between atoms: O_1  and  C_2 
REMARK    2  A    between atoms: C_2  and  C_3 
REMARK    3  A    between atoms: C_2  and  C_8 
REMARK    4  A    between atoms: C_3  and  C_4 
REMARK    5  A    between atoms: C_4  and  C_5 
REMARK    6  A    between atoms: C_8  and  C_9 
REMARK    7  A    between atoms: C_11  and  O_16 
REMARK    8  A    between atoms: C_12  and  O_15 
ROOT
HETATM    1  O   UNL     1     -52.583  46.374  13.777  1.00  0.00    -0.395 OA
HETATM    2  H   UNL     1     -53.299  46.176  13.153  1.00  0.00     0.210 HD
ENDROOT
BRANCH   1   3
HETATM    3  C   UNL     1     -52.142  47.717  13.584  1.00  0.00     0.122 C 
BRANCH   3   4
HETATM    4  C   UNL     1     -51.395  48.204  14.836  1.00  0.00     0.042 C 
BRANCH   4   5
HETATM    5  C   UNL     1     -50.192  47.332  15.202  1.00  0.00     0.116 C 
BRANCH   5   6
HETATM    6  C   UNL     1     -49.435  47.742  16.439  1.00  0.00     0.172 C 
HETATM    7  O   UNL     1     -49.712  47.403  17.578  1.00  0.00    -0.648 OA
HETATM    8  O   UNL     1     -48.323  48.464  16.204  1.00  0.00    -0.648 OA
ENDBRANCH   5   6
ENDBRANCH   4   5
ENDBRANCH   3   4
BRANCH   3   9
HETATM    9  C   UNL     1     -53.348  48.625  13.284  1.00  0.00     0.070 C 
BRANCH   9  10
HETATM   10  C   UNL     1     -53.369  49.117  11.854  1.00  0.00    -0.053 A 
HETATM   11  C   UNL     1     -53.510  50.485  11.575  1.00  0.00     0.046 A 
HETATM   12  C   UNL     1     -53.545  50.918  10.257  1.00  0.00     0.099 A 
HETATM   13  C   UNL     1     -53.412  50.013   9.208  1.00  0.00     0.098 A 
HETATM   14  C   UNL     1     -53.292  48.655   9.463  1.00  0.00     0.040 A 
HETATM   15  C   UNL     1     -53.273  48.206  10.787  1.00  0.00     0.010 A 
BRANCH  12  16
HETATM   16  O   UNL     1     -53.746  52.243   9.998  1.00  0.00    -0.358 OA
HETATM   17  H   UNL     1     -53.539  52.884  10.650  1.00  0.00     0.217 HD
ENDBRANCH  12  16
BRANCH  13  18
HETATM   18  O   UNL     1     -53.369  50.450   7.916  1.00  0.00    -0.358 OA
HETATM   19  H   UNL     1     -52.576  50.376   7.423  1.00  0.00     0.217 HD
ENDBRANCH  13  18
ENDBRANCH   9  10
ENDBRANCH   3   9
ENDBRANCH   1   3
TORSDOF 8
ENDMDL
MODEL 6
REMARK VINA RESULT:      -6.2      4.299      7.103
REMARK  8 active torsions:
REMARK  status: ('A' for Active; 'I' for Inactive)
REMARK    1  A    between atoms: O_1  and  C_2 
REMARK    2  A    between atoms: C_2  and  C_3 
REMARK    3  A    between atoms: C_2  and  C_8 
REMARK    4  A    between atoms: C_3  and  C_4 
REMARK    5  A    between atoms: C_4  and  C_5 
REMARK    6  A    between atoms: C_8  and  C_9 
REMARK    7  A    between atoms: C_11  and  O_16 
REMARK    8  A    between atoms: C_12  and  O_15 
ROOT
HETATM    1  O   UNL     1     -53.386  51.284  11.610  1.00  0.00    -0.395 OA
HETATM    2  H   UNL     1     -53.905  51.431  12.416  1.00  0.00     0.210 HD
ENDROOT
BRANCH   1   3
HETATM    3  C   UNL     1     -53.349  49.887  11.317  1.00  0.00     0.122 C 
BRANCH   3   4
HETATM    4  C   UNL     1     -54.188  49.597  10.063  1.00  0.00     0.042 C 
BRANCH   4   5
HETATM    5  C   UNL     1     -55.080  48.361  10.202  1.00  0.00     0.116 C 
BRANCH   5   6
HETATM    6  C   UNL     1     -54.697  47.176   9.354  1.00  0.00     0.172 C 
HETATM    7  O   UNL     1     -55.476  46.480   8.723  1.00  0.00    -0.648 OA
HETATM    8  O   UNL     1     -53.371  46.968   9.246  1.00  0.00    -0.648 OA
ENDBRANCH   5   6
ENDBRANCH   4   5
ENDBRANCH   3   4
BRANCH   3   9
HETATM    9  C   UNL     1     -53.877  49.087  12.521  1.00  0.00     0.070 C 
BRANCH   9  10
HETATM   10  C   UNL     1     -52.797  48.277  13.204  1.00  0.00    -0.053 A 
HETATM   11  C   UNL     1     -52.204  48.739  14.389  1.00  0.00     0.046 A 
HETATM   12  C   UNL     1     -51.203  47.992  14.993  1.00  0.00     0.099 A 
HETATM   13  C   UNL     1     -50.800  46.775  14.452  1.00  0.00     0.098 A 
HETATM   14  C   UNL     1     -51.360  46.311  13.271  1.00  0.00     0.040 A 
HETATM   15  C   UNL     1     -52.358  47.064  12.645  1.00  0.00     0.010 A 
BRANCH  12  16
HETATM   16  O   UNL     1     -50.590  48.483  16.110  1.00  0.00    -0.358 OA
HETATM   17  H   UNL     1     -50.533  47.955  16.883  1.00  0.00     0.217 HD
ENDBRANCH  12  16
BRANCH  13  18
HETATM   18  O   UNL     1     -49.870  46.006  15.090  1.00  0.00    -0.358 OA
HETATM   19  H   UNL     1     -49.085  45.755  14.645  1.00  0.00     0.217 HD
ENDBRANCH  13  18
ENDBRANCH   9  10
ENDBRANCH   3   9
ENDBRANCH   1   3
TORSDOF 8
ENDMDL
MODEL 7
REMARK VINA RESULT:      -6.2      3.009      4.495
REMARK  8 active torsions:
REMARK  status: ('A' for Active; 'I' for Inactive)
REMARK    1  A    between atoms: O_1  and  C_2 
REMARK    2  A    between atoms: C_2  and  C_3 
REMARK    3  A    between atoms: C_2  and  C_8 
REMARK    4  A    between atoms: C_3  and  C_4 
REMARK    5  A    between atoms: C_4  and  C_5 
REMARK    6  A    between atoms: C_8  and  C_9 
REMARK    7  A    between atoms: C_11  and  O_16 
REMARK    8  A    between atoms: C_12  and  O_15 
ROOT
HETATM    1  O   UNL     1     -53.383  51.457  11.852  1.00  0.00    -0.395 OA
HETATM    2  H   UNL     1     -54.000  51.826  12.503  1.00  0.00     0.210 HD
ENDROOT
BRANCH   1   3
HETATM    3  C   UNL     1     -53.778  50.125  11.524  1.00  0.00     0.122 C 
BRANCH   3   4
HETATM    4  C   UNL     1     -52.881  49.120  12.265  1.00  0.00     0.042 C 
BRANCH   4   5
HETATM    5  C   UNL     1     -53.354  48.819  13.689  1.00  0.00     0.116 C 
BRANCH   5   6
HETATM    6  C   UNL     1     -52.308  48.941  14.767  1.00  0.00     0.172 C 
HETATM    7  O   UNL     1     -51.300  48.258  14.853  1.00  0.00    -0.648 OA
HETATM    8  O   UNL     1     -52.504  49.959  15.627  1.00  0.00    -0.648 OA
ENDBRANCH   5   6
ENDBRANCH   4   5
ENDBRANCH   3   4
BRANCH   3   9
HETATM    9  C   UNL     1     -53.690  49.914  10.003  1.00  0.00     0.070 C 
BRANCH   9  10
HETATM   10  C   UNL     1     -54.130  48.530   9.578  1.00  0.00    -0.053 A 
HETATM   11  C   UNL     1     -53.288  47.725   8.796  1.00  0.00     0.046 A 
HETATM   12  C   UNL     1     -53.715  46.465   8.400  1.00  0.00     0.099 A 
HETATM   13  C   UNL     1     -54.957  45.980   8.793  1.00  0.00     0.098 A 
HETATM   14  C   UNL     1     -55.813  46.768   9.549  1.00  0.00     0.040 A 
HETATM   15  C   UNL     1     -55.400  48.046   9.939  1.00  0.00     0.010 A 
BRANCH  12  16
HETATM   16  O   UNL     1     -52.911  45.717   7.588  1.00  0.00    -0.358 OA
HETATM   17  H   UNL     1     -53.289  45.085   7.009  1.00  0.00     0.217 HD
ENDBRANCH  12  16
BRANCH  13  18
HETATM   18  O   UNL     1     -55.342  44.712   8.467  1.00  0.00    -0.358 OA
HETATM   19  H   UNL     1     -54.753  43.995   8.599  1.00  0.00     0.217 HD
ENDBRANCH  13  18
ENDBRANCH   9  10
ENDBRANCH   3   9
ENDBRANCH   1   3
TORSDOF 8
ENDMDL
MODEL 8
REMARK VINA RESULT:      -6.2      2.181      6.945
REMARK  8 active torsions:
REMARK  status: ('A' for Active; 'I' for Inactive)
REMARK    1  A    between atoms: O_1  and  C_2 
REMARK    2  A    between atoms: C_2  and  C_3 
REMARK    3  A    between atoms: C_2  and  C_8 
REMARK    4  A    between atoms: C_3  and  C_4 
REMARK    5  A    between atoms: C_4  and  C_5 
REMARK    6  A    between atoms: C_8  and  C_9 
REMARK    7  A    between atoms: C_11  and  O_16 
REMARK    8  A    between atoms: C_12  and  O_15 
ROOT
HETATM    1  O   UNL     1     -54.055  47.780   7.216  1.00  0.00    -0.395 OA
HETATM    2  H   UNL     1     -54.697  47.155   7.590  1.00  0.00     0.210 HD
ENDROOT
BRANCH   1   3
HETATM    3  C   UNL     1     -52.927  47.878   8.084  1.00  0.00     0.122 C 
BRANCH   3   4
HETATM    4  C   UNL     1     -51.646  47.524   7.313  1.00  0.00     0.042 C 
BRANCH   4   5
HETATM    5  C   UNL     1     -51.548  46.042   6.945  1.00  0.00     0.116 C 
BRANCH   5   6
HETATM    6  C   UNL     1     -52.000  45.679   5.554  1.00  0.00     0.172 C 
HETATM    7  O   UNL     1     -51.262  45.422   4.617  1.00  0.00    -0.648 OA
HETATM    8  O   UNL     1     -53.334  45.554   5.412  1.00  0.00    -0.648 OA
ENDBRANCH   5   6
ENDBRANCH   4   5
ENDBRANCH   3   4
BRANCH   3   9
HETATM    9  C   UNL     1     -53.112  46.938   9.289  1.00  0.00     0.070 C 
BRANCH   9  10
HETATM   10  C   UNL     1     -53.020  47.661  10.615  1.00  0.00    -0.053 A 
HETATM   11  C   UNL     1     -53.337  49.025  10.705  1.00  0.00     0.046 A 
HETATM   12  C   UNL     1     -53.229  49.676  11.925  1.00  0.00     0.099 A 
HETATM   13  C   UNL     1     -52.838  48.985  13.067  1.00  0.00     0.098 A 
HETATM   14  C   UNL     1     -52.502  47.642  12.995  1.00  0.00     0.040 A 
HETATM   15  C   UNL     1     -52.590  46.979  11.767  1.00  0.00     0.010 A 
BRANCH  12  16
HETATM   16  O   UNL     1     -53.480  51.017  11.986  1.00  0.00    -0.358 OA
HETATM   17  H   UNL     1     -54.276  51.328  12.371  1.00  0.00     0.217 HD
ENDBRANCH  12  16
BRANCH  13  18
HETATM   18  O   UNL     1     -52.809  49.611  14.280  1.00  0.00    -0.358 OA
HETATM   19  H   UNL     1     -53.266  50.419  14.402  1.00  0.00     0.217 HD
ENDBRANCH  13  18
ENDBRANCH   9  10
ENDBRANCH   3   9
ENDBRANCH   1   3
TORSDOF 8
ENDMDL
MODEL 9
REMARK VINA RESULT:      -6.1      0.923      1.876
REMARK  8 active torsions:
REMARK  status: ('A' for Active; 'I' for Inactive)
REMARK    1  A    between atoms: O_1  and  C_2 
REMARK    2  A    between atoms: C_2  and  C_3 
REMARK    3  A    between atoms: C_2  and  C_8 
REMARK    4  A    between atoms: C_3  and  C_4 
REMARK    5  A    between atoms: C_4  and  C_5 
REMARK    6  A    between atoms: C_8  and  C_9 
REMARK    7  A    between atoms: C_11  and  O_16 
REMARK    8  A    between atoms: C_12  and  O_15 
ROOT
HETATM    1  O   UNL     1     -53.347  50.138   7.968  1.00  0.00    -0.395 OA
HETATM    2  H   UNL     1     -53.579  50.039   7.031  1.00  0.00     0.210 HD
ENDROOT
BRANCH   1   3
HETATM    3  C   UNL     1     -53.814  49.004   8.697  1.00  0.00     0.122 C 
BRANCH   3   4
HETATM    4  C   UNL     1     -54.399  49.458  10.044  1.00  0.00     0.042 C 
BRANCH   4   5
HETATM    5  C   UNL     1     -53.418  50.275  10.887  1.00  0.00     0.116 C 
BRANCH   5   6
HETATM    6  C   UNL     1     -53.608  51.770  10.851  1.00  0.00     0.172 C 
HETATM    7  O   UNL     1     -53.437  52.525  11.794  1.00  0.00    -0.648 OA
HETATM    8  O   UNL     1     -53.901  52.270   9.635  1.00  0.00    -0.648 OA
ENDBRANCH   5   6
ENDBRANCH   4   5
ENDBRANCH   3   4
BRANCH   3   9
HETATM    9  C   UNL     1     -52.659  48.011   8.913  1.00  0.00     0.070 C 
BRANCH   9  10
HETATM   10  C   UNL     1     -52.552  46.987   7.804  1.00  0.00    -0.053 A 
HETATM   11  C   UNL     1     -51.920  47.313   6.595  1.00  0.00     0.046 A 
HETATM   12  C   UNL     1     -51.846  46.368   5.582  1.00  0.00     0.099 A 
HETATM   13  C   UNL     1     -52.367  45.090   5.762  1.00  0.00     0.098 A 
HETATM   14  C   UNL     1     -53.013  44.756   6.943  1.00  0.00     0.040 A 
HETATM   15  C   UNL     1     -53.108  45.705   7.964  1.00  0.00     0.010 A 
BRANCH  12  16
HETATM   16  O   UNL     1     -51.285  46.717   4.387  1.00  0.00    -0.358 OA
HETATM   17  H   UNL     1     -51.805  46.718   3.607  1.00  0.00     0.217 HD
ENDBRANCH  12  16
BRANCH  13  18
HETATM   18  O   UNL     1     -52.224  44.140   4.793  1.00  0.00    -0.358 OA
HETATM   19  H   UNL     1     -52.250  43.231   5.021  1.00  0.00     0.217 HD
ENDBRANCH  13  18
ENDBRANCH   9  10
ENDBRANCH   3   9
ENDBRANCH   1   3
TORSDOF 8
ENDMDL
