MODEL 1
REMARK VINA RESULT:      -3.2      0.000      0.000
REMARK  0 active torsions:
REMARK  status: ('A' for Active; 'I' for Inactive)
ROOT
ATOM      1  O   UNL A   1      22.196  -2.186  36.421  1.00  0.00    -0.648 OA
ATOM      2  O   UNL A   1      23.682  -1.162  35.015  1.00  0.00    -0.648 OA
ATOM      3  C   UNL A   1      21.563  -1.754  34.196  1.00  0.00     0.129 C 
ATOM      4  C   UNL A   1      22.580  -1.695  35.323  1.00  0.00     0.168 C 
ENDROOT
TORSDOF 0
ENDMDL
MODEL 2
REMARK VINA RESULT:      -3.2      0.035      1.618
REMARK  0 active torsions:
REMARK  status: ('A' for Active; 'I' for Inactive)
ROOT
ATOM      1  O   UNL A   1      23.687  -1.179  34.988  1.00  0.00    -0.648 OA
ATOM      2  O   UNL A   1      22.215  -2.163  36.437  1.00  0.00    -0.648 OA
ATOM      3  C   UNL A   1      21.530  -1.739  34.232  1.00  0.00     0.129 C 
ATOM      4  C   UNL A   1      22.583  -1.688  35.326  1.00  0.00     0.168 C 
ENDROOT
TORSDOF 0
ENDMDL
MODEL 3
REMARK VINA RESULT:      -3.2      1.433      1.682
REMARK  0 active torsions:
REMARK  status: ('A' for Active; 'I' for Inactive)
ROOT
ATOM      1  O   UNL A   1      22.330  -2.248  36.633  1.00  0.00    -0.648 OA
ATOM      2  O   UNL A   1      21.034  -1.215  35.056  1.00  0.00    -0.648 OA
ATOM      3  C   UNL A   1      23.367  -1.190  34.805  1.00  0.00     0.129 C 
ATOM      4  C   UNL A   1      22.121  -1.591  35.575  1.00  0.00     0.168 C 
ENDROOT
TORSDOF 0
ENDMDL
MODEL 4
REMARK VINA RESULT:      -3.1      1.419      1.884
REMARK  0 active torsions:
REMARK  status: ('A' for Active; 'I' for Inactive)
ROOT
ATOM      1  O   UNL A   1      20.948  -1.327  34.951  1.00  0.00    -0.648 OA
ATOM      2  O   UNL A   1      22.255  -2.224  36.601  1.00  0.00    -0.648 OA
ATOM      3  C   UNL A   1      23.288  -1.131  34.799  1.00  0.00     0.129 C 
ATOM      4  C   UNL A   1      22.039  -1.608  35.520  1.00  0.00     0.168 C 
ENDROOT
TORSDOF 0
ENDMDL
MODEL 5
REMARK VINA RESULT:      -3.0      1.186      1.563
REMARK  0 active torsions:
REMARK  status: ('A' for Active; 'I' for Inactive)
ROOT
ATOM      1  O   UNL A   1      22.641  -3.150  34.637  1.00  0.00    -0.648 OA
ATOM      2  O   UNL A   1      22.482  -1.935  36.569  1.00  0.00    -0.648 OA
ATOM      3  C   UNL A   1      21.220  -1.276  34.704  1.00  0.00     0.129 C 
ATOM      4  C   UNL A   1      22.213  -2.214  35.368  1.00  0.00     0.168 C 
ENDROOT
TORSDOF 0
ENDMDL
MODEL 6
REMARK VINA RESULT:      -2.9      1.795      2.239
REMARK  0 active torsions:
REMARK  status: ('A' for Active; 'I' for Inactive)
ROOT
ATOM      1  O   UNL A   1      21.576  -1.523  33.540  1.00  0.00    -0.648 OA
ATOM      2  O   UNL A   1      22.498  -3.385  34.498  1.00  0.00    -0.648 OA
ATOM      3  C   UNL A   1      22.287  -1.430  35.781  1.00  0.00     0.129 C 
ATOM      4  C   UNL A   1      22.102  -2.186  34.477  1.00  0.00     0.168 C 
ENDROOT
TORSDOF 0
ENDMDL
MODEL 7
REMARK VINA RESULT:      -2.8      1.518      1.538
REMARK  0 active torsions:
REMARK  status: ('A' for Active; 'I' for Inactive)
ROOT
ATOM      1  O   UNL A   1      22.449  -3.616  34.364  1.00  0.00    -0.648 OA
ATOM      2  O   UNL A   1      22.684  -1.599  35.417  1.00  0.00    -0.648 OA
ATOM      3  C   UNL A   1      21.357  -1.726  33.485  1.00  0.00     0.129 C 
ATOM      4  C   UNL A   1      22.251  -2.380  34.524  1.00  0.00     0.168 C 
ENDROOT
TORSDOF 0
ENDMDL
MODEL 8
REMARK VINA RESULT:      -2.7      2.571      3.145
REMARK  0 active torsions:
REMARK  status: ('A' for Active; 'I' for Inactive)
ROOT
ATOM      1  O   UNL A   1      21.347  -1.143  32.024  1.00  0.00    -0.648 OA
ATOM      2  O   UNL A   1      21.148  -1.585  34.260  1.00  0.00    -0.648 OA
ATOM      3  C   UNL A   1      21.628  -3.350  32.789  1.00  0.00     0.129 C 
ATOM      4  C   UNL A   1      21.347  -1.880  33.049  1.00  0.00     0.168 C 
ENDROOT
TORSDOF 0
ENDMDL
MODEL 9
REMARK VINA RESULT:      -2.7      2.566      2.813
REMARK  0 active torsions:
REMARK  status: ('A' for Active; 'I' for Inactive)
ROOT
ATOM      1  O   UNL A   1      21.239  -1.574  34.262  1.00  0.00    -0.648 OA
ATOM      2  O   UNL A   1      21.356  -1.145  32.018  1.00  0.00    -0.648 OA
ATOM      3  C   UNL A   1      21.579  -3.358  32.767  1.00  0.00     0.129 C 
ATOM      4  C   UNL A   1      21.371  -1.879  33.045  1.00  0.00     0.168 C 
ENDROOT
TORSDOF 0
ENDMDL
