MODEL 1
REMARK VINA RESULT:      -4.0      0.000      0.000
REMARK  2 active torsions:
REMARK  status: ('A' for Active; 'I' for Inactive)
REMARK    1  A    between atoms: C_3  and  C_4 
REMARK    2  A    between atoms: C_4  and  C_6 
ROOT
ATOM      1  O   UNL A   1      31.868  81.320  22.532  1.00  0.00    -0.648 OA
ATOM      2  O   UNL A   1      32.945  79.390  23.109  1.00  0.00    -0.648 OA
ATOM      3  C   UNL A   1      31.984  80.068  22.642  1.00  0.00     0.172 C 
ENDROOT
BRANCH   3   4
ATOM      4  C   UNL A   1      30.796  79.228  22.162  1.00  0.00     0.113 C 
BRANCH   4   5
ATOM      5  C   UNL A   1      31.125  77.878  21.537  1.00  0.00     0.006 C 
ATOM      6  C   UNL A   1      31.053  77.907  20.017  1.00  0.00     0.005 C 
ENDBRANCH   4   5
ENDBRANCH   3   4
TORSDOF 2
ENDMDL
MODEL 2
REMARK VINA RESULT:      -3.8      2.057      2.521
REMARK  2 active torsions:
REMARK  status: ('A' for Active; 'I' for Inactive)
REMARK    1  A    between atoms: C_3  and  C_4 
REMARK    2  A    between atoms: C_4  and  C_6 
ROOT
ATOM      1  O   UNL A   1      32.682  78.448  22.563  1.00  0.00    -0.648 OA
ATOM      2  O   UNL A   1      32.300  76.310  23.270  1.00  0.00    -0.648 OA
ATOM      3  C   UNL A   1      32.313  77.249  22.422  1.00  0.00     0.172 C 
ENDROOT
BRANCH   3   4
ATOM      4  C   UNL A   1      31.783  76.857  21.039  1.00  0.00     0.113 C 
BRANCH   4   5
ATOM      5  C   UNL A   1      31.082  77.953  20.244  1.00  0.00     0.006 C 
ATOM      6  C   UNL A   1      30.864  77.566  18.788  1.00  0.00     0.005 C 
ENDBRANCH   4   5
ENDBRANCH   3   4
TORSDOF 2
ENDMDL
MODEL 3
REMARK VINA RESULT:      -3.6      1.658      2.024
REMARK  2 active torsions:
REMARK  status: ('A' for Active; 'I' for Inactive)
REMARK    1  A    between atoms: C_3  and  C_4 
REMARK    2  A    between atoms: C_4  and  C_6 
ROOT
ATOM      1  O   UNL A   1      29.621  79.305  22.581  1.00  0.00    -0.648 OA
ATOM      2  O   UNL A   1      31.628  80.268  23.097  1.00  0.00    -0.648 OA
ATOM      3  C   UNL A   1      30.849  79.545  22.410  1.00  0.00     0.172 C 
ENDROOT
BRANCH   3   4
ATOM      4  C   UNL A   1      31.517  78.857  21.215  1.00  0.00     0.113 C 
BRANCH   4   5
ATOM      5  C   UNL A   1      31.666  77.342  21.298  1.00  0.00     0.006 C 
ATOM      6  C   UNL A   1      32.594  76.908  22.423  1.00  0.00     0.005 C 
ENDBRANCH   4   5
ENDBRANCH   3   4
TORSDOF 2
ENDMDL
MODEL 4
REMARK VINA RESULT:      -3.6      2.129      3.272
REMARK  2 active torsions:
REMARK  status: ('A' for Active; 'I' for Inactive)
REMARK    1  A    between atoms: C_3  and  C_4 
REMARK    2  A    between atoms: C_4  and  C_6 
ROOT
ATOM      1  O   UNL A   1      32.650  77.088  23.006  1.00  0.00    -0.648 OA
ATOM      2  O   UNL A   1      31.468  76.039  21.356  1.00  0.00    -0.648 OA
ATOM      3  C   UNL A   1      31.936  77.044  21.966  1.00  0.00     0.172 C 
ENDROOT
BRANCH   3   4
ATOM      4  C   UNL A   1      31.554  78.391  21.344  1.00  0.00     0.113 C 
BRANCH   4   5
ATOM      5  C   UNL A   1      30.934  79.422  22.281  1.00  0.00     0.006 C 
ATOM      6  C   UNL A   1      31.892  80.557  22.614  1.00  0.00     0.005 C 
ENDBRANCH   4   5
ENDBRANCH   3   4
TORSDOF 2
ENDMDL
MODEL 5
REMARK VINA RESULT:      -3.6      2.177      3.204
REMARK  2 active torsions:
REMARK  status: ('A' for Active; 'I' for Inactive)
REMARK    1  A    between atoms: C_3  and  C_4 
REMARK    2  A    between atoms: C_4  and  C_6 
ROOT
ATOM      1  O   UNL A   1      30.791  76.114  22.860  1.00  0.00    -0.648 OA
ATOM      2  O   UNL A   1      32.897  77.000  22.862  1.00  0.00    -0.648 OA
ATOM      3  C   UNL A   1      31.674  76.957  22.540  1.00  0.00     0.172 C 
ENDROOT
BRANCH   3   4
ATOM      4  C   UNL A   1      31.228  78.092  21.611  1.00  0.00     0.113 C 
BRANCH   4   5
ATOM      5  C   UNL A   1      30.732  79.367  22.284  1.00  0.00     0.006 C 
ATOM      6  C   UNL A   1      31.847  80.376  22.514  1.00  0.00     0.005 C 
ENDBRANCH   4   5
ENDBRANCH   3   4
TORSDOF 2
ENDMDL
MODEL 6
REMARK VINA RESULT:      -3.6      2.062      2.228
REMARK  2 active torsions:
REMARK  status: ('A' for Active; 'I' for Inactive)
REMARK    1  A    between atoms: C_3  and  C_4 
REMARK    2  A    between atoms: C_4  and  C_6 
ROOT
ATOM      1  O   UNL A   1      29.593  79.456  22.460  1.00  0.00    -0.648 OA
ATOM      2  O   UNL A   1      30.513  77.434  22.989  1.00  0.00    -0.648 OA
ATOM      3  C   UNL A   1      30.370  78.476  22.287  1.00  0.00     0.172 C 
ENDROOT
BRANCH   3   4
ATOM      4  C   UNL A   1      31.265  78.527  21.045  1.00  0.00     0.113 C 
BRANCH   4   5
ATOM      5  C   UNL A   1      31.222  77.312  20.125  1.00  0.00     0.006 C 
ATOM      6  C   UNL A   1      30.778  77.665  18.713  1.00  0.00     0.005 C 
ENDBRANCH   4   5
ENDBRANCH   3   4
TORSDOF 2
ENDMDL
MODEL 7
REMARK VINA RESULT:      -3.5      2.991      3.715
REMARK  2 active torsions:
REMARK  status: ('A' for Active; 'I' for Inactive)
REMARK    1  A    between atoms: C_3  and  C_4 
REMARK    2  A    between atoms: C_4  and  C_6 
ROOT
ATOM      1  O   UNL A   1      33.338  74.990  22.413  1.00  0.00    -0.648 OA
ATOM      2  O   UNL A   1      32.129  76.677  23.367  1.00  0.00    -0.648 OA
ATOM      3  C   UNL A   1      32.448  75.885  22.434  1.00  0.00     0.172 C 
ENDROOT
BRANCH   3   4
ATOM      4  C   UNL A   1      31.639  76.071  21.146  1.00  0.00     0.113 C 
BRANCH   4   5
ATOM      5  C   UNL A   1      31.870  77.367  20.377  1.00  0.00     0.006 C 
ATOM      6  C   UNL A   1      30.931  77.514  19.189  1.00  0.00     0.005 C 
ENDBRANCH   4   5
ENDBRANCH   3   4
TORSDOF 2
ENDMDL
MODEL 8
REMARK VINA RESULT:      -3.4      2.626      3.696
REMARK  2 active torsions:
REMARK  status: ('A' for Active; 'I' for Inactive)
REMARK    1  A    between atoms: C_3  and  C_4 
REMARK    2  A    between atoms: C_4  and  C_6 
ROOT
ATOM      1  O   UNL A   1      31.490  76.517  19.702  1.00  0.00    -0.648 OA
ATOM      2  O   UNL A   1      30.439  78.538  19.526  1.00  0.00    -0.648 OA
ATOM      3  C   UNL A   1      31.157  77.668  20.100  1.00  0.00     0.172 C 
ENDROOT
BRANCH   3   4
ATOM      4  C   UNL A   1      31.670  78.086  21.482  1.00  0.00     0.113 C 
BRANCH   4   5
ATOM      5  C   UNL A   1      30.977  79.278  22.133  1.00  0.00     0.006 C 
ATOM      6  C   UNL A   1      31.950  80.391  22.495  1.00  0.00     0.005 C 
ENDBRANCH   4   5
ENDBRANCH   3   4
TORSDOF 2
ENDMDL
MODEL 9
REMARK VINA RESULT:      -3.4      2.962      3.504
REMARK  2 active torsions:
REMARK  status: ('A' for Active; 'I' for Inactive)
REMARK    1  A    between atoms: C_3  and  C_4 
REMARK    2  A    between atoms: C_4  and  C_6 
ROOT
ATOM      1  O   UNL A   1      30.596  78.609  20.145  1.00  0.00    -0.648 OA
ATOM      2  O   UNL A   1      32.400  78.275  18.783  1.00  0.00    -0.648 OA
ATOM      3  C   UNL A   1      31.528  77.929  19.632  1.00  0.00     0.172 C 
ENDROOT
BRANCH   3   4
ATOM      4  C   UNL A   1      31.650  76.476  20.104  1.00  0.00     0.113 C 
BRANCH   4   5
ATOM      5  C   UNL A   1      31.490  76.231  21.600  1.00  0.00     0.006 C 
ATOM      6  C   UNL A   1      32.648  76.794  22.410  1.00  0.00     0.005 C 
ENDBRANCH   4   5
ENDBRANCH   3   4
TORSDOF 2
ENDMDL
