MODEL 1
REMARK VINA RESULT:      -6.2      0.000      0.000
REMARK  4 active torsions:
REMARK  status: ('A' for Active; 'I' for Inactive)
REMARK    1  A    between atoms: O_1  and  C_8 
REMARK    2  A    between atoms: O_2  and  C_9 
REMARK    3  A    between atoms: C_5  and  C_11 
REMARK    4  A    between atoms: C_12  and  C_13 
ROOT
ATOM      1  O   UNL A   1      13.181   5.244  16.231  1.00  0.00    -0.358 OA
ATOM      2  H   UNL A   1      12.822   4.398  16.414  1.00  0.00     0.217 HD
ENDROOT
BRANCH   1   3
ATOM      3  C   UNL A   1      12.805   5.913  15.106  1.00  0.00     0.099 A 
ATOM      4  C   UNL A   1      13.382   5.578  13.881  1.00  0.00     0.050 A 
ATOM      5  C   UNL A   1      13.004   6.256  12.722  1.00  0.00    -0.033 A 
ATOM      6  C   UNL A   1      12.047   7.268  12.788  1.00  0.00     0.014 A 
ATOM      7  C   UNL A   1      11.469   7.603  14.013  1.00  0.00     0.040 A 
ATOM      8  C   UNL A   1      11.848   6.926  15.171  1.00  0.00     0.098 A 
BRANCH   5   9
ATOM      9  C   UNL A   1      13.607   5.907  11.446  1.00  0.00     0.018 C 
ATOM     10  C   UNL A   1      13.240   4.839  10.743  1.00  0.00     0.085 C 
BRANCH  10  11
ATOM     11  C   UNL A   1      13.929   4.564   9.466  1.00  0.00     0.198 C 
ATOM     12  O   UNL A   1      15.236   4.893   9.598  1.00  0.00    -0.645 OA
ATOM     13  O   UNL A   1      13.423   4.116   8.451  1.00  0.00    -0.645 OA
ENDBRANCH  10  11
ENDBRANCH   5   9
BRANCH   8  14
ATOM     14  O   UNL A   1      11.276   7.261  16.361  1.00  0.00    -0.358 OA
ATOM     15  H   UNL A   1      11.486   6.776  17.135  1.00  0.00     0.217 HD
ENDBRANCH   8  14
ENDBRANCH   1   3
TORSDOF 4
ENDMDL
MODEL 2
REMARK VINA RESULT:      -6.2      2.264      2.552
REMARK  4 active torsions:
REMARK  status: ('A' for Active; 'I' for Inactive)
REMARK    1  A    between atoms: O_1  and  C_8 
REMARK    2  A    between atoms: O_2  and  C_9 
REMARK    3  A    between atoms: C_5  and  C_11 
REMARK    4  A    between atoms: C_12  and  C_13 
ROOT
ATOM      1  O   UNL A   1      11.535   3.227  14.825  1.00  0.00    -0.358 OA
ATOM      2  H   UNL A   1      10.827   3.698  15.219  1.00  0.00     0.217 HD
ENDROOT
BRANCH   1   3
ATOM      3  C   UNL A   1      12.547   3.904  14.215  1.00  0.00     0.099 A 
ATOM      4  C   UNL A   1      12.602   3.947  12.822  1.00  0.00     0.050 A 
ATOM      5  C   UNL A   1      13.633   4.639  12.186  1.00  0.00    -0.033 A 
ATOM      6  C   UNL A   1      14.608   5.289  12.943  1.00  0.00     0.014 A 
ATOM      7  C   UNL A   1      14.552   5.246  14.337  1.00  0.00     0.040 A 
ATOM      8  C   UNL A   1      13.521   4.553  14.972  1.00  0.00     0.098 A 
BRANCH   5   9
ATOM      9  C   UNL A   1      13.691   4.683  10.734  1.00  0.00     0.018 C 
ATOM     10  C   UNL A   1      13.108   3.771   9.961  1.00  0.00     0.085 C 
BRANCH  10  11
ATOM     11  C   UNL A   1      13.242   3.897   8.496  1.00  0.00     0.198 C 
ATOM     12  O   UNL A   1      12.530   4.974   8.086  1.00  0.00    -0.645 OA
ATOM     13  O   UNL A   1      13.881   3.165   7.759  1.00  0.00    -0.645 OA
ENDBRANCH  10  11
ENDBRANCH   5   9
BRANCH   8  14
ATOM     14  O   UNL A   1      13.477   4.520  16.333  1.00  0.00    -0.358 OA
ATOM     15  H   UNL A   1      14.187   4.871  16.834  1.00  0.00     0.217 HD
ENDBRANCH   8  14
ENDBRANCH   1   3
TORSDOF 4
ENDMDL
MODEL 3
REMARK VINA RESULT:      -6.2      3.251      4.968
REMARK  4 active torsions:
REMARK  status: ('A' for Active; 'I' for Inactive)
REMARK    1  A    between atoms: O_1  and  C_8 
REMARK    2  A    between atoms: O_2  and  C_9 
REMARK    3  A    between atoms: C_5  and  C_11 
REMARK    4  A    between atoms: C_12  and  C_13 
ROOT
ATOM      1  O   UNL A   1      12.520   4.317   9.223  1.00  0.00    -0.358 OA
ATOM      2  H   UNL A   1      12.044   3.512   9.164  1.00  0.00     0.217 HD
ENDROOT
BRANCH   1   3
ATOM      3  C   UNL A   1      13.235   4.605  10.346  1.00  0.00     0.099 A 
ATOM      4  C   UNL A   1      14.565   5.008  10.229  1.00  0.00     0.050 A 
ATOM      5  C   UNL A   1      15.307   5.308  11.372  1.00  0.00    -0.033 A 
ATOM      6  C   UNL A   1      14.717   5.206  12.632  1.00  0.00     0.014 A 
ATOM      7  C   UNL A   1      13.387   4.804  12.749  1.00  0.00     0.040 A 
ATOM      8  C   UNL A   1      12.646   4.504  11.606  1.00  0.00     0.098 A 
BRANCH   5   9
ATOM      9  C   UNL A   1      16.694   5.726  11.249  1.00  0.00     0.018 C 
ATOM     10  C   UNL A   1      17.504   5.852  12.296  1.00  0.00     0.085 C 
BRANCH  10  11
ATOM     11  C   UNL A   1      18.892   6.300  12.064  1.00  0.00     0.198 C 
ATOM     12  O   UNL A   1      19.324   6.962  13.164  1.00  0.00    -0.645 OA
ATOM     13  O   UNL A   1      19.556   6.115  11.058  1.00  0.00    -0.645 OA
ENDBRANCH  10  11
ENDBRANCH   5   9
BRANCH   8  14
ATOM     14  O   UNL A   1      11.347   4.114  11.733  1.00  0.00    -0.358 OA
ATOM     15  H   UNL A   1      10.663   4.629  11.352  1.00  0.00     0.217 HD
ENDBRANCH   8  14
ENDBRANCH   1   3
TORSDOF 4
ENDMDL
MODEL 4
REMARK VINA RESULT:      -6.1      1.457      5.789
REMARK  4 active torsions:
REMARK  status: ('A' for Active; 'I' for Inactive)
REMARK    1  A    between atoms: O_1  and  C_8 
REMARK    2  A    between atoms: O_2  and  C_9 
REMARK    3  A    between atoms: C_5  and  C_11 
REMARK    4  A    between atoms: C_12  and  C_13 
ROOT
ATOM      1  O   UNL A   1      16.319   5.166   9.557  1.00  0.00    -0.358 OA
ATOM      2  H   UNL A   1      16.683   4.508   8.999  1.00  0.00     0.217 HD
ENDROOT
BRANCH   1   3
ATOM      3  C   UNL A   1      15.044   5.039  10.019  1.00  0.00     0.099 A 
ATOM      4  C   UNL A   1      14.644   5.765  11.141  1.00  0.00     0.050 A 
ATOM      5  C   UNL A   1      13.340   5.645  11.623  1.00  0.00    -0.033 A 
ATOM      6  C   UNL A   1      12.436   4.798  10.981  1.00  0.00     0.014 A 
ATOM      7  C   UNL A   1      12.836   4.073   9.858  1.00  0.00     0.040 A 
ATOM      8  C   UNL A   1      14.140   4.193   9.378  1.00  0.00     0.098 A 
BRANCH   5   9
ATOM      9  C   UNL A   1      12.925   6.401  12.793  1.00  0.00     0.018 C 
ATOM     10  C   UNL A   1      12.048   7.400  12.732  1.00  0.00     0.085 C 
BRANCH  10  11
ATOM     11  C   UNL A   1      11.707   8.115  13.978  1.00  0.00     0.198 C 
ATOM     12  O   UNL A   1      11.955   9.435  13.803  1.00  0.00    -0.645 OA
ATOM     13  O   UNL A   1      11.272   7.619  15.004  1.00  0.00    -0.645 OA
ENDBRANCH  10  11
ENDBRANCH   5   9
BRANCH   8  14
ATOM     14  O   UNL A   1      14.517   3.481   8.281  1.00  0.00    -0.358 OA
ATOM     15  H   UNL A   1      14.336   3.811   7.422  1.00  0.00     0.217 HD
ENDBRANCH   8  14
ENDBRANCH   1   3
TORSDOF 4
ENDMDL
MODEL 5
REMARK VINA RESULT:      -6.0      1.658      5.778
REMARK  4 active torsions:
REMARK  status: ('A' for Active; 'I' for Inactive)
REMARK    1  A    between atoms: O_1  and  C_8 
REMARK    2  A    between atoms: O_2  and  C_9 
REMARK    3  A    between atoms: C_5  and  C_11 
REMARK    4  A    between atoms: C_12  and  C_13 
ROOT
ATOM      1  O   UNL A   1      12.160   3.476   9.763  1.00  0.00    -0.358 OA
ATOM      2  H   UNL A   1      12.207   2.585  10.050  1.00  0.00     0.217 HD
ENDROOT
BRANCH   1   3
ATOM      3  C   UNL A   1      13.077   4.382  10.204  1.00  0.00     0.099 A 
ATOM      4  C   UNL A   1      12.744   5.242  11.251  1.00  0.00     0.050 A 
ATOM      5  C   UNL A   1      13.676   6.172  11.712  1.00  0.00    -0.033 A 
ATOM      6  C   UNL A   1      14.940   6.241  11.127  1.00  0.00     0.014 A 
ATOM      7  C   UNL A   1      15.273   5.381  10.081  1.00  0.00     0.040 A 
ATOM      8  C   UNL A   1      14.341   4.451   9.620  1.00  0.00     0.098 A 
BRANCH   5   9
ATOM      9  C   UNL A   1      13.328   7.070  12.802  1.00  0.00     0.018 C 
ATOM     10  C   UNL A   1      12.124   7.621  12.927  1.00  0.00     0.085 C 
BRANCH  10  11
ATOM     11  C   UNL A   1      11.879   8.532  14.062  1.00  0.00     0.198 C 
ATOM     12  O   UNL A   1      11.249   7.844  15.044  1.00  0.00    -0.645 OA
ATOM     13  O   UNL A   1      12.184   9.711  14.125  1.00  0.00    -0.645 OA
ENDBRANCH  10  11
ENDBRANCH   5   9
BRANCH   8  14
ATOM     14  O   UNL A   1      14.678   3.616   8.599  1.00  0.00    -0.358 OA
ATOM     15  H   UNL A   1      14.831   2.707   8.768  1.00  0.00     0.217 HD
ENDBRANCH   8  14
ENDBRANCH   1   3
TORSDOF 4
ENDMDL
MODEL 6
REMARK VINA RESULT:      -5.9      1.696      2.268
REMARK  4 active torsions:
REMARK  status: ('A' for Active; 'I' for Inactive)
REMARK    1  A    between atoms: O_1  and  C_8 
REMARK    2  A    between atoms: O_2  and  C_9 
REMARK    3  A    between atoms: C_5  and  C_11 
REMARK    4  A    between atoms: C_12  and  C_13 
ROOT
ATOM      1  O   UNL A   1      10.980   6.957  14.250  1.00  0.00    -0.358 OA
ATOM      2  H   UNL A   1      10.258   7.431  13.885  1.00  0.00     0.217 HD
ENDROOT
BRANCH   1   3
ATOM      3  C   UNL A   1      12.147   6.855  13.557  1.00  0.00     0.099 A 
ATOM      4  C   UNL A   1      12.321   5.807  12.654  1.00  0.00     0.050 A 
ATOM      5  C   UNL A   1      13.512   5.693  11.936  1.00  0.00    -0.033 A 
ATOM      6  C   UNL A   1      14.529   6.630  12.122  1.00  0.00     0.014 A 
ATOM      7  C   UNL A   1      14.355   7.679  13.025  1.00  0.00     0.040 A 
ATOM      8  C   UNL A   1      13.164   7.791  13.742  1.00  0.00     0.098 A 
BRANCH   5   9
ATOM      9  C   UNL A   1      13.693   4.600  10.996  1.00  0.00     0.018 C 
ATOM     10  C   UNL A   1      13.163   4.602   9.776  1.00  0.00     0.085 C 
BRANCH  10  11
ATOM     11  C   UNL A   1      13.393   3.433   8.904  1.00  0.00     0.198 C 
ATOM     12  O   UNL A   1      12.826   2.345   9.478  1.00  0.00    -0.645 OA
ATOM     13  O   UNL A   1      13.991   3.427   7.841  1.00  0.00    -0.645 OA
ENDBRANCH  10  11
ENDBRANCH   5   9
BRANCH   8  14
ATOM     14  O   UNL A   1      13.006   8.821  14.620  1.00  0.00    -0.358 OA
ATOM     15  H   UNL A   1      12.774   8.645  15.511  1.00  0.00     0.217 HD
ENDBRANCH   8  14
ENDBRANCH   1   3
TORSDOF 4
ENDMDL
MODEL 7
REMARK VINA RESULT:      -5.9      0.966      1.772
REMARK  4 active torsions:
REMARK  status: ('A' for Active; 'I' for Inactive)
REMARK    1  A    between atoms: O_1  and  C_8 
REMARK    2  A    between atoms: O_2  and  C_9 
REMARK    3  A    between atoms: C_5  and  C_11 
REMARK    4  A    between atoms: C_12  and  C_13 
ROOT
ATOM      1  O   UNL A   1      12.277   9.190  14.588  1.00  0.00    -0.358 OA
ATOM      2  H   UNL A   1      11.490   9.450  15.026  1.00  0.00     0.217 HD
ENDROOT
BRANCH   1   3
ATOM      3  C   UNL A   1      12.493   7.878  14.298  1.00  0.00     0.099 A 
ATOM      4  C   UNL A   1      13.120   7.533  13.100  1.00  0.00     0.050 A 
ATOM      5  C   UNL A   1      13.348   6.192  12.792  1.00  0.00    -0.033 A 
ATOM      6  C   UNL A   1      12.951   5.195  13.684  1.00  0.00     0.014 A 
ATOM      7  C   UNL A   1      12.325   5.540  14.882  1.00  0.00     0.040 A 
ATOM      8  C   UNL A   1      12.096   6.881  15.188  1.00  0.00     0.098 A 
BRANCH   5   9
ATOM      9  C   UNL A   1      14.000   5.833  11.543  1.00  0.00     0.018 C 
ATOM     10  C   UNL A   1      13.541   4.879  10.738  1.00  0.00     0.085 C 
BRANCH  10  11
ATOM     11  C   UNL A   1      14.288   4.581   9.500  1.00  0.00     0.198 C 
ATOM     12  O   UNL A   1      15.567   5.000   9.653  1.00  0.00    -0.645 OA
ATOM     13  O   UNL A   1      13.846   4.048   8.496  1.00  0.00    -0.645 OA
ENDBRANCH  10  11
ENDBRANCH   5   9
BRANCH   8  14
ATOM     14  O   UNL A   1      11.485   7.204  16.362  1.00  0.00    -0.358 OA
ATOM     15  H   UNL A   1      11.960   7.665  17.026  1.00  0.00     0.217 HD
ENDBRANCH   8  14
ENDBRANCH   1   3
TORSDOF 4
ENDMDL
MODEL 8
REMARK VINA RESULT:      -5.8      3.330      4.453
REMARK  4 active torsions:
REMARK  status: ('A' for Active; 'I' for Inactive)
REMARK    1  A    between atoms: O_1  and  C_8 
REMARK    2  A    between atoms: O_2  and  C_9 
REMARK    3  A    between atoms: C_5  and  C_11 
REMARK    4  A    between atoms: C_12  and  C_13 
ROOT
ATOM      1  O   UNL A   1      12.198   4.989  14.080  1.00  0.00    -0.358 OA
ATOM      2  H   UNL A   1      11.291   5.172  13.931  1.00  0.00     0.217 HD
ENDROOT
BRANCH   1   3
ATOM      3  C   UNL A   1      13.082   5.035  13.046  1.00  0.00     0.099 A 
ATOM      4  C   UNL A   1      14.427   5.305  13.302  1.00  0.00     0.050 A 
ATOM      5  C   UNL A   1      15.342   5.353  12.250  1.00  0.00    -0.033 A 
ATOM      6  C   UNL A   1      14.912   5.130  10.942  1.00  0.00     0.014 A 
ATOM      7  C   UNL A   1      13.568   4.859  10.686  1.00  0.00     0.040 A 
ATOM      8  C   UNL A   1      12.653   4.812  11.738  1.00  0.00     0.098 A 
BRANCH   5   9
ATOM      9  C   UNL A   1      16.743   5.635  12.517  1.00  0.00     0.018 C 
ATOM     10  C   UNL A   1      17.654   5.741  11.554  1.00  0.00     0.085 C 
BRANCH  10  11
ATOM     11  C   UNL A   1      19.054   6.013  11.934  1.00  0.00     0.198 C 
ATOM     12  O   UNL A   1      19.205   5.749  13.253  1.00  0.00    -0.645 OA
ATOM     13  O   UNL A   1      19.942   6.411  11.198  1.00  0.00    -0.645 OA
ENDBRANCH  10  11
ENDBRANCH   5   9
BRANCH   8  14
ATOM     14  O   UNL A   1      11.343   4.546  11.475  1.00  0.00    -0.358 OA
ATOM     15  H   UNL A   1      10.755   5.246  11.271  1.00  0.00     0.217 HD
ENDBRANCH   8  14
ENDBRANCH   1   3
TORSDOF 4
ENDMDL
MODEL 9
REMARK VINA RESULT:      -5.8      3.304      5.324
REMARK  4 active torsions:
REMARK  status: ('A' for Active; 'I' for Inactive)
REMARK    1  A    between atoms: O_1  and  C_8 
REMARK    2  A    between atoms: O_2  and  C_9 
REMARK    3  A    between atoms: C_5  and  C_11 
REMARK    4  A    between atoms: C_12  and  C_13 
ROOT
ATOM      1  O   UNL A   1      11.489   4.200  11.868  1.00  0.00    -0.358 OA
ATOM      2  H   UNL A   1      10.926   4.865  12.212  1.00  0.00     0.217 HD
ENDROOT
BRANCH   1   3
ATOM      3  C   UNL A   1      12.748   4.519  11.460  1.00  0.00     0.099 A 
ATOM      4  C   UNL A   1      13.678   4.978  12.392  1.00  0.00     0.050 A 
ATOM      5  C   UNL A   1      14.972   5.306  11.985  1.00  0.00    -0.033 A 
ATOM      6  C   UNL A   1      15.335   5.172  10.645  1.00  0.00     0.014 A 
ATOM      7  C   UNL A   1      14.406   4.712   9.713  1.00  0.00     0.040 A 
ATOM      8  C   UNL A   1      13.113   4.385  10.120  1.00  0.00     0.098 A 
BRANCH   5   9
ATOM      9  C   UNL A   1      15.940   5.786  12.958  1.00  0.00     0.018 C 
ATOM     10  C   UNL A   1      17.249   5.802  12.724  1.00  0.00     0.085 C 
BRANCH  10  11
ATOM     11  C   UNL A   1      18.150   6.294  13.786  1.00  0.00     0.198 C 
ATOM     12  O   UNL A   1      18.054   7.644  13.845  1.00  0.00    -0.645 OA
ATOM     13  O   UNL A   1      18.867   5.616  14.501  1.00  0.00    -0.645 OA
ENDBRANCH  10  11
ENDBRANCH   5   9
BRANCH   8  14
ATOM     14  O   UNL A   1      12.214   3.936   9.200  1.00  0.00    -0.358 OA
ATOM     15  H   UNL A   1      11.322   3.791   9.448  1.00  0.00     0.217 HD
ENDBRANCH   8  14
ENDBRANCH   1   3
TORSDOF 4
ENDMDL
