MODEL 1
REMARK VINA RESULT:      -6.3      0.000      0.000
REMARK  4 active torsions:
REMARK  status: ('A' for Active; 'I' for Inactive)
REMARK    1  A    between atoms: O_1  and  C_8 
REMARK    2  A    between atoms: O_2  and  C_9 
REMARK    3  A    between atoms: C_5  and  C_11 
REMARK    4  A    between atoms: C_12  and  C_13 
ROOT
ATOM      1  O   UNL A   1      11.943   6.218  13.777  1.00  0.00    -0.358 OA
ATOM      2  H   UNL A   1      12.512   6.358  14.507  1.00  0.00     0.217 HD
ENDROOT
BRANCH   1   3
ATOM      3  C   UNL A   1      11.637   7.252  12.944  1.00  0.00     0.099 A 
ATOM      4  C   UNL A   1      11.985   7.174  11.596  1.00  0.00     0.050 A 
ATOM      5  C   UNL A   1      11.675   8.226  10.733  1.00  0.00    -0.033 A 
ATOM      6  C   UNL A   1      11.016   9.355  11.219  1.00  0.00     0.014 A 
ATOM      7  C   UNL A   1      10.667   9.432  12.568  1.00  0.00     0.040 A 
ATOM      8  C   UNL A   1      10.978   8.380  13.430  1.00  0.00     0.098 A 
BRANCH   5   9
ATOM      9  C   UNL A   1      12.040   8.145   9.328  1.00  0.00     0.018 C 
ATOM     10  C   UNL A   1      12.338   6.997   8.725  1.00  0.00     0.085 C 
BRANCH  10  11
ATOM     11  C   UNL A   1      12.713   7.027   7.297  1.00  0.00     0.198 C 
ATOM     12  O   UNL A   1      11.613   7.327   6.566  1.00  0.00    -0.645 OA
ATOM     13  O   UNL A   1      13.821   6.818   6.833  1.00  0.00    -0.645 OA
ENDBRANCH  10  11
ENDBRANCH   5   9
BRANCH   8  14
ATOM     14  O   UNL A   1      10.631   8.467  14.744  1.00  0.00    -0.358 OA
ATOM     15  H   UNL A   1      10.578   7.691  15.267  1.00  0.00     0.217 HD
ENDBRANCH   8  14
ENDBRANCH   1   3
TORSDOF 4
ENDMDL
MODEL 2
REMARK VINA RESULT:      -6.2      0.983      1.319
REMARK  4 active torsions:
REMARK  status: ('A' for Active; 'I' for Inactive)
REMARK    1  A    between atoms: O_1  and  C_8 
REMARK    2  A    between atoms: O_2  and  C_9 
REMARK    3  A    between atoms: C_5  and  C_11 
REMARK    4  A    between atoms: C_12  and  C_13 
ROOT
ATOM      1  O   UNL A   1      11.881   6.124  13.662  1.00  0.00    -0.358 OA
ATOM      2  H   UNL A   1      12.126   6.399  14.524  1.00  0.00     0.217 HD
ENDROOT
BRANCH   1   3
ATOM      3  C   UNL A   1      11.483   7.046  12.742  1.00  0.00     0.099 A 
ATOM      4  C   UNL A   1      11.715   6.808  11.387  1.00  0.00     0.050 A 
ATOM      5  C   UNL A   1      11.310   7.744  10.435  1.00  0.00    -0.033 A 
ATOM      6  C   UNL A   1      10.671   8.917  10.839  1.00  0.00     0.014 A 
ATOM      7  C   UNL A   1      10.438   9.154  12.193  1.00  0.00     0.040 A 
ATOM      8  C   UNL A   1      10.844   8.218  13.145  1.00  0.00     0.098 A 
BRANCH   5   9
ATOM      9  C   UNL A   1      11.554   7.497   9.023  1.00  0.00     0.018 C 
ATOM     10  C   UNL A   1      10.741   6.761   8.270  1.00  0.00     0.085 C 
BRANCH  10  11
ATOM     11  C   UNL A   1      11.089   6.557   6.849  1.00  0.00     0.198 C 
ATOM     12  O   UNL A   1      12.410   6.807   6.685  1.00  0.00    -0.645 OA
ATOM     13  O   UNL A   1      10.329   6.219   5.957  1.00  0.00    -0.645 OA
ENDBRANCH  10  11
ENDBRANCH   5   9
BRANCH   8  14
ATOM     14  O   UNL A   1      10.610   8.460  14.464  1.00  0.00    -0.358 OA
ATOM     15  H   UNL A   1      11.222   8.167  15.110  1.00  0.00     0.217 HD
ENDBRANCH   8  14
ENDBRANCH   1   3
TORSDOF 4
ENDMDL
MODEL 3
REMARK VINA RESULT:      -6.2      3.193      4.722
REMARK  4 active torsions:
REMARK  status: ('A' for Active; 'I' for Inactive)
REMARK    1  A    between atoms: O_1  and  C_8 
REMARK    2  A    between atoms: O_2  and  C_9 
REMARK    3  A    between atoms: C_5  and  C_11 
REMARK    4  A    between atoms: C_12  and  C_13 
ROOT
ATOM      1  O   UNL A   1      10.101   6.932   6.964  1.00  0.00    -0.358 OA
ATOM      2  H   UNL A   1      10.228   6.482   6.152  1.00  0.00     0.217 HD
ENDROOT
BRANCH   1   3
ATOM      3  C   UNL A   1      11.025   6.817   7.958  1.00  0.00     0.099 A 
ATOM      4  C   UNL A   1      12.376   7.005   7.665  1.00  0.00     0.050 A 
ATOM      5  C   UNL A   1      13.331   6.892   8.676  1.00  0.00    -0.033 A 
ATOM      6  C   UNL A   1      12.935   6.592   9.979  1.00  0.00     0.014 A 
ATOM      7  C   UNL A   1      11.584   6.405  10.272  1.00  0.00     0.040 A 
ATOM      8  C   UNL A   1      10.629   6.517   9.261  1.00  0.00     0.098 A 
BRANCH   5   9
ATOM      9  C   UNL A   1      14.739   7.086   8.370  1.00  0.00     0.018 C 
ATOM     10  C   UNL A   1      15.702   6.926   9.274  1.00  0.00     0.085 C 
BRANCH  10  11
ATOM     11  C   UNL A   1      17.101   7.165   8.864  1.00  0.00     0.198 C 
ATOM     12  O   UNL A   1      17.818   7.521   9.956  1.00  0.00    -0.645 OA
ATOM     13  O   UNL A   1      17.554   7.064   7.736  1.00  0.00    -0.645 OA
ENDBRANCH  10  11
ENDBRANCH   5   9
BRANCH   8  14
ATOM     14  O   UNL A   1       9.313   6.334   9.560  1.00  0.00    -0.358 OA
ATOM     15  H   UNL A   1       8.754   7.075   9.686  1.00  0.00     0.217 HD
ENDBRANCH   8  14
ENDBRANCH   1   3
TORSDOF 4
ENDMDL
MODEL 4
REMARK VINA RESULT:      -6.1      2.437      2.769
REMARK  4 active torsions:
REMARK  status: ('A' for Active; 'I' for Inactive)
REMARK    1  A    between atoms: O_1  and  C_8 
REMARK    2  A    between atoms: O_2  and  C_9 
REMARK    3  A    between atoms: C_5  and  C_11 
REMARK    4  A    between atoms: C_12  and  C_13 
ROOT
ATOM      1  O   UNL A   1       9.891   5.120  12.412  1.00  0.00    -0.358 OA
ATOM      2  H   UNL A   1       9.045   5.517  12.348  1.00  0.00     0.217 HD
ENDROOT
BRANCH   1   3
ATOM      3  C   UNL A   1      10.939   5.632  11.710  1.00  0.00     0.099 A 
ATOM      4  C   UNL A   1      10.795   5.885  10.346  1.00  0.00     0.050 A 
ATOM      5  C   UNL A   1      11.861   6.411   9.617  1.00  0.00    -0.033 A 
ATOM      6  C   UNL A   1      13.072   6.686  10.253  1.00  0.00     0.014 A 
ATOM      7  C   UNL A   1      13.216   6.434  11.617  1.00  0.00     0.040 A 
ATOM      8  C   UNL A   1      12.150   5.907  12.345  1.00  0.00     0.098 A 
BRANCH   5   9
ATOM      9  C   UNL A   1      11.710   6.673   8.195  1.00  0.00     0.018 C 
ATOM     10  C   UNL A   1      10.668   6.242   7.489  1.00  0.00     0.085 C 
BRANCH  10  11
ATOM     11  C   UNL A   1      10.619   6.548   6.045  1.00  0.00     0.198 C 
ATOM     12  O   UNL A   1      10.060   7.770   5.879  1.00  0.00    -0.645 OA
ATOM     13  O   UNL A   1      11.012   5.833   5.138  1.00  0.00    -0.645 OA
ENDBRANCH  10  11
ENDBRANCH   5   9
BRANCH   8  14
ATOM     14  O   UNL A   1      12.303   5.666  13.677  1.00  0.00    -0.358 OA
ATOM     15  H   UNL A   1      11.814   4.981  14.089  1.00  0.00     0.217 HD
ENDBRANCH   8  14
ENDBRANCH   1   3
TORSDOF 4
ENDMDL
MODEL 5
REMARK VINA RESULT:      -6.1      1.540      5.874
REMARK  4 active torsions:
REMARK  status: ('A' for Active; 'I' for Inactive)
REMARK    1  A    between atoms: O_1  and  C_8 
REMARK    2  A    between atoms: O_2  and  C_9 
REMARK    3  A    between atoms: C_5  and  C_11 
REMARK    4  A    between atoms: C_12  and  C_13 
ROOT
ATOM      1  O   UNL A   1      13.992   6.887   6.571  1.00  0.00    -0.358 OA
ATOM      2  H   UNL A   1      14.002   7.033   5.645  1.00  0.00     0.217 HD
ENDROOT
BRANCH   1   3
ATOM      3  C   UNL A   1      12.810   6.882   7.247  1.00  0.00     0.099 A 
ATOM      4  C   UNL A   1      12.753   7.408   8.537  1.00  0.00     0.050 A 
ATOM      5  C   UNL A   1      11.547   7.410   9.238  1.00  0.00    -0.033 A 
ATOM      6  C   UNL A   1      10.397   6.886   8.648  1.00  0.00     0.014 A 
ATOM      7  C   UNL A   1      10.453   6.361   7.357  1.00  0.00     0.040 A 
ATOM      8  C   UNL A   1      11.659   6.359   6.657  1.00  0.00     0.098 A 
BRANCH   5   9
ATOM      9  C   UNL A   1      11.489   7.956  10.584  1.00  0.00     0.018 C 
ATOM     10  C   UNL A   1      10.772   9.033  10.895  1.00  0.00     0.085 C 
BRANCH  10  11
ATOM     11  C   UNL A   1      10.795   9.518  12.290  1.00  0.00     0.198 C 
ATOM     12  O   UNL A   1      11.070  10.844  12.284  1.00  0.00    -0.645 OA
ATOM     13  O   UNL A   1      10.602   8.852  13.293  1.00  0.00    -0.645 OA
ENDBRANCH  10  11
ENDBRANCH   5   9
BRANCH   8  14
ATOM     14  O   UNL A   1      11.701   5.844   5.396  1.00  0.00    -0.358 OA
ATOM     15  H   UNL A   1      11.544   6.400   4.658  1.00  0.00     0.217 HD
ENDBRANCH   8  14
ENDBRANCH   1   3
TORSDOF 4
ENDMDL
MODEL 6
REMARK VINA RESULT:      -5.9      1.724      5.768
REMARK  4 active torsions:
REMARK  status: ('A' for Active; 'I' for Inactive)
REMARK    1  A    between atoms: O_1  and  C_8 
REMARK    2  A    between atoms: O_2  and  C_9 
REMARK    3  A    between atoms: C_5  and  C_11 
REMARK    4  A    between atoms: C_12  and  C_13 
ROOT
ATOM      1  O   UNL A   1       9.716   5.962   7.344  1.00  0.00    -0.358 OA
ATOM      2  H   UNL A   1       8.944   5.990   7.874  1.00  0.00     0.217 HD
ENDROOT
BRANCH   1   3
ATOM      3  C   UNL A   1      10.841   6.615   7.745  1.00  0.00     0.099 A 
ATOM      4  C   UNL A   1      10.843   7.296   8.963  1.00  0.00     0.050 A 
ATOM      5  C   UNL A   1      11.991   7.967   9.385  1.00  0.00    -0.033 A 
ATOM      6  C   UNL A   1      13.137   7.956   8.590  1.00  0.00     0.014 A 
ATOM      7  C   UNL A   1      13.135   7.274   7.373  1.00  0.00     0.040 A 
ATOM      8  C   UNL A   1      11.987   6.604   6.951  1.00  0.00     0.098 A 
BRANCH   5   9
ATOM      9  C   UNL A   1      11.992   8.678  10.653  1.00  0.00     0.018 C 
ATOM     10  C   UNL A   1      10.911   9.277  11.145  1.00  0.00     0.085 C 
BRANCH  10  11
ATOM     11  C   UNL A   1      11.022   9.988  12.435  1.00  0.00     0.198 C 
ATOM     12  O   UNL A   1      10.437   9.235  13.397  1.00  0.00    -0.645 OA
ATOM     13  O   UNL A   1      11.550  11.071  12.623  1.00  0.00    -0.645 OA
ENDBRANCH  10  11
ENDBRANCH   5   9
BRANCH   8  14
ATOM     14  O   UNL A   1      11.999   5.941   5.761  1.00  0.00    -0.358 OA
ATOM     15  H   UNL A   1      12.659   5.299   5.589  1.00  0.00     0.217 HD
ENDBRANCH   8  14
ENDBRANCH   1   3
TORSDOF 4
ENDMDL
MODEL 7
REMARK VINA RESULT:      -5.9      1.031      1.883
REMARK  4 active torsions:
REMARK  status: ('A' for Active; 'I' for Inactive)
REMARK    1  A    between atoms: O_1  and  C_8 
REMARK    2  A    between atoms: O_2  and  C_9 
REMARK    3  A    between atoms: C_5  and  C_11 
REMARK    4  A    between atoms: C_12  and  C_13 
ROOT
ATOM      1  O   UNL A   1       9.717   8.891  12.911  1.00  0.00    -0.358 OA
ATOM      2  H   UNL A   1       9.293   9.362  12.221  1.00  0.00     0.217 HD
ENDROOT
BRANCH   1   3
ATOM      3  C   UNL A   1      10.819   8.137  12.644  1.00  0.00     0.099 A 
ATOM      4  C   UNL A   1      11.139   7.832  11.321  1.00  0.00     0.050 A 
ATOM      5  C   UNL A   1      12.267   7.062  11.035  1.00  0.00    -0.033 A 
ATOM      6  C   UNL A   1      13.076   6.599  12.073  1.00  0.00     0.014 A 
ATOM      7  C   UNL A   1      12.756   6.905  13.396  1.00  0.00     0.040 A 
ATOM      8  C   UNL A   1      11.628   7.674  13.681  1.00  0.00     0.098 A 
BRANCH   5   9
ATOM      9  C   UNL A   1      12.599   6.743   9.656  1.00  0.00     0.018 C 
ATOM     10  C   UNL A   1      12.168   7.465   8.625  1.00  0.00     0.085 C 
BRANCH  10  11
ATOM     11  C   UNL A   1      12.549   7.045   7.262  1.00  0.00     0.198 C 
ATOM     12  O   UNL A   1      11.425   6.917   6.517  1.00  0.00    -0.645 OA
ATOM     13  O   UNL A   1      13.680   6.841   6.854  1.00  0.00    -0.645 OA
ENDBRANCH  10  11
ENDBRANCH   5   9
BRANCH   8  14
ATOM     14  O   UNL A   1      11.328   7.967  14.977  1.00  0.00    -0.358 OA
ATOM     15  H   UNL A   1      10.520   7.670  15.349  1.00  0.00     0.217 HD
ENDBRANCH   8  14
ENDBRANCH   1   3
TORSDOF 4
ENDMDL
MODEL 8
REMARK VINA RESULT:      -5.9      4.040      5.203
REMARK  4 active torsions:
REMARK  status: ('A' for Active; 'I' for Inactive)
REMARK    1  A    between atoms: O_1  and  C_8 
REMARK    2  A    between atoms: O_2  and  C_9 
REMARK    3  A    between atoms: C_5  and  C_11 
REMARK    4  A    between atoms: C_12  and  C_13 
ROOT
ATOM      1  O   UNL A   1      17.448   7.151   7.533  1.00  0.00    -0.358 OA
ATOM      2  H   UNL A   1      17.474   6.589   6.783  1.00  0.00     0.217 HD
ENDROOT
BRANCH   1   3
ATOM      3  C   UNL A   1      16.431   7.041   8.431  1.00  0.00     0.099 A 
ATOM      4  C   UNL A   1      15.112   7.024   7.978  1.00  0.00     0.050 A 
ATOM      5  C   UNL A   1      14.062   6.909   8.889  1.00  0.00    -0.033 A 
ATOM      6  C   UNL A   1      14.331   6.810  10.254  1.00  0.00     0.014 A 
ATOM      7  C   UNL A   1      15.650   6.826  10.707  1.00  0.00     0.040 A 
ATOM      8  C   UNL A   1      16.699   6.941   9.796  1.00  0.00     0.098 A 
BRANCH   5   9
ATOM      9  C   UNL A   1      12.687   6.893   8.416  1.00  0.00     0.018 C 
ATOM     10  C   UNL A   1      12.368   6.758   7.131  1.00  0.00     0.085 C 
BRANCH  10  11
ATOM     11  C   UNL A   1      10.941   6.772   6.753  1.00  0.00     0.198 C 
ATOM     12  O   UNL A   1      10.841   6.516   5.427  1.00  0.00    -0.645 OA
ATOM     13  O   UNL A   1       9.996   6.978   7.496  1.00  0.00    -0.645 OA
ENDBRANCH  10  11
ENDBRANCH   5   9
BRANCH   8  14
ATOM     14  O   UNL A   1      17.983   6.954  10.251  1.00  0.00    -0.358 OA
ATOM     15  H   UNL A   1      18.543   6.219  10.096  1.00  0.00     0.217 HD
ENDBRANCH   8  14
ENDBRANCH   1   3
TORSDOF 4
ENDMDL
MODEL 9
REMARK VINA RESULT:      -5.9      1.877      2.467
REMARK  4 active torsions:
REMARK  status: ('A' for Active; 'I' for Inactive)
REMARK    1  A    between atoms: O_1  and  C_8 
REMARK    2  A    between atoms: O_2  and  C_9 
REMARK    3  A    between atoms: C_5  and  C_11 
REMARK    4  A    between atoms: C_12  and  C_13 
ROOT
ATOM      1  O   UNL A   1      10.033   8.354  12.644  1.00  0.00    -0.358 OA
ATOM      2  H   UNL A   1      10.033   9.041  13.281  1.00  0.00     0.217 HD
ENDROOT
BRANCH   1   3
ATOM      3  C   UNL A   1      10.985   8.329  11.670  1.00  0.00     0.099 A 
ATOM      4  C   UNL A   1      10.823   7.484  10.572  1.00  0.00     0.050 A 
ATOM      5  C   UNL A   1      11.790   7.451   9.567  1.00  0.00    -0.033 A 
ATOM      6  C   UNL A   1      12.919   8.265   9.661  1.00  0.00     0.014 A 
ATOM      7  C   UNL A   1      13.081   9.110  10.758  1.00  0.00     0.040 A 
ATOM      8  C   UNL A   1      12.114   9.142  11.763  1.00  0.00     0.098 A 
BRANCH   5   9
ATOM      9  C   UNL A   1      11.621   6.570   8.424  1.00  0.00     0.018 C 
ATOM     10  C   UNL A   1      10.906   6.905   7.354  1.00  0.00     0.085 C 
BRANCH  10  11
ATOM     11  C   UNL A   1      10.782   5.929   6.253  1.00  0.00     0.198 C 
ATOM     12  O   UNL A   1      10.094   4.853   6.702  1.00  0.00    -0.645 OA
ATOM     13  O   UNL A   1      11.221   6.052   5.121  1.00  0.00    -0.645 OA
ENDBRANCH  10  11
ENDBRANCH   5   9
BRANCH   8  14
ATOM     14  O   UNL A   1      12.283   9.972  12.829  1.00  0.00    -0.358 OA
ATOM     15  H   UNL A   1      12.138  10.893  12.733  1.00  0.00     0.217 HD
ENDBRANCH   8  14
ENDBRANCH   1   3
TORSDOF 4
ENDMDL
