MODEL 1
REMARK VINA RESULT:      -6.2      0.000      0.000
REMARK  4 active torsions:
REMARK  status: ('A' for Active; 'I' for Inactive)
REMARK    1  A    between atoms: O_1  and  C_8 
REMARK    2  A    between atoms: O_2  and  C_9 
REMARK    3  A    between atoms: C_5  and  C_11 
REMARK    4  A    between atoms: C_12  and  C_13 
ROOT
ATOM      1  O   UNL A   1      13.154   5.227  16.220  1.00  0.00    -0.358 OA
ATOM      2  H   UNL A   1      14.054   5.010  16.365  1.00  0.00     0.217 HD
ENDROOT
BRANCH   1   3
ATOM      3  C   UNL A   1      12.788   5.898  15.093  1.00  0.00     0.099 A 
ATOM      4  C   UNL A   1      13.364   5.552  13.870  1.00  0.00     0.050 A 
ATOM      5  C   UNL A   1      12.995   6.232  12.708  1.00  0.00    -0.033 A 
ATOM      6  C   UNL A   1      12.050   7.255  12.770  1.00  0.00     0.014 A 
ATOM      7  C   UNL A   1      11.473   7.600  13.992  1.00  0.00     0.040 A 
ATOM      8  C   UNL A   1      11.843   6.921  15.153  1.00  0.00     0.098 A 
BRANCH   5   9
ATOM      9  C   UNL A   1      13.597   5.872  11.434  1.00  0.00     0.018 C 
ATOM     10  C   UNL A   1      13.186   4.836  10.710  1.00  0.00     0.085 C 
BRANCH  10  11
ATOM     11  C   UNL A   1      13.877   4.546   9.437  1.00  0.00     0.198 C 
ATOM     12  O   UNL A   1      15.186   4.867   9.571  1.00  0.00    -0.645 OA
ATOM     13  O   UNL A   1      13.371   4.093   8.423  1.00  0.00    -0.645 OA
ENDBRANCH  10  11
ENDBRANCH   5   9
BRANCH   8  14
ATOM     14  O   UNL A   1      11.272   7.266  16.341  1.00  0.00    -0.358 OA
ATOM     15  H   UNL A   1      10.339   7.257  16.433  1.00  0.00     0.217 HD
ENDBRANCH   8  14
ENDBRANCH   1   3
TORSDOF 4
ENDMDL
MODEL 2
REMARK VINA RESULT:      -6.2      3.290      5.055
REMARK  4 active torsions:
REMARK  status: ('A' for Active; 'I' for Inactive)
REMARK    1  A    between atoms: O_1  and  C_8 
REMARK    2  A    between atoms: O_2  and  C_9 
REMARK    3  A    between atoms: C_5  and  C_11 
REMARK    4  A    between atoms: C_12  and  C_13 
ROOT
ATOM      1  O   UNL A   1      12.600   4.501   9.079  1.00  0.00    -0.358 OA
ATOM      2  H   UNL A   1      12.806   3.761   8.542  1.00  0.00     0.217 HD
ENDROOT
BRANCH   1   3
ATOM      3  C   UNL A   1      13.305   4.728  10.222  1.00  0.00     0.099 A 
ATOM      4  C   UNL A   1      14.647   5.097  10.140  1.00  0.00     0.050 A 
ATOM      5  C   UNL A   1      15.378   5.335  11.305  1.00  0.00    -0.033 A 
ATOM      6  C   UNL A   1      14.765   5.206  12.551  1.00  0.00     0.014 A 
ATOM      7  C   UNL A   1      13.422   4.838  12.633  1.00  0.00     0.040 A 
ATOM      8  C   UNL A   1      12.692   4.600  11.468  1.00  0.00     0.098 A 
BRANCH   5   9
ATOM      9  C   UNL A   1      16.778   5.717  11.219  1.00  0.00     0.018 C 
ATOM     10  C   UNL A   1      17.550   5.875  12.291  1.00  0.00     0.085 C 
BRANCH  10  11
ATOM     11  C   UNL A   1      18.956   6.282  12.095  1.00  0.00     0.198 C 
ATOM     12  O   UNL A   1      19.385   6.913  13.214  1.00  0.00    -0.645 OA
ATOM     13  O   UNL A   1      19.634   6.093  11.099  1.00  0.00    -0.645 OA
ENDBRANCH  10  11
ENDBRANCH   5   9
BRANCH   8  14
ATOM     14  O   UNL A   1      11.381   4.242  11.561  1.00  0.00    -0.358 OA
ATOM     15  H   UNL A   1      11.048   3.540  11.037  1.00  0.00     0.217 HD
ENDBRANCH   8  14
ENDBRANCH   1   3
TORSDOF 4
ENDMDL
MODEL 3
REMARK VINA RESULT:      -6.2      2.260      2.538
REMARK  4 active torsions:
REMARK  status: ('A' for Active; 'I' for Inactive)
REMARK    1  A    between atoms: O_1  and  C_8 
REMARK    2  A    between atoms: O_2  and  C_9 
REMARK    3  A    between atoms: C_5  and  C_11 
REMARK    4  A    between atoms: C_12  and  C_13 
ROOT
ATOM      1  O   UNL A   1      11.549   3.239  14.840  1.00  0.00    -0.358 OA
ATOM      2  H   UNL A   1      11.415   3.329  15.763  1.00  0.00     0.217 HD
ENDROOT
BRANCH   1   3
ATOM      3  C   UNL A   1      12.567   3.907  14.231  1.00  0.00     0.099 A 
ATOM      4  C   UNL A   1      12.629   3.944  12.838  1.00  0.00     0.050 A 
ATOM      5  C   UNL A   1      13.667   4.626  12.203  1.00  0.00    -0.033 A 
ATOM      6  C   UNL A   1      14.642   5.274  12.962  1.00  0.00     0.014 A 
ATOM      7  C   UNL A   1      14.579   5.238  14.355  1.00  0.00     0.040 A 
ATOM      8  C   UNL A   1      13.542   4.555  14.989  1.00  0.00     0.098 A 
BRANCH   5   9
ATOM      9  C   UNL A   1      13.732   4.663  10.751  1.00  0.00     0.018 C 
ATOM     10  C   UNL A   1      13.079   3.799   9.978  1.00  0.00     0.085 C 
BRANCH  10  11
ATOM     11  C   UNL A   1      13.226   3.912   8.513  1.00  0.00     0.198 C 
ATOM     12  O   UNL A   1      12.510   4.979   8.086  1.00  0.00    -0.645 OA
ATOM     13  O   UNL A   1      13.878   3.177   7.790  1.00  0.00    -0.645 OA
ENDBRANCH  10  11
ENDBRANCH   5   9
BRANCH   8  14
ATOM     14  O   UNL A   1      13.491   4.528  16.350  1.00  0.00    -0.358 OA
ATOM     15  H   UNL A   1      13.103   3.797  16.790  1.00  0.00     0.217 HD
ENDBRANCH   8  14
ENDBRANCH   1   3
TORSDOF 4
ENDMDL
MODEL 4
REMARK VINA RESULT:      -6.1      1.420      5.795
REMARK  4 active torsions:
REMARK  status: ('A' for Active; 'I' for Inactive)
REMARK    1  A    between atoms: O_1  and  C_8 
REMARK    2  A    between atoms: O_2  and  C_9 
REMARK    3  A    between atoms: C_5  and  C_11 
REMARK    4  A    between atoms: C_12  and  C_13 
ROOT
ATOM      1  O   UNL A   1      16.367   5.084   9.491  1.00  0.00    -0.358 OA
ATOM      2  H   UNL A   1      17.013   4.473   9.788  1.00  0.00     0.217 HD
ENDROOT
BRANCH   1   3
ATOM      3  C   UNL A   1      15.097   5.023   9.978  1.00  0.00     0.099 A 
ATOM      4  C   UNL A   1      14.749   5.792  11.089  1.00  0.00     0.050 A 
ATOM      5  C   UNL A   1      13.450   5.739  11.596  1.00  0.00    -0.033 A 
ATOM      6  C   UNL A   1      12.499   4.917  10.990  1.00  0.00     0.014 A 
ATOM      7  C   UNL A   1      12.847   4.148   9.879  1.00  0.00     0.040 A 
ATOM      8  C   UNL A   1      14.146   4.202   9.374  1.00  0.00     0.098 A 
BRANCH   5   9
ATOM      9  C   UNL A   1      13.088   6.539  12.754  1.00  0.00     0.018 C 
ATOM     10  C   UNL A   1      11.918   7.162  12.863  1.00  0.00     0.085 C 
BRANCH  10  11
ATOM     11  C   UNL A   1      11.656   7.965  14.075  1.00  0.00     0.198 C 
ATOM     12  O   UNL A   1      11.885   9.268  13.789  1.00  0.00    -0.645 OA
ATOM     13  O   UNL A   1      11.294   7.543  15.160  1.00  0.00    -0.645 OA
ENDBRANCH  10  11
ENDBRANCH   5   9
BRANCH   8  14
ATOM     14  O   UNL A   1      14.473   3.448   8.288  1.00  0.00    -0.358 OA
ATOM     15  H   UNL A   1      14.721   2.550   8.398  1.00  0.00     0.217 HD
ENDBRANCH   8  14
ENDBRANCH   1   3
TORSDOF 4
ENDMDL
MODEL 5
REMARK VINA RESULT:      -5.9      1.627      5.745
REMARK  4 active torsions:
REMARK  status: ('A' for Active; 'I' for Inactive)
REMARK    1  A    between atoms: O_1  and  C_8 
REMARK    2  A    between atoms: O_2  and  C_9 
REMARK    3  A    between atoms: C_5  and  C_11 
REMARK    4  A    between atoms: C_12  and  C_13 
ROOT
ATOM      1  O   UNL A   1      12.212   3.158   9.963  1.00  0.00    -0.358 OA
ATOM      2  H   UNL A   1      12.529   2.278  10.019  1.00  0.00     0.217 HD
ENDROOT
BRANCH   1   3
ATOM      3  C   UNL A   1      13.017   4.196  10.320  1.00  0.00     0.099 A 
ATOM      4  C   UNL A   1      12.666   4.995  11.408  1.00  0.00     0.050 A 
ATOM      5  C   UNL A   1      13.485   6.061  11.784  1.00  0.00    -0.033 A 
ATOM      6  C   UNL A   1      14.655   6.325  11.073  1.00  0.00     0.014 A 
ATOM      7  C   UNL A   1      15.007   5.525   9.986  1.00  0.00     0.040 A 
ATOM      8  C   UNL A   1      14.187   4.461   9.610  1.00  0.00     0.098 A 
BRANCH   5   9
ATOM      9  C   UNL A   1      13.118   6.895  12.917  1.00  0.00     0.018 C 
ATOM     10  C   UNL A   1      12.162   7.817  12.854  1.00  0.00     0.085 C 
BRANCH  10  11
ATOM     11  C   UNL A   1      11.878   8.624  14.058  1.00  0.00     0.198 C 
ATOM     12  O   UNL A   1      11.234   7.845  14.960  1.00  0.00    -0.645 OA
ATOM     13  O   UNL A   1      12.166   9.796  14.231  1.00  0.00    -0.645 OA
ENDBRANCH  10  11
ENDBRANCH   5   9
BRANCH   8  14
ATOM     14  O   UNL A   1      14.542   3.686   8.547  1.00  0.00    -0.358 OA
ATOM     15  H   UNL A   1      15.293   3.911   8.033  1.00  0.00     0.217 HD
ENDBRANCH   8  14
ENDBRANCH   1   3
TORSDOF 4
ENDMDL
MODEL 6
REMARK VINA RESULT:      -5.9      1.743      2.311
REMARK  4 active torsions:
REMARK  status: ('A' for Active; 'I' for Inactive)
REMARK    1  A    between atoms: O_1  and  C_8 
REMARK    2  A    between atoms: O_2  and  C_9 
REMARK    3  A    between atoms: C_5  and  C_11 
REMARK    4  A    between atoms: C_12  and  C_13 
ROOT
ATOM      1  O   UNL A   1      10.929   7.265  14.215  1.00  0.00    -0.358 OA
ATOM      2  H   UNL A   1      10.099   7.000  13.870  1.00  0.00     0.217 HD
ENDROOT
BRANCH   1   3
ATOM      3  C   UNL A   1      12.069   7.011  13.515  1.00  0.00     0.099 A 
ATOM      4  C   UNL A   1      12.106   5.933  12.630  1.00  0.00     0.050 A 
ATOM      5  C   UNL A   1      13.269   5.665  11.906  1.00  0.00    -0.033 A 
ATOM      6  C   UNL A   1      14.393   6.475  12.066  1.00  0.00     0.014 A 
ATOM      7  C   UNL A   1      14.355   7.553  12.951  1.00  0.00     0.040 A 
ATOM      8  C   UNL A   1      13.193   7.820  13.675  1.00  0.00     0.098 A 
BRANCH   5   9
ATOM      9  C   UNL A   1      13.307   4.541  10.984  1.00  0.00     0.018 C 
ATOM     10  C   UNL A   1      13.563   4.681   9.686  1.00  0.00     0.085 C 
BRANCH  10  11
ATOM     11  C   UNL A   1      13.562   3.475   8.833  1.00  0.00     0.198 C 
ATOM     12  O   UNL A   1      12.851   2.504   9.454  1.00  0.00    -0.645 OA
ATOM     13  O   UNL A   1      14.104   3.354   7.747  1.00  0.00    -0.645 OA
ENDBRANCH  10  11
ENDBRANCH   5   9
BRANCH   8  14
ATOM     14  O   UNL A   1      13.169   8.877  14.535  1.00  0.00    -0.358 OA
ATOM     15  H   UNL A   1      13.850   9.519  14.507  1.00  0.00     0.217 HD
ENDBRANCH   8  14
ENDBRANCH   1   3
TORSDOF 4
ENDMDL
MODEL 7
REMARK VINA RESULT:      -5.9      3.422      5.414
REMARK  4 active torsions:
REMARK  status: ('A' for Active; 'I' for Inactive)
REMARK    1  A    between atoms: O_1  and  C_8 
REMARK    2  A    between atoms: O_2  and  C_9 
REMARK    3  A    between atoms: C_5  and  C_11 
REMARK    4  A    between atoms: C_12  and  C_13 
ROOT
ATOM      1  O   UNL A   1      14.012   4.655   8.714  1.00  0.00    -0.358 OA
ATOM      2  H   UNL A   1      13.208   4.921   8.312  1.00  0.00     0.217 HD
ENDROOT
BRANCH   1   3
ATOM      3  C   UNL A   1      14.188   4.813  10.055  1.00  0.00     0.099 A 
ATOM      4  C   UNL A   1      15.423   5.243  10.541  1.00  0.00     0.050 A 
ATOM      5  C   UNL A   1      15.614   5.410  11.913  1.00  0.00    -0.033 A 
ATOM      6  C   UNL A   1      14.568   5.149  12.798  1.00  0.00     0.014 A 
ATOM      7  C   UNL A   1      13.333   4.721  12.313  1.00  0.00     0.040 A 
ATOM      8  C   UNL A   1      13.143   4.553  10.941  1.00  0.00     0.098 A 
BRANCH   5   9
ATOM      9  C   UNL A   1      16.902   5.856  12.418  1.00  0.00     0.018 C 
ATOM     10  C   UNL A   1      17.975   5.987  11.642  1.00  0.00     0.085 C 
BRANCH  10  11
ATOM     11  C   UNL A   1      19.241   6.431  12.259  1.00  0.00     0.198 C 
ATOM     12  O   UNL A   1      20.255   6.181  11.396  1.00  0.00    -0.645 OA
ATOM     13  O   UNL A   1      19.373   6.939  13.359  1.00  0.00    -0.645 OA
ENDBRANCH  10  11
ENDBRANCH   5   9
BRANCH   8  14
ATOM     14  O   UNL A   1      11.932   4.136  10.479  1.00  0.00    -0.358 OA
ATOM     15  H   UNL A   1      11.834   3.881   9.583  1.00  0.00     0.217 HD
ENDBRANCH   8  14
ENDBRANCH   1   3
TORSDOF 4
ENDMDL
MODEL 8
REMARK VINA RESULT:      -5.9      1.101      2.075
REMARK  4 active torsions:
REMARK  status: ('A' for Active; 'I' for Inactive)
REMARK    1  A    between atoms: O_1  and  C_8 
REMARK    2  A    between atoms: O_2  and  C_9 
REMARK    3  A    between atoms: C_5  and  C_11 
REMARK    4  A    between atoms: C_12  and  C_13 
ROOT
ATOM      1  O   UNL A   1      12.139   9.366  14.741  1.00  0.00    -0.358 OA
ATOM      2  H   UNL A   1      11.396   9.809  14.381  1.00  0.00     0.217 HD
ENDROOT
BRANCH   1   3
ATOM      3  C   UNL A   1      12.396   8.075  14.393  1.00  0.00     0.099 A 
ATOM      4  C   UNL A   1      13.083   7.806  13.210  1.00  0.00     0.050 A 
ATOM      5  C   UNL A   1      13.355   6.487  12.844  1.00  0.00    -0.033 A 
ATOM      6  C   UNL A   1      12.940   5.438  13.664  1.00  0.00     0.014 A 
ATOM      7  C   UNL A   1      12.254   5.707  14.848  1.00  0.00     0.040 A 
ATOM      8  C   UNL A   1      11.982   7.025  15.212  1.00  0.00     0.098 A 
BRANCH   5   9
ATOM      9  C   UNL A   1      14.069   6.208  11.609  1.00  0.00     0.018 C 
ATOM     10  C   UNL A   1      14.145   4.990  11.080  1.00  0.00     0.085 C 
BRANCH  10  11
ATOM     11  C   UNL A   1      14.911   4.810   9.830  1.00  0.00     0.198 C 
ATOM     12  O   UNL A   1      14.066   4.382   8.861  1.00  0.00    -0.645 OA
ATOM     13  O   UNL A   1      16.104   5.008   9.675  1.00  0.00    -0.645 OA
ENDBRANCH  10  11
ENDBRANCH   5   9
BRANCH   8  14
ATOM     14  O   UNL A   1      11.313   7.275  16.372  1.00  0.00    -0.358 OA
ATOM     15  H   UNL A   1      11.571   7.991  16.917  1.00  0.00     0.217 HD
ENDBRANCH   8  14
ENDBRANCH   1   3
TORSDOF 4
ENDMDL
MODEL 9
REMARK VINA RESULT:      -5.9      1.669      2.059
REMARK  4 active torsions:
REMARK  status: ('A' for Active; 'I' for Inactive)
REMARK    1  A    between atoms: O_1  and  C_8 
REMARK    2  A    between atoms: O_2  and  C_9 
REMARK    3  A    between atoms: C_5  and  C_11 
REMARK    4  A    between atoms: C_12  and  C_13 
ROOT
ATOM      1  O   UNL A   1      11.834   4.539  15.022  1.00  0.00    -0.358 OA
ATOM      2  H   UNL A   1      12.290   3.725  14.938  1.00  0.00     0.217 HD
ENDROOT
BRANCH   1   3
ATOM      3  C   UNL A   1      12.345   5.667  14.457  1.00  0.00     0.099 A 
ATOM      4  C   UNL A   1      13.258   5.557  13.408  1.00  0.00     0.050 A 
ATOM      5  C   UNL A   1      13.787   6.707  12.819  1.00  0.00    -0.033 A 
ATOM      6  C   UNL A   1      13.401   7.966  13.279  1.00  0.00     0.014 A 
ATOM      7  C   UNL A   1      12.487   8.075  14.328  1.00  0.00     0.040 A 
ATOM      8  C   UNL A   1      11.960   6.926  14.916  1.00  0.00     0.098 A 
BRANCH   5   9
ATOM      9  C   UNL A   1      14.739   6.591  11.727  1.00  0.00     0.018 C 
ATOM     10  C   UNL A   1      15.606   5.587  11.629  1.00  0.00     0.085 C 
BRANCH  10  11
ATOM     11  C   UNL A   1      16.544   5.573  10.488  1.00  0.00     0.198 C 
ATOM     12  O   UNL A   1      15.996   4.846   9.485  1.00  0.00    -0.645 OA
ATOM     13  O   UNL A   1      17.633   6.118  10.438  1.00  0.00    -0.645 OA
ENDBRANCH  10  11
ENDBRANCH   5   9
BRANCH   8  14
ATOM     14  O   UNL A   1      11.068   7.047  15.938  1.00  0.00    -0.358 OA
ATOM     15  H   UNL A   1      10.219   6.656  15.868  1.00  0.00     0.217 HD
ENDBRANCH   8  14
ENDBRANCH   1   3
TORSDOF 4
ENDMDL
