MODEL 1
REMARK VINA RESULT:      -6.2      0.000      0.000
REMARK  4 active torsions:
REMARK  status: ('A' for Active; 'I' for Inactive)
REMARK    1  A    between atoms: O_1  and  C_8 
REMARK    2  A    between atoms: O_2  and  C_9 
REMARK    3  A    between atoms: C_5  and  C_11 
REMARK    4  A    between atoms: C_12  and  C_13 
ROOT
ATOM      1  O   UNL A   1      11.880   6.130  13.656  1.00  0.00    -0.358 OA
ATOM      2  H   UNL A   1      12.494   5.465  13.413  1.00  0.00     0.217 HD
ENDROOT
BRANCH   1   3
ATOM      3  C   UNL A   1      11.477   7.051  12.737  1.00  0.00     0.099 A 
ATOM      4  C   UNL A   1      11.713   6.820  11.382  1.00  0.00     0.050 A 
ATOM      5  C   UNL A   1      11.302   7.755  10.432  1.00  0.00    -0.033 A 
ATOM      6  C   UNL A   1      10.654   8.922  10.838  1.00  0.00     0.014 A 
ATOM      7  C   UNL A   1      10.418   9.153  12.193  1.00  0.00     0.040 A 
ATOM      8  C   UNL A   1      10.829   8.218  13.142  1.00  0.00     0.098 A 
BRANCH   5   9
ATOM      9  C   UNL A   1      11.550   7.514   9.020  1.00  0.00     0.018 C 
ATOM     10  C   UNL A   1      10.774   6.731   8.276  1.00  0.00     0.085 C 
BRANCH  10  11
ATOM     11  C   UNL A   1      11.124   6.538   6.854  1.00  0.00     0.198 C 
ATOM     12  O   UNL A   1      12.446   6.783   6.695  1.00  0.00    -0.645 OA
ATOM     13  O   UNL A   1      10.363   6.213   5.957  1.00  0.00    -0.645 OA
ENDBRANCH  10  11
ENDBRANCH   5   9
BRANCH   8  14
ATOM     14  O   UNL A   1      10.591   8.455  14.462  1.00  0.00    -0.358 OA
ATOM     15  H   UNL A   1       9.804   8.889  14.726  1.00  0.00     0.217 HD
ENDBRANCH   8  14
ENDBRANCH   1   3
TORSDOF 4
ENDMDL
MODEL 2
REMARK VINA RESULT:      -6.1      3.481      5.125
REMARK  4 active torsions:
REMARK  status: ('A' for Active; 'I' for Inactive)
REMARK    1  A    between atoms: O_1  and  C_8 
REMARK    2  A    between atoms: O_2  and  C_9 
REMARK    3  A    between atoms: C_5  and  C_11 
REMARK    4  A    between atoms: C_12  and  C_13 
ROOT
ATOM      1  O   UNL A   1      10.176   6.862   6.945  1.00  0.00    -0.358 OA
ATOM      2  H   UNL A   1      10.104   7.643   6.432  1.00  0.00     0.217 HD
ENDROOT
BRANCH   1   3
ATOM      3  C   UNL A   1      11.094   6.790   7.948  1.00  0.00     0.099 A 
ATOM      4  C   UNL A   1      12.442   7.003   7.664  1.00  0.00     0.050 A 
ATOM      5  C   UNL A   1      13.391   6.933   8.685  1.00  0.00    -0.033 A 
ATOM      6  C   UNL A   1      12.990   6.652   9.990  1.00  0.00     0.014 A 
ATOM      7  C   UNL A   1      11.641   6.440  10.275  1.00  0.00     0.040 A 
ATOM      8  C   UNL A   1      10.693   6.509   9.254  1.00  0.00     0.098 A 
BRANCH   5   9
ATOM      9  C   UNL A   1      14.797   7.154   8.387  1.00  0.00     0.018 C 
ATOM     10  C   UNL A   1      15.769   6.877   9.252  1.00  0.00     0.085 C 
BRANCH  10  11
ATOM     11  C   UNL A   1      17.165   7.155   8.857  1.00  0.00     0.198 C 
ATOM     12  O   UNL A   1      17.868   7.500   9.961  1.00  0.00    -0.645 OA
ATOM     13  O   UNL A   1      17.627   7.090   7.730  1.00  0.00    -0.645 OA
ENDBRANCH  10  11
ENDBRANCH   5   9
BRANCH   8  14
ATOM     14  O   UNL A   1       9.379   6.301   9.546  1.00  0.00    -0.358 OA
ATOM     15  H   UNL A   1       8.727   6.888   9.215  1.00  0.00     0.217 HD
ENDBRANCH   8  14
ENDBRANCH   1   3
TORSDOF 4
ENDMDL
MODEL 3
REMARK VINA RESULT:      -6.1      2.074      2.330
REMARK  4 active torsions:
REMARK  status: ('A' for Active; 'I' for Inactive)
REMARK    1  A    between atoms: O_1  and  C_8 
REMARK    2  A    between atoms: O_2  and  C_9 
REMARK    3  A    between atoms: C_5  and  C_11 
REMARK    4  A    between atoms: C_12  and  C_13 
ROOT
ATOM      1  O   UNL A   1       9.869   5.000  12.289  1.00  0.00    -0.358 OA
ATOM      2  H   UNL A   1       9.448   4.246  11.927  1.00  0.00     0.217 HD
ENDROOT
BRANCH   1   3
ATOM      3  C   UNL A   1      10.900   5.591  11.624  1.00  0.00     0.099 A 
ATOM      4  C   UNL A   1      10.800   5.799  10.248  1.00  0.00     0.050 A 
ATOM      5  C   UNL A   1      11.850   6.405   9.557  1.00  0.00    -0.033 A 
ATOM      6  C   UNL A   1      12.997   6.804  10.242  1.00  0.00     0.014 A 
ATOM      7  C   UNL A   1      13.096   6.597  11.618  1.00  0.00     0.040 A 
ATOM      8  C   UNL A   1      12.047   5.990  12.308  1.00  0.00     0.098 A 
BRANCH   5   9
ATOM      9  C   UNL A   1      11.747   6.620   8.122  1.00  0.00     0.018 C 
ATOM     10  C   UNL A   1      10.668   6.287   7.419  1.00  0.00     0.085 C 
BRANCH  10  11
ATOM     11  C   UNL A   1      10.671   6.532   5.963  1.00  0.00     0.198 C 
ATOM     12  O   UNL A   1      10.205   7.782   5.732  1.00  0.00    -0.645 OA
ATOM     13  O   UNL A   1      11.029   5.752   5.097  1.00  0.00    -0.645 OA
ENDBRANCH  10  11
ENDBRANCH   5   9
BRANCH   8  14
ATOM     14  O   UNL A   1      12.155   5.795  13.652  1.00  0.00    -0.358 OA
ATOM     15  H   UNL A   1      12.544   6.455  14.192  1.00  0.00     0.217 HD
ENDBRANCH   8  14
ENDBRANCH   1   3
TORSDOF 4
ENDMDL
MODEL 4
REMARK VINA RESULT:      -6.1      1.488      5.799
REMARK  4 active torsions:
REMARK  status: ('A' for Active; 'I' for Inactive)
REMARK    1  A    between atoms: O_1  and  C_8 
REMARK    2  A    between atoms: O_2  and  C_9 
REMARK    3  A    between atoms: C_5  and  C_11 
REMARK    4  A    between atoms: C_12  and  C_13 
ROOT
ATOM      1  O   UNL A   1      14.021   6.929   6.597  1.00  0.00    -0.358 OA
ATOM      2  H   UNL A   1      14.827   6.814   7.060  1.00  0.00     0.217 HD
ENDROOT
BRANCH   1   3
ATOM      3  C   UNL A   1      12.841   6.943   7.277  1.00  0.00     0.099 A 
ATOM      4  C   UNL A   1      12.791   7.498   8.556  1.00  0.00     0.050 A 
ATOM      5  C   UNL A   1      11.587   7.520   9.261  1.00  0.00    -0.033 A 
ATOM      6  C   UNL A   1      10.434   6.987   8.686  1.00  0.00     0.014 A 
ATOM      7  C   UNL A   1      10.483   6.432   7.407  1.00  0.00     0.040 A 
ATOM      8  C   UNL A   1      11.687   6.410   6.703  1.00  0.00     0.098 A 
BRANCH   5   9
ATOM      9  C   UNL A   1      11.537   8.098  10.594  1.00  0.00     0.018 C 
ATOM     10  C   UNL A   1      10.693   9.071  10.926  1.00  0.00     0.085 C 
BRANCH  10  11
ATOM     11  C   UNL A   1      10.734   9.601  12.304  1.00  0.00     0.198 C 
ATOM     12  O   UNL A   1      11.185  10.877  12.266  1.00  0.00    -0.645 OA
ATOM     13  O   UNL A   1      10.419   9.004  13.321  1.00  0.00    -0.645 OA
ENDBRANCH  10  11
ENDBRANCH   5   9
BRANCH   8  14
ATOM     14  O   UNL A   1      11.722   5.867   5.455  1.00  0.00    -0.358 OA
ATOM     15  H   UNL A   1      11.841   6.419   4.707  1.00  0.00     0.217 HD
ENDBRANCH   8  14
ENDBRANCH   1   3
TORSDOF 4
ENDMDL
MODEL 5
REMARK VINA RESULT:      -6.0      1.697      5.796
REMARK  4 active torsions:
REMARK  status: ('A' for Active; 'I' for Inactive)
REMARK    1  A    between atoms: O_1  and  C_8 
REMARK    2  A    between atoms: O_2  and  C_9 
REMARK    3  A    between atoms: C_5  and  C_11 
REMARK    4  A    between atoms: C_12  and  C_13 
ROOT
ATOM      1  O   UNL A   1       9.703   5.905   7.356  1.00  0.00    -0.358 OA
ATOM      2  H   UNL A   1       9.589   5.008   7.599  1.00  0.00     0.217 HD
ENDROOT
BRANCH   1   3
ATOM      3  C   UNL A   1      10.821   6.579   7.745  1.00  0.00     0.099 A 
ATOM      4  C   UNL A   1      10.823   7.262   8.961  1.00  0.00     0.050 A 
ATOM      5  C   UNL A   1      11.963   7.954   9.371  1.00  0.00    -0.033 A 
ATOM      6  C   UNL A   1      13.101   7.961   8.566  1.00  0.00     0.014 A 
ATOM      7  C   UNL A   1      13.100   7.277   7.350  1.00  0.00     0.040 A 
ATOM      8  C   UNL A   1      11.959   6.586   6.940  1.00  0.00     0.098 A 
BRANCH   5   9
ATOM      9  C   UNL A   1      11.963   8.668  10.638  1.00  0.00     0.018 C 
ATOM     10  C   UNL A   1      10.895   9.307  11.106  1.00  0.00     0.085 C 
BRANCH  10  11
ATOM     11  C   UNL A   1      11.006  10.016  12.397  1.00  0.00     0.198 C 
ATOM     12  O   UNL A   1      10.442   9.252  13.362  1.00  0.00    -0.645 OA
ATOM     13  O   UNL A   1      11.517  11.108  12.584  1.00  0.00    -0.645 OA
ENDBRANCH  10  11
ENDBRANCH   5   9
BRANCH   8  14
ATOM     14  O   UNL A   1      11.971   5.921   5.752  1.00  0.00    -0.358 OA
ATOM     15  H   UNL A   1      12.657   6.078   5.133  1.00  0.00     0.217 HD
ENDBRANCH   8  14
ENDBRANCH   1   3
TORSDOF 4
ENDMDL
MODEL 6
REMARK VINA RESULT:      -5.9      1.683      2.228
REMARK  4 active torsions:
REMARK  status: ('A' for Active; 'I' for Inactive)
REMARK    1  A    between atoms: O_1  and  C_8 
REMARK    2  A    between atoms: O_2  and  C_9 
REMARK    3  A    between atoms: C_5  and  C_11 
REMARK    4  A    between atoms: C_12  and  C_13 
ROOT
ATOM      1  O   UNL A   1       9.863   8.726  12.348  1.00  0.00    -0.358 OA
ATOM      2  H   UNL A   1       9.601   9.589  12.600  1.00  0.00     0.217 HD
ENDROOT
BRANCH   1   3
ATOM      3  C   UNL A   1      10.904   8.556  11.486  1.00  0.00     0.099 A 
ATOM      4  C   UNL A   1      10.761   7.699  10.395  1.00  0.00     0.050 A 
ATOM      5  C   UNL A   1      11.820   7.519   9.505  1.00  0.00    -0.033 A 
ATOM      6  C   UNL A   1      13.022   8.197   9.705  1.00  0.00     0.014 A 
ATOM      7  C   UNL A   1      13.165   9.055  10.796  1.00  0.00     0.040 A 
ATOM      8  C   UNL A   1      12.106   9.235  11.686  1.00  0.00     0.098 A 
BRANCH   5   9
ATOM      9  C   UNL A   1      11.670   6.624   8.369  1.00  0.00     0.018 C 
ATOM     10  C   UNL A   1      10.859   6.885   7.347  1.00  0.00     0.085 C 
BRANCH  10  11
ATOM     11  C   UNL A   1      10.767   5.901   6.250  1.00  0.00     0.198 C 
ATOM     12  O   UNL A   1      10.078   4.821   6.692  1.00  0.00    -0.645 OA
ATOM     13  O   UNL A   1      11.227   6.020   5.127  1.00  0.00    -0.645 OA
ENDBRANCH  10  11
ENDBRANCH   5   9
BRANCH   8  14
ATOM     14  O   UNL A   1      12.258  10.076  12.746  1.00  0.00    -0.358 OA
ATOM     15  H   UNL A   1      12.240  11.004  12.614  1.00  0.00     0.217 HD
ENDBRANCH   8  14
ENDBRANCH   1   3
TORSDOF 4
ENDMDL
MODEL 7
REMARK VINA RESULT:      -5.9      3.465      4.583
REMARK  4 active torsions:
REMARK  status: ('A' for Active; 'I' for Inactive)
REMARK    1  A    between atoms: O_1  and  C_8 
REMARK    2  A    between atoms: O_2  and  C_9 
REMARK    3  A    between atoms: C_5  and  C_11 
REMARK    4  A    between atoms: C_12  and  C_13 
ROOT
ATOM      1  O   UNL A   1      10.656   6.237  11.849  1.00  0.00    -0.358 OA
ATOM      2  H   UNL A   1       9.735   6.407  11.883  1.00  0.00     0.217 HD
ENDROOT
BRANCH   1   3
ATOM      3  C   UNL A   1      11.344   6.446  10.692  1.00  0.00     0.099 A 
ATOM      4  C   UNL A   1      12.735   6.551  10.730  1.00  0.00     0.050 A 
ATOM      5  C   UNL A   1      13.451   6.763   9.551  1.00  0.00    -0.033 A 
ATOM      6  C   UNL A   1      12.776   6.869   8.336  1.00  0.00     0.014 A 
ATOM      7  C   UNL A   1      11.385   6.764   8.298  1.00  0.00     0.040 A 
ATOM      8  C   UNL A   1      10.670   6.552   9.476  1.00  0.00     0.098 A 
BRANCH   5   9
ATOM      9  C   UNL A   1      14.900   6.874   9.592  1.00  0.00     0.018 C 
ATOM     10  C   UNL A   1      15.640   7.046   8.500  1.00  0.00     0.085 C 
BRANCH  10  11
ATOM     11  C   UNL A   1      17.107   7.129   8.648  1.00  0.00     0.198 C 
ATOM     12  O   UNL A   1      17.393   7.563   9.899  1.00  0.00    -0.645 OA
ATOM     13  O   UNL A   1      17.939   6.857   7.799  1.00  0.00    -0.645 OA
ENDBRANCH  10  11
ENDBRANCH   5   9
BRANCH   8  14
ATOM     14  O   UNL A   1       9.313   6.450   9.426  1.00  0.00    -0.358 OA
ATOM     15  H   UNL A   1       8.835   6.881   8.745  1.00  0.00     0.217 HD
ENDBRANCH   8  14
ENDBRANCH   1   3
TORSDOF 4
ENDMDL
MODEL 8
REMARK VINA RESULT:      -5.8      0.967      1.820
REMARK  4 active torsions:
REMARK  status: ('A' for Active; 'I' for Inactive)
REMARK    1  A    between atoms: O_1  and  C_8 
REMARK    2  A    between atoms: O_2  and  C_9 
REMARK    3  A    between atoms: C_5  and  C_11 
REMARK    4  A    between atoms: C_12  and  C_13 
ROOT
ATOM      1  O   UNL A   1      11.530  10.506  12.917  1.00  0.00    -0.358 OA
ATOM      2  H   UNL A   1      11.368  11.250  12.371  1.00  0.00     0.217 HD
ENDROOT
BRANCH   1   3
ATOM      3  C   UNL A   1      11.463   9.250  12.395  1.00  0.00     0.099 A 
ATOM      4  C   UNL A   1      11.774   9.048  11.050  1.00  0.00     0.050 A 
ATOM      5  C   UNL A   1      11.711   7.765  10.505  1.00  0.00    -0.033 A 
ATOM      6  C   UNL A   1      11.338   6.685  11.305  1.00  0.00     0.014 A 
ATOM      7  C   UNL A   1      11.028   6.887  12.650  1.00  0.00     0.040 A 
ATOM      8  C   UNL A   1      11.090   8.170  13.194  1.00  0.00     0.098 A 
BRANCH   5   9
ATOM      9  C   UNL A   1      12.033   7.555   9.103  1.00  0.00     0.018 C 
ATOM     10  C   UNL A   1      11.209   6.944   8.257  1.00  0.00     0.085 C 
BRANCH  10  11
ATOM     11  C   UNL A   1      11.640   6.766   6.856  1.00  0.00     0.198 C 
ATOM     12  O   UNL A   1      12.988   6.882   6.798  1.00  0.00    -0.645 OA
ATOM     13  O   UNL A   1      10.919   6.550   5.896  1.00  0.00    -0.645 OA
ENDBRANCH  10  11
ENDBRANCH   5   9
BRANCH   8  14
ATOM     14  O   UNL A   1      10.786   8.354  14.509  1.00  0.00    -0.358 OA
ATOM     15  H   UNL A   1      11.097   7.747  15.152  1.00  0.00     0.217 HD
ENDBRANCH   8  14
ENDBRANCH   1   3
TORSDOF 4
ENDMDL
MODEL 9
REMARK VINA RESULT:      -5.8      3.749      5.148
REMARK  4 active torsions:
REMARK  status: ('A' for Active; 'I' for Inactive)
REMARK    1  A    between atoms: O_1  and  C_8 
REMARK    2  A    between atoms: O_2  and  C_9 
REMARK    3  A    between atoms: C_5  and  C_11 
REMARK    4  A    between atoms: C_12  and  C_13 
ROOT
ATOM      1  O   UNL A   1      17.445   7.250   7.465  1.00  0.00    -0.358 OA
ATOM      2  H   UNL A   1      18.011   7.997   7.480  1.00  0.00     0.217 HD
ENDROOT
BRANCH   1   3
ATOM      3  C   UNL A   1      16.483   7.105   8.418  1.00  0.00     0.099 A 
ATOM      4  C   UNL A   1      15.143   7.045   8.038  1.00  0.00     0.050 A 
ATOM      5  C   UNL A   1      14.149   6.894   9.006  1.00  0.00    -0.033 A 
ATOM      6  C   UNL A   1      14.496   6.803  10.353  1.00  0.00     0.014 A 
ATOM      7  C   UNL A   1      15.837   6.862  10.734  1.00  0.00     0.040 A 
ATOM      8  C   UNL A   1      16.830   7.013   9.766  1.00  0.00     0.098 A 
BRANCH   5   9
ATOM      9  C   UNL A   1      12.751   6.833   8.609  1.00  0.00     0.018 C 
ATOM     10  C   UNL A   1      12.354   6.970   7.347  1.00  0.00     0.085 C 
BRANCH  10  11
ATOM     11  C   UNL A   1      10.908   6.909   7.052  1.00  0.00     0.198 C 
ATOM     12  O   UNL A   1      10.743   6.767   5.715  1.00  0.00    -0.645 OA
ATOM     13  O   UNL A   1       9.999   6.973   7.862  1.00  0.00    -0.645 OA
ENDBRANCH  10  11
ENDBRANCH   5   9
BRANCH   8  14
ATOM     14  O   UNL A   1      18.136   7.069  10.150  1.00  0.00    -0.358 OA
ATOM     15  H   UNL A   1      18.354   7.252  11.042  1.00  0.00     0.217 HD
ENDBRANCH   8  14
ENDBRANCH   1   3
TORSDOF 4
ENDMDL
