MODEL 1
REMARK VINA RESULT:      -6.2      0.000      0.000
REMARK  4 active torsions:
REMARK  status: ('A' for Active; 'I' for Inactive)
REMARK    1  A    between atoms: O_1  and  C_8 
REMARK    2  A    between atoms: O_2  and  C_9 
REMARK    3  A    between atoms: C_5  and  C_11 
REMARK    4  A    between atoms: C_12  and  C_13 
ROOT
ATOM      1  O   UNL A   1      13.166   5.248  16.224  1.00  0.00    -0.358 OA
ATOM      2  H   UNL A   1      13.241   4.314  16.210  1.00  0.00     0.217 HD
ENDROOT
BRANCH   1   3
ATOM      3  C   UNL A   1      12.792   5.917  15.099  1.00  0.00     0.099 A 
ATOM      4  C   UNL A   1      13.362   5.573  13.873  1.00  0.00     0.050 A 
ATOM      5  C   UNL A   1      12.986   6.251  12.713  1.00  0.00    -0.033 A 
ATOM      6  C   UNL A   1      12.037   7.271  12.779  1.00  0.00     0.014 A 
ATOM      7  C   UNL A   1      11.466   7.614  14.005  1.00  0.00     0.040 A 
ATOM      8  C   UNL A   1      11.844   6.937  15.164  1.00  0.00     0.098 A 
BRANCH   5   9
ATOM      9  C   UNL A   1      13.582   5.893  11.436  1.00  0.00     0.018 C 
ATOM     10  C   UNL A   1      13.164   4.860  10.710  1.00  0.00     0.085 C 
BRANCH  10  11
ATOM     11  C   UNL A   1      13.850   4.571   9.434  1.00  0.00     0.198 C 
ATOM     12  O   UNL A   1      15.164   4.869   9.570  1.00  0.00    -0.645 OA
ATOM     13  O   UNL A   1      13.336   4.137   8.416  1.00  0.00    -0.645 OA
ENDBRANCH  10  11
ENDBRANCH   5   9
BRANCH   8  14
ATOM     14  O   UNL A   1      11.278   7.281  16.354  1.00  0.00    -0.358 OA
ATOM     15  H   UNL A   1      11.821   7.525  17.078  1.00  0.00     0.217 HD
ENDBRANCH   8  14
ENDBRANCH   1   3
TORSDOF 4
ENDMDL
MODEL 2
REMARK VINA RESULT:      -6.2      3.277      5.000
REMARK  4 active torsions:
REMARK  status: ('A' for Active; 'I' for Inactive)
REMARK    1  A    between atoms: O_1  and  C_8 
REMARK    2  A    between atoms: O_2  and  C_9 
REMARK    3  A    between atoms: C_5  and  C_11 
REMARK    4  A    between atoms: C_12  and  C_13 
ROOT
ATOM      1  O   UNL A   1      12.521   4.342   9.207  1.00  0.00    -0.358 OA
ATOM      2  H   UNL A   1      11.993   3.568   9.168  1.00  0.00     0.217 HD
ENDROOT
BRANCH   1   3
ATOM      3  C   UNL A   1      13.232   4.624  10.334  1.00  0.00     0.099 A 
ATOM      4  C   UNL A   1      14.567   5.012  10.225  1.00  0.00     0.050 A 
ATOM      5  C   UNL A   1      15.304   5.306  11.373  1.00  0.00    -0.033 A 
ATOM      6  C   UNL A   1      14.705   5.212  12.629  1.00  0.00     0.014 A 
ATOM      7  C   UNL A   1      13.370   4.824  12.738  1.00  0.00     0.040 A 
ATOM      8  C   UNL A   1      12.634   4.530  11.590  1.00  0.00     0.098 A 
BRANCH   5   9
ATOM      9  C   UNL A   1      16.697   5.709  11.259  1.00  0.00     0.018 C 
ATOM     10  C   UNL A   1      17.492   5.861  12.315  1.00  0.00     0.085 C 
BRANCH  10  11
ATOM     11  C   UNL A   1      18.887   6.291  12.091  1.00  0.00     0.198 C 
ATOM     12  O   UNL A   1      19.314   6.966  13.184  1.00  0.00    -0.645 OA
ATOM     13  O   UNL A   1      19.559   6.084  11.095  1.00  0.00    -0.645 OA
ENDBRANCH  10  11
ENDBRANCH   5   9
BRANCH   8  14
ATOM     14  O   UNL A   1      11.330   4.154  11.710  1.00  0.00    -0.358 OA
ATOM     15  H   UNL A   1      11.056   3.638  12.443  1.00  0.00     0.217 HD
ENDBRANCH   8  14
ENDBRANCH   1   3
TORSDOF 4
ENDMDL
MODEL 3
REMARK VINA RESULT:      -6.2      2.243      2.524
REMARK  4 active torsions:
REMARK  status: ('A' for Active; 'I' for Inactive)
REMARK    1  A    between atoms: O_1  and  C_8 
REMARK    2  A    between atoms: O_2  and  C_9 
REMARK    3  A    between atoms: C_5  and  C_11 
REMARK    4  A    between atoms: C_12  and  C_13 
ROOT
ATOM      1  O   UNL A   1      11.548   3.304  14.806  1.00  0.00    -0.358 OA
ATOM      2  H   UNL A   1      10.789   3.059  14.315  1.00  0.00     0.217 HD
ENDROOT
BRANCH   1   3
ATOM      3  C   UNL A   1      12.571   3.964  14.195  1.00  0.00     0.099 A 
ATOM      4  C   UNL A   1      12.646   3.975  12.802  1.00  0.00     0.050 A 
ATOM      5  C   UNL A   1      13.688   4.649  12.164  1.00  0.00    -0.033 A 
ATOM      6  C   UNL A   1      14.653   5.314  12.920  1.00  0.00     0.014 A 
ATOM      7  C   UNL A   1      14.577   5.304  14.313  1.00  0.00     0.040 A 
ATOM      8  C   UNL A   1      13.536   4.629  14.950  1.00  0.00     0.098 A 
BRANCH   5   9
ATOM      9  C   UNL A   1      13.766   4.658  10.712  1.00  0.00     0.018 C 
ATOM     10  C   UNL A   1      13.046   3.844   9.946  1.00  0.00     0.085 C 
BRANCH  10  11
ATOM     11  C   UNL A   1      13.213   3.922   8.481  1.00  0.00     0.198 C 
ATOM     12  O   UNL A   1      12.562   5.020   8.028  1.00  0.00    -0.645 OA
ATOM     13  O   UNL A   1      13.831   3.140   7.778  1.00  0.00    -0.645 OA
ENDBRANCH  10  11
ENDBRANCH   5   9
BRANCH   8  14
ATOM     14  O   UNL A   1      13.473   4.627  16.310  1.00  0.00    -0.358 OA
ATOM     15  H   UNL A   1      12.649   4.505  16.741  1.00  0.00     0.217 HD
ENDBRANCH   8  14
ENDBRANCH   1   3
TORSDOF 4
ENDMDL
MODEL 4
REMARK VINA RESULT:      -6.0      1.418      5.774
REMARK  4 active torsions:
REMARK  status: ('A' for Active; 'I' for Inactive)
REMARK    1  A    between atoms: O_1  and  C_8 
REMARK    2  A    between atoms: O_2  and  C_9 
REMARK    3  A    between atoms: C_5  and  C_11 
REMARK    4  A    between atoms: C_12  and  C_13 
ROOT
ATOM      1  O   UNL A   1      16.388   5.185   9.587  1.00  0.00    -0.358 OA
ATOM      2  H   UNL A   1      16.893   4.401   9.492  1.00  0.00     0.217 HD
ENDROOT
BRANCH   1   3
ATOM      3  C   UNL A   1      15.124   5.123  10.089  1.00  0.00     0.099 A 
ATOM      4  C   UNL A   1      14.782   5.908  11.191  1.00  0.00     0.050 A 
ATOM      5  C   UNL A   1      13.489   5.854  11.712  1.00  0.00    -0.033 A 
ATOM      6  C   UNL A   1      12.537   5.017  11.130  1.00  0.00     0.014 A 
ATOM      7  C   UNL A   1      12.878   4.233  10.028  1.00  0.00     0.040 A 
ATOM      8  C   UNL A   1      14.171   4.286   9.508  1.00  0.00     0.098 A 
BRANCH   5   9
ATOM      9  C   UNL A   1      13.135   6.671  12.861  1.00  0.00     0.018 C 
ATOM     10  C   UNL A   1      11.932   7.220  13.012  1.00  0.00     0.085 C 
BRANCH  10  11
ATOM     11  C   UNL A   1      11.680   8.047  14.209  1.00  0.00     0.198 C 
ATOM     12  O   UNL A   1      11.910   9.345  13.897  1.00  0.00    -0.645 OA
ATOM     13  O   UNL A   1      11.323   7.649  15.305  1.00  0.00    -0.645 OA
ENDBRANCH  10  11
ENDBRANCH   5   9
BRANCH   8  14
ATOM     14  O   UNL A   1      14.492   3.517   8.430  1.00  0.00    -0.358 OA
ATOM     15  H   UNL A   1      13.926   2.817   8.170  1.00  0.00     0.217 HD
ENDBRANCH   8  14
ENDBRANCH   1   3
TORSDOF 4
ENDMDL
MODEL 5
REMARK VINA RESULT:      -5.9      1.717      2.269
REMARK  4 active torsions:
REMARK  status: ('A' for Active; 'I' for Inactive)
REMARK    1  A    between atoms: O_1  and  C_8 
REMARK    2  A    between atoms: O_2  and  C_9 
REMARK    3  A    between atoms: C_5  and  C_11 
REMARK    4  A    between atoms: C_12  and  C_13 
ROOT
ATOM      1  O   UNL A   1      10.877   7.253  14.383  1.00  0.00    -0.358 OA
ATOM      2  H   UNL A   1      10.992   7.392  15.303  1.00  0.00     0.217 HD
ENDROOT
BRANCH   1   3
ATOM      3  C   UNL A   1      11.961   7.034  13.588  1.00  0.00     0.099 A 
ATOM      4  C   UNL A   1      11.935   5.990  12.664  1.00  0.00     0.050 A 
ATOM      5  C   UNL A   1      13.038   5.757  11.842  1.00  0.00    -0.033 A 
ATOM      6  C   UNL A   1      14.167   6.571  11.944  1.00  0.00     0.014 A 
ATOM      7  C   UNL A   1      14.192   7.616  12.868  1.00  0.00     0.040 A 
ATOM      8  C   UNL A   1      13.089   7.847  13.689  1.00  0.00     0.098 A 
BRANCH   5   9
ATOM      9  C   UNL A   1      13.011   4.668  10.880  1.00  0.00     0.018 C 
ATOM     10  C   UNL A   1      13.764   4.655   9.783  1.00  0.00     0.085 C 
BRANCH  10  11
ATOM     11  C   UNL A   1      13.648   3.508   8.861  1.00  0.00     0.198 C 
ATOM     12  O   UNL A   1      12.823   2.588   9.414  1.00  0.00    -0.645 OA
ATOM     13  O   UNL A   1      14.196   3.389   7.778  1.00  0.00    -0.645 OA
ENDBRANCH  10  11
ENDBRANCH   5   9
BRANCH   8  14
ATOM     14  O   UNL A   1      13.126   8.871  14.587  1.00  0.00    -0.358 OA
ATOM     15  H   UNL A   1      12.572   9.618  14.469  1.00  0.00     0.217 HD
ENDBRANCH   8  14
ENDBRANCH   1   3
TORSDOF 4
ENDMDL
MODEL 6
REMARK VINA RESULT:      -5.9      1.511      5.744
REMARK  4 active torsions:
REMARK  status: ('A' for Active; 'I' for Inactive)
REMARK    1  A    between atoms: O_1  and  C_8 
REMARK    2  A    between atoms: O_2  and  C_9 
REMARK    3  A    between atoms: C_5  and  C_11 
REMARK    4  A    between atoms: C_12  and  C_13 
ROOT
ATOM      1  O   UNL A   1      12.282   2.833   9.825  1.00  0.00    -0.358 OA
ATOM      2  H   UNL A   1      11.610   2.504  10.389  1.00  0.00     0.217 HD
ENDROOT
BRANCH   1   3
ATOM      3  C   UNL A   1      13.019   3.914  10.202  1.00  0.00     0.099 A 
ATOM      4  C   UNL A   1      12.631   4.654  11.319  1.00  0.00     0.050 A 
ATOM      5  C   UNL A   1      13.379   5.763  11.716  1.00  0.00    -0.033 A 
ATOM      6  C   UNL A   1      14.516   6.130  10.996  1.00  0.00     0.014 A 
ATOM      7  C   UNL A   1      14.904   5.389   9.879  1.00  0.00     0.040 A 
ATOM      8  C   UNL A   1      14.155   4.282   9.483  1.00  0.00     0.098 A 
BRANCH   5   9
ATOM      9  C   UNL A   1      12.973   6.535  12.879  1.00  0.00     0.018 C 
ATOM     10  C   UNL A   1      12.000   7.441  12.839  1.00  0.00     0.085 C 
BRANCH  10  11
ATOM     11  C   UNL A   1      11.677   8.184  14.074  1.00  0.00     0.198 C 
ATOM     12  O   UNL A   1      11.938   9.497  13.871  1.00  0.00    -0.645 OA
ATOM     13  O   UNL A   1      11.247   7.712  15.113  1.00  0.00    -0.645 OA
ENDBRANCH  10  11
ENDBRANCH   5   9
BRANCH   8  14
ATOM     14  O   UNL A   1      14.546   3.566   8.392  1.00  0.00    -0.358 OA
ATOM     15  H   UNL A   1      14.168   3.746   7.553  1.00  0.00     0.217 HD
ENDBRANCH   8  14
ENDBRANCH   1   3
TORSDOF 4
ENDMDL
MODEL 7
REMARK VINA RESULT:      -5.9      0.975      1.777
REMARK  4 active torsions:
REMARK  status: ('A' for Active; 'I' for Inactive)
REMARK    1  A    between atoms: O_1  and  C_8 
REMARK    2  A    between atoms: O_2  and  C_9 
REMARK    3  A    between atoms: C_5  and  C_11 
REMARK    4  A    between atoms: C_12  and  C_13 
ROOT
ATOM      1  O   UNL A   1      12.279   9.230  14.598  1.00  0.00    -0.358 OA
ATOM      2  H   UNL A   1      11.990   9.830  13.940  1.00  0.00     0.217 HD
ENDROOT
BRANCH   1   3
ATOM      3  C   UNL A   1      12.474   7.919  14.286  1.00  0.00     0.099 A 
ATOM      4  C   UNL A   1      13.085   7.584  13.078  1.00  0.00     0.050 A 
ATOM      5  C   UNL A   1      13.292   6.244  12.748  1.00  0.00    -0.033 A 
ATOM      6  C   UNL A   1      12.888   5.239  13.628  1.00  0.00     0.014 A 
ATOM      7  C   UNL A   1      12.277   5.575  14.836  1.00  0.00     0.040 A 
ATOM      8  C   UNL A   1      12.070   6.914  15.165  1.00  0.00     0.098 A 
BRANCH   5   9
ATOM      9  C   UNL A   1      13.927   5.895  11.488  1.00  0.00     0.018 C 
ATOM     10  C   UNL A   1      13.575   4.830  10.773  1.00  0.00     0.085 C 
BRANCH  10  11
ATOM     11  C   UNL A   1      14.297   4.555   9.514  1.00  0.00     0.198 C 
ATOM     12  O   UNL A   1      15.570   5.000   9.638  1.00  0.00    -0.645 OA
ATOM     13  O   UNL A   1      13.840   4.019   8.518  1.00  0.00    -0.645 OA
ENDBRANCH  10  11
ENDBRANCH   5   9
BRANCH   8  14
ATOM     14  O   UNL A   1      11.474   7.229  16.349  1.00  0.00    -0.358 OA
ATOM     15  H   UNL A   1      10.813   6.668  16.704  1.00  0.00     0.217 HD
ENDBRANCH   8  14
ENDBRANCH   1   3
TORSDOF 4
ENDMDL
MODEL 8
REMARK VINA RESULT:      -5.8      3.323      5.358
REMARK  4 active torsions:
REMARK  status: ('A' for Active; 'I' for Inactive)
REMARK    1  A    between atoms: O_1  and  C_8 
REMARK    2  A    between atoms: O_2  and  C_9 
REMARK    3  A    between atoms: C_5  and  C_11 
REMARK    4  A    between atoms: C_12  and  C_13 
ROOT
ATOM      1  O   UNL A   1      11.487   4.262  11.838  1.00  0.00    -0.358 OA
ATOM      2  H   UNL A   1      11.053   3.501  11.507  1.00  0.00     0.217 HD
ENDROOT
BRANCH   1   3
ATOM      3  C   UNL A   1      12.752   4.557  11.431  1.00  0.00     0.099 A 
ATOM      4  C   UNL A   1      13.684   5.017  12.361  1.00  0.00     0.050 A 
ATOM      5  C   UNL A   1      14.984   5.320  11.955  1.00  0.00    -0.033 A 
ATOM      6  C   UNL A   1      15.352   5.162  10.619  1.00  0.00     0.014 A 
ATOM      7  C   UNL A   1      14.420   4.701   9.689  1.00  0.00     0.040 A 
ATOM      8  C   UNL A   1      13.121   4.399  10.095  1.00  0.00     0.098 A 
BRANCH   5   9
ATOM      9  C   UNL A   1      15.955   5.801  12.925  1.00  0.00     0.018 C 
ATOM     10  C   UNL A   1      17.264   5.819  12.687  1.00  0.00     0.085 C 
BRANCH  10  11
ATOM     11  C   UNL A   1      18.167   6.312  13.747  1.00  0.00     0.198 C 
ATOM     12  O   UNL A   1      18.075   7.662  13.802  1.00  0.00    -0.645 OA
ATOM     13  O   UNL A   1      18.883   5.633  14.463  1.00  0.00    -0.645 OA
ENDBRANCH  10  11
ENDBRANCH   5   9
BRANCH   8  14
ATOM     14  O   UNL A   1      12.220   3.949   9.178  1.00  0.00    -0.358 OA
ATOM     15  H   UNL A   1      12.171   3.034   8.979  1.00  0.00     0.217 HD
ENDBRANCH   8  14
ENDBRANCH   1   3
TORSDOF 4
ENDMDL
MODEL 9
REMARK VINA RESULT:      -5.8      3.709      5.784
REMARK  4 active torsions:
REMARK  status: ('A' for Active; 'I' for Inactive)
REMARK    1  A    between atoms: O_1  and  C_8 
REMARK    2  A    between atoms: O_2  and  C_9 
REMARK    3  A    between atoms: C_5  and  C_11 
REMARK    4  A    between atoms: C_12  and  C_13 
ROOT
ATOM      1  O   UNL A   1      18.383   6.102   9.391  1.00  0.00    -0.358 OA
ATOM      2  H   UNL A   1      17.788   6.336   8.706  1.00  0.00     0.217 HD
ENDROOT
BRANCH   1   3
ATOM      3  C   UNL A   1      17.929   5.957  10.667  1.00  0.00     0.099 A 
ATOM      4  C   UNL A   1      16.581   5.676  10.889  1.00  0.00     0.050 A 
ATOM      5  C   UNL A   1      16.106   5.523  12.192  1.00  0.00    -0.033 A 
ATOM      6  C   UNL A   1      16.979   5.650  13.272  1.00  0.00     0.014 A 
ATOM      7  C   UNL A   1      18.328   5.929  13.049  1.00  0.00     0.040 A 
ATOM      8  C   UNL A   1      18.802   6.083  11.747  1.00  0.00     0.098 A 
BRANCH   5   9
ATOM      9  C   UNL A   1      14.700   5.232  12.423  1.00  0.00     0.018 C 
ATOM     10  C   UNL A   1      13.845   4.976  11.437  1.00  0.00     0.085 C 
BRANCH  10  11
ATOM     11  C   UNL A   1      12.433   4.710  11.778  1.00  0.00     0.198 C 
ATOM     12  O   UNL A   1      12.387   3.692  12.670  1.00  0.00    -0.645 OA
ATOM     13  O   UNL A   1      11.458   5.297  11.341  1.00  0.00    -0.645 OA
ENDBRANCH  10  11
ENDBRANCH   5   9
BRANCH   8  14
ATOM     14  O   UNL A   1      20.121   6.354  11.543  1.00  0.00    -0.358 OA
ATOM     15  H   UNL A   1      20.376   6.969  10.882  1.00  0.00     0.217 HD
ENDBRANCH   8  14
ENDBRANCH   1   3
TORSDOF 4
ENDMDL
