MODEL 1
REMARK VINA RESULT:      -6.2      0.000      0.000
REMARK  4 active torsions:
REMARK  status: ('A' for Active; 'I' for Inactive)
REMARK    1  A    between atoms: O_1  and  C_8 
REMARK    2  A    between atoms: O_2  and  C_9 
REMARK    3  A    between atoms: C_5  and  C_11 
REMARK    4  A    between atoms: C_12  and  C_13 
ROOT
ATOM      1  O   UNL A   1      11.884   6.127  13.659  1.00  0.00    -0.358 OA
ATOM      2  H   UNL A   1      11.403   6.019  14.456  1.00  0.00     0.217 HD
ENDROOT
BRANCH   1   3
ATOM      3  C   UNL A   1      11.481   7.048  12.741  1.00  0.00     0.099 A 
ATOM      4  C   UNL A   1      11.718   6.816  11.386  1.00  0.00     0.050 A 
ATOM      5  C   UNL A   1      11.308   7.752  10.435  1.00  0.00    -0.033 A 
ATOM      6  C   UNL A   1      10.660   8.918  10.840  1.00  0.00     0.014 A 
ATOM      7  C   UNL A   1      10.422   9.150  12.195  1.00  0.00     0.040 A 
ATOM      8  C   UNL A   1      10.833   8.214  13.145  1.00  0.00     0.098 A 
BRANCH   5   9
ATOM      9  C   UNL A   1      11.557   7.510   9.023  1.00  0.00     0.018 C 
ATOM     10  C   UNL A   1      10.769   6.745   8.273  1.00  0.00     0.085 C 
BRANCH  10  11
ATOM     11  C   UNL A   1      11.120   6.550   6.852  1.00  0.00     0.198 C 
ATOM     12  O   UNL A   1      12.446   6.780   6.697  1.00  0.00    -0.645 OA
ATOM     13  O   UNL A   1      10.359   6.235   5.953  1.00  0.00    -0.645 OA
ENDBRANCH  10  11
ENDBRANCH   5   9
BRANCH   8  14
ATOM     14  O   UNL A   1      10.594   8.451  14.465  1.00  0.00    -0.358 OA
ATOM     15  H   UNL A   1       9.715   8.443  14.791  1.00  0.00     0.217 HD
ENDBRANCH   8  14
ENDBRANCH   1   3
TORSDOF 4
ENDMDL
MODEL 2
REMARK VINA RESULT:      -6.2      2.188      2.448
REMARK  4 active torsions:
REMARK  status: ('A' for Active; 'I' for Inactive)
REMARK    1  A    between atoms: O_1  and  C_8 
REMARK    2  A    between atoms: O_2  and  C_9 
REMARK    3  A    between atoms: C_5  and  C_11 
REMARK    4  A    between atoms: C_12  and  C_13 
ROOT
ATOM      1  O   UNL A   1       9.857   4.983  12.312  1.00  0.00    -0.358 OA
ATOM      2  H   UNL A   1       9.381   5.508  12.925  1.00  0.00     0.217 HD
ENDROOT
BRANCH   1   3
ATOM      3  C   UNL A   1      10.906   5.518  11.628  1.00  0.00     0.099 A 
ATOM      4  C   UNL A   1      10.742   5.880  10.291  1.00  0.00     0.050 A 
ATOM      5  C   UNL A   1      11.810   6.430   9.581  1.00  0.00    -0.033 A 
ATOM      6  C   UNL A   1      13.040   6.620  10.209  1.00  0.00     0.014 A 
ATOM      7  C   UNL A   1      13.204   6.259  11.546  1.00  0.00     0.040 A 
ATOM      8  C   UNL A   1      12.137   5.708  12.255  1.00  0.00     0.098 A 
BRANCH   5   9
ATOM      9  C   UNL A   1      11.638   6.806   8.187  1.00  0.00     0.018 C 
ATOM     10  C   UNL A   1      10.708   6.266   7.404  1.00  0.00     0.085 C 
BRANCH  10  11
ATOM     11  C   UNL A   1      10.629   6.706   5.996  1.00  0.00     0.198 C 
ATOM     12  O   UNL A   1      11.072   5.701   5.202  1.00  0.00    -0.645 OA
ATOM     13  O   UNL A   1      10.235   7.788   5.595  1.00  0.00    -0.645 OA
ENDBRANCH  10  11
ENDBRANCH   5   9
BRANCH   8  14
ATOM     14  O   UNL A   1      12.309   5.360  13.561  1.00  0.00    -0.358 OA
ATOM     15  H   UNL A   1      12.751   5.943  14.147  1.00  0.00     0.217 HD
ENDBRANCH   8  14
ENDBRANCH   1   3
TORSDOF 4
ENDMDL
MODEL 3
REMARK VINA RESULT:      -6.2      3.378      5.097
REMARK  4 active torsions:
REMARK  status: ('A' for Active; 'I' for Inactive)
REMARK    1  A    between atoms: O_1  and  C_8 
REMARK    2  A    between atoms: O_2  and  C_9 
REMARK    3  A    between atoms: C_5  and  C_11 
REMARK    4  A    between atoms: C_12  and  C_13 
ROOT
ATOM      1  O   UNL A   1      10.069   6.864   6.935  1.00  0.00    -0.358 OA
ATOM      2  H   UNL A   1      10.296   7.244   6.109  1.00  0.00     0.217 HD
ENDROOT
BRANCH   1   3
ATOM      3  C   UNL A   1      10.999   6.786   7.927  1.00  0.00     0.099 A 
ATOM      4  C   UNL A   1      12.345   6.990   7.624  1.00  0.00     0.050 A 
ATOM      5  C   UNL A   1      13.307   6.914   8.633  1.00  0.00    -0.033 A 
ATOM      6  C   UNL A   1      12.920   6.638   9.944  1.00  0.00     0.014 A 
ATOM      7  C   UNL A   1      11.574   6.436  10.247  1.00  0.00     0.040 A 
ATOM      8  C   UNL A   1      10.614   6.510   9.238  1.00  0.00     0.098 A 
BRANCH   5   9
ATOM      9  C   UNL A   1      14.710   7.124   8.316  1.00  0.00     0.018 C 
ATOM     10  C   UNL A   1      15.689   6.877   9.182  1.00  0.00     0.085 C 
BRANCH  10  11
ATOM     11  C   UNL A   1      17.082   7.141   8.767  1.00  0.00     0.198 C 
ATOM     12  O   UNL A   1      17.096   7.404   7.439  1.00  0.00    -0.645 OA
ATOM     13  O   UNL A   1      18.068   7.128   9.484  1.00  0.00    -0.645 OA
ENDBRANCH  10  11
ENDBRANCH   5   9
BRANCH   8  14
ATOM     14  O   UNL A   1       9.302   6.312   9.547  1.00  0.00    -0.358 OA
ATOM     15  H   UNL A   1       8.786   7.022   9.876  1.00  0.00     0.217 HD
ENDBRANCH   8  14
ENDBRANCH   1   3
TORSDOF 4
ENDMDL
MODEL 4
REMARK VINA RESULT:      -6.1      1.488      5.789
REMARK  4 active torsions:
REMARK  status: ('A' for Active; 'I' for Inactive)
REMARK    1  A    between atoms: O_1  and  C_8 
REMARK    2  A    between atoms: O_2  and  C_9 
REMARK    3  A    between atoms: C_5  and  C_11 
REMARK    4  A    between atoms: C_12  and  C_13 
ROOT
ATOM      1  O   UNL A   1      13.992   6.963   6.663  1.00  0.00    -0.358 OA
ATOM      2  H   UNL A   1      14.001   7.021   5.728  1.00  0.00     0.217 HD
ENDROOT
BRANCH   1   3
ATOM      3  C   UNL A   1      12.807   6.954   7.334  1.00  0.00     0.099 A 
ATOM      4  C   UNL A   1      12.739   7.496   8.617  1.00  0.00     0.050 A 
ATOM      5  C   UNL A   1      11.530   7.493   9.313  1.00  0.00    -0.033 A 
ATOM      6  C   UNL A   1      10.388   6.949   8.724  1.00  0.00     0.014 A 
ATOM      7  C   UNL A   1      10.456   6.408   7.440  1.00  0.00     0.040 A 
ATOM      8  C   UNL A   1      11.665   6.410   6.746  1.00  0.00     0.098 A 
BRANCH   5   9
ATOM      9  C   UNL A   1      11.460   8.057  10.651  1.00  0.00     0.018 C 
ATOM     10  C   UNL A   1      10.779   9.165  10.932  1.00  0.00     0.085 C 
BRANCH  10  11
ATOM     11  C   UNL A   1      10.786   9.664  12.322  1.00  0.00     0.198 C 
ATOM     12  O   UNL A   1      11.242  10.939  12.323  1.00  0.00    -0.645 OA
ATOM     13  O   UNL A   1      10.443   9.047  13.317  1.00  0.00    -0.645 OA
ENDBRANCH  10  11
ENDBRANCH   5   9
BRANCH   8  14
ATOM     14  O   UNL A   1      11.718   5.879   5.492  1.00  0.00    -0.358 OA
ATOM     15  H   UNL A   1      11.392   5.015   5.335  1.00  0.00     0.217 HD
ENDBRANCH   8  14
ENDBRANCH   1   3
TORSDOF 4
ENDMDL
MODEL 5
REMARK VINA RESULT:      -6.0      1.640      5.797
REMARK  4 active torsions:
REMARK  status: ('A' for Active; 'I' for Inactive)
REMARK    1  A    between atoms: O_1  and  C_8 
REMARK    2  A    between atoms: O_2  and  C_9 
REMARK    3  A    between atoms: C_5  and  C_11 
REMARK    4  A    between atoms: C_12  and  C_13 
ROOT
ATOM      1  O   UNL A   1       9.659   5.972   7.329  1.00  0.00    -0.358 OA
ATOM      2  H   UNL A   1       9.545   5.800   6.415  1.00  0.00     0.217 HD
ENDROOT
BRANCH   1   3
ATOM      3  C   UNL A   1      10.782   6.604   7.769  1.00  0.00     0.099 A 
ATOM      4  C   UNL A   1      10.778   7.223   9.018  1.00  0.00     0.050 A 
ATOM      5  C   UNL A   1      11.924   7.872   9.480  1.00  0.00    -0.033 A 
ATOM      6  C   UNL A   1      13.074   7.899   8.692  1.00  0.00     0.014 A 
ATOM      7  C   UNL A   1      13.079   7.278   7.443  1.00  0.00     0.040 A 
ATOM      8  C   UNL A   1      11.933   6.631   6.982  1.00  0.00     0.098 A 
BRANCH   5   9
ATOM      9  C   UNL A   1      11.918   8.520  10.782  1.00  0.00     0.018 C 
ATOM     10  C   UNL A   1      11.079   9.504  11.094  1.00  0.00     0.085 C 
BRANCH  10  11
ATOM     11  C   UNL A   1      11.167  10.106  12.439  1.00  0.00     0.198 C 
ATOM     12  O   UNL A   1      10.770   9.188  13.352  1.00  0.00    -0.645 OA
ATOM     13  O   UNL A   1      11.533  11.239  12.705  1.00  0.00    -0.645 OA
ENDBRANCH  10  11
ENDBRANCH   5   9
BRANCH   8  14
ATOM     14  O   UNL A   1      11.951   6.027   5.761  1.00  0.00    -0.358 OA
ATOM     15  H   UNL A   1      11.424   5.267   5.606  1.00  0.00     0.217 HD
ENDBRANCH   8  14
ENDBRANCH   1   3
TORSDOF 4
ENDMDL
MODEL 6
REMARK VINA RESULT:      -5.9      1.584      2.146
REMARK  4 active torsions:
REMARK  status: ('A' for Active; 'I' for Inactive)
REMARK    1  A    between atoms: O_1  and  C_8 
REMARK    2  A    between atoms: O_2  and  C_9 
REMARK    3  A    between atoms: C_5  and  C_11 
REMARK    4  A    between atoms: C_12  and  C_13 
ROOT
ATOM      1  O   UNL A   1       9.954   8.600  12.606  1.00  0.00    -0.358 OA
ATOM      2  H   UNL A   1       9.646   7.845  13.068  1.00  0.00     0.217 HD
ENDROOT
BRANCH   1   3
ATOM      3  C   UNL A   1      10.929   8.470  11.664  1.00  0.00     0.099 A 
ATOM      4  C   UNL A   1      10.735   7.602  10.589  1.00  0.00     0.050 A 
ATOM      5  C   UNL A   1      11.726   7.463   9.617  1.00  0.00    -0.033 A 
ATOM      6  C   UNL A   1      12.909   8.193   9.719  1.00  0.00     0.014 A 
ATOM      7  C   UNL A   1      13.103   9.062  10.793  1.00  0.00     0.040 A 
ATOM      8  C   UNL A   1      12.113   9.200  11.765  1.00  0.00     0.098 A 
BRANCH   5   9
ATOM      9  C   UNL A   1      11.524   6.556   8.498  1.00  0.00     0.018 C 
ATOM     10  C   UNL A   1      10.924   6.926   7.370  1.00  0.00     0.085 C 
BRANCH  10  11
ATOM     11  C   UNL A   1      10.753   5.923   6.300  1.00  0.00     0.198 C 
ATOM     12  O   UNL A   1      10.085   4.858   6.806  1.00  0.00    -0.645 OA
ATOM     13  O   UNL A   1      11.141   6.017   5.148  1.00  0.00    -0.645 OA
ENDBRANCH  10  11
ENDBRANCH   5   9
BRANCH   8  14
ATOM     14  O   UNL A   1      12.313  10.053  12.808  1.00  0.00    -0.358 OA
ATOM     15  H   UNL A   1      12.720  10.884  12.662  1.00  0.00     0.217 HD
ENDBRANCH   8  14
ENDBRANCH   1   3
TORSDOF 4
ENDMDL
MODEL 7
REMARK VINA RESULT:      -5.9      1.355      2.277
REMARK  4 active torsions:
REMARK  status: ('A' for Active; 'I' for Inactive)
REMARK    1  A    between atoms: O_1  and  C_8 
REMARK    2  A    between atoms: O_2  and  C_9 
REMARK    3  A    between atoms: C_5  and  C_11 
REMARK    4  A    between atoms: C_12  and  C_13 
ROOT
ATOM      1  O   UNL A   1      11.517  10.728  13.193  1.00  0.00    -0.358 OA
ATOM      2  H   UNL A   1      10.762  11.280  13.238  1.00  0.00     0.217 HD
ENDROOT
BRANCH   1   3
ATOM      3  C   UNL A   1      11.440   9.516  12.576  1.00  0.00     0.099 A 
ATOM      4  C   UNL A   1      11.814   9.401  11.237  1.00  0.00     0.050 A 
ATOM      5  C   UNL A   1      11.740   8.164  10.596  1.00  0.00    -0.033 A 
ATOM      6  C   UNL A   1      11.294   7.042  11.295  1.00  0.00     0.014 A 
ATOM      7  C   UNL A   1      10.920   7.157  12.634  1.00  0.00     0.040 A 
ATOM      8  C   UNL A   1      10.993   8.394  13.274  1.00  0.00     0.098 A 
BRANCH   5   9
ATOM      9  C   UNL A   1      12.129   8.045   9.200  1.00  0.00     0.018 C 
ATOM     10  C   UNL A   1      12.632   6.926   8.685  1.00  0.00     0.085 C 
BRANCH  10  11
ATOM     11  C   UNL A   1      13.011   6.915   7.257  1.00  0.00     0.198 C 
ATOM     12  O   UNL A   1      11.884   6.975   6.508  1.00  0.00    -0.645 OA
ATOM     13  O   UNL A   1      14.143   6.862   6.808  1.00  0.00    -0.645 OA
ENDBRANCH  10  11
ENDBRANCH   5   9
BRANCH   8  14
ATOM     14  O   UNL A   1      10.627   8.493  14.582  1.00  0.00    -0.358 OA
ATOM     15  H   UNL A   1      10.962   9.191  15.111  1.00  0.00     0.217 HD
ENDBRANCH   8  14
ENDBRANCH   1   3
TORSDOF 4
ENDMDL
MODEL 8
REMARK VINA RESULT:      -5.9      3.942      5.094
REMARK  4 active torsions:
REMARK  status: ('A' for Active; 'I' for Inactive)
REMARK    1  A    between atoms: O_1  and  C_8 
REMARK    2  A    between atoms: O_2  and  C_9 
REMARK    3  A    between atoms: C_5  and  C_11 
REMARK    4  A    between atoms: C_12  and  C_13 
ROOT
ATOM      1  O   UNL A   1      17.358   7.379   7.399  1.00  0.00    -0.358 OA
ATOM      2  H   UNL A   1      17.772   8.218   7.343  1.00  0.00     0.217 HD
ENDROOT
BRANCH   1   3
ATOM      3  C   UNL A   1      16.346   7.178   8.286  1.00  0.00     0.099 A 
ATOM      4  C   UNL A   1      15.027   7.154   7.831  1.00  0.00     0.050 A 
ATOM      5  C   UNL A   1      13.981   6.947   8.731  1.00  0.00    -0.033 A 
ATOM      6  C   UNL A   1      14.255   6.761  10.086  1.00  0.00     0.014 A 
ATOM      7  C   UNL A   1      15.573   6.784  10.541  1.00  0.00     0.040 A 
ATOM      8  C   UNL A   1      16.618   6.992   9.641  1.00  0.00     0.098 A 
BRANCH   5   9
ATOM      9  C   UNL A   1      12.608   6.924   8.256  1.00  0.00     0.018 C 
ATOM     10  C   UNL A   1      12.285   6.646   6.996  1.00  0.00     0.085 C 
BRANCH  10  11
ATOM     11  C   UNL A   1      10.859   6.667   6.612  1.00  0.00     0.198 C 
ATOM     12  O   UNL A   1      10.741   6.174   5.356  1.00  0.00    -0.645 OA
ATOM     13  O   UNL A   1       9.929   7.058   7.297  1.00  0.00    -0.645 OA
ENDBRANCH  10  11
ENDBRANCH   5   9
BRANCH   8  14
ATOM     14  O   UNL A   1      17.901   7.010  10.098  1.00  0.00    -0.358 OA
ATOM     15  H   UNL A   1      18.268   6.246  10.496  1.00  0.00     0.217 HD
ENDBRANCH   8  14
ENDBRANCH   1   3
TORSDOF 4
ENDMDL
MODEL 9
REMARK VINA RESULT:      -5.9      3.481      4.616
REMARK  4 active torsions:
REMARK  status: ('A' for Active; 'I' for Inactive)
REMARK    1  A    between atoms: O_1  and  C_8 
REMARK    2  A    between atoms: O_2  and  C_9 
REMARK    3  A    between atoms: C_5  and  C_11 
REMARK    4  A    between atoms: C_12  and  C_13 
ROOT
ATOM      1  O   UNL A   1      10.648   6.321  11.830  1.00  0.00    -0.358 OA
ATOM      2  H   UNL A   1       9.789   5.950  11.804  1.00  0.00     0.217 HD
ENDROOT
BRANCH   1   3
ATOM      3  C   UNL A   1      11.352   6.492  10.677  1.00  0.00     0.099 A 
ATOM      4  C   UNL A   1      12.742   6.591  10.729  1.00  0.00     0.050 A 
ATOM      5  C   UNL A   1      13.474   6.764   9.553  1.00  0.00    -0.033 A 
ATOM      6  C   UNL A   1      12.815   6.837   8.326  1.00  0.00     0.014 A 
ATOM      7  C   UNL A   1      11.424   6.738   8.275  1.00  0.00     0.040 A 
ATOM      8  C   UNL A   1      10.693   6.565   9.450  1.00  0.00     0.098 A 
BRANCH   5   9
ATOM      9  C   UNL A   1      14.923   6.868   9.608  1.00  0.00     0.018 C 
ATOM     10  C   UNL A   1      15.670   7.110   8.534  1.00  0.00     0.085 C 
BRANCH  10  11
ATOM     11  C   UNL A   1      17.136   7.179   8.695  1.00  0.00     0.198 C 
ATOM     12  O   UNL A   1      17.417   7.498   9.981  1.00  0.00    -0.645 OA
ATOM     13  O   UNL A   1      17.971   6.986   7.827  1.00  0.00    -0.645 OA
ENDBRANCH  10  11
ENDBRANCH   5   9
BRANCH   8  14
ATOM     14  O   UNL A   1       9.336   6.468   9.386  1.00  0.00    -0.358 OA
ATOM     15  H   UNL A   1       8.802   7.001   9.942  1.00  0.00     0.217 HD
ENDBRANCH   8  14
ENDBRANCH   1   3
TORSDOF 4
ENDMDL
