MODEL 1
REMARK VINA RESULT:      -6.9      0.000      0.000
REMARK  3 active torsions:
REMARK  status: ('A' for Active; 'I' for Inactive)
REMARK    1  A    between atoms: C_3  and  C_4 
REMARK    2  A    between atoms: C_3  and  C_5 
REMARK    3  A    between atoms: C_5  and  C_10 
ROOT
HETATM    1  O   UNL     1      13.655   6.870   7.084  1.00  0.00    -0.648 OA
HETATM    2  O   UNL     1      11.669   6.009   6.395  1.00  0.00    -0.648 OA
HETATM    3  C   UNL     1      12.566   6.075   7.226  1.00  0.00     0.172 C 
ENDROOT
BRANCH   3   4
HETATM    4  C   UNL     1      12.595   5.260   8.497  1.00  0.00     0.117 C 
BRANCH   4   5
HETATM    5  C   UNL     1      12.475   6.147   9.741  1.00  0.00     0.049 C 
BRANCH   5   6
HETATM    6  C   UNL     1      13.644   6.050  10.661  1.00  0.00    -0.058 A 
HETATM    7  C   UNL     1      14.939   6.185  10.160  1.00  0.00     0.007 A 
HETATM    8  C   UNL     1      16.034   6.095  11.021  1.00  0.00     0.001 A 
HETATM    9  C   UNL     1      15.833   5.870  12.383  1.00  0.00     0.000 A 
HETATM   10  C   UNL     1      14.538   5.735  12.884  1.00  0.00     0.001 A 
HETATM   11  C   UNL     1      13.444   5.827  12.024  1.00  0.00     0.007 A 
ENDBRANCH   5   6
ENDBRANCH   4   5
ENDBRANCH   3   4
TORSDOF 3
ENDMDL
MODEL 2
REMARK VINA RESULT:      -6.9      0.037      1.457
REMARK  3 active torsions:
REMARK  status: ('A' for Active; 'I' for Inactive)
REMARK    1  A    between atoms: C_3  and  C_4 
REMARK    2  A    between atoms: C_3  and  C_5 
REMARK    3  A    between atoms: C_5  and  C_10 
ROOT
HETATM    1  O   UNL     1      13.656   6.884   7.118  1.00  0.00    -0.648 OA
HETATM    2  O   UNL     1      11.691   6.003   6.394  1.00  0.00    -0.648 OA
HETATM    3  C   UNL     1      12.571   6.080   7.242  1.00  0.00     0.172 C 
ENDROOT
BRANCH   3   4
HETATM    4  C   UNL     1      12.582   5.271   8.517  1.00  0.00     0.117 C 
BRANCH   4   5
HETATM    5  C   UNL     1      12.490   6.166   9.758  1.00  0.00     0.049 C 
BRANCH   5   6
HETATM    6  C   UNL     1      13.661   6.047  10.672  1.00  0.00    -0.058 A 
HETATM    7  C   UNL     1      13.464   5.781  12.027  1.00  0.00     0.007 A 
HETATM    8  C   UNL     1      14.560   5.670  12.883  1.00  0.00     0.001 A 
HETATM    9  C   UNL     1      15.853   5.824  12.384  1.00  0.00     0.000 A 
HETATM   10  C   UNL     1      16.051   6.090  11.029  1.00  0.00     0.001 A 
HETATM   11  C   UNL     1      14.955   6.201  10.173  1.00  0.00     0.007 A 
ENDBRANCH   5   6
ENDBRANCH   4   5
ENDBRANCH   3   4
TORSDOF 3
ENDMDL
MODEL 3
REMARK VINA RESULT:      -6.3      1.032      1.295
REMARK  3 active torsions:
REMARK  status: ('A' for Active; 'I' for Inactive)
REMARK    1  A    between atoms: C_3  and  C_4 
REMARK    2  A    between atoms: C_3  and  C_5 
REMARK    3  A    between atoms: C_5  and  C_10 
ROOT
HETATM    1  O   UNL     1      12.410   4.180   7.652  1.00  0.00    -0.648 OA
HETATM    2  O   UNL     1      12.086   6.139   6.547  1.00  0.00    -0.648 OA
HETATM    3  C   UNL     1      12.553   5.519   7.495  1.00  0.00     0.172 C 
ENDROOT
BRANCH   3   4
HETATM    4  C   UNL     1      13.317   6.165   8.626  1.00  0.00     0.117 C 
BRANCH   4   5
HETATM    5  C   UNL     1      12.529   6.123   9.940  1.00  0.00     0.049 C 
BRANCH   5   6
HETATM    6  C   UNL     1      13.375   5.864  11.139  1.00  0.00    -0.058 A 
HETATM    7  C   UNL     1      14.739   6.157  11.107  1.00  0.00     0.007 A 
HETATM    8  C   UNL     1      15.532   5.916  12.229  1.00  0.00     0.001 A 
HETATM    9  C   UNL     1      14.961   5.383  13.384  1.00  0.00     0.000 A 
HETATM   10  C   UNL     1      13.597   5.090  13.418  1.00  0.00     0.001 A 
HETATM   11  C   UNL     1      12.805   5.331  12.296  1.00  0.00     0.007 A 
ENDBRANCH   5   6
ENDBRANCH   4   5
ENDBRANCH   3   4
TORSDOF 3
ENDMDL
MODEL 4
REMARK VINA RESULT:      -6.3      2.924      4.425
REMARK  3 active torsions:
REMARK  status: ('A' for Active; 'I' for Inactive)
REMARK    1  A    between atoms: C_3  and  C_4 
REMARK    2  A    between atoms: C_3  and  C_5 
REMARK    3  A    between atoms: C_5  and  C_10 
ROOT
HETATM    1  O   UNL     1      18.665   5.374  11.029  1.00  0.00    -0.648 OA
HETATM    2  O   UNL     1      18.579   6.126   8.887  1.00  0.00    -0.648 OA
HETATM    3  C   UNL     1      18.136   6.120  10.029  1.00  0.00     0.172 C 
ENDROOT
BRANCH   3   4
HETATM    4  C   UNL     1      16.928   6.914  10.464  1.00  0.00     0.117 C 
BRANCH   4   5
HETATM    5  C   UNL     1      16.123   6.177  11.541  1.00  0.00     0.049 C 
BRANCH   5   6
HETATM    6  C   UNL     1      14.663   6.100  11.251  1.00  0.00    -0.058 A 
HETATM    7  C   UNL     1      14.214   6.078   9.930  1.00  0.00     0.007 A 
HETATM    8  C   UNL     1      12.848   6.005   9.657  1.00  0.00     0.001 A 
HETATM    9  C   UNL     1      11.930   5.954  10.706  1.00  0.00     0.000 A 
HETATM   10  C   UNL     1      12.378   5.976  12.027  1.00  0.00     0.001 A 
HETATM   11  C   UNL     1      13.744   6.048  12.299  1.00  0.00     0.007 A 
ENDBRANCH   5   6
ENDBRANCH   4   5
ENDBRANCH   3   4
TORSDOF 3
ENDMDL
MODEL 5
REMARK VINA RESULT:      -6.3      3.006      4.526
REMARK  3 active torsions:
REMARK  status: ('A' for Active; 'I' for Inactive)
REMARK    1  A    between atoms: C_3  and  C_4 
REMARK    2  A    between atoms: C_3  and  C_5 
REMARK    3  A    between atoms: C_5  and  C_10 
ROOT
HETATM    1  O   UNL     1      18.388   6.310   9.183  1.00  0.00    -0.648 OA
HETATM    2  O   UNL     1      18.880   8.408   9.904  1.00  0.00    -0.648 OA
HETATM    3  C   UNL     1      18.086   7.481   9.797  1.00  0.00     0.172 C 
ENDROOT
BRANCH   3   4
HETATM    4  C   UNL     1      16.665   7.530  10.304  1.00  0.00     0.117 C 
BRANCH   4   5
HETATM    5  C   UNL     1      16.187   6.155  10.784  1.00  0.00     0.049 C 
BRANCH   5   6
HETATM    6  C   UNL     1      14.733   6.106  11.111  1.00  0.00    -0.058 A 
HETATM    7  C   UNL     1      14.320   6.021  12.441  1.00  0.00     0.007 A 
HETATM    8  C   UNL     1      12.960   5.976  12.749  1.00  0.00     0.001 A 
HETATM    9  C   UNL     1      12.013   6.015  11.726  1.00  0.00     0.000 A 
HETATM   10  C   UNL     1      12.425   6.099  10.396  1.00  0.00     0.001 A 
HETATM   11  C   UNL     1      13.785   6.146  10.089  1.00  0.00     0.007 A 
ENDBRANCH   5   6
ENDBRANCH   4   5
ENDBRANCH   3   4
TORSDOF 3
ENDMDL
MODEL 6
REMARK VINA RESULT:      -5.8      3.641      5.330
REMARK  3 active torsions:
REMARK  status: ('A' for Active; 'I' for Inactive)
REMARK    1  A    between atoms: C_3  and  C_4 
REMARK    2  A    between atoms: C_3  and  C_5 
REMARK    3  A    between atoms: C_5  and  C_10 
ROOT
HETATM    1  O   UNL     1      19.065   4.999  11.560  1.00  0.00    -0.648 OA
HETATM    2  O   UNL     1      18.175   5.729  13.519  1.00  0.00    -0.648 OA
HETATM    3  C   UNL     1      18.109   5.612  12.301  1.00  0.00     0.172 C 
ENDROOT
BRANCH   3   4
HETATM    4  C   UNL     1      16.977   6.159  11.465  1.00  0.00     0.117 C 
BRANCH   4   5
HETATM    5  C   UNL     1      15.641   6.102  12.214  1.00  0.00     0.049 C 
BRANCH   5   6
HETATM    6  C   UNL     1      14.451   6.068  11.317  1.00  0.00    -0.058 A 
HETATM    7  C   UNL     1      13.167   6.048  11.862  1.00  0.00     0.007 A 
HETATM    8  C   UNL     1      12.052   6.017  11.023  1.00  0.00     0.001 A 
HETATM    9  C   UNL     1      12.223   6.005   9.638  1.00  0.00     0.000 A 
HETATM   10  C   UNL     1      13.506   6.025   9.093  1.00  0.00     0.001 A 
HETATM   11  C   UNL     1      14.620   6.057   9.932  1.00  0.00     0.007 A 
ENDBRANCH   5   6
ENDBRANCH   4   5
ENDBRANCH   3   4
TORSDOF 3
ENDMDL
MODEL 7
REMARK VINA RESULT:      -5.8      3.686      4.975
REMARK  3 active torsions:
REMARK  status: ('A' for Active; 'I' for Inactive)
REMARK    1  A    between atoms: C_3  and  C_4 
REMARK    2  A    between atoms: C_3  and  C_5 
REMARK    3  A    between atoms: C_5  and  C_10 
ROOT
HETATM    1  O   UNL     1      17.605   4.881  13.244  1.00  0.00    -0.648 OA
HETATM    2  O   UNL     1      18.995   5.023  11.452  1.00  0.00    -0.648 OA
HETATM    3  C   UNL     1      18.016   5.423  12.072  1.00  0.00     0.172 C 
ENDROOT
BRANCH   3   4
HETATM    4  C   UNL     1      17.124   6.544  11.597  1.00  0.00     0.117 C 
BRANCH   4   5
HETATM    5  C   UNL     1      16.149   6.072  10.513  1.00  0.00     0.049 C 
BRANCH   5   6
HETATM    6  C   UNL     1      14.719   6.102  10.937  1.00  0.00    -0.058 A 
HETATM    7  C   UNL     1      13.707   6.055   9.978  1.00  0.00     0.007 A 
HETATM    8  C   UNL     1      12.369   6.082  10.373  1.00  0.00     0.001 A 
HETATM    9  C   UNL     1      12.045   6.157  11.728  1.00  0.00     0.000 A 
HETATM   10  C   UNL     1      13.056   6.204  12.687  1.00  0.00     0.001 A 
HETATM   11  C   UNL     1      14.393   6.175  12.291  1.00  0.00     0.007 A 
ENDBRANCH   5   6
ENDBRANCH   4   5
ENDBRANCH   3   4
TORSDOF 3
ENDMDL
MODEL 8
REMARK VINA RESULT:      -5.7      1.965      3.048
REMARK  3 active torsions:
REMARK  status: ('A' for Active; 'I' for Inactive)
REMARK    1  A    between atoms: C_3  and  C_4 
REMARK    2  A    between atoms: C_3  and  C_5 
REMARK    3  A    between atoms: C_5  and  C_10 
ROOT
HETATM    1  O   UNL     1      12.005   6.475  10.703  1.00  0.00    -0.648 OA
HETATM    2  O   UNL     1      12.127   5.630   8.598  1.00  0.00    -0.648 OA
HETATM    3  C   UNL     1      12.680   6.018   9.620  1.00  0.00     0.172 C 
ENDROOT
BRANCH   3   4
HETATM    4  C   UNL     1      14.178   6.068   9.796  1.00  0.00     0.117 C 
BRANCH   4   5
HETATM    5  C   UNL     1      14.568   6.381  11.245  1.00  0.00     0.049 C 
BRANCH   5   6
HETATM    6  C   UNL     1      15.959   5.974  11.594  1.00  0.00    -0.058 A 
HETATM    7  C   UNL     1      16.258   5.555  12.891  1.00  0.00     0.007 A 
HETATM    8  C   UNL     1      17.559   5.173  13.218  1.00  0.00     0.001 A 
HETATM    9  C   UNL     1      18.561   5.210  12.248  1.00  0.00     0.000 A 
HETATM   10  C   UNL     1      18.263   5.629  10.952  1.00  0.00     0.001 A 
HETATM   11  C   UNL     1      16.961   6.010  10.625  1.00  0.00     0.007 A 
ENDBRANCH   5   6
ENDBRANCH   4   5
ENDBRANCH   3   4
TORSDOF 3
ENDMDL
MODEL 9
REMARK VINA RESULT:      -5.7      3.626      5.333
REMARK  3 active torsions:
REMARK  status: ('A' for Active; 'I' for Inactive)
REMARK    1  A    between atoms: C_3  and  C_4 
REMARK    2  A    between atoms: C_3  and  C_5 
REMARK    3  A    between atoms: C_5  and  C_10 
ROOT
HETATM    1  O   UNL     1      18.598   5.155  12.088  1.00  0.00    -0.648 OA
HETATM    2  O   UNL     1      18.343   5.596  14.302  1.00  0.00    -0.648 OA
HETATM    3  C   UNL     1      17.856   5.419  13.192  1.00  0.00     0.172 C 
ENDROOT
BRANCH   3   4
HETATM    4  C   UNL     1      16.378   5.505  12.900  1.00  0.00     0.117 C 
BRANCH   4   5
HETATM    5  C   UNL     1      16.108   6.105  11.515  1.00  0.00     0.049 C 
BRANCH   5   6
HETATM    6  C   UNL     1      14.673   6.062  11.112  1.00  0.00    -0.058 A 
HETATM    7  C   UNL     1      14.329   6.059   9.760  1.00  0.00     0.007 A 
HETATM    8  C   UNL     1      12.986   6.019   9.381  1.00  0.00     0.001 A 
HETATM    9  C   UNL     1      11.989   5.981  10.356  1.00  0.00     0.000 A 
HETATM   10  C   UNL     1      12.332   5.985  11.707  1.00  0.00     0.001 A 
HETATM   11  C   UNL     1      13.675   6.024  12.085  1.00  0.00     0.007 A 
ENDBRANCH   5   6
ENDBRANCH   4   5
ENDBRANCH   3   4
TORSDOF 3
ENDMDL
