MODEL 1
REMARK VINA RESULT:      -6.7      0.000      0.000
REMARK  3 active torsions:
REMARK  status: ('A' for Active; 'I' for Inactive)
REMARK    1  A    between atoms: C_3  and  C_4 
REMARK    2  A    between atoms: C_3  and  C_5 
REMARK    3  A    between atoms: C_5  and  C_10 
ROOT
HETATM    1  O   UNL     1      11.988   6.119   6.392  1.00  0.00    -0.648 OA
HETATM    2  O   UNL     1      12.672   4.387   7.693  1.00  0.00    -0.648 OA
HETATM    3  C   UNL     1      12.322   5.555   7.579  1.00  0.00     0.172 C 
ENDROOT
BRANCH   3   4
HETATM    4  C   UNL     1      12.245   6.526   8.733  1.00  0.00     0.117 C 
BRANCH   4   5
HETATM    5  C   UNL     1      12.274   5.802  10.084  1.00  0.00     0.049 C 
BRANCH   5   6
HETATM    6  C   UNL     1      13.578   5.915  10.798  1.00  0.00    -0.058 A 
HETATM    7  C   UNL     1      13.629   5.767  12.184  1.00  0.00     0.007 A 
HETATM    8  C   UNL     1      14.849   5.872  12.853  1.00  0.00     0.001 A 
HETATM    9  C   UNL     1      16.018   6.124  12.134  1.00  0.00     0.000 A 
HETATM   10  C   UNL     1      15.967   6.272  10.748  1.00  0.00     0.001 A 
HETATM   11  C   UNL     1      14.747   6.166  10.080  1.00  0.00     0.007 A 
ENDBRANCH   5   6
ENDBRANCH   4   5
ENDBRANCH   3   4
TORSDOF 3
ENDMDL
MODEL 2
REMARK VINA RESULT:      -6.7      0.136      1.753
REMARK  3 active torsions:
REMARK  status: ('A' for Active; 'I' for Inactive)
REMARK    1  A    between atoms: C_3  and  C_4 
REMARK    2  A    between atoms: C_3  and  C_5 
REMARK    3  A    between atoms: C_5  and  C_10 
ROOT
HETATM    1  O   UNL     1      12.701   4.470   7.737  1.00  0.00    -0.648 OA
HETATM    2  O   UNL     1      11.877   6.098   6.382  1.00  0.00    -0.648 OA
HETATM    3  C   UNL     1      12.250   5.725   7.488  1.00  0.00     0.172 C 
ENDROOT
BRANCH   3   4
HETATM    4  C   UNL     1      12.226   6.597   8.720  1.00  0.00     0.117 C 
BRANCH   4   5
HETATM    5  C   UNL     1      12.277   5.762  10.005  1.00  0.00     0.049 C 
BRANCH   5   6
HETATM    6  C   UNL     1      13.537   5.934  10.783  1.00  0.00    -0.058 A 
HETATM    7  C   UNL     1      14.739   6.182  10.118  1.00  0.00     0.007 A 
HETATM    8  C   UNL     1      15.919   6.343  10.844  1.00  0.00     0.001 A 
HETATM    9  C   UNL     1      15.897   6.255  12.236  1.00  0.00     0.000 A 
HETATM   10  C   UNL     1      14.697   6.007  12.902  1.00  0.00     0.001 A 
HETATM   11  C   UNL     1      13.517   5.848  12.175  1.00  0.00     0.007 A 
ENDBRANCH   5   6
ENDBRANCH   4   5
ENDBRANCH   3   4
TORSDOF 3
ENDMDL
MODEL 3
REMARK VINA RESULT:      -6.4      2.979      4.774
REMARK  3 active torsions:
REMARK  status: ('A' for Active; 'I' for Inactive)
REMARK    1  A    between atoms: C_3  and  C_4 
REMARK    2  A    between atoms: C_3  and  C_5 
REMARK    3  A    between atoms: C_5  and  C_10 
ROOT
HETATM    1  O   UNL     1      18.776   5.358  11.121  1.00  0.00    -0.648 OA
HETATM    2  O   UNL     1      18.357   5.877   8.950  1.00  0.00    -0.648 OA
HETATM    3  C   UNL     1      18.108   6.015  10.141  1.00  0.00     0.172 C 
ENDROOT
BRANCH   3   4
HETATM    4  C   UNL     1      17.009   6.903  10.672  1.00  0.00     0.117 C 
BRANCH   4   5
HETATM    5  C   UNL     1      16.095   6.153  11.647  1.00  0.00     0.049 C 
BRANCH   5   6
HETATM    6  C   UNL     1      14.671   6.094  11.211  1.00  0.00    -0.058 A 
HETATM    7  C   UNL     1      14.359   6.067   9.851  1.00  0.00     0.007 A 
HETATM    8  C   UNL     1      13.026   6.012   9.441  1.00  0.00     0.001 A 
HETATM    9  C   UNL     1      12.006   5.983  10.392  1.00  0.00     0.000 A 
HETATM   10  C   UNL     1      12.317   6.011  11.751  1.00  0.00     0.001 A 
HETATM   11  C   UNL     1      13.649   6.065  12.160  1.00  0.00     0.007 A 
ENDBRANCH   5   6
ENDBRANCH   4   5
ENDBRANCH   3   4
TORSDOF 3
ENDMDL
MODEL 4
REMARK VINA RESULT:      -6.4      3.223      4.529
REMARK  3 active torsions:
REMARK  status: ('A' for Active; 'I' for Inactive)
REMARK    1  A    between atoms: C_3  and  C_4 
REMARK    2  A    between atoms: C_3  and  C_5 
REMARK    3  A    between atoms: C_5  and  C_10 
ROOT
HETATM    1  O   UNL     1      18.416   6.346   9.233  1.00  0.00    -0.648 OA
HETATM    2  O   UNL     1      18.853   8.458   9.948  1.00  0.00    -0.648 OA
HETATM    3  C   UNL     1      18.077   7.519   9.823  1.00  0.00     0.172 C 
ENDROOT
BRANCH   3   4
HETATM    4  C   UNL     1      16.638   7.553  10.278  1.00  0.00     0.117 C 
BRANCH   4   5
HETATM    5  C   UNL     1      16.109   6.149  10.591  1.00  0.00     0.049 C 
BRANCH   5   6
HETATM    6  C   UNL     1      14.673   6.125  10.992  1.00  0.00    -0.058 A 
HETATM    7  C   UNL     1      14.326   6.141  12.343  1.00  0.00     0.007 A 
HETATM    8  C   UNL     1      12.982   6.118  12.720  1.00  0.00     0.001 A 
HETATM    9  C   UNL     1      11.986   6.079  11.744  1.00  0.00     0.000 A 
HETATM   10  C   UNL     1      12.333   6.063  10.393  1.00  0.00     0.001 A 
HETATM   11  C   UNL     1      13.676   6.086  10.018  1.00  0.00     0.007 A 
ENDBRANCH   5   6
ENDBRANCH   4   5
ENDBRANCH   3   4
TORSDOF 3
ENDMDL
MODEL 5
REMARK VINA RESULT:      -6.3      1.051      1.976
REMARK  3 active torsions:
REMARK  status: ('A' for Active; 'I' for Inactive)
REMARK    1  A    between atoms: C_3  and  C_4 
REMARK    2  A    between atoms: C_3  and  C_5 
REMARK    3  A    between atoms: C_5  and  C_10 
ROOT
HETATM    1  O   UNL     1      12.123   6.205   6.615  1.00  0.00    -0.648 OA
HETATM    2  O   UNL     1      12.802   4.300   7.650  1.00  0.00    -0.648 OA
HETATM    3  C   UNL     1      12.420   5.463   7.710  1.00  0.00     0.172 C 
ENDROOT
BRANCH   3   4
HETATM    4  C   UNL     1      12.261   6.229   9.001  1.00  0.00     0.117 C 
BRANCH   4   5
HETATM    5  C   UNL     1      12.165   5.290  10.209  1.00  0.00     0.049 C 
BRANCH   5   6
HETATM    6  C   UNL     1      12.813   5.827  11.439  1.00  0.00    -0.058 A 
HETATM    7  C   UNL     1      14.203   5.917  11.512  1.00  0.00     0.007 A 
HETATM    8  C   UNL     1      14.811   6.420  12.663  1.00  0.00     0.001 A 
HETATM    9  C   UNL     1      14.027   6.832  13.741  1.00  0.00     0.000 A 
HETATM   10  C   UNL     1      12.637   6.741  13.669  1.00  0.00     0.001 A 
HETATM   11  C   UNL     1      12.031   6.239  12.518  1.00  0.00     0.007 A 
ENDBRANCH   5   6
ENDBRANCH   4   5
ENDBRANCH   3   4
TORSDOF 3
ENDMDL
MODEL 6
REMARK VINA RESULT:      -6.3      3.038      4.568
REMARK  3 active torsions:
REMARK  status: ('A' for Active; 'I' for Inactive)
REMARK    1  A    between atoms: C_3  and  C_4 
REMARK    2  A    between atoms: C_3  and  C_5 
REMARK    3  A    between atoms: C_5  and  C_10 
ROOT
HETATM    1  O   UNL     1      18.678   5.236  11.142  1.00  0.00    -0.648 OA
HETATM    2  O   UNL     1      18.605   6.000   9.003  1.00  0.00    -0.648 OA
HETATM    3  C   UNL     1      18.163   5.998  10.146  1.00  0.00     0.172 C 
ENDROOT
BRANCH   3   4
HETATM    4  C   UNL     1      16.973   6.816  10.586  1.00  0.00     0.117 C 
BRANCH   4   5
HETATM    5  C   UNL     1      16.137   6.078  11.638  1.00  0.00     0.049 C 
BRANCH   5   6
HETATM    6  C   UNL     1      14.677   6.055  11.336  1.00  0.00    -0.058 A 
HETATM    7  C   UNL     1      13.749   6.039  12.378  1.00  0.00     0.007 A 
HETATM    8  C   UNL     1      12.383   6.018  12.096  1.00  0.00     0.001 A 
HETATM    9  C   UNL     1      11.945   6.012  10.772  1.00  0.00     0.000 A 
HETATM   10  C   UNL     1      12.871   6.028   9.730  1.00  0.00     0.001 A 
HETATM   11  C   UNL     1      14.237   6.050  10.012  1.00  0.00     0.007 A 
ENDBRANCH   5   6
ENDBRANCH   4   5
ENDBRANCH   3   4
TORSDOF 3
ENDMDL
MODEL 7
REMARK VINA RESULT:      -6.3      2.996      4.356
REMARK  3 active torsions:
REMARK  status: ('A' for Active; 'I' for Inactive)
REMARK    1  A    between atoms: C_3  and  C_4 
REMARK    2  A    between atoms: C_3  and  C_5 
REMARK    3  A    between atoms: C_5  and  C_10 
ROOT
HETATM    1  O   UNL     1      17.513   7.959   9.967  1.00  0.00    -0.648 OA
HETATM    2  O   UNL     1      18.644   6.197   9.084  1.00  0.00    -0.648 OA
HETATM    3  C   UNL     1      17.825   6.642   9.879  1.00  0.00     0.172 C 
ENDROOT
BRANCH   3   4
HETATM    4  C   UNL     1      17.084   5.794  10.884  1.00  0.00     0.117 C 
BRANCH   4   5
HETATM    5  C   UNL     1      16.025   6.605  11.639  1.00  0.00     0.049 C 
BRANCH   5   6
HETATM    6  C   UNL     1      14.625   6.278  11.245  1.00  0.00    -0.058 A 
HETATM    7  C   UNL     1      13.649   6.094  12.225  1.00  0.00     0.007 A 
HETATM    8  C   UNL     1      12.338   5.789  11.857  1.00  0.00     0.001 A 
HETATM    9  C   UNL     1      12.004   5.667  10.508  1.00  0.00     0.000 A 
HETATM   10  C   UNL     1      12.979   5.850   9.528  1.00  0.00     0.001 A 
HETATM   11  C   UNL     1      14.289   6.157   9.896  1.00  0.00     0.007 A 
ENDBRANCH   5   6
ENDBRANCH   4   5
ENDBRANCH   3   4
TORSDOF 3
ENDMDL
MODEL 8
REMARK VINA RESULT:      -6.3      3.136      4.765
REMARK  3 active torsions:
REMARK  status: ('A' for Active; 'I' for Inactive)
REMARK    1  A    between atoms: C_3  and  C_4 
REMARK    2  A    between atoms: C_3  and  C_5 
REMARK    3  A    between atoms: C_5  and  C_10 
ROOT
HETATM    1  O   UNL     1      19.255   5.077  11.097  1.00  0.00    -0.648 OA
HETATM    2  O   UNL     1      18.433   6.101   9.243  1.00  0.00    -0.648 OA
HETATM    3  C   UNL     1      18.288   5.721  10.399  1.00  0.00     0.172 C 
ENDROOT
BRANCH   3   4
HETATM    4  C   UNL     1      17.010   5.891  11.184  1.00  0.00     0.117 C 
BRANCH   4   5
HETATM    5  C   UNL     1      15.807   6.128  10.264  1.00  0.00     0.049 C 
BRANCH   5   6
HETATM    6  C   UNL     1      14.503   6.182  10.984  1.00  0.00    -0.058 A 
HETATM    7  C   UNL     1      13.307   6.097  10.269  1.00  0.00     0.007 A 
HETATM    8  C   UNL     1      12.086   6.148  10.942  1.00  0.00     0.001 A 
HETATM    9  C   UNL     1      12.061   6.284  12.330  1.00  0.00     0.000 A 
HETATM   10  C   UNL     1      13.255   6.369  13.045  1.00  0.00     0.001 A 
HETATM   11  C   UNL     1      14.476   6.318  12.372  1.00  0.00     0.007 A 
ENDBRANCH   5   6
ENDBRANCH   4   5
ENDBRANCH   3   4
TORSDOF 3
ENDMDL
MODEL 9
REMARK VINA RESULT:      -6.1      1.933      2.898
REMARK  3 active torsions:
REMARK  status: ('A' for Active; 'I' for Inactive)
REMARK    1  A    between atoms: C_3  and  C_4 
REMARK    2  A    between atoms: C_3  and  C_5 
REMARK    3  A    between atoms: C_5  and  C_10 
ROOT
HETATM    1  O   UNL     1      11.383   5.071  11.071  1.00  0.00    -0.648 OA
HETATM    2  O   UNL     1      11.967   6.602   9.498  1.00  0.00    -0.648 OA
HETATM    3  C   UNL     1      12.226   5.978  10.520  1.00  0.00     0.172 C 
ENDROOT
BRANCH   3   4
HETATM    4  C   UNL     1      13.497   6.159  11.315  1.00  0.00     0.117 C 
BRANCH   4   5
HETATM    5  C   UNL     1      14.723   6.277  10.403  1.00  0.00     0.049 C 
BRANCH   5   6
HETATM    6  C   UNL     1      16.008   5.936  11.078  1.00  0.00    -0.058 A 
HETATM    7  C   UNL     1      16.018   5.612  12.435  1.00  0.00     0.007 A 
HETATM    8  C   UNL     1      17.219   5.292  13.068  1.00  0.00     0.001 A 
HETATM    9  C   UNL     1      18.411   5.296  12.343  1.00  0.00     0.000 A 
HETATM   10  C   UNL     1      18.402   5.619  10.986  1.00  0.00     0.001 A 
HETATM   11  C   UNL     1      17.200   5.938  10.354  1.00  0.00     0.007 A 
ENDBRANCH   5   6
ENDBRANCH   4   5
ENDBRANCH   3   4
TORSDOF 3
ENDMDL
