MODEL 1
REMARK VINA RESULT:      -6.7      0.000      0.000
REMARK  3 active torsions:
REMARK  status: ('A' for Active; 'I' for Inactive)
REMARK    1  A    between atoms: C_3  and  C_4 
REMARK    2  A    between atoms: C_3  and  C_5 
REMARK    3  A    between atoms: C_5  and  C_10 
ROOT
HETATM    1  O   UNL     1      12.631   4.433   7.716  1.00  0.00    -0.648 OA
HETATM    2  O   UNL     1      11.930   6.107   6.349  1.00  0.00    -0.648 OA
HETATM    3  C   UNL     1      12.233   5.705   7.466  1.00  0.00     0.172 C 
ENDROOT
BRANCH   3   4
HETATM    4  C   UNL     1      12.171   6.558   8.710  1.00  0.00     0.117 C 
BRANCH   4   5
HETATM    5  C   UNL     1      12.223   5.706   9.984  1.00  0.00     0.049 C 
BRANCH   5   6
HETATM    6  C   UNL     1      13.481   5.872  10.766  1.00  0.00    -0.058 A 
HETATM    7  C   UNL     1      13.457   5.768  12.157  1.00  0.00     0.007 A 
HETATM    8  C   UNL     1      14.634   5.923  12.890  1.00  0.00     0.001 A 
HETATM    9  C   UNL     1      15.836   6.182  12.230  1.00  0.00     0.000 A 
HETATM   10  C   UNL     1      15.861   6.286  10.840  1.00  0.00     0.001 A 
HETATM   11  C   UNL     1      14.684   6.131  10.108  1.00  0.00     0.007 A 
ENDBRANCH   5   6
ENDBRANCH   4   5
ENDBRANCH   3   4
TORSDOF 3
ENDMDL
MODEL 2
REMARK VINA RESULT:      -6.7      0.138      1.463
REMARK  3 active torsions:
REMARK  status: ('A' for Active; 'I' for Inactive)
REMARK    1  A    between atoms: C_3  and  C_4 
REMARK    2  A    between atoms: C_3  and  C_5 
REMARK    3  A    between atoms: C_5  and  C_10 
ROOT
HETATM    1  O   UNL     1      12.639   4.414   7.722  1.00  0.00    -0.648 OA
HETATM    2  O   UNL     1      11.989   6.128   6.379  1.00  0.00    -0.648 OA
HETATM    3  C   UNL     1      12.285   5.702   7.489  1.00  0.00     0.172 C 
ENDROOT
BRANCH   3   4
HETATM    4  C   UNL     1      12.263   6.542   8.744  1.00  0.00     0.117 C 
BRANCH   4   5
HETATM    5  C   UNL     1      12.359   5.677  10.006  1.00  0.00     0.049 C 
BRANCH   5   6
HETATM    6  C   UNL     1      13.631   5.857  10.762  1.00  0.00    -0.058 A 
HETATM    7  C   UNL     1      14.816   6.129  10.078  1.00  0.00     0.007 A 
HETATM    8  C   UNL     1      16.007   6.299  10.785  1.00  0.00     0.001 A 
HETATM    9  C   UNL     1      16.012   6.196  12.176  1.00  0.00     0.000 A 
HETATM   10  C   UNL     1      14.828   5.925  12.860  1.00  0.00     0.001 A 
HETATM   11  C   UNL     1      13.637   5.756  12.153  1.00  0.00     0.007 A 
ENDBRANCH   5   6
ENDBRANCH   4   5
ENDBRANCH   3   4
TORSDOF 3
ENDMDL
MODEL 3
REMARK VINA RESULT:      -6.4      2.999      4.708
REMARK  3 active torsions:
REMARK  status: ('A' for Active; 'I' for Inactive)
REMARK    1  A    between atoms: C_3  and  C_4 
REMARK    2  A    between atoms: C_3  and  C_5 
REMARK    3  A    between atoms: C_5  and  C_10 
ROOT
HETATM    1  O   UNL     1      18.776   5.370  11.073  1.00  0.00    -0.648 OA
HETATM    2  O   UNL     1      18.394   5.923   8.903  1.00  0.00    -0.648 OA
HETATM    3  C   UNL     1      18.117   6.033  10.091  1.00  0.00     0.172 C 
ENDROOT
BRANCH   3   4
HETATM    4  C   UNL     1      16.990   6.890  10.614  1.00  0.00     0.117 C 
BRANCH   4   5
HETATM    5  C   UNL     1      16.097   6.118  11.592  1.00  0.00     0.049 C 
BRANCH   5   6
HETATM    6  C   UNL     1      14.662   6.075  11.189  1.00  0.00    -0.058 A 
HETATM    7  C   UNL     1      14.318   6.026   9.838  1.00  0.00     0.007 A 
HETATM    8  C   UNL     1      12.976   5.986   9.460  1.00  0.00     0.001 A 
HETATM    9  C   UNL     1      11.978   5.995  10.434  1.00  0.00     0.000 A 
HETATM   10  C   UNL     1      12.320   6.045  11.785  1.00  0.00     0.001 A 
HETATM   11  C   UNL     1      13.663   6.084  12.162  1.00  0.00     0.007 A 
ENDBRANCH   5   6
ENDBRANCH   4   5
ENDBRANCH   3   4
TORSDOF 3
ENDMDL
MODEL 4
REMARK VINA RESULT:      -6.3      3.076      4.439
REMARK  3 active torsions:
REMARK  status: ('A' for Active; 'I' for Inactive)
REMARK    1  A    between atoms: C_3  and  C_4 
REMARK    2  A    between atoms: C_3  and  C_5 
REMARK    3  A    between atoms: C_5  and  C_10 
ROOT
HETATM    1  O   UNL     1      18.611   6.148   9.054  1.00  0.00    -0.648 OA
HETATM    2  O   UNL     1      17.822   7.978  10.145  1.00  0.00    -0.648 OA
HETATM    3  C   UNL     1      17.872   6.761  10.011  1.00  0.00     0.172 C 
ENDROOT
BRANCH   3   4
HETATM    4  C   UNL     1      17.096   5.789  10.867  1.00  0.00     0.117 C 
BRANCH   4   5
HETATM    5  C   UNL     1      16.047   6.505  11.726  1.00  0.00     0.049 C 
BRANCH   5   6
HETATM    6  C   UNL     1      14.644   6.262  11.285  1.00  0.00    -0.058 A 
HETATM    7  C   UNL     1      13.621   6.173  12.230  1.00  0.00     0.007 A 
HETATM    8  C   UNL     1      12.308   5.947  11.818  1.00  0.00     0.001 A 
HETATM    9  C   UNL     1      12.017   5.810  10.460  1.00  0.00     0.000 A 
HETATM   10  C   UNL     1      13.039   5.899   9.515  1.00  0.00     0.001 A 
HETATM   11  C   UNL     1      14.352   6.126   9.928  1.00  0.00     0.007 A 
ENDBRANCH   5   6
ENDBRANCH   4   5
ENDBRANCH   3   4
TORSDOF 3
ENDMDL
MODEL 5
REMARK VINA RESULT:      -6.3      3.043      4.492
REMARK  3 active torsions:
REMARK  status: ('A' for Active; 'I' for Inactive)
REMARK    1  A    between atoms: C_3  and  C_4 
REMARK    2  A    between atoms: C_3  and  C_5 
REMARK    3  A    between atoms: C_5  and  C_10 
ROOT
HETATM    1  O   UNL     1      18.502   5.306  11.194  1.00  0.00    -0.648 OA
HETATM    2  O   UNL     1      18.555   6.089   9.062  1.00  0.00    -0.648 OA
HETATM    3  C   UNL     1      18.077   6.112  10.190  1.00  0.00     0.172 C 
ENDROOT
BRANCH   3   4
HETATM    4  C   UNL     1      16.938   7.013  10.601  1.00  0.00     0.117 C 
BRANCH   4   5
HETATM    5  C   UNL     1      16.041   6.348  11.651  1.00  0.00     0.049 C 
BRANCH   5   6
HETATM    6  C   UNL     1      14.630   6.163  11.204  1.00  0.00    -0.058 A 
HETATM    7  C   UNL     1      13.608   6.060  12.148  1.00  0.00     0.007 A 
HETATM    8  C   UNL     1      12.288   5.887  11.732  1.00  0.00     0.001 A 
HETATM    9  C   UNL     1      11.990   5.817  10.371  1.00  0.00     0.000 A 
HETATM   10  C   UNL     1      13.012   5.920   9.426  1.00  0.00     0.001 A 
HETATM   11  C   UNL     1      14.331   6.094   9.844  1.00  0.00     0.007 A 
ENDBRANCH   5   6
ENDBRANCH   4   5
ENDBRANCH   3   4
TORSDOF 3
ENDMDL
MODEL 6
REMARK VINA RESULT:      -6.1      1.880      2.741
REMARK  3 active torsions:
REMARK  status: ('A' for Active; 'I' for Inactive)
REMARK    1  A    between atoms: C_3  and  C_4 
REMARK    2  A    between atoms: C_3  and  C_5 
REMARK    3  A    between atoms: C_5  and  C_10 
ROOT
HETATM    1  O   UNL     1      11.850   6.628   8.700  1.00  0.00    -0.648 OA
HETATM    2  O   UNL     1      11.559   5.658  10.734  1.00  0.00    -0.648 OA
HETATM    3  C   UNL     1      12.301   6.096   9.863  1.00  0.00     0.172 C 
ENDROOT
BRANCH   3   4
HETATM    4  C   UNL     1      13.808   6.071   9.953  1.00  0.00     0.117 C 
BRANCH   4   5
HETATM    5  C   UNL     1      14.289   6.138  11.407  1.00  0.00     0.049 C 
BRANCH   5   6
HETATM    6  C   UNL     1      15.751   5.895  11.567  1.00  0.00    -0.058 A 
HETATM    7  C   UNL     1      16.268   5.545  12.815  1.00  0.00     0.007 A 
HETATM    8  C   UNL     1      17.636   5.317  12.966  1.00  0.00     0.001 A 
HETATM    9  C   UNL     1      18.488   5.439  11.867  1.00  0.00     0.000 A 
HETATM   10  C   UNL     1      17.972   5.789  10.620  1.00  0.00     0.001 A 
HETATM   11  C   UNL     1      16.604   6.016  10.470  1.00  0.00     0.007 A 
ENDBRANCH   5   6
ENDBRANCH   4   5
ENDBRANCH   3   4
TORSDOF 3
ENDMDL
MODEL 7
REMARK VINA RESULT:      -6.0      3.357      5.127
REMARK  3 active torsions:
REMARK  status: ('A' for Active; 'I' for Inactive)
REMARK    1  A    between atoms: C_3  and  C_4 
REMARK    2  A    between atoms: C_3  and  C_5 
REMARK    3  A    between atoms: C_5  and  C_10 
ROOT
HETATM    1  O   UNL     1      18.787   5.770  10.073  1.00  0.00    -0.648 OA
HETATM    2  O   UNL     1      19.300   4.750  12.037  1.00  0.00    -0.648 OA
HETATM    3  C   UNL     1      18.510   5.376  11.341  1.00  0.00     0.172 C 
ENDROOT
BRANCH   3   4
HETATM    4  C   UNL     1      17.145   5.817  11.810  1.00  0.00     0.117 C 
BRANCH   4   5
HETATM    5  C   UNL     1      16.228   6.168  10.632  1.00  0.00     0.049 C 
BRANCH   5   6
HETATM    6  C   UNL     1      14.777   6.142  10.973  1.00  0.00    -0.058 A 
HETATM    7  C   UNL     1      13.822   6.094   9.957  1.00  0.00     0.007 A 
HETATM    8  C   UNL     1      12.464   6.069  10.275  1.00  0.00     0.001 A 
HETATM    9  C   UNL     1      12.061   6.093  11.610  1.00  0.00     0.000 A 
HETATM   10  C   UNL     1      13.015   6.141  12.627  1.00  0.00     0.001 A 
HETATM   11  C   UNL     1      14.372   6.165  12.308  1.00  0.00     0.007 A 
ENDBRANCH   5   6
ENDBRANCH   4   5
ENDBRANCH   3   4
TORSDOF 3
ENDMDL
MODEL 8
REMARK VINA RESULT:      -5.9      1.196      2.399
REMARK  3 active torsions:
REMARK  status: ('A' for Active; 'I' for Inactive)
REMARK    1  A    between atoms: C_3  and  C_4 
REMARK    2  A    between atoms: C_3  and  C_5 
REMARK    3  A    between atoms: C_5  and  C_10 
ROOT
HETATM    1  O   UNL     1      13.280   6.089   7.444  1.00  0.00    -0.648 OA
HETATM    2  O   UNL     1      12.237   4.291   8.361  1.00  0.00    -0.648 OA
HETATM    3  C   UNL     1      12.864   5.336   8.491  1.00  0.00     0.172 C 
ENDROOT
BRANCH   3   4
HETATM    4  C   UNL     1      13.283   5.902   9.826  1.00  0.00     0.117 C 
BRANCH   4   5
HETATM    5  C   UNL     1      14.753   6.336   9.822  1.00  0.00     0.049 C 
BRANCH   5   6
HETATM    6  C   UNL     1      15.478   6.011  11.083  1.00  0.00    -0.058 A 
HETATM    7  C   UNL     1      16.859   5.811  11.062  1.00  0.00     0.007 A 
HETATM    8  C   UNL     1      17.539   5.508  12.242  1.00  0.00     0.001 A 
HETATM    9  C   UNL     1      16.837   5.404  13.443  1.00  0.00     0.000 A 
HETATM   10  C   UNL     1      15.457   5.604  13.465  1.00  0.00     0.001 A 
HETATM   11  C   UNL     1      14.778   5.909  12.285  1.00  0.00     0.007 A 
ENDBRANCH   5   6
ENDBRANCH   4   5
ENDBRANCH   3   4
TORSDOF 3
ENDMDL
MODEL 9
REMARK VINA RESULT:      -5.9      3.581      4.977
REMARK  3 active torsions:
REMARK  status: ('A' for Active; 'I' for Inactive)
REMARK    1  A    between atoms: C_3  and  C_4 
REMARK    2  A    between atoms: C_3  and  C_5 
REMARK    3  A    between atoms: C_5  and  C_10 
ROOT
HETATM    1  O   UNL     1      17.987   4.948  13.010  1.00  0.00    -0.648 OA
HETATM    2  O   UNL     1      19.143   5.122  11.062  1.00  0.00    -0.648 OA
HETATM    3  C   UNL     1      18.177   5.419  11.753  1.00  0.00     0.172 C 
ENDROOT
BRANCH   3   4
HETATM    4  C   UNL     1      17.058   6.320  11.288  1.00  0.00     0.117 C 
BRANCH   4   5
HETATM    5  C   UNL     1      15.805   6.163  12.158  1.00  0.00     0.049 C 
BRANCH   5   6
HETATM    6  C   UNL     1      14.536   6.104  11.378  1.00  0.00    -0.058 A 
HETATM    7  C   UNL     1      13.310   6.080  12.043  1.00  0.00     0.007 A 
HETATM    8  C   UNL     1      12.121   6.025  11.314  1.00  0.00     0.001 A 
HETATM    9  C   UNL     1      12.160   5.994   9.920  1.00  0.00     0.000 A 
HETATM   10  C   UNL     1      13.386   6.017   9.255  1.00  0.00     0.001 A 
HETATM   11  C   UNL     1      14.574   6.073   9.984  1.00  0.00     0.007 A 
ENDBRANCH   5   6
ENDBRANCH   4   5
ENDBRANCH   3   4
TORSDOF 3
ENDMDL
