MODEL 1
REMARK VINA RESULT:      -6.8      0.000      0.000
REMARK  3 active torsions:
REMARK  status: ('A' for Active; 'I' for Inactive)
REMARK    1  A    between atoms: C_3  and  C_4 
REMARK    2  A    between atoms: C_3  and  C_5 
REMARK    3  A    between atoms: C_5  and  C_10 
ROOT
HETATM    1  O   UNL     1      23.626  -1.190  34.830  1.00  0.00    -0.648 OA
HETATM    2  O   UNL     1      22.385  -1.101  36.731  1.00  0.00    -0.648 OA
HETATM    3  C   UNL     1      22.465  -1.288  35.523  1.00  0.00     0.172 C 
ENDROOT
BRANCH   3   4
HETATM    4  C   UNL     1      21.281  -1.619  34.646  1.00  0.00     0.117 C 
BRANCH   4   5
HETATM    5  C   UNL     1      21.679  -1.707  33.168  1.00  0.00     0.049 C 
BRANCH   5   6
HETATM    6  C   UNL     1      21.622  -3.089  32.612  1.00  0.00    -0.058 A 
HETATM    7  C   UNL     1      21.128  -3.303  31.325  1.00  0.00     0.007 A 
HETATM    8  C   UNL     1      21.074  -4.596  30.804  1.00  0.00     0.001 A 
HETATM    9  C   UNL     1      21.515  -5.675  31.570  1.00  0.00     0.000 A 
HETATM   10  C   UNL     1      22.009  -5.462  32.857  1.00  0.00     0.001 A 
HETATM   11  C   UNL     1      22.063  -4.169  33.377  1.00  0.00     0.007 A 
ENDBRANCH   5   6
ENDBRANCH   4   5
ENDBRANCH   3   4
TORSDOF 3
ENDMDL
MODEL 2
REMARK VINA RESULT:      -6.8      0.061      1.458
REMARK  3 active torsions:
REMARK  status: ('A' for Active; 'I' for Inactive)
REMARK    1  A    between atoms: C_3  and  C_4 
REMARK    2  A    between atoms: C_3  and  C_5 
REMARK    3  A    between atoms: C_5  and  C_10 
ROOT
HETATM    1  O   UNL     1      23.628  -1.182  34.822  1.00  0.00    -0.648 OA
HETATM    2  O   UNL     1      22.377  -1.164  36.718  1.00  0.00    -0.648 OA
HETATM    3  C   UNL     1      22.463  -1.303  35.504  1.00  0.00     0.172 C 
ENDROOT
BRANCH   3   4
HETATM    4  C   UNL     1      21.284  -1.593  34.607  1.00  0.00     0.117 C 
BRANCH   4   5
HETATM    5  C   UNL     1      21.708  -1.727  33.140  1.00  0.00     0.049 C 
BRANCH   5   6
HETATM    6  C   UNL     1      21.618  -3.119  32.614  1.00  0.00    -0.058 A 
HETATM    7  C   UNL     1      22.068  -4.188  33.389  1.00  0.00     0.007 A 
HETATM    8  C   UNL     1      21.985  -5.491  32.898  1.00  0.00     0.001 A 
HETATM    9  C   UNL     1      21.450  -5.724  31.631  1.00  0.00     0.000 A 
HETATM   10  C   UNL     1      20.999  -4.656  30.855  1.00  0.00     0.001 A 
HETATM   11  C   UNL     1      21.082  -3.354  31.347  1.00  0.00     0.007 A 
ENDBRANCH   5   6
ENDBRANCH   4   5
ENDBRANCH   3   4
TORSDOF 3
ENDMDL
MODEL 3
REMARK VINA RESULT:      -6.4      3.102      4.449
REMARK  3 active torsions:
REMARK  status: ('A' for Active; 'I' for Inactive)
REMARK    1  A    between atoms: C_3  and  C_4 
REMARK    2  A    between atoms: C_3  and  C_5 
REMARK    3  A    between atoms: C_5  and  C_10 
ROOT
HETATM    1  O   UNL     1      23.428  -7.167  34.402  1.00  0.00    -0.648 OA
HETATM    2  O   UNL     1      21.653  -8.529  34.795  1.00  0.00    -0.648 OA
HETATM    3  C   UNL     1      22.137  -7.548  34.243  1.00  0.00     0.172 C 
ENDROOT
BRANCH   3   4
HETATM    4  C   UNL     1      21.356  -6.621  33.343  1.00  0.00     0.117 C 
BRANCH   4   5
HETATM    5  C   UNL     1      22.281  -5.702  32.537  1.00  0.00     0.049 C 
BRANCH   5   6
HETATM    6  C   UNL     1      21.894  -4.264  32.592  1.00  0.00    -0.058 A 
HETATM    7  C   UNL     1      21.337  -3.648  31.471  1.00  0.00     0.007 A 
HETATM    8  C   UNL     1      20.975  -2.301  31.521  1.00  0.00     0.001 A 
HETATM    9  C   UNL     1      21.169  -1.571  32.694  1.00  0.00     0.000 A 
HETATM   10  C   UNL     1      21.727  -2.186  33.815  1.00  0.00     0.001 A 
HETATM   11  C   UNL     1      22.088  -3.532  33.764  1.00  0.00     0.007 A 
ENDBRANCH   5   6
ENDBRANCH   4   5
ENDBRANCH   3   4
TORSDOF 3
ENDMDL
MODEL 4
REMARK VINA RESULT:      -6.3      3.007      4.795
REMARK  3 active torsions:
REMARK  status: ('A' for Active; 'I' for Inactive)
REMARK    1  A    between atoms: C_3  and  C_4 
REMARK    2  A    between atoms: C_3  and  C_5 
REMARK    3  A    between atoms: C_5  and  C_10 
ROOT
HETATM    1  O   UNL     1      23.615  -7.243  34.547  1.00  0.00    -0.648 OA
HETATM    2  O   UNL     1      23.940  -7.903  32.398  1.00  0.00    -0.648 OA
HETATM    3  C   UNL     1      23.260  -7.332  33.242  1.00  0.00     0.172 C 
ENDROOT
BRANCH   3   4
HETATM    4  C   UNL     1      21.929  -6.683  32.948  1.00  0.00     0.117 C 
BRANCH   4   5
HETATM    5  C   UNL     1      22.022  -5.705  31.772  1.00  0.00     0.049 C 
BRANCH   5   6
HETATM    6  C   UNL     1      21.761  -4.286  32.150  1.00  0.00    -0.058 A 
HETATM    7  C   UNL     1      22.067  -3.839  33.435  1.00  0.00     0.007 A 
HETATM    8  C   UNL     1      21.823  -2.512  33.789  1.00  0.00     0.001 A 
HETATM    9  C   UNL     1      21.272  -1.632  32.857  1.00  0.00     0.000 A 
HETATM   10  C   UNL     1      20.966  -2.078  31.572  1.00  0.00     0.001 A 
HETATM   11  C   UNL     1      21.211  -3.405  31.218  1.00  0.00     0.007 A 
ENDBRANCH   5   6
ENDBRANCH   4   5
ENDBRANCH   3   4
TORSDOF 3
ENDMDL
MODEL 5
REMARK VINA RESULT:      -6.3      3.252      4.671
REMARK  3 active torsions:
REMARK  status: ('A' for Active; 'I' for Inactive)
REMARK    1  A    between atoms: C_3  and  C_4 
REMARK    2  A    between atoms: C_3  and  C_5 
REMARK    3  A    between atoms: C_5  and  C_10 
ROOT
HETATM    1  O   UNL     1      21.485  -8.686  34.772  1.00  0.00    -0.648 OA
HETATM    2  O   UNL     1      23.462  -7.569  34.724  1.00  0.00    -0.648 OA
HETATM    3  C   UNL     1      22.265  -7.620  34.469  1.00  0.00     0.172 C 
ENDROOT
BRANCH   3   4
HETATM    4  C   UNL     1      21.511  -6.522  33.758  1.00  0.00     0.117 C 
BRANCH   4   5
HETATM    5  C   UNL     1      22.447  -5.644  32.919  1.00  0.00     0.049 C 
BRANCH   5   6
HETATM    6  C   UNL     1      21.846  -4.340  32.518  1.00  0.00    -0.058 A 
HETATM    7  C   UNL     1      21.811  -3.280  33.425  1.00  0.00     0.007 A 
HETATM    8  C   UNL     1      21.250  -2.059  33.051  1.00  0.00     0.001 A 
HETATM    9  C   UNL     1      20.723  -1.898  31.770  1.00  0.00     0.000 A 
HETATM   10  C   UNL     1      20.757  -2.957  30.863  1.00  0.00     0.001 A 
HETATM   11  C   UNL     1      21.319  -4.177  31.237  1.00  0.00     0.007 A 
ENDBRANCH   5   6
ENDBRANCH   4   5
ENDBRANCH   3   4
TORSDOF 3
ENDMDL
MODEL 6
REMARK VINA RESULT:      -6.0      3.966      5.461
REMARK  3 active torsions:
REMARK  status: ('A' for Active; 'I' for Inactive)
REMARK    1  A    between atoms: C_3  and  C_4 
REMARK    2  A    between atoms: C_3  and  C_5 
REMARK    3  A    between atoms: C_5  and  C_10 
ROOT
HETATM    1  O   UNL     1      20.597  -2.907  27.513  1.00  0.00    -0.648 OA
HETATM    2  O   UNL     1      18.716  -1.635  27.433  1.00  0.00    -0.648 OA
HETATM    3  C   UNL     1      19.506  -2.323  28.068  1.00  0.00     0.172 C 
ENDROOT
BRANCH   3   4
HETATM    4  C   UNL     1      19.354  -2.636  29.537  1.00  0.00     0.117 C 
BRANCH   4   5
HETATM    5  C   UNL     1      20.451  -3.588  30.029  1.00  0.00     0.049 C 
BRANCH   5   6
HETATM    6  C   UNL     1      20.978  -3.247  31.382  1.00  0.00    -0.058 A 
HETATM    7  C   UNL     1      21.594  -4.229  32.158  1.00  0.00     0.007 A 
HETATM    8  C   UNL     1      22.088  -3.912  33.423  1.00  0.00     0.001 A 
HETATM    9  C   UNL     1      21.966  -2.611  33.912  1.00  0.00     0.000 A 
HETATM   10  C   UNL     1      21.350  -1.628  33.137  1.00  0.00     0.001 A 
HETATM   11  C   UNL     1      20.857  -1.947  31.872  1.00  0.00     0.007 A 
ENDBRANCH   5   6
ENDBRANCH   4   5
ENDBRANCH   3   4
TORSDOF 3
ENDMDL
MODEL 7
REMARK VINA RESULT:      -6.0      4.003      5.435
REMARK  3 active torsions:
REMARK  status: ('A' for Active; 'I' for Inactive)
REMARK    1  A    between atoms: C_3  and  C_4 
REMARK    2  A    between atoms: C_3  and  C_5 
REMARK    3  A    between atoms: C_5  and  C_10 
ROOT
HETATM    1  O   UNL     1      18.572  -2.395  27.187  1.00  0.00    -0.648 OA
HETATM    2  O   UNL     1      20.814  -2.205  27.498  1.00  0.00    -0.648 OA
HETATM    3  C   UNL     1      19.700  -2.464  27.936  1.00  0.00     0.172 C 
ENDROOT
BRANCH   3   4
HETATM    4  C   UNL     1      19.432  -2.859  29.368  1.00  0.00     0.117 C 
BRANCH   4   5
HETATM    5  C   UNL     1      20.519  -3.795  29.910  1.00  0.00     0.049 C 
BRANCH   5   6
HETATM    6  C   UNL     1      21.002  -3.427  31.272  1.00  0.00    -0.058 A 
HETATM    7  C   UNL     1      20.867  -2.116  31.730  1.00  0.00     0.007 A 
HETATM    8  C   UNL     1      21.318  -1.772  33.004  1.00  0.00     0.001 A 
HETATM    9  C   UNL     1      21.904  -2.739  33.821  1.00  0.00     0.000 A 
HETATM   10  C   UNL     1      22.039  -4.050  33.364  1.00  0.00     0.001 A 
HETATM   11  C   UNL     1      21.587  -4.394  32.090  1.00  0.00     0.007 A 
ENDBRANCH   5   6
ENDBRANCH   4   5
ENDBRANCH   3   4
TORSDOF 3
ENDMDL
MODEL 8
REMARK VINA RESULT:      -5.9      3.943      5.442
REMARK  3 active torsions:
REMARK  status: ('A' for Active; 'I' for Inactive)
REMARK    1  A    between atoms: C_3  and  C_4 
REMARK    2  A    between atoms: C_3  and  C_5 
REMARK    3  A    between atoms: C_5  and  C_10 
ROOT
HETATM    1  O   UNL     1      17.913  -4.619  28.576  1.00  0.00    -0.648 OA
HETATM    2  O   UNL     1      18.831  -2.569  28.235  1.00  0.00    -0.648 OA
HETATM    3  C   UNL     1      18.822  -3.644  28.823  1.00  0.00     0.172 C 
ENDROOT
BRANCH   3   4
HETATM    4  C   UNL     1      19.794  -4.010  29.918  1.00  0.00     0.117 C 
BRANCH   4   5
HETATM    5  C   UNL     1      20.749  -2.854  30.238  1.00  0.00     0.049 C 
BRANCH   5   6
HETATM    6  C   UNL     1      21.242  -2.855  31.645  1.00  0.00    -0.058 A 
HETATM    7  C   UNL     1      21.686  -4.042  32.228  1.00  0.00     0.007 A 
HETATM    8  C   UNL     1      22.148  -4.044  33.544  1.00  0.00     0.001 A 
HETATM    9  C   UNL     1      22.166  -2.857  34.278  1.00  0.00     0.000 A 
HETATM   10  C   UNL     1      21.722  -1.670  33.695  1.00  0.00     0.001 A 
HETATM   11  C   UNL     1      21.262  -1.669  32.379  1.00  0.00     0.007 A 
ENDBRANCH   5   6
ENDBRANCH   4   5
ENDBRANCH   3   4
TORSDOF 3
ENDMDL
MODEL 9
REMARK VINA RESULT:      -5.8      3.700      5.089
REMARK  3 active torsions:
REMARK  status: ('A' for Active; 'I' for Inactive)
REMARK    1  A    between atoms: C_3  and  C_4 
REMARK    2  A    between atoms: C_3  and  C_5 
REMARK    3  A    between atoms: C_5  and  C_10 
ROOT
HETATM    1  O   UNL     1      23.460  -7.602  30.118  1.00  0.00    -0.648 OA
HETATM    2  O   UNL     1      24.416  -8.283  32.064  1.00  0.00    -0.648 OA
HETATM    3  C   UNL     1      23.592  -7.600  31.467  1.00  0.00     0.172 C 
ENDROOT
BRANCH   3   4
HETATM    4  C   UNL     1      22.640  -6.647  32.149  1.00  0.00     0.117 C 
BRANCH   4   5
HETATM    5  C   UNL     1      22.138  -5.563  31.188  1.00  0.00     0.049 C 
BRANCH   5   6
HETATM    6  C   UNL     1      21.790  -4.279  31.860  1.00  0.00    -0.058 A 
HETATM    7  C   UNL     1      21.149  -3.268  31.143  1.00  0.00     0.007 A 
HETATM    8  C   UNL     1      20.822  -2.066  31.771  1.00  0.00     0.001 A 
HETATM    9  C   UNL     1      21.137  -1.875  33.117  1.00  0.00     0.000 A 
HETATM   10  C   UNL     1      21.777  -2.885  33.834  1.00  0.00     0.001 A 
HETATM   11  C   UNL     1      22.103  -4.087  33.206  1.00  0.00     0.007 A 
ENDBRANCH   5   6
ENDBRANCH   4   5
ENDBRANCH   3   4
TORSDOF 3
ENDMDL
