MODEL 1
REMARK VINA RESULT:      -6.1      0.000      0.000
REMARK  6 active torsions:
REMARK  status: ('A' for Active; 'I' for Inactive)
REMARK    1  A    between atoms: O_1  and  C_5 
REMARK    2  A    between atoms: O_2  and  C_7 
REMARK    3  A    between atoms: O_2  and  C_13 
REMARK    4  A    between atoms: C_4  and  C_5 
REMARK    5  A    between atoms: C_4  and  C_6 
REMARK    6  A    between atoms: C_5  and  C_7 
ROOT
HETATM    1  O   UNL     1       8.772  -3.004  57.532  1.00  0.00    -0.385 OA
HETATM    2  H   UNL     1       9.142  -2.814  58.408  1.00  0.00     0.210 HD
ENDROOT
BRANCH   1   3
HETATM    3  C   UNL     1       7.369  -2.778  57.551  1.00  0.00     0.221 C 
BRANCH   3   4
HETATM    4  C   UNL     1       6.737  -3.692  58.604  1.00  0.00     0.080 C 
BRANCH   4   5
HETATM    5  C   UNL     1       5.604  -4.512  58.036  1.00  0.00    -0.055 A 
HETATM    6  C   UNL     1       4.921  -5.390  58.864  1.00  0.00     0.007 A 
HETATM    7  C   UNL     1       3.874  -6.149  58.340  1.00  0.00     0.001 A 
HETATM    8  C   UNL     1       3.524  -6.019  56.996  1.00  0.00     0.000 A 
HETATM    9  C   UNL     1       4.220  -5.131  56.176  1.00  0.00     0.001 A 
HETATM   10  C   UNL     1       5.267  -4.373  56.700  1.00  0.00     0.007 A 
ENDBRANCH   4   5
ENDBRANCH   3   4
BRANCH   3  11
HETATM   11  C   UNL     1       7.142  -1.319  57.897  1.00  0.00     0.288 C 
HETATM   12  O   UNL     1       7.961  -0.601  58.455  1.00  0.00    -0.262 OA
BRANCH  11  13
HETATM   13  O   UNL     1       5.904  -0.934  57.469  1.00  0.00    -0.320 OA
BRANCH  13  14
HETATM   14  C   UNL     1       5.858   0.298  56.741  1.00  0.00     0.174 C 
HETATM   15  C   UNL     1       4.753   1.164  57.307  1.00  0.00     0.034 C 
ENDBRANCH  13  14
ENDBRANCH  11  13
ENDBRANCH   3  11
ENDBRANCH   1   3
TORSDOF 6
ENDMDL
MODEL 2
REMARK VINA RESULT:      -5.9      1.288      2.228
REMARK  6 active torsions:
REMARK  status: ('A' for Active; 'I' for Inactive)
REMARK    1  A    between atoms: O_1  and  C_5 
REMARK    2  A    between atoms: O_2  and  C_7 
REMARK    3  A    between atoms: O_2  and  C_13 
REMARK    4  A    between atoms: C_4  and  C_5 
REMARK    5  A    between atoms: C_4  and  C_6 
REMARK    6  A    between atoms: C_5  and  C_7 
ROOT
HETATM    1  O   UNL     1       7.051  -0.462  55.101  1.00  0.00    -0.385 OA
HETATM    2  H   UNL     1       6.556   0.351  54.914  1.00  0.00     0.210 HD
ENDROOT
BRANCH   1   3
HETATM    3  C   UNL     1       6.348  -1.234  56.066  1.00  0.00     0.221 C 
BRANCH   3   4
HETATM    4  C   UNL     1       7.078  -2.566  56.257  1.00  0.00     0.080 C 
BRANCH   4   5
HETATM    5  C   UNL     1       6.266  -3.545  57.071  1.00  0.00    -0.055 A 
HETATM    6  C   UNL     1       5.203  -4.205  56.475  1.00  0.00     0.007 A 
HETATM    7  C   UNL     1       4.452  -5.110  57.226  1.00  0.00     0.001 A 
HETATM    8  C   UNL     1       4.776  -5.342  58.563  1.00  0.00     0.000 A 
HETATM    9  C   UNL     1       5.848  -4.671  59.148  1.00  0.00     0.001 A 
HETATM   10  C   UNL     1       6.599  -3.766  58.397  1.00  0.00     0.007 A 
ENDBRANCH   4   5
ENDBRANCH   3   4
BRANCH   3  11
HETATM   11  C   UNL     1       6.323  -0.442  57.358  1.00  0.00     0.288 C 
HETATM   12  O   UNL     1       7.292  -0.263  58.084  1.00  0.00    -0.262 OA
BRANCH  11  13
HETATM   13  O   UNL     1       5.068   0.054  57.567  1.00  0.00    -0.320 OA
BRANCH  13  14
HETATM   14  C   UNL     1       4.784   1.303  56.926  1.00  0.00     0.174 C 
HETATM   15  C   UNL     1       3.864   2.114  57.815  1.00  0.00     0.034 C 
ENDBRANCH  13  14
ENDBRANCH  11  13
ENDBRANCH   3  11
ENDBRANCH   1   3
TORSDOF 6
ENDMDL
MODEL 3
REMARK VINA RESULT:      -5.8      1.566      3.288
REMARK  6 active torsions:
REMARK  status: ('A' for Active; 'I' for Inactive)
REMARK    1  A    between atoms: O_1  and  C_5 
REMARK    2  A    between atoms: O_2  and  C_7 
REMARK    3  A    between atoms: O_2  and  C_13 
REMARK    4  A    between atoms: C_4  and  C_5 
REMARK    5  A    between atoms: C_4  and  C_6 
REMARK    6  A    between atoms: C_5  and  C_7 
ROOT
HETATM    1  O   UNL     1       5.494  -1.351  57.343  1.00  0.00    -0.385 OA
HETATM    2  H   UNL     1       6.207  -0.768  57.038  1.00  0.00     0.210 HD
ENDROOT
BRANCH   1   3
HETATM    3  C   UNL     1       6.056  -2.509  57.948  1.00  0.00     0.221 C 
BRANCH   3   4
HETATM    4  C   UNL     1       6.052  -3.649  56.926  1.00  0.00     0.080 C 
BRANCH   4   5
HETATM    5  C   UNL     1       5.064  -4.731  57.287  1.00  0.00    -0.055 A 
HETATM    6  C   UNL     1       4.244  -5.258  56.301  1.00  0.00     0.007 A 
HETATM    7  C   UNL     1       3.331  -6.258  56.634  1.00  0.00     0.001 A 
HETATM    8  C   UNL     1       3.249  -6.718  57.949  1.00  0.00     0.000 A 
HETATM    9  C   UNL     1       4.080  -6.179  58.930  1.00  0.00     0.001 A 
HETATM   10  C   UNL     1       4.994  -5.178  58.597  1.00  0.00     0.007 A 
ENDBRANCH   4   5
ENDBRANCH   3   4
BRANCH   3  11
HETATM   11  C   UNL     1       7.471  -2.167  58.370  1.00  0.00     0.288 C 
HETATM   12  O   UNL     1       7.958  -1.045  58.330  1.00  0.00    -0.262 OA
BRANCH  11  13
HETATM   13  O   UNL     1       8.099  -3.293  58.821  1.00  0.00    -0.320 OA
BRANCH  13  14
HETATM   14  C   UNL     1       7.866  -3.622  60.195  1.00  0.00     0.174 C 
HETATM   15  C   UNL     1       8.774  -4.768  60.588  1.00  0.00     0.034 C 
ENDBRANCH  13  14
ENDBRANCH  11  13
ENDBRANCH   3  11
ENDBRANCH   1   3
TORSDOF 6
ENDMDL
MODEL 4
REMARK VINA RESULT:      -5.7      1.823      4.507
REMARK  6 active torsions:
REMARK  status: ('A' for Active; 'I' for Inactive)
REMARK    1  A    between atoms: O_1  and  C_5 
REMARK    2  A    between atoms: O_2  and  C_7 
REMARK    3  A    between atoms: O_2  and  C_13 
REMARK    4  A    between atoms: C_4  and  C_5 
REMARK    5  A    between atoms: C_4  and  C_6 
REMARK    6  A    between atoms: C_5  and  C_7 
ROOT
HETATM    1  O   UNL     1       8.595  -3.240  59.143  1.00  0.00    -0.385 OA
HETATM    2  H   UNL     1       9.162  -3.493  58.398  1.00  0.00     0.210 HD
ENDROOT
BRANCH   1   3
HETATM    3  C   UNL     1       7.331  -2.811  58.654  1.00  0.00     0.221 C 
BRANCH   3   4
HETATM    4  C   UNL     1       7.448  -2.550  57.151  1.00  0.00     0.080 C 
BRANCH   4   5
HETATM    5  C   UNL     1       6.554  -1.420  56.700  1.00  0.00    -0.055 A 
HETATM    6  C   UNL     1       6.167  -0.454  57.617  1.00  0.00     0.007 A 
HETATM    7  C   UNL     1       5.341   0.590  57.201  1.00  0.00     0.001 A 
HETATM    8  C   UNL     1       4.913   0.655  55.875  1.00  0.00     0.000 A 
HETATM    9  C   UNL     1       5.310  -0.324  54.965  1.00  0.00     0.001 A 
HETATM   10  C   UNL     1       6.136  -1.368  55.380  1.00  0.00     0.007 A 
ENDBRANCH   4   5
ENDBRANCH   3   4
BRANCH   3  11
HETATM   11  C   UNL     1       6.330  -3.915  58.934  1.00  0.00     0.288 C 
HETATM   12  O   UNL     1       5.853  -4.158  60.034  1.00  0.00    -0.262 OA
BRANCH  11  13
HETATM   13  O   UNL     1       6.032  -4.567  57.772  1.00  0.00    -0.320 OA
BRANCH  13  14
HETATM   14  C   UNL     1       4.665  -4.967  57.623  1.00  0.00     0.174 C 
HETATM   15  C   UNL     1       4.105  -4.343  56.362  1.00  0.00     0.034 C 
ENDBRANCH  13  14
ENDBRANCH  11  13
ENDBRANCH   3  11
ENDBRANCH   1   3
TORSDOF 6
ENDMDL
MODEL 5
REMARK VINA RESULT:      -5.7      2.105      3.310
REMARK  6 active torsions:
REMARK  status: ('A' for Active; 'I' for Inactive)
REMARK    1  A    between atoms: O_1  and  C_5 
REMARK    2  A    between atoms: O_2  and  C_7 
REMARK    3  A    between atoms: O_2  and  C_13 
REMARK    4  A    between atoms: C_4  and  C_5 
REMARK    5  A    between atoms: C_4  and  C_6 
REMARK    6  A    between atoms: C_5  and  C_7 
ROOT
HETATM    1  O   UNL     1       4.574  -2.105  54.707  1.00  0.00    -0.385 OA
HETATM    2  H   UNL     1       4.995  -2.140  53.834  1.00  0.00     0.210 HD
ENDROOT
BRANCH   1   3
HETATM    3  C   UNL     1       5.511  -1.630  55.665  1.00  0.00     0.221 C 
BRANCH   3   4
HETATM    4  C   UNL     1       6.629  -2.665  55.816  1.00  0.00     0.080 C 
BRANCH   4   5
HETATM    5  C   UNL     1       6.666  -3.261  57.202  1.00  0.00    -0.055 A 
HETATM    6  C   UNL     1       7.707  -2.930  58.056  1.00  0.00     0.007 A 
HETATM    7  C   UNL     1       7.743  -3.481  59.337  1.00  0.00     0.001 A 
HETATM    8  C   UNL     1       6.737  -4.356  59.747  1.00  0.00     0.000 A 
HETATM    9  C   UNL     1       5.696  -4.680  58.878  1.00  0.00     0.001 A 
HETATM   10  C   UNL     1       5.660  -4.129  57.597  1.00  0.00     0.007 A 
ENDBRANCH   4   5
ENDBRANCH   3   4
BRANCH   3  11
HETATM   11  C   UNL     1       6.061  -0.312  55.158  1.00  0.00     0.288 C 
HETATM   12  O   UNL     1       6.309  -0.067  53.984  1.00  0.00    -0.262 OA
BRANCH  11  13
HETATM   13  O   UNL     1       6.209   0.555  56.202  1.00  0.00    -0.320 OA
BRANCH  13  14
HETATM   14  C   UNL     1       5.327   0.343  57.309  1.00  0.00     0.174 C 
HETATM   15  C   UNL     1       4.415   1.545  57.449  1.00  0.00     0.034 C 
ENDBRANCH  13  14
ENDBRANCH  11  13
ENDBRANCH   3  11
ENDBRANCH   1   3
TORSDOF 6
ENDMDL
MODEL 6
REMARK VINA RESULT:      -5.7      2.105      3.272
REMARK  6 active torsions:
REMARK  status: ('A' for Active; 'I' for Inactive)
REMARK    1  A    between atoms: O_1  and  C_5 
REMARK    2  A    between atoms: O_2  and  C_7 
REMARK    3  A    between atoms: O_2  and  C_13 
REMARK    4  A    between atoms: C_4  and  C_5 
REMARK    5  A    between atoms: C_4  and  C_6 
REMARK    6  A    between atoms: C_5  and  C_7 
ROOT
HETATM    1  O   UNL     1       4.638  -2.220  54.710  1.00  0.00    -0.385 OA
HETATM    2  H   UNL     1       4.189  -1.517  54.216  1.00  0.00     0.210 HD
ENDROOT
BRANCH   1   3
HETATM    3  C   UNL     1       5.463  -1.641  55.712  1.00  0.00     0.221 C 
BRANCH   3   4
HETATM    4  C   UNL     1       6.692  -2.532  55.914  1.00  0.00     0.080 C 
BRANCH   4   5
HETATM    5  C   UNL     1       6.693  -3.198  57.269  1.00  0.00    -0.055 A 
HETATM    6  C   UNL     1       5.650  -4.045  57.609  1.00  0.00     0.007 A 
HETATM    7  C   UNL     1       5.651  -4.661  58.861  1.00  0.00     0.001 A 
HETATM    8  C   UNL     1       6.694  -4.422  59.755  1.00  0.00     0.000 A 
HETATM    9  C   UNL     1       7.737  -3.567  59.398  1.00  0.00     0.001 A 
HETATM   10  C   UNL     1       7.736  -2.951  58.147  1.00  0.00     0.007 A 
ENDBRANCH   4   5
ENDBRANCH   3   4
BRANCH   3  11
HETATM   11  C   UNL     1       5.870  -0.261  55.234  1.00  0.00     0.288 C 
HETATM   12  O   UNL     1       5.895   0.089  54.061  1.00  0.00    -0.262 OA
BRANCH  11  13
HETATM   13  O   UNL     1       6.175   0.525  56.308  1.00  0.00    -0.320 OA
BRANCH  13  14
HETATM   14  C   UNL     1       5.259   0.452  57.405  1.00  0.00     0.174 C 
HETATM   15  C   UNL     1       4.353   1.665  57.370  1.00  0.00     0.034 C 
ENDBRANCH  13  14
ENDBRANCH  11  13
ENDBRANCH   3  11
ENDBRANCH   1   3
TORSDOF 6
ENDMDL
MODEL 7
REMARK VINA RESULT:      -5.6      3.738      5.902
REMARK  6 active torsions:
REMARK  status: ('A' for Active; 'I' for Inactive)
REMARK    1  A    between atoms: O_1  and  C_5 
REMARK    2  A    between atoms: O_2  and  C_7 
REMARK    3  A    between atoms: O_2  and  C_13 
REMARK    4  A    between atoms: C_4  and  C_5 
REMARK    5  A    between atoms: C_4  and  C_6 
REMARK    6  A    between atoms: C_5  and  C_7 
ROOT
HETATM    1  O   UNL     1       2.129  -5.280  59.772  1.00  0.00    -0.385 OA
HETATM    2  H   UNL     1       2.592  -5.684  60.523  1.00  0.00     0.210 HD
ENDROOT
BRANCH   1   3
HETATM    3  C   UNL     1       2.906  -5.442  58.593  1.00  0.00     0.221 C 
BRANCH   3   4
HETATM    4  C   UNL     1       4.310  -5.907  58.988  1.00  0.00     0.080 C 
BRANCH   4   5
HETATM    5  C   UNL     1       5.367  -4.892  58.626  1.00  0.00    -0.055 A 
HETATM    6  C   UNL     1       5.350  -4.313  57.367  1.00  0.00     0.007 A 
HETATM    7  C   UNL     1       6.326  -3.375  57.032  1.00  0.00     0.001 A 
HETATM    8  C   UNL     1       7.307  -3.028  57.961  1.00  0.00     0.000 A 
HETATM    9  C   UNL     1       7.312  -3.618  59.224  1.00  0.00     0.001 A 
HETATM   10  C   UNL     1       6.335  -4.556  59.559  1.00  0.00     0.007 A 
ENDBRANCH   4   5
ENDBRANCH   3   4
BRANCH   3  11
HETATM   11  C   UNL     1       2.219  -6.478  57.726  1.00  0.00     0.288 C 
HETATM   12  O   UNL     1       1.018  -6.503  57.492  1.00  0.00    -0.262 OA
BRANCH  11  13
HETATM   13  O   UNL     1       3.146  -7.352  57.235  1.00  0.00    -0.320 OA
BRANCH  13  14
HETATM   14  C   UNL     1       3.036  -7.648  55.838  1.00  0.00     0.174 C 
HETATM   15  C   UNL     1       3.463  -6.433  55.043  1.00  0.00     0.034 C 
ENDBRANCH  13  14
ENDBRANCH  11  13
ENDBRANCH   3  11
ENDBRANCH   1   3
TORSDOF 6
ENDMDL
MODEL 8
REMARK VINA RESULT:      -5.6      1.876      2.687
REMARK  6 active torsions:
REMARK  status: ('A' for Active; 'I' for Inactive)
REMARK    1  A    between atoms: O_1  and  C_5 
REMARK    2  A    between atoms: O_2  and  C_7 
REMARK    3  A    between atoms: O_2  and  C_13 
REMARK    4  A    between atoms: C_4  and  C_5 
REMARK    5  A    between atoms: C_4  and  C_6 
REMARK    6  A    between atoms: C_5  and  C_7 
ROOT
HETATM    1  O   UNL     1       8.413  -2.715  54.624  1.00  0.00    -0.385 OA
HETATM    2  H   UNL     1       9.095  -2.809  55.307  1.00  0.00     0.210 HD
ENDROOT
BRANCH   1   3
HETATM    3  C   UNL     1       7.144  -2.546  55.242  1.00  0.00     0.221 C 
BRANCH   3   4
HETATM    4  C   UNL     1       7.346  -2.416  56.754  1.00  0.00     0.080 C 
BRANCH   4   5
HETATM    5  C   UNL     1       6.546  -3.439  57.524  1.00  0.00    -0.055 A 
HETATM    6  C   UNL     1       5.516  -4.114  56.887  1.00  0.00     0.007 A 
HETATM    7  C   UNL     1       4.776  -5.059  57.597  1.00  0.00     0.001 A 
HETATM    8  C   UNL     1       5.077  -5.317  58.935  1.00  0.00     0.000 A 
HETATM    9  C   UNL     1       6.116  -4.630  59.562  1.00  0.00     0.001 A 
HETATM   10  C   UNL     1       6.855  -3.685  58.851  1.00  0.00     0.007 A 
ENDBRANCH   4   5
ENDBRANCH   3   4
BRANCH   3  11
HETATM   11  C   UNL     1       6.518  -1.289  54.672  1.00  0.00     0.288 C 
HETATM   12  O   UNL     1       6.984  -0.637  53.747  1.00  0.00    -0.262 OA
BRANCH  11  13
HETATM   13  O   UNL     1       5.351  -1.019  55.329  1.00  0.00    -0.320 OA
BRANCH  13  14
HETATM   14  C   UNL     1       5.115   0.361  55.627  1.00  0.00     0.174 C 
HETATM   15  C   UNL     1       5.238   0.570  57.122  1.00  0.00     0.034 C 
ENDBRANCH  13  14
ENDBRANCH  11  13
ENDBRANCH   3  11
ENDBRANCH   1   3
TORSDOF 6
ENDMDL
MODEL 9
REMARK VINA RESULT:      -5.6      1.501      1.984
REMARK  6 active torsions:
REMARK  status: ('A' for Active; 'I' for Inactive)
REMARK    1  A    between atoms: O_1  and  C_5 
REMARK    2  A    between atoms: O_2  and  C_7 
REMARK    3  A    between atoms: O_2  and  C_13 
REMARK    4  A    between atoms: C_4  and  C_5 
REMARK    5  A    between atoms: C_4  and  C_6 
REMARK    6  A    between atoms: C_5  and  C_7 
ROOT
HETATM    1  O   UNL     1       6.266  -4.172  60.524  1.00  0.00    -0.385 OA
HETATM    2  H   UNL     1       7.065  -3.751  60.878  1.00  0.00     0.210 HD
ENDROOT
BRANCH   1   3
HETATM    3  C   UNL     1       6.309  -4.150  59.103  1.00  0.00     0.221 C 
BRANCH   3   4
HETATM    4  C   UNL     1       4.916  -3.802  58.573  1.00  0.00     0.080 C 
BRANCH   4   5
HETATM    5  C   UNL     1       4.289  -4.954  57.826  1.00  0.00    -0.055 A 
HETATM    6  C   UNL     1       3.754  -6.015  58.539  1.00  0.00     0.007 A 
HETATM    7  C   UNL     1       3.174  -7.080  57.849  1.00  0.00     0.001 A 
HETATM    8  C   UNL     1       3.139  -7.070  56.454  1.00  0.00     0.000 A 
HETATM    9  C   UNL     1       3.682  -5.996  55.750  1.00  0.00     0.001 A 
HETATM   10  C   UNL     1       4.261  -4.931  56.441  1.00  0.00     0.007 A 
ENDBRANCH   4   5
ENDBRANCH   3   4
BRANCH   3  11
HETATM   11  C   UNL     1       7.321  -3.100  58.689  1.00  0.00     0.288 C 
HETATM   12  O   UNL     1       8.463  -3.026  59.123  1.00  0.00    -0.262 OA
BRANCH  11  13
HETATM   13  O   UNL     1       6.770  -2.279  57.748  1.00  0.00    -0.320 OA
BRANCH  13  14
HETATM   14  C   UNL     1       7.120  -0.895  57.855  1.00  0.00     0.174 C 
HETATM   15  C   UNL     1       5.920  -0.053  57.475  1.00  0.00     0.034 C 
ENDBRANCH  13  14
ENDBRANCH  11  13
ENDBRANCH   3  11
ENDBRANCH   1   3
TORSDOF 6
ENDMDL
