MODEL 1
REMARK VINA RESULT:      -6.0      0.000      0.000
REMARK  6 active torsions:
REMARK  status: ('A' for Active; 'I' for Inactive)
REMARK    1  A    between atoms: O_1  and  C_5 
REMARK    2  A    between atoms: O_2  and  C_7 
REMARK    3  A    between atoms: O_2  and  C_13 
REMARK    4  A    between atoms: C_4  and  C_5 
REMARK    5  A    between atoms: C_4  and  C_6 
REMARK    6  A    between atoms: C_5  and  C_7 
ROOT
HETATM    1  O   UNL     1       8.712  -2.471  57.071  1.00  0.00    -0.385 OA
HETATM    2  H   UNL     1       9.002  -3.376  56.877  1.00  0.00     0.210 HD
ENDROOT
BRANCH   1   3
HETATM    3  C   UNL     1       7.313  -2.467  57.326  1.00  0.00     0.221 C 
BRANCH   3   4
HETATM    4  C   UNL     1       7.003  -3.527  58.386  1.00  0.00     0.080 C 
BRANCH   4   5
HETATM    5  C   UNL     1       5.807  -4.370  58.013  1.00  0.00    -0.055 A 
HETATM    6  C   UNL     1       5.317  -4.316  56.717  1.00  0.00     0.007 A 
HETATM    7  C   UNL     1       4.212  -5.094  56.372  1.00  0.00     0.001 A 
HETATM    8  C   UNL     1       3.612  -5.915  57.327  1.00  0.00     0.000 A 
HETATM    9  C   UNL     1       4.116  -5.958  58.626  1.00  0.00     0.001 A 
HETATM   10  C   UNL     1       5.221  -5.180  58.971  1.00  0.00     0.007 A 
ENDBRANCH   4   5
ENDBRANCH   3   4
BRANCH   3  11
HETATM   11  C   UNL     1       6.939  -1.084  57.822  1.00  0.00     0.288 C 
HETATM   12  O   UNL     1       7.670  -0.363  58.488  1.00  0.00    -0.262 OA
BRANCH  11  13
HETATM   13  O   UNL     1       5.684  -0.767  57.389  1.00  0.00    -0.320 OA
BRANCH  13  14
HETATM   14  C   UNL     1       5.567   0.481  56.695  1.00  0.00     0.174 C 
HETATM   15  C   UNL     1       4.571   1.358  57.425  1.00  0.00     0.034 C 
ENDBRANCH  13  14
ENDBRANCH  11  13
ENDBRANCH   3  11
ENDBRANCH   1   3
TORSDOF 6
ENDMDL
MODEL 2
REMARK VINA RESULT:      -5.9      0.541      1.395
REMARK  6 active torsions:
REMARK  status: ('A' for Active; 'I' for Inactive)
REMARK    1  A    between atoms: O_1  and  C_5 
REMARK    2  A    between atoms: O_2  and  C_7 
REMARK    3  A    between atoms: O_2  and  C_13 
REMARK    4  A    between atoms: C_4  and  C_5 
REMARK    5  A    between atoms: C_4  and  C_6 
REMARK    6  A    between atoms: C_5  and  C_7 
ROOT
HETATM    1  O   UNL     1       8.775  -3.126  57.751  1.00  0.00    -0.385 OA
HETATM    2  H   UNL     1       9.076  -3.828  57.152  1.00  0.00     0.210 HD
ENDROOT
BRANCH   1   3
HETATM    3  C   UNL     1       7.392  -2.878  57.534  1.00  0.00     0.221 C 
BRANCH   3   4
HETATM    4  C   UNL     1       6.586  -3.601  58.615  1.00  0.00     0.080 C 
BRANCH   4   5
HETATM    5  C   UNL     1       5.506  -4.477  58.028  1.00  0.00    -0.055 A 
HETATM    6  C   UNL     1       4.840  -5.375  58.847  1.00  0.00     0.007 A 
HETATM    7  C   UNL     1       3.842  -6.185  58.305  1.00  0.00     0.001 A 
HETATM    8  C   UNL     1       3.524  -6.086  56.950  1.00  0.00     0.000 A 
HETATM    9  C   UNL     1       4.203  -5.179  56.138  1.00  0.00     0.001 A 
HETATM   10  C   UNL     1       5.201  -4.368  56.681  1.00  0.00     0.007 A 
ENDBRANCH   4   5
ENDBRANCH   3   4
BRANCH   3  11
HETATM   11  C   UNL     1       7.176  -1.379  57.611  1.00  0.00     0.288 C 
HETATM   12  O   UNL     1       7.744  -0.634  58.398  1.00  0.00    -0.262 OA
BRANCH  11  13
HETATM   13  O   UNL     1       6.278  -0.997  56.656  1.00  0.00    -0.320 OA
BRANCH  13  14
HETATM   14  C   UNL     1       6.131   0.416  56.478  1.00  0.00     0.174 C 
HETATM   15  C   UNL     1       4.943   0.894  57.286  1.00  0.00     0.034 C 
ENDBRANCH  13  14
ENDBRANCH  11  13
ENDBRANCH   3  11
ENDBRANCH   1   3
TORSDOF 6
ENDMDL
MODEL 3
REMARK VINA RESULT:      -5.9      1.186      1.994
REMARK  6 active torsions:
REMARK  status: ('A' for Active; 'I' for Inactive)
REMARK    1  A    between atoms: O_1  and  C_5 
REMARK    2  A    between atoms: O_2  and  C_7 
REMARK    3  A    between atoms: O_2  and  C_13 
REMARK    4  A    between atoms: C_4  and  C_5 
REMARK    5  A    between atoms: C_4  and  C_6 
REMARK    6  A    between atoms: C_5  and  C_7 
ROOT
HETATM    1  O   UNL     1       7.024  -0.450  55.098  1.00  0.00    -0.385 OA
HETATM    2  H   UNL     1       6.533  -0.445  54.262  1.00  0.00     0.210 HD
ENDROOT
BRANCH   1   3
HETATM    3  C   UNL     1       6.319  -1.229  56.056  1.00  0.00     0.221 C 
BRANCH   3   4
HETATM    4  C   UNL     1       7.048  -2.562  56.240  1.00  0.00     0.080 C 
BRANCH   4   5
HETATM    5  C   UNL     1       6.238  -3.544  57.052  1.00  0.00    -0.055 A 
HETATM    6  C   UNL     1       6.572  -3.764  58.379  1.00  0.00     0.007 A 
HETATM    7  C   UNL     1       5.824  -4.672  59.130  1.00  0.00     0.001 A 
HETATM    8  C   UNL     1       4.754  -5.347  58.544  1.00  0.00     0.000 A 
HETATM    9  C   UNL     1       4.430  -5.115  57.208  1.00  0.00     0.001 A 
HETATM   10  C   UNL     1       5.177  -4.207  56.456  1.00  0.00     0.007 A 
ENDBRANCH   4   5
ENDBRANCH   3   4
BRANCH   3  11
HETATM   11  C   UNL     1       6.291  -0.447  57.355  1.00  0.00     0.288 C 
HETATM   12  O   UNL     1       7.258  -0.275  58.084  1.00  0.00    -0.262 OA
BRANCH  11  13
HETATM   13  O   UNL     1       5.036   0.050  57.563  1.00  0.00    -0.320 OA
BRANCH  13  14
HETATM   14  C   UNL     1       4.760   1.309  56.938  1.00  0.00     0.174 C 
HETATM   15  C   UNL     1       3.845   2.114  57.837  1.00  0.00     0.034 C 
ENDBRANCH  13  14
ENDBRANCH  11  13
ENDBRANCH   3  11
ENDBRANCH   1   3
TORSDOF 6
ENDMDL
MODEL 4
REMARK VINA RESULT:      -5.8      1.698      3.386
REMARK  6 active torsions:
REMARK  status: ('A' for Active; 'I' for Inactive)
REMARK    1  A    between atoms: O_1  and  C_5 
REMARK    2  A    between atoms: O_2  and  C_7 
REMARK    3  A    between atoms: O_2  and  C_13 
REMARK    4  A    between atoms: C_4  and  C_5 
REMARK    5  A    between atoms: C_4  and  C_6 
REMARK    6  A    between atoms: C_5  and  C_7 
ROOT
HETATM    1  O   UNL     1       5.487  -1.289  57.378  1.00  0.00    -0.385 OA
HETATM    2  H   UNL     1       5.956  -0.516  57.727  1.00  0.00     0.210 HD
ENDROOT
BRANCH   1   3
HETATM    3  C   UNL     1       6.028  -2.471  57.954  1.00  0.00     0.221 C 
BRANCH   3   4
HETATM    4  C   UNL     1       6.006  -3.585  56.905  1.00  0.00     0.080 C 
BRANCH   4   5
HETATM    5  C   UNL     1       5.049  -4.693  57.274  1.00  0.00    -0.055 A 
HETATM    6  C   UNL     1       5.015  -5.152  58.582  1.00  0.00     0.007 A 
HETATM    7  C   UNL     1       4.131  -6.176  58.924  1.00  0.00     0.001 A 
HETATM    8  C   UNL     1       3.294  -6.727  57.954  1.00  0.00     0.000 A 
HETATM    9  C   UNL     1       3.340  -6.255  56.643  1.00  0.00     0.001 A 
HETATM   10  C   UNL     1       4.224  -5.231  56.301  1.00  0.00     0.007 A 
ENDBRANCH   4   5
ENDBRANCH   3   4
BRANCH   3  11
HETATM   11  C   UNL     1       7.449  -2.164  58.384  1.00  0.00     0.288 C 
HETATM   12  O   UNL     1       7.954  -1.049  58.374  1.00  0.00    -0.262 OA
BRANCH  11  13
HETATM   13  O   UNL     1       8.058  -3.312  58.805  1.00  0.00    -0.320 OA
BRANCH  13  14
HETATM   14  C   UNL     1       7.902  -3.620  60.194  1.00  0.00     0.174 C 
HETATM   15  C   UNL     1       8.854  -4.740  60.560  1.00  0.00     0.034 C 
ENDBRANCH  13  14
ENDBRANCH  11  13
ENDBRANCH   3  11
ENDBRANCH   1   3
TORSDOF 6
ENDMDL
MODEL 5
REMARK VINA RESULT:      -5.7      1.969      4.528
REMARK  6 active torsions:
REMARK  status: ('A' for Active; 'I' for Inactive)
REMARK    1  A    between atoms: O_1  and  C_5 
REMARK    2  A    between atoms: O_2  and  C_7 
REMARK    3  A    between atoms: O_2  and  C_13 
REMARK    4  A    between atoms: C_4  and  C_5 
REMARK    5  A    between atoms: C_4  and  C_6 
REMARK    6  A    between atoms: C_5  and  C_7 
ROOT
HETATM    1  O   UNL     1       8.487  -3.150  59.243  1.00  0.00    -0.385 OA
HETATM    2  H   UNL     1       8.429  -3.087  60.209  1.00  0.00     0.210 HD
ENDROOT
BRANCH   1   3
HETATM    3  C   UNL     1       7.227  -2.824  58.671  1.00  0.00     0.221 C 
BRANCH   3   4
HETATM    4  C   UNL     1       7.426  -2.519  57.184  1.00  0.00     0.080 C 
BRANCH   4   5
HETATM    5  C   UNL     1       6.544  -1.388  56.714  1.00  0.00    -0.055 A 
HETATM    6  C   UNL     1       6.183  -1.320  55.377  1.00  0.00     0.007 A 
HETATM    7  C   UNL     1       5.368  -0.274  54.942  1.00  0.00     0.001 A 
HETATM    8  C   UNL     1       4.925   0.688  55.849  1.00  0.00     0.000 A 
HETATM    9  C   UNL     1       5.296   0.606  57.191  1.00  0.00     0.001 A 
HETATM   10  C   UNL     1       6.111  -0.439  57.626  1.00  0.00     0.007 A 
ENDBRANCH   4   5
ENDBRANCH   3   4
BRANCH   3  11
HETATM   11  C   UNL     1       6.312  -4.018  58.860  1.00  0.00     0.288 C 
HETATM   12  O   UNL     1       5.940  -4.444  59.945  1.00  0.00    -0.262 OA
BRANCH  11  13
HETATM   13  O   UNL     1       5.954  -4.517  57.640  1.00  0.00    -0.320 OA
BRANCH  13  14
HETATM   14  C   UNL     1       4.577  -4.885  57.505  1.00  0.00     0.174 C 
HETATM   15  C   UNL     1       3.997  -4.184  56.294  1.00  0.00     0.034 C 
ENDBRANCH  13  14
ENDBRANCH  11  13
ENDBRANCH   3  11
ENDBRANCH   1   3
TORSDOF 6
ENDMDL
MODEL 6
REMARK VINA RESULT:      -5.7      1.880      3.076
REMARK  6 active torsions:
REMARK  status: ('A' for Active; 'I' for Inactive)
REMARK    1  A    between atoms: O_1  and  C_5 
REMARK    2  A    between atoms: O_2  and  C_7 
REMARK    3  A    between atoms: O_2  and  C_13 
REMARK    4  A    between atoms: C_4  and  C_5 
REMARK    5  A    between atoms: C_4  and  C_6 
REMARK    6  A    between atoms: C_5  and  C_7 
ROOT
HETATM    1  O   UNL     1       4.599  -2.048  54.527  1.00  0.00    -0.385 OA
HETATM    2  H   UNL     1       3.725  -2.235  54.904  1.00  0.00     0.210 HD
ENDROOT
BRANCH   1   3
HETATM    3  C   UNL     1       5.470  -1.597  55.556  1.00  0.00     0.221 C 
BRANCH   3   4
HETATM    4  C   UNL     1       6.596  -2.620  55.731  1.00  0.00     0.080 C 
BRANCH   4   5
HETATM    5  C   UNL     1       6.597  -3.232  57.110  1.00  0.00    -0.055 A 
HETATM    6  C   UNL     1       7.617  -2.914  57.993  1.00  0.00     0.007 A 
HETATM    7  C   UNL     1       7.618  -3.480  59.268  1.00  0.00     0.001 A 
HETATM    8  C   UNL     1       6.600  -4.357  59.643  1.00  0.00     0.000 A 
HETATM    9  C   UNL     1       5.581  -4.668  58.744  1.00  0.00     0.001 A 
HETATM   10  C   UNL     1       5.579  -4.101  57.468  1.00  0.00     0.007 A 
ENDBRANCH   4   5
ENDBRANCH   3   4
BRANCH   3  11
HETATM   11  C   UNL     1       6.025  -0.251  55.133  1.00  0.00     0.288 C 
HETATM   12  O   UNL     1       6.219   0.088  53.973  1.00  0.00    -0.262 OA
BRANCH  11  13
HETATM   13  O   UNL     1       6.247   0.521  56.237  1.00  0.00    -0.320 OA
BRANCH  13  14
HETATM   14  C   UNL     1       5.345   0.309  57.329  1.00  0.00     0.174 C 
HETATM   15  C   UNL     1       4.479   1.540  57.498  1.00  0.00     0.034 C 
ENDBRANCH  13  14
ENDBRANCH  11  13
ENDBRANCH   3  11
ENDBRANCH   1   3
TORSDOF 6
ENDMDL
MODEL 7
REMARK VINA RESULT:      -5.6      3.783      5.943
REMARK  6 active torsions:
REMARK  status: ('A' for Active; 'I' for Inactive)
REMARK    1  A    between atoms: O_1  and  C_5 
REMARK    2  A    between atoms: O_2  and  C_7 
REMARK    3  A    between atoms: O_2  and  C_13 
REMARK    4  A    between atoms: C_4  and  C_5 
REMARK    5  A    between atoms: C_4  and  C_6 
REMARK    6  A    between atoms: C_5  and  C_7 
ROOT
HETATM    1  O   UNL     1       2.189  -5.134  59.770  1.00  0.00    -0.385 OA
HETATM    2  H   UNL     1       2.729  -5.351  60.546  1.00  0.00     0.210 HD
ENDROOT
BRANCH   1   3
HETATM    3  C   UNL     1       2.943  -5.370  58.587  1.00  0.00     0.221 C 
BRANCH   3   4
HETATM    4  C   UNL     1       4.338  -5.859  58.982  1.00  0.00     0.080 C 
BRANCH   4   5
HETATM    5  C   UNL     1       5.412  -4.860  58.624  1.00  0.00    -0.055 A 
HETATM    6  C   UNL     1       6.358  -4.511  59.576  1.00  0.00     0.007 A 
HETATM    7  C   UNL     1       7.350  -3.587  59.246  1.00  0.00     0.001 A 
HETATM    8  C   UNL     1       7.382  -3.025  57.969  1.00  0.00     0.000 A 
HETATM    9  C   UNL     1       6.424  -3.386  57.023  1.00  0.00     0.001 A 
HETATM   10  C   UNL     1       5.432  -4.310  57.353  1.00  0.00     0.007 A 
ENDBRANCH   4   5
ENDBRANCH   3   4
BRANCH   3  11
HETATM   11  C   UNL     1       2.212  -6.424  57.778  1.00  0.00     0.288 C 
HETATM   12  O   UNL     1       1.002  -6.444  57.595  1.00  0.00    -0.262 OA
BRANCH  11  13
HETATM   13  O   UNL     1       3.111  -7.318  57.272  1.00  0.00    -0.320 OA
BRANCH  13  14
HETATM   14  C   UNL     1       2.954  -7.632  55.884  1.00  0.00     0.174 C 
HETATM   15  C   UNL     1       3.488  -6.483  55.055  1.00  0.00     0.034 C 
ENDBRANCH  13  14
ENDBRANCH  11  13
ENDBRANCH   3  11
ENDBRANCH   1   3
TORSDOF 6
ENDMDL
MODEL 8
REMARK VINA RESULT:      -5.6      1.760      2.660
REMARK  6 active torsions:
REMARK  status: ('A' for Active; 'I' for Inactive)
REMARK    1  A    between atoms: O_1  and  C_5 
REMARK    2  A    between atoms: O_2  and  C_7 
REMARK    3  A    between atoms: O_2  and  C_13 
REMARK    4  A    between atoms: C_4  and  C_5 
REMARK    5  A    between atoms: C_4  and  C_6 
REMARK    6  A    between atoms: C_5  and  C_7 
ROOT
HETATM    1  O   UNL     1       6.509  -4.649  60.525  1.00  0.00    -0.385 OA
HETATM    2  H   UNL     1       7.361  -4.367  60.894  1.00  0.00     0.210 HD
ENDROOT
BRANCH   1   3
HETATM    3  C   UNL     1       6.467  -4.338  59.139  1.00  0.00     0.221 C 
BRANCH   3   4
HETATM    4  C   UNL     1       5.033  -3.957  58.763  1.00  0.00     0.080 C 
BRANCH   4   5
HETATM    5  C   UNL     1       4.376  -5.005  57.898  1.00  0.00    -0.055 A 
HETATM    6  C   UNL     1       3.789  -6.109  58.498  1.00  0.00     0.007 A 
HETATM    7  C   UNL     1       3.181  -7.078  57.699  1.00  0.00     0.001 A 
HETATM    8  C   UNL     1       3.169  -6.931  56.312  1.00  0.00     0.000 A 
HETATM    9  C   UNL     1       3.763  -5.815  55.723  1.00  0.00     0.001 A 
HETATM   10  C   UNL     1       4.371  -4.846  56.522  1.00  0.00     0.007 A 
ENDBRANCH   4   5
ENDBRANCH   3   4
BRANCH   3  11
HETATM   11  C   UNL     1       7.414  -3.179  58.898  1.00  0.00     0.288 C 
HETATM   12  O   UNL     1       8.397  -2.930  59.583  1.00  0.00    -0.262 OA
BRANCH  11  13
HETATM   13  O   UNL     1       7.015  -2.484  57.792  1.00  0.00    -0.320 OA
BRANCH  13  14
HETATM   14  C   UNL     1       7.211  -1.067  57.850  1.00  0.00     0.174 C 
HETATM   15  C   UNL     1       5.906  -0.375  57.514  1.00  0.00     0.034 C 
ENDBRANCH  13  14
ENDBRANCH  11  13
ENDBRANCH   3  11
ENDBRANCH   1   3
TORSDOF 6
ENDMDL
MODEL 9
REMARK VINA RESULT:      -5.6      1.817      3.111
REMARK  6 active torsions:
REMARK  status: ('A' for Active; 'I' for Inactive)
REMARK    1  A    between atoms: O_1  and  C_5 
REMARK    2  A    between atoms: O_2  and  C_7 
REMARK    3  A    between atoms: O_2  and  C_13 
REMARK    4  A    between atoms: C_4  and  C_5 
REMARK    5  A    between atoms: C_4  and  C_6 
REMARK    6  A    between atoms: C_5  and  C_7 
ROOT
HETATM    1  O   UNL     1       4.313  -1.714  54.368  1.00  0.00    -0.385 OA
HETATM    2  H   UNL     1       3.859  -2.553  54.545  1.00  0.00     0.210 HD
ENDROOT
BRANCH   1   3
HETATM    3  C   UNL     1       5.212  -1.427  55.430  1.00  0.00     0.221 C 
BRANCH   3   4
HETATM    4  C   UNL     1       6.269  -2.533  55.493  1.00  0.00     0.080 C 
BRANCH   4   5
HETATM    5  C   UNL     1       6.332  -3.181  56.855  1.00  0.00    -0.055 A 
HETATM    6  C   UNL     1       5.383  -4.131  57.198  1.00  0.00     0.007 A 
HETATM    7  C   UNL     1       5.440  -4.731  58.457  1.00  0.00     0.001 A 
HETATM    8  C   UNL     1       6.445  -4.371  59.355  1.00  0.00     0.000 A 
HETATM    9  C   UNL     1       7.393  -3.414  58.995  1.00  0.00     0.001 A 
HETATM   10  C   UNL     1       7.336  -2.815  57.737  1.00  0.00     0.007 A 
ENDBRANCH   4   5
ENDBRANCH   3   4
BRANCH   3  11
HETATM   11  C   UNL     1       5.854  -0.084  55.141  1.00  0.00     0.288 C 
HETATM   12  O   UNL     1       5.946   0.417  54.029  1.00  0.00    -0.262 OA
BRANCH  11  13
HETATM   13  O   UNL     1       6.281   0.480  56.309  1.00  0.00    -0.320 OA
BRANCH  13  14
HETATM   14  C   UNL     1       5.369   0.388  57.409  1.00  0.00     0.174 C 
HETATM   15  C   UNL     1       4.406   1.555  57.348  1.00  0.00     0.034 C 
ENDBRANCH  13  14
ENDBRANCH  11  13
ENDBRANCH   3  11
ENDBRANCH   1   3
TORSDOF 6
ENDMDL
