MODEL 1
REMARK VINA RESULT:      -5.9      0.000      0.000
REMARK  6 active torsions:
REMARK  status: ('A' for Active; 'I' for Inactive)
REMARK    1  A    between atoms: O_1  and  C_5 
REMARK    2  A    between atoms: O_2  and  C_7 
REMARK    3  A    between atoms: O_2  and  C_13 
REMARK    4  A    between atoms: C_4  and  C_5 
REMARK    5  A    between atoms: C_4  and  C_6 
REMARK    6  A    between atoms: C_5  and  C_7 
ROOT
HETATM    1  O   UNL     1       8.597  -3.033  57.779  1.00  0.00    -0.385 OA
HETATM    2  H   UNL     1       8.737  -3.813  58.337  1.00  0.00     0.210 HD
ENDROOT
BRANCH   1   3
HETATM    3  C   UNL     1       7.202  -2.819  57.606  1.00  0.00     0.221 C 
BRANCH   3   4
HETATM    4  C   UNL     1       6.442  -3.668  58.627  1.00  0.00     0.080 C 
BRANCH   4   5
HETATM    5  C   UNL     1       5.400  -4.543  57.975  1.00  0.00    -0.055 A 
HETATM    6  C   UNL     1       5.151  -4.405  56.618  1.00  0.00     0.007 A 
HETATM    7  C   UNL     1       4.187  -5.213  56.014  1.00  0.00     0.001 A 
HETATM    8  C   UNL     1       3.485  -6.148  56.775  1.00  0.00     0.000 A 
HETATM    9  C   UNL     1       3.747  -6.275  58.139  1.00  0.00     0.001 A 
HETATM   10  C   UNL     1       4.710  -5.468  58.743  1.00  0.00     0.007 A 
ENDBRANCH   4   5
ENDBRANCH   3   4
BRANCH   3  11
HETATM   11  C   UNL     1       6.932  -1.343  57.825  1.00  0.00     0.288 C 
HETATM   12  O   UNL     1       7.719  -0.561  58.342  1.00  0.00    -0.262 OA
BRANCH  11  13
HETATM   13  O   UNL     1       5.697  -1.025  57.336  1.00  0.00    -0.320 OA
BRANCH  13  14
HETATM   14  C   UNL     1       5.615   0.216  56.626  1.00  0.00     0.174 C 
HETATM   15  C   UNL     1       4.776   1.187  57.430  1.00  0.00     0.034 C 
ENDBRANCH  13  14
ENDBRANCH  11  13
ENDBRANCH   3  11
ENDBRANCH   1   3
TORSDOF 6
ENDMDL
MODEL 2
REMARK VINA RESULT:      -5.9      1.316      2.243
REMARK  6 active torsions:
REMARK  status: ('A' for Active; 'I' for Inactive)
REMARK    1  A    between atoms: O_1  and  C_5 
REMARK    2  A    between atoms: O_2  and  C_7 
REMARK    3  A    between atoms: O_2  and  C_13 
REMARK    4  A    between atoms: C_4  and  C_5 
REMARK    5  A    between atoms: C_4  and  C_6 
REMARK    6  A    between atoms: C_5  and  C_7 
ROOT
HETATM    1  O   UNL     1       6.974  -0.656  55.070  1.00  0.00    -0.385 OA
HETATM    2  H   UNL     1       7.898  -0.522  55.331  1.00  0.00     0.210 HD
ENDROOT
BRANCH   1   3
HETATM    3  C   UNL     1       6.293  -1.375  56.090  1.00  0.00     0.221 C 
BRANCH   3   4
HETATM    4  C   UNL     1       7.047  -2.679  56.360  1.00  0.00     0.080 C 
BRANCH   4   5
HETATM    5  C   UNL     1       6.237  -3.640  57.197  1.00  0.00    -0.055 A 
HETATM    6  C   UNL     1       6.559  -3.813  58.534  1.00  0.00     0.007 A 
HETATM    7  C   UNL     1       5.811  -4.701  59.308  1.00  0.00     0.001 A 
HETATM    8  C   UNL     1       4.751  -5.403  58.733  1.00  0.00     0.000 A 
HETATM    9  C   UNL     1       4.440  -5.219  57.387  1.00  0.00     0.001 A 
HETATM   10  C   UNL     1       5.188  -4.331  56.613  1.00  0.00     0.007 A 
ENDBRANCH   4   5
ENDBRANCH   3   4
BRANCH   3  11
HETATM   11  C   UNL     1       6.265  -0.501  57.329  1.00  0.00     0.288 C 
HETATM   12  O   UNL     1       7.231  -0.284  58.049  1.00  0.00    -0.262 OA
BRANCH  11  13
HETATM   13  O   UNL     1       5.013   0.018  57.495  1.00  0.00    -0.320 OA
BRANCH  13  14
HETATM   14  C   UNL     1       4.780   1.280  56.860  1.00  0.00     0.174 C 
HETATM   15  C   UNL     1       3.893   2.123  57.753  1.00  0.00     0.034 C 
ENDBRANCH  13  14
ENDBRANCH  11  13
ENDBRANCH   3  11
ENDBRANCH   1   3
TORSDOF 6
ENDMDL
MODEL 3
REMARK VINA RESULT:      -5.7      1.611      3.139
REMARK  6 active torsions:
REMARK  status: ('A' for Active; 'I' for Inactive)
REMARK    1  A    between atoms: O_1  and  C_5 
REMARK    2  A    between atoms: O_2  and  C_7 
REMARK    3  A    between atoms: O_2  and  C_13 
REMARK    4  A    between atoms: C_4  and  C_5 
REMARK    5  A    between atoms: C_4  and  C_6 
REMARK    6  A    between atoms: C_5  and  C_7 
ROOT
HETATM    1  O   UNL     1       5.402  -1.435  57.547  1.00  0.00    -0.385 OA
HETATM    2  H   UNL     1       5.245  -1.491  56.591  1.00  0.00     0.210 HD
ENDROOT
BRANCH   1   3
HETATM    3  C   UNL     1       5.940  -2.666  58.011  1.00  0.00     0.221 C 
BRANCH   3   4
HETATM    4  C   UNL     1       5.864  -3.695  56.880  1.00  0.00     0.080 C 
BRANCH   4   5
HETATM    5  C   UNL     1       4.895  -4.810  57.191  1.00  0.00    -0.055 A 
HETATM    6  C   UNL     1       4.149  -5.366  56.163  1.00  0.00     0.007 A 
HETATM    7  C   UNL     1       3.253  -6.396  56.450  1.00  0.00     0.001 A 
HETATM    8  C   UNL     1       3.115  -6.856  57.760  1.00  0.00     0.000 A 
HETATM    9  C   UNL     1       3.872  -6.286  58.783  1.00  0.00     0.001 A 
HETATM   10  C   UNL     1       4.768  -5.256  58.496  1.00  0.00     0.007 A 
ENDBRANCH   4   5
ENDBRANCH   3   4
BRANCH   3  11
HETATM   11  C   UNL     1       7.379  -2.416  58.418  1.00  0.00     0.288 C 
HETATM   12  O   UNL     1       7.946  -1.335  58.341  1.00  0.00    -0.262 OA
BRANCH  11  13
HETATM   13  O   UNL     1       7.925  -3.571  58.902  1.00  0.00    -0.320 OA
BRANCH  13  14
HETATM   14  C   UNL     1       7.558  -3.912  60.244  1.00  0.00     0.174 C 
HETATM   15  C   UNL     1       8.654  -4.759  60.854  1.00  0.00     0.034 C 
ENDBRANCH  13  14
ENDBRANCH  11  13
ENDBRANCH   3  11
ENDBRANCH   1   3
TORSDOF 6
ENDMDL
MODEL 4
REMARK VINA RESULT:      -5.7      2.107      3.363
REMARK  6 active torsions:
REMARK  status: ('A' for Active; 'I' for Inactive)
REMARK    1  A    between atoms: O_1  and  C_5 
REMARK    2  A    between atoms: O_2  and  C_7 
REMARK    3  A    between atoms: O_2  and  C_13 
REMARK    4  A    between atoms: C_4  and  C_5 
REMARK    5  A    between atoms: C_4  and  C_6 
REMARK    6  A    between atoms: C_5  and  C_7 
ROOT
HETATM    1  O   UNL     1       4.848  -2.092  54.386  1.00  0.00    -0.385 OA
HETATM    2  H   UNL     1       4.621  -3.021  54.547  1.00  0.00     0.210 HD
ENDROOT
BRANCH   1   3
HETATM    3  C   UNL     1       5.552  -1.575  55.507  1.00  0.00     0.221 C 
BRANCH   3   4
HETATM    4  C   UNL     1       6.782  -2.448  55.763  1.00  0.00     0.080 C 
BRANCH   4   5
HETATM    5  C   UNL     1       6.730  -3.121  57.113  1.00  0.00    -0.055 A 
HETATM    6  C   UNL     1       5.685  -3.985  57.401  1.00  0.00     0.007 A 
HETATM    7  C   UNL     1       5.636  -4.606  58.649  1.00  0.00     0.001 A 
HETATM    8  C   UNL     1       6.633  -4.356  59.592  1.00  0.00     0.000 A 
HETATM    9  C   UNL     1       7.678  -3.485  59.288  1.00  0.00     0.001 A 
HETATM   10  C   UNL     1       7.727  -2.863  58.040  1.00  0.00     0.007 A 
ENDBRANCH   4   5
ENDBRANCH   3   4
BRANCH   3  11
HETATM   11  C   UNL     1       5.960  -0.152  55.178  1.00  0.00     0.288 C 
HETATM   12  O   UNL     1       5.962   0.329  54.053  1.00  0.00    -0.262 OA
BRANCH  11  13
HETATM   13  O   UNL     1       6.293   0.506  56.328  1.00  0.00    -0.320 OA
BRANCH  13  14
HETATM   14  C   UNL     1       5.357   0.382  57.404  1.00  0.00     0.174 C 
HETATM   15  C   UNL     1       4.424   1.575  57.384  1.00  0.00     0.034 C 
ENDBRANCH  13  14
ENDBRANCH  11  13
ENDBRANCH   3  11
ENDBRANCH   1   3
TORSDOF 6
ENDMDL
MODEL 5
REMARK VINA RESULT:      -5.7      2.573      5.181
REMARK  6 active torsions:
REMARK  status: ('A' for Active; 'I' for Inactive)
REMARK    1  A    between atoms: O_1  and  C_5 
REMARK    2  A    between atoms: O_2  and  C_7 
REMARK    3  A    between atoms: O_2  and  C_13 
REMARK    4  A    between atoms: C_4  and  C_5 
REMARK    5  A    between atoms: C_4  and  C_6 
REMARK    6  A    between atoms: C_5  and  C_7 
ROOT
HETATM    1  O   UNL     1       8.800  -3.048  57.914  1.00  0.00    -0.385 OA
HETATM    2  H   UNL     1       9.174  -3.877  58.251  1.00  0.00     0.210 HD
ENDROOT
BRANCH   1   3
HETATM    3  C   UNL     1       7.505  -2.853  58.467  1.00  0.00     0.221 C 
BRANCH   3   4
HETATM    4  C   UNL     1       6.460  -3.113  57.380  1.00  0.00     0.080 C 
BRANCH   4   5
HETATM    5  C   UNL     1       5.933  -1.831  56.781  1.00  0.00    -0.055 A 
HETATM    6  C   UNL     1       5.924  -0.677  57.549  1.00  0.00     0.007 A 
HETATM    7  C   UNL     1       5.437   0.508  56.997  1.00  0.00     0.001 A 
HETATM    8  C   UNL     1       4.964   0.522  55.685  1.00  0.00     0.000 A 
HETATM    9  C   UNL     1       4.979  -0.647  54.925  1.00  0.00     0.001 A 
HETATM   10  C   UNL     1       5.467  -1.831  55.477  1.00  0.00     0.007 A 
ENDBRANCH   4   5
ENDBRANCH   3   4
BRANCH   3  11
HETATM   11  C   UNL     1       7.343  -3.830  59.616  1.00  0.00     0.288 C 
HETATM   12  O   UNL     1       6.270  -4.155  60.105  1.00  0.00    -0.262 OA
BRANCH  11  13
HETATM   13  O   UNL     1       8.568  -4.301  59.992  1.00  0.00    -0.320 OA
BRANCH  13  14
HETATM   14  C   UNL     1       8.617  -4.934  61.276  1.00  0.00     0.174 C 
HETATM   15  C   UNL     1       8.670  -6.435  61.082  1.00  0.00     0.034 C 
ENDBRANCH  13  14
ENDBRANCH  11  13
ENDBRANCH   3  11
ENDBRANCH   1   3
TORSDOF 6
ENDMDL
MODEL 6
REMARK VINA RESULT:      -5.7      1.727      4.659
REMARK  6 active torsions:
REMARK  status: ('A' for Active; 'I' for Inactive)
REMARK    1  A    between atoms: O_1  and  C_5 
REMARK    2  A    between atoms: O_2  and  C_7 
REMARK    3  A    between atoms: O_2  and  C_13 
REMARK    4  A    between atoms: C_4  and  C_5 
REMARK    5  A    between atoms: C_4  and  C_6 
REMARK    6  A    between atoms: C_5  and  C_7 
ROOT
HETATM    1  O   UNL     1       8.445  -3.048  59.254  1.00  0.00    -0.385 OA
HETATM    2  H   UNL     1       8.644  -3.995  59.326  1.00  0.00     0.210 HD
ENDROOT
BRANCH   1   3
HETATM    3  C   UNL     1       7.163  -2.878  58.663  1.00  0.00     0.221 C 
BRANCH   3   4
HETATM    4  C   UNL     1       7.342  -2.604  57.168  1.00  0.00     0.080 C 
BRANCH   4   5
HETATM    5  C   UNL     1       6.497  -1.445  56.698  1.00  0.00    -0.055 A 
HETATM    6  C   UNL     1       6.078  -0.494  57.617  1.00  0.00     0.007 A 
HETATM    7  C   UNL     1       5.296   0.577  57.184  1.00  0.00     0.001 A 
HETATM    8  C   UNL     1       4.944   0.683  55.838  1.00  0.00     0.000 A 
HETATM    9  C   UNL     1       5.373  -0.280  54.926  1.00  0.00     0.001 A 
HETATM   10  C   UNL     1       6.154  -1.352  55.359  1.00  0.00     0.007 A 
ENDBRANCH   4   5
ENDBRANCH   3   4
BRANCH   3  11
HETATM   11  C   UNL     1       6.379  -4.156  58.887  1.00  0.00     0.288 C 
HETATM   12  O   UNL     1       6.221  -4.693  59.976  1.00  0.00    -0.262 OA
BRANCH  11  13
HETATM   13  O   UNL     1       5.863  -4.591  57.700  1.00  0.00    -0.320 OA
BRANCH  13  14
HETATM   14  C   UNL     1       4.441  -4.750  57.667  1.00  0.00     0.174 C 
HETATM   15  C   UNL     1       3.909  -4.156  56.380  1.00  0.00     0.034 C 
ENDBRANCH  13  14
ENDBRANCH  11  13
ENDBRANCH   3  11
ENDBRANCH   1   3
TORSDOF 6
ENDMDL
MODEL 7
REMARK VINA RESULT:      -5.7      3.683      5.723
REMARK  6 active torsions:
REMARK  status: ('A' for Active; 'I' for Inactive)
REMARK    1  A    between atoms: O_1  and  C_5 
REMARK    2  A    between atoms: O_2  and  C_7 
REMARK    3  A    between atoms: O_2  and  C_13 
REMARK    4  A    between atoms: C_4  and  C_5 
REMARK    5  A    between atoms: C_4  and  C_6 
REMARK    6  A    between atoms: C_5  and  C_7 
ROOT
HETATM    1  O   UNL     1       2.158  -5.253  59.736  1.00  0.00    -0.385 OA
HETATM    2  H   UNL     1       2.620  -4.640  60.329  1.00  0.00     0.210 HD
ENDROOT
BRANCH   1   3
HETATM    3  C   UNL     1       2.929  -5.445  58.557  1.00  0.00     0.221 C 
BRANCH   3   4
HETATM    4  C   UNL     1       4.328  -5.919  58.955  1.00  0.00     0.080 C 
BRANCH   4   5
HETATM    5  C   UNL     1       5.392  -4.905  58.608  1.00  0.00    -0.055 A 
HETATM    6  C   UNL     1       5.407  -4.345  57.340  1.00  0.00     0.007 A 
HETATM    7  C   UNL     1       6.389  -3.408  57.018  1.00  0.00     0.001 A 
HETATM    8  C   UNL     1       7.343  -3.044  57.969  1.00  0.00     0.000 A 
HETATM    9  C   UNL     1       7.315  -3.616  59.241  1.00  0.00     0.001 A 
HETATM   10  C   UNL     1       6.332  -4.553  59.562  1.00  0.00     0.007 A 
ENDBRANCH   4   5
ENDBRANCH   3   4
BRANCH   3  11
HETATM   11  C   UNL     1       2.226  -6.489  57.712  1.00  0.00     0.288 C 
HETATM   12  O   UNL     1       1.015  -6.545  57.541  1.00  0.00    -0.262 OA
BRANCH  11  13
HETATM   13  O   UNL     1       3.150  -7.328  57.158  1.00  0.00    -0.320 OA
BRANCH  13  14
HETATM   14  C   UNL     1       2.976  -7.603  55.763  1.00  0.00     0.174 C 
HETATM   15  C   UNL     1       3.571  -6.465  54.960  1.00  0.00     0.034 C 
ENDBRANCH  13  14
ENDBRANCH  11  13
ENDBRANCH   3  11
ENDBRANCH   1   3
TORSDOF 6
ENDMDL
MODEL 8
REMARK VINA RESULT:      -5.6      1.570      2.046
REMARK  6 active torsions:
REMARK  status: ('A' for Active; 'I' for Inactive)
REMARK    1  A    between atoms: O_1  and  C_5 
REMARK    2  A    between atoms: O_2  and  C_7 
REMARK    3  A    between atoms: O_2  and  C_13 
REMARK    4  A    between atoms: C_4  and  C_5 
REMARK    5  A    between atoms: C_4  and  C_6 
REMARK    6  A    between atoms: C_5  and  C_7 
ROOT
HETATM    1  O   UNL     1       8.592  -3.373  59.201  1.00  0.00    -0.385 OA
HETATM    2  H   UNL     1       8.875  -2.502  59.522  1.00  0.00     0.210 HD
ENDROOT
BRANCH   1   3
HETATM    3  C   UNL     1       7.506  -3.216  58.298  1.00  0.00     0.221 C 
BRANCH   3   4
HETATM    4  C   UNL     1       6.197  -3.455  59.054  1.00  0.00     0.080 C 
BRANCH   4   5
HETATM    5  C   UNL     1       5.297  -4.430  58.335  1.00  0.00    -0.055 A 
HETATM    6  C   UNL     1       5.072  -4.271  56.977  1.00  0.00     0.007 A 
HETATM    7  C   UNL     1       4.240  -5.172  56.312  1.00  0.00     0.001 A 
HETATM    8  C   UNL     1       3.643  -6.219  57.015  1.00  0.00     0.000 A 
HETATM    9  C   UNL     1       3.878  -6.366  58.381  1.00  0.00     0.001 A 
HETATM   10  C   UNL     1       4.711  -5.465  59.046  1.00  0.00     0.007 A 
ENDBRANCH   4   5
ENDBRANCH   3   4
BRANCH   3  11
HETATM   11  C   UNL     1       7.563  -1.802  57.751  1.00  0.00     0.288 C 
HETATM   12  O   UNL     1       7.827  -0.810  58.417  1.00  0.00    -0.262 OA
BRANCH  11  13
HETATM   13  O   UNL     1       7.301  -1.818  56.411  1.00  0.00    -0.320 OA
BRANCH  13  14
HETATM   14  C   UNL     1       8.123  -2.695  55.633  1.00  0.00     0.174 C 
HETATM   15  C   UNL     1       7.383  -3.066  54.365  1.00  0.00     0.034 C 
ENDBRANCH  13  14
ENDBRANCH  11  13
ENDBRANCH   3  11
ENDBRANCH   1   3
TORSDOF 6
ENDMDL
MODEL 9
REMARK VINA RESULT:      -5.6      1.445      2.358
REMARK  6 active torsions:
REMARK  status: ('A' for Active; 'I' for Inactive)
REMARK    1  A    between atoms: O_1  and  C_5 
REMARK    2  A    between atoms: O_2  and  C_7 
REMARK    3  A    between atoms: O_2  and  C_13 
REMARK    4  A    between atoms: C_4  and  C_5 
REMARK    5  A    between atoms: C_4  and  C_6 
REMARK    6  A    between atoms: C_5  and  C_7 
ROOT
HETATM    1  O   UNL     1       6.193  -4.288  60.517  1.00  0.00    -0.385 OA
HETATM    2  H   UNL     1       5.950  -5.196  60.758  1.00  0.00     0.210 HD
ENDROOT
BRANCH   1   3
HETATM    3  C   UNL     1       6.369  -4.204  59.108  1.00  0.00     0.221 C 
BRANCH   3   4
HETATM    4  C   UNL     1       5.042  -3.785  58.471  1.00  0.00     0.080 C 
BRANCH   4   5
HETATM    5  C   UNL     1       4.378  -4.928  57.741  1.00  0.00    -0.055 A 
HETATM    6  C   UNL     1       3.872  -5.994  58.467  1.00  0.00     0.007 A 
HETATM    7  C   UNL     1       3.258  -7.051  57.793  1.00  0.00     0.001 A 
HETATM    8  C   UNL     1       3.159  -7.026  56.402  1.00  0.00     0.000 A 
HETATM    9  C   UNL     1       3.673  -5.946  55.685  1.00  0.00     0.001 A 
HETATM   10  C   UNL     1       4.286  -4.890  56.359  1.00  0.00     0.007 A 
ENDBRANCH   4   5
ENDBRANCH   3   4
BRANCH   3  11
HETATM   11  C   UNL     1       7.446  -3.171  58.839  1.00  0.00     0.288 C 
HETATM   12  O   UNL     1       8.486  -3.069  59.476  1.00  0.00    -0.262 OA
BRANCH  11  13
HETATM   13  O   UNL     1       7.085  -2.401  57.771  1.00  0.00    -0.320 OA
BRANCH  13  14
HETATM   14  C   UNL     1       7.310  -0.995  57.919  1.00  0.00     0.174 C 
HETATM   15  C   UNL     1       6.052  -0.251  57.522  1.00  0.00     0.034 C 
ENDBRANCH  13  14
ENDBRANCH  11  13
ENDBRANCH   3  11
ENDBRANCH   1   3
TORSDOF 6
ENDMDL
