MODEL 1
REMARK VINA RESULT:      -6.2      0.000      0.000
REMARK  6 active torsions:
REMARK  status: ('A' for Active; 'I' for Inactive)
REMARK    1  A    between atoms: O_1  and  C_5 
REMARK    2  A    between atoms: O_2  and  C_7 
REMARK    3  A    between atoms: O_2  and  C_13 
REMARK    4  A    between atoms: C_4  and  C_5 
REMARK    5  A    between atoms: C_4  and  C_6 
REMARK    6  A    between atoms: C_5  and  C_7 
ROOT
HETATM    1  O   UNL     1       5.335  -5.391  54.016  1.00  0.00    -0.385 OA
HETATM    2  H   UNL     1       4.994  -4.487  54.102  1.00  0.00     0.210 HD
ENDROOT
BRANCH   1   3
HETATM    3  C   UNL     1       4.348  -6.314  54.456  1.00  0.00     0.221 C 
BRANCH   3   4
HETATM    4  C   UNL     1       4.959  -7.718  54.474  1.00  0.00     0.080 C 
BRANCH   4   5
HETATM    5  C   UNL     1       3.953  -8.769  54.877  1.00  0.00    -0.055 A 
HETATM    6  C   UNL     1       2.954  -9.128  53.986  1.00  0.00     0.007 A 
HETATM    7  C   UNL     1       2.024 -10.100  54.357  1.00  0.00     0.001 A 
HETATM    8  C   UNL     1       2.106 -10.698  55.615  1.00  0.00     0.000 A 
HETATM    9  C   UNL     1       3.117 -10.327  56.500  1.00  0.00     0.001 A 
HETATM   10  C   UNL     1       4.047  -9.355  56.128  1.00  0.00     0.007 A 
ENDBRANCH   4   5
ENDBRANCH   3   4
BRANCH   3  11
HETATM   11  C   UNL     1       3.915  -5.897  55.848  1.00  0.00     0.288 C 
HETATM   12  O   UNL     1       4.639  -5.907  56.834  1.00  0.00    -0.262 OA
BRANCH  11  13
HETATM   13  O   UNL     1       2.612  -5.489  55.819  1.00  0.00    -0.320 OA
BRANCH  13  14
HETATM   14  C   UNL     1       2.405  -4.109  55.497  1.00  0.00     0.174 C 
HETATM   15  C   UNL     1       1.395  -3.525  56.462  1.00  0.00     0.034 C 
ENDBRANCH  13  14
ENDBRANCH  11  13
ENDBRANCH   3  11
ENDBRANCH   1   3
TORSDOF 6
ENDMDL
MODEL 2
REMARK VINA RESULT:      -5.9      1.168      1.418
REMARK  6 active torsions:
REMARK  status: ('A' for Active; 'I' for Inactive)
REMARK    1  A    between atoms: O_1  and  C_5 
REMARK    2  A    between atoms: O_2  and  C_7 
REMARK    3  A    between atoms: O_2  and  C_13 
REMARK    4  A    between atoms: C_4  and  C_5 
REMARK    5  A    between atoms: C_4  and  C_6 
REMARK    6  A    between atoms: C_5  and  C_7 
ROOT
HETATM    1  O   UNL     1       5.163  -6.512  52.284  1.00  0.00    -0.385 OA
HETATM    2  H   UNL     1       5.719  -5.730  52.427  1.00  0.00     0.210 HD
ENDROOT
BRANCH   1   3
HETATM    3  C   UNL     1       4.249  -6.648  53.364  1.00  0.00     0.221 C 
BRANCH   3   4
HETATM    4  C   UNL     1       4.936  -7.411  54.499  1.00  0.00     0.080 C 
BRANCH   4   5
HETATM    5  C   UNL     1       4.081  -8.540  55.021  1.00  0.00    -0.055 A 
HETATM    6  C   UNL     1       3.112  -9.095  54.200  1.00  0.00     0.007 A 
HETATM    7  C   UNL     1       2.321 -10.138  54.682  1.00  0.00     0.001 A 
HETATM    8  C   UNL     1       2.511 -10.613  55.980  1.00  0.00     0.000 A 
HETATM    9  C   UNL     1       3.490 -10.045  56.795  1.00  0.00     0.001 A 
HETATM   10  C   UNL     1       4.280  -9.002  56.312  1.00  0.00     0.007 A 
ENDBRANCH   4   5
ENDBRANCH   3   4
BRANCH   3  11
HETATM   11  C   UNL     1       3.856  -5.254  53.813  1.00  0.00     0.288 C 
HETATM   12  O   UNL     1       4.456  -4.231  53.510  1.00  0.00    -0.262 OA
BRANCH  11  13
HETATM   13  O   UNL     1       2.727  -5.320  54.578  1.00  0.00    -0.320 OA
BRANCH  13  14
HETATM   14  C   UNL     1       2.863  -4.846  55.922  1.00  0.00     0.174 C 
HETATM   15  C   UNL     1       1.801  -3.799  56.185  1.00  0.00     0.034 C 
ENDBRANCH  13  14
ENDBRANCH  11  13
ENDBRANCH   3  11
ENDBRANCH   1   3
TORSDOF 6
ENDMDL
MODEL 3
REMARK VINA RESULT:      -5.9      2.562      4.149
REMARK  6 active torsions:
REMARK  status: ('A' for Active; 'I' for Inactive)
REMARK    1  A    between atoms: O_1  and  C_5 
REMARK    2  A    between atoms: O_2  and  C_7 
REMARK    3  A    between atoms: O_2  and  C_13 
REMARK    4  A    between atoms: C_4  and  C_5 
REMARK    5  A    between atoms: C_4  and  C_6 
REMARK    6  A    between atoms: C_5  and  C_7 
ROOT
HETATM    1  O   UNL     1       3.300  -7.147  56.217  1.00  0.00    -0.385 OA
HETATM    2  H   UNL     1       3.564  -6.808  57.086  1.00  0.00     0.210 HD
ENDROOT
BRANCH   1   3
HETATM    3  C   UNL     1       3.755  -8.486  56.071  1.00  0.00     0.221 C 
BRANCH   3   4
HETATM    4  C   UNL     1       3.524  -8.930  54.624  1.00  0.00     0.080 C 
BRANCH   4   5
HETATM    5  C   UNL     1       2.491 -10.026  54.525  1.00  0.00    -0.055 A 
HETATM    6  C   UNL     1       2.198 -10.786  55.647  1.00  0.00     0.007 A 
HETATM    7  C   UNL     1       1.244 -11.799  55.556  1.00  0.00     0.001 A 
HETATM    8  C   UNL     1       0.595 -12.038  54.344  1.00  0.00     0.000 A 
HETATM    9  C   UNL     1       0.899 -11.265  53.224  1.00  0.00     0.001 A 
HETATM   10  C   UNL     1       1.854 -10.252  53.316  1.00  0.00     0.007 A 
ENDBRANCH   4   5
ENDBRANCH   3   4
BRANCH   3  11
HETATM   11  C   UNL     1       5.232  -8.510  56.413  1.00  0.00     0.288 C 
HETATM   12  O   UNL     1       6.132  -8.238  55.630  1.00  0.00    -0.262 OA
BRANCH  11  13
HETATM   13  O   UNL     1       5.392  -8.854  57.725  1.00  0.00    -0.320 OA
BRANCH  13  14
HETATM   14  C   UNL     1       4.652 -10.001  58.157  1.00  0.00     0.174 C 
HETATM   15  C   UNL     1       5.607 -11.160  58.348  1.00  0.00     0.034 C 
ENDBRANCH  13  14
ENDBRANCH  11  13
ENDBRANCH   3  11
ENDBRANCH   1   3
TORSDOF 6
ENDMDL
MODEL 4
REMARK VINA RESULT:      -5.9      1.161      1.911
REMARK  6 active torsions:
REMARK  status: ('A' for Active; 'I' for Inactive)
REMARK    1  A    between atoms: O_1  and  C_5 
REMARK    2  A    between atoms: O_2  and  C_7 
REMARK    3  A    between atoms: O_2  and  C_13 
REMARK    4  A    between atoms: C_4  and  C_5 
REMARK    5  A    between atoms: C_4  and  C_6 
REMARK    6  A    between atoms: C_5  and  C_7 
ROOT
HETATM    1  O   UNL     1       5.027  -6.391  52.165  1.00  0.00    -0.385 OA
HETATM    2  H   UNL     1       5.688  -5.720  52.395  1.00  0.00     0.210 HD
ENDROOT
BRANCH   1   3
HETATM    3  C   UNL     1       4.170  -6.611  53.278  1.00  0.00     0.221 C 
BRANCH   3   4
HETATM    4  C   UNL     1       4.923  -7.434  54.326  1.00  0.00     0.080 C 
BRANCH   4   5
HETATM    5  C   UNL     1       4.070  -8.537  54.902  1.00  0.00    -0.055 A 
HETATM    6  C   UNL     1       4.282  -8.946  56.210  1.00  0.00     0.007 A 
HETATM    7  C   UNL     1       3.493  -9.966  56.743  1.00  0.00     0.001 A 
HETATM    8  C   UNL     1       2.505 -10.564  55.961  1.00  0.00     0.000 A 
HETATM    9  C   UNL     1       2.303 -10.142  54.648  1.00  0.00     0.001 A 
HETATM   10  C   UNL     1       3.092  -9.122  54.114  1.00  0.00     0.007 A 
ENDBRANCH   4   5
ENDBRANCH   3   4
BRANCH   3  11
HETATM   11  C   UNL     1       3.780  -5.256  53.834  1.00  0.00     0.288 C 
HETATM   12  O   UNL     1       4.334  -4.202  53.551  1.00  0.00    -0.262 OA
BRANCH  11  13
HETATM   13  O   UNL     1       2.709  -5.395  54.670  1.00  0.00    -0.320 OA
BRANCH  13  14
HETATM   14  C   UNL     1       2.871  -4.838  55.979  1.00  0.00     0.174 C 
HETATM   15  C   UNL     1       1.782  -3.812  56.215  1.00  0.00     0.034 C 
ENDBRANCH  13  14
ENDBRANCH  11  13
ENDBRANCH   3  11
ENDBRANCH   1   3
TORSDOF 6
ENDMDL
MODEL 5
REMARK VINA RESULT:      -5.8      1.336      1.890
REMARK  6 active torsions:
REMARK  status: ('A' for Active; 'I' for Inactive)
REMARK    1  A    between atoms: O_1  and  C_5 
REMARK    2  A    between atoms: O_2  and  C_7 
REMARK    3  A    between atoms: O_2  and  C_13 
REMARK    4  A    between atoms: C_4  and  C_5 
REMARK    5  A    between atoms: C_4  and  C_6 
REMARK    6  A    between atoms: C_5  and  C_7 
ROOT
HETATM    1  O   UNL     1       6.899  -6.918  53.620  1.00  0.00    -0.385 OA
HETATM    2  H   UNL     1       7.466  -7.553  54.085  1.00  0.00     0.210 HD
ENDROOT
BRANCH   1   3
HETATM    3  C   UNL     1       5.536  -7.273  53.810  1.00  0.00     0.221 C 
BRANCH   3   4
HETATM    4  C   UNL     1       5.320  -7.630  55.283  1.00  0.00     0.080 C 
BRANCH   4   5
HETATM    5  C   UNL     1       4.273  -8.702  55.459  1.00  0.00    -0.055 A 
HETATM    6  C   UNL     1       3.399  -8.975  54.418  1.00  0.00     0.007 A 
HETATM    7  C   UNL     1       2.431  -9.966  54.580  1.00  0.00     0.001 A 
HETATM    8  C   UNL     1       2.348 -10.670  55.782  1.00  0.00     0.000 A 
HETATM    9  C   UNL     1       3.234 -10.384  56.820  1.00  0.00     0.001 A 
HETATM   10  C   UNL     1       4.203  -9.393  56.658  1.00  0.00     0.007 A 
ENDBRANCH   4   5
ENDBRANCH   3   4
BRANCH   3  11
HETATM   11  C   UNL     1       4.690  -6.078  53.415  1.00  0.00     0.288 C 
HETATM   12  O   UNL     1       4.101  -5.965  52.348  1.00  0.00    -0.262 OA
BRANCH  11  13
HETATM   13  O   UNL     1       4.669  -5.174  54.438  1.00  0.00    -0.320 OA
BRANCH  13  14
HETATM   14  C   UNL     1       3.409  -4.534  54.670  1.00  0.00     0.174 C 
HETATM   15  C   UNL     1       2.752  -5.165  55.879  1.00  0.00     0.034 C 
ENDBRANCH  13  14
ENDBRANCH  11  13
ENDBRANCH   3  11
ENDBRANCH   1   3
TORSDOF 6
ENDMDL
MODEL 6
REMARK VINA RESULT:      -5.8      1.169      2.022
REMARK  6 active torsions:
REMARK  status: ('A' for Active; 'I' for Inactive)
REMARK    1  A    between atoms: O_1  and  C_5 
REMARK    2  A    between atoms: O_2  and  C_7 
REMARK    3  A    between atoms: O_2  and  C_13 
REMARK    4  A    between atoms: C_4  and  C_5 
REMARK    5  A    between atoms: C_4  and  C_6 
REMARK    6  A    between atoms: C_5  and  C_7 
ROOT
HETATM    1  O   UNL     1       6.397  -7.910  56.436  1.00  0.00    -0.385 OA
HETATM    2  H   UNL     1       6.086  -7.770  57.344  1.00  0.00     0.210 HD
ENDROOT
BRANCH   1   3
HETATM    3  C   UNL     1       5.283  -8.137  55.584  1.00  0.00     0.221 C 
BRANCH   3   4
HETATM    4  C   UNL     1       4.108  -8.633  56.430  1.00  0.00     0.080 C 
BRANCH   4   5
HETATM    5  C   UNL     1       3.158  -9.494  55.632  1.00  0.00    -0.055 A 
HETATM    6  C   UNL     1       2.891  -9.166  54.312  1.00  0.00     0.007 A 
HETATM    7  C   UNL     1       2.013  -9.960  53.575  1.00  0.00     0.001 A 
HETATM    8  C   UNL     1       1.415 -11.073  54.167  1.00  0.00     0.000 A 
HETATM    9  C   UNL     1       1.694 -11.391  55.496  1.00  0.00     0.001 A 
HETATM   10  C   UNL     1       2.572 -10.596  56.233  1.00  0.00     0.007 A 
ENDBRANCH   4   5
ENDBRANCH   3   4
BRANCH   3  11
HETATM   11  C   UNL     1       4.944  -6.821  54.910  1.00  0.00     0.288 C 
HETATM   12  O   UNL     1       5.306  -6.503  53.785  1.00  0.00    -0.262 OA
BRANCH  11  13
HETATM   13  O   UNL     1       4.159  -6.071  55.738  1.00  0.00    -0.320 OA
BRANCH  13  14
HETATM   14  C   UNL     1       3.652  -4.857  55.175  1.00  0.00     0.174 C 
HETATM   15  C   UNL     1       2.429  -4.425  55.957  1.00  0.00     0.034 C 
ENDBRANCH  13  14
ENDBRANCH  11  13
ENDBRANCH   3  11
ENDBRANCH   1   3
TORSDOF 6
ENDMDL
MODEL 7
REMARK VINA RESULT:      -5.8      2.072      3.585
REMARK  6 active torsions:
REMARK  status: ('A' for Active; 'I' for Inactive)
REMARK    1  A    between atoms: O_1  and  C_5 
REMARK    2  A    between atoms: O_2  and  C_7 
REMARK    3  A    between atoms: O_2  and  C_13 
REMARK    4  A    between atoms: C_4  and  C_5 
REMARK    5  A    between atoms: C_4  and  C_6 
REMARK    6  A    between atoms: C_5  and  C_7 
ROOT
HETATM    1  O   UNL     1       3.381 -10.269  57.923  1.00  0.00    -0.385 OA
HETATM    2  H   UNL     1       4.095 -10.876  58.171  1.00  0.00     0.210 HD
ENDROOT
BRANCH   1   3
HETATM    3  C   UNL     1       3.562  -9.848  56.577  1.00  0.00     0.221 C 
BRANCH   3   4
HETATM    4  C   UNL     1       2.217  -9.374  56.023  1.00  0.00     0.080 C 
BRANCH   4   5
HETATM    5  C   UNL     1       1.738 -10.237  54.881  1.00  0.00    -0.055 A 
HETATM    6  C   UNL     1       1.158 -11.466  55.156  1.00  0.00     0.007 A 
HETATM    7  C   UNL     1       0.715 -12.264  54.101  1.00  0.00     0.001 A 
HETATM    8  C   UNL     1       0.858 -11.823  52.786  1.00  0.00     0.000 A 
HETATM    9  C   UNL     1       1.443 -10.585  52.525  1.00  0.00     0.001 A 
HETATM   10  C   UNL     1       1.886  -9.786  53.580  1.00  0.00     0.007 A 
ENDBRANCH   4   5
ENDBRANCH   3   4
BRANCH   3  11
HETATM   11  C   UNL     1       4.572  -8.717  56.581  1.00  0.00     0.288 C 
HETATM   12  O   UNL     1       5.599  -8.703  57.247  1.00  0.00    -0.262 OA
BRANCH  11  13
HETATM   13  O   UNL     1       4.171  -7.742  55.714  1.00  0.00    -0.320 OA
BRANCH  13  14
HETATM   14  C   UNL     1       4.353  -6.397  56.170  1.00  0.00     0.174 C 
HETATM   15  C   UNL     1       3.095  -5.605  55.883  1.00  0.00     0.034 C 
ENDBRANCH  13  14
ENDBRANCH  11  13
ENDBRANCH   3  11
ENDBRANCH   1   3
TORSDOF 6
ENDMDL
MODEL 8
REMARK VINA RESULT:      -5.8      4.263      6.005
REMARK  6 active torsions:
REMARK  status: ('A' for Active; 'I' for Inactive)
REMARK    1  A    between atoms: O_1  and  C_5 
REMARK    2  A    between atoms: O_2  and  C_7 
REMARK    3  A    between atoms: O_2  and  C_13 
REMARK    4  A    between atoms: C_4  and  C_5 
REMARK    5  A    between atoms: C_4  and  C_6 
REMARK    6  A    between atoms: C_5  and  C_7 
ROOT
HETATM    1  O   UNL     1       0.651 -13.186  53.577  1.00  0.00    -0.385 OA
HETATM    2  H   UNL     1       0.077 -13.357  52.815  1.00  0.00     0.210 HD
ENDROOT
BRANCH   1   3
HETATM    3  C   UNL     1       0.336 -11.916  54.132  1.00  0.00     0.221 C 
BRANCH   3   4
HETATM    4  C   UNL     1       1.239 -10.859  53.492  1.00  0.00     0.080 C 
BRANCH   4   5
HETATM    5  C   UNL     1       2.205 -10.260  54.485  1.00  0.00    -0.055 A 
HETATM    6  C   UNL     1       2.283 -10.795  55.762  1.00  0.00     0.007 A 
HETATM    7  C   UNL     1       3.175 -10.241  56.681  1.00  0.00     0.001 A 
HETATM    8  C   UNL     1       3.977  -9.162  56.310  1.00  0.00     0.000 A 
HETATM    9  C   UNL     1       3.888  -8.635  55.022  1.00  0.00     0.001 A 
HETATM   10  C   UNL     1       2.995  -9.189  54.103  1.00  0.00     0.007 A 
ENDBRANCH   4   5
ENDBRANCH   3   4
BRANCH   3  11
HETATM   11  C   UNL     1      -1.123 -11.631  53.832  1.00  0.00     0.288 C 
HETATM   12  O   UNL     1      -1.850 -12.357  53.166  1.00  0.00    -0.262 OA
BRANCH  11  13
HETATM   13  O   UNL     1      -1.497 -10.466  54.437  1.00  0.00    -0.320 OA
BRANCH  13  14
HETATM   14  C   UNL     1      -2.102 -10.607  55.727  1.00  0.00     0.174 C 
HETATM   15  C   UNL     1      -1.210  -9.956  56.763  1.00  0.00     0.034 C 
ENDBRANCH  13  14
ENDBRANCH  11  13
ENDBRANCH   3  11
ENDBRANCH   1   3
TORSDOF 6
ENDMDL
MODEL 9
REMARK VINA RESULT:      -5.7      2.130      3.380
REMARK  6 active torsions:
REMARK  status: ('A' for Active; 'I' for Inactive)
REMARK    1  A    between atoms: O_1  and  C_5 
REMARK    2  A    between atoms: O_2  and  C_7 
REMARK    3  A    between atoms: O_2  and  C_13 
REMARK    4  A    between atoms: C_4  and  C_5 
REMARK    5  A    between atoms: C_4  and  C_6 
REMARK    6  A    between atoms: C_5  and  C_7 
ROOT
HETATM    1  O   UNL     1       5.930  -9.003  57.091  1.00  0.00    -0.385 OA
HETATM    2  H   UNL     1       6.300  -9.868  56.856  1.00  0.00     0.210 HD
ENDROOT
BRANCH   1   3
HETATM    3  C   UNL     1       4.905  -8.659  56.168  1.00  0.00     0.221 C 
BRANCH   3   4
HETATM    4  C   UNL     1       3.573  -9.211  56.683  1.00  0.00     0.080 C 
BRANCH   4   5
HETATM    5  C   UNL     1       2.764  -9.856  55.584  1.00  0.00    -0.055 A 
HETATM    6  C   UNL     1       2.025 -10.995  55.864  1.00  0.00     0.007 A 
HETATM    7  C   UNL     1       1.277 -11.592  54.849  1.00  0.00     0.001 A 
HETATM    8  C   UNL     1       1.278 -11.042  53.567  1.00  0.00     0.000 A 
HETATM    9  C   UNL     1       2.026  -9.896  53.300  1.00  0.00     0.001 A 
HETATM   10  C   UNL     1       2.774  -9.299  54.315  1.00  0.00     0.007 A 
ENDBRANCH   4   5
ENDBRANCH   3   4
BRANCH   3  11
HETATM   11  C   UNL     1       4.860  -7.146  56.072  1.00  0.00     0.288 C 
HETATM   12  O   UNL     1       4.813  -6.390  57.032  1.00  0.00    -0.262 OA
BRANCH  11  13
HETATM   13  O   UNL     1       4.906  -6.770  54.760  1.00  0.00    -0.320 OA
BRANCH  13  14
HETATM   14  C   UNL     1       5.924  -7.397  53.973  1.00  0.00     0.174 C 
HETATM   15  C   UNL     1       5.465  -7.458  52.531  1.00  0.00     0.034 C 
ENDBRANCH  13  14
ENDBRANCH  11  13
ENDBRANCH   3  11
ENDBRANCH   1   3
TORSDOF 6
ENDMDL
