MODEL 1
REMARK VINA RESULT:      -6.2      0.000      0.000
REMARK  6 active torsions:
REMARK  status: ('A' for Active; 'I' for Inactive)
REMARK    1  A    between atoms: O_1  and  C_5 
REMARK    2  A    between atoms: O_2  and  C_7 
REMARK    3  A    between atoms: O_2  and  C_13 
REMARK    4  A    between atoms: C_4  and  C_5 
REMARK    5  A    between atoms: C_4  and  C_6 
REMARK    6  A    between atoms: C_5  and  C_7 
ROOT
HETATM    1  O   UNL     1       5.328  -5.346  54.031  1.00  0.00    -0.385 OA
HETATM    2  H   UNL     1       4.900  -4.640  53.523  1.00  0.00     0.210 HD
ENDROOT
BRANCH   1   3
HETATM    3  C   UNL     1       4.347  -6.281  54.461  1.00  0.00     0.221 C 
BRANCH   3   4
HETATM    4  C   UNL     1       4.998  -7.662  54.573  1.00  0.00     0.080 C 
BRANCH   4   5
HETATM    5  C   UNL     1       4.004  -8.729  54.960  1.00  0.00    -0.055 A 
HETATM    6  C   UNL     1       4.086  -9.310  56.216  1.00  0.00     0.007 A 
HETATM    7  C   UNL     1       3.167 -10.297  56.574  1.00  0.00     0.001 A 
HETATM    8  C   UNL     1       2.178 -10.689  55.672  1.00  0.00     0.000 A 
HETATM    9  C   UNL     1       2.108 -10.095  54.412  1.00  0.00     0.001 A 
HETATM   10  C   UNL     1       3.027  -9.108  54.054  1.00  0.00     0.007 A 
ENDBRANCH   4   5
ENDBRANCH   3   4
BRANCH   3  11
HETATM   11  C   UNL     1       3.829  -5.819  55.809  1.00  0.00     0.288 C 
HETATM   12  O   UNL     1       4.489  -5.801  56.839  1.00  0.00    -0.262 OA
BRANCH  11  13
HETATM   13  O   UNL     1       2.533  -5.406  55.684  1.00  0.00    -0.320 OA
BRANCH  13  14
HETATM   14  C   UNL     1       2.348  -3.996  55.518  1.00  0.00     0.174 C 
HETATM   15  C   UNL     1       1.361  -3.504  56.556  1.00  0.00     0.034 C 
ENDBRANCH  13  14
ENDBRANCH  11  13
ENDBRANCH   3  11
ENDBRANCH   1   3
TORSDOF 6
ENDMDL
MODEL 2
REMARK VINA RESULT:      -5.9      1.080      1.356
REMARK  6 active torsions:
REMARK  status: ('A' for Active; 'I' for Inactive)
REMARK    1  A    between atoms: O_1  and  C_5 
REMARK    2  A    between atoms: O_2  and  C_7 
REMARK    3  A    between atoms: O_2  and  C_13 
REMARK    4  A    between atoms: C_4  and  C_5 
REMARK    5  A    between atoms: C_4  and  C_6 
REMARK    6  A    between atoms: C_5  and  C_7 
ROOT
HETATM    1  O   UNL     1       5.178  -6.471  52.336  1.00  0.00    -0.385 OA
HETATM    2  H   UNL     1       4.711  -6.367  51.492  1.00  0.00     0.210 HD
ENDROOT
BRANCH   1   3
HETATM    3  C   UNL     1       4.231  -6.655  53.381  1.00  0.00     0.221 C 
BRANCH   3   4
HETATM    4  C   UNL     1       4.890  -7.456  54.507  1.00  0.00     0.080 C 
BRANCH   4   5
HETATM    5  C   UNL     1       4.011  -8.584  54.990  1.00  0.00    -0.055 A 
HETATM    6  C   UNL     1       4.158  -9.051  56.287  1.00  0.00     0.007 A 
HETATM    7  C   UNL     1       3.346 -10.094  56.735  1.00  0.00     0.001 A 
HETATM    8  C   UNL     1       2.398 -10.655  55.879  1.00  0.00     0.000 A 
HETATM    9  C   UNL     1       2.261 -10.174  54.577  1.00  0.00     0.001 A 
HETATM   10  C   UNL     1       3.073  -9.132  54.130  1.00  0.00     0.007 A 
ENDBRANCH   4   5
ENDBRANCH   3   4
BRANCH   3  11
HETATM   11  C   UNL     1       3.812  -5.283  53.870  1.00  0.00     0.288 C 
HETATM   12  O   UNL     1       4.367  -4.236  53.565  1.00  0.00    -0.262 OA
BRANCH  11  13
HETATM   13  O   UNL     1       2.713  -5.399  54.673  1.00  0.00    -0.320 OA
BRANCH  13  14
HETATM   14  C   UNL     1       2.845  -4.837  55.983  1.00  0.00     0.174 C 
HETATM   15  C   UNL     1       1.759  -3.801  56.187  1.00  0.00     0.034 C 
ENDBRANCH  13  14
ENDBRANCH  11  13
ENDBRANCH   3  11
ENDBRANCH   1   3
TORSDOF 6
ENDMDL
MODEL 3
REMARK VINA RESULT:      -5.9      2.568      3.999
REMARK  6 active torsions:
REMARK  status: ('A' for Active; 'I' for Inactive)
REMARK    1  A    between atoms: O_1  and  C_5 
REMARK    2  A    between atoms: O_2  and  C_7 
REMARK    3  A    between atoms: O_2  and  C_13 
REMARK    4  A    between atoms: C_4  and  C_5 
REMARK    5  A    between atoms: C_4  and  C_6 
REMARK    6  A    between atoms: C_5  and  C_7 
ROOT
HETATM    1  O   UNL     1       3.340  -7.088  56.174  1.00  0.00    -0.385 OA
HETATM    2  H   UNL     1       3.758  -6.710  56.964  1.00  0.00     0.210 HD
ENDROOT
BRANCH   1   3
HETATM    3  C   UNL     1       3.775  -8.431  56.004  1.00  0.00     0.221 C 
BRANCH   3   4
HETATM    4  C   UNL     1       3.513  -8.854  54.557  1.00  0.00     0.080 C 
BRANCH   4   5
HETATM    5  C   UNL     1       2.498  -9.967  54.466  1.00  0.00    -0.055 A 
HETATM    6  C   UNL     1       2.232 -10.737  55.589  1.00  0.00     0.007 A 
HETATM    7  C   UNL     1       1.294 -11.766  55.505  1.00  0.00     0.001 A 
HETATM    8  C   UNL     1       0.635 -12.012  54.301  1.00  0.00     0.000 A 
HETATM    9  C   UNL     1       0.913 -11.230  53.181  1.00  0.00     0.001 A 
HETATM   10  C   UNL     1       1.851 -10.201  53.264  1.00  0.00     0.007 A 
ENDBRANCH   4   5
ENDBRANCH   3   4
BRANCH   3  11
HETATM   11  C   UNL     1       5.257  -8.479  56.321  1.00  0.00     0.288 C 
HETATM   12  O   UNL     1       6.146  -8.168  55.538  1.00  0.00    -0.262 OA
BRANCH  11  13
HETATM   13  O   UNL     1       5.437  -8.893  57.609  1.00  0.00    -0.320 OA
BRANCH  13  14
HETATM   14  C   UNL     1       4.654 -10.024  58.009  1.00  0.00     0.174 C 
HETATM   15  C   UNL     1       5.583 -11.129  58.465  1.00  0.00     0.034 C 
ENDBRANCH  13  14
ENDBRANCH  11  13
ENDBRANCH   3  11
ENDBRANCH   1   3
TORSDOF 6
ENDMDL
MODEL 4
REMARK VINA RESULT:      -5.8      1.430      1.946
REMARK  6 active torsions:
REMARK  status: ('A' for Active; 'I' for Inactive)
REMARK    1  A    between atoms: O_1  and  C_5 
REMARK    2  A    between atoms: O_2  and  C_7 
REMARK    3  A    between atoms: O_2  and  C_13 
REMARK    4  A    between atoms: C_4  and  C_5 
REMARK    5  A    between atoms: C_4  and  C_6 
REMARK    6  A    between atoms: C_5  and  C_7 
ROOT
HETATM    1  O   UNL     1       2.465  -6.014  52.487  1.00  0.00    -0.385 OA
HETATM    2  H   UNL     1       1.995  -5.166  52.479  1.00  0.00     0.210 HD
ENDROOT
BRANCH   1   3
HETATM    3  C   UNL     1       3.152  -6.164  53.723  1.00  0.00     0.221 C 
BRANCH   3   4
HETATM    4  C   UNL     1       4.116  -7.347  53.612  1.00  0.00     0.080 C 
BRANCH   4   5
HETATM    5  C   UNL     1       3.970  -8.309  54.766  1.00  0.00    -0.055 A 
HETATM    6  C   UNL     1       4.862  -8.238  55.825  1.00  0.00     0.007 A 
HETATM    7  C   UNL     1       4.728  -9.126  56.893  1.00  0.00     0.001 A 
HETATM    8  C   UNL     1       3.704 -10.073  56.886  1.00  0.00     0.000 A 
HETATM    9  C   UNL     1       2.814 -10.132  55.815  1.00  0.00     0.001 A 
HETATM   10  C   UNL     1       2.948  -9.244  54.747  1.00  0.00     0.007 A 
ENDBRANCH   4   5
ENDBRANCH   3   4
BRANCH   3  11
HETATM   11  C   UNL     1       3.907  -4.876  53.989  1.00  0.00     0.288 C 
HETATM   12  O   UNL     1       4.433  -4.188  53.125  1.00  0.00    -0.262 OA
BRANCH  11  13
HETATM   13  O   UNL     1       3.883  -4.599  55.326  1.00  0.00    -0.320 OA
BRANCH  13  14
HETATM   14  C   UNL     1       2.699  -5.007  56.020  1.00  0.00     0.174 C 
HETATM   15  C   UNL     1       1.821  -3.795  56.251  1.00  0.00     0.034 C 
ENDBRANCH  13  14
ENDBRANCH  11  13
ENDBRANCH   3  11
ENDBRANCH   1   3
TORSDOF 6
ENDMDL
MODEL 5
REMARK VINA RESULT:      -5.8      1.351      2.259
REMARK  6 active torsions:
REMARK  status: ('A' for Active; 'I' for Inactive)
REMARK    1  A    between atoms: O_1  and  C_5 
REMARK    2  A    between atoms: O_2  and  C_7 
REMARK    3  A    between atoms: O_2  and  C_13 
REMARK    4  A    between atoms: C_4  and  C_5 
REMARK    5  A    between atoms: C_4  and  C_6 
REMARK    6  A    between atoms: C_5  and  C_7 
ROOT
HETATM    1  O   UNL     1       3.451  -6.571  52.408  1.00  0.00    -0.385 OA
HETATM    2  H   UNL     1       3.844  -7.391  52.073  1.00  0.00     0.210 HD
ENDROOT
BRANCH   1   3
HETATM    3  C   UNL     1       3.751  -6.431  53.791  1.00  0.00     0.221 C 
BRANCH   3   4
HETATM    4  C   UNL     1       4.919  -7.358  54.137  1.00  0.00     0.080 C 
BRANCH   4   5
HETATM    5  C   UNL     1       4.560  -8.342  55.224  1.00  0.00    -0.055 A 
HETATM    6  C   UNL     1       3.427  -9.128  55.080  1.00  0.00     0.007 A 
HETATM    7  C   UNL     1       3.095 -10.037  56.085  1.00  0.00     0.001 A 
HETATM    8  C   UNL     1       3.900 -10.148  57.219  1.00  0.00     0.000 A 
HETATM    9  C   UNL     1       5.036  -9.351  57.349  1.00  0.00     0.001 A 
HETATM   10  C   UNL     1       5.369  -8.442  56.344  1.00  0.00     0.007 A 
ENDBRANCH   4   5
ENDBRANCH   3   4
BRANCH   3  11
HETATM   11  C   UNL     1       4.121  -4.982  54.038  1.00  0.00     0.288 C 
HETATM   12  O   UNL     1       4.400  -4.176  53.160  1.00  0.00    -0.262 OA
BRANCH  11  13
HETATM   13  O   UNL     1       4.067  -4.718  55.377  1.00  0.00    -0.320 OA
BRANCH  13  14
HETATM   14  C   UNL     1       2.859  -5.113  56.036  1.00  0.00     0.174 C 
HETATM   15  C   UNL     1       1.936  -3.916  56.131  1.00  0.00     0.034 C 
ENDBRANCH  13  14
ENDBRANCH  11  13
ENDBRANCH   3  11
ENDBRANCH   1   3
TORSDOF 6
ENDMDL
MODEL 6
REMARK VINA RESULT:      -5.8      1.314      1.957
REMARK  6 active torsions:
REMARK  status: ('A' for Active; 'I' for Inactive)
REMARK    1  A    between atoms: O_1  and  C_5 
REMARK    2  A    between atoms: O_2  and  C_7 
REMARK    3  A    between atoms: O_2  and  C_13 
REMARK    4  A    between atoms: C_4  and  C_5 
REMARK    5  A    between atoms: C_4  and  C_6 
REMARK    6  A    between atoms: C_5  and  C_7 
ROOT
HETATM    1  O   UNL     1       6.520  -8.241  55.968  1.00  0.00    -0.385 OA
HETATM    2  H   UNL     1       6.777  -9.135  55.694  1.00  0.00     0.210 HD
ENDROOT
BRANCH   1   3
HETATM    3  C   UNL     1       5.131  -8.053  55.730  1.00  0.00     0.221 C 
BRANCH   3   4
HETATM    4  C   UNL     1       4.356  -9.172  56.431  1.00  0.00     0.080 C 
BRANCH   4   5
HETATM    5  C   UNL     1       3.276  -9.752  55.551  1.00  0.00    -0.055 A 
HETATM    6  C   UNL     1       2.477 -10.774  56.040  1.00  0.00     0.007 A 
HETATM    7  C   UNL     1       1.479 -11.310  55.227  1.00  0.00     0.001 A 
HETATM    8  C   UNL     1       1.292 -10.817  53.935  1.00  0.00     0.000 A 
HETATM    9  C   UNL     1       2.102  -9.788  53.457  1.00  0.00     0.001 A 
HETATM   10  C   UNL     1       3.101  -9.252  54.270  1.00  0.00     0.007 A 
ENDBRANCH   4   5
ENDBRANCH   3   4
BRANCH   3  11
HETATM   11  C   UNL     1       4.746  -6.698  56.291  1.00  0.00     0.288 C 
HETATM   12  O   UNL     1       5.016  -6.310  57.420  1.00  0.00    -0.262 OA
BRANCH  11  13
HETATM   13  O   UNL     1       4.084  -5.980  55.337  1.00  0.00    -0.320 OA
BRANCH  13  14
HETATM   14  C   UNL     1       2.695  -5.745  55.595  1.00  0.00     0.174 C 
HETATM   15  C   UNL     1       2.457  -4.252  55.683  1.00  0.00     0.034 C 
ENDBRANCH  13  14
ENDBRANCH  11  13
ENDBRANCH   3  11
ENDBRANCH   1   3
TORSDOF 6
ENDMDL
MODEL 7
REMARK VINA RESULT:      -5.7      2.128      3.621
REMARK  6 active torsions:
REMARK  status: ('A' for Active; 'I' for Inactive)
REMARK    1  A    between atoms: O_1  and  C_5 
REMARK    2  A    between atoms: O_2  and  C_7 
REMARK    3  A    between atoms: O_2  and  C_13 
REMARK    4  A    between atoms: C_4  and  C_5 
REMARK    5  A    between atoms: C_4  and  C_6 
REMARK    6  A    between atoms: C_5  and  C_7 
ROOT
HETATM    1  O   UNL     1       3.325 -10.286  57.747  1.00  0.00    -0.385 OA
HETATM    2  H   UNL     1       2.536 -10.850  57.749  1.00  0.00     0.210 HD
ENDROOT
BRANCH   1   3
HETATM    3  C   UNL     1       3.549  -9.789  56.434  1.00  0.00     0.221 C 
BRANCH   3   4
HETATM    4  C   UNL     1       2.215  -9.320  55.850  1.00  0.00     0.080 C 
BRANCH   4   5
HETATM    5  C   UNL     1       1.733 -10.222  54.739  1.00  0.00    -0.055 A 
HETATM    6  C   UNL     1       1.887  -9.817  53.422  1.00  0.00     0.007 A 
HETATM    7  C   UNL     1       1.442 -10.649  52.395  1.00  0.00     0.001 A 
HETATM    8  C   UNL     1       0.850 -11.875  52.698  1.00  0.00     0.000 A 
HETATM    9  C   UNL     1       0.703 -12.269  54.028  1.00  0.00     0.001 A 
HETATM   10  C   UNL     1       1.147 -11.436  55.055  1.00  0.00     0.007 A 
ENDBRANCH   4   5
ENDBRANCH   3   4
BRANCH   3  11
HETATM   11  C   UNL     1       4.527  -8.635  56.539  1.00  0.00     0.288 C 
HETATM   12  O   UNL     1       5.535  -8.639  57.233  1.00  0.00    -0.262 OA
BRANCH  11  13
HETATM   13  O   UNL     1       4.122  -7.616  55.726  1.00  0.00    -0.320 OA
BRANCH  13  14
HETATM   14  C   UNL     1       4.330  -6.296  56.240  1.00  0.00     0.174 C 
HETATM   15  C   UNL     1       3.104  -5.456  55.952  1.00  0.00     0.034 C 
ENDBRANCH  13  14
ENDBRANCH  11  13
ENDBRANCH   3  11
ENDBRANCH   1   3
TORSDOF 6
ENDMDL
MODEL 8
REMARK VINA RESULT:      -5.7      4.279      6.047
REMARK  6 active torsions:
REMARK  status: ('A' for Active; 'I' for Inactive)
REMARK    1  A    between atoms: O_1  and  C_5 
REMARK    2  A    between atoms: O_2  and  C_7 
REMARK    3  A    between atoms: O_2  and  C_13 
REMARK    4  A    between atoms: C_4  and  C_5 
REMARK    5  A    between atoms: C_4  and  C_6 
REMARK    6  A    between atoms: C_5  and  C_7 
ROOT
HETATM    1  O   UNL     1       0.656 -13.217  53.326  1.00  0.00    -0.385 OA
HETATM    2  H   UNL     1      -0.143 -13.555  52.893  1.00  0.00     0.210 HD
ENDROOT
BRANCH   1   3
HETATM    3  C   UNL     1       0.360 -11.986  53.973  1.00  0.00     0.221 C 
BRANCH   3   4
HETATM    4  C   UNL     1       1.242 -10.889  53.373  1.00  0.00     0.080 C 
BRANCH   4   5
HETATM    5  C   UNL     1       2.177 -10.290  54.396  1.00  0.00    -0.055 A 
HETATM    6  C   UNL     1       2.959  -9.200  54.045  1.00  0.00     0.007 A 
HETATM    7  C   UNL     1       3.823  -8.647  54.989  1.00  0.00     0.001 A 
HETATM    8  C   UNL     1       3.894  -9.190  56.272  1.00  0.00     0.000 A 
HETATM    9  C   UNL     1       3.102 -10.286  56.611  1.00  0.00     0.001 A 
HETATM   10  C   UNL     1       2.237 -10.840  55.666  1.00  0.00     0.007 A 
ENDBRANCH   4   5
ENDBRANCH   3   4
BRANCH   3  11
HETATM   11  C   UNL     1      -1.108 -11.685  53.741  1.00  0.00     0.288 C 
HETATM   12  O   UNL     1      -1.874 -12.403  53.111  1.00  0.00    -0.262 OA
BRANCH  11  13
HETATM   13  O   UNL     1      -1.439 -10.514  54.361  1.00  0.00    -0.320 OA
BRANCH  13  14
HETATM   14  C   UNL     1      -2.089 -10.650  55.630  1.00  0.00     0.174 C 
HETATM   15  C   UNL     1      -1.229 -10.002  56.695  1.00  0.00     0.034 C 
ENDBRANCH  13  14
ENDBRANCH  11  13
ENDBRANCH   3  11
ENDBRANCH   1   3
TORSDOF 6
ENDMDL
MODEL 9
REMARK VINA RESULT:      -5.7      1.236      2.160
REMARK  6 active torsions:
REMARK  status: ('A' for Active; 'I' for Inactive)
REMARK    1  A    between atoms: O_1  and  C_5 
REMARK    2  A    between atoms: O_2  and  C_7 
REMARK    3  A    between atoms: O_2  and  C_13 
REMARK    4  A    between atoms: C_4  and  C_5 
REMARK    5  A    between atoms: C_4  and  C_6 
REMARK    6  A    between atoms: C_5  and  C_7 
ROOT
HETATM    1  O   UNL     1       4.751  -5.955  56.654  1.00  0.00    -0.385 OA
HETATM    2  H   UNL     1       5.664  -6.176  56.897  1.00  0.00     0.210 HD
ENDROOT
BRANCH   1   3
HETATM    3  C   UNL     1       4.635  -5.912  55.238  1.00  0.00     0.221 C 
BRANCH   3   4
HETATM    4  C   UNL     1       4.904  -7.311  54.679  1.00  0.00     0.080 C 
BRANCH   4   5
HETATM    5  C   UNL     1       4.594  -8.393  55.685  1.00  0.00    -0.055 A 
HETATM    6  C   UNL     1       3.362  -9.027  55.642  1.00  0.00     0.007 A 
HETATM    7  C   UNL     1       3.075 -10.027  56.571  1.00  0.00     0.001 A 
HETATM    8  C   UNL     1       4.024 -10.379  57.531  1.00  0.00     0.000 A 
HETATM    9  C   UNL     1       5.259  -9.733  57.562  1.00  0.00     0.001 A 
HETATM   10  C   UNL     1       5.546  -8.733  56.633  1.00  0.00     0.007 A 
ENDBRANCH   4   5
ENDBRANCH   3   4
BRANCH   3  11
HETATM   11  C   UNL     1       3.227  -5.460  54.904  1.00  0.00     0.288 C 
HETATM   12  O   UNL     1       2.649  -5.703  53.853  1.00  0.00    -0.262 OA
BRANCH  11  13
HETATM   13  O   UNL     1       2.706  -4.769  55.960  1.00  0.00    -0.320 OA
BRANCH  13  14
HETATM   14  C   UNL     1       1.940  -3.608  55.621  1.00  0.00     0.174 C 
HETATM   15  C   UNL     1       1.003  -3.284  56.765  1.00  0.00     0.034 C 
ENDBRANCH  13  14
ENDBRANCH  11  13
ENDBRANCH   3  11
ENDBRANCH   1   3
TORSDOF 6
ENDMDL
