MODEL 1
REMARK VINA RESULT:      -6.7      0.000      0.000
REMARK  6 active torsions:
REMARK  status: ('A' for Active; 'I' for Inactive)
REMARK    1  A    between atoms: O_1  and  C_11 
REMARK    2  A    between atoms: O_3  and  C_14 
REMARK    3  A    between atoms: N_5  and  CA_7 
REMARK    4  A    between atoms: C_6  and  CA_7 
REMARK    5  A    between atoms: C_6  and  C_8 
REMARK    6  A    between atoms: CA_7  and  C_12 
ROOT
HETATM    1  O   UNL     1      30.280  74.497  24.278  1.00  0.00    -0.358 OA
HETATM    2  H   UNL     1      29.360  74.432  24.442  1.00  0.00     0.217 HD
ENDROOT
BRANCH   1   3
HETATM    3  C   UNL     1      30.728  74.883  23.051  1.00  0.00     0.099 A 
HETATM    4  C   UNL     1      30.784  76.241  22.736  1.00  0.00     0.046 A 
HETATM    5  C   UNL     1      31.239  76.628  21.488  1.00  0.00    -0.053 A 
HETATM    6  C   UNL     1      31.638  75.698  20.543  1.00  0.00     0.010 A 
HETATM    7  C   UNL     1      31.582  74.341  20.857  1.00  0.00     0.040 A 
HETATM    8  C   UNL     1      31.126  73.933  22.111  1.00  0.00     0.098 A 
BRANCH   5   9
HETATM    9  C   UNL     1      31.301  78.101  21.148  1.00  0.00     0.082 C 
BRANCH   9  10
HETATM   10  CA  UNL     1      30.921  79.003  22.333  1.00  0.00     0.287 C 
BRANCH  10  11
HETATM   11  N   UNL     1      29.692  79.731  22.023  1.00  0.00    -0.065 N 
HETATM   12  H   UNL     1      29.026  79.617  22.787  1.00  0.00     0.275 HD
HETATM   13  H   UNL     1      29.286  79.364  21.161  1.00  0.00     0.275 HD
HETATM   14  H   UNL     1      29.904  80.721  21.902  1.00  0.00     0.275 HD
ENDBRANCH  10  11
BRANCH  10  15
HETATM   15  C   UNL     1      31.984  80.048  22.621  1.00  0.00     0.204 C 
HETATM   16  O   UNL     1      33.065  79.524  23.254  1.00  0.00    -0.646 OA
HETATM   17  OXT UNL     1      31.887  81.238  22.350  1.00  0.00    -0.646 OA
ENDBRANCH  10  15
ENDBRANCH   9  10
ENDBRANCH   5   9
BRANCH   8  18
HETATM   18  O   UNL     1      31.074  72.604  22.405  1.00  0.00    -0.358 OA
HETATM   19  H   UNL     1      30.323  72.098  22.161  1.00  0.00     0.217 HD
ENDBRANCH   8  18
ENDBRANCH   1   3
TORSDOF 6
ENDMDL
MODEL 2
REMARK VINA RESULT:      -6.3      3.916      4.669
REMARK  6 active torsions:
REMARK  status: ('A' for Active; 'I' for Inactive)
REMARK    1  A    between atoms: O_1  and  C_11 
REMARK    2  A    between atoms: O_3  and  C_14 
REMARK    3  A    between atoms: N_5  and  CA_7 
REMARK    4  A    between atoms: C_6  and  CA_7 
REMARK    5  A    between atoms: C_6  and  C_8 
REMARK    6  A    between atoms: CA_7  and  C_12 
ROOT
HETATM    1  O   UNL     1      30.442  78.485  22.945  1.00  0.00    -0.358 OA
HETATM    2  H   UNL     1      29.734  79.031  22.667  1.00  0.00     0.217 HD
ENDROOT
BRANCH   1   3
HETATM    3  C   UNL     1      31.069  77.675  22.047  1.00  0.00     0.099 A 
HETATM    4  C   UNL     1      31.157  78.067  20.712  1.00  0.00     0.046 A 
HETATM    5  C   UNL     1      31.795  77.240  19.803  1.00  0.00    -0.053 A 
HETATM    6  C   UNL     1      32.347  76.031  20.190  1.00  0.00     0.010 A 
HETATM    7  C   UNL     1      32.260  75.638  21.526  1.00  0.00     0.040 A 
HETATM    8  C   UNL     1      31.621  76.460  22.454  1.00  0.00     0.098 A 
BRANCH   5   9
HETATM    9  C   UNL     1      31.891  77.667  18.356  1.00  0.00     0.082 C 
BRANCH   9  10
HETATM   10  CA  UNL     1      30.838  76.989  17.464  1.00  0.00     0.287 C 
BRANCH  10  11
HETATM   11  N   UNL     1      31.487  76.012  16.590  1.00  0.00    -0.065 N 
HETATM   12  H   UNL     1      31.671  75.156  17.115  1.00  0.00     0.275 HD
HETATM   13  H   UNL     1      32.368  76.396  16.246  1.00  0.00     0.275 HD
HETATM   14  H   UNL     1      30.876  75.803  15.801  1.00  0.00     0.275 HD
ENDBRANCH  10  11
BRANCH  10  15
HETATM   15  C   UNL     1      30.132  77.982  16.556  1.00  0.00     0.204 C 
HETATM   16  O   UNL     1      29.376  77.369  15.610  1.00  0.00    -0.646 OA
HETATM   17  OXT UNL     1      30.242  79.199  16.632  1.00  0.00    -0.646 OA
ENDBRANCH  10  15
ENDBRANCH   9  10
ENDBRANCH   5   9
BRANCH   8  18
HETATM   18  O   UNL     1      31.541  76.064  23.756  1.00  0.00    -0.358 OA
HETATM   19  H   UNL     1      30.728  75.749  24.101  1.00  0.00     0.217 HD
ENDBRANCH   8  18
ENDBRANCH   1   3
TORSDOF 6
ENDMDL
MODEL 3
REMARK VINA RESULT:      -6.2      2.884      5.738
REMARK  6 active torsions:
REMARK  status: ('A' for Active; 'I' for Inactive)
REMARK    1  A    between atoms: O_1  and  C_11 
REMARK    2  A    between atoms: O_3  and  C_14 
REMARK    3  A    between atoms: N_5  and  CA_7 
REMARK    4  A    between atoms: C_6  and  CA_7 
REMARK    5  A    between atoms: C_6  and  C_8 
REMARK    6  A    between atoms: CA_7  and  C_12 
ROOT
HETATM    1  O   UNL     1      31.973  79.008  22.710  1.00  0.00    -0.358 OA
HETATM    2  H   UNL     1      31.447  79.083  23.481  1.00  0.00     0.217 HD
ENDROOT
BRANCH   1   3
HETATM    3  C   UNL     1      31.993  77.840  22.010  1.00  0.00     0.099 A 
HETATM    4  C   UNL     1      32.681  76.742  22.527  1.00  0.00     0.046 A 
HETATM    5  C   UNL     1      32.699  75.556  21.812  1.00  0.00    -0.053 A 
HETATM    6  C   UNL     1      32.051  75.437  20.595  1.00  0.00     0.010 A 
HETATM    7  C   UNL     1      31.363  76.534  20.078  1.00  0.00     0.040 A 
HETATM    8  C   UNL     1      31.334  77.736  20.785  1.00  0.00     0.098 A 
BRANCH   5   9
HETATM    9  C   UNL     1      33.444  74.366  22.373  1.00  0.00     0.082 C 
BRANCH   9  10
HETATM   10  CA  UNL     1      32.691  73.042  22.169  1.00  0.00     0.287 C 
BRANCH  10  11
HETATM   11  N   UNL     1      31.655  72.901  23.191  1.00  0.00    -0.065 N 
HETATM   12  H   UNL     1      31.121  73.768  23.256  1.00  0.00     0.275 HD
HETATM   13  H   UNL     1      32.091  72.703  24.093  1.00  0.00     0.275 HD
HETATM   14  H   UNL     1      31.032  72.135  22.940  1.00  0.00     0.275 HD
ENDBRANCH  10  11
BRANCH  10  15
HETATM   15  C   UNL     1      33.606  71.837  22.309  1.00  0.00     0.204 C 
HETATM   16  O   UNL     1      33.959  71.603  23.599  1.00  0.00    -0.646 OA
HETATM   17  OXT UNL     1      34.014  71.157  21.376  1.00  0.00    -0.646 OA
ENDBRANCH  10  15
ENDBRANCH   9  10
ENDBRANCH   5   9
BRANCH   8  18
HETATM   18  O   UNL     1      30.660  78.801  20.269  1.00  0.00    -0.358 OA
HETATM   19  H   UNL     1      31.125  79.471  19.806  1.00  0.00     0.217 HD
ENDBRANCH   8  18
ENDBRANCH   1   3
TORSDOF 6
ENDMDL
MODEL 4
REMARK VINA RESULT:      -6.1      3.476      4.211
REMARK  6 active torsions:
REMARK  status: ('A' for Active; 'I' for Inactive)
REMARK    1  A    between atoms: O_1  and  C_11 
REMARK    2  A    between atoms: O_3  and  C_14 
REMARK    3  A    between atoms: N_5  and  CA_7 
REMARK    4  A    between atoms: C_6  and  CA_7 
REMARK    5  A    between atoms: C_6  and  C_8 
REMARK    6  A    between atoms: CA_7  and  C_12 
ROOT
HETATM    1  O   UNL     1      30.814  78.428  22.484  1.00  0.00    -0.358 OA
HETATM    2  H   UNL     1      30.559  78.333  23.380  1.00  0.00     0.217 HD
ENDROOT
BRANCH   1   3
HETATM    3  C   UNL     1      31.191  77.336  21.764  1.00  0.00     0.099 A 
HETATM    4  C   UNL     1      31.133  77.378  20.371  1.00  0.00     0.046 A 
HETATM    5  C   UNL     1      31.517  76.264  19.643  1.00  0.00    -0.053 A 
HETATM    6  C   UNL     1      31.955  75.109  20.267  1.00  0.00     0.010 A 
HETATM    7  C   UNL     1      32.013  75.066  21.660  1.00  0.00     0.040 A 
HETATM    8  C   UNL     1      31.630  76.179  22.408  1.00  0.00     0.098 A 
BRANCH   5   9
HETATM    9  C   UNL     1      31.456  76.311  18.133  1.00  0.00     0.082 C 
BRANCH   9  10
HETATM   10  CA  UNL     1      31.079  77.700  17.594  1.00  0.00     0.287 C 
BRANCH  10  11
HETATM   11  N   UNL     1      30.027  77.569  16.587  1.00  0.00    -0.065 N 
HETATM   12  H   UNL     1      30.281  78.107  15.758  1.00  0.00     0.275 HD
HETATM   13  H   UNL     1      29.148  77.923  16.966  1.00  0.00     0.275 HD
HETATM   14  H   UNL     1      29.917  76.587  16.336  1.00  0.00     0.275 HD
ENDBRANCH  10  11
BRANCH  10  15
HETATM   15  C   UNL     1      32.249  78.387  16.913  1.00  0.00     0.204 C 
HETATM   16  O   UNL     1      33.047  79.044  17.794  1.00  0.00    -0.646 OA
HETATM   17  OXT UNL     1      32.454  78.387  15.705  1.00  0.00    -0.646 OA
ENDBRANCH  10  15
ENDBRANCH   9  10
ENDBRANCH   5   9
BRANCH   8  18
HETATM   18  O   UNL     1      31.689  76.125  23.769  1.00  0.00    -0.358 OA
HETATM   19  H   UNL     1      31.118  75.550  24.240  1.00  0.00     0.217 HD
ENDBRANCH   8  18
ENDBRANCH   1   3
TORSDOF 6
ENDMDL
MODEL 5
REMARK VINA RESULT:      -6.1      1.847      2.368
REMARK  6 active torsions:
REMARK  status: ('A' for Active; 'I' for Inactive)
REMARK    1  A    between atoms: O_1  and  C_11 
REMARK    2  A    between atoms: O_3  and  C_14 
REMARK    3  A    between atoms: N_5  and  CA_7 
REMARK    4  A    between atoms: C_6  and  CA_7 
REMARK    5  A    between atoms: C_6  and  C_8 
REMARK    6  A    between atoms: CA_7  and  C_12 
ROOT
HETATM    1  O   UNL     1      32.274  73.958  19.308  1.00  0.00    -0.358 OA
HETATM    2  H   UNL     1      31.587  73.977  18.671  1.00  0.00     0.217 HD
ENDROOT
BRANCH   1   3
HETATM    3  C   UNL     1      32.309  74.893  20.299  1.00  0.00     0.099 A 
HETATM    4  C   UNL     1      31.662  76.114  20.114  1.00  0.00     0.046 A 
HETATM    5  C   UNL     1      31.702  77.061  21.124  1.00  0.00    -0.053 A 
HETATM    6  C   UNL     1      32.371  76.823  22.312  1.00  0.00     0.010 A 
HETATM    7  C   UNL     1      33.018  75.601  22.498  1.00  0.00     0.040 A 
HETATM    8  C   UNL     1      32.987  74.636  21.491  1.00  0.00     0.098 A 
BRANCH   5   9
HETATM    9  C   UNL     1      30.999  78.385  20.924  1.00  0.00     0.082 C 
BRANCH   9  10
HETATM   10  CA  UNL     1      30.713  79.114  22.246  1.00  0.00     0.287 C 
BRANCH  10  11
HETATM   11  N   UNL     1      29.353  79.651  22.229  1.00  0.00    -0.065 N 
HETATM   12  H   UNL     1      28.764  79.066  21.636  1.00  0.00     0.275 HD
HETATM   13  H   UNL     1      29.367  80.602  21.862  1.00  0.00     0.275 HD
HETATM   14  H   UNL     1      28.979  79.659  23.178  1.00  0.00     0.275 HD
ENDBRANCH  10  11
BRANCH  10  15
HETATM   15  C   UNL     1      31.643  80.295  22.461  1.00  0.00     0.204 C 
HETATM   16  O   UNL     1      32.277  80.668  21.320  1.00  0.00    -0.646 OA
HETATM   17  OXT UNL     1      31.839  80.845  23.538  1.00  0.00    -0.646 OA
ENDBRANCH  10  15
ENDBRANCH   9  10
ENDBRANCH   5   9
BRANCH   8  18
HETATM   18  O   UNL     1      33.625  73.447  21.682  1.00  0.00    -0.358 OA
HETATM   19  H   UNL     1      33.288  72.666  21.290  1.00  0.00     0.217 HD
ENDBRANCH   8  18
ENDBRANCH   1   3
TORSDOF 6
ENDMDL
MODEL 6
REMARK VINA RESULT:      -6.1      3.682      6.630
REMARK  6 active torsions:
REMARK  status: ('A' for Active; 'I' for Inactive)
REMARK    1  A    between atoms: O_1  and  C_11 
REMARK    2  A    between atoms: O_3  and  C_14 
REMARK    3  A    between atoms: N_5  and  CA_7 
REMARK    4  A    between atoms: C_6  and  CA_7 
REMARK    5  A    between atoms: C_6  and  C_8 
REMARK    6  A    between atoms: CA_7  and  C_12 
ROOT
HETATM    1  O   UNL     1      33.037  77.285  22.795  1.00  0.00    -0.358 OA
HETATM    2  H   UNL     1      32.590  78.022  23.161  1.00  0.00     0.217 HD
ENDROOT
BRANCH   1   3
HETATM    3  C   UNL     1      32.415  76.075  22.729  1.00  0.00     0.099 A 
HETATM    4  C   UNL     1      33.157  74.938  22.414  1.00  0.00     0.046 A 
HETATM    5  C   UNL     1      32.520  73.710  22.348  1.00  0.00    -0.053 A 
HETATM    6  C   UNL     1      31.163  73.587  22.586  1.00  0.00     0.010 A 
HETATM    7  C   UNL     1      30.419  74.724  22.902  1.00  0.00     0.040 A 
HETATM    8  C   UNL     1      31.046  75.969  22.973  1.00  0.00     0.098 A 
BRANCH   5   9
HETATM    9  C   UNL     1      33.326  72.477  22.007  1.00  0.00     0.082 C 
BRANCH   9  10
HETATM   10  CA  UNL     1      33.047  71.301  22.957  1.00  0.00     0.287 C 
BRANCH  10  11
HETATM   11  N   UNL     1      33.549  71.617  24.294  1.00  0.00    -0.065 N 
HETATM   12  H   UNL     1      34.557  71.464  24.323  1.00  0.00     0.275 HD
HETATM   13  H   UNL     1      33.093  71.014  24.979  1.00  0.00     0.275 HD
HETATM   14  H   UNL     1      33.346  72.592  24.511  1.00  0.00     0.275 HD
ENDBRANCH  10  11
BRANCH  10  15
HETATM   15  C   UNL     1      33.753  70.030  22.517  1.00  0.00     0.204 C 
HETATM   16  O   UNL     1      34.230  69.314  23.567  1.00  0.00    -0.646 OA
HETATM   17  OXT UNL     1      33.911  69.685  21.353  1.00  0.00    -0.646 OA
ENDBRANCH  10  15
ENDBRANCH   9  10
ENDBRANCH   5   9
BRANCH   8  18
HETATM   18  O   UNL     1      30.309  77.073  23.280  1.00  0.00    -0.358 OA
HETATM   19  H   UNL     1      29.622  77.016  23.916  1.00  0.00     0.217 HD
ENDBRANCH   8  18
ENDBRANCH   1   3
TORSDOF 6
ENDMDL
MODEL 7
REMARK VINA RESULT:      -6.0      3.732      4.507
REMARK  6 active torsions:
REMARK  status: ('A' for Active; 'I' for Inactive)
REMARK    1  A    between atoms: O_1  and  C_11 
REMARK    2  A    between atoms: O_3  and  C_14 
REMARK    3  A    between atoms: N_5  and  CA_7 
REMARK    4  A    between atoms: C_6  and  CA_7 
REMARK    5  A    between atoms: C_6  and  C_8 
REMARK    6  A    between atoms: CA_7  and  C_12 
ROOT
HETATM    1  O   UNL     1      32.988  74.322  22.409  1.00  0.00    -0.358 OA
HETATM    2  H   UNL     1      33.582  74.393  23.130  1.00  0.00     0.217 HD
ENDROOT
BRANCH   1   3
HETATM    3  C   UNL     1      32.401  75.439  21.897  1.00  0.00     0.099 A 
HETATM    4  C   UNL     1      32.551  75.734  20.542  1.00  0.00     0.046 A 
HETATM    5  C   UNL     1      31.953  76.872  20.027  1.00  0.00    -0.053 A 
HETATM    6  C   UNL     1      31.212  77.724  20.826  1.00  0.00     0.010 A 
HETATM    7  C   UNL     1      31.061  77.430  22.181  1.00  0.00     0.040 A 
HETATM    8  C   UNL     1      31.657  76.288  22.717  1.00  0.00     0.098 A 
BRANCH   5   9
HETATM    9  C   UNL     1      32.115  77.190  18.557  1.00  0.00     0.082 C 
BRANCH   9  10
HETATM   10  CA  UNL     1      30.818  76.988  17.757  1.00  0.00     0.287 C 
BRANCH  10  11
HETATM   11  N   UNL     1      30.851  75.691  17.084  1.00  0.00    -0.065 N 
HETATM   12  H   UNL     1      31.753  75.244  17.249  1.00  0.00     0.275 HD
HETATM   13  H   UNL     1      30.716  75.824  16.081  1.00  0.00     0.275 HD
HETATM   14  H   UNL     1      30.106  75.098  17.450  1.00  0.00     0.275 HD
ENDBRANCH  10  11
BRANCH  10  15
HETATM   15  C   UNL     1      30.645  78.037  16.672  1.00  0.00     0.204 C 
HETATM   16  O   UNL     1      31.293  77.705  15.526  1.00  0.00    -0.646 OA
HETATM   17  OXT UNL     1      30.023  79.083  16.803  1.00  0.00    -0.646 OA
ENDBRANCH  10  15
ENDBRANCH   9  10
ENDBRANCH   5   9
BRANCH   8  18
HETATM   18  O   UNL     1      31.505  76.012  24.043  1.00  0.00    -0.358 OA
HETATM   19  H   UNL     1      30.646  75.958  24.415  1.00  0.00     0.217 HD
ENDBRANCH   8  18
ENDBRANCH   1   3
TORSDOF 6
ENDMDL
MODEL 8
REMARK VINA RESULT:      -5.9      2.978      5.880
REMARK  6 active torsions:
REMARK  status: ('A' for Active; 'I' for Inactive)
REMARK    1  A    between atoms: O_1  and  C_11 
REMARK    2  A    between atoms: O_3  and  C_14 
REMARK    3  A    between atoms: N_5  and  CA_7 
REMARK    4  A    between atoms: C_6  and  CA_7 
REMARK    5  A    between atoms: C_6  and  C_8 
REMARK    6  A    between atoms: CA_7  and  C_12 
ROOT
HETATM    1  O   UNL     1      30.709  78.253  18.897  1.00  0.00    -0.358 OA
HETATM    2  H   UNL     1      30.594  77.802  18.084  1.00  0.00     0.217 HD
ENDROOT
BRANCH   1   3
HETATM    3  C   UNL     1      31.305  77.622  19.947  1.00  0.00     0.099 A 
HETATM    4  C   UNL     1      31.496  76.241  19.900  1.00  0.00     0.046 A 
HETATM    5  C   UNL     1      32.101  75.604  20.970  1.00  0.00    -0.053 A 
HETATM    6  C   UNL     1      32.520  76.307  22.086  1.00  0.00     0.010 A 
HETATM    7  C   UNL     1      32.329  77.688  22.134  1.00  0.00     0.040 A 
HETATM    8  C   UNL     1      31.721  78.345  21.064  1.00  0.00     0.098 A 
BRANCH   5   9
HETATM    9  C   UNL     1      32.309  74.107  20.918  1.00  0.00     0.082 C 
BRANCH   9  10
HETATM   10  CA  UNL     1      33.426  73.627  21.858  1.00  0.00     0.287 C 
BRANCH  10  11
HETATM   11  N   UNL     1      34.565  73.157  21.071  1.00  0.00    -0.065 N 
HETATM   12  H   UNL     1      35.407  73.172  21.648  1.00  0.00     0.275 HD
HETATM   13  H   UNL     1      34.696  73.767  20.263  1.00  0.00     0.275 HD
HETATM   14  H   UNL     1      34.388  72.205  20.753  1.00  0.00     0.275 HD
ENDBRANCH  10  11
BRANCH  10  15
HETATM   15  C   UNL     1      32.984  72.460  22.723  1.00  0.00     0.204 C 
HETATM   16  O   UNL     1      34.013  71.915  23.422  1.00  0.00    -0.646 OA
HETATM   17  OXT UNL     1      31.841  72.023  22.777  1.00  0.00    -0.646 OA
ENDBRANCH  10  15
ENDBRANCH   9  10
ENDBRANCH   5   9
BRANCH   8  18
HETATM   18  O   UNL     1      31.539  79.694  21.123  1.00  0.00    -0.358 OA
HETATM   19  H   UNL     1      31.220  80.157  20.373  1.00  0.00     0.217 HD
ENDBRANCH   8  18
ENDBRANCH   1   3
TORSDOF 6
ENDMDL
MODEL 9
REMARK VINA RESULT:      -5.9      2.010      5.560
REMARK  6 active torsions:
REMARK  status: ('A' for Active; 'I' for Inactive)
REMARK    1  A    between atoms: O_1  and  C_11 
REMARK    2  A    between atoms: O_3  and  C_14 
REMARK    3  A    between atoms: N_5  and  CA_7 
REMARK    4  A    between atoms: C_6  and  CA_7 
REMARK    5  A    between atoms: C_6  and  C_8 
REMARK    6  A    between atoms: CA_7  and  C_12 
ROOT
HETATM    1  O   UNL     1      29.251  79.523  21.985  1.00  0.00    -0.358 OA
HETATM    2  H   UNL     1      29.114  80.447  22.053  1.00  0.00     0.217 HD
ENDROOT
BRANCH   1   3
HETATM    3  C   UNL     1      30.487  79.000  22.218  1.00  0.00     0.099 A 
HETATM    4  C   UNL     1      30.643  77.616  22.301  1.00  0.00     0.046 A 
HETATM    5  C   UNL     1      31.901  77.089  22.538  1.00  0.00    -0.053 A 
HETATM    6  C   UNL     1      33.008  77.905  22.695  1.00  0.00     0.010 A 
HETATM    7  C   UNL     1      32.854  79.288  22.611  1.00  0.00     0.040 A 
HETATM    8  C   UNL     1      31.593  79.836  22.373  1.00  0.00     0.098 A 
BRANCH   5   9
HETATM    9  C   UNL     1      32.069  75.589  22.627  1.00  0.00     0.082 C 
BRANCH   9  10
HETATM   10  CA  UNL     1      30.727  74.841  22.673  1.00  0.00     0.287 C 
BRANCH  10  11
HETATM   11  N   UNL     1      30.221  74.819  24.045  1.00  0.00    -0.065 N 
HETATM   12  H   UNL     1      29.887  73.882  24.270  1.00  0.00     0.275 HD
HETATM   13  H   UNL     1      29.453  75.485  24.135  1.00  0.00     0.275 HD
HETATM   14  H   UNL     1      30.970  75.077  24.688  1.00  0.00     0.275 HD
ENDBRANCH  10  11
BRANCH  10  15
HETATM   15  C   UNL     1      30.865  73.392  22.239  1.00  0.00     0.204 C 
HETATM   16  O   UNL     1      30.557  73.214  20.928  1.00  0.00    -0.646 OA
HETATM   17  OXT UNL     1      31.186  72.468  22.975  1.00  0.00    -0.646 OA
ENDBRANCH  10  15
ENDBRANCH   9  10
ENDBRANCH   5   9
BRANCH   8  18
HETATM   18  O   UNL     1      31.454  81.189  22.295  1.00  0.00    -0.358 OA
HETATM   19  H   UNL     1      31.396  81.607  21.458  1.00  0.00     0.217 HD
ENDBRANCH   8  18
ENDBRANCH   1   3
TORSDOF 6
ENDMDL
