MODEL 1
REMARK VINA RESULT:      -6.7      0.000      0.000
REMARK  6 active torsions:
REMARK  status: ('A' for Active; 'I' for Inactive)
REMARK    1  A    between atoms: O_1  and  C_11 
REMARK    2  A    between atoms: O_3  and  C_14 
REMARK    3  A    between atoms: N_5  and  CA_7 
REMARK    4  A    between atoms: C_6  and  CA_7 
REMARK    5  A    between atoms: C_6  and  C_8 
REMARK    6  A    between atoms: CA_7  and  C_12 
ROOT
HETATM    1  O   UNL     1      30.317  74.464  24.132  1.00  0.00    -0.358 OA
HETATM    2  H   UNL     1      29.394  74.353  24.244  1.00  0.00     0.217 HD
ENDROOT
BRANCH   1   3
HETATM    3  C   UNL     1      30.812  74.887  22.936  1.00  0.00     0.099 A 
HETATM    4  C   UNL     1      30.820  76.250  22.639  1.00  0.00     0.046 A 
HETATM    5  C   UNL     1      31.324  76.675  21.421  1.00  0.00    -0.053 A 
HETATM    6  C   UNL     1      31.819  75.777  20.491  1.00  0.00     0.010 A 
HETATM    7  C   UNL     1      31.811  74.414  20.787  1.00  0.00     0.040 A 
HETATM    8  C   UNL     1      31.307  73.969  22.010  1.00  0.00     0.098 A 
BRANCH   5   9
HETATM    9  C   UNL     1      31.333  78.152  21.101  1.00  0.00     0.082 C 
BRANCH   9  10
HETATM   10  CA  UNL     1      30.925  79.025  22.299  1.00  0.00     0.287 C 
BRANCH  10  11
HETATM   11  N   UNL     1      29.695  79.750  21.984  1.00  0.00    -0.065 N 
HETATM   12  H   UNL     1      29.047  79.679  22.769  1.00  0.00     0.275 HD
HETATM   13  H   UNL     1      29.265  79.346  21.151  1.00  0.00     0.275 HD
HETATM   14  H   UNL     1      29.914  80.731  21.810  1.00  0.00     0.275 HD
ENDBRANCH  10  11
BRANCH  10  15
HETATM   15  C   UNL     1      31.975  80.072  22.628  1.00  0.00     0.204 C 
HETATM   16  O   UNL     1      33.043  79.545  23.279  1.00  0.00    -0.646 OA
HETATM   17  OXT UNL     1      31.876  81.266  22.373  1.00  0.00    -0.646 OA
ENDBRANCH  10  15
ENDBRANCH   9  10
ENDBRANCH   5   9
BRANCH   8  18
HETATM   18  O   UNL     1      31.303  72.635  22.287  1.00  0.00    -0.358 OA
HETATM   19  H   UNL     1      30.625  72.269  22.819  1.00  0.00     0.217 HD
ENDBRANCH   8  18
ENDBRANCH   1   3
TORSDOF 6
ENDMDL
MODEL 2
REMARK VINA RESULT:      -6.3      3.894      4.656
REMARK  6 active torsions:
REMARK  status: ('A' for Active; 'I' for Inactive)
REMARK    1  A    between atoms: O_1  and  C_11 
REMARK    2  A    between atoms: O_3  and  C_14 
REMARK    3  A    between atoms: N_5  and  CA_7 
REMARK    4  A    between atoms: C_6  and  CA_7 
REMARK    5  A    between atoms: C_6  and  C_8 
REMARK    6  A    between atoms: CA_7  and  C_12 
ROOT
HETATM    1  O   UNL     1      30.547  78.556  22.924  1.00  0.00    -0.358 OA
HETATM    2  H   UNL     1      29.904  79.175  22.640  1.00  0.00     0.217 HD
ENDROOT
BRANCH   1   3
HETATM    3  C   UNL     1      31.121  77.711  22.024  1.00  0.00     0.099 A 
HETATM    4  C   UNL     1      31.197  78.084  20.682  1.00  0.00     0.046 A 
HETATM    5  C   UNL     1      31.782  77.220  19.771  1.00  0.00    -0.053 A 
HETATM    6  C   UNL     1      32.291  75.994  20.162  1.00  0.00     0.010 A 
HETATM    7  C   UNL     1      32.216  75.620  21.503  1.00  0.00     0.040 A 
HETATM    8  C   UNL     1      31.631  76.479  22.434  1.00  0.00     0.098 A 
BRANCH   5   9
HETATM    9  C   UNL     1      31.865  77.626  18.317  1.00  0.00     0.082 C 
BRANCH   9  10
HETATM   10  CA  UNL     1      30.725  77.039  17.468  1.00  0.00     0.287 C 
BRANCH  10  11
HETATM   11  N   UNL     1      31.243  75.966  16.621  1.00  0.00    -0.065 N 
HETATM   12  H   UNL     1      32.262  76.017  16.593  1.00  0.00     0.275 HD
HETATM   13  H   UNL     1      30.871  76.070  15.676  1.00  0.00     0.275 HD
HETATM   14  H   UNL     1      30.957  75.065  17.001  1.00  0.00     0.275 HD
ENDBRANCH  10  11
BRANCH  10  15
HETATM   15  C   UNL     1      30.115  78.073  16.537  1.00  0.00     0.204 C 
HETATM   16  O   UNL     1      29.375  77.505  15.550  1.00  0.00    -0.646 OA
HETATM   17  OXT UNL     1      30.282  79.282  16.629  1.00  0.00    -0.646 OA
ENDBRANCH  10  15
ENDBRANCH   9  10
ENDBRANCH   5   9
BRANCH   8  18
HETATM   18  O   UNL     1      31.561  76.102  23.742  1.00  0.00    -0.358 OA
HETATM   19  H   UNL     1      31.681  75.202  23.978  1.00  0.00     0.217 HD
ENDBRANCH   8  18
ENDBRANCH   1   3
TORSDOF 6
ENDMDL
MODEL 3
REMARK VINA RESULT:      -6.2      2.836      5.775
REMARK  6 active torsions:
REMARK  status: ('A' for Active; 'I' for Inactive)
REMARK    1  A    between atoms: O_1  and  C_11 
REMARK    2  A    between atoms: O_3  and  C_14 
REMARK    3  A    between atoms: N_5  and  CA_7 
REMARK    4  A    between atoms: C_6  and  CA_7 
REMARK    5  A    between atoms: C_6  and  C_8 
REMARK    6  A    between atoms: CA_7  and  C_12 
ROOT
HETATM    1  O   UNL     1      32.250  79.015  22.673  1.00  0.00    -0.358 OA
HETATM    2  H   UNL     1      32.008  79.814  22.248  1.00  0.00     0.217 HD
ENDROOT
BRANCH   1   3
HETATM    3  C   UNL     1      32.165  77.834  22.000  1.00  0.00     0.099 A 
HETATM    4  C   UNL     1      32.803  76.704  22.513  1.00  0.00     0.046 A 
HETATM    5  C   UNL     1      32.714  75.506  21.825  1.00  0.00    -0.053 A 
HETATM    6  C   UNL     1      32.008  75.404  20.639  1.00  0.00     0.010 A 
HETATM    7  C   UNL     1      31.370  76.533  20.126  1.00  0.00     0.040 A 
HETATM    8  C   UNL     1      31.449  77.749  20.806  1.00  0.00     0.098 A 
BRANCH   5   9
HETATM    9  C   UNL     1      33.404  74.281  22.382  1.00  0.00     0.082 C 
BRANCH   9  10
HETATM   10  CA  UNL     1      32.583  72.996  22.193  1.00  0.00     0.287 C 
BRANCH  10  11
HETATM   11  N   UNL     1      31.549  72.916  23.225  1.00  0.00    -0.065 N 
HETATM   12  H   UNL     1      30.640  72.773  22.785  1.00  0.00     0.275 HD
HETATM   13  H   UNL     1      31.536  73.784  23.761  1.00  0.00     0.275 HD
HETATM   14  H   UNL     1      31.752  72.135  23.848  1.00  0.00     0.275 HD
ENDBRANCH  10  11
BRANCH  10  15
HETATM   15  C   UNL     1      33.435  71.747  22.333  1.00  0.00     0.204 C 
HETATM   16  O   UNL     1      33.981  71.630  23.571  1.00  0.00    -0.646 OA
HETATM   17  OXT UNL     1      33.643  70.938  21.437  1.00  0.00    -0.646 OA
ENDBRANCH  10  15
ENDBRANCH   9  10
ENDBRANCH   5   9
BRANCH   8  18
HETATM   18  O   UNL     1      30.823  78.845  20.294  1.00  0.00    -0.358 OA
HETATM   19  H   UNL     1      30.995  79.114  19.412  1.00  0.00     0.217 HD
ENDBRANCH   8  18
ENDBRANCH   1   3
TORSDOF 6
ENDMDL
MODEL 4
REMARK VINA RESULT:      -6.2      1.603      2.157
REMARK  6 active torsions:
REMARK  status: ('A' for Active; 'I' for Inactive)
REMARK    1  A    between atoms: O_1  and  C_11 
REMARK    2  A    between atoms: O_3  and  C_14 
REMARK    3  A    between atoms: N_5  and  CA_7 
REMARK    4  A    between atoms: C_6  and  CA_7 
REMARK    5  A    between atoms: C_6  and  C_8 
REMARK    6  A    between atoms: CA_7  and  C_12 
ROOT
HETATM    1  O   UNL     1      32.287  73.901  19.150  1.00  0.00    -0.358 OA
HETATM    2  H   UNL     1      32.268  74.217  18.268  1.00  0.00     0.217 HD
ENDROOT
BRANCH   1   3
HETATM    3  C   UNL     1      32.343  74.782  20.187  1.00  0.00     0.099 A 
HETATM    4  C   UNL     1      31.826  76.068  20.025  1.00  0.00     0.046 A 
HETATM    5  C   UNL     1      31.886  76.959  21.083  1.00  0.00    -0.053 A 
HETATM    6  C   UNL     1      32.448  76.605  22.297  1.00  0.00     0.010 A 
HETATM    7  C   UNL     1      32.964  75.319  22.460  1.00  0.00     0.040 A 
HETATM    8  C   UNL     1      32.912  74.408  21.405  1.00  0.00     0.098 A 
BRANCH   5   9
HETATM    9  C   UNL     1      31.325  78.352  20.907  1.00  0.00     0.082 C 
BRANCH   9  10
HETATM   10  CA  UNL     1      30.981  79.030  22.243  1.00  0.00     0.287 C 
BRANCH  10  11
HETATM   11  N   UNL     1      29.668  79.667  22.150  1.00  0.00    -0.065 N 
HETATM   12  H   UNL     1      29.141  79.488  23.005  1.00  0.00     0.275 HD
HETATM   13  H   UNL     1      29.160  79.285  21.352  1.00  0.00     0.275 HD
HETATM   14  H   UNL     1      29.786  80.672  22.027  1.00  0.00     0.275 HD
ENDBRANCH  10  11
BRANCH  10  15
HETATM   15  C   UNL     1      31.971  80.125  22.601  1.00  0.00     0.204 C 
HETATM   16  O   UNL     1      33.008  79.661  23.344  1.00  0.00    -0.646 OA
HETATM   17  OXT UNL     1      31.852  81.304  22.291  1.00  0.00    -0.646 OA
ENDBRANCH  10  15
ENDBRANCH   9  10
ENDBRANCH   5   9
BRANCH   8  18
HETATM   18  O   UNL     1      33.422  73.156  21.575  1.00  0.00    -0.358 OA
HETATM   19  H   UNL     1      34.115  72.852  21.021  1.00  0.00     0.217 HD
ENDBRANCH   8  18
ENDBRANCH   1   3
TORSDOF 6
ENDMDL
MODEL 5
REMARK VINA RESULT:      -6.2      3.646      4.145
REMARK  6 active torsions:
REMARK  status: ('A' for Active; 'I' for Inactive)
REMARK    1  A    between atoms: O_1  and  C_11 
REMARK    2  A    between atoms: O_3  and  C_14 
REMARK    3  A    between atoms: N_5  and  CA_7 
REMARK    4  A    between atoms: C_6  and  CA_7 
REMARK    5  A    between atoms: C_6  and  C_8 
REMARK    6  A    between atoms: CA_7  and  C_12 
ROOT
HETATM    1  O   UNL     1      31.885  76.253  23.791  1.00  0.00    -0.358 OA
HETATM    2  H   UNL     1      32.525  75.930  24.393  1.00  0.00     0.217 HD
ENDROOT
BRANCH   1   3
HETATM    3  C   UNL     1      32.051  76.060  22.453  1.00  0.00     0.099 A 
HETATM    4  C   UNL     1      31.416  76.914  21.551  1.00  0.00     0.046 A 
HETATM    5  C   UNL     1      31.588  76.714  20.192  1.00  0.00    -0.053 A 
HETATM    6  C   UNL     1      32.374  75.683  19.707  1.00  0.00     0.010 A 
HETATM    7  C   UNL     1      33.009  74.828  20.608  1.00  0.00     0.040 A 
HETATM    8  C   UNL     1      32.847  75.017  21.981  1.00  0.00     0.098 A 
BRANCH   5   9
HETATM    9  C   UNL     1      30.900  77.641  19.216  1.00  0.00     0.082 C 
BRANCH   9  10
HETATM   10  CA  UNL     1      31.378  77.443  17.768  1.00  0.00     0.287 C 
BRANCH  10  11
HETATM   11  N   UNL     1      32.515  78.323  17.500  1.00  0.00    -0.065 N 
HETATM   12  H   UNL     1      32.558  79.051  18.214  1.00  0.00     0.275 HD
HETATM   13  H   UNL     1      32.402  78.754  16.581  1.00  0.00     0.275 HD
HETATM   14  H   UNL     1      33.377  77.780  17.516  1.00  0.00     0.275 HD
ENDBRANCH  10  11
BRANCH  10  15
HETATM   15  C   UNL     1      30.303  77.801  16.756  1.00  0.00     0.204 C 
HETATM   16  O   UNL     1      29.980  79.119  16.791  1.00  0.00    -0.646 OA
HETATM   17  OXT UNL     1      29.755  77.003  16.006  1.00  0.00    -0.646 OA
ENDBRANCH  10  15
ENDBRANCH   9  10
ENDBRANCH   5   9
BRANCH   8  18
HETATM   18  O   UNL     1      33.471  74.174  22.851  1.00  0.00    -0.358 OA
HETATM   19  H   UNL     1      33.341  74.273  23.774  1.00  0.00     0.217 HD
ENDBRANCH   8  18
ENDBRANCH   1   3
TORSDOF 6
ENDMDL
MODEL 6
REMARK VINA RESULT:      -6.0      3.660      4.481
REMARK  6 active torsions:
REMARK  status: ('A' for Active; 'I' for Inactive)
REMARK    1  A    between atoms: O_1  and  C_11 
REMARK    2  A    between atoms: O_3  and  C_14 
REMARK    3  A    between atoms: N_5  and  CA_7 
REMARK    4  A    between atoms: C_6  and  CA_7 
REMARK    5  A    between atoms: C_6  and  C_8 
REMARK    6  A    between atoms: CA_7  and  C_12 
ROOT
HETATM    1  O   UNL     1      32.960  74.271  22.452  1.00  0.00    -0.358 OA
HETATM    2  H   UNL     1      33.872  74.094  22.325  1.00  0.00     0.217 HD
ENDROOT
BRANCH   1   3
HETATM    3  C   UNL     1      32.405  75.396  21.923  1.00  0.00     0.099 A 
HETATM    4  C   UNL     1      32.598  75.688  20.573  1.00  0.00     0.046 A 
HETATM    5  C   UNL     1      32.031  76.834  20.040  1.00  0.00    -0.053 A 
HETATM    6  C   UNL     1      31.279  77.697  20.818  1.00  0.00     0.010 A 
HETATM    7  C   UNL     1      31.086  77.406  22.168  1.00  0.00     0.040 A 
HETATM    8  C   UNL     1      31.649  76.256  22.721  1.00  0.00     0.098 A 
BRANCH   5   9
HETATM    9  C   UNL     1      32.240  77.149  18.576  1.00  0.00     0.082 C 
BRANCH   9  10
HETATM   10  CA  UNL     1      30.936  77.095  17.763  1.00  0.00     0.287 C 
BRANCH  10  11
HETATM   11  N   UNL     1      30.782  75.770  17.166  1.00  0.00    -0.065 N 
HETATM   12  H   UNL     1      31.583  75.189  17.415  1.00  0.00     0.275 HD
HETATM   13  H   UNL     1      30.730  75.859  16.150  1.00  0.00     0.275 HD
HETATM   14  H   UNL     1      29.927  75.337  17.513  1.00  0.00     0.275 HD
ENDBRANCH  10  11
BRANCH  10  15
HETATM   15  C   UNL     1      30.935  78.092  16.617  1.00  0.00     0.204 C 
HETATM   16  O   UNL     1      29.988  79.053  16.769  1.00  0.00    -0.646 OA
HETATM   17  OXT UNL     1      31.674  78.037  15.642  1.00  0.00    -0.646 OA
ENDBRANCH  10  15
ENDBRANCH   9  10
ENDBRANCH   5   9
BRANCH   8  18
HETATM   18  O   UNL     1      31.455  75.983  24.042  1.00  0.00    -0.358 OA
HETATM   19  H   UNL     1      31.716  75.153  24.392  1.00  0.00     0.217 HD
ENDBRANCH   8  18
ENDBRANCH   1   3
TORSDOF 6
ENDMDL
MODEL 7
REMARK VINA RESULT:      -6.0      4.213      5.230
REMARK  6 active torsions:
REMARK  status: ('A' for Active; 'I' for Inactive)
REMARK    1  A    between atoms: O_1  and  C_11 
REMARK    2  A    between atoms: O_3  and  C_14 
REMARK    3  A    between atoms: N_5  and  CA_7 
REMARK    4  A    between atoms: C_6  and  CA_7 
REMARK    5  A    between atoms: C_6  and  C_8 
REMARK    6  A    between atoms: CA_7  and  C_12 
ROOT
HETATM    1  O   UNL     1      30.983  79.520  21.355  1.00  0.00    -0.358 OA
HETATM    2  H   UNL     1      31.696  80.119  21.462  1.00  0.00     0.217 HD
ENDROOT
BRANCH   1   3
HETATM    3  C   UNL     1      31.193  78.312  20.762  1.00  0.00     0.099 A 
HETATM    4  C   UNL     1      30.869  78.142  19.416  1.00  0.00     0.046 A 
HETATM    5  C   UNL     1      31.083  76.912  18.818  1.00  0.00    -0.053 A 
HETATM    6  C   UNL     1      31.611  75.846  19.526  1.00  0.00     0.010 A 
HETATM    7  C   UNL     1      31.936  76.015  20.871  1.00  0.00     0.040 A 
HETATM    8  C   UNL     1      31.726  77.248  21.490  1.00  0.00     0.098 A 
BRANCH   5   9
HETATM    9  C   UNL     1      30.733  76.728  17.358  1.00  0.00     0.082 C 
BRANCH   9  10
HETATM   10  CA  UNL     1      30.777  78.044  16.565  1.00  0.00     0.287 C 
BRANCH  10  11
HETATM   11  N   UNL     1      29.577  78.161  15.737  1.00  0.00    -0.065 N 
HETATM   12  H   UNL     1      29.333  79.146  15.629  1.00  0.00     0.275 HD
HETATM   13  H   UNL     1      28.805  77.666  16.185  1.00  0.00     0.275 HD
HETATM   14  H   UNL     1      29.756  77.753  14.820  1.00  0.00     0.275 HD
ENDBRANCH  10  11
BRANCH  10  15
HETATM   15  C   UNL     1      31.964  78.103  15.620  1.00  0.00     0.204 C 
HETATM   16  O   UNL     1      32.301  76.879  15.137  1.00  0.00    -0.646 OA
HETATM   17  OXT UNL     1      32.582  79.121  15.334  1.00  0.00    -0.646 OA
ENDBRANCH  10  15
ENDBRANCH   9  10
ENDBRANCH   5   9
BRANCH   8  18
HETATM   18  O   UNL     1      32.046  77.401  22.806  1.00  0.00    -0.358 OA
HETATM   19  H   UNL     1      31.373  77.578  23.434  1.00  0.00     0.217 HD
ENDBRANCH   8  18
ENDBRANCH   1   3
TORSDOF 6
ENDMDL
MODEL 8
REMARK VINA RESULT:      -5.9      2.968      5.913
REMARK  6 active torsions:
REMARK  status: ('A' for Active; 'I' for Inactive)
REMARK    1  A    between atoms: O_1  and  C_11 
REMARK    2  A    between atoms: O_3  and  C_14 
REMARK    3  A    between atoms: N_5  and  CA_7 
REMARK    4  A    between atoms: C_6  and  CA_7 
REMARK    5  A    between atoms: C_6  and  C_8 
REMARK    6  A    between atoms: CA_7  and  C_12 
ROOT
HETATM    1  O   UNL     1      30.752  78.224  18.893  1.00  0.00    -0.358 OA
HETATM    2  H   UNL     1      31.184  78.245  18.062  1.00  0.00     0.217 HD
ENDROOT
BRANCH   1   3
HETATM    3  C   UNL     1      31.338  77.595  19.949  1.00  0.00     0.099 A 
HETATM    4  C   UNL     1      31.529  76.214  19.907  1.00  0.00     0.046 A 
HETATM    5  C   UNL     1      32.124  75.580  20.984  1.00  0.00    -0.053 A 
HETATM    6  C   UNL     1      32.533  76.285  22.103  1.00  0.00     0.010 A 
HETATM    7  C   UNL     1      32.343  77.666  22.146  1.00  0.00     0.040 A 
HETATM    8  C   UNL     1      31.744  78.321  21.069  1.00  0.00     0.098 A 
BRANCH   5   9
HETATM    9  C   UNL     1      32.332  74.083  20.937  1.00  0.00     0.082 C 
BRANCH   9  10
HETATM   10  CA  UNL     1      33.528  73.620  21.785  1.00  0.00     0.287 C 
BRANCH  10  11
HETATM   11  N   UNL     1      34.624  73.208  20.910  1.00  0.00    -0.065 N 
HETATM   12  H   UNL     1      34.242  72.812  20.050  1.00  0.00     0.275 HD
HETATM   13  H   UNL     1      35.192  72.505  21.384  1.00  0.00     0.275 HD
HETATM   14  H   UNL     1      35.202  74.017  20.684  1.00  0.00     0.275 HD
ENDBRANCH  10  11
BRANCH  10  15
HETATM   15  C   UNL     1      33.185  72.418  22.648  1.00  0.00     0.204 C 
HETATM   16  O   UNL     1      31.855  72.148  22.654  1.00  0.00    -0.646 OA
HETATM   17  OXT UNL     1      33.996  71.769  23.297  1.00  0.00    -0.646 OA
ENDBRANCH  10  15
ENDBRANCH   9  10
ENDBRANCH   5   9
BRANCH   8  18
HETATM   18  O   UNL     1      31.561  79.670  21.123  1.00  0.00    -0.358 OA
HETATM   19  H   UNL     1      32.290  80.247  21.004  1.00  0.00     0.217 HD
ENDBRANCH   8  18
ENDBRANCH   1   3
TORSDOF 6
ENDMDL
MODEL 9
REMARK VINA RESULT:      -5.7      7.153      9.890
REMARK  6 active torsions:
REMARK  status: ('A' for Active; 'I' for Inactive)
REMARK    1  A    between atoms: O_1  and  C_11 
REMARK    2  A    between atoms: O_3  and  C_14 
REMARK    3  A    between atoms: N_5  and  CA_7 
REMARK    4  A    between atoms: C_6  and  CA_7 
REMARK    5  A    between atoms: C_6  and  C_8 
REMARK    6  A    between atoms: CA_7  and  C_12 
ROOT
HETATM    1  O   UNL     1      33.808  68.862  24.326  1.00  0.00    -0.358 OA
HETATM    2  H   UNL     1      33.091  68.306  24.558  1.00  0.00     0.217 HD
ENDROOT
BRANCH   1   3
HETATM    3  C   UNL     1      33.829  69.473  23.109  1.00  0.00     0.099 A 
HETATM    4  C   UNL     1      33.883  68.697  21.951  1.00  0.00     0.046 A 
HETATM    5  C   UNL     1      33.905  69.323  20.717  1.00  0.00    -0.053 A 
HETATM    6  C   UNL     1      33.877  70.702  20.605  1.00  0.00     0.010 A 
HETATM    7  C   UNL     1      33.823  71.479  21.762  1.00  0.00     0.040 A 
HETATM    8  C   UNL     1      33.800  70.865  23.014  1.00  0.00     0.098 A 
BRANCH   5   9
HETATM    9  C   UNL     1      33.962  68.481  19.462  1.00  0.00     0.082 C 
BRANCH   9  10
HETATM   10  CA  UNL     1      35.399  68.155  19.027  1.00  0.00     0.287 C 
BRANCH  10  11
HETATM   11  N   UNL     1      35.460  68.038  17.571  1.00  0.00    -0.065 N 
HETATM   12  H   UNL     1      36.433  67.946  17.277  1.00  0.00     0.275 HD
HETATM   13  H   UNL     1      35.054  68.872  17.146  1.00  0.00     0.275 HD
HETATM   14  H   UNL     1      34.935  67.216  17.274  1.00  0.00     0.275 HD
ENDBRANCH  10  11
BRANCH  10  15
HETATM   15  C   UNL     1      35.880  66.828  19.590  1.00  0.00     0.204 C 
HETATM   16  O   UNL     1      37.225  66.803  19.776  1.00  0.00    -0.646 OA
HETATM   17  OXT UNL     1      35.160  65.867  19.827  1.00  0.00    -0.646 OA
ENDBRANCH  10  15
ENDBRANCH   9  10
ENDBRANCH   5   9
BRANCH   8  18
HETATM   18  O   UNL     1      33.750  71.634  24.138  1.00  0.00    -0.358 OA
HETATM   19  H   UNL     1      34.346  71.474  24.843  1.00  0.00     0.217 HD
ENDBRANCH   8  18
ENDBRANCH   1   3
TORSDOF 6
ENDMDL
