MODEL 1
REMARK VINA RESULT:      -6.7      0.000      0.000
REMARK  6 active torsions:
REMARK  status: ('A' for Active; 'I' for Inactive)
REMARK    1  A    between atoms: O_1  and  C_11 
REMARK    2  A    between atoms: O_3  and  C_14 
REMARK    3  A    between atoms: N_5  and  CA_7 
REMARK    4  A    between atoms: C_6  and  CA_7 
REMARK    5  A    between atoms: C_6  and  C_8 
REMARK    6  A    between atoms: CA_7  and  C_12 
ROOT
HETATM    1  O   UNL     1      30.182  74.488  24.142  1.00  0.00    -0.358 OA
HETATM    2  H   UNL     1      30.489  74.831  24.958  1.00  0.00     0.217 HD
ENDROOT
BRANCH   1   3
HETATM    3  C   UNL     1      30.753  74.895  22.974  1.00  0.00     0.099 A 
HETATM    4  C   UNL     1      30.783  76.253  22.660  1.00  0.00     0.046 A 
HETATM    5  C   UNL     1      31.364  76.661  21.472  1.00  0.00    -0.053 A 
HETATM    6  C   UNL     1      31.916  75.751  20.587  1.00  0.00     0.010 A 
HETATM    7  C   UNL     1      31.887  74.392  20.900  1.00  0.00     0.040 A 
HETATM    8  C   UNL     1      31.305  73.964  22.094  1.00  0.00     0.098 A 
BRANCH   5   9
HETATM    9  C   UNL     1      31.397  78.134  21.133  1.00  0.00     0.082 C 
BRANCH   9  10
HETATM   10  CA  UNL     1      30.957  79.026  22.305  1.00  0.00     0.287 C 
BRANCH  10  11
HETATM   11  N   UNL     1      29.721  79.725  21.956  1.00  0.00    -0.065 N 
HETATM   12  H   UNL     1      29.919  80.716  21.814  1.00  0.00     0.275 HD
HETATM   13  H   UNL     1      29.044  79.618  22.712  1.00  0.00     0.275 HD
HETATM   14  H   UNL     1      29.337  79.328  21.099  1.00  0.00     0.275 HD
ENDBRANCH  10  11
BRANCH  10  15
HETATM   15  C   UNL     1      31.985  80.097  22.627  1.00  0.00     0.204 C 
HETATM   16  O   UNL     1      33.041  79.605  23.325  1.00  0.00    -0.646 OA
HETATM   17  OXT UNL     1      31.880  81.280  22.328  1.00  0.00    -0.646 OA
ENDBRANCH  10  15
ENDBRANCH   9  10
ENDBRANCH   5   9
BRANCH   8  18
HETATM   18  O   UNL     1      31.280  72.633  22.388  1.00  0.00    -0.358 OA
HETATM   19  H   UNL     1      31.938  72.064  22.039  1.00  0.00     0.217 HD
ENDBRANCH   8  18
ENDBRANCH   1   3
TORSDOF 6
ENDMDL
MODEL 2
REMARK VINA RESULT:      -6.4      1.129      1.356
REMARK  6 active torsions:
REMARK  status: ('A' for Active; 'I' for Inactive)
REMARK    1  A    between atoms: O_1  and  C_11 
REMARK    2  A    between atoms: O_3  and  C_14 
REMARK    3  A    between atoms: N_5  and  CA_7 
REMARK    4  A    between atoms: C_6  and  CA_7 
REMARK    5  A    between atoms: C_6  and  C_8 
REMARK    6  A    between atoms: CA_7  and  C_12 
ROOT
HETATM    1  O   UNL     1      32.055  74.287  22.909  1.00  0.00    -0.358 OA
HETATM    2  H   UNL     1      31.495  73.546  23.029  1.00  0.00     0.217 HD
ENDROOT
BRANCH   1   3
HETATM    3  C   UNL     1      31.983  75.016  21.761  1.00  0.00     0.099 A 
HETATM    4  C   UNL     1      31.574  76.348  21.817  1.00  0.00     0.046 A 
HETATM    5  C   UNL     1      31.502  77.084  20.647  1.00  0.00    -0.053 A 
HETATM    6  C   UNL     1      31.825  76.527  19.421  1.00  0.00     0.010 A 
HETATM    7  C   UNL     1      32.235  75.195  19.364  1.00  0.00     0.040 A 
HETATM    8  C   UNL     1      32.313  74.439  20.534  1.00  0.00     0.098 A 
BRANCH   5   9
HETATM    9  C   UNL     1      31.059  78.529  20.709  1.00  0.00     0.082 C 
BRANCH   9  10
HETATM   10  CA  UNL     1      30.855  79.028  22.148  1.00  0.00     0.287 C 
BRANCH  10  11
HETATM   11  N   UNL     1      29.571  79.720  22.252  1.00  0.00    -0.065 N 
HETATM   12  H   UNL     1      28.875  79.088  22.649  1.00  0.00     0.275 HD
HETATM   13  H   UNL     1      29.269  80.019  21.324  1.00  0.00     0.275 HD
HETATM   14  H   UNL     1      29.673  80.536  22.855  1.00  0.00     0.275 HD
ENDBRANCH  10  11
BRANCH  10  15
HETATM   15  C   UNL     1      31.922  80.027  22.563  1.00  0.00     0.204 C 
HETATM   16  O   UNL     1      32.976  79.432  23.178  1.00  0.00    -0.646 OA
HETATM   17  OXT UNL     1      31.847  81.239  22.400  1.00  0.00    -0.646 OA
ENDBRANCH  10  15
ENDBRANCH   9  10
ENDBRANCH   5   9
BRANCH   8  18
HETATM   18  O   UNL     1      32.712  73.138  20.465  1.00  0.00    -0.358 OA
HETATM   19  H   UNL     1      33.553  72.888  20.797  1.00  0.00     0.217 HD
ENDBRANCH   8  18
ENDBRANCH   1   3
TORSDOF 6
ENDMDL
MODEL 3
REMARK VINA RESULT:      -6.3      3.904      4.646
REMARK  6 active torsions:
REMARK  status: ('A' for Active; 'I' for Inactive)
REMARK    1  A    between atoms: O_1  and  C_11 
REMARK    2  A    between atoms: O_3  and  C_14 
REMARK    3  A    between atoms: N_5  and  CA_7 
REMARK    4  A    between atoms: C_6  and  CA_7 
REMARK    5  A    between atoms: C_6  and  C_8 
REMARK    6  A    between atoms: CA_7  and  C_12 
ROOT
HETATM    1  O   UNL     1      30.452  78.489  22.938  1.00  0.00    -0.358 OA
HETATM    2  H   UNL     1      29.548  78.708  22.826  1.00  0.00     0.217 HD
ENDROOT
BRANCH   1   3
HETATM    3  C   UNL     1      31.069  77.670  22.041  1.00  0.00     0.099 A 
HETATM    4  C   UNL     1      31.152  78.056  20.703  1.00  0.00     0.046 A 
HETATM    5  C   UNL     1      31.780  77.220  19.795  1.00  0.00    -0.053 A 
HETATM    6  C   UNL     1      32.326  76.009  20.186  1.00  0.00     0.010 A 
HETATM    7  C   UNL     1      32.244  75.623  21.523  1.00  0.00     0.040 A 
HETATM    8  C   UNL     1      31.615  76.454  22.451  1.00  0.00     0.098 A 
BRANCH   5   9
HETATM    9  C   UNL     1      31.871  77.639  18.345  1.00  0.00     0.082 C 
BRANCH   9  10
HETATM   10  CA  UNL     1      30.774  77.008  17.473  1.00  0.00     0.287 C 
BRANCH  10  11
HETATM   11  N   UNL     1      31.359  75.980  16.612  1.00  0.00    -0.065 N 
HETATM   12  H   UNL     1      32.373  75.977  16.727  1.00  0.00     0.275 HD
HETATM   13  H   UNL     1      31.129  76.181  15.638  1.00  0.00     0.275 HD
HETATM   14  H   UNL     1      30.984  75.068  16.869  1.00  0.00     0.275 HD
ENDBRANCH  10  11
BRANCH  10  15
HETATM   15  C   UNL     1      30.120  78.024  16.553  1.00  0.00     0.204 C 
HETATM   16  O   UNL     1      29.369  77.437  15.586  1.00  0.00    -0.646 OA
HETATM   17  OXT UNL     1      30.262  79.237  16.637  1.00  0.00    -0.646 OA
ENDBRANCH  10  15
ENDBRANCH   9  10
ENDBRANCH   5   9
BRANCH   8  18
HETATM   18  O   UNL     1      31.539  76.065  23.755  1.00  0.00    -0.358 OA
HETATM   19  H   UNL     1      31.208  76.657  24.402  1.00  0.00     0.217 HD
ENDBRANCH   8  18
ENDBRANCH   1   3
TORSDOF 6
ENDMDL
MODEL 4
REMARK VINA RESULT:      -6.2      2.826      5.713
REMARK  6 active torsions:
REMARK  status: ('A' for Active; 'I' for Inactive)
REMARK    1  A    between atoms: O_1  and  C_11 
REMARK    2  A    between atoms: O_3  and  C_14 
REMARK    3  A    between atoms: N_5  and  CA_7 
REMARK    4  A    between atoms: C_6  and  CA_7 
REMARK    5  A    between atoms: C_6  and  C_8 
REMARK    6  A    between atoms: CA_7  and  C_12 
ROOT
HETATM    1  O   UNL     1      31.899  79.098  22.686  1.00  0.00    -0.358 OA
HETATM    2  H   UNL     1      31.456  79.146  23.509  1.00  0.00     0.217 HD
ENDROOT
BRANCH   1   3
HETATM    3  C   UNL     1      31.923  77.925  21.994  1.00  0.00     0.099 A 
HETATM    4  C   UNL     1      32.593  76.825  22.530  1.00  0.00     0.046 A 
HETATM    5  C   UNL     1      32.615  75.635  21.822  1.00  0.00    -0.053 A 
HETATM    6  C   UNL     1      31.989  75.512  20.594  1.00  0.00     0.010 A 
HETATM    7  C   UNL     1      31.319  76.612  20.057  1.00  0.00     0.040 A 
HETATM    8  C   UNL     1      31.287  77.818  20.757  1.00  0.00     0.098 A 
BRANCH   5   9
HETATM    9  C   UNL     1      33.339  74.442  22.404  1.00  0.00     0.082 C 
BRANCH   9  10
HETATM   10  CA  UNL     1      32.589  73.120  22.178  1.00  0.00     0.287 C 
BRANCH  10  11
HETATM   11  N   UNL     1      31.555  72.958  23.199  1.00  0.00    -0.065 N 
HETATM   12  H   UNL     1      31.840  73.442  24.051  1.00  0.00     0.275 HD
HETATM   13  H   UNL     1      31.426  71.965  23.398  1.00  0.00     0.275 HD
HETATM   14  H   UNL     1      30.678  73.353  22.860  1.00  0.00     0.275 HD
ENDBRANCH  10  11
BRANCH  10  15
HETATM   15  C   UNL     1      33.507  71.914  22.294  1.00  0.00     0.204 C 
HETATM   16  O   UNL     1      34.060  71.804  23.529  1.00  0.00    -0.646 OA
HETATM   17  OXT UNL     1      33.757  71.135  21.383  1.00  0.00    -0.646 OA
ENDBRANCH  10  15
ENDBRANCH   9  10
ENDBRANCH   5   9
BRANCH   8  18
HETATM   18  O   UNL     1      30.631  78.886  20.222  1.00  0.00    -0.358 OA
HETATM   19  H   UNL     1      29.897  78.749  19.655  1.00  0.00     0.217 HD
ENDBRANCH   8  18
ENDBRANCH   1   3
TORSDOF 6
ENDMDL
MODEL 5
REMARK VINA RESULT:      -6.2      3.658      4.155
REMARK  6 active torsions:
REMARK  status: ('A' for Active; 'I' for Inactive)
REMARK    1  A    between atoms: O_1  and  C_11 
REMARK    2  A    between atoms: O_3  and  C_14 
REMARK    3  A    between atoms: N_5  and  CA_7 
REMARK    4  A    between atoms: C_6  and  CA_7 
REMARK    5  A    between atoms: C_6  and  C_8 
REMARK    6  A    between atoms: CA_7  and  C_12 
ROOT
HETATM    1  O   UNL     1      31.853  76.242  23.800  1.00  0.00    -0.358 OA
HETATM    2  H   UNL     1      32.118  77.045  24.201  1.00  0.00     0.217 HD
ENDROOT
BRANCH   1   3
HETATM    3  C   UNL     1      32.036  76.056  22.463  1.00  0.00     0.099 A 
HETATM    4  C   UNL     1      31.403  76.907  21.557  1.00  0.00     0.046 A 
HETATM    5  C   UNL     1      31.593  76.714  20.200  1.00  0.00    -0.053 A 
HETATM    6  C   UNL     1      32.396  75.693  19.720  1.00  0.00     0.010 A 
HETATM    7  C   UNL     1      33.029  74.842  20.625  1.00  0.00     0.040 A 
HETATM    8  C   UNL     1      32.849  75.023  21.996  1.00  0.00     0.098 A 
BRANCH   5   9
HETATM    9  C   UNL     1      30.907  77.638  19.219  1.00  0.00     0.082 C 
BRANCH   9  10
HETATM   10  CA  UNL     1      31.397  77.444  17.775  1.00  0.00     0.287 C 
BRANCH  10  11
HETATM   11  N   UNL     1      32.511  78.352  17.506  1.00  0.00    -0.065 N 
HETATM   12  H   UNL     1      32.580  79.038  18.257  1.00  0.00     0.275 HD
HETATM   13  H   UNL     1      32.352  78.833  16.620  1.00  0.00     0.275 HD
HETATM   14  H   UNL     1      33.379  77.819  17.452  1.00  0.00     0.275 HD
ENDBRANCH  10  11
BRANCH  10  15
HETATM   15  C   UNL     1      30.318  77.768  16.756  1.00  0.00     0.204 C 
HETATM   16  O   UNL     1      29.996  79.086  16.746  1.00  0.00    -0.646 OA
HETATM   17  OXT UNL     1      29.766  76.944  16.037  1.00  0.00    -0.646 OA
ENDBRANCH  10  15
ENDBRANCH   9  10
ENDBRANCH   5   9
BRANCH   8  18
HETATM   18  O   UNL     1      33.472  74.183  22.870  1.00  0.00    -0.358 OA
HETATM   19  H   UNL     1      34.310  73.822  22.658  1.00  0.00     0.217 HD
ENDBRANCH   8  18
ENDBRANCH   1   3
TORSDOF 6
ENDMDL
MODEL 6
REMARK VINA RESULT:      -6.0      3.632      4.425
REMARK  6 active torsions:
REMARK  status: ('A' for Active; 'I' for Inactive)
REMARK    1  A    between atoms: O_1  and  C_11 
REMARK    2  A    between atoms: O_3  and  C_14 
REMARK    3  A    between atoms: N_5  and  CA_7 
REMARK    4  A    between atoms: C_6  and  CA_7 
REMARK    5  A    between atoms: C_6  and  C_8 
REMARK    6  A    between atoms: CA_7  and  C_12 
ROOT
HETATM    1  O   UNL     1      32.924  74.191  22.515  1.00  0.00    -0.358 OA
HETATM    2  H   UNL     1      32.795  74.029  23.429  1.00  0.00     0.217 HD
ENDROOT
BRANCH   1   3
HETATM    3  C   UNL     1      32.387  75.302  21.939  1.00  0.00     0.099 A 
HETATM    4  C   UNL     1      32.571  75.525  20.574  1.00  0.00     0.046 A 
HETATM    5  C   UNL     1      32.023  76.656  19.993  1.00  0.00    -0.053 A 
HETATM    6  C   UNL     1      31.300  77.573  20.737  1.00  0.00     0.010 A 
HETATM    7  C   UNL     1      31.116  77.351  22.101  1.00  0.00     0.040 A 
HETATM    8  C   UNL     1      31.660  76.215  22.703  1.00  0.00     0.098 A 
BRANCH   5   9
HETATM    9  C   UNL     1      32.221  76.897  18.514  1.00  0.00     0.082 C 
BRANCH   9  10
HETATM   10  CA  UNL     1      30.897  76.947  17.735  1.00  0.00     0.287 C 
BRANCH  10  11
HETATM   11  N   UNL     1      30.742  75.727  16.945  1.00  0.00    -0.065 N 
HETATM   12  H   UNL     1      29.757  75.590  16.718  1.00  0.00     0.275 HD
HETATM   13  H   UNL     1      31.082  74.928  17.482  1.00  0.00     0.275 HD
HETATM   14  H   UNL     1      31.281  75.810  16.083  1.00  0.00     0.275 HD
ENDBRANCH  10  11
BRANCH  10  15
HETATM   15  C   UNL     1      30.852  78.107  16.756  1.00  0.00     0.204 C 
HETATM   16  O   UNL     1      31.874  78.069  15.863  1.00  0.00    -0.646 OA
HETATM   17  OXT UNL     1      30.016  79.003  16.771  1.00  0.00    -0.646 OA
ENDBRANCH  10  15
ENDBRANCH   9  10
ENDBRANCH   5   9
BRANCH   8  18
HETATM   18  O   UNL     1      31.476  76.010  24.037  1.00  0.00    -0.358 OA
HETATM   19  H   UNL     1      31.944  75.327  24.475  1.00  0.00     0.217 HD
ENDBRANCH   8  18
ENDBRANCH   1   3
TORSDOF 6
ENDMDL
MODEL 7
REMARK VINA RESULT:      -6.0      2.259      5.584
REMARK  6 active torsions:
REMARK  status: ('A' for Active; 'I' for Inactive)
REMARK    1  A    between atoms: O_1  and  C_11 
REMARK    2  A    between atoms: O_3  and  C_14 
REMARK    3  A    between atoms: N_5  and  CA_7 
REMARK    4  A    between atoms: C_6  and  CA_7 
REMARK    5  A    between atoms: C_6  and  C_8 
REMARK    6  A    between atoms: CA_7  and  C_12 
ROOT
HETATM    1  O   UNL     1      33.270  79.285  23.373  1.00  0.00    -0.358 OA
HETATM    2  H   UNL     1      33.396  78.902  24.218  1.00  0.00     0.217 HD
ENDROOT
BRANCH   1   3
HETATM    3  C   UNL     1      32.578  78.608  22.415  1.00  0.00     0.099 A 
HETATM    4  C   UNL     1      32.800  77.241  22.244  1.00  0.00     0.046 A 
HETATM    5  C   UNL     1      32.095  76.558  21.268  1.00  0.00    -0.053 A 
HETATM    6  C   UNL     1      31.174  77.200  20.458  1.00  0.00     0.010 A 
HETATM    7  C   UNL     1      30.951  78.566  20.629  1.00  0.00     0.040 A 
HETATM    8  C   UNL     1      31.653  79.270  21.608  1.00  0.00     0.098 A 
BRANCH   5   9
HETATM    9  C   UNL     1      32.336  75.076  21.084  1.00  0.00     0.082 C 
BRANCH   9  10
HETATM   10  CA  UNL     1      32.163  74.278  22.385  1.00  0.00     0.287 C 
BRANCH  10  11
HETATM   11  N   UNL     1      33.411  73.587  22.710  1.00  0.00    -0.065 N 
HETATM   12  H   UNL     1      34.083  73.728  21.955  1.00  0.00     0.275 HD
HETATM   13  H   UNL     1      33.228  72.589  22.821  1.00  0.00     0.275 HD
HETATM   14  H   UNL     1      33.791  73.962  23.578  1.00  0.00     0.275 HD
ENDBRANCH  10  11
BRANCH  10  15
HETATM   15  C   UNL     1      31.093  73.206  22.262  1.00  0.00     0.204 C 
HETATM   16  O   UNL     1      30.727  72.988  20.973  1.00  0.00    -0.646 OA
HETATM   17  OXT UNL     1      30.583  72.615  23.205  1.00  0.00    -0.646 OA
ENDBRANCH  10  15
ENDBRANCH   9  10
ENDBRANCH   5   9
BRANCH   8  18
HETATM   18  O   UNL     1      31.428  80.605  21.764  1.00  0.00    -0.358 OA
HETATM   19  H   UNL     1      30.589  80.908  22.053  1.00  0.00     0.217 HD
ENDBRANCH   8  18
ENDBRANCH   1   3
TORSDOF 6
ENDMDL
MODEL 8
REMARK VINA RESULT:      -5.9      2.950      5.888
REMARK  6 active torsions:
REMARK  status: ('A' for Active; 'I' for Inactive)
REMARK    1  A    between atoms: O_1  and  C_11 
REMARK    2  A    between atoms: O_3  and  C_14 
REMARK    3  A    between atoms: N_5  and  CA_7 
REMARK    4  A    between atoms: C_6  and  CA_7 
REMARK    5  A    between atoms: C_6  and  C_8 
REMARK    6  A    between atoms: CA_7  and  C_12 
ROOT
HETATM    1  O   UNL     1      30.632  78.238  18.943  1.00  0.00    -0.358 OA
HETATM    2  H   UNL     1      29.700  78.326  18.958  1.00  0.00     0.217 HD
ENDROOT
BRANCH   1   3
HETATM    3  C   UNL     1      31.273  77.607  19.966  1.00  0.00     0.099 A 
HETATM    4  C   UNL     1      31.508  76.234  19.886  1.00  0.00     0.046 A 
HETATM    5  C   UNL     1      32.159  75.597  20.928  1.00  0.00    -0.053 A 
HETATM    6  C   UNL     1      32.580  76.291  22.049  1.00  0.00     0.010 A 
HETATM    7  C   UNL     1      32.346  77.663  22.130  1.00  0.00     0.040 A 
HETATM    8  C   UNL     1      31.692  78.321  21.088  1.00  0.00     0.098 A 
BRANCH   5   9
HETATM    9  C   UNL     1      32.415  74.109  20.840  1.00  0.00     0.082 C 
BRANCH   9  10
HETATM   10  CA  UNL     1      33.584  73.652  21.727  1.00  0.00     0.287 C 
BRANCH  10  11
HETATM   11  N   UNL     1      34.675  73.158  20.889  1.00  0.00    -0.065 N 
HETATM   12  H   UNL     1      34.505  72.180  20.650  1.00  0.00     0.275 HD
HETATM   13  H   UNL     1      35.556  73.235  21.397  1.00  0.00     0.275 HD
HETATM   14  H   UNL     1      34.725  73.712  20.035  1.00  0.00     0.275 HD
ENDBRANCH  10  11
BRANCH  10  15
HETATM   15  C   UNL     1      33.191  72.509  22.647  1.00  0.00     0.204 C 
HETATM   16  O   UNL     1      31.868  72.214  22.569  1.00  0.00    -0.646 OA
HETATM   17  OXT UNL     1      33.957  71.925  23.404  1.00  0.00    -0.646 OA
ENDBRANCH  10  15
ENDBRANCH   9  10
ENDBRANCH   5   9
BRANCH   8  18
HETATM   18  O   UNL     1      31.466  79.662  21.179  1.00  0.00    -0.358 OA
HETATM   19  H   UNL     1      32.189  80.257  21.232  1.00  0.00     0.217 HD
ENDBRANCH   8  18
ENDBRANCH   1   3
TORSDOF 6
ENDMDL
MODEL 9
REMARK VINA RESULT:      -5.9      3.988      4.954
REMARK  6 active torsions:
REMARK  status: ('A' for Active; 'I' for Inactive)
REMARK    1  A    between atoms: O_1  and  C_11 
REMARK    2  A    between atoms: O_3  and  C_14 
REMARK    3  A    between atoms: N_5  and  CA_7 
REMARK    4  A    between atoms: C_6  and  CA_7 
REMARK    5  A    between atoms: C_6  and  C_8 
REMARK    6  A    between atoms: CA_7  and  C_12 
ROOT
HETATM    1  O   UNL     1      30.718  78.588  22.920  1.00  0.00    -0.358 OA
HETATM    2  H   UNL     1      29.924  78.413  23.385  1.00  0.00     0.217 HD
ENDROOT
BRANCH   1   3
HETATM    3  C   UNL     1      31.096  77.780  21.890  1.00  0.00     0.099 A 
HETATM    4  C   UNL     1      30.796  78.152  20.580  1.00  0.00     0.046 A 
HETATM    5  C   UNL     1      31.182  77.328  19.537  1.00  0.00    -0.053 A 
HETATM    6  C   UNL     1      31.857  76.141  19.765  1.00  0.00     0.010 A 
HETATM    7  C   UNL     1      32.158  75.769  21.075  1.00  0.00     0.040 A 
HETATM    8  C   UNL     1      31.776  76.588  22.138  1.00  0.00     0.098 A 
BRANCH   5   9
HETATM    9  C   UNL     1      30.858  77.732  18.116  1.00  0.00     0.082 C 
BRANCH   9  10
HETATM   10  CA  UNL     1      32.046  77.548  17.158  1.00  0.00     0.287 C 
BRANCH  10  11
HETATM   11  N   UNL     1      32.400  78.834  16.559  1.00  0.00    -0.065 N 
HETATM   12  H   UNL     1      32.880  79.411  17.250  1.00  0.00     0.275 HD
HETATM   13  H   UNL     1      31.552  79.310  16.249  1.00  0.00     0.275 HD
HETATM   14  H   UNL     1      33.014  78.679  15.759  1.00  0.00     0.275 HD
ENDBRANCH  10  11
BRANCH  10  15
HETATM   15  C   UNL     1      31.716  76.610  16.010  1.00  0.00     0.204 C 
HETATM   16  O   UNL     1      30.702  75.759  16.314  1.00  0.00    -0.646 OA
HETATM   17  OXT UNL     1      32.303  76.585  14.936  1.00  0.00    -0.646 OA
ENDBRANCH  10  15
ENDBRANCH   9  10
ENDBRANCH   5   9
BRANCH   8  18
HETATM   18  O   UNL     1      32.073  76.212  23.414  1.00  0.00    -0.358 OA
HETATM   19  H   UNL     1      32.802  76.599  23.859  1.00  0.00     0.217 HD
ENDBRANCH   8  18
ENDBRANCH   1   3
TORSDOF 6
ENDMDL
