MODEL 1
REMARK VINA RESULT:      -4.9      0.000      0.000
REMARK  6 active torsions:
REMARK  status: ('A' for Active; 'I' for Inactive)
REMARK    1  A    between atoms: N_3  and  CA_7 
REMARK    2  A    between atoms: N_4  and  C_8 
REMARK    3  A    between atoms: C_5  and  C_6 
REMARK    4  A    between atoms: C_5  and  CA_7 
REMARK    5  A    between atoms: C_6  and  C_8 
REMARK    6  A    between atoms: CA_7  and  C_9 
ROOT
HETATM    1  O   UNL     1      32.958  79.286  23.142  1.00  0.00    -0.646 OA
HETATM    2  OXT UNL     1      31.900  81.145  22.390  1.00  0.00    -0.646 OA
HETATM    3  C   UNL     1      31.917  79.932  22.549  1.00  0.00     0.204 C 
ENDROOT
BRANCH   3   4
HETATM    4  CA  UNL     1      30.819  78.972  22.128  1.00  0.00     0.283 C 
BRANCH   4   5
HETATM    5  N   UNL     1      29.569  79.726  22.031  1.00  0.00    -0.065 N 
HETATM    6  H   UNL     1      29.622  80.372  21.242  1.00  0.00     0.275 HD
HETATM    7  H   UNL     1      29.422  80.252  22.892  1.00  0.00     0.275 HD
HETATM    8  H   UNL     1      28.792  79.080  21.890  1.00  0.00     0.275 HD
ENDBRANCH   4   5
BRANCH   4   9
HETATM    9  C   UNL     1      31.162  78.225  20.830  1.00  0.00     0.045 C 
BRANCH   9  10
HETATM   10  C   UNL     1      31.463  76.730  21.001  1.00  0.00     0.030 C 
BRANCH  10  11
HETATM   11  C   UNL     1      31.191  76.279  22.437  1.00  0.00     0.230 C 
BRANCH  11  12
HETATM   12  N   UNL     1      32.445  75.990  23.123  1.00  0.00    -0.079 N 
HETATM   13  H   UNL     1      32.342  76.187  24.118  1.00  0.00     0.274 HD
HETATM   14  H   UNL     1      33.187  76.574  22.736  1.00  0.00     0.274 HD
HETATM   15  H   UNL     1      32.685  75.007  22.994  1.00  0.00     0.274 HD
ENDBRANCH  11  12
ENDBRANCH  10  11
ENDBRANCH   9  10
ENDBRANCH   4   9
ENDBRANCH   3   4
TORSDOF 6
ENDMDL
MODEL 2
REMARK VINA RESULT:      -4.4      1.943      2.055
REMARK  6 active torsions:
REMARK  status: ('A' for Active; 'I' for Inactive)
REMARK    1  A    between atoms: N_3  and  CA_7 
REMARK    2  A    between atoms: N_4  and  C_8 
REMARK    3  A    between atoms: C_5  and  C_6 
REMARK    4  A    between atoms: C_5  and  CA_7 
REMARK    5  A    between atoms: C_6  and  C_8 
REMARK    6  A    between atoms: CA_7  and  C_9 
ROOT
HETATM    1  O   UNL     1      29.978  77.812  23.242  1.00  0.00    -0.646 OA
HETATM    2  OXT UNL     1      28.947  79.666  22.442  1.00  0.00    -0.646 OA
HETATM    3  C   UNL     1      29.929  78.936  22.478  1.00  0.00     0.204 C 
ENDROOT
BRANCH   3   4
HETATM    4  CA  UNL     1      31.216  79.151  21.702  1.00  0.00     0.283 C 
BRANCH   4   5
HETATM    5  N   UNL     1      31.720  80.488  22.020  1.00  0.00    -0.065 N 
HETATM    6  H   UNL     1      31.110  81.190  21.599  1.00  0.00     0.275 HD
HETATM    7  H   UNL     1      32.665  80.592  21.650  1.00  0.00     0.275 HD
HETATM    8  H   UNL     1      31.735  80.613  23.032  1.00  0.00     0.275 HD
ENDBRANCH   4   5
BRANCH   4   9
HETATM    9  C   UNL     1      32.252  78.049  21.971  1.00  0.00     0.045 C 
BRANCH   9  10
HETATM   10  C   UNL     1      32.170  76.838  21.033  1.00  0.00     0.030 C 
BRANCH  10  11
HETATM   11  C   UNL     1      32.385  75.534  21.802  1.00  0.00     0.230 C 
BRANCH  11  12
HETATM   12  N   UNL     1      32.261  75.767  23.237  1.00  0.00    -0.079 N 
HETATM   13  H   UNL     1      31.839  76.681  23.398  1.00  0.00     0.274 HD
HETATM   14  H   UNL     1      33.186  75.739  23.667  1.00  0.00     0.274 HD
HETATM   15  H   UNL     1      31.672  75.043  23.649  1.00  0.00     0.274 HD
ENDBRANCH  11  12
ENDBRANCH  10  11
ENDBRANCH   9  10
ENDBRANCH   4   9
ENDBRANCH   3   4
TORSDOF 6
ENDMDL
MODEL 3
REMARK VINA RESULT:      -4.3      1.762      1.994
REMARK  6 active torsions:
REMARK  status: ('A' for Active; 'I' for Inactive)
REMARK    1  A    between atoms: N_3  and  CA_7 
REMARK    2  A    between atoms: N_4  and  C_8 
REMARK    3  A    between atoms: C_5  and  C_6 
REMARK    4  A    between atoms: C_5  and  CA_7 
REMARK    5  A    between atoms: C_6  and  C_8 
REMARK    6  A    between atoms: CA_7  and  C_9 
ROOT
HETATM    1  O   UNL     1      32.968  79.366  23.163  1.00  0.00    -0.646 OA
HETATM    2  OXT UNL     1      31.900  81.192  22.344  1.00  0.00    -0.646 OA
HETATM    3  C   UNL     1      31.931  79.983  22.534  1.00  0.00     0.204 C 
ENDROOT
BRANCH   3   4
HETATM    4  CA  UNL     1      30.854  78.997  22.114  1.00  0.00     0.283 C 
BRANCH   4   5
HETATM    5  N   UNL     1      29.556  79.659  22.249  1.00  0.00    -0.065 N 
HETATM    6  H   UNL     1      29.309  79.724  23.237  1.00  0.00     0.275 HD
HETATM    7  H   UNL     1      28.846  79.118  21.755  1.00  0.00     0.275 HD
HETATM    8  H   UNL     1      29.609  80.596  21.849  1.00  0.00     0.275 HD
ENDBRANCH   4   5
BRANCH   4   9
HETATM    9  C   UNL     1      31.090  78.440  20.702  1.00  0.00     0.045 C 
BRANCH   9  10
HETATM   10  C   UNL     1      31.594  76.991  20.652  1.00  0.00     0.030 C 
BRANCH  10  11
HETATM   11  C   UNL     1      32.183  76.664  19.279  1.00  0.00     0.230 C 
BRANCH  11  12
HETATM   12  N   UNL     1      32.529  77.891  18.572  1.00  0.00    -0.079 N 
HETATM   13  H   UNL     1      32.671  78.644  19.245  1.00  0.00     0.274 HD
HETATM   14  H   UNL     1      31.772  78.143  17.936  1.00  0.00     0.274 HD
HETATM   15  H   UNL     1      33.387  77.746  18.039  1.00  0.00     0.274 HD
ENDBRANCH  11  12
ENDBRANCH  10  11
ENDBRANCH   9  10
ENDBRANCH   4   9
ENDBRANCH   3   4
TORSDOF 6
ENDMDL
MODEL 4
REMARK VINA RESULT:      -4.2      1.828      2.145
REMARK  6 active torsions:
REMARK  status: ('A' for Active; 'I' for Inactive)
REMARK    1  A    between atoms: N_3  and  CA_7 
REMARK    2  A    between atoms: N_4  and  C_8 
REMARK    3  A    between atoms: C_5  and  C_6 
REMARK    4  A    between atoms: C_5  and  CA_7 
REMARK    5  A    between atoms: C_6  and  C_8 
REMARK    6  A    between atoms: CA_7  and  C_9 
ROOT
HETATM    1  O   UNL     1      29.288  79.431  22.576  1.00  0.00    -0.646 OA
HETATM    2  OXT UNL     1      31.471  79.968  22.868  1.00  0.00    -0.646 OA
HETATM    3  C   UNL     1      30.621  79.213  22.415  1.00  0.00     0.204 C 
ENDROOT
BRANCH   3   4
HETATM    4  CA  UNL     1      30.899  77.947  21.623  1.00  0.00     0.283 C 
BRANCH   4   5
HETATM    5  N   UNL     1      30.776  78.266  20.201  1.00  0.00    -0.065 N 
HETATM    6  H   UNL     1      31.706  78.384  19.797  1.00  0.00     0.275 HD
HETATM    7  H   UNL     1      30.245  79.130  20.091  1.00  0.00     0.275 HD
HETATM    8  H   UNL     1      30.292  77.506  19.723  1.00  0.00     0.275 HD
ENDBRANCH   4   5
BRANCH   4   9
HETATM    9  C   UNL     1      32.259  77.325  21.975  1.00  0.00     0.045 C 
BRANCH   9  10
HETATM   10  C   UNL     1      32.195  76.122  22.926  1.00  0.00     0.030 C 
BRANCH  10  11
HETATM   11  C   UNL     1      30.921  75.308  22.694  1.00  0.00     0.230 C 
BRANCH  11  12
HETATM   12  N   UNL     1      30.358  74.875  23.967  1.00  0.00    -0.079 N 
HETATM   13  H   UNL     1      29.781  75.621  24.356  1.00  0.00     0.274 HD
HETATM   14  H   UNL     1      31.113  74.656  24.617  1.00  0.00     0.274 HD
HETATM   15  H   UNL     1      29.784  74.044  23.820  1.00  0.00     0.274 HD
ENDBRANCH  11  12
ENDBRANCH  10  11
ENDBRANCH   9  10
ENDBRANCH   4   9
ENDBRANCH   3   4
TORSDOF 6
ENDMDL
MODEL 5
REMARK VINA RESULT:      -4.2      1.930      3.554
REMARK  6 active torsions:
REMARK  status: ('A' for Active; 'I' for Inactive)
REMARK    1  A    between atoms: N_3  and  CA_7 
REMARK    2  A    between atoms: N_4  and  C_8 
REMARK    3  A    between atoms: C_5  and  C_6 
REMARK    4  A    between atoms: C_5  and  CA_7 
REMARK    5  A    between atoms: C_6  and  C_8 
REMARK    6  A    between atoms: CA_7  and  C_9 
ROOT
HETATM    1  O   UNL     1      33.188  77.689  22.930  1.00  0.00    -0.646 OA
HETATM    2  OXT UNL     1      33.250  75.451  22.573  1.00  0.00    -0.646 OA
HETATM    3  C   UNL     1      32.636  76.509  22.539  1.00  0.00     0.204 C 
ENDROOT
BRANCH   3   4
HETATM    4  CA  UNL     1      31.201  76.680  22.072  1.00  0.00     0.283 C 
BRANCH   4   5
HETATM    5  N   UNL     1      30.320  76.452  23.217  1.00  0.00    -0.065 N 
HETATM    6  H   UNL     1      30.423  77.219  23.883  1.00  0.00     0.275 HD
HETATM    7  H   UNL     1      30.571  75.573  23.669  1.00  0.00     0.275 HD
HETATM    8  H   UNL     1      29.352  76.407  22.897  1.00  0.00     0.275 HD
ENDBRANCH   4   5
BRANCH   4   9
HETATM    9  C   UNL     1      30.963  78.044  21.405  1.00  0.00     0.045 C 
BRANCH   9  10
HETATM   10  C   UNL     1      30.049  78.997  22.186  1.00  0.00     0.030 C 
BRANCH  10  11
HETATM   11  C   UNL     1      30.849  80.157  22.780  1.00  0.00     0.230 C 
BRANCH  11  12
HETATM   12  N   UNL     1      31.953  80.516  21.897  1.00  0.00    -0.079 N 
HETATM   13  H   UNL     1      31.671  80.380  20.927  1.00  0.00     0.274 HD
HETATM   14  H   UNL     1      32.758  79.924  22.102  1.00  0.00     0.274 HD
HETATM   15  H   UNL     1      32.203  81.493  22.045  1.00  0.00     0.274 HD
ENDBRANCH  11  12
ENDBRANCH  10  11
ENDBRANCH   9  10
ENDBRANCH   4   9
ENDBRANCH   3   4
TORSDOF 6
ENDMDL
MODEL 6
REMARK VINA RESULT:      -4.2      2.911      3.756
REMARK  6 active torsions:
REMARK  status: ('A' for Active; 'I' for Inactive)
REMARK    1  A    between atoms: N_3  and  CA_7 
REMARK    2  A    between atoms: N_4  and  C_8 
REMARK    3  A    between atoms: C_5  and  C_6 
REMARK    4  A    between atoms: C_5  and  CA_7 
REMARK    5  A    between atoms: C_6  and  C_8 
REMARK    6  A    between atoms: CA_7  and  C_9 
ROOT
HETATM    1  O   UNL     1      30.962  77.040  22.749  1.00  0.00    -0.646 OA
HETATM    2  OXT UNL     1      33.075  77.843  22.923  1.00  0.00    -0.646 OA
HETATM    3  C   UNL     1      32.309  76.950  22.585  1.00  0.00     0.204 C 
ENDROOT
BRANCH   3   4
HETATM    4  CA  UNL     1      32.716  75.634  21.946  1.00  0.00     0.283 C 
BRANCH   4   5
HETATM    5  N   UNL     1      33.508  74.882  22.921  1.00  0.00    -0.065 N 
HETATM    6  H   UNL     1      34.460  74.770  22.571  1.00  0.00     0.275 HD
HETATM    7  H   UNL     1      33.087  73.964  23.064  1.00  0.00     0.275 HD
HETATM    8  H   UNL     1      33.527  75.389  23.806  1.00  0.00     0.275 HD
ENDBRANCH   4   5
BRANCH   4   9
HETATM    9  C   UNL     1      31.509  74.839  21.426  1.00  0.00     0.045 C 
BRANCH   9  10
HETATM   10  C   UNL     1      31.276  73.487  22.114  1.00  0.00     0.030 C 
BRANCH  10  11
HETATM   11  C   UNL     1      30.002  73.516  22.958  1.00  0.00     0.230 C 
BRANCH  11  12
HETATM   12  N   UNL     1      30.159  74.433  24.082  1.00  0.00    -0.079 N 
HETATM   13  H   UNL     1      30.657  73.963  24.837  1.00  0.00     0.274 HD
HETATM   14  H   UNL     1      29.239  74.726  24.412  1.00  0.00     0.274 HD
HETATM   15  H   UNL     1      30.689  75.251  23.782  1.00  0.00     0.274 HD
ENDBRANCH  11  12
ENDBRANCH  10  11
ENDBRANCH   9  10
ENDBRANCH   4   9
ENDBRANCH   3   4
TORSDOF 6
ENDMDL
MODEL 7
REMARK VINA RESULT:      -4.1      1.567      2.134
REMARK  6 active torsions:
REMARK  status: ('A' for Active; 'I' for Inactive)
REMARK    1  A    between atoms: N_3  and  CA_7 
REMARK    2  A    between atoms: N_4  and  C_8 
REMARK    3  A    between atoms: C_5  and  C_6 
REMARK    4  A    between atoms: C_5  and  CA_7 
REMARK    5  A    between atoms: C_6  and  C_8 
REMARK    6  A    between atoms: CA_7  and  C_9 
ROOT
HETATM    1  O   UNL     1      32.499  79.623  22.845  1.00  0.00    -0.646 OA
HETATM    2  OXT UNL     1      32.968  77.405  22.827  1.00  0.00    -0.646 OA
HETATM    3  C   UNL     1      32.268  78.339  22.459  1.00  0.00     0.204 C 
ENDROOT
BRANCH   3   4
HETATM    4  CA  UNL     1      31.064  78.230  21.540  1.00  0.00     0.283 C 
BRANCH   4   5
HETATM    5  N   UNL     1      30.239  79.423  21.729  1.00  0.00    -0.065 N 
HETATM    6  H   UNL     1      29.994  79.814  20.819  1.00  0.00     0.275 HD
HETATM    7  H   UNL     1      30.761  80.114  22.268  1.00  0.00     0.275 HD
HETATM    8  H   UNL     1      29.388  79.171  22.233  1.00  0.00     0.275 HD
ENDBRANCH   4   5
BRANCH   4   9
HETATM    9  C   UNL     1      31.467  78.015  20.073  1.00  0.00     0.045 C 
BRANCH   9  10
HETATM   10  C   UNL     1      31.207  76.604  19.529  1.00  0.00     0.030 C 
BRANCH  10  11
HETATM   11  C   UNL     1      32.513  75.820  19.397  1.00  0.00     0.230 C 
BRANCH  11  12
HETATM   12  N   UNL     1      32.861  75.198  20.670  1.00  0.00    -0.079 N 
HETATM   13  H   UNL     1      33.447  75.834  21.210  1.00  0.00     0.274 HD
HETATM   14  H   UNL     1      33.370  74.331  20.497  1.00  0.00     0.274 HD
HETATM   15  H   UNL     1      32.009  74.994  21.193  1.00  0.00     0.274 HD
ENDBRANCH  11  12
ENDBRANCH  10  11
ENDBRANCH   9  10
ENDBRANCH   4   9
ENDBRANCH   3   4
TORSDOF 6
ENDMDL
MODEL 8
REMARK VINA RESULT:      -4.1      2.643      3.081
REMARK  6 active torsions:
REMARK  status: ('A' for Active; 'I' for Inactive)
REMARK    1  A    between atoms: N_3  and  CA_7 
REMARK    2  A    between atoms: N_4  and  C_8 
REMARK    3  A    between atoms: C_5  and  C_6 
REMARK    4  A    between atoms: C_5  and  CA_7 
REMARK    5  A    between atoms: C_6  and  C_8 
REMARK    6  A    between atoms: CA_7  and  C_9 
ROOT
HETATM    1  O   UNL     1      32.308  78.466  18.609  1.00  0.00    -0.646 OA
HETATM    2  OXT UNL     1      30.882  76.804  19.196  1.00  0.00    -0.646 OA
HETATM    3  C   UNL     1      31.557  77.776  19.509  1.00  0.00     0.204 C 
ENDROOT
BRANCH   3   4
HETATM    4  CA  UNL     1      31.668  78.358  20.907  1.00  0.00     0.283 C 
BRANCH   4   5
HETATM    5  N   UNL     1      30.417  79.054  21.209  1.00  0.00    -0.065 N 
HETATM    6  H   UNL     1      30.336  79.184  22.218  1.00  0.00     0.275 HD
HETATM    7  H   UNL     1      29.630  78.500  20.873  1.00  0.00     0.275 HD
HETATM    8  H   UNL     1      30.415  79.964  20.748  1.00  0.00     0.275 HD
ENDBRANCH   4   5
BRANCH   4   9
HETATM    9  C   UNL     1      32.022  77.293  21.957  1.00  0.00     0.045 C 
BRANCH   9  10
HETATM   10  C   UNL     1      30.826  76.728  22.735  1.00  0.00     0.030 C 
BRANCH  10  11
HETATM   11  C   UNL     1      30.929  75.208  22.868  1.00  0.00     0.230 C 
BRANCH  11  12
HETATM   12  N   UNL     1      30.159  74.746  24.017  1.00  0.00    -0.079 N 
HETATM   13  H   UNL     1      29.437  74.098  23.704  1.00  0.00     0.274 HD
HETATM   14  H   UNL     1      29.721  75.545  24.476  1.00  0.00     0.274 HD
HETATM   15  H   UNL     1      30.779  74.274  24.674  1.00  0.00     0.274 HD
ENDBRANCH  11  12
ENDBRANCH  10  11
ENDBRANCH   9  10
ENDBRANCH   4   9
ENDBRANCH   3   4
TORSDOF 6
ENDMDL
MODEL 9
REMARK VINA RESULT:      -4.0      2.262      2.926
REMARK  6 active torsions:
REMARK  status: ('A' for Active; 'I' for Inactive)
REMARK    1  A    between atoms: N_3  and  CA_7 
REMARK    2  A    between atoms: N_4  and  C_8 
REMARK    3  A    between atoms: C_5  and  C_6 
REMARK    4  A    between atoms: C_5  and  CA_7 
REMARK    5  A    between atoms: C_6  and  C_8 
REMARK    6  A    between atoms: CA_7  and  C_9 
ROOT
HETATM    1  O   UNL     1      30.758  78.349  22.675  1.00  0.00    -0.646 OA
HETATM    2  OXT UNL     1      30.807  78.630  20.425  1.00  0.00    -0.646 OA
HETATM    3  C   UNL     1      31.183  78.029  21.423  1.00  0.00     0.204 C 
ENDROOT
BRANCH   3   4
HETATM    4  CA  UNL     1      32.155  76.862  21.435  1.00  0.00     0.283 C 
BRANCH   4   5
HETATM    5  N   UNL     1      32.883  76.891  22.704  1.00  0.00    -0.065 N 
HETATM    6  H   UNL     1      33.112  77.856  22.943  1.00  0.00     0.275 HD
HETATM    7  H   UNL     1      33.742  76.349  22.615  1.00  0.00     0.275 HD
HETATM    8  H   UNL     1      32.300  76.487  23.438  1.00  0.00     0.275 HD
ENDBRANCH   4   5
BRANCH   4   9
HETATM    9  C   UNL     1      31.457  75.517  21.183  1.00  0.00     0.045 C 
BRANCH   9  10
HETATM   10  C   UNL     1      31.748  74.430  22.226  1.00  0.00     0.030 C 
BRANCH  10  11
HETATM   11  C   UNL     1      30.459  73.957  22.898  1.00  0.00     0.230 C 
BRANCH  11  12
HETATM   12  N   UNL     1      30.104  74.849  23.996  1.00  0.00    -0.079 N 
HETATM   13  H   UNL     1      30.822  75.567  24.097  1.00  0.00     0.274 HD
HETATM   14  H   UNL     1      30.035  74.313  24.861  1.00  0.00     0.274 HD
HETATM   15  H   UNL     1      29.207  75.292  23.798  1.00  0.00     0.274 HD
ENDBRANCH  11  12
ENDBRANCH  10  11
ENDBRANCH   9  10
ENDBRANCH   4   9
ENDBRANCH   3   4
TORSDOF 6
ENDMDL
