MODEL 1
REMARK VINA RESULT:      -4.9      0.000      0.000
REMARK  6 active torsions:
REMARK  status: ('A' for Active; 'I' for Inactive)
REMARK    1  A    between atoms: N_3  and  CA_7 
REMARK    2  A    between atoms: N_4  and  C_8 
REMARK    3  A    between atoms: C_5  and  C_6 
REMARK    4  A    between atoms: C_5  and  CA_7 
REMARK    5  A    between atoms: C_6  and  C_8 
REMARK    6  A    between atoms: CA_7  and  C_9 
ROOT
HETATM    1  O   UNL     1      32.955  79.318  23.141  1.00  0.00    -0.646 OA
HETATM    2  OXT UNL     1      31.898  81.166  22.360  1.00  0.00    -0.646 OA
HETATM    3  C   UNL     1      31.913  79.956  22.542  1.00  0.00     0.204 C 
ENDROOT
BRANCH   3   4
HETATM    4  CA  UNL     1      30.811  78.991  22.144  1.00  0.00     0.283 C 
BRANCH   4   5
HETATM    5  N   UNL     1      29.555  79.739  22.077  1.00  0.00    -0.065 N 
HETATM    6  H   UNL     1      28.805  79.180  22.485  1.00  0.00     0.275 HD
HETATM    7  H   UNL     1      29.334  79.945  21.103  1.00  0.00     0.275 HD
HETATM    8  H   UNL     1      29.652  80.611  22.596  1.00  0.00     0.275 HD
ENDBRANCH   4   5
BRANCH   4   9
HETATM    9  C   UNL     1      31.128  78.249  20.836  1.00  0.00     0.045 C 
BRANCH   9  10
HETATM   10  C   UNL     1      31.464  76.760  21.000  1.00  0.00     0.030 C 
BRANCH  10  11
HETATM   11  C   UNL     1      31.193  76.293  22.430  1.00  0.00     0.230 C 
BRANCH  11  12
HETATM   12  N   UNL     1      32.448  76.009  23.117  1.00  0.00    -0.079 N 
HETATM   13  H   UNL     1      32.271  75.891  24.114  1.00  0.00     0.274 HD
HETATM   14  H   UNL     1      33.096  76.784  22.975  1.00  0.00     0.274 HD
HETATM   15  H   UNL     1      32.855  75.152  22.741  1.00  0.00     0.274 HD
ENDBRANCH  11  12
ENDBRANCH  10  11
ENDBRANCH   9  10
ENDBRANCH   4   9
ENDBRANCH   3   4
TORSDOF 6
ENDMDL
MODEL 2
REMARK VINA RESULT:      -4.4      1.726      2.117
REMARK  6 active torsions:
REMARK  status: ('A' for Active; 'I' for Inactive)
REMARK    1  A    between atoms: N_3  and  CA_7 
REMARK    2  A    between atoms: N_4  and  C_8 
REMARK    3  A    between atoms: C_5  and  C_6 
REMARK    4  A    between atoms: C_5  and  CA_7 
REMARK    5  A    between atoms: C_6  and  C_8 
REMARK    6  A    between atoms: CA_7  and  C_9 
ROOT
HETATM    1  O   UNL     1      32.939  79.300  23.135  1.00  0.00    -0.646 OA
HETATM    2  OXT UNL     1      31.866  81.156  22.397  1.00  0.00    -0.646 OA
HETATM    3  C   UNL     1      31.896  79.941  22.542  1.00  0.00     0.204 C 
ENDROOT
BRANCH   3   4
HETATM    4  CA  UNL     1      30.812  78.974  22.099  1.00  0.00     0.283 C 
BRANCH   4   5
HETATM    5  N   UNL     1      29.518  79.637  22.260  1.00  0.00    -0.065 N 
HETATM    6  H   UNL     1      29.619  80.632  22.060  1.00  0.00     0.275 HD
HETATM    7  H   UNL     1      29.191  79.514  23.218  1.00  0.00     0.275 HD
HETATM    8  H   UNL     1      28.843  79.226  21.615  1.00  0.00     0.275 HD
ENDBRANCH   4   5
BRANCH   4   9
HETATM    9  C   UNL     1      31.039  78.458  20.669  1.00  0.00     0.045 C 
BRANCH   9  10
HETATM   10  C   UNL     1      31.346  76.958  20.562  1.00  0.00     0.030 C 
BRANCH  10  11
HETATM   11  C   UNL     1      31.267  76.486  19.110  1.00  0.00     0.230 C 
BRANCH  11  12
HETATM   12  N   UNL     1      30.700  77.533  18.267  1.00  0.00    -0.079 N 
HETATM   13  H   UNL     1      31.292  77.669  17.448  1.00  0.00     0.274 HD
HETATM   14  H   UNL     1      30.648  78.404  18.796  1.00  0.00     0.274 HD
HETATM   15  H   UNL     1      29.764  77.260  17.968  1.00  0.00     0.274 HD
ENDBRANCH  11  12
ENDBRANCH  10  11
ENDBRANCH   9  10
ENDBRANCH   4   9
ENDBRANCH   3   4
TORSDOF 6
ENDMDL
MODEL 3
REMARK VINA RESULT:      -4.4      1.982      2.094
REMARK  6 active torsions:
REMARK  status: ('A' for Active; 'I' for Inactive)
REMARK    1  A    between atoms: N_3  and  CA_7 
REMARK    2  A    between atoms: N_4  and  C_8 
REMARK    3  A    between atoms: C_5  and  C_6 
REMARK    4  A    between atoms: C_5  and  CA_7 
REMARK    5  A    between atoms: C_6  and  C_8 
REMARK    6  A    between atoms: CA_7  and  C_9 
ROOT
HETATM    1  O   UNL     1      29.933  77.820  23.245  1.00  0.00    -0.646 OA
HETATM    2  OXT UNL     1      28.921  79.675  22.424  1.00  0.00    -0.646 OA
HETATM    3  C   UNL     1      29.902  78.946  22.482  1.00  0.00     0.204 C 
ENDROOT
BRANCH   3   4
HETATM    4  CA  UNL     1      31.207  79.164  21.737  1.00  0.00     0.283 C 
BRANCH   4   5
HETATM    5  N   UNL     1      31.672  80.521  22.024  1.00  0.00    -0.065 N 
HETATM    6  H   UNL     1      32.660  80.494  22.281  1.00  0.00     0.275 HD
HETATM    7  H   UNL     1      31.130  80.910  22.795  1.00  0.00     0.275 HD
HETATM    8  H   UNL     1      31.552  81.104  21.195  1.00  0.00     0.275 HD
ENDBRANCH   4   5
BRANCH   4   9
HETATM    9  C   UNL     1      32.257  78.094  22.074  1.00  0.00     0.045 C 
BRANCH   9  10
HETATM   10  C   UNL     1      32.216  76.842  21.187  1.00  0.00     0.030 C 
BRANCH  10  11
HETATM   11  C   UNL     1      32.629  75.599  21.976  1.00  0.00     0.230 C 
BRANCH  11  12
HETATM   12  N   UNL     1      32.108  75.668  23.337  1.00  0.00    -0.079 N 
HETATM   13  H   UNL     1      31.440  74.912  23.484  1.00  0.00     0.274 HD
HETATM   14  H   UNL     1      31.642  76.564  23.478  1.00  0.00     0.274 HD
HETATM   15  H   UNL     1      32.877  75.576  24.001  1.00  0.00     0.274 HD
ENDBRANCH  11  12
ENDBRANCH  10  11
ENDBRANCH   9  10
ENDBRANCH   4   9
ENDBRANCH   3   4
TORSDOF 6
ENDMDL
MODEL 4
REMARK VINA RESULT:      -4.2      2.414      3.087
REMARK  6 active torsions:
REMARK  status: ('A' for Active; 'I' for Inactive)
REMARK    1  A    between atoms: N_3  and  CA_7 
REMARK    2  A    between atoms: N_4  and  C_8 
REMARK    3  A    between atoms: C_5  and  C_6 
REMARK    4  A    between atoms: C_5  and  CA_7 
REMARK    5  A    between atoms: C_6  and  C_8 
REMARK    6  A    between atoms: CA_7  and  C_9 
ROOT
HETATM    1  O   UNL     1      30.418  77.625  22.964  1.00  0.00    -0.646 OA
HETATM    2  OXT UNL     1      30.813  78.675  20.994  1.00  0.00    -0.646 OA
HETATM    3  C   UNL     1      31.063  77.766  21.775  1.00  0.00     0.204 C 
ENDROOT
BRANCH   3   4
HETATM    4  CA  UNL     1      32.099  76.677  21.559  1.00  0.00     0.283 C 
BRANCH   4   5
HETATM    5  N   UNL     1      32.949  76.617  22.749  1.00  0.00    -0.065 N 
HETATM    6  H   UNL     1      33.470  77.489  22.839  1.00  0.00     0.275 HD
HETATM    7  H   UNL     1      33.601  75.838  22.661  1.00  0.00     0.275 HD
HETATM    8  H   UNL     1      32.366  76.481  23.575  1.00  0.00     0.275 HD
ENDBRANCH   4   5
BRANCH   4   9
HETATM    9  C   UNL     1      31.460  75.322  21.218  1.00  0.00     0.045 C 
BRANCH   9  10
HETATM   10  C   UNL     1      31.703  74.213  22.251  1.00  0.00     0.030 C 
BRANCH  10  11
HETATM   11  C   UNL     1      30.396  73.809  22.936  1.00  0.00     0.230 C 
BRANCH  11  12
HETATM   12  N   UNL     1      30.090  74.728  24.026  1.00  0.00    -0.079 N 
HETATM   13  H   UNL     1      29.866  74.197  24.866  1.00  0.00     0.274 HD
HETATM   14  H   UNL     1      29.291  75.307  23.767  1.00  0.00     0.274 HD
HETATM   15  H   UNL     1      30.898  75.324  24.206  1.00  0.00     0.274 HD
ENDBRANCH  11  12
ENDBRANCH  10  11
ENDBRANCH   9  10
ENDBRANCH   4   9
ENDBRANCH   3   4
TORSDOF 6
ENDMDL
MODEL 5
REMARK VINA RESULT:      -4.1      1.938      3.420
REMARK  6 active torsions:
REMARK  status: ('A' for Active; 'I' for Inactive)
REMARK    1  A    between atoms: N_3  and  CA_7 
REMARK    2  A    between atoms: N_4  and  C_8 
REMARK    3  A    between atoms: C_5  and  C_6 
REMARK    4  A    between atoms: C_5  and  CA_7 
REMARK    5  A    between atoms: C_6  and  C_8 
REMARK    6  A    between atoms: CA_7  and  C_9 
ROOT
HETATM    1  O   UNL     1      33.121  75.464  22.642  1.00  0.00    -0.646 OA
HETATM    2  OXT UNL     1      33.268  77.715  22.870  1.00  0.00    -0.646 OA
HETATM    3  C   UNL     1      32.614  76.725  22.570  1.00  0.00     0.204 C 
ENDROOT
BRANCH   3   4
HETATM    4  CA  UNL     1      31.175  76.731  22.085  1.00  0.00     0.283 C 
BRANCH   4   5
HETATM    5  N   UNL     1      30.316  76.351  23.206  1.00  0.00    -0.065 N 
HETATM    6  H   UNL     1      29.882  77.186  23.601  1.00  0.00     0.275 HD
HETATM    7  H   UNL     1      30.877  75.889  23.922  1.00  0.00     0.275 HD
HETATM    8  H   UNL     1      29.591  75.714  22.877  1.00  0.00     0.275 HD
ENDBRANCH   4   5
BRANCH   4   9
HETATM    9  C   UNL     1      30.775  78.078  21.463  1.00  0.00     0.045 C 
BRANCH   9  10
HETATM   10  C   UNL     1      30.001  79.019  22.397  1.00  0.00     0.030 C 
BRANCH  10  11
HETATM   11  C   UNL     1      30.858  80.221  22.794  1.00  0.00     0.230 C 
BRANCH  11  12
HETATM   12  N   UNL     1      31.947  80.404  21.842  1.00  0.00    -0.079 N 
HETATM   13  H   UNL     1      32.101  79.536  21.329  1.00  0.00     0.274 HD
HETATM   14  H   UNL     1      32.799  80.657  22.344  1.00  0.00     0.274 HD
HETATM   15  H   UNL     1      31.706  81.147  21.187  1.00  0.00     0.274 HD
ENDBRANCH  11  12
ENDBRANCH  10  11
ENDBRANCH   9  10
ENDBRANCH   4   9
ENDBRANCH   3   4
TORSDOF 6
ENDMDL
MODEL 6
REMARK VINA RESULT:      -4.1      2.825      3.122
REMARK  6 active torsions:
REMARK  status: ('A' for Active; 'I' for Inactive)
REMARK    1  A    between atoms: N_3  and  CA_7 
REMARK    2  A    between atoms: N_4  and  C_8 
REMARK    3  A    between atoms: C_5  and  C_6 
REMARK    4  A    between atoms: C_5  and  CA_7 
REMARK    5  A    between atoms: C_6  and  C_8 
REMARK    6  A    between atoms: CA_7  and  C_9 
ROOT
HETATM    1  O   UNL     1      31.172  76.380  19.227  1.00  0.00    -0.646 OA
HETATM    2  OXT UNL     1      30.366  78.388  18.548  1.00  0.00    -0.646 OA
HETATM    3  C   UNL     1      30.931  77.708  19.395  1.00  0.00     0.204 C 
ENDROOT
BRANCH   3   4
HETATM    4  CA  UNL     1      31.443  78.213  20.732  1.00  0.00     0.283 C 
BRANCH   4   5
HETATM    5  N   UNL     1      30.393  79.032  21.340  1.00  0.00    -0.065 N 
HETATM    6  H   UNL     1      29.563  79.015  20.746  1.00  0.00     0.275 HD
HETATM    7  H   UNL     1      30.724  79.992  21.436  1.00  0.00     0.275 HD
HETATM    8  H   UNL     1      30.161  78.658  22.260  1.00  0.00     0.275 HD
ENDBRANCH   4   5
BRANCH   4   9
HETATM    9  C   UNL     1      31.907  77.071  21.649  1.00  0.00     0.045 C 
BRANCH   9  10
HETATM   10  C   UNL     1      30.878  76.620  22.695  1.00  0.00     0.030 C 
BRANCH  10  11
HETATM   11  C   UNL     1      30.860  75.097  22.823  1.00  0.00     0.230 C 
BRANCH  11  12
HETATM   12  N   UNL     1      30.177  74.699  24.049  1.00  0.00    -0.079 N 
HETATM   13  H   UNL     1      29.280  75.180  24.110  1.00  0.00     0.274 HD
HETATM   14  H   UNL     1      30.752  74.948  24.854  1.00  0.00     0.274 HD
HETATM   15  H   UNL     1      30.022  73.691  24.040  1.00  0.00     0.274 HD
ENDBRANCH  11  12
ENDBRANCH  10  11
ENDBRANCH   9  10
ENDBRANCH   4   9
ENDBRANCH   3   4
TORSDOF 6
ENDMDL
MODEL 7
REMARK VINA RESULT:      -4.1      1.812      2.304
REMARK  6 active torsions:
REMARK  status: ('A' for Active; 'I' for Inactive)
REMARK    1  A    between atoms: N_3  and  CA_7 
REMARK    2  A    between atoms: N_4  and  C_8 
REMARK    3  A    between atoms: C_5  and  C_6 
REMARK    4  A    between atoms: C_5  and  CA_7 
REMARK    5  A    between atoms: C_6  and  C_8 
REMARK    6  A    between atoms: CA_7  and  C_9 
ROOT
HETATM    1  O   UNL     1      31.854  81.101  22.294  1.00  0.00    -0.646 OA
HETATM    2  OXT UNL     1      33.021  79.362  23.162  1.00  0.00    -0.646 OA
HETATM    3  C   UNL     1      32.030  79.783  22.580  1.00  0.00     0.204 C 
ENDROOT
BRANCH   3   4
HETATM    4  CA  UNL     1      30.866  78.937  22.094  1.00  0.00     0.283 C 
BRANCH   4   5
HETATM    5  N   UNL     1      29.642  79.725  22.234  1.00  0.00    -0.065 N 
HETATM    6  H   UNL     1      29.714  80.322  23.059  1.00  0.00     0.275 HD
HETATM    7  H   UNL     1      28.844  79.099  22.335  1.00  0.00     0.275 HD
HETATM    8  H   UNL     1      29.516  80.306  21.404  1.00  0.00     0.275 HD
ENDBRANCH   4   5
BRANCH   4   9
HETATM    9  C   UNL     1      31.078  78.420  20.663  1.00  0.00     0.045 C 
BRANCH   9  10
HETATM   10  C   UNL     1      31.679  77.011  20.564  1.00  0.00     0.030 C 
BRANCH  10  11
HETATM   11  C   UNL     1      32.190  76.733  19.150  1.00  0.00     0.230 C 
BRANCH  11  12
HETATM   12  N   UNL     1      31.097  76.279  18.297  1.00  0.00    -0.079 N 
HETATM   13  H   UNL     1      30.545  77.081  17.994  1.00  0.00     0.274 HD
HETATM   14  H   UNL     1      30.502  75.636  18.821  1.00  0.00     0.274 HD
HETATM   15  H   UNL     1      31.478  75.801  17.481  1.00  0.00     0.274 HD
ENDBRANCH  11  12
ENDBRANCH  10  11
ENDBRANCH   9  10
ENDBRANCH   4   9
ENDBRANCH   3   4
TORSDOF 6
ENDMDL
MODEL 8
REMARK VINA RESULT:      -4.1      1.441      1.705
REMARK  6 active torsions:
REMARK  status: ('A' for Active; 'I' for Inactive)
REMARK    1  A    between atoms: N_3  and  CA_7 
REMARK    2  A    between atoms: N_4  and  C_8 
REMARK    3  A    between atoms: C_5  and  C_6 
REMARK    4  A    between atoms: C_5  and  CA_7 
REMARK    5  A    between atoms: C_6  and  C_8 
REMARK    6  A    between atoms: CA_7  and  C_9 
ROOT
HETATM    1  O   UNL     1      32.931  77.597  22.867  1.00  0.00    -0.646 OA
HETATM    2  OXT UNL     1      32.505  79.824  22.835  1.00  0.00    -0.646 OA
HETATM    3  C   UNL     1      32.212  78.688  22.487  1.00  0.00     0.204 C 
ENDROOT
BRANCH   3   4
HETATM    4  CA  UNL     1      31.037  78.313  21.601  1.00  0.00     0.283 C 
BRANCH   4   5
HETATM    5  N   UNL     1      30.026  79.363  21.720  1.00  0.00    -0.065 N 
HETATM    6  H   UNL     1      29.099  78.962  21.573  1.00  0.00     0.275 HD
HETATM    7  H   UNL     1      30.200  80.083  21.019  1.00  0.00     0.275 HD
HETATM    8  H   UNL     1      30.074  79.777  22.652  1.00  0.00     0.275 HD
ENDBRANCH   4   5
BRANCH   4   9
HETATM    9  C   UNL     1      31.459  78.061  20.146  1.00  0.00     0.045 C 
BRANCH   9  10
HETATM   10  C   UNL     1      31.232  76.628  19.643  1.00  0.00     0.030 C 
BRANCH  10  11
HETATM   11  C   UNL     1      32.537  75.833  19.650  1.00  0.00     0.230 C 
BRANCH  11  12
HETATM   12  N   UNL     1      32.738  75.200  20.948  1.00  0.00    -0.079 N 
HETATM   13  H   UNL     1      32.660  75.901  21.684  1.00  0.00     0.274 HD
HETATM   14  H   UNL     1      33.666  74.777  20.980  1.00  0.00     0.274 HD
HETATM   15  H   UNL     1      32.031  74.479  21.088  1.00  0.00     0.274 HD
ENDBRANCH  11  12
ENDBRANCH  10  11
ENDBRANCH   9  10
ENDBRANCH   4   9
ENDBRANCH   3   4
TORSDOF 6
ENDMDL
MODEL 9
REMARK VINA RESULT:      -4.0      1.937      2.266
REMARK  6 active torsions:
REMARK  status: ('A' for Active; 'I' for Inactive)
REMARK    1  A    between atoms: N_3  and  CA_7 
REMARK    2  A    between atoms: N_4  and  C_8 
REMARK    3  A    between atoms: C_5  and  C_6 
REMARK    4  A    between atoms: C_5  and  CA_7 
REMARK    5  A    between atoms: C_6  and  C_8 
REMARK    6  A    between atoms: CA_7  and  C_9 
ROOT
HETATM    1  O   UNL     1      30.531  78.421  22.769  1.00  0.00    -0.646 OA
HETATM    2  OXT UNL     1      31.721  79.609  21.247  1.00  0.00    -0.646 OA
HETATM    3  C   UNL     1      31.167  78.568  21.575  1.00  0.00     0.204 C 
ENDROOT
BRANCH   3   4
HETATM    4  CA  UNL     1      31.096  77.305  20.735  1.00  0.00     0.283 C 
BRANCH   4   5
HETATM    5  N   UNL     1      30.799  77.693  19.356  1.00  0.00    -0.065 N 
HETATM    6  H   UNL     1      31.548  78.288  19.002  1.00  0.00     0.275 HD
HETATM    7  H   UNL     1      29.917  78.203  19.329  1.00  0.00     0.275 HD
HETATM    8  H   UNL     1      30.726  76.856  18.776  1.00  0.00     0.275 HD
ENDBRANCH   4   5
BRANCH   4   9
HETATM    9  C   UNL     1      32.371  76.455  20.849  1.00  0.00     0.045 C 
BRANCH   9  10
HETATM   10  C   UNL     1      32.518  75.680  22.166  1.00  0.00     0.030 C 
BRANCH  10  11
HETATM   11  C   UNL     1      31.234  74.920  22.499  1.00  0.00     0.230 C 
BRANCH  11  12
HETATM   12  N   UNL     1      30.665  75.411  23.749  1.00  0.00    -0.079 N 
HETATM   13  H   UNL     1      30.593  76.428  23.714  1.00  0.00     0.274 HD
HETATM   14  H   UNL     1      31.266  75.139  24.526  1.00  0.00     0.274 HD
HETATM   15  H   UNL     1      29.736  75.010  23.880  1.00  0.00     0.274 HD
ENDBRANCH  11  12
ENDBRANCH  10  11
ENDBRANCH   9  10
ENDBRANCH   4   9
ENDBRANCH   3   4
TORSDOF 6
ENDMDL
