MODEL 1
REMARK VINA RESULT:      -4.9      0.000      0.000
REMARK  6 active torsions:
REMARK  status: ('A' for Active; 'I' for Inactive)
REMARK    1  A    between atoms: N_3  and  CA_7 
REMARK    2  A    between atoms: N_4  and  C_8 
REMARK    3  A    between atoms: C_5  and  C_6 
REMARK    4  A    between atoms: C_5  and  CA_7 
REMARK    5  A    between atoms: C_6  and  C_8 
REMARK    6  A    between atoms: CA_7  and  C_9 
ROOT
HETATM    1  O   UNL     1      32.950  79.284  23.151  1.00  0.00    -0.646 OA
HETATM    2  OXT UNL     1      31.903  81.144  22.389  1.00  0.00    -0.646 OA
HETATM    3  C   UNL     1      31.913  79.932  22.556  1.00  0.00     0.204 C 
ENDROOT
BRANCH   3   4
HETATM    4  CA  UNL     1      30.808  78.976  22.142  1.00  0.00     0.283 C 
BRANCH   4   5
HETATM    5  N   UNL     1      29.561  79.735  22.053  1.00  0.00    -0.065 N 
HETATM    6  H   UNL     1      29.770  80.734  22.057  1.00  0.00     0.275 HD
HETATM    7  H   UNL     1      28.967  79.509  22.851  1.00  0.00     0.275 HD
HETATM    8  H   UNL     1      29.076  79.493  21.189  1.00  0.00     0.275 HD
ENDBRANCH   4   5
BRANCH   4   9
HETATM    9  C   UNL     1      31.139  78.228  20.841  1.00  0.00     0.045 C 
BRANCH   9  10
HETATM   10  C   UNL     1      31.440  76.733  21.011  1.00  0.00     0.030 C 
BRANCH  10  11
HETATM   11  C   UNL     1      31.187  76.285  22.451  1.00  0.00     0.230 C 
BRANCH  11  12
HETATM   12  N   UNL     1      32.450  75.996  23.121  1.00  0.00    -0.079 N 
HETATM   13  H   UNL     1      32.923  76.871  23.347  1.00  0.00     0.274 HD
HETATM   14  H   UNL     1      33.043  75.440  22.504  1.00  0.00     0.274 HD
HETATM   15  H   UNL     1      32.269  75.475  23.979  1.00  0.00     0.274 HD
ENDBRANCH  11  12
ENDBRANCH  10  11
ENDBRANCH   9  10
ENDBRANCH   4   9
ENDBRANCH   3   4
TORSDOF 6
ENDMDL
MODEL 2
REMARK VINA RESULT:      -4.4      1.744      2.120
REMARK  6 active torsions:
REMARK  status: ('A' for Active; 'I' for Inactive)
REMARK    1  A    between atoms: N_3  and  CA_7 
REMARK    2  A    between atoms: N_4  and  C_8 
REMARK    3  A    between atoms: C_5  and  C_6 
REMARK    4  A    between atoms: C_5  and  CA_7 
REMARK    5  A    between atoms: C_6  and  C_8 
REMARK    6  A    between atoms: CA_7  and  C_9 
ROOT
HETATM    1  O   UNL     1      32.956  79.331  23.124  1.00  0.00    -0.646 OA
HETATM    2  OXT UNL     1      31.856  81.195  22.447  1.00  0.00    -0.646 OA
HETATM    3  C   UNL     1      31.899  79.977  22.561  1.00  0.00     0.204 C 
ENDROOT
BRANCH   3   4
HETATM    4  CA  UNL     1      30.819  79.011  22.109  1.00  0.00     0.283 C 
BRANCH   4   5
HETATM    5  N   UNL     1      29.523  79.672  22.267  1.00  0.00    -0.065 N 
HETATM    6  H   UNL     1      28.858  79.279  21.601  1.00  0.00     0.275 HD
HETATM    7  H   UNL     1      29.629  80.671  22.094  1.00  0.00     0.275 HD
HETATM    8  H   UNL     1      29.181  79.526  23.217  1.00  0.00     0.275 HD
ENDBRANCH   4   5
BRANCH   4   9
HETATM    9  C   UNL     1      31.052  78.501  20.679  1.00  0.00     0.045 C 
BRANCH   9  10
HETATM   10  C   UNL     1      31.389  77.007  20.569  1.00  0.00     0.030 C 
BRANCH  10  11
HETATM   11  C   UNL     1      31.222  76.513  19.132  1.00  0.00     0.230 C 
BRANCH  11  12
HETATM   12  N   UNL     1      30.695  77.579  18.288  1.00  0.00    -0.079 N 
HETATM   13  H   UNL     1      30.379  77.187  17.401  1.00  0.00     0.274 HD
HETATM   14  H   UNL     1      31.428  78.267  18.112  1.00  0.00     0.274 HD
HETATM   15  H   UNL     1      29.911  78.030  18.759  1.00  0.00     0.274 HD
ENDBRANCH  11  12
ENDBRANCH  10  11
ENDBRANCH   9  10
ENDBRANCH   4   9
ENDBRANCH   3   4
TORSDOF 6
ENDMDL
MODEL 3
REMARK VINA RESULT:      -4.3      2.091      2.207
REMARK  6 active torsions:
REMARK  status: ('A' for Active; 'I' for Inactive)
REMARK    1  A    between atoms: N_3  and  CA_7 
REMARK    2  A    between atoms: N_4  and  C_8 
REMARK    3  A    between atoms: C_5  and  C_6 
REMARK    4  A    between atoms: C_5  and  CA_7 
REMARK    5  A    between atoms: C_6  and  C_8 
REMARK    6  A    between atoms: CA_7  and  C_9 
ROOT
HETATM    1  O   UNL     1      29.637  78.013  23.289  1.00  0.00    -0.646 OA
HETATM    2  OXT UNL     1      28.718  79.878  22.383  1.00  0.00    -0.646 OA
HETATM    3  C   UNL     1      29.661  79.104  22.476  1.00  0.00     0.204 C 
ENDROOT
BRANCH   3   4
HETATM    4  CA  UNL     1      30.976  79.223  21.725  1.00  0.00     0.283 C 
BRANCH   4   5
HETATM    5  N   UNL     1      31.878  80.058  22.518  1.00  0.00    -0.065 N 
HETATM    6  H   UNL     1      32.844  79.849  22.266  1.00  0.00     0.275 HD
HETATM    7  H   UNL     1      31.735  79.865  23.510  1.00  0.00     0.275 HD
HETATM    8  H   UNL     1      31.682  81.041  22.331  1.00  0.00     0.275 HD
ENDBRANCH   4   5
BRANCH   4   9
HETATM    9  C   UNL     1      31.582  77.851  21.388  1.00  0.00     0.045 C 
BRANCH   9  10
HETATM   10  C   UNL     1      32.722  77.402  22.312  1.00  0.00     0.030 C 
BRANCH  10  11
HETATM   11  C   UNL     1      32.610  75.911  22.633  1.00  0.00     0.230 C 
BRANCH  11  12
HETATM   12  N   UNL     1      31.573  75.684  23.632  1.00  0.00    -0.079 N 
HETATM   13  H   UNL     1      31.983  75.724  24.565  1.00  0.00     0.274 HD
HETATM   14  H   UNL     1      31.154  74.765  23.485  1.00  0.00     0.274 HD
HETATM   15  H   UNL     1      30.854  76.403  23.546  1.00  0.00     0.274 HD
ENDBRANCH  11  12
ENDBRANCH  10  11
ENDBRANCH   9  10
ENDBRANCH   4   9
ENDBRANCH   3   4
TORSDOF 6
ENDMDL
MODEL 4
REMARK VINA RESULT:      -4.3      1.837      2.109
REMARK  6 active torsions:
REMARK  status: ('A' for Active; 'I' for Inactive)
REMARK    1  A    between atoms: N_3  and  CA_7 
REMARK    2  A    between atoms: N_4  and  C_8 
REMARK    3  A    between atoms: C_5  and  C_6 
REMARK    4  A    between atoms: C_5  and  CA_7 
REMARK    5  A    between atoms: C_6  and  C_8 
REMARK    6  A    between atoms: CA_7  and  C_9 
ROOT
HETATM    1  O   UNL     1      29.241  79.426  22.533  1.00  0.00    -0.646 OA
HETATM    2  OXT UNL     1      31.357  80.144  22.917  1.00  0.00    -0.646 OA
HETATM    3  C   UNL     1      30.594  79.300  22.466  1.00  0.00     0.204 C 
ENDROOT
BRANCH   3   4
HETATM    4  CA  UNL     1      31.011  78.011  21.779  1.00  0.00     0.283 C 
BRANCH   4   5
HETATM    5  N   UNL     1      30.969  78.234  20.333  1.00  0.00    -0.065 N 
HETATM    6  H   UNL     1      30.005  78.163  20.006  1.00  0.00     0.275 HD
HETATM    7  H   UNL     1      31.541  77.531  19.865  1.00  0.00     0.275 HD
HETATM    8  H   UNL     1      31.333  79.164  20.122  1.00  0.00     0.275 HD
ENDBRANCH   4   5
BRANCH   4   9
HETATM    9  C   UNL     1      32.381  77.509  22.261  1.00  0.00     0.045 C 
BRANCH   9  10
HETATM   10  C   UNL     1      32.436  76.017  22.616  1.00  0.00     0.030 C 
BRANCH  10  11
HETATM   11  C   UNL     1      31.034  75.407  22.636  1.00  0.00     0.230 C 
BRANCH  11  12
HETATM   12  N   UNL     1      30.615  75.148  24.008  1.00  0.00    -0.079 N 
HETATM   13  H   UNL     1      30.874  75.937  24.599  1.00  0.00     0.274 HD
HETATM   14  H   UNL     1      31.074  74.303  24.350  1.00  0.00     0.274 HD
HETATM   15  H   UNL     1      29.603  75.020  24.037  1.00  0.00     0.274 HD
ENDBRANCH  11  12
ENDBRANCH  10  11
ENDBRANCH   9  10
ENDBRANCH   4   9
ENDBRANCH   3   4
TORSDOF 6
ENDMDL
MODEL 5
REMARK VINA RESULT:      -4.2      1.908      3.534
REMARK  6 active torsions:
REMARK  status: ('A' for Active; 'I' for Inactive)
REMARK    1  A    between atoms: N_3  and  CA_7 
REMARK    2  A    between atoms: N_4  and  C_8 
REMARK    3  A    between atoms: C_5  and  C_6 
REMARK    4  A    between atoms: C_5  and  CA_7 
REMARK    5  A    between atoms: C_6  and  C_8 
REMARK    6  A    between atoms: CA_7  and  C_9 
ROOT
HETATM    1  O   UNL     1      33.184  77.771  22.892  1.00  0.00    -0.646 OA
HETATM    2  OXT UNL     1      33.238  75.508  22.756  1.00  0.00    -0.646 OA
HETATM    3  C   UNL     1      32.634  76.561  22.601  1.00  0.00     0.204 C 
ENDROOT
BRANCH   3   4
HETATM    4  CA  UNL     1      31.215  76.694  22.077  1.00  0.00     0.283 C 
BRANCH   4   5
HETATM    5  N   UNL     1      30.295  76.451  23.189  1.00  0.00    -0.065 N 
HETATM    6  H   UNL     1      30.789  75.963  23.938  1.00  0.00     0.275 HD
HETATM    7  H   UNL     1      29.515  75.879  22.867  1.00  0.00     0.275 HD
HETATM    8  H   UNL     1      29.942  77.342  23.539  1.00  0.00     0.275 HD
ENDBRANCH   4   5
BRANCH   4   9
HETATM    9  C   UNL     1      30.970  78.047  21.392  1.00  0.00     0.045 C 
BRANCH   9  10
HETATM   10  C   UNL     1      30.040  79.002  22.155  1.00  0.00     0.030 C 
BRANCH  10  11
HETATM   11  C   UNL     1      30.831  80.153  22.777  1.00  0.00     0.230 C 
BRANCH  11  12
HETATM   12  N   UNL     1      31.930  80.544  21.902  1.00  0.00    -0.079 N 
HETATM   13  H   UNL     1      32.448  81.312  22.328  1.00  0.00     0.274 HD
HETATM   14  H   UNL     1      31.557  80.845  21.001  1.00  0.00     0.274 HD
HETATM   15  H   UNL     1      32.554  79.749  21.763  1.00  0.00     0.274 HD
ENDBRANCH  11  12
ENDBRANCH  10  11
ENDBRANCH   9  10
ENDBRANCH   4   9
ENDBRANCH   3   4
TORSDOF 6
ENDMDL
MODEL 6
REMARK VINA RESULT:      -4.1      2.302      2.990
REMARK  6 active torsions:
REMARK  status: ('A' for Active; 'I' for Inactive)
REMARK    1  A    between atoms: N_3  and  CA_7 
REMARK    2  A    between atoms: N_4  and  C_8 
REMARK    3  A    between atoms: C_5  and  C_6 
REMARK    4  A    between atoms: C_5  and  CA_7 
REMARK    5  A    between atoms: C_6  and  C_8 
REMARK    6  A    between atoms: CA_7  and  C_9 
ROOT
HETATM    1  O   UNL     1      30.419  77.687  22.934  1.00  0.00    -0.646 OA
HETATM    2  OXT UNL     1      31.152  78.925  21.182  1.00  0.00    -0.646 OA
HETATM    3  C   UNL     1      31.215  77.903  21.852  1.00  0.00     0.204 C 
ENDROOT
BRANCH   3   4
HETATM    4  CA  UNL     1      32.158  76.740  21.600  1.00  0.00     0.283 C 
BRANCH   4   5
HETATM    5  N   UNL     1      33.017  76.590  22.775  1.00  0.00    -0.065 N 
HETATM    6  H   UNL     1      32.534  76.952  23.597  1.00  0.00     0.275 HD
HETATM    7  H   UNL     1      33.882  77.109  22.632  1.00  0.00     0.275 HD
HETATM    8  H   UNL     1      33.232  75.602  22.913  1.00  0.00     0.275 HD
ENDBRANCH   4   5
BRANCH   4   9
HETATM    9  C   UNL     1      31.409  75.447  21.244  1.00  0.00     0.045 C 
BRANCH   9  10
HETATM   10  C   UNL     1      31.657  74.271  22.199  1.00  0.00     0.030 C 
BRANCH  10  11
HETATM   11  C   UNL     1      30.371  73.875  22.924  1.00  0.00     0.230 C 
BRANCH  11  12
HETATM   12  N   UNL     1      30.067  74.836  23.979  1.00  0.00    -0.079 N 
HETATM   13  H   UNL     1      30.606  74.607  24.814  1.00  0.00     0.274 HD
HETATM   14  H   UNL     1      29.071  74.799  24.196  1.00  0.00     0.274 HD
HETATM   15  H   UNL     1      30.312  75.775  23.664  1.00  0.00     0.274 HD
ENDBRANCH  11  12
ENDBRANCH  10  11
ENDBRANCH   9  10
ENDBRANCH   4   9
ENDBRANCH   3   4
TORSDOF 6
ENDMDL
MODEL 7
REMARK VINA RESULT:      -4.1      1.552      2.108
REMARK  6 active torsions:
REMARK  status: ('A' for Active; 'I' for Inactive)
REMARK    1  A    between atoms: N_3  and  CA_7 
REMARK    2  A    between atoms: N_4  and  C_8 
REMARK    3  A    between atoms: C_5  and  C_6 
REMARK    4  A    between atoms: C_5  and  CA_7 
REMARK    5  A    between atoms: C_6  and  C_8 
REMARK    6  A    between atoms: CA_7  and  C_9 
ROOT
HETATM    1  O   UNL     1      32.597  79.641  22.895  1.00  0.00    -0.646 OA
HETATM    2  OXT UNL     1      32.976  77.407  22.836  1.00  0.00    -0.646 OA
HETATM    3  C   UNL     1      32.303  78.373  22.501  1.00  0.00     0.204 C 
ENDROOT
BRANCH   3   4
HETATM    4  CA  UNL     1      31.069  78.324  21.618  1.00  0.00     0.283 C 
BRANCH   4   5
HETATM    5  N   UNL     1      30.276  79.526  21.881  1.00  0.00    -0.065 N 
HETATM    6  H   UNL     1      29.296  79.267  22.001  1.00  0.00     0.275 HD
HETATM    7  H   UNL     1      30.364  80.169  21.095  1.00  0.00     0.275 HD
HETATM    8  H   UNL     1      30.615  79.977  22.730  1.00  0.00     0.275 HD
ENDBRANCH   4   5
BRANCH   4   9
HETATM    9  C   UNL     1      31.420  78.160  20.131  1.00  0.00     0.045 C 
BRANCH   9  10
HETATM   10  C   UNL     1      31.152  76.764  19.552  1.00  0.00     0.030 C 
BRANCH  10  11
HETATM   11  C   UNL     1      32.451  75.967  19.427  1.00  0.00     0.230 C 
BRANCH  11  12
HETATM   12  N   UNL     1      32.706  75.219  20.653  1.00  0.00    -0.079 N 
HETATM   13  H   UNL     1      32.229  74.319  20.609  1.00  0.00     0.274 HD
HETATM   14  H   UNL     1      32.359  75.749  21.453  1.00  0.00     0.274 HD
HETATM   15  H   UNL     1      33.710  75.067  20.756  1.00  0.00     0.274 HD
ENDBRANCH  11  12
ENDBRANCH  10  11
ENDBRANCH   9  10
ENDBRANCH   4   9
ENDBRANCH   3   4
TORSDOF 6
ENDMDL
MODEL 8
REMARK VINA RESULT:      -4.1      2.763      3.270
REMARK  6 active torsions:
REMARK  status: ('A' for Active; 'I' for Inactive)
REMARK    1  A    between atoms: N_3  and  CA_7 
REMARK    2  A    between atoms: N_4  and  C_8 
REMARK    3  A    between atoms: C_5  and  C_6 
REMARK    4  A    between atoms: C_5  and  CA_7 
REMARK    5  A    between atoms: C_6  and  C_8 
REMARK    6  A    between atoms: CA_7  and  C_9 
ROOT
HETATM    1  O   UNL     1      30.320  78.489  19.032  1.00  0.00    -0.646 OA
HETATM    2  OXT UNL     1      31.061  76.360  19.281  1.00  0.00    -0.646 OA
HETATM    3  C   UNL     1      31.054  77.526  19.653  1.00  0.00     0.204 C 
ENDROOT
BRANCH   3   4
HETATM    4  CA  UNL     1      31.837  78.080  20.831  1.00  0.00     0.283 C 
BRANCH   4   5
HETATM    5  N   UNL     1      31.095  79.219  21.373  1.00  0.00    -0.065 N 
HETATM    6  H   UNL     1      31.349  79.355  22.352  1.00  0.00     0.275 HD
HETATM    7  H   UNL     1      30.094  79.037  21.303  1.00  0.00     0.275 HD
HETATM    8  H   UNL     1      31.327  80.058  20.841  1.00  0.00     0.275 HD
ENDBRANCH   4   5
BRANCH   4   9
HETATM    9  C   UNL     1      32.133  77.008  21.891  1.00  0.00     0.045 C 
BRANCH   9  10
HETATM   10  C   UNL     1      30.926  76.587  22.742  1.00  0.00     0.030 C 
BRANCH  10  11
HETATM   11  C   UNL     1      30.853  75.065  22.871  1.00  0.00     0.230 C 
BRANCH  11  12
HETATM   12  N   UNL     1      30.077  74.694  24.049  1.00  0.00    -0.079 N 
HETATM   13  H   UNL     1      29.973  75.505  24.658  1.00  0.00     0.274 HD
HETATM   14  H   UNL     1      30.561  73.950  24.554  1.00  0.00     0.274 HD
HETATM   15  H   UNL     1      29.156  74.365  23.760  1.00  0.00     0.274 HD
ENDBRANCH  11  12
ENDBRANCH  10  11
ENDBRANCH   9  10
ENDBRANCH   4   9
ENDBRANCH   3   4
TORSDOF 6
ENDMDL
MODEL 9
REMARK VINA RESULT:      -3.9      2.821      3.795
REMARK  6 active torsions:
REMARK  status: ('A' for Active; 'I' for Inactive)
REMARK    1  A    between atoms: N_3  and  CA_7 
REMARK    2  A    between atoms: N_4  and  C_8 
REMARK    3  A    between atoms: C_5  and  C_6 
REMARK    4  A    between atoms: C_5  and  CA_7 
REMARK    5  A    between atoms: C_6  and  C_8 
REMARK    6  A    between atoms: CA_7  and  C_9 
ROOT
HETATM    1  O   UNL     1      32.366  78.369  22.628  1.00  0.00    -0.646 OA
HETATM    2  OXT UNL     1      32.053  77.260  20.675  1.00  0.00    -0.646 OA
HETATM    3  C   UNL     1      32.332  77.242  21.867  1.00  0.00     0.204 C 
ENDROOT
BRANCH   3   4
HETATM    4  CA  UNL     1      32.675  76.002  22.673  1.00  0.00     0.283 C 
BRANCH   4   5
HETATM    5  N   UNL     1      31.570  75.741  23.596  1.00  0.00    -0.065 N 
HETATM    6  H   UNL     1      31.176  74.820  23.402  1.00  0.00     0.275 HD
HETATM    7  H   UNL     1      30.850  76.453  23.474  1.00  0.00     0.275 HD
HETATM    8  H   UNL     1      31.916  75.768  24.556  1.00  0.00     0.275 HD
ENDBRANCH   4   5
BRANCH   4   9
HETATM    9  C   UNL     1      32.997  74.795  21.779  1.00  0.00     0.045 C 
BRANCH   9  10
HETATM   10  C   UNL     1      33.918  73.745  22.414  1.00  0.00     0.030 C 
BRANCH  10  11
HETATM   11  C   UNL     1      33.292  72.352  22.342  1.00  0.00     0.230 C 
BRANCH  11  12
HETATM   12  N   UNL     1      32.193  72.241  23.295  1.00  0.00    -0.079 N 
HETATM   13  H   UNL     1      31.473  71.627  22.914  1.00  0.00     0.274 HD
HETATM   14  H   UNL     1      31.795  73.165  23.464  1.00  0.00     0.274 HD
HETATM   15  H   UNL     1      32.541  71.853  24.172  1.00  0.00     0.274 HD
ENDBRANCH  11  12
ENDBRANCH  10  11
ENDBRANCH   9  10
ENDBRANCH   4   9
ENDBRANCH   3   4
TORSDOF 6
ENDMDL
