MODEL 1
REMARK VINA RESULT:      -8.4      0.000      0.000
REMARK  11 active torsions:
REMARK  status: ('A' for Active; 'I' for Inactive)
REMARK    1  A    between atoms: C1_1  and  C2_2 
REMARK    2  A    between atoms: C1_1  and  C10_13 
REMARK    3  A    between atoms: C2_2  and  C3_3 
REMARK    4  A    between atoms: C3_3  and  C4_4 
REMARK    5  A    between atoms: C6_6  and  O1_7 
REMARK    6  A    between atoms: C7_8  and  O2_9 
REMARK    7  A    between atoms: C10_13  and  O4_14 
REMARK    8  A    between atoms: C10_13  and  C11_15 
REMARK    9  A    between atoms: C11_15  and  O5_16 
REMARK   10  A    between atoms: C11_15  and  C12_17 
REMARK   11  A    between atoms: C12_17  and  O6_18 
ROOT
HETATM    1  C1  UNL     1     -54.146  46.994   8.968  1.00  0.00     0.158 C 
HETATM    2  O3  UNL     1     -55.214  46.967   8.350  1.00  0.00    -0.295 OA
ENDROOT
BRANCH   1   3
HETATM    3  C2  UNL     1     -53.500  45.708   9.452  1.00  0.00     0.086 C 
BRANCH   3   4
HETATM    4  C3  UNL     1     -52.327  45.249   8.589  1.00  0.00     0.046 C 
BRANCH   4   5
HETATM    5  C4  UNL     1     -52.741  44.450   7.376  1.00  0.00    -0.055 A 
HETATM    6  C5  UNL     1     -53.976  43.781   7.344  1.00  0.00     0.046 A 
HETATM    7  C6  UNL     1     -54.330  43.043   6.220  1.00  0.00     0.099 A 
HETATM    8  C7  UNL     1     -53.473  42.969   5.126  1.00  0.00     0.098 A 
HETATM    9  C8  UNL     1     -52.253  43.625   5.137  1.00  0.00     0.040 A 
HETATM   10  C9  UNL     1     -51.888  44.368   6.261  1.00  0.00     0.010 A 
BRANCH   7  11
HETATM   11  O1  UNL     1     -55.518  42.369   6.142  1.00  0.00    -0.358 OA
HETATM   12  H   UNL     1     -56.279  42.798   5.803  1.00  0.00     0.217 HD
ENDBRANCH   7  11
BRANCH   8  13
HETATM   13  O2  UNL     1     -53.830  42.241   4.027  1.00  0.00    -0.358 OA
HETATM   14  H   UNL     1     -53.377  41.446   3.825  1.00  0.00     0.217 HD
ENDBRANCH   8  13
ENDBRANCH   4   5
ENDBRANCH   3   4
ENDBRANCH   1   3
BRANCH   1  15
HETATM   15  C10 UNL     1     -53.402  48.307   9.226  1.00  0.00     0.218 C 
BRANCH  15  16
HETATM   16  O4  UNL     1     -52.734  48.682   8.021  1.00  0.00    -0.385 OA
HETATM   17  H   UNL     1     -53.385  48.784   7.309  1.00  0.00     0.210 HD
ENDBRANCH  15  16
BRANCH  15  18
HETATM   18  C11 UNL     1     -54.368  49.413   9.701  1.00  0.00     0.177 C 
BRANCH  18  19
HETATM   19  O5  UNL     1     -54.557  49.366  11.124  1.00  0.00    -0.390 OA
HETATM   20  H   UNL     1     -53.859  49.879  11.560  1.00  0.00     0.210 HD
ENDBRANCH  18  19
BRANCH  18  21
HETATM   21  C12 UNL     1     -53.820  50.809   9.377  1.00  0.00     0.198 C 
BRANCH  21  22
HETATM   22  O6  UNL     1     -54.508  51.348   8.246  1.00  0.00    -0.398 OA
HETATM   23  H   UNL     1     -55.410  50.993   8.217  1.00  0.00     0.209 HD
ENDBRANCH  21  22
ENDBRANCH  18  21
ENDBRANCH  15  18
ENDBRANCH   1  15
TORSDOF 11
ENDMDL
MODEL 2
REMARK VINA RESULT:      -8.2      0.686      1.595
REMARK  11 active torsions:
REMARK  status: ('A' for Active; 'I' for Inactive)
REMARK    1  A    between atoms: C1_1  and  C2_2 
REMARK    2  A    between atoms: C1_1  and  C10_13 
REMARK    3  A    between atoms: C2_2  and  C3_3 
REMARK    4  A    between atoms: C3_3  and  C4_4 
REMARK    5  A    between atoms: C6_6  and  O1_7 
REMARK    6  A    between atoms: C7_8  and  O2_9 
REMARK    7  A    between atoms: C10_13  and  O4_14 
REMARK    8  A    between atoms: C10_13  and  C11_15 
REMARK    9  A    between atoms: C11_15  and  O5_16 
REMARK   10  A    between atoms: C11_15  and  C12_17 
REMARK   11  A    between atoms: C12_17  and  O6_18 
ROOT
HETATM    1  C1  UNL     1     -54.123  46.945   8.972  1.00  0.00     0.158 C 
HETATM    2  O3  UNL     1     -55.208  46.927   8.384  1.00  0.00    -0.295 OA
ENDROOT
BRANCH   1   3
HETATM    3  C2  UNL     1     -53.459  45.651   9.409  1.00  0.00     0.086 C 
BRANCH   3   4
HETATM    4  C3  UNL     1     -52.262  45.256   8.548  1.00  0.00     0.046 C 
BRANCH   4   5
HETATM    5  C4  UNL     1     -52.631  44.430   7.337  1.00  0.00    -0.055 A 
HETATM    6  C5  UNL     1     -51.945  44.593   6.122  1.00  0.00     0.046 A 
HETATM    7  C6  UNL     1     -52.310  43.828   5.019  1.00  0.00     0.099 A 
HETATM    8  C7  UNL     1     -53.343  42.902   5.114  1.00  0.00     0.098 A 
HETATM    9  C8  UNL     1     -54.028  42.724   6.305  1.00  0.00     0.040 A 
HETATM   10  C9  UNL     1     -53.670  43.487   7.418  1.00  0.00     0.010 A 
BRANCH   7  11
HETATM   11  O1  UNL     1     -51.678  43.953   3.813  1.00  0.00    -0.358 OA
HETATM   12  H   UNL     1     -50.924  43.429   3.622  1.00  0.00     0.217 HD
ENDBRANCH   7  11
BRANCH   8  13
HETATM   13  O2  UNL     1     -53.694  42.156   4.025  1.00  0.00    -0.358 OA
HETATM   14  H   UNL     1     -54.296  41.445   4.118  1.00  0.00     0.217 HD
ENDBRANCH   8  13
ENDBRANCH   4   5
ENDBRANCH   3   4
ENDBRANCH   1   3
BRANCH   1  15
HETATM   15  C10 UNL     1     -53.377  48.255   9.237  1.00  0.00     0.218 C 
BRANCH  15  16
HETATM   16  O4  UNL     1     -52.703  48.632   8.037  1.00  0.00    -0.385 OA
HETATM   17  H   UNL     1     -53.313  48.559   7.286  1.00  0.00     0.210 HD
ENDBRANCH  15  16
BRANCH  15  18
HETATM   18  C11 UNL     1     -54.343  49.362   9.710  1.00  0.00     0.177 C 
BRANCH  18  19
HETATM   19  O5  UNL     1     -54.527  49.322  11.134  1.00  0.00    -0.390 OA
HETATM   20  H   UNL     1     -55.109  48.581  11.364  1.00  0.00     0.210 HD
ENDBRANCH  18  19
BRANCH  18  21
HETATM   21  C12 UNL     1     -53.798  50.758   9.378  1.00  0.00     0.198 C 
BRANCH  21  22
HETATM   22  O6  UNL     1     -54.514  51.306   8.270  1.00  0.00    -0.398 OA
HETATM   23  H   UNL     1     -55.413  50.940   8.253  1.00  0.00     0.209 HD
ENDBRANCH  21  22
ENDBRANCH  18  21
ENDBRANCH  15  18
ENDBRANCH   1  15
TORSDOF 11
ENDMDL
MODEL 3
REMARK VINA RESULT:      -8.1      1.570      2.027
REMARK  11 active torsions:
REMARK  status: ('A' for Active; 'I' for Inactive)
REMARK    1  A    between atoms: C1_1  and  C2_2 
REMARK    2  A    between atoms: C1_1  and  C10_13 
REMARK    3  A    between atoms: C2_2  and  C3_3 
REMARK    4  A    between atoms: C3_3  and  C4_4 
REMARK    5  A    between atoms: C6_6  and  O1_7 
REMARK    6  A    between atoms: C7_8  and  O2_9 
REMARK    7  A    between atoms: C10_13  and  O4_14 
REMARK    8  A    between atoms: C10_13  and  C11_15 
REMARK    9  A    between atoms: C11_15  and  O5_16 
REMARK   10  A    between atoms: C11_15  and  C12_17 
REMARK   11  A    between atoms: C12_17  and  O6_18 
ROOT
HETATM    1  C1  UNL     1     -53.232  47.647  10.456  1.00  0.00     0.158 C 
HETATM    2  O3  UNL     1     -52.725  47.734  11.578  1.00  0.00    -0.295 OA
ENDROOT
BRANCH   1   3
HETATM    3  C2  UNL     1     -53.891  46.355  10.004  1.00  0.00     0.086 C 
BRANCH   3   4
HETATM    4  C3  UNL     1     -52.955  45.150  10.028  1.00  0.00     0.046 C 
BRANCH   4   5
HETATM    5  C4  UNL     1     -53.161  44.196   8.874  1.00  0.00    -0.055 A 
HETATM    6  C5  UNL     1     -52.553  42.930   8.872  1.00  0.00     0.046 A 
HETATM    7  C6  UNL     1     -52.750  42.074   7.793  1.00  0.00     0.099 A 
HETATM    8  C7  UNL     1     -53.549  42.462   6.722  1.00  0.00     0.098 A 
HETATM    9  C8  UNL     1     -54.160  43.705   6.708  1.00  0.00     0.040 A 
HETATM   10  C9  UNL     1     -53.968  44.571   7.785  1.00  0.00     0.010 A 
BRANCH   7  11
HETATM   11  O1  UNL     1     -52.175  40.834   7.740  1.00  0.00    -0.358 OA
HETATM   12  H   UNL     1     -51.536  40.642   7.083  1.00  0.00     0.217 HD
ENDBRANCH   7  11
BRANCH   8  13
HETATM   13  O2  UNL     1     -53.735  41.614   5.668  1.00  0.00    -0.358 OA
HETATM   14  H   UNL     1     -54.584  41.258   5.497  1.00  0.00     0.217 HD
ENDBRANCH   8  13
ENDBRANCH   4   5
ENDBRANCH   3   4
ENDBRANCH   1   3
BRANCH   1  15
HETATM   15  C10 UNL     1     -53.268  48.840   9.498  1.00  0.00     0.218 C 
BRANCH  15  16
HETATM   16  O4  UNL     1     -53.384  48.336   8.167  1.00  0.00    -0.385 OA
HETATM   17  H   UNL     1     -54.314  48.359   7.893  1.00  0.00     0.210 HD
ENDBRANCH  15  16
BRANCH  15  18
HETATM   18  C11 UNL     1     -54.428  49.797   9.840  1.00  0.00     0.177 C 
BRANCH  18  19
HETATM   19  O5  UNL     1     -54.738  49.763  11.242  1.00  0.00    -0.390 OA
HETATM   20  H   UNL     1     -54.504  50.613  11.646  1.00  0.00     0.210 HD
ENDBRANCH  18  19
BRANCH  18  21
HETATM   21  C12 UNL     1     -54.069  51.251   9.506  1.00  0.00     0.198 C 
BRANCH  21  22
HETATM   22  O6  UNL     1     -54.541  51.577   8.197  1.00  0.00    -0.398 OA
HETATM   23  H   UNL     1     -54.172  50.949   7.555  1.00  0.00     0.209 HD
ENDBRANCH  21  22
ENDBRANCH  18  21
ENDBRANCH  15  18
ENDBRANCH   1  15
TORSDOF 11
ENDMDL
MODEL 4
REMARK VINA RESULT:      -8.0      1.012      1.349
REMARK  11 active torsions:
REMARK  status: ('A' for Active; 'I' for Inactive)
REMARK    1  A    between atoms: C1_1  and  C2_2 
REMARK    2  A    between atoms: C1_1  and  C10_13 
REMARK    3  A    between atoms: C2_2  and  C3_3 
REMARK    4  A    between atoms: C3_3  and  C4_4 
REMARK    5  A    between atoms: C6_6  and  O1_7 
REMARK    6  A    between atoms: C7_8  and  O2_9 
REMARK    7  A    between atoms: C10_13  and  O4_14 
REMARK    8  A    between atoms: C10_13  and  C11_15 
REMARK    9  A    between atoms: C11_15  and  O5_16 
REMARK   10  A    between atoms: C11_15  and  C12_17 
REMARK   11  A    between atoms: C12_17  and  O6_18 
ROOT
HETATM    1  C1  UNL     1     -53.142  47.701  10.434  1.00  0.00     0.158 C 
HETATM    2  O3  UNL     1     -52.786  47.831  11.609  1.00  0.00    -0.295 OA
ENDROOT
BRANCH   1   3
HETATM    3  C2  UNL     1     -53.506  46.334   9.883  1.00  0.00     0.086 C 
BRANCH   3   4
HETATM    4  C3  UNL     1     -52.303  45.531   9.393  1.00  0.00     0.046 C 
BRANCH   4   5
HETATM    5  C4  UNL     1     -52.603  44.650   8.204  1.00  0.00    -0.055 A 
HETATM    6  C5  UNL     1     -53.927  44.438   7.784  1.00  0.00     0.046 A 
HETATM    7  C6  UNL     1     -54.179  43.613   6.693  1.00  0.00     0.099 A 
HETATM    8  C7  UNL     1     -53.129  43.004   6.012  1.00  0.00     0.098 A 
HETATM    9  C8  UNL     1     -51.818  43.205   6.408  1.00  0.00     0.040 A 
HETATM   10  C9  UNL     1     -51.554  44.030   7.503  1.00  0.00     0.010 A 
BRANCH   7  11
HETATM   11  O1  UNL     1     -55.450  43.369   6.249  1.00  0.00    -0.358 OA
HETATM   12  H   UNL     1     -56.138  43.976   6.442  1.00  0.00     0.217 HD
ENDBRANCH   7  11
BRANCH   8  13
HETATM   13  O2  UNL     1     -53.388  42.195   4.942  1.00  0.00    -0.358 OA
HETATM   14  H   UNL     1     -54.273  41.997   4.708  1.00  0.00     0.217 HD
ENDBRANCH   8  13
ENDBRANCH   4   5
ENDBRANCH   3   4
ENDBRANCH   1   3
BRANCH   1  15
HETATM   15  C10 UNL     1     -53.283  48.908   9.502  1.00  0.00     0.218 C 
BRANCH  15  16
HETATM   16  O4  UNL     1     -53.431  48.422   8.168  1.00  0.00    -0.385 OA
HETATM   17  H   UNL     1     -52.794  48.870   7.589  1.00  0.00     0.210 HD
ENDBRANCH  15  16
BRANCH  15  18
HETATM   18  C11 UNL     1     -54.477  49.794   9.913  1.00  0.00     0.177 C 
BRANCH  18  19
HETATM   19  O5  UNL     1     -54.707  49.738  11.330  1.00  0.00    -0.390 OA
HETATM   20  H   UNL     1     -54.011  49.208  11.749  1.00  0.00     0.210 HD
ENDBRANCH  18  19
BRANCH  18  21
HETATM   21  C12 UNL     1     -54.223  51.268   9.568  1.00  0.00     0.198 C 
BRANCH  21  22
HETATM   22  O6  UNL     1     -54.468  51.488   8.177  1.00  0.00    -0.398 OA
HETATM   23  H   UNL     1     -55.419  51.613   8.032  1.00  0.00     0.209 HD
ENDBRANCH  21  22
ENDBRANCH  18  21
ENDBRANCH  15  18
ENDBRANCH   1  15
TORSDOF 11
ENDMDL
MODEL 5
REMARK VINA RESULT:      -8.0      2.077      3.133
REMARK  11 active torsions:
REMARK  status: ('A' for Active; 'I' for Inactive)
REMARK    1  A    between atoms: C1_1  and  C2_2 
REMARK    2  A    between atoms: C1_1  and  C10_13 
REMARK    3  A    between atoms: C2_2  and  C3_3 
REMARK    4  A    between atoms: C3_3  and  C4_4 
REMARK    5  A    between atoms: C6_6  and  O1_7 
REMARK    6  A    between atoms: C7_8  and  O2_9 
REMARK    7  A    between atoms: C10_13  and  O4_14 
REMARK    8  A    between atoms: C10_13  and  C11_15 
REMARK    9  A    between atoms: C11_15  and  O5_16 
REMARK   10  A    between atoms: C11_15  and  C12_17 
REMARK   11  A    between atoms: C12_17  and  O6_18 
ROOT
HETATM    1  C1  UNL     1     -52.661  47.328   8.813  1.00  0.00     0.158 C 
HETATM    2  O3  UNL     1     -52.470  48.243   8.006  1.00  0.00    -0.295 OA
ENDROOT
BRANCH   1   3
HETATM    3  C2  UNL     1     -51.750  46.114   8.835  1.00  0.00     0.086 C 
BRANCH   3   4
HETATM    4  C3  UNL     1     -52.452  44.814   8.448  1.00  0.00     0.046 C 
BRANCH   4   5
HETATM    5  C4  UNL     1     -51.794  44.087   7.299  1.00  0.00    -0.055 A 
HETATM    6  C5  UNL     1     -52.156  44.366   5.971  1.00  0.00     0.046 A 
HETATM    7  C6  UNL     1     -51.544  43.675   4.931  1.00  0.00     0.099 A 
HETATM    8  C7  UNL     1     -50.572  42.715   5.198  1.00  0.00     0.098 A 
HETATM    9  C8  UNL     1     -50.199  42.429   6.501  1.00  0.00     0.040 A 
HETATM   10  C9  UNL     1     -50.808  43.117   7.552  1.00  0.00     0.010 A 
BRANCH   7  11
HETATM   11  O1  UNL     1     -51.865  43.906   3.622  1.00  0.00    -0.358 OA
HETATM   12  H   UNL     1     -52.417  43.304   3.162  1.00  0.00     0.217 HD
ENDBRANCH   7  11
BRANCH   8  13
HETATM   13  O2  UNL     1     -49.977  42.042   4.170  1.00  0.00    -0.358 OA
HETATM   14  H   UNL     1     -49.163  42.347   3.819  1.00  0.00     0.217 HD
ENDBRANCH   8  13
ENDBRANCH   4   5
ENDBRANCH   3   4
ENDBRANCH   1   3
BRANCH   1  15
HETATM   15  C10 UNL     1     -53.780  47.401   9.855  1.00  0.00     0.218 C 
BRANCH  15  16
HETATM   16  O4  UNL     1     -53.472  48.459  10.763  1.00  0.00    -0.385 OA
HETATM   17  H   UNL     1     -53.364  48.097  11.657  1.00  0.00     0.210 HD
ENDBRANCH  15  16
BRANCH  15  18
HETATM   18  C11 UNL     1     -55.154  47.615   9.187  1.00  0.00     0.177 C 
BRANCH  18  19
HETATM   19  O5  UNL     1     -55.078  48.596   8.140  1.00  0.00    -0.390 OA
HETATM   20  H   UNL     1     -54.177  48.618   7.782  1.00  0.00     0.210 HD
ENDBRANCH  18  19
BRANCH  18  21
HETATM   21  C12 UNL     1     -55.668  46.323   8.540  1.00  0.00     0.198 C 
BRANCH  21  22
HETATM   22  O6  UNL     1     -55.515  45.232   9.450  1.00  0.00    -0.398 OA
HETATM   23  H   UNL     1     -56.375  45.017   9.845  1.00  0.00     0.209 HD
ENDBRANCH  21  22
ENDBRANCH  18  21
ENDBRANCH  15  18
ENDBRANCH   1  15
TORSDOF 11
ENDMDL
MODEL 6
REMARK VINA RESULT:      -8.0      2.068      2.619
REMARK  11 active torsions:
REMARK  status: ('A' for Active; 'I' for Inactive)
REMARK    1  A    between atoms: C1_1  and  C2_2 
REMARK    2  A    between atoms: C1_1  and  C10_13 
REMARK    3  A    between atoms: C2_2  and  C3_3 
REMARK    4  A    between atoms: C3_3  and  C4_4 
REMARK    5  A    between atoms: C6_6  and  O1_7 
REMARK    6  A    between atoms: C7_8  and  O2_9 
REMARK    7  A    between atoms: C10_13  and  O4_14 
REMARK    8  A    between atoms: C10_13  and  C11_15 
REMARK    9  A    between atoms: C11_15  and  O5_16 
REMARK   10  A    between atoms: C11_15  and  C12_17 
REMARK   11  A    between atoms: C12_17  and  O6_18 
ROOT
HETATM    1  C1  UNL     1     -53.483  46.118   8.878  1.00  0.00     0.158 C 
HETATM    2  O3  UNL     1     -54.492  45.857   8.216  1.00  0.00    -0.295 OA
ENDROOT
BRANCH   1   3
HETATM    3  C2  UNL     1     -52.510  45.019   9.269  1.00  0.00     0.086 C 
BRANCH   3   4
HETATM    4  C3  UNL     1     -52.866  43.652   8.689  1.00  0.00     0.046 C 
BRANCH   4   5
HETATM    5  C4  UNL     1     -52.087  43.299   7.444  1.00  0.00    -0.055 A 
HETATM    6  C5  UNL     1     -50.771  42.816   7.533  1.00  0.00     0.046 A 
HETATM    7  C6  UNL     1     -50.072  42.508   6.371  1.00  0.00     0.099 A 
HETATM    8  C7  UNL     1     -50.669  42.669   5.124  1.00  0.00     0.098 A 
HETATM    9  C8  UNL     1     -51.967  43.140   5.017  1.00  0.00     0.040 A 
HETATM   10  C9  UNL     1     -52.677  43.453   6.177  1.00  0.00     0.010 A 
BRANCH   7  11
HETATM   11  O1  UNL     1     -48.786  42.041   6.404  1.00  0.00    -0.358 OA
HETATM   12  H   UNL     1     -48.481  41.461   5.734  1.00  0.00     0.217 HD
ENDBRANCH   7  11
BRANCH   8  13
HETATM   13  O2  UNL     1     -49.972  42.364   3.990  1.00  0.00    -0.358 OA
HETATM   14  H   UNL     1     -49.042  42.255   4.026  1.00  0.00     0.217 HD
ENDBRANCH   8  13
ENDBRANCH   4   5
ENDBRANCH   3   4
ENDBRANCH   1   3
BRANCH   1  15
HETATM   15  C10 UNL     1     -53.140  47.553   9.285  1.00  0.00     0.218 C 
BRANCH  15  16
HETATM   16  O4  UNL     1     -52.731  48.259   8.113  1.00  0.00    -0.385 OA
HETATM   17  H   UNL     1     -53.514  48.580   7.639  1.00  0.00     0.210 HD
ENDBRANCH  15  16
BRANCH  15  18
HETATM   18  C11 UNL     1     -54.340  48.243   9.967  1.00  0.00     0.177 C 
BRANCH  18  19
HETATM   19  O5  UNL     1     -53.939  48.922  11.168  1.00  0.00    -0.390 OA
HETATM   20  H   UNL     1     -54.720  49.093  11.717  1.00  0.00     0.210 HD
ENDBRANCH  18  19
BRANCH  18  21
HETATM   21  C12 UNL     1     -54.968  49.304   9.053  1.00  0.00     0.198 C 
BRANCH  21  22
HETATM   22  O6  UNL     1     -55.397  48.697   7.832  1.00  0.00    -0.398 OA
HETATM   23  H   UNL     1     -54.624  48.498   7.280  1.00  0.00     0.209 HD
ENDBRANCH  21  22
ENDBRANCH  18  21
ENDBRANCH  15  18
ENDBRANCH   1  15
TORSDOF 11
ENDMDL
MODEL 7
REMARK VINA RESULT:      -7.9      1.394      2.420
REMARK  11 active torsions:
REMARK  status: ('A' for Active; 'I' for Inactive)
REMARK    1  A    between atoms: C1_1  and  C2_2 
REMARK    2  A    between atoms: C1_1  and  C10_13 
REMARK    3  A    between atoms: C2_2  and  C3_3 
REMARK    4  A    between atoms: C3_3  and  C4_4 
REMARK    5  A    between atoms: C6_6  and  O1_7 
REMARK    6  A    between atoms: C7_8  and  O2_9 
REMARK    7  A    between atoms: C10_13  and  O4_14 
REMARK    8  A    between atoms: C10_13  and  C11_15 
REMARK    9  A    between atoms: C11_15  and  O5_16 
REMARK   10  A    between atoms: C11_15  and  C12_17 
REMARK   11  A    between atoms: C12_17  and  O6_18 
ROOT
HETATM    1  C1  UNL     1     -52.601  47.501   8.694  1.00  0.00     0.158 C 
HETATM    2  O3  UNL     1     -52.490  48.533   8.024  1.00  0.00    -0.295 OA
ENDROOT
BRANCH   1   3
HETATM    3  C2  UNL     1     -51.636  46.345   8.497  1.00  0.00     0.086 C 
BRANCH   3   4
HETATM    4  C3  UNL     1     -52.266  44.975   8.734  1.00  0.00     0.046 C 
BRANCH   4   5
HETATM    5  C4  UNL     1     -52.654  44.255   7.464  1.00  0.00    -0.055 A 
HETATM    6  C5  UNL     1     -53.754  43.383   7.441  1.00  0.00     0.046 A 
HETATM    7  C6  UNL     1     -54.084  42.723   6.261  1.00  0.00     0.099 A 
HETATM    8  C7  UNL     1     -53.337  42.928   5.106  1.00  0.00     0.098 A 
HETATM    9  C8  UNL     1     -52.252  43.789   5.108  1.00  0.00     0.040 A 
HETATM   10  C9  UNL     1     -51.911  44.454   6.286  1.00  0.00     0.010 A 
BRANCH   7  11
HETATM   11  O1  UNL     1     -55.142  41.859   6.189  1.00  0.00    -0.358 OA
HETATM   12  H   UNL     1     -55.659  41.816   5.408  1.00  0.00     0.217 HD
ENDBRANCH   7  11
BRANCH   8  13
HETATM   13  O2  UNL     1     -53.670  42.276   3.953  1.00  0.00    -0.358 OA
HETATM   14  H   UNL     1     -53.187  42.437   3.167  1.00  0.00     0.217 HD
ENDBRANCH   8  13
ENDBRANCH   4   5
ENDBRANCH   3   4
ENDBRANCH   1   3
BRANCH   1  15
HETATM   15  C10 UNL     1     -53.669  47.363   9.781  1.00  0.00     0.218 C 
BRANCH  15  16
HETATM   16  O4  UNL     1     -53.354  48.279  10.830  1.00  0.00    -0.385 OA
HETATM   17  H   UNL     1     -53.657  49.167  10.585  1.00  0.00     0.210 HD
ENDBRANCH  15  16
BRANCH  15  18
HETATM   18  C11 UNL     1     -55.080  47.621   9.214  1.00  0.00     0.177 C 
BRANCH  18  19
HETATM   19  O5  UNL     1     -55.053  48.609   8.171  1.00  0.00    -0.390 OA
HETATM   20  H   UNL     1     -55.682  48.362   7.476  1.00  0.00     0.210 HD
ENDBRANCH  18  19
BRANCH  18  21
HETATM   21  C12 UNL     1     -55.676  46.349   8.597  1.00  0.00     0.198 C 
BRANCH  21  22
HETATM   22  O6  UNL     1     -55.533  45.257   9.507  1.00  0.00    -0.398 OA
HETATM   23  H   UNL     1     -54.655  44.858   9.400  1.00  0.00     0.209 HD
ENDBRANCH  21  22
ENDBRANCH  18  21
ENDBRANCH  15  18
ENDBRANCH   1  15
TORSDOF 11
ENDMDL
MODEL 8
REMARK VINA RESULT:      -7.9      1.735      2.271
REMARK  11 active torsions:
REMARK  status: ('A' for Active; 'I' for Inactive)
REMARK    1  A    between atoms: C1_1  and  C2_2 
REMARK    2  A    between atoms: C1_1  and  C10_13 
REMARK    3  A    between atoms: C2_2  and  C3_3 
REMARK    4  A    between atoms: C3_3  and  C4_4 
REMARK    5  A    between atoms: C6_6  and  O1_7 
REMARK    6  A    between atoms: C7_8  and  O2_9 
REMARK    7  A    between atoms: C10_13  and  O4_14 
REMARK    8  A    between atoms: C10_13  and  C11_15 
REMARK    9  A    between atoms: C11_15  and  O5_16 
REMARK   10  A    between atoms: C11_15  and  C12_17 
REMARK   11  A    between atoms: C12_17  and  O6_18 
ROOT
HETATM    1  C1  UNL     1     -53.490  46.121   8.869  1.00  0.00     0.158 C 
HETATM    2  O3  UNL     1     -54.476  45.864   8.171  1.00  0.00    -0.295 OA
ENDROOT
BRANCH   1   3
HETATM    3  C2  UNL     1     -52.546  45.016   9.311  1.00  0.00     0.086 C 
BRANCH   3   4
HETATM    4  C3  UNL     1     -52.890  43.648   8.726  1.00  0.00     0.046 C 
BRANCH   4   5
HETATM    5  C4  UNL     1     -52.088  43.294   7.495  1.00  0.00    -0.055 A 
HETATM    6  C5  UNL     1     -52.487  43.744   6.226  1.00  0.00     0.046 A 
HETATM    7  C6  UNL     1     -51.738  43.396   5.106  1.00  0.00     0.099 A 
HETATM    8  C7  UNL     1     -50.595  42.613   5.237  1.00  0.00     0.098 A 
HETATM    9  C8  UNL     1     -50.184  42.165   6.482  1.00  0.00     0.040 A 
HETATM   10  C9  UNL     1     -50.929  42.507   7.611  1.00  0.00     0.010 A 
BRANCH   7  11
HETATM   11  O1  UNL     1     -52.088  43.803   3.848  1.00  0.00    -0.358 OA
HETATM   12  H   UNL     1     -51.907  44.681   3.572  1.00  0.00     0.217 HD
ENDBRANCH   7  11
BRANCH   8  13
HETATM   13  O2  UNL     1     -49.868  42.277   4.132  1.00  0.00    -0.358 OA
HETATM   14  H   UNL     1     -49.046  42.697   3.966  1.00  0.00     0.217 HD
ENDBRANCH   8  13
ENDBRANCH   4   5
ENDBRANCH   3   4
ENDBRANCH   1   3
BRANCH   1  15
HETATM   15  C10 UNL     1     -53.146  47.557   9.272  1.00  0.00     0.218 C 
BRANCH  15  16
HETATM   16  O4  UNL     1     -52.743  48.261   8.097  1.00  0.00    -0.385 OA
HETATM   17  H   UNL     1     -52.999  49.194   8.175  1.00  0.00     0.210 HD
ENDBRANCH  15  16
BRANCH  15  18
HETATM   18  C11 UNL     1     -54.342  48.247   9.959  1.00  0.00     0.177 C 
BRANCH  18  19
HETATM   19  O5  UNL     1     -53.936  48.928  11.156  1.00  0.00    -0.390 OA
HETATM   20  H   UNL     1     -54.706  49.061  11.730  1.00  0.00     0.210 HD
ENDBRANCH  18  19
BRANCH  18  21
HETATM   21  C12 UNL     1     -54.975  49.306   9.046  1.00  0.00     0.198 C 
BRANCH  21  22
HETATM   22  O6  UNL     1     -55.414  48.696   7.830  1.00  0.00    -0.398 OA
HETATM   23  H   UNL     1     -54.924  47.870   7.687  1.00  0.00     0.209 HD
ENDBRANCH  21  22
ENDBRANCH  18  21
ENDBRANCH  15  18
ENDBRANCH   1  15
TORSDOF 11
ENDMDL
MODEL 9
REMARK VINA RESULT:      -7.8      1.843      6.347
REMARK  11 active torsions:
REMARK  status: ('A' for Active; 'I' for Inactive)
REMARK    1  A    between atoms: C1_1  and  C2_2 
REMARK    2  A    between atoms: C1_1  and  C10_13 
REMARK    3  A    between atoms: C2_2  and  C3_3 
REMARK    4  A    between atoms: C3_3  and  C4_4 
REMARK    5  A    between atoms: C6_6  and  O1_7 
REMARK    6  A    between atoms: C7_8  and  O2_9 
REMARK    7  A    between atoms: C10_13  and  O4_14 
REMARK    8  A    between atoms: C10_13  and  C11_15 
REMARK    9  A    between atoms: C11_15  and  O5_16 
REMARK   10  A    between atoms: C11_15  and  C12_17 
REMARK   11  A    between atoms: C12_17  and  O6_18 
ROOT
HETATM    1  C1  UNL     1     -52.806  43.189   8.293  1.00  0.00     0.158 C 
HETATM    2  O3  UNL     1     -53.904  43.366   8.829  1.00  0.00    -0.295 OA
ENDROOT
BRANCH   1   3
HETATM    3  C2  UNL     1     -51.539  43.135   9.129  1.00  0.00     0.086 C 
BRANCH   3   4
HETATM    4  C3  UNL     1     -50.754  44.444   9.136  1.00  0.00     0.046 C 
BRANCH   4   5
HETATM    5  C4  UNL     1     -51.569  45.639   9.575  1.00  0.00    -0.055 A 
HETATM    6  C5  UNL     1     -51.983  46.606   8.645  1.00  0.00     0.046 A 
HETATM    7  C6  UNL     1     -52.723  47.702   9.076  1.00  0.00     0.099 A 
HETATM    8  C7  UNL     1     -53.060  47.842  10.419  1.00  0.00     0.098 A 
HETATM    9  C8  UNL     1     -52.664  46.895  11.350  1.00  0.00     0.040 A 
HETATM   10  C9  UNL     1     -51.921  45.792  10.928  1.00  0.00     0.010 A 
BRANCH   7  11
HETATM   11  O1  UNL     1     -53.145  48.675   8.212  1.00  0.00    -0.358 OA
HETATM   12  H   UNL     1     -53.923  48.546   7.705  1.00  0.00     0.217 HD
ENDBRANCH   7  11
BRANCH   8  13
HETATM   13  O2  UNL     1     -53.786  48.922  10.832  1.00  0.00    -0.358 OA
HETATM   14  H   UNL     1     -54.559  49.173  10.365  1.00  0.00     0.217 HD
ENDBRANCH   8  13
ENDBRANCH   4   5
ENDBRANCH   3   4
ENDBRANCH   1   3
BRANCH   1  15
HETATM   15  C10 UNL     1     -52.678  42.962   6.785  1.00  0.00     0.218 C 
BRANCH  15  16
HETATM   16  O4  UNL     1     -52.865  41.569   6.529  1.00  0.00    -0.385 OA
HETATM   17  H   UNL     1     -53.657  41.259   6.996  1.00  0.00     0.210 HD
ENDBRANCH  15  16
BRANCH  15  18
HETATM   18  C11 UNL     1     -53.693  43.819   6.002  1.00  0.00     0.177 C 
BRANCH  18  19
HETATM   19  O5  UNL     1     -53.043  44.605   4.990  1.00  0.00    -0.390 OA
HETATM   20  H   UNL     1     -53.231  45.545   5.141  1.00  0.00     0.210 HD
ENDBRANCH  18  19
BRANCH  18  21
HETATM   21  C12 UNL     1     -54.725  42.942   5.280  1.00  0.00     0.198 C 
BRANCH  21  22
HETATM   22  O6  UNL     1     -55.689  42.459   6.218  1.00  0.00    -0.398 OA
HETATM   23  H   UNL     1     -56.359  43.144   6.375  1.00  0.00     0.209 HD
ENDBRANCH  21  22
ENDBRANCH  18  21
ENDBRANCH  15  18
ENDBRANCH   1  15
TORSDOF 11
ENDMDL
