MODEL 1
REMARK VINA RESULT:      -8.5      0.000      0.000
REMARK  11 active torsions:
REMARK  status: ('A' for Active; 'I' for Inactive)
REMARK    1  A    between atoms: C1_1  and  C2_2 
REMARK    2  A    between atoms: C1_1  and  C10_13 
REMARK    3  A    between atoms: C2_2  and  C3_3 
REMARK    4  A    between atoms: C3_3  and  C4_4 
REMARK    5  A    between atoms: C6_6  and  O1_7 
REMARK    6  A    between atoms: C7_8  and  O2_9 
REMARK    7  A    between atoms: C10_13  and  O4_14 
REMARK    8  A    between atoms: C10_13  and  C11_15 
REMARK    9  A    between atoms: C11_15  and  O5_16 
REMARK   10  A    between atoms: C11_15  and  C12_17 
REMARK   11  A    between atoms: C12_17  and  O6_18 
ROOT
HETATM    1  C1  UNL     1     -54.227  47.043   8.946  1.00  0.00     0.158 C 
HETATM    2  O3  UNL     1     -55.328  47.064   8.388  1.00  0.00    -0.295 OA
ENDROOT
BRANCH   1   3
HETATM    3  C2  UNL     1     -53.573  45.723   9.315  1.00  0.00     0.086 C 
BRANCH   3   4
HETATM    4  C3  UNL     1     -52.403  45.345   8.410  1.00  0.00     0.046 C 
BRANCH   4   5
HETATM    5  C4  UNL     1     -52.798  44.484   7.233  1.00  0.00    -0.055 A 
HETATM    6  C5  UNL     1     -54.042  43.832   7.207  1.00  0.00     0.046 A 
HETATM    7  C6  UNL     1     -54.379  43.035   6.118  1.00  0.00     0.099 A 
HETATM    8  C7  UNL     1     -53.495  42.887   5.053  1.00  0.00     0.098 A 
HETATM    9  C8  UNL     1     -52.266  43.526   5.059  1.00  0.00     0.040 A 
HETATM   10  C9  UNL     1     -51.919  44.327   6.148  1.00  0.00     0.010 A 
BRANCH   7  11
HETATM   11  O1  UNL     1     -55.574  42.374   6.048  1.00  0.00    -0.358 OA
HETATM   12  H   UNL     1     -56.023  42.302   5.228  1.00  0.00     0.217 HD
ENDBRANCH   7  11
BRANCH   8  13
HETATM   13  O2  UNL     1     -53.836  42.102   3.988  1.00  0.00    -0.358 OA
HETATM   14  H   UNL     1     -53.729  41.173   4.038  1.00  0.00     0.217 HD
ENDBRANCH   8  13
ENDBRANCH   4   5
ENDBRANCH   3   4
ENDBRANCH   1   3
BRANCH   1  15
HETATM   15  C10 UNL     1     -53.452  48.330   9.239  1.00  0.00     0.218 C 
BRANCH  15  16
HETATM   16  O4  UNL     1     -52.767  48.716   8.048  1.00  0.00    -0.385 OA
HETATM   17  H   UNL     1     -51.898  48.284   8.020  1.00  0.00     0.210 HD
ENDBRANCH  15  16
BRANCH  15  18
HETATM   18  C11 UNL     1     -54.393  49.449   9.734  1.00  0.00     0.177 C 
BRANCH  18  19
HETATM   19  O5  UNL     1     -54.556  49.403  11.160  1.00  0.00    -0.390 OA
HETATM   20  H   UNL     1     -55.402  48.980  11.375  1.00  0.00     0.210 HD
ENDBRANCH  18  19
BRANCH  18  21
HETATM   21  C12 UNL     1     -53.832  50.838   9.401  1.00  0.00     0.198 C 
BRANCH  21  22
HETATM   22  O6  UNL     1     -54.503  51.369   8.257  1.00  0.00    -0.398 OA
HETATM   23  H   UNL     1     -55.268  50.812   8.042  1.00  0.00     0.209 HD
ENDBRANCH  21  22
ENDBRANCH  18  21
ENDBRANCH  15  18
ENDBRANCH   1  15
TORSDOF 11
ENDMDL
MODEL 2
REMARK VINA RESULT:      -8.4      0.707      1.578
REMARK  11 active torsions:
REMARK  status: ('A' for Active; 'I' for Inactive)
REMARK    1  A    between atoms: C1_1  and  C2_2 
REMARK    2  A    between atoms: C1_1  and  C10_13 
REMARK    3  A    between atoms: C2_2  and  C3_3 
REMARK    4  A    between atoms: C3_3  and  C4_4 
REMARK    5  A    between atoms: C6_6  and  O1_7 
REMARK    6  A    between atoms: C7_8  and  O2_9 
REMARK    7  A    between atoms: C10_13  and  O4_14 
REMARK    8  A    between atoms: C10_13  and  C11_15 
REMARK    9  A    between atoms: C11_15  and  O5_16 
REMARK   10  A    between atoms: C11_15  and  C12_17 
REMARK   11  A    between atoms: C12_17  and  O6_18 
ROOT
HETATM    1  C1  UNL     1     -54.371  46.984   8.931  1.00  0.00     0.158 C 
HETATM    2  O3  UNL     1     -55.464  47.084   8.366  1.00  0.00    -0.295 OA
ENDROOT
BRANCH   1   3
HETATM    3  C2  UNL     1     -53.801  45.620   9.276  1.00  0.00     0.086 C 
BRANCH   3   4
HETATM    4  C3  UNL     1     -52.568  45.246   8.458  1.00  0.00     0.046 C 
BRANCH   4   5
HETATM    5  C4  UNL     1     -52.878  44.409   7.239  1.00  0.00    -0.055 A 
HETATM    6  C5  UNL     1     -51.847  43.944   6.407  1.00  0.00     0.046 A 
HETATM    7  C6  UNL     1     -52.159  43.184   5.284  1.00  0.00     0.099 A 
HETATM    8  C7  UNL     1     -53.483  42.876   4.986  1.00  0.00     0.098 A 
HETATM    9  C8  UNL     1     -54.513  43.321   5.798  1.00  0.00     0.040 A 
HETATM   10  C9  UNL     1     -54.211  44.086   6.926  1.00  0.00     0.010 A 
BRANCH   7  11
HETATM   11  O1  UNL     1     -51.192  42.713   4.439  1.00  0.00    -0.358 OA
HETATM   12  H   UNL     1     -51.276  41.861   4.058  1.00  0.00     0.217 HD
ENDBRANCH   7  11
BRANCH   8  13
HETATM   13  O2  UNL     1     -53.777  42.129   3.882  1.00  0.00    -0.358 OA
HETATM   14  H   UNL     1     -53.817  42.536   3.038  1.00  0.00     0.217 HD
ENDBRANCH   8  13
ENDBRANCH   4   5
ENDBRANCH   3   4
ENDBRANCH   1   3
BRANCH   1  15
HETATM   15  C10 UNL     1     -53.522  48.215   9.256  1.00  0.00     0.218 C 
BRANCH  15  16
HETATM   16  O4  UNL     1     -52.789  48.571   8.084  1.00  0.00    -0.385 OA
HETATM   17  H   UNL     1     -51.950  48.085   8.067  1.00  0.00     0.210 HD
ENDBRANCH  15  16
BRANCH  15  18
HETATM   18  C11 UNL     1     -54.399  49.386   9.748  1.00  0.00     0.177 C 
BRANCH  18  19
HETATM   19  O5  UNL     1     -54.526  49.379  11.179  1.00  0.00    -0.390 OA
HETATM   20  H   UNL     1     -55.248  48.785  11.436  1.00  0.00     0.210 HD
ENDBRANCH  18  19
BRANCH  18  21
HETATM   21  C12 UNL     1     -53.786  50.740   9.369  1.00  0.00     0.198 C 
BRANCH  21  22
HETATM   22  O6  UNL     1     -54.516  51.314   8.282  1.00  0.00    -0.398 OA
HETATM   23  H   UNL     1     -55.328  50.803   8.132  1.00  0.00     0.209 HD
ENDBRANCH  21  22
ENDBRANCH  18  21
ENDBRANCH  15  18
ENDBRANCH   1  15
TORSDOF 11
ENDMDL
MODEL 3
REMARK VINA RESULT:      -8.2      0.730      1.233
REMARK  11 active torsions:
REMARK  status: ('A' for Active; 'I' for Inactive)
REMARK    1  A    between atoms: C1_1  and  C2_2 
REMARK    2  A    between atoms: C1_1  and  C10_13 
REMARK    3  A    between atoms: C2_2  and  C3_3 
REMARK    4  A    between atoms: C3_3  and  C4_4 
REMARK    5  A    between atoms: C6_6  and  O1_7 
REMARK    6  A    between atoms: C7_8  and  O2_9 
REMARK    7  A    between atoms: C10_13  and  O4_14 
REMARK    8  A    between atoms: C10_13  and  C11_15 
REMARK    9  A    between atoms: C11_15  and  O5_16 
REMARK   10  A    between atoms: C11_15  and  C12_17 
REMARK   11  A    between atoms: C12_17  and  O6_18 
ROOT
HETATM    1  C1  UNL     1     -54.261  46.913   9.377  1.00  0.00     0.158 C 
HETATM    2  O3  UNL     1     -55.066  46.969   8.442  1.00  0.00    -0.295 OA
ENDROOT
BRANCH   1   3
HETATM    3  C2  UNL     1     -53.426  45.666   9.604  1.00  0.00     0.086 C 
BRANCH   3   4
HETATM    4  C3  UNL     1     -52.301  45.489   8.588  1.00  0.00     0.046 C 
BRANCH   4   5
HETATM    5  C4  UNL     1     -52.680  44.631   7.404  1.00  0.00    -0.055 A 
HETATM    6  C5  UNL     1     -53.902  43.938   7.382  1.00  0.00     0.046 A 
HETATM    7  C6  UNL     1     -54.224  43.146   6.285  1.00  0.00     0.099 A 
HETATM    8  C7  UNL     1     -53.348  43.043   5.208  1.00  0.00     0.098 A 
HETATM    9  C8  UNL     1     -52.142  43.723   5.209  1.00  0.00     0.040 A 
HETATM   10  C9  UNL     1     -51.808  44.519   6.306  1.00  0.00     0.010 A 
BRANCH   7  11
HETATM   11  O1  UNL     1     -55.397  42.446   6.218  1.00  0.00    -0.358 OA
HETATM   12  H   UNL     1     -56.003  42.478   6.933  1.00  0.00     0.217 HD
ENDBRANCH   7  11
BRANCH   8  13
HETATM   13  O2  UNL     1     -53.674  42.263   4.136  1.00  0.00    -0.358 OA
HETATM   14  H   UNL     1     -54.572  42.156   3.890  1.00  0.00     0.217 HD
ENDBRANCH   8  13
ENDBRANCH   4   5
ENDBRANCH   3   4
ENDBRANCH   1   3
BRANCH   1  15
HETATM   15  C10 UNL     1     -54.031  48.106  10.307  1.00  0.00     0.218 C 
BRANCH  15  16
HETATM   16  O4  UNL     1     -53.102  47.709  11.316  1.00  0.00    -0.385 OA
HETATM   17  H   UNL     1     -52.801  46.803  11.140  1.00  0.00     0.210 HD
ENDBRANCH  15  16
BRANCH  15  18
HETATM   18  C11 UNL     1     -53.520  49.335   9.526  1.00  0.00     0.177 C 
BRANCH  18  19
HETATM   19  O5  UNL     1     -53.034  48.962   8.226  1.00  0.00    -0.390 OA
HETATM   20  H   UNL     1     -53.261  49.654   7.586  1.00  0.00     0.210 HD
ENDBRANCH  18  19
BRANCH  18  21
HETATM   21  C12 UNL     1     -54.642  50.357   9.297  1.00  0.00     0.198 C 
BRANCH  21  22
HETATM   22  O6  UNL     1     -54.155  51.439   8.501  1.00  0.00    -0.398 OA
HETATM   23  H   UNL     1     -53.276  51.703   8.816  1.00  0.00     0.209 HD
ENDBRANCH  21  22
ENDBRANCH  18  21
ENDBRANCH  15  18
ENDBRANCH   1  15
TORSDOF 11
ENDMDL
MODEL 4
REMARK VINA RESULT:      -8.1      1.405      1.906
REMARK  11 active torsions:
REMARK  status: ('A' for Active; 'I' for Inactive)
REMARK    1  A    between atoms: C1_1  and  C2_2 
REMARK    2  A    between atoms: C1_1  and  C10_13 
REMARK    3  A    between atoms: C2_2  and  C3_3 
REMARK    4  A    between atoms: C3_3  and  C4_4 
REMARK    5  A    between atoms: C6_6  and  O1_7 
REMARK    6  A    between atoms: C7_8  and  O2_9 
REMARK    7  A    between atoms: C10_13  and  O4_14 
REMARK    8  A    between atoms: C10_13  and  C11_15 
REMARK    9  A    between atoms: C11_15  and  O5_16 
REMARK   10  A    between atoms: C11_15  and  C12_17 
REMARK   11  A    between atoms: C12_17  and  O6_18 
ROOT
HETATM    1  C1  UNL     1     -53.154  47.684  10.513  1.00  0.00     0.158 C 
HETATM    2  O3  UNL     1     -52.562  47.813  11.589  1.00  0.00    -0.295 OA
ENDROOT
BRANCH   1   3
HETATM    3  C2  UNL     1     -53.870  46.388  10.176  1.00  0.00     0.086 C 
BRANCH   3   4
HETATM    4  C3  UNL     1     -52.951  45.169  10.153  1.00  0.00     0.046 C 
BRANCH   4   5
HETATM    5  C4  UNL     1     -53.158  44.274   8.954  1.00  0.00    -0.055 A 
HETATM    6  C5  UNL     1     -53.851  44.737   7.824  1.00  0.00     0.046 A 
HETATM    7  C6  UNL     1     -54.038  43.889   6.736  1.00  0.00     0.099 A 
HETATM    8  C7  UNL     1     -53.539  42.591   6.760  1.00  0.00     0.098 A 
HETATM    9  C8  UNL     1     -52.848  42.118   7.864  1.00  0.00     0.040 A 
HETATM   10  C9  UNL     1     -52.656  42.960   8.960  1.00  0.00     0.010 A 
BRANCH   7  11
HETATM   11  O1  UNL     1     -54.712  44.291   5.615  1.00  0.00    -0.358 OA
HETATM   12  H   UNL     1     -54.678  43.770   4.837  1.00  0.00     0.217 HD
ENDBRANCH   7  11
BRANCH   8  13
HETATM   13  O2  UNL     1     -53.728  41.768   5.688  1.00  0.00    -0.358 OA
HETATM   14  H   UNL     1     -54.489  41.866   5.150  1.00  0.00     0.217 HD
ENDBRANCH   8  13
ENDBRANCH   4   5
ENDBRANCH   3   4
ENDBRANCH   1   3
BRANCH   1  15
HETATM   15  C10 UNL     1     -53.241  48.832   9.504  1.00  0.00     0.218 C 
BRANCH  15  16
HETATM   16  O4  UNL     1     -53.381  48.265   8.201  1.00  0.00    -0.385 OA
HETATM   17  H   UNL     1     -52.508  48.015   7.861  1.00  0.00     0.210 HD
ENDBRANCH  15  16
BRANCH  15  18
HETATM   18  C11 UNL     1     -54.412  49.780   9.834  1.00  0.00     0.177 C 
BRANCH  18  19
HETATM   19  O5  UNL     1     -54.740  49.738  11.232  1.00  0.00    -0.390 OA
HETATM   20  H   UNL     1     -55.220  50.546  11.475  1.00  0.00     0.210 HD
ENDBRANCH  18  19
BRANCH  18  21
HETATM   21  C12 UNL     1     -54.059  51.237   9.510  1.00  0.00     0.198 C 
BRANCH  21  22
HETATM   22  O6  UNL     1     -54.536  51.572   8.205  1.00  0.00    -0.398 OA
HETATM   23  H   UNL     1     -55.441  51.917   8.270  1.00  0.00     0.209 HD
ENDBRANCH  21  22
ENDBRANCH  18  21
ENDBRANCH  15  18
ENDBRANCH   1  15
TORSDOF 11
ENDMDL
MODEL 5
REMARK VINA RESULT:      -8.1      1.321      2.324
REMARK  11 active torsions:
REMARK  status: ('A' for Active; 'I' for Inactive)
REMARK    1  A    between atoms: C1_1  and  C2_2 
REMARK    2  A    between atoms: C1_1  and  C10_13 
REMARK    3  A    between atoms: C2_2  and  C3_3 
REMARK    4  A    between atoms: C3_3  and  C4_4 
REMARK    5  A    between atoms: C6_6  and  O1_7 
REMARK    6  A    between atoms: C7_8  and  O2_9 
REMARK    7  A    between atoms: C10_13  and  O4_14 
REMARK    8  A    between atoms: C10_13  and  C11_15 
REMARK    9  A    between atoms: C11_15  and  O5_16 
REMARK   10  A    between atoms: C11_15  and  C12_17 
REMARK   11  A    between atoms: C12_17  and  O6_18 
ROOT
HETATM    1  C1  UNL     1     -52.259  47.528   8.551  1.00  0.00     0.158 C 
HETATM    2  O3  UNL     1     -51.929  48.301   7.647  1.00  0.00    -0.295 OA
ENDROOT
BRANCH   1   3
HETATM    3  C2  UNL     1     -51.559  46.191   8.718  1.00  0.00     0.086 C 
BRANCH   3   4
HETATM    4  C3  UNL     1     -52.517  45.010   8.846  1.00  0.00     0.046 C 
BRANCH   4   5
HETATM    5  C4  UNL     1     -52.788  44.302   7.539  1.00  0.00    -0.055 A 
HETATM    6  C5  UNL     1     -51.732  43.793   6.766  1.00  0.00     0.046 A 
HETATM    7  C6  UNL     1     -52.007  43.155   5.561  1.00  0.00     0.099 A 
HETATM    8  C7  UNL     1     -53.319  43.014   5.121  1.00  0.00     0.098 A 
HETATM    9  C8  UNL     1     -54.374  43.505   5.872  1.00  0.00     0.040 A 
HETATM   10  C9  UNL     1     -54.109  44.147   7.082  1.00  0.00     0.010 A 
BRANCH   7  11
HETATM   11  O1  UNL     1     -51.013  42.648   4.769  1.00  0.00    -0.358 OA
HETATM   12  H   UNL     1     -51.222  42.283   3.931  1.00  0.00     0.217 HD
ENDBRANCH   7  11
BRANCH   8  13
HETATM   13  O2  UNL     1     -53.577  42.386   3.936  1.00  0.00    -0.358 OA
HETATM   14  H   UNL     1     -52.873  42.172   3.356  1.00  0.00     0.217 HD
ENDBRANCH   8  13
ENDBRANCH   4   5
ENDBRANCH   3   4
ENDBRANCH   1   3
BRANCH   1  15
HETATM   15  C10 UNL     1     -53.341  47.899   9.567  1.00  0.00     0.218 C 
BRANCH  15  16
HETATM   16  O4  UNL     1     -52.701  48.184  10.812  1.00  0.00    -0.385 OA
HETATM   17  H   UNL     1     -53.325  48.032  11.539  1.00  0.00     0.210 HD
ENDBRANCH  15  16
BRANCH  15  18
HETATM   18  C11 UNL     1     -54.179  49.099   9.079  1.00  0.00     0.177 C 
BRANCH  18  19
HETATM   19  O5  UNL     1     -55.132  48.700   8.081  1.00  0.00    -0.390 OA
HETATM   20  H   UNL     1     -54.671  48.248   7.357  1.00  0.00     0.210 HD
ENDBRANCH  18  19
BRANCH  18  21
HETATM   21  C12 UNL     1     -54.983  49.723  10.228  1.00  0.00     0.198 C 
BRANCH  21  22
HETATM   22  O6  UNL     1     -54.248  50.808  10.799  1.00  0.00    -0.398 OA
HETATM   23  H   UNL     1     -54.419  51.617  10.291  1.00  0.00     0.209 HD
ENDBRANCH  21  22
ENDBRANCH  18  21
ENDBRANCH  15  18
ENDBRANCH   1  15
TORSDOF 11
ENDMDL
MODEL 6
REMARK VINA RESULT:      -8.0      1.611      2.916
REMARK  11 active torsions:
REMARK  status: ('A' for Active; 'I' for Inactive)
REMARK    1  A    between atoms: C1_1  and  C2_2 
REMARK    2  A    between atoms: C1_1  and  C10_13 
REMARK    3  A    between atoms: C2_2  and  C3_3 
REMARK    4  A    between atoms: C3_3  and  C4_4 
REMARK    5  A    between atoms: C6_6  and  O1_7 
REMARK    6  A    between atoms: C7_8  and  O2_9 
REMARK    7  A    between atoms: C10_13  and  O4_14 
REMARK    8  A    between atoms: C10_13  and  C11_15 
REMARK    9  A    between atoms: C11_15  and  O5_16 
REMARK   10  A    between atoms: C11_15  and  C12_17 
REMARK   11  A    between atoms: C12_17  and  O6_18 
ROOT
HETATM    1  C1  UNL     1     -52.503  47.372   8.708  1.00  0.00     0.158 C 
HETATM    2  O3  UNL     1     -52.387  48.352   7.965  1.00  0.00    -0.295 OA
ENDROOT
BRANCH   1   3
HETATM    3  C2  UNL     1     -51.545  46.200   8.596  1.00  0.00     0.086 C 
BRANCH   3   4
HETATM    4  C3  UNL     1     -52.214  44.842   8.794  1.00  0.00     0.046 C 
BRANCH   4   5
HETATM    5  C4  UNL     1     -52.560  44.140   7.502  1.00  0.00    -0.055 A 
HETATM    6  C5  UNL     1     -51.983  44.547   6.288  1.00  0.00     0.046 A 
HETATM    7  C6  UNL     1     -52.326  43.891   5.110  1.00  0.00     0.099 A 
HETATM    8  C7  UNL     1     -53.230  42.833   5.128  1.00  0.00     0.098 A 
HETATM    9  C8  UNL     1     -53.805  42.415   6.317  1.00  0.00     0.040 A 
HETATM   10  C9  UNL     1     -53.469  43.067   7.504  1.00  0.00     0.010 A 
BRANCH   7  11
HETATM   11  O1  UNL     1     -51.797  44.253   3.901  1.00  0.00    -0.358 OA
HETATM   12  H   UNL     1     -50.910  44.549   3.848  1.00  0.00     0.217 HD
ENDBRANCH   7  11
BRANCH   8  13
HETATM   13  O2  UNL     1     -53.560  42.197   3.966  1.00  0.00    -0.358 OA
HETATM   14  H   UNL     1     -54.181  41.495   3.976  1.00  0.00     0.217 HD
ENDBRANCH   8  13
ENDBRANCH   4   5
ENDBRANCH   3   4
ENDBRANCH   1   3
BRANCH   1  15
HETATM   15  C10 UNL     1     -53.573  47.319   9.802  1.00  0.00     0.218 C 
BRANCH  15  16
HETATM   16  O4  UNL     1     -53.260  48.315  10.776  1.00  0.00    -0.385 OA
HETATM   17  H   UNL     1     -52.641  48.957  10.395  1.00  0.00     0.210 HD
ENDBRANCH  15  16
BRANCH  15  18
HETATM   18  C11 UNL     1     -54.984  47.529   9.215  1.00  0.00     0.177 C 
BRANCH  18  19
HETATM   19  O5  UNL     1     -54.980  48.537   8.192  1.00  0.00    -0.390 OA
HETATM   20  H   UNL     1     -55.748  48.412   7.612  1.00  0.00     0.210 HD
ENDBRANCH  18  19
BRANCH  18  21
HETATM   21  C12 UNL     1     -55.515  46.246   8.564  1.00  0.00     0.198 C 
BRANCH  21  22
HETATM   22  O6  UNL     1     -55.442  45.164   9.496  1.00  0.00    -0.398 OA
HETATM   23  H   UNL     1     -56.321  44.767   9.599  1.00  0.00     0.209 HD
ENDBRANCH  21  22
ENDBRANCH  18  21
ENDBRANCH  15  18
ENDBRANCH   1  15
TORSDOF 11
ENDMDL
MODEL 7
REMARK VINA RESULT:      -8.0      2.089      2.665
REMARK  11 active torsions:
REMARK  status: ('A' for Active; 'I' for Inactive)
REMARK    1  A    between atoms: C1_1  and  C2_2 
REMARK    2  A    between atoms: C1_1  and  C10_13 
REMARK    3  A    between atoms: C2_2  and  C3_3 
REMARK    4  A    between atoms: C3_3  and  C4_4 
REMARK    5  A    between atoms: C6_6  and  O1_7 
REMARK    6  A    between atoms: C7_8  and  O2_9 
REMARK    7  A    between atoms: C10_13  and  O4_14 
REMARK    8  A    between atoms: C10_13  and  C11_15 
REMARK    9  A    between atoms: C11_15  and  O5_16 
REMARK   10  A    between atoms: C11_15  and  C12_17 
REMARK   11  A    between atoms: C12_17  and  O6_18 
ROOT
HETATM    1  C1  UNL     1     -53.412  46.170   8.874  1.00  0.00     0.158 C 
HETATM    2  O3  UNL     1     -54.402  45.877   8.198  1.00  0.00    -0.295 OA
ENDROOT
BRANCH   1   3
HETATM    3  C2  UNL     1     -52.411  45.103   9.281  1.00  0.00     0.086 C 
BRANCH   3   4
HETATM    4  C3  UNL     1     -52.748  43.713   8.750  1.00  0.00     0.046 C 
BRANCH   4   5
HETATM    5  C4  UNL     1     -52.002  43.347   7.488  1.00  0.00    -0.055 A 
HETATM    6  C5  UNL     1     -50.706  42.808   7.551  1.00  0.00     0.046 A 
HETATM    7  C6  UNL     1     -50.036  42.489   6.374  1.00  0.00     0.099 A 
HETATM    8  C7  UNL     1     -50.643  42.694   5.139  1.00  0.00     0.098 A 
HETATM    9  C8  UNL     1     -51.922  43.220   5.057  1.00  0.00     0.040 A 
HETATM   10  C9  UNL     1     -52.603  43.544   6.232  1.00  0.00     0.010 A 
BRANCH   7  11
HETATM   11  O1  UNL     1     -48.771  41.969   6.382  1.00  0.00    -0.358 OA
HETATM   12  H   UNL     1     -48.485  41.423   5.676  1.00  0.00     0.217 HD
ENDBRANCH   7  11
BRANCH   8  13
HETATM   13  O2  UNL     1     -49.976  42.378   3.991  1.00  0.00    -0.358 OA
HETATM   14  H   UNL     1     -49.361  41.671   3.985  1.00  0.00     0.217 HD
ENDBRANCH   8  13
ENDBRANCH   4   5
ENDBRANCH   3   4
ENDBRANCH   1   3
BRANCH   1  15
HETATM   15  C10 UNL     1     -53.121  47.616   9.283  1.00  0.00     0.218 C 
BRANCH  15  16
HETATM   16  O4  UNL     1     -52.730  48.336   8.113  1.00  0.00    -0.385 OA
HETATM   17  H   UNL     1     -53.241  49.159   8.055  1.00  0.00     0.210 HD
ENDBRANCH  15  16
BRANCH  15  18
HETATM   18  C11 UNL     1     -54.347  48.264   9.959  1.00  0.00     0.177 C 
BRANCH  18  19
HETATM   19  O5  UNL     1     -53.975  48.960  11.160  1.00  0.00    -0.390 OA
HETATM   20  H   UNL     1     -54.567  48.698  11.881  1.00  0.00     0.210 HD
ENDBRANCH  18  19
BRANCH  18  21
HETATM   21  C12 UNL     1     -55.009  49.299   9.040  1.00  0.00     0.198 C 
BRANCH  21  22
HETATM   22  O6  UNL     1     -55.409  48.675   7.818  1.00  0.00    -0.398 OA
HETATM   23  H   UNL     1     -54.988  49.129   7.071  1.00  0.00     0.209 HD
ENDBRANCH  21  22
ENDBRANCH  18  21
ENDBRANCH  15  18
ENDBRANCH   1  15
TORSDOF 11
ENDMDL
MODEL 8
REMARK VINA RESULT:      -8.0      2.093      3.002
REMARK  11 active torsions:
REMARK  status: ('A' for Active; 'I' for Inactive)
REMARK    1  A    between atoms: C1_1  and  C2_2 
REMARK    2  A    between atoms: C1_1  and  C10_13 
REMARK    3  A    between atoms: C2_2  and  C3_3 
REMARK    4  A    between atoms: C3_3  and  C4_4 
REMARK    5  A    between atoms: C6_6  and  O1_7 
REMARK    6  A    between atoms: C7_8  and  O2_9 
REMARK    7  A    between atoms: C10_13  and  O4_14 
REMARK    8  A    between atoms: C10_13  and  C11_15 
REMARK    9  A    between atoms: C11_15  and  O5_16 
REMARK   10  A    between atoms: C11_15  and  C12_17 
REMARK   11  A    between atoms: C12_17  and  O6_18 
ROOT
HETATM    1  C1  UNL     1     -52.715  47.437   8.804  1.00  0.00     0.158 C 
HETATM    2  O3  UNL     1     -52.414  48.323   7.999  1.00  0.00    -0.295 OA
ENDROOT
BRANCH   1   3
HETATM    3  C2  UNL     1     -51.979  46.108   8.802  1.00  0.00     0.086 C 
BRANCH   3   4
HETATM    4  C3  UNL     1     -52.781  44.965   8.186  1.00  0.00     0.046 C 
BRANCH   4   5
HETATM    5  C4  UNL     1     -52.029  44.198   7.123  1.00  0.00    -0.055 A 
HETATM    6  C5  UNL     1     -52.260  44.447   5.760  1.00  0.00     0.046 A 
HETATM    7  C6  UNL     1     -51.563  43.720   4.801  1.00  0.00     0.099 A 
HETATM    8  C7  UNL     1     -50.636  42.756   5.182  1.00  0.00     0.098 A 
HETATM    9  C8  UNL     1     -50.391  42.500   6.522  1.00  0.00     0.040 A 
HETATM   10  C9  UNL     1     -51.086  43.223   7.492  1.00  0.00     0.010 A 
BRANCH   7  11
HETATM   11  O1  UNL     1     -51.756  43.920   3.461  1.00  0.00    -0.358 OA
HETATM   12  H   UNL     1     -52.608  44.140   3.139  1.00  0.00     0.217 HD
ENDBRANCH   7  11
BRANCH   8  13
HETATM   13  O2  UNL     1     -49.957  42.048   4.232  1.00  0.00    -0.358 OA
HETATM   14  H   UNL     1     -49.260  41.475   4.484  1.00  0.00     0.217 HD
ENDBRANCH   8  13
ENDBRANCH   4   5
ENDBRANCH   3   4
ENDBRANCH   1   3
BRANCH   1  15
HETATM   15  C10 UNL     1     -53.795  47.653   9.866  1.00  0.00     0.218 C 
BRANCH  15  16
HETATM   16  O4  UNL     1     -53.375  48.723  10.714  1.00  0.00    -0.385 OA
HETATM   17  H   UNL     1     -54.088  48.944  11.333  1.00  0.00     0.210 HD
ENDBRANCH  15  16
BRANCH  15  18
HETATM   18  C11 UNL     1     -55.164  47.952   9.220  1.00  0.00     0.177 C 
BRANCH  18  19
HETATM   19  O5  UNL     1     -55.025  48.806   8.073  1.00  0.00    -0.390 OA
HETATM   20  H   UNL     1     -54.312  48.471   7.506  1.00  0.00     0.210 HD
ENDBRANCH  18  19
BRANCH  18  21
HETATM   21  C12 UNL     1     -55.843  46.667   8.730  1.00  0.00     0.198 C 
BRANCH  21  22
HETATM   22  O6  UNL     1     -57.262  46.796   8.842  1.00  0.00    -0.398 OA
HETATM   23  H   UNL     1     -57.691  46.064   8.372  1.00  0.00     0.209 HD
ENDBRANCH  21  22
ENDBRANCH  18  21
ENDBRANCH  15  18
ENDBRANCH   1  15
TORSDOF 11
ENDMDL
MODEL 9
REMARK VINA RESULT:      -7.9      1.237      2.234
REMARK  11 active torsions:
REMARK  status: ('A' for Active; 'I' for Inactive)
REMARK    1  A    between atoms: C1_1  and  C2_2 
REMARK    2  A    between atoms: C1_1  and  C10_13 
REMARK    3  A    between atoms: C2_2  and  C3_3 
REMARK    4  A    between atoms: C3_3  and  C4_4 
REMARK    5  A    between atoms: C6_6  and  O1_7 
REMARK    6  A    between atoms: C7_8  and  O2_9 
REMARK    7  A    between atoms: C10_13  and  O4_14 
REMARK    8  A    between atoms: C10_13  and  C11_15 
REMARK    9  A    between atoms: C11_15  and  O5_16 
REMARK   10  A    between atoms: C11_15  and  C12_17 
REMARK   11  A    between atoms: C12_17  and  O6_18 
ROOT
HETATM    1  C1  UNL     1     -54.488  48.721   8.930  1.00  0.00     0.158 C 
HETATM    2  O3  UNL     1     -55.216  48.432   7.976  1.00  0.00    -0.295 OA
ENDROOT
BRANCH   1   3
HETATM    3  C2  UNL     1     -53.229  47.920   9.212  1.00  0.00     0.086 C 
BRANCH   3   4
HETATM    4  C3  UNL     1     -53.504  46.489   9.669  1.00  0.00     0.046 C 
BRANCH   4   5
HETATM    5  C4  UNL     1     -53.285  45.454   8.591  1.00  0.00    -0.055 A 
HETATM    6  C5  UNL     1     -54.375  44.819   7.974  1.00  0.00     0.046 A 
HETATM    7  C6  UNL     1     -54.148  43.861   6.991  1.00  0.00     0.099 A 
HETATM    8  C7  UNL     1     -52.849  43.534   6.613  1.00  0.00     0.098 A 
HETATM    9  C8  UNL     1     -51.762  44.153   7.206  1.00  0.00     0.040 A 
HETATM   10  C9  UNL     1     -51.979  45.114   8.194  1.00  0.00     0.010 A 
BRANCH   7  11
HETATM   11  O1  UNL     1     -55.175  43.210   6.365  1.00  0.00    -0.358 OA
HETATM   12  H   UNL     1     -56.061  43.471   6.524  1.00  0.00     0.217 HD
ENDBRANCH   7  11
BRANCH   8  13
HETATM   13  O2  UNL     1     -52.637  42.592   5.647  1.00  0.00    -0.358 OA
HETATM   14  H   UNL     1     -52.661  41.681   5.868  1.00  0.00     0.217 HD
ENDBRANCH   8  13
ENDBRANCH   4   5
ENDBRANCH   3   4
ENDBRANCH   1   3
BRANCH   1  15
HETATM   15  C10 UNL     1     -54.787  49.921   9.831  1.00  0.00     0.218 C 
BRANCH  15  16
HETATM   16  O4  UNL     1     -54.405  49.581  11.164  1.00  0.00    -0.385 OA
HETATM   17  H   UNL     1     -53.450  49.718  11.272  1.00  0.00     0.210 HD
ENDBRANCH  15  16
BRANCH  15  18
HETATM   18  C11 UNL     1     -54.051  51.186   9.341  1.00  0.00     0.177 C 
BRANCH  18  19
HETATM   19  O5  UNL     1     -54.456  51.544   8.010  1.00  0.00    -0.390 OA
HETATM   20  H   UNL     1     -55.135  52.235   8.054  1.00  0.00     0.210 HD
ENDBRANCH  18  19
BRANCH  18  21
HETATM   21  C12 UNL     1     -54.361  52.394  10.234  1.00  0.00     0.198 C 
BRANCH  21  22
HETATM   22  O6  UNL     1     -53.742  52.224  11.511  1.00  0.00    -0.398 OA
HETATM   23  H   UNL     1     -52.965  51.650  11.420  1.00  0.00     0.209 HD
ENDBRANCH  21  22
ENDBRANCH  18  21
ENDBRANCH  15  18
ENDBRANCH   1  15
TORSDOF 11
ENDMDL
