MODEL 1
REMARK VINA RESULT:      -8.6      0.000      0.000
REMARK  11 active torsions:
REMARK  status: ('A' for Active; 'I' for Inactive)
REMARK    1  A    between atoms: C1_1  and  C2_2 
REMARK    2  A    between atoms: C1_1  and  C10_13 
REMARK    3  A    between atoms: C2_2  and  C3_3 
REMARK    4  A    between atoms: C3_3  and  C4_4 
REMARK    5  A    between atoms: C6_6  and  O1_7 
REMARK    6  A    between atoms: C7_8  and  O2_9 
REMARK    7  A    between atoms: C10_13  and  O4_14 
REMARK    8  A    between atoms: C10_13  and  C11_15 
REMARK    9  A    between atoms: C11_15  and  O5_16 
REMARK   10  A    between atoms: C11_15  and  C12_17 
REMARK   11  A    between atoms: C12_17  and  O6_18 
ROOT
HETATM    1  C1  UNL     1     -54.116  46.997   8.964  1.00  0.00     0.158 C 
HETATM    2  O3  UNL     1     -55.234  46.985   8.441  1.00  0.00    -0.295 OA
ENDROOT
BRANCH   1   3
HETATM    3  C2  UNL     1     -53.402  45.698   9.291  1.00  0.00     0.086 C 
BRANCH   3   4
HETATM    4  C3  UNL     1     -52.280  45.353   8.315  1.00  0.00     0.046 C 
BRANCH   4   5
HETATM    5  C4  UNL     1     -52.722  44.480   7.164  1.00  0.00    -0.055 A 
HETATM    6  C5  UNL     1     -53.979  43.854   7.180  1.00  0.00     0.046 A 
HETATM    7  C6  UNL     1     -54.358  43.046   6.113  1.00  0.00     0.099 A 
HETATM    8  C7  UNL     1     -53.505  42.861   5.030  1.00  0.00     0.098 A 
HETATM    9  C8  UNL     1     -52.264  43.474   4.994  1.00  0.00     0.040 A 
HETATM   10  C9  UNL     1     -51.872  44.286   6.060  1.00  0.00     0.010 A 
BRANCH   7  11
HETATM   11  O1  UNL     1     -55.568  42.409   6.084  1.00  0.00    -0.358 OA
HETATM   12  H   UNL     1     -56.346  42.890   5.878  1.00  0.00     0.217 HD
ENDBRANCH   7  11
BRANCH   8  13
HETATM   13  O2  UNL     1     -53.887  42.065   3.988  1.00  0.00    -0.358 OA
HETATM   14  H   UNL     1     -53.688  42.317   3.108  1.00  0.00     0.217 HD
ENDBRANCH   8  13
ENDBRANCH   4   5
ENDBRANCH   3   4
ENDBRANCH   1   3
BRANCH   1  15
HETATM   15  C10 UNL     1     -53.381  48.308   9.254  1.00  0.00     0.218 C 
BRANCH  15  16
HETATM   16  O4  UNL     1     -52.685  48.697   8.069  1.00  0.00    -0.385 OA
HETATM   17  H   UNL     1     -52.899  49.619   7.856  1.00  0.00     0.210 HD
ENDBRANCH  15  16
BRANCH  15  18
HETATM   18  C11 UNL     1     -54.360  49.408   9.716  1.00  0.00     0.177 C 
BRANCH  18  19
HETATM   19  O5  UNL     1     -54.554  49.369  11.139  1.00  0.00    -0.390 OA
HETATM   20  H   UNL     1     -55.228  48.706  11.355  1.00  0.00     0.210 HD
ENDBRANCH  18  19
BRANCH  18  21
HETATM   21  C12 UNL     1     -53.825  50.807   9.384  1.00  0.00     0.198 C 
BRANCH  21  22
HETATM   22  O6  UNL     1     -54.509  51.328   8.243  1.00  0.00    -0.398 OA
HETATM   23  H   UNL     1     -54.133  52.191   8.007  1.00  0.00     0.209 HD
ENDBRANCH  21  22
ENDBRANCH  18  21
ENDBRANCH  15  18
ENDBRANCH   1  15
TORSDOF 11
ENDMDL
MODEL 2
REMARK VINA RESULT:      -8.4      0.733      1.581
REMARK  11 active torsions:
REMARK  status: ('A' for Active; 'I' for Inactive)
REMARK    1  A    between atoms: C1_1  and  C2_2 
REMARK    2  A    between atoms: C1_1  and  C10_13 
REMARK    3  A    between atoms: C2_2  and  C3_3 
REMARK    4  A    between atoms: C3_3  and  C4_4 
REMARK    5  A    between atoms: C6_6  and  O1_7 
REMARK    6  A    between atoms: C7_8  and  O2_9 
REMARK    7  A    between atoms: C10_13  and  O4_14 
REMARK    8  A    between atoms: C10_13  and  C11_15 
REMARK    9  A    between atoms: C11_15  and  O5_16 
REMARK   10  A    between atoms: C11_15  and  C12_17 
REMARK   11  A    between atoms: C12_17  and  O6_18 
ROOT
HETATM    1  C1  UNL     1     -54.434  47.062   8.913  1.00  0.00     0.158 C 
HETATM    2  O3  UNL     1     -55.501  47.183   8.304  1.00  0.00    -0.295 OA
ENDROOT
BRANCH   1   3
HETATM    3  C2  UNL     1     -53.908  45.687   9.286  1.00  0.00     0.086 C 
BRANCH   3   4
HETATM    4  C3  UNL     1     -52.659  45.278   8.509  1.00  0.00     0.046 C 
BRANCH   4   5
HETATM    5  C4  UNL     1     -52.949  44.440   7.287  1.00  0.00    -0.055 A 
HETATM    6  C5  UNL     1     -51.904  43.967   6.476  1.00  0.00     0.046 A 
HETATM    7  C6  UNL     1     -52.198  43.206   5.349  1.00  0.00     0.099 A 
HETATM    8  C7  UNL     1     -53.517  42.905   5.026  1.00  0.00     0.098 A 
HETATM    9  C8  UNL     1     -54.561  43.357   5.817  1.00  0.00     0.040 A 
HETATM   10  C9  UNL     1     -54.277  44.123   6.949  1.00  0.00     0.010 A 
BRANCH   7  11
HETATM   11  O1  UNL     1     -51.217  42.729   4.524  1.00  0.00    -0.358 OA
HETATM   12  H   UNL     1     -50.996  43.194   3.741  1.00  0.00     0.217 HD
ENDBRANCH   7  11
BRANCH   8  13
HETATM   13  O2  UNL     1     -53.795  42.157   3.918  1.00  0.00    -0.358 OA
HETATM   14  H   UNL     1     -53.736  41.222   3.957  1.00  0.00     0.217 HD
ENDBRANCH   8  13
ENDBRANCH   4   5
ENDBRANCH   3   4
ENDBRANCH   1   3
BRANCH   1  15
HETATM   15  C10 UNL     1     -53.573  48.276   9.270  1.00  0.00     0.218 C 
BRANCH  15  16
HETATM   16  O4  UNL     1     -52.836  48.653   8.106  1.00  0.00    -0.385 OA
HETATM   17  H   UNL     1     -53.196  48.193   7.332  1.00  0.00     0.210 HD
ENDBRANCH  15  16
BRANCH  15  18
HETATM   18  C11 UNL     1     -54.439  49.442   9.790  1.00  0.00     0.177 C 
BRANCH  18  19
HETATM   19  O5  UNL     1     -54.534  49.424  11.223  1.00  0.00    -0.390 OA
HETATM   20  H   UNL     1     -53.645  49.476  11.606  1.00  0.00     0.210 HD
ENDBRANCH  18  19
BRANCH  18  21
HETATM   21  C12 UNL     1     -53.834  50.800   9.408  1.00  0.00     0.198 C 
BRANCH  21  22
HETATM   22  O6  UNL     1     -54.503  51.320   8.257  1.00  0.00    -0.398 OA
HETATM   23  H   UNL     1     -54.961  52.143   8.493  1.00  0.00     0.209 HD
ENDBRANCH  21  22
ENDBRANCH  18  21
ENDBRANCH  15  18
ENDBRANCH   1  15
TORSDOF 11
ENDMDL
MODEL 3
REMARK VINA RESULT:      -8.1      1.488      2.022
REMARK  11 active torsions:
REMARK  status: ('A' for Active; 'I' for Inactive)
REMARK    1  A    between atoms: C1_1  and  C2_2 
REMARK    2  A    between atoms: C1_1  and  C10_13 
REMARK    3  A    between atoms: C2_2  and  C3_3 
REMARK    4  A    between atoms: C3_3  and  C4_4 
REMARK    5  A    between atoms: C6_6  and  O1_7 
REMARK    6  A    between atoms: C7_8  and  O2_9 
REMARK    7  A    between atoms: C10_13  and  O4_14 
REMARK    8  A    between atoms: C10_13  and  C11_15 
REMARK    9  A    between atoms: C11_15  and  O5_16 
REMARK   10  A    between atoms: C11_15  and  C12_17 
REMARK   11  A    between atoms: C12_17  and  O6_18 
ROOT
HETATM    1  C1  UNL     1     -54.137  47.044   8.902  1.00  0.00     0.158 C 
HETATM    2  O3  UNL     1     -55.301  47.054   8.491  1.00  0.00    -0.295 OA
ENDROOT
BRANCH   1   3
HETATM    3  C2  UNL     1     -53.377  45.736   9.040  1.00  0.00     0.086 C 
BRANCH   3   4
HETATM    4  C3  UNL     1     -53.878  44.636   8.107  1.00  0.00     0.046 C 
BRANCH   4   5
HETATM    5  C4  UNL     1     -52.790  44.006   7.271  1.00  0.00    -0.055 A 
HETATM    6  C5  UNL     1     -52.795  44.135   5.872  1.00  0.00     0.046 A 
HETATM    7  C6  UNL     1     -51.787  43.536   5.122  1.00  0.00     0.099 A 
HETATM    8  C7  UNL     1     -50.774  42.818   5.750  1.00  0.00     0.098 A 
HETATM    9  C8  UNL     1     -50.750  42.685   7.128  1.00  0.00     0.040 A 
HETATM   10  C9  UNL     1     -51.756  43.280   7.889  1.00  0.00     0.010 A 
BRANCH   7  11
HETATM   11  O1  UNL     1     -51.751  43.627   3.758  1.00  0.00    -0.358 OA
HETATM   12  H   UNL     1     -50.951  43.461   3.299  1.00  0.00     0.217 HD
ENDBRANCH   7  11
BRANCH   8  13
HETATM   13  O2  UNL     1     -49.790  42.235   5.004  1.00  0.00    -0.358 OA
HETATM   14  H   UNL     1     -49.612  42.544   4.138  1.00  0.00     0.217 HD
ENDBRANCH   8  13
ENDBRANCH   4   5
ENDBRANCH   3   4
ENDBRANCH   1   3
BRANCH   1  15
HETATM   15  C10 UNL     1     -53.394  48.340   9.236  1.00  0.00     0.218 C 
BRANCH  15  16
HETATM   16  O4  UNL     1     -52.704  48.769   8.063  1.00  0.00    -0.385 OA
HETATM   17  H   UNL     1     -53.333  49.179   7.449  1.00  0.00     0.210 HD
ENDBRANCH  15  16
BRANCH  15  18
HETATM   18  C11 UNL     1     -54.365  49.425   9.747  1.00  0.00     0.177 C 
BRANCH  18  19
HETATM   19  O5  UNL     1     -54.522  49.357  11.173  1.00  0.00    -0.390 OA
HETATM   20  H   UNL     1     -53.661  49.184  11.585  1.00  0.00     0.210 HD
ENDBRANCH  18  19
BRANCH  18  21
HETATM   21  C12 UNL     1     -53.844  50.833   9.429  1.00  0.00     0.198 C 
BRANCH  21  22
HETATM   22  O6  UNL     1     -54.474  51.326   8.245  1.00  0.00    -0.398 OA
HETATM   23  H   UNL     1     -53.991  51.007   7.466  1.00  0.00     0.209 HD
ENDBRANCH  21  22
ENDBRANCH  18  21
ENDBRANCH  15  18
ENDBRANCH   1  15
TORSDOF 11
ENDMDL
MODEL 4
REMARK VINA RESULT:      -8.1      1.595      2.048
REMARK  11 active torsions:
REMARK  status: ('A' for Active; 'I' for Inactive)
REMARK    1  A    between atoms: C1_1  and  C2_2 
REMARK    2  A    between atoms: C1_1  and  C10_13 
REMARK    3  A    between atoms: C2_2  and  C3_3 
REMARK    4  A    between atoms: C3_3  and  C4_4 
REMARK    5  A    between atoms: C6_6  and  O1_7 
REMARK    6  A    between atoms: C7_8  and  O2_9 
REMARK    7  A    between atoms: C10_13  and  O4_14 
REMARK    8  A    between atoms: C10_13  and  C11_15 
REMARK    9  A    between atoms: C11_15  and  O5_16 
REMARK   10  A    between atoms: C11_15  and  C12_17 
REMARK   11  A    between atoms: C12_17  and  O6_18 
ROOT
HETATM    1  C1  UNL     1     -53.211  47.606  10.501  1.00  0.00     0.158 C 
HETATM    2  O3  UNL     1     -52.830  47.740  11.668  1.00  0.00    -0.295 OA
ENDROOT
BRANCH   1   3
HETATM    3  C2  UNL     1     -53.740  46.270  10.010  1.00  0.00     0.086 C 
BRANCH   3   4
HETATM    4  C3  UNL     1     -52.650  45.223   9.792  1.00  0.00     0.046 C 
BRANCH   4   5
HETATM    5  C4  UNL     1     -52.976  44.222   8.709  1.00  0.00    -0.055 A 
HETATM    6  C5  UNL     1     -52.402  42.940   8.721  1.00  0.00     0.046 A 
HETATM    7  C6  UNL     1     -52.710  42.039   7.706  1.00  0.00     0.099 A 
HETATM    8  C7  UNL     1     -53.586  42.398   6.687  1.00  0.00     0.098 A 
HETATM    9  C8  UNL     1     -54.166  43.656   6.661  1.00  0.00     0.040 A 
HETATM   10  C9  UNL     1     -53.863  44.568   7.674  1.00  0.00     0.010 A 
BRANCH   7  11
HETATM   11  O1  UNL     1     -52.173  40.782   7.669  1.00  0.00    -0.358 OA
HETATM   12  H   UNL     1     -52.445  40.137   8.293  1.00  0.00     0.217 HD
ENDBRANCH   7  11
BRANCH   8  13
HETATM   13  O2  UNL     1     -53.881  41.506   5.696  1.00  0.00    -0.358 OA
HETATM   14  H   UNL     1     -53.218  40.929   5.372  1.00  0.00     0.217 HD
ENDBRANCH   8  13
ENDBRANCH   4   5
ENDBRANCH   3   4
ENDBRANCH   1   3
BRANCH   1  15
HETATM   15  C10 UNL     1     -53.221  48.782   9.522  1.00  0.00     0.218 C 
BRANCH  15  16
HETATM   16  O4  UNL     1     -53.301  48.254   8.197  1.00  0.00    -0.385 OA
HETATM   17  H   UNL     1     -54.217  48.312   7.881  1.00  0.00     0.210 HD
ENDBRANCH  15  16
BRANCH  15  18
HETATM   18  C11 UNL     1     -54.390  49.745   9.815  1.00  0.00     0.177 C 
BRANCH  18  19
HETATM   19  O5  UNL     1     -54.731  49.743  11.210  1.00  0.00    -0.390 OA
HETATM   20  H   UNL     1     -54.292  50.487  11.651  1.00  0.00     0.210 HD
ENDBRANCH  18  19
BRANCH  18  21
HETATM   21  C12 UNL     1     -54.025  51.191   9.455  1.00  0.00     0.198 C 
BRANCH  21  22
HETATM   22  O6  UNL     1     -54.573  51.525   8.178  1.00  0.00    -0.398 OA
HETATM   23  H   UNL     1     -55.422  51.069   8.062  1.00  0.00     0.209 HD
ENDBRANCH  21  22
ENDBRANCH  18  21
ENDBRANCH  15  18
ENDBRANCH   1  15
TORSDOF 11
ENDMDL
MODEL 5
REMARK VINA RESULT:      -8.0      1.373      1.848
REMARK  11 active torsions:
REMARK  status: ('A' for Active; 'I' for Inactive)
REMARK    1  A    between atoms: C1_1  and  C2_2 
REMARK    2  A    between atoms: C1_1  and  C10_13 
REMARK    3  A    between atoms: C2_2  and  C3_3 
REMARK    4  A    between atoms: C3_3  and  C4_4 
REMARK    5  A    between atoms: C6_6  and  O1_7 
REMARK    6  A    between atoms: C7_8  and  O2_9 
REMARK    7  A    between atoms: C10_13  and  O4_14 
REMARK    8  A    between atoms: C10_13  and  C11_15 
REMARK    9  A    between atoms: C11_15  and  O5_16 
REMARK   10  A    between atoms: C11_15  and  C12_17 
REMARK   11  A    between atoms: C12_17  and  O6_18 
ROOT
HETATM    1  C1  UNL     1     -53.249  47.681  10.462  1.00  0.00     0.158 C 
HETATM    2  O3  UNL     1     -52.676  47.761  11.553  1.00  0.00    -0.295 OA
ENDROOT
BRANCH   1   3
HETATM    3  C2  UNL     1     -54.018  46.428  10.084  1.00  0.00     0.086 C 
BRANCH   3   4
HETATM    4  C3  UNL     1     -53.163  45.163  10.077  1.00  0.00     0.046 C 
BRANCH   4   5
HETATM    5  C4  UNL     1     -53.321  44.329   8.828  1.00  0.00    -0.055 A 
HETATM    6  C5  UNL     1     -54.003  44.835   7.709  1.00  0.00     0.046 A 
HETATM    7  C6  UNL     1     -54.145  44.043   6.574  1.00  0.00     0.099 A 
HETATM    8  C7  UNL     1     -53.611  42.759   6.539  1.00  0.00     0.098 A 
HETATM    9  C8  UNL     1     -52.931  42.245   7.630  1.00  0.00     0.040 A 
HETATM   10  C9  UNL     1     -52.784  43.030   8.775  1.00  0.00     0.010 A 
BRANCH   7  11
HETATM   11  O1  UNL     1     -54.806  44.487   5.461  1.00  0.00    -0.358 OA
HETATM   12  H   UNL     1     -54.704  45.374   5.179  1.00  0.00     0.217 HD
ENDBRANCH   7  11
BRANCH   8  13
HETATM   13  O2  UNL     1     -53.756  41.990   5.419  1.00  0.00    -0.358 OA
HETATM   14  H   UNL     1     -53.187  41.259   5.276  1.00  0.00     0.217 HD
ENDBRANCH   8  13
ENDBRANCH   4   5
ENDBRANCH   3   4
ENDBRANCH   1   3
BRANCH   1  15
HETATM   15  C10 UNL     1     -53.257  48.849   9.474  1.00  0.00     0.218 C 
BRANCH  15  16
HETATM   16  O4  UNL     1     -53.328  48.312   8.153  1.00  0.00    -0.385 OA
HETATM   17  H   UNL     1     -52.702  47.575   8.070  1.00  0.00     0.210 HD
ENDBRANCH  15  16
BRANCH  15  18
HETATM   18  C11 UNL     1     -54.431  49.810   9.753  1.00  0.00     0.177 C 
BRANCH  18  19
HETATM   19  O5  UNL     1     -54.806  49.789  11.140  1.00  0.00    -0.390 OA
HETATM   20  H   UNL     1     -54.108  50.205  11.670  1.00  0.00     0.210 HD
ENDBRANCH  18  19
BRANCH  18  21
HETATM   21  C12 UNL     1     -54.056  51.261   9.424  1.00  0.00     0.198 C 
BRANCH  21  22
HETATM   22  O6  UNL     1     -54.585  51.619   8.145  1.00  0.00    -0.398 OA
HETATM   23  H   UNL     1     -55.463  52.015   8.258  1.00  0.00     0.209 HD
ENDBRANCH  21  22
ENDBRANCH  18  21
ENDBRANCH  15  18
ENDBRANCH   1  15
TORSDOF 11
ENDMDL
MODEL 6
REMARK VINA RESULT:      -8.0      1.583      2.790
REMARK  11 active torsions:
REMARK  status: ('A' for Active; 'I' for Inactive)
REMARK    1  A    between atoms: C1_1  and  C2_2 
REMARK    2  A    between atoms: C1_1  and  C10_13 
REMARK    3  A    between atoms: C2_2  and  C3_3 
REMARK    4  A    between atoms: C3_3  and  C4_4 
REMARK    5  A    between atoms: C6_6  and  O1_7 
REMARK    6  A    between atoms: C7_8  and  O2_9 
REMARK    7  A    between atoms: C10_13  and  O4_14 
REMARK    8  A    between atoms: C10_13  and  C11_15 
REMARK    9  A    between atoms: C11_15  and  O5_16 
REMARK   10  A    between atoms: C11_15  and  C12_17 
REMARK   11  A    between atoms: C12_17  and  O6_18 
ROOT
HETATM    1  C1  UNL     1     -52.536  47.441   8.811  1.00  0.00     0.158 C 
HETATM    2  O3  UNL     1     -52.432  48.381   8.017  1.00  0.00    -0.295 OA
ENDROOT
BRANCH   1   3
HETATM    3  C2  UNL     1     -51.561  46.278   8.763  1.00  0.00     0.086 C 
BRANCH   3   4
HETATM    4  C3  UNL     1     -52.224  44.915   8.943  1.00  0.00     0.046 C 
BRANCH   4   5
HETATM    5  C4  UNL     1     -52.544  44.218   7.641  1.00  0.00    -0.055 A 
HETATM    6  C5  UNL     1     -51.990  44.668   6.431  1.00  0.00     0.046 A 
HETATM    7  C6  UNL     1     -52.308  44.016   5.244  1.00  0.00     0.099 A 
HETATM    8  C7  UNL     1     -53.164  42.919   5.250  1.00  0.00     0.098 A 
HETATM    9  C8  UNL     1     -53.716  42.457   6.434  1.00  0.00     0.040 A 
HETATM   10  C9  UNL     1     -53.404  43.105   7.630  1.00  0.00     0.010 A 
BRANCH   7  11
HETATM   11  O1  UNL     1     -51.801  44.419   4.040  1.00  0.00    -0.358 OA
HETATM   12  H   UNL     1     -51.119  43.925   3.630  1.00  0.00     0.217 HD
ENDBRANCH   7  11
BRANCH   8  13
HETATM   13  O2  UNL     1     -53.470  42.286   4.079  1.00  0.00    -0.358 OA
HETATM   14  H   UNL     1     -53.026  42.523   3.289  1.00  0.00     0.217 HD
ENDBRANCH   8  13
ENDBRANCH   4   5
ENDBRANCH   3   4
ENDBRANCH   1   3
BRANCH   1  15
HETATM   15  C10 UNL     1     -53.607  47.430   9.904  1.00  0.00     0.218 C 
BRANCH  15  16
HETATM   16  O4  UNL     1     -53.269  48.430  10.865  1.00  0.00    -0.385 OA
HETATM   17  H   UNL     1     -52.405  48.813  10.644  1.00  0.00     0.210 HD
ENDBRANCH  15  16
BRANCH  15  18
HETATM   18  C11 UNL     1     -55.012  47.670   9.313  1.00  0.00     0.177 C 
BRANCH  18  19
HETATM   19  O5  UNL     1     -54.942  48.414   8.086  1.00  0.00    -0.390 OA
HETATM   20  H   UNL     1     -55.271  49.315   8.235  1.00  0.00     0.210 HD
ENDBRANCH  18  19
BRANCH  18  21
HETATM   21  C12 UNL     1     -55.713  46.346   8.983  1.00  0.00     0.198 C 
BRANCH  21  22
HETATM   22  O6  UNL     1     -55.392  45.948   7.649  1.00  0.00    -0.398 OA
HETATM   23  H   UNL     1     -55.626  45.014   7.525  1.00  0.00     0.209 HD
ENDBRANCH  21  22
ENDBRANCH  18  21
ENDBRANCH  15  18
ENDBRANCH   1  15
TORSDOF 11
ENDMDL
MODEL 7
REMARK VINA RESULT:      -8.0      1.966      3.004
REMARK  11 active torsions:
REMARK  status: ('A' for Active; 'I' for Inactive)
REMARK    1  A    between atoms: C1_1  and  C2_2 
REMARK    2  A    between atoms: C1_1  and  C10_13 
REMARK    3  A    between atoms: C2_2  and  C3_3 
REMARK    4  A    between atoms: C3_3  and  C4_4 
REMARK    5  A    between atoms: C6_6  and  O1_7 
REMARK    6  A    between atoms: C7_8  and  O2_9 
REMARK    7  A    between atoms: C10_13  and  O4_14 
REMARK    8  A    between atoms: C10_13  and  C11_15 
REMARK    9  A    between atoms: C11_15  and  O5_16 
REMARK   10  A    between atoms: C11_15  and  C12_17 
REMARK   11  A    between atoms: C12_17  and  O6_18 
ROOT
HETATM    1  C1  UNL     1     -52.704  47.471   8.832  1.00  0.00     0.158 C 
HETATM    2  O3  UNL     1     -52.509  48.390   8.030  1.00  0.00    -0.295 OA
ENDROOT
BRANCH   1   3
HETATM    3  C2  UNL     1     -51.805  46.248   8.841  1.00  0.00     0.086 C 
BRANCH   3   4
HETATM    4  C3  UNL     1     -52.527  44.955   8.470  1.00  0.00     0.046 C 
BRANCH   4   5
HETATM    5  C4  UNL     1     -51.859  44.184   7.356  1.00  0.00    -0.055 A 
HETATM    6  C5  UNL     1     -52.200  44.422   6.014  1.00  0.00     0.046 A 
HETATM    7  C6  UNL     1     -51.579  43.691   5.006  1.00  0.00     0.099 A 
HETATM    8  C7  UNL     1     -50.620  42.733   5.319  1.00  0.00     0.098 A 
HETATM    9  C8  UNL     1     -50.267  42.488   6.635  1.00  0.00     0.040 A 
HETATM   10  C9  UNL     1     -50.885  43.214   7.654  1.00  0.00     0.010 A 
BRANCH   7  11
HETATM   11  O1  UNL     1     -51.880  43.882   3.686  1.00  0.00    -0.358 OA
HETATM   12  H   UNL     1     -52.771  43.837   3.397  1.00  0.00     0.217 HD
ENDBRANCH   7  11
BRANCH   8  13
HETATM   13  O2  UNL     1     -50.017  42.021   4.321  1.00  0.00    -0.358 OA
HETATM   14  H   UNL     1     -49.475  41.287   4.532  1.00  0.00     0.217 HD
ENDBRANCH   8  13
ENDBRANCH   4   5
ENDBRANCH   3   4
ENDBRANCH   1   3
BRANCH   1  15
HETATM   15  C10 UNL     1     -53.817  47.547   9.880  1.00  0.00     0.218 C 
BRANCH  15  16
HETATM   16  O4  UNL     1     -53.436  48.512  10.861  1.00  0.00    -0.385 OA
HETATM   17  H   UNL     1     -53.491  48.114  11.744  1.00  0.00     0.210 HD
ENDBRANCH  15  16
BRANCH  15  18
HETATM   18  C11 UNL     1     -55.171  47.907   9.234  1.00  0.00     0.177 C 
BRANCH  18  19
HETATM   19  O5  UNL     1     -54.988  48.620   8.000  1.00  0.00    -0.390 OA
HETATM   20  H   UNL     1     -55.830  48.653   7.519  1.00  0.00     0.210 HD
ENDBRANCH  18  19
BRANCH  18  21
HETATM   21  C12 UNL     1     -55.981  46.648   8.896  1.00  0.00     0.198 C 
BRANCH  21  22
HETATM   22  O6  UNL     1     -55.429  46.013   7.741  1.00  0.00    -0.398 OA
HETATM   23  H   UNL     1     -55.899  45.180   7.574  1.00  0.00     0.209 HD
ENDBRANCH  21  22
ENDBRANCH  18  21
ENDBRANCH  15  18
ENDBRANCH   1  15
TORSDOF 11
ENDMDL
MODEL 8
REMARK VINA RESULT:      -7.9      1.396      2.422
REMARK  11 active torsions:
REMARK  status: ('A' for Active; 'I' for Inactive)
REMARK    1  A    between atoms: C1_1  and  C2_2 
REMARK    2  A    between atoms: C1_1  and  C10_13 
REMARK    3  A    between atoms: C2_2  and  C3_3 
REMARK    4  A    between atoms: C3_3  and  C4_4 
REMARK    5  A    between atoms: C6_6  and  O1_7 
REMARK    6  A    between atoms: C7_8  and  O2_9 
REMARK    7  A    between atoms: C10_13  and  O4_14 
REMARK    8  A    between atoms: C10_13  and  C11_15 
REMARK    9  A    between atoms: C11_15  and  O5_16 
REMARK   10  A    between atoms: C11_15  and  C12_17 
REMARK   11  A    between atoms: C12_17  and  O6_18 
ROOT
HETATM    1  C1  UNL     1     -52.618  47.518   8.698  1.00  0.00     0.158 C 
HETATM    2  O3  UNL     1     -52.506  48.556   8.037  1.00  0.00    -0.295 OA
ENDROOT
BRANCH   1   3
HETATM    3  C2  UNL     1     -51.646  46.368   8.501  1.00  0.00     0.086 C 
BRANCH   3   4
HETATM    4  C3  UNL     1     -52.266  44.994   8.742  1.00  0.00     0.046 C 
BRANCH   4   5
HETATM    5  C4  UNL     1     -52.648  44.268   7.474  1.00  0.00    -0.055 A 
HETATM    6  C5  UNL     1     -53.750  43.398   7.450  1.00  0.00     0.046 A 
HETATM    7  C6  UNL     1     -54.075  42.732   6.272  1.00  0.00     0.099 A 
HETATM    8  C7  UNL     1     -53.321  42.929   5.120  1.00  0.00     0.098 A 
HETATM    9  C8  UNL     1     -52.234  43.787   5.123  1.00  0.00     0.040 A 
HETATM   10  C9  UNL     1     -51.898  44.459   6.300  1.00  0.00     0.010 A 
BRANCH   7  11
HETATM   11  O1  UNL     1     -55.134  41.870   6.198  1.00  0.00    -0.358 OA
HETATM   12  H   UNL     1     -55.816  41.909   6.840  1.00  0.00     0.217 HD
ENDBRANCH   7  11
BRANCH   8  13
HETATM   13  O2  UNL     1     -53.649  42.270   3.969  1.00  0.00    -0.358 OA
HETATM   14  H   UNL     1     -52.991  41.802   3.494  1.00  0.00     0.217 HD
ENDBRANCH   8  13
ENDBRANCH   4   5
ENDBRANCH   3   4
ENDBRANCH   1   3
BRANCH   1  15
HETATM   15  C10 UNL     1     -53.697  47.365   9.772  1.00  0.00     0.218 C 
BRANCH  15  16
HETATM   16  O4  UNL     1     -53.392  48.265  10.838  1.00  0.00    -0.385 OA
HETATM   17  H   UNL     1     -53.606  49.172  10.566  1.00  0.00     0.210 HD
ENDBRANCH  15  16
BRANCH  15  18
HETATM   18  C11 UNL     1     -55.103  47.633   9.196  1.00  0.00     0.177 C 
BRANCH  18  19
HETATM   19  O5  UNL     1     -55.055  48.587   8.122  1.00  0.00    -0.390 OA
HETATM   20  H   UNL     1     -55.870  49.114   8.122  1.00  0.00     0.210 HD
ENDBRANCH  18  19
BRANCH  18  21
HETATM   21  C12 UNL     1     -55.723  46.354   8.618  1.00  0.00     0.198 C 
BRANCH  21  22
HETATM   22  O6  UNL     1     -55.455  45.251   9.486  1.00  0.00    -0.398 OA
HETATM   23  H   UNL     1     -54.927  44.588   9.014  1.00  0.00     0.209 HD
ENDBRANCH  21  22
ENDBRANCH  18  21
ENDBRANCH  15  18
ENDBRANCH   1  15
TORSDOF 11
ENDMDL
MODEL 9
REMARK VINA RESULT:      -7.9      1.723      6.598
REMARK  11 active torsions:
REMARK  status: ('A' for Active; 'I' for Inactive)
REMARK    1  A    between atoms: C1_1  and  C2_2 
REMARK    2  A    between atoms: C1_1  and  C10_13 
REMARK    3  A    between atoms: C2_2  and  C3_3 
REMARK    4  A    between atoms: C3_3  and  C4_4 
REMARK    5  A    between atoms: C6_6  and  O1_7 
REMARK    6  A    between atoms: C7_8  and  O2_9 
REMARK    7  A    between atoms: C10_13  and  O4_14 
REMARK    8  A    between atoms: C10_13  and  C11_15 
REMARK    9  A    between atoms: C11_15  and  O5_16 
REMARK   10  A    between atoms: C11_15  and  C12_17 
REMARK   11  A    between atoms: C12_17  and  O6_18 
ROOT
HETATM    1  C1  UNL     1     -53.583  43.299   7.198  1.00  0.00     0.158 C 
HETATM    2  O3  UNL     1     -54.754  43.681   7.119  1.00  0.00    -0.295 OA
ENDROOT
BRANCH   1   3
HETATM    3  C2  UNL     1     -52.739  43.640   8.414  1.00  0.00     0.086 C 
BRANCH   3   4
HETATM    4  C3  UNL     1     -53.559  44.083   9.623  1.00  0.00     0.046 C 
BRANCH   4   5
HETATM    5  C4  UNL     1     -53.573  45.579   9.833  1.00  0.00    -0.055 A 
HETATM    6  C5  UNL     1     -54.253  46.423   8.940  1.00  0.00     0.046 A 
HETATM    7  C6  UNL     1     -54.242  47.798   9.149  1.00  0.00     0.099 A 
HETATM    8  C7  UNL     1     -53.568  48.340  10.239  1.00  0.00     0.098 A 
HETATM    9  C8  UNL     1     -52.896  47.524  11.133  1.00  0.00     0.040 A 
HETATM   10  C9  UNL     1     -52.900  46.143  10.932  1.00  0.00     0.010 A 
BRANCH   7  11
HETATM   11  O1  UNL     1     -54.883  48.662   8.304  1.00  0.00    -0.358 OA
HETATM   12  H   UNL     1     -55.700  49.045   8.558  1.00  0.00     0.217 HD
ENDBRANCH   7  11
BRANCH   8  13
HETATM   13  O2  UNL     1     -53.564  49.692  10.434  1.00  0.00    -0.358 OA
HETATM   14  H   UNL     1     -54.373  50.161  10.478  1.00  0.00     0.217 HD
ENDBRANCH   8  13
ENDBRANCH   4   5
ENDBRANCH   3   4
ENDBRANCH   1   3
BRANCH   1  15
HETATM   15  C10 UNL     1     -52.950  42.426   6.112  1.00  0.00     0.218 C 
BRANCH  15  16
HETATM   16  O4  UNL     1     -53.917  41.461   5.699  1.00  0.00    -0.385 OA
HETATM   17  H   UNL     1     -53.724  41.177   4.792  1.00  0.00     0.210 HD
ENDBRANCH  15  16
BRANCH  15  18
HETATM   18  C11 UNL     1     -52.465  43.280   4.921  1.00  0.00     0.177 C 
BRANCH  18  19
HETATM   19  O5  UNL     1     -52.932  44.634   5.024  1.00  0.00    -0.390 OA
HETATM   20  H   UNL     1     -52.186  45.243   4.910  1.00  0.00     0.210 HD
ENDBRANCH  18  19
BRANCH  18  21
HETATM   21  C12 UNL     1     -50.933  43.347   4.870  1.00  0.00     0.198 C 
BRANCH  21  22
HETATM   22  O6  UNL     1     -50.513  43.856   3.602  1.00  0.00    -0.398 OA
HETATM   23  H   UNL     1     -51.034  44.645   3.382  1.00  0.00     0.209 HD
ENDBRANCH  21  22
ENDBRANCH  18  21
ENDBRANCH  15  18
ENDBRANCH   1  15
TORSDOF 11
ENDMDL
