MODEL 1
REMARK VINA RESULT:     -19.6      0.000      0.000
REMARK  11 active torsions:
REMARK  status: ('A' for Active; 'I' for Inactive)
REMARK    1  A    between atoms: C1_1  and  C2_2 
REMARK    2  A    between atoms: C1_1  and  C10_13 
REMARK    3  A    between atoms: C2_2  and  C3_3 
REMARK    4  A    between atoms: C3_3  and  C4_4 
REMARK    5  A    between atoms: C6_6  and  O1_7 
REMARK    6  A    between atoms: C7_8  and  O2_9 
REMARK    7  A    between atoms: C10_13  and  O4_14 
REMARK    8  A    between atoms: C10_13  and  C11_15 
REMARK    9  A    between atoms: C11_15  and  O5_16 
REMARK   10  A    between atoms: C11_15  and  C12_17 
REMARK   11  A    between atoms: C12_17  and  O6_18 
ROOT
HETATM    1  C1  UNL     1     -53.252  47.504   7.742  1.00  0.00     0.158 C 
HETATM    2  O3  UNL     1     -52.153  48.067   7.736  1.00  0.00    -0.295 OA
ENDROOT
BRANCH   1   3
HETATM    3  C2  UNL     1     -54.423  48.104   8.500  1.00  0.00     0.086 C 
BRANCH   3   4
HETATM    4  C3  UNL     1     -54.272  49.597   8.777  1.00  0.00     0.046 C 
BRANCH   4   5
HETATM    5  C4  UNL     1     -54.008  49.923  10.229  1.00  0.00    -0.055 A 
HETATM    6  C5  UNL     1     -53.957  51.257  10.667  1.00  0.00     0.046 A 
HETATM    7  C6  UNL     1     -53.702  51.531  12.007  1.00  0.00     0.099 A 
HETATM    8  C7  UNL     1     -53.504  50.494  12.914  1.00  0.00     0.098 A 
HETATM    9  C8  UNL     1     -53.555  49.173  12.501  1.00  0.00     0.040 A 
HETATM   10  C9  UNL     1     -53.810  48.887  11.159  1.00  0.00     0.010 A 
BRANCH   7  11
HETATM   11  O1  UNL     1     -53.635  52.812  12.482  1.00  0.00    -0.358 OA
HETATM   12  H   UNL     1     -54.409  53.235  12.798  1.00  0.00     0.217 HD
ENDBRANCH   7  11
BRANCH   8  13
HETATM   13  O2  UNL     1     -53.253  50.775  14.226  1.00  0.00    -0.358 OA
HETATM   14  H   UNL     1     -53.954  50.769  14.849  1.00  0.00     0.217 HD
ENDBRANCH   8  13
ENDBRANCH   4   5
ENDBRANCH   3   4
ENDBRANCH   1   3
BRANCH   1  15
HETATM   15  C10 UNL     1     -53.498  46.218   6.950  1.00  0.00     0.218 C 
BRANCH  15  16
HETATM   16  O4  UNL     1     -54.696  45.617   7.441  1.00  0.00    -0.385 OA
HETATM   17  H   UNL     1     -54.954  46.044   8.273  1.00  0.00     0.210 HD
ENDBRANCH  15  16
BRANCH  15  18
HETATM   18  C11 UNL     1     -53.591  46.503   5.436  1.00  0.00     0.177 C 
BRANCH  18  19
HETATM   19  O5  UNL     1     -53.291  47.877   5.143  1.00  0.00    -0.390 OA
HETATM   20  H   UNL     1     -53.907  48.451   5.623  1.00  0.00     0.210 HD
ENDBRANCH  18  19
BRANCH  18  21
HETATM   21  C12 UNL     1     -52.584  45.656   4.646  1.00  0.00     0.198 C 
BRANCH  21  22
HETATM   22  O6  UNL     1     -53.258  44.957   3.597  1.00  0.00    -0.398 OA
HETATM   23  H   UNL     1     -53.003  44.021   3.617  1.00  0.00     0.209 HD
ENDBRANCH  21  22
ENDBRANCH  18  21
ENDBRANCH  15  18
ENDBRANCH   1  15
TORSDOF 11
ENDMDL
MODEL 2
REMARK VINA RESULT:     -19.2      0.798      1.657
REMARK  11 active torsions:
REMARK  status: ('A' for Active; 'I' for Inactive)
REMARK    1  A    between atoms: C1_1  and  C2_2 
REMARK    2  A    between atoms: C1_1  and  C10_13 
REMARK    3  A    between atoms: C2_2  and  C3_3 
REMARK    4  A    between atoms: C3_3  and  C4_4 
REMARK    5  A    between atoms: C6_6  and  O1_7 
REMARK    6  A    between atoms: C7_8  and  O2_9 
REMARK    7  A    between atoms: C10_13  and  O4_14 
REMARK    8  A    between atoms: C10_13  and  C11_15 
REMARK    9  A    between atoms: C11_15  and  O5_16 
REMARK   10  A    between atoms: C11_15  and  C12_17 
REMARK   11  A    between atoms: C12_17  and  O6_18 
ROOT
HETATM    1  C1  UNL     1     -53.273  47.633   7.755  1.00  0.00     0.158 C 
HETATM    2  O3  UNL     1     -52.181  48.198   7.635  1.00  0.00    -0.295 OA
ENDROOT
BRANCH   1   3
HETATM    3  C2  UNL     1     -54.376  48.253   8.594  1.00  0.00     0.086 C 
BRANCH   3   4
HETATM    4  C3  UNL     1     -54.100  49.700   8.995  1.00  0.00     0.046 C 
BRANCH   4   5
HETATM    5  C4  UNL     1     -53.857  49.885  10.475  1.00  0.00    -0.055 A 
HETATM    6  C5  UNL     1     -53.501  48.795  11.286  1.00  0.00     0.046 A 
HETATM    7  C6  UNL     1     -53.293  48.989  12.647  1.00  0.00     0.099 A 
HETATM    8  C7  UNL     1     -53.428  50.255  13.208  1.00  0.00     0.098 A 
HETATM    9  C8  UNL     1     -53.774  51.343  12.423  1.00  0.00     0.040 A 
HETATM   10  C9  UNL     1     -53.986  51.159  11.056  1.00  0.00     0.010 A 
BRANCH   7  11
HETATM   11  O1  UNL     1     -52.952  47.959  13.480  1.00  0.00    -0.358 OA
HETATM   12  H   UNL     1     -53.339  47.113  13.363  1.00  0.00     0.217 HD
ENDBRANCH   7  11
BRANCH   8  13
HETATM   13  O2  UNL     1     -53.222  50.434  14.546  1.00  0.00    -0.358 OA
HETATM   14  H   UNL     1     -52.529  49.976  14.978  1.00  0.00     0.217 HD
ENDBRANCH   8  13
ENDBRANCH   4   5
ENDBRANCH   3   4
ENDBRANCH   1   3
BRANCH   1  15
HETATM   15  C10 UNL     1     -53.581  46.323   7.026  1.00  0.00     0.218 C 
BRANCH  15  16
HETATM   16  O4  UNL     1     -54.800  45.799   7.553  1.00  0.00    -0.385 OA
HETATM   17  H   UNL     1     -54.614  45.306   8.368  1.00  0.00     0.210 HD
ENDBRANCH  15  16
BRANCH  15  18
HETATM   18  C11 UNL     1     -53.676  46.540   5.501  1.00  0.00     0.177 C 
BRANCH  18  19
HETATM   19  O5  UNL     1     -53.372  47.899   5.147  1.00  0.00    -0.390 OA
HETATM   20  H   UNL     1     -52.564  48.179   5.604  1.00  0.00     0.210 HD
ENDBRANCH  18  19
BRANCH  18  21
HETATM   21  C12 UNL     1     -52.673  45.656   4.748  1.00  0.00     0.198 C 
BRANCH  21  22
HETATM   22  O6  UNL     1     -53.317  45.037   3.632  1.00  0.00    -0.398 OA
HETATM   23  H   UNL     1     -52.726  44.370   3.248  1.00  0.00     0.209 HD
ENDBRANCH  21  22
ENDBRANCH  18  21
ENDBRANCH  15  18
ENDBRANCH   1  15
TORSDOF 11
ENDMDL
MODEL 3
REMARK VINA RESULT:     -19.2      2.768      3.570
REMARK  11 active torsions:
REMARK  status: ('A' for Active; 'I' for Inactive)
REMARK    1  A    between atoms: C1_1  and  C2_2 
REMARK    2  A    between atoms: C1_1  and  C10_13 
REMARK    3  A    between atoms: C2_2  and  C3_3 
REMARK    4  A    between atoms: C3_3  and  C4_4 
REMARK    5  A    between atoms: C6_6  and  O1_7 
REMARK    6  A    between atoms: C7_8  and  O2_9 
REMARK    7  A    between atoms: C10_13  and  O4_14 
REMARK    8  A    between atoms: C10_13  and  C11_15 
REMARK    9  A    between atoms: C11_15  and  O5_16 
REMARK   10  A    between atoms: C11_15  and  C12_17 
REMARK   11  A    between atoms: C12_17  and  O6_18 
ROOT
HETATM    1  C1  UNL     1     -55.184  46.433   9.036  1.00  0.00     0.158 C 
HETATM    2  O3  UNL     1     -56.166  47.179   8.982  1.00  0.00    -0.295 OA
ENDROOT
BRANCH   1   3
HETATM    3  C2  UNL     1     -53.873  46.921   9.628  1.00  0.00     0.086 C 
BRANCH   3   4
HETATM    4  C3  UNL     1     -53.740  48.442   9.648  1.00  0.00     0.046 C 
BRANCH   4   5
HETATM    5  C4  UNL     1     -53.578  49.020  11.035  1.00  0.00    -0.055 A 
HETATM    6  C5  UNL     1     -53.794  50.388  11.272  1.00  0.00     0.046 A 
HETATM    7  C6  UNL     1     -53.628  50.898  12.555  1.00  0.00     0.099 A 
HETATM    8  C7  UNL     1     -53.258  50.062  13.604  1.00  0.00     0.098 A 
HETATM    9  C8  UNL     1     -53.046  48.710  13.391  1.00  0.00     0.040 A 
HETATM   10  C9  UNL     1     -53.209  48.188  12.106  1.00  0.00     0.010 A 
BRANCH   7  11
HETATM   11  O1  UNL     1     -53.819  52.223  12.836  1.00  0.00    -0.358 OA
HETATM   12  H   UNL     1     -53.726  52.533  13.715  1.00  0.00     0.217 HD
ENDBRANCH   7  11
BRANCH   8  13
HETATM   13  O2  UNL     1     -53.098  50.573  14.860  1.00  0.00    -0.358 OA
HETATM   14  H   UNL     1     -53.472  50.132  15.597  1.00  0.00     0.217 HD
ENDBRANCH   8  13
ENDBRANCH   4   5
ENDBRANCH   3   4
ENDBRANCH   1   3
BRANCH   1  15
HETATM   15  C10 UNL     1     -55.256  44.979   8.564  1.00  0.00     0.218 C 
BRANCH  15  16
HETATM   16  O4  UNL     1     -54.350  44.210   9.356  1.00  0.00    -0.385 OA
HETATM   17  H   UNL     1     -53.659  43.836   8.787  1.00  0.00     0.210 HD
ENDBRANCH  15  16
BRANCH  15  18
HETATM   18  C11 UNL     1     -56.694  44.429   8.662  1.00  0.00     0.177 C 
BRANCH  18  19
HETATM   19  O5  UNL     1     -57.112  43.834   7.423  1.00  0.00    -0.390 OA
HETATM   20  H   UNL     1     -56.355  43.398   7.003  1.00  0.00     0.210 HD
ENDBRANCH  18  19
BRANCH  18  21
HETATM   21  C12 UNL     1     -56.802  43.335   9.732  1.00  0.00     0.198 C 
BRANCH  21  22
HETATM   22  O6  UNL     1     -58.175  43.006   9.951  1.00  0.00    -0.398 OA
HETATM   23  H   UNL     1     -58.665  43.808  10.195  1.00  0.00     0.209 HD
ENDBRANCH  21  22
ENDBRANCH  18  21
ENDBRANCH  15  18
ENDBRANCH   1  15
TORSDOF 11
ENDMDL
MODEL 4
REMARK VINA RESULT:     -19.1      1.283      1.918
REMARK  11 active torsions:
REMARK  status: ('A' for Active; 'I' for Inactive)
REMARK    1  A    between atoms: C1_1  and  C2_2 
REMARK    2  A    between atoms: C1_1  and  C10_13 
REMARK    3  A    between atoms: C2_2  and  C3_3 
REMARK    4  A    between atoms: C3_3  and  C4_4 
REMARK    5  A    between atoms: C6_6  and  O1_7 
REMARK    6  A    between atoms: C7_8  and  O2_9 
REMARK    7  A    between atoms: C10_13  and  O4_14 
REMARK    8  A    between atoms: C10_13  and  C11_15 
REMARK    9  A    between atoms: C11_15  and  O5_16 
REMARK   10  A    between atoms: C11_15  and  C12_17 
REMARK   11  A    between atoms: C12_17  and  O6_18 
ROOT
HETATM    1  C1  UNL     1     -55.121  47.114   8.698  1.00  0.00     0.158 C 
HETATM    2  O3  UNL     1     -56.291  46.734   8.803  1.00  0.00    -0.295 OA
ENDROOT
BRANCH   1   3
HETATM    3  C2  UNL     1     -54.590  48.235   9.574  1.00  0.00     0.086 C 
BRANCH   3   4
HETATM    4  C3  UNL     1     -53.381  47.834  10.416  1.00  0.00     0.046 C 
BRANCH   4   5
HETATM    5  C4  UNL     1     -53.277  48.581  11.725  1.00  0.00    -0.055 A 
HETATM    6  C5  UNL     1     -53.644  49.934  11.810  1.00  0.00     0.046 A 
HETATM    7  C6  UNL     1     -53.529  50.603  13.024  1.00  0.00     0.099 A 
HETATM    8  C7  UNL     1     -53.059  49.939  14.153  1.00  0.00     0.098 A 
HETATM    9  C8  UNL     1     -52.696  48.604  14.089  1.00  0.00     0.040 A 
HETATM   10  C9  UNL     1     -52.807  47.924  12.876  1.00  0.00     0.010 A 
BRANCH   7  11
HETATM   11  O1  UNL     1     -53.868  51.921  13.158  1.00  0.00    -0.358 OA
HETATM   12  H   UNL     1     -54.743  52.159  13.395  1.00  0.00     0.217 HD
ENDBRANCH   7  11
BRANCH   8  13
HETATM   13  O2  UNL     1     -52.950  50.605  15.340  1.00  0.00    -0.358 OA
HETATM   14  H   UNL     1     -52.459  50.230  16.044  1.00  0.00     0.217 HD
ENDBRANCH   8  13
ENDBRANCH   4   5
ENDBRANCH   3   4
ENDBRANCH   1   3
BRANCH   1  15
HETATM   15  C10 UNL     1     -54.145  46.444   7.727  1.00  0.00     0.218 C 
BRANCH  15  16
HETATM   16  O4  UNL     1     -54.725  45.212   7.297  1.00  0.00    -0.385 OA
HETATM   17  H   UNL     1     -54.682  44.565   8.019  1.00  0.00     0.210 HD
ENDBRANCH  15  16
BRANCH  15  18
HETATM   18  C11 UNL     1     -53.826  47.363   6.530  1.00  0.00     0.177 C 
BRANCH  18  19
HETATM   19  O5  UNL     1     -53.021  48.483   6.931  1.00  0.00    -0.390 OA
HETATM   20  H   UNL     1     -52.251  48.553   6.346  1.00  0.00     0.210 HD
ENDBRANCH  18  19
BRANCH  18  21
HETATM   21  C12 UNL     1     -53.033  46.618   5.449  1.00  0.00     0.198 C 
BRANCH  21  22
HETATM   22  O6  UNL     1     -53.924  45.849   4.638  1.00  0.00    -0.398 OA
HETATM   23  H   UNL     1     -54.521  46.446   4.160  1.00  0.00     0.209 HD
ENDBRANCH  21  22
ENDBRANCH  18  21
ENDBRANCH  15  18
ENDBRANCH   1  15
TORSDOF 11
ENDMDL
MODEL 5
REMARK VINA RESULT:     -19.1      0.980      1.684
REMARK  11 active torsions:
REMARK  status: ('A' for Active; 'I' for Inactive)
REMARK    1  A    between atoms: C1_1  and  C2_2 
REMARK    2  A    between atoms: C1_1  and  C10_13 
REMARK    3  A    between atoms: C2_2  and  C3_3 
REMARK    4  A    between atoms: C3_3  and  C4_4 
REMARK    5  A    between atoms: C6_6  and  O1_7 
REMARK    6  A    between atoms: C7_8  and  O2_9 
REMARK    7  A    between atoms: C10_13  and  O4_14 
REMARK    8  A    between atoms: C10_13  and  C11_15 
REMARK    9  A    between atoms: C11_15  and  O5_16 
REMARK   10  A    between atoms: C11_15  and  C12_17 
REMARK   11  A    between atoms: C12_17  and  O6_18 
ROOT
HETATM    1  C1  UNL     1     -52.710  48.505   7.566  1.00  0.00     0.158 C 
HETATM    2  O3  UNL     1     -51.494  48.644   7.401  1.00  0.00    -0.295 OA
ENDROOT
BRANCH   1   3
HETATM    3  C2  UNL     1     -53.406  49.141   8.757  1.00  0.00     0.086 C 
BRANCH   3   4
HETATM    4  C3  UNL     1     -53.625  48.180   9.923  1.00  0.00     0.046 C 
BRANCH   4   5
HETATM    5  C4  UNL     1     -53.471  48.825  11.280  1.00  0.00    -0.055 A 
HETATM    6  C5  UNL     1     -53.736  50.193  11.458  1.00  0.00     0.046 A 
HETATM    7  C6  UNL     1     -53.577  50.767  12.716  1.00  0.00     0.099 A 
HETATM    8  C7  UNL     1     -53.164  49.994  13.796  1.00  0.00     0.098 A 
HETATM    9  C8  UNL     1     -52.903  48.643  13.641  1.00  0.00     0.040 A 
HETATM   10  C9  UNL     1     -53.058  48.058  12.383  1.00  0.00     0.010 A 
BRANCH   7  11
HETATM   11  O1  UNL     1     -53.816  52.095  12.939  1.00  0.00    -0.358 OA
HETATM   12  H   UNL     1     -54.655  52.461  12.737  1.00  0.00     0.217 HD
ENDBRANCH   7  11
BRANCH   8  13
HETATM   13  O2  UNL     1     -53.011  50.567  15.026  1.00  0.00    -0.358 OA
HETATM   14  H   UNL     1     -52.960  50.029  15.791  1.00  0.00     0.217 HD
ENDBRANCH   8  13
ENDBRANCH   4   5
ENDBRANCH   3   4
ENDBRANCH   1   3
BRANCH   1  15
HETATM   15  C10 UNL     1     -53.573  47.740   6.560  1.00  0.00     0.218 C 
BRANCH  15  16
HETATM   16  O4  UNL     1     -53.285  48.244   5.256  1.00  0.00    -0.385 OA
HETATM   17  H   UNL     1     -53.558  47.594   4.590  1.00  0.00     0.210 HD
ENDBRANCH  15  16
BRANCH  15  18
HETATM   18  C11 UNL     1     -53.317  46.221   6.644  1.00  0.00     0.177 C 
BRANCH  18  19
HETATM   19  O5  UNL     1     -54.525  45.502   6.940  1.00  0.00    -0.390 OA
HETATM   20  H   UNL     1     -54.800  44.997   6.159  1.00  0.00     0.210 HD
ENDBRANCH  18  19
BRANCH  18  21
HETATM   21  C12 UNL     1     -52.793  45.668   5.312  1.00  0.00     0.198 C 
BRANCH  21  22
HETATM   22  O6  UNL     1     -53.855  45.626   4.356  1.00  0.00    -0.398 OA
HETATM   23  H   UNL     1     -53.530  45.232   3.530  1.00  0.00     0.209 HD
ENDBRANCH  21  22
ENDBRANCH  18  21
ENDBRANCH  15  18
ENDBRANCH   1  15
TORSDOF 11
ENDMDL
MODEL 6
REMARK VINA RESULT:     -19.0      1.625      2.365
REMARK  11 active torsions:
REMARK  status: ('A' for Active; 'I' for Inactive)
REMARK    1  A    between atoms: C1_1  and  C2_2 
REMARK    2  A    between atoms: C1_1  and  C10_13 
REMARK    3  A    between atoms: C2_2  and  C3_3 
REMARK    4  A    between atoms: C3_3  and  C4_4 
REMARK    5  A    between atoms: C6_6  and  O1_7 
REMARK    6  A    between atoms: C7_8  and  O2_9 
REMARK    7  A    between atoms: C10_13  and  O4_14 
REMARK    8  A    between atoms: C10_13  and  C11_15 
REMARK    9  A    between atoms: C11_15  and  O5_16 
REMARK   10  A    between atoms: C11_15  and  C12_17 
REMARK   11  A    between atoms: C12_17  and  O6_18 
ROOT
HETATM    1  C1  UNL     1     -54.455  47.185   8.640  1.00  0.00     0.158 C 
HETATM    2  O3  UNL     1     -55.646  47.485   8.767  1.00  0.00    -0.295 OA
ENDROOT
BRANCH   1   3
HETATM    3  C2  UNL     1     -53.365  48.112   9.149  1.00  0.00     0.086 C 
BRANCH   3   4
HETATM    4  C3  UNL     1     -53.891  49.451   9.661  1.00  0.00     0.046 C 
BRANCH   4   5
HETATM    5  C4  UNL     1     -53.655  49.673  11.137  1.00  0.00    -0.055 A 
HETATM    6  C5  UNL     1     -53.277  48.608  11.971  1.00  0.00     0.046 A 
HETATM    7  C6  UNL     1     -53.075  48.836  13.328  1.00  0.00     0.099 A 
HETATM    8  C7  UNL     1     -53.240  50.111  13.861  1.00  0.00     0.098 A 
HETATM    9  C8  UNL     1     -53.608  51.174  13.054  1.00  0.00     0.040 A 
HETATM   10  C9  UNL     1     -53.814  50.956  11.691  1.00  0.00     0.010 A 
BRANCH   7  11
HETATM   11  O1  UNL     1     -52.713  47.832  14.183  1.00  0.00    -0.358 OA
HETATM   12  H   UNL     1     -53.060  46.969  14.067  1.00  0.00     0.217 HD
ENDBRANCH   7  11
BRANCH   8  13
HETATM   13  O2  UNL     1     -53.040  50.323  15.196  1.00  0.00    -0.358 OA
HETATM   14  H   UNL     1     -52.635  51.116  15.488  1.00  0.00     0.217 HD
ENDBRANCH   8  13
ENDBRANCH   4   5
ENDBRANCH   3   4
ENDBRANCH   1   3
BRANCH   1  15
HETATM   15  C10 UNL     1     -54.026  45.853   8.020  1.00  0.00     0.218 C 
BRANCH  15  16
HETATM   16  O4  UNL     1     -55.189  45.218   7.488  1.00  0.00    -0.385 OA
HETATM   17  H   UNL     1     -55.395  44.428   8.012  1.00  0.00     0.210 HD
ENDBRANCH  15  16
BRANCH  15  18
HETATM   18  C11 UNL     1     -52.952  46.062   6.933  1.00  0.00     0.177 C 
BRANCH  18  19
HETATM   19  O5  UNL     1     -52.515  44.809   6.382  1.00  0.00    -0.390 OA
HETATM   20  H   UNL     1     -53.159  44.504   5.724  1.00  0.00     0.210 HD
ENDBRANCH  18  19
BRANCH  18  21
HETATM   21  C12 UNL     1     -53.496  46.890   5.762  1.00  0.00     0.198 C 
BRANCH  21  22
HETATM   22  O6  UNL     1     -54.008  46.019   4.751  1.00  0.00    -0.398 OA
HETATM   23  H   UNL     1     -54.040  46.491   3.903  1.00  0.00     0.209 HD
ENDBRANCH  21  22
ENDBRANCH  18  21
ENDBRANCH  15  18
ENDBRANCH   1  15
TORSDOF 11
ENDMDL
MODEL 7
REMARK VINA RESULT:     -18.9      0.902      1.920
REMARK  11 active torsions:
REMARK  status: ('A' for Active; 'I' for Inactive)
REMARK    1  A    between atoms: C1_1  and  C2_2 
REMARK    2  A    between atoms: C1_1  and  C10_13 
REMARK    3  A    between atoms: C2_2  and  C3_3 
REMARK    4  A    between atoms: C3_3  and  C4_4 
REMARK    5  A    between atoms: C6_6  and  O1_7 
REMARK    6  A    between atoms: C7_8  and  O2_9 
REMARK    7  A    between atoms: C10_13  and  O4_14 
REMARK    8  A    between atoms: C10_13  and  C11_15 
REMARK    9  A    between atoms: C11_15  and  O5_16 
REMARK   10  A    between atoms: C11_15  and  C12_17 
REMARK   11  A    between atoms: C12_17  and  O6_18 
ROOT
HETATM    1  C1  UNL     1     -54.388  46.513   7.895  1.00  0.00     0.158 C 
HETATM    2  O3  UNL     1     -55.284  45.693   8.116  1.00  0.00    -0.295 OA
ENDROOT
BRANCH   1   3
HETATM    3  C2  UNL     1     -54.407  47.877   8.562  1.00  0.00     0.086 C 
BRANCH   3   4
HETATM    4  C3  UNL     1     -54.007  47.844  10.035  1.00  0.00     0.046 C 
BRANCH   4   5
HETATM    5  C4  UNL     1     -53.904  49.211  10.668  1.00  0.00    -0.055 A 
HETATM    6  C5  UNL     1     -53.685  49.348  12.049  1.00  0.00     0.046 A 
HETATM    7  C6  UNL     1     -53.604  50.618  12.610  1.00  0.00     0.099 A 
HETATM    8  C7  UNL     1     -53.733  51.751  11.812  1.00  0.00     0.098 A 
HETATM    9  C8  UNL     1     -53.945  51.636  10.448  1.00  0.00     0.040 A 
HETATM   10  C9  UNL     1     -54.028  50.366   9.875  1.00  0.00     0.010 A 
BRANCH   7  11
HETATM   11  O1  UNL     1     -53.398  50.805  13.949  1.00  0.00    -0.358 OA
HETATM   12  H   UNL     1     -53.480  50.082  14.541  1.00  0.00     0.217 HD
ENDBRANCH   7  11
BRANCH   8  13
HETATM   13  O2  UNL     1     -53.653  52.993  12.373  1.00  0.00    -0.358 OA
HETATM   14  H   UNL     1     -52.930  53.554  12.169  1.00  0.00     0.217 HD
ENDBRANCH   8  13
ENDBRANCH   4   5
ENDBRANCH   3   4
ENDBRANCH   1   3
BRANCH   1  15
HETATM   15  C10 UNL     1     -53.199  46.176   6.992  1.00  0.00     0.218 C 
BRANCH  15  16
HETATM   16  O4  UNL     1     -52.844  44.811   7.217  1.00  0.00    -0.385 OA
HETATM   17  H   UNL     1     -53.295  44.248   6.568  1.00  0.00     0.210 HD
ENDBRANCH  15  16
BRANCH  15  18
HETATM   18  C11 UNL     1     -53.533  46.432   5.508  1.00  0.00     0.177 C 
BRANCH  18  19
HETATM   19  O5  UNL     1     -53.406  47.824   5.176  1.00  0.00    -0.390 OA
HETATM   20  H   UNL     1     -52.893  48.274   5.865  1.00  0.00     0.210 HD
ENDBRANCH  18  19
BRANCH  18  21
HETATM   21  C12 UNL     1     -52.577  45.671   4.580  1.00  0.00     0.198 C 
BRANCH  21  22
HETATM   22  O6  UNL     1     -53.326  44.947   3.602  1.00  0.00    -0.398 OA
HETATM   23  H   UNL     1     -53.626  44.106   3.981  1.00  0.00     0.209 HD
ENDBRANCH  21  22
ENDBRANCH  18  21
ENDBRANCH  15  18
ENDBRANCH   1  15
TORSDOF 11
ENDMDL
MODEL 8
REMARK VINA RESULT:     -18.9      1.204      1.700
REMARK  11 active torsions:
REMARK  status: ('A' for Active; 'I' for Inactive)
REMARK    1  A    between atoms: C1_1  and  C2_2 
REMARK    2  A    between atoms: C1_1  and  C10_13 
REMARK    3  A    between atoms: C2_2  and  C3_3 
REMARK    4  A    between atoms: C3_3  and  C4_4 
REMARK    5  A    between atoms: C6_6  and  O1_7 
REMARK    6  A    between atoms: C7_8  and  O2_9 
REMARK    7  A    between atoms: C10_13  and  O4_14 
REMARK    8  A    between atoms: C10_13  and  C11_15 
REMARK    9  A    between atoms: C11_15  and  O5_16 
REMARK   10  A    between atoms: C11_15  and  C12_17 
REMARK   11  A    between atoms: C12_17  and  O6_18 
ROOT
HETATM    1  C1  UNL     1     -53.697  47.283   7.883  1.00  0.00     0.158 C 
HETATM    2  O3  UNL     1     -54.774  47.839   7.645  1.00  0.00    -0.295 OA
ENDROOT
BRANCH   1   3
HETATM    3  C2  UNL     1     -52.901  47.641   9.126  1.00  0.00     0.086 C 
BRANCH   3   4
HETATM    4  C3  UNL     1     -53.769  47.895  10.356  1.00  0.00     0.046 C 
BRANCH   4   5
HETATM    5  C4  UNL     1     -53.780  49.337  10.805  1.00  0.00    -0.055 A 
HETATM    6  C5  UNL     1     -53.921  50.377   9.871  1.00  0.00     0.046 A 
HETATM    7  C6  UNL     1     -53.918  51.698  10.308  1.00  0.00     0.099 A 
HETATM    8  C7  UNL     1     -53.784  51.993  11.661  1.00  0.00     0.098 A 
HETATM    9  C8  UNL     1     -53.649  50.981  12.596  1.00  0.00     0.040 A 
HETATM   10  C9  UNL     1     -53.650  49.652  12.169  1.00  0.00     0.010 A 
BRANCH   7  11
HETATM   11  O1  UNL     1     -54.046  52.747   9.439  1.00  0.00    -0.358 OA
HETATM   12  H   UNL     1     -53.450  52.835   8.720  1.00  0.00     0.217 HD
ENDBRANCH   7  11
BRANCH   8  13
HETATM   13  O2  UNL     1     -53.782  53.294  12.079  1.00  0.00    -0.358 OA
HETATM   14  H   UNL     1     -53.880  53.986  11.455  1.00  0.00     0.217 HD
ENDBRANCH   8  13
ENDBRANCH   4   5
ENDBRANCH   3   4
ENDBRANCH   1   3
BRANCH   1  15
HETATM   15  C10 UNL     1     -53.147  46.180   6.976  1.00  0.00     0.218 C 
BRANCH  15  16
HETATM   16  O4  UNL     1     -53.668  44.931   7.431  1.00  0.00    -0.385 OA
HETATM   17  H   UNL     1     -54.301  45.087   8.149  1.00  0.00     0.210 HD
ENDBRANCH  15  16
BRANCH  15  18
HETATM   18  C11 UNL     1     -53.512  46.437   5.499  1.00  0.00     0.177 C 
BRANCH  18  19
HETATM   19  O5  UNL     1     -53.386  47.828   5.163  1.00  0.00    -0.390 OA
HETATM   20  H   UNL     1     -54.067  48.067   4.515  1.00  0.00     0.210 HD
ENDBRANCH  18  19
BRANCH  18  21
HETATM   21  C12 UNL     1     -52.579  45.672   4.551  1.00  0.00     0.198 C 
BRANCH  21  22
HETATM   22  O6  UNL     1     -53.351  44.938   3.599  1.00  0.00    -0.398 OA
HETATM   23  H   UNL     1     -53.788  45.557   2.992  1.00  0.00     0.209 HD
ENDBRANCH  21  22
ENDBRANCH  18  21
ENDBRANCH  15  18
ENDBRANCH   1  15
TORSDOF 11
ENDMDL
MODEL 9
REMARK VINA RESULT:     -18.6      1.829      2.869
REMARK  11 active torsions:
REMARK  status: ('A' for Active; 'I' for Inactive)
REMARK    1  A    between atoms: C1_1  and  C2_2 
REMARK    2  A    between atoms: C1_1  and  C10_13 
REMARK    3  A    between atoms: C2_2  and  C3_3 
REMARK    4  A    between atoms: C3_3  and  C4_4 
REMARK    5  A    between atoms: C6_6  and  O1_7 
REMARK    6  A    between atoms: C7_8  and  O2_9 
REMARK    7  A    between atoms: C10_13  and  O4_14 
REMARK    8  A    between atoms: C10_13  and  C11_15 
REMARK    9  A    between atoms: C11_15  and  O5_16 
REMARK   10  A    between atoms: C11_15  and  C12_17 
REMARK   11  A    between atoms: C12_17  and  O6_18 
ROOT
HETATM    1  C1  UNL     1     -54.063  46.752   8.092  1.00  0.00     0.158 C 
HETATM    2  O3  UNL     1     -54.038  46.412   6.905  1.00  0.00    -0.295 OA
ENDROOT
BRANCH   1   3
HETATM    3  C2  UNL     1     -53.159  47.864   8.596  1.00  0.00     0.086 C 
BRANCH   3   4
HETATM    4  C3  UNL     1     -53.912  49.132   8.992  1.00  0.00     0.046 C 
BRANCH   4   5
HETATM    5  C4  UNL     1     -53.746  49.508  10.446  1.00  0.00    -0.055 A 
HETATM    6  C5  UNL     1     -53.873  50.844  10.860  1.00  0.00     0.046 A 
HETATM    7  C6  UNL     1     -53.706  51.167  12.203  1.00  0.00     0.099 A 
HETATM    8  C7  UNL     1     -53.421  50.175  13.136  1.00  0.00     0.098 A 
HETATM    9  C8  UNL     1     -53.298  48.851  12.747  1.00  0.00     0.040 A 
HETATM   10  C9  UNL     1     -53.462  48.517  11.402  1.00  0.00     0.010 A 
BRANCH   7  11
HETATM   11  O1  UNL     1     -53.812  52.453  12.656  1.00  0.00    -0.358 OA
HETATM   12  H   UNL     1     -53.105  53.055  12.528  1.00  0.00     0.217 HD
ENDBRANCH   7  11
BRANCH   8  13
HETATM   13  O2  UNL     1     -53.258  50.503  14.452  1.00  0.00    -0.358 OA
HETATM   14  H   UNL     1     -52.809  51.291  14.686  1.00  0.00     0.217 HD
ENDBRANCH   8  13
ENDBRANCH   4   5
ENDBRANCH   3   4
ENDBRANCH   1   3
BRANCH   1  15
HETATM   15  C10 UNL     1     -55.033  46.113   9.088  1.00  0.00     0.218 C 
BRANCH  15  16
HETATM   16  O4  UNL     1     -56.320  46.698   8.890  1.00  0.00    -0.385 OA
HETATM   17  H   UNL     1     -56.218  47.581   8.502  1.00  0.00     0.210 HD
ENDBRANCH  15  16
BRANCH  15  18
HETATM   18  C11 UNL     1     -55.080  44.580   8.919  1.00  0.00     0.177 C 
BRANCH  18  19
HETATM   19  O5  UNL     1     -54.518  43.911  10.059  1.00  0.00    -0.390 OA
HETATM   20  H   UNL     1     -55.160  43.272  10.407  1.00  0.00     0.210 HD
ENDBRANCH  18  19
BRANCH  18  21
HETATM   21  C12 UNL     1     -56.523  44.078   8.783  1.00  0.00     0.198 C 
BRANCH  21  22
HETATM   22  O6  UNL     1     -56.779  43.705   7.427  1.00  0.00    -0.398 OA
HETATM   23  H   UNL     1     -57.524  43.084   7.397  1.00  0.00     0.209 HD
ENDBRANCH  21  22
ENDBRANCH  18  21
ENDBRANCH  15  18
ENDBRANCH   1  15
TORSDOF 11
ENDMDL
