MODEL 1
REMARK VINA RESULT:      -7.8      0.000      0.000
REMARK  4 active torsions:
REMARK  status: ('A' for Active; 'I' for Inactive)
REMARK    1  A    between atoms: O_1  and  C_5 
REMARK    2  A    between atoms: O_1  and  C_14 
REMARK    3  A    between atoms: O_2  and  C_18 
REMARK    4  A    between atoms: C_10  and  C_13 
ROOT
HETATM    1  O   UNL     1      31.287  77.886  18.888  1.00  0.00    -0.343 OA
ENDROOT
BRANCH   1   2
HETATM    2  C   UNL     1      31.830  77.279  17.723  1.00  0.00     0.129 C 
HETATM    3  C   UNL     1      32.246  78.362  16.737  1.00  0.00     0.032 C 
HETATM    4  C   UNL     1      30.943  78.782  16.058  1.00  0.00     0.002 C 
HETATM    5  C   UNL     1      29.973  77.614  16.232  1.00  0.00     0.002 C 
HETATM    6  C   UNL     1      30.750  76.523  16.966  1.00  0.00     0.032 C 
ENDBRANCH   1   2
BRANCH   1   7
HETATM    7  C   UNL     1      31.689  77.375  20.094  1.00  0.00     0.103 A 
HETATM    8  C   UNL     1      31.824  75.997  20.235  1.00  0.00     0.047 A 
HETATM    9  C   UNL     1      32.232  75.465  21.458  1.00  0.00    -0.049 A 
HETATM   10  C   UNL     1      32.501  76.311  22.534  1.00  0.00     0.010 A 
HETATM   11  C   UNL     1      32.363  77.691  22.386  1.00  0.00     0.040 A 
HETATM   12  C   UNL     1      31.955  78.225  21.163  1.00  0.00     0.101 A 
BRANCH   9  13
HETATM   13  C   UNL     1      32.383  73.967  21.618  1.00  0.00     0.045 C 
HETATM   14  C   UNL     1      32.426  73.159  20.321  1.00  0.00     0.132 C 
HETATM   15  N   UNL     1      33.081  71.938  20.700  1.00  0.00    -0.360 N 
HETATM   16  C   UNL     1      33.826  72.071  21.863  1.00  0.00     0.218 C 
HETATM   17  H   UNL     1      33.009  71.099  20.190  1.00  0.00     0.162 HD
HETATM   18  O   UNL     1      34.524  71.224  22.398  1.00  0.00    -0.274 OA
HETATM   19  C   UNL     1      33.665  73.496  22.333  1.00  0.00     0.113 C 
ENDBRANCH   9  13
BRANCH  12  20
HETATM   20  O   UNL     1      31.823  79.574  21.031  1.00  0.00    -0.353 OA
HETATM   21  C   UNL     1      31.913  80.353  22.221  1.00  0.00     0.210 C 
ENDBRANCH  12  20
ENDBRANCH   1   7
TORSDOF 4
ENDMDL
MODEL 2
REMARK VINA RESULT:      -7.8      1.219      4.030
REMARK  4 active torsions:
REMARK  status: ('A' for Active; 'I' for Inactive)
REMARK    1  A    between atoms: O_1  and  C_5 
REMARK    2  A    between atoms: O_1  and  C_14 
REMARK    3  A    between atoms: O_2  and  C_18 
REMARK    4  A    between atoms: C_10  and  C_13 
ROOT
HETATM    1  O   UNL     1      30.941  78.489  20.472  1.00  0.00    -0.343 OA
ENDROOT
BRANCH   1   2
HETATM    2  C   UNL     1      30.952  78.293  21.880  1.00  0.00     0.129 C 
HETATM    3  C   UNL     1      30.137  79.391  22.549  1.00  0.00     0.032 C 
HETATM    4  C   UNL     1      31.076  80.596  22.588  1.00  0.00     0.002 C 
HETATM    5  C   UNL     1      32.495  80.037  22.483  1.00  0.00     0.002 C 
HETATM    6  C   UNL     1      32.350  78.517  22.435  1.00  0.00     0.032 C 
ENDBRANCH   1   2
BRANCH   1   7
HETATM    7  C   UNL     1      31.161  77.383  19.694  1.00  0.00     0.103 A 
HETATM    8  C   UNL     1      31.706  76.243  20.277  1.00  0.00     0.047 A 
HETATM    9  C   UNL     1      31.936  75.111  19.495  1.00  0.00    -0.049 A 
HETATM   10  C   UNL     1      31.623  75.125  18.135  1.00  0.00     0.010 A 
HETATM   11  C   UNL     1      31.078  76.272  17.558  1.00  0.00     0.040 A 
HETATM   12  C   UNL     1      30.846  77.404  18.339  1.00  0.00     0.101 A 
BRANCH   9  13
HETATM   13  C   UNL     1      32.527  73.866  20.121  1.00  0.00     0.045 C 
HETATM   14  C   UNL     1      33.938  73.495  19.664  1.00  0.00     0.132 C 
HETATM   15  N   UNL     1      34.438  72.672  20.730  1.00  0.00    -0.360 N 
HETATM   16  C   UNL     1      33.752  72.866  21.921  1.00  0.00     0.218 C 
HETATM   17  H   UNL     1      35.185  72.040  20.627  1.00  0.00     0.162 HD
HETATM   18  O   UNL     1      33.980  72.346  23.001  1.00  0.00    -0.274 OA
HETATM   19  C   UNL     1      32.684  73.899  21.654  1.00  0.00     0.113 C 
ENDBRANCH   9  13
BRANCH  12  20
HETATM   20  O   UNL     1      30.315  78.519  17.764  1.00  0.00    -0.353 OA
HETATM   21  C   UNL     1      30.113  78.486  16.353  1.00  0.00     0.210 C 
ENDBRANCH  12  20
ENDBRANCH   1   7
TORSDOF 4
ENDMDL
MODEL 3
REMARK VINA RESULT:      -7.5      1.239      1.333
REMARK  4 active torsions:
REMARK  status: ('A' for Active; 'I' for Inactive)
REMARK    1  A    between atoms: O_1  and  C_5 
REMARK    2  A    between atoms: O_1  and  C_14 
REMARK    3  A    between atoms: O_2  and  C_18 
REMARK    4  A    between atoms: C_10  and  C_13 
ROOT
HETATM    1  O   UNL     1      30.844  76.680  18.913  1.00  0.00    -0.343 OA
ENDROOT
BRANCH   1   2
HETATM    2  C   UNL     1      31.603  76.519  17.721  1.00  0.00     0.129 C 
HETATM    3  C   UNL     1      31.946  77.888  17.153  1.00  0.00     0.032 C 
HETATM    4  C   UNL     1      30.676  78.332  16.428  1.00  0.00     0.002 C 
HETATM    5  C   UNL     1      29.893  77.057  16.119  1.00  0.00     0.002 C 
HETATM    6  C   UNL     1      30.747  75.898  16.628  1.00  0.00     0.032 C 
ENDBRANCH   1   2
BRANCH   1   7
HETATM    7  C   UNL     1      31.499  76.460  20.096  1.00  0.00     0.103 A 
HETATM    8  C   UNL     1      32.255  75.301  20.246  1.00  0.00     0.047 A 
HETATM    9  C   UNL     1      32.926  75.065  21.446  1.00  0.00    -0.049 A 
HETATM   10  C   UNL     1      32.836  75.987  22.489  1.00  0.00     0.010 A 
HETATM   11  C   UNL     1      32.077  77.145  22.332  1.00  0.00     0.040 A 
HETATM   12  C   UNL     1      31.405  77.383  21.132  1.00  0.00     0.101 A 
BRANCH   9  13
HETATM   13  C   UNL     1      33.751  73.808  21.617  1.00  0.00     0.045 C 
HETATM   14  C   UNL     1      32.980  72.557  22.042  1.00  0.00     0.132 C 
HETATM   15  N   UNL     1      33.826  71.475  21.623  1.00  0.00    -0.360 N 
HETATM   16  C   UNL     1      34.725  71.852  20.635  1.00  0.00     0.218 C 
HETATM   17  H   UNL     1      33.774  70.565  21.995  1.00  0.00     0.162 HD
HETATM   18  O   UNL     1      35.531  71.142  20.056  1.00  0.00    -0.274 OA
HETATM   19  C   UNL     1      34.490  73.317  20.357  1.00  0.00     0.113 C 
ENDBRANCH   9  13
BRANCH  12  20
HETATM   20  O   UNL     1      30.666  78.518  20.990  1.00  0.00    -0.353 OA
HETATM   21  C   UNL     1      30.158  79.113  22.182  1.00  0.00     0.210 C 
ENDBRANCH  12  20
ENDBRANCH   1   7
TORSDOF 4
ENDMDL
MODEL 4
REMARK VINA RESULT:      -7.3      2.841      6.760
REMARK  4 active torsions:
REMARK  status: ('A' for Active; 'I' for Inactive)
REMARK    1  A    between atoms: O_1  and  C_5 
REMARK    2  A    between atoms: O_1  and  C_14 
REMARK    3  A    between atoms: O_2  and  C_18 
REMARK    4  A    between atoms: C_10  and  C_13 
ROOT
HETATM    1  O   UNL     1      32.059  72.740  21.720  1.00  0.00    -0.343 OA
ENDROOT
BRANCH   1   2
HETATM    2  C   UNL     1      33.358  72.674  22.296  1.00  0.00     0.129 C 
HETATM    3  C   UNL     1      34.366  72.287  21.224  1.00  0.00     0.032 C 
HETATM    4  C   UNL     1      34.218  70.772  21.087  1.00  0.00     0.002 C 
HETATM    5  C   UNL     1      33.596  70.283  22.395  1.00  0.00     0.002 C 
HETATM    6  C   UNL     1      33.442  71.518  23.280  1.00  0.00     0.032 C 
ENDBRANCH   1   2
BRANCH   1   7
HETATM    7  C   UNL     1      31.843  73.730  20.798  1.00  0.00     0.103 A 
HETATM    8  C   UNL     1      32.031  75.057  21.172  1.00  0.00     0.047 A 
HETATM    9  C   UNL     1      31.813  76.074  20.243  1.00  0.00    -0.049 A 
HETATM   10  C   UNL     1      31.407  75.760  18.946  1.00  0.00     0.010 A 
HETATM   11  C   UNL     1      31.220  74.428  18.578  1.00  0.00     0.040 A 
HETATM   12  C   UNL     1      31.438  73.409  19.506  1.00  0.00     0.101 A 
BRANCH   9  13
HETATM   13  C   UNL     1      32.016  77.520  20.642  1.00  0.00     0.045 C 
HETATM   14  C   UNL     1      30.781  78.417  20.551  1.00  0.00     0.132 C 
HETATM   15  N   UNL     1      31.081  79.503  21.441  1.00  0.00    -0.360 N 
HETATM   16  C   UNL     1      32.060  79.178  22.370  1.00  0.00     0.218 C 
HETATM   17  H   UNL     1      30.642  80.383  21.397  1.00  0.00     0.162 HD
HETATM   18  O   UNL     1      32.484  79.877  23.276  1.00  0.00    -0.274 OA
HETATM   19  C   UNL     1      32.478  77.754  22.093  1.00  0.00     0.113 C 
ENDBRANCH   9  13
BRANCH  12  20
HETATM   20  O   UNL     1      31.251  72.112  19.136  1.00  0.00    -0.353 OA
HETATM   21  C   UNL     1      30.593  71.883  17.892  1.00  0.00     0.210 C 
ENDBRANCH  12  20
ENDBRANCH   1   7
TORSDOF 4
ENDMDL
MODEL 5
REMARK VINA RESULT:      -7.2      2.637      5.050
REMARK  4 active torsions:
REMARK  status: ('A' for Active; 'I' for Inactive)
REMARK    1  A    between atoms: O_1  and  C_5 
REMARK    2  A    between atoms: O_1  and  C_14 
REMARK    3  A    between atoms: O_2  and  C_18 
REMARK    4  A    between atoms: C_10  and  C_13 
ROOT
HETATM    1  O   UNL     1      30.984  76.163  17.225  1.00  0.00    -0.343 OA
ENDROOT
BRANCH   1   2
HETATM    2  C   UNL     1      31.303  77.486  16.812  1.00  0.00     0.129 C 
HETATM    3  C   UNL     1      30.025  78.216  16.425  1.00  0.00     0.032 C 
HETATM    4  C   UNL     1      29.712  77.720  15.014  1.00  0.00     0.002 C 
HETATM    5  C   UNL     1      31.031  77.207  14.439  1.00  0.00     0.002 C 
HETATM    6  C   UNL     1      32.089  77.459  15.510  1.00  0.00     0.032 C 
ENDBRANCH   1   2
BRANCH   1   7
HETATM    7  C   UNL     1      31.219  75.854  18.539  1.00  0.00     0.103 A 
HETATM    8  C   UNL     1      31.272  76.881  19.477  1.00  0.00     0.047 A 
HETATM    9  C   UNL     1      31.511  76.580  20.818  1.00  0.00    -0.049 A 
HETATM   10  C   UNL     1      31.697  75.255  21.213  1.00  0.00     0.010 A 
HETATM   11  C   UNL     1      31.643  74.231  20.268  1.00  0.00     0.040 A 
HETATM   12  C   UNL     1      31.403  74.531  18.927  1.00  0.00     0.101 A 
BRANCH   9  13
HETATM   13  C   UNL     1      31.568  77.691  21.844  1.00  0.00     0.045 C 
HETATM   14  C   UNL     1      32.886  77.825  22.608  1.00  0.00     0.132 C 
HETATM   15  N   UNL     1      32.874  79.183  23.075  1.00  0.00    -0.360 N 
HETATM   16  C   UNL     1      32.012  79.990  22.346  1.00  0.00     0.218 C 
HETATM   17  H   UNL     1      33.418  79.506  23.829  1.00  0.00     0.162 HD
HETATM   18  O   UNL     1      31.828  81.189  22.480  1.00  0.00    -0.274 OA
HETATM   19  C   UNL     1      31.367  79.117  21.297  1.00  0.00     0.113 C 
ENDBRANCH   9  13
BRANCH  12  20
HETATM   20  O   UNL     1      31.354  73.523  18.012  1.00  0.00    -0.353 OA
HETATM   21  C   UNL     1      30.475  72.437  18.293  1.00  0.00     0.210 C 
ENDBRANCH  12  20
ENDBRANCH   1   7
TORSDOF 4
ENDMDL
MODEL 6
REMARK VINA RESULT:      -7.2      2.797      6.464
REMARK  4 active torsions:
REMARK  status: ('A' for Active; 'I' for Inactive)
REMARK    1  A    between atoms: O_1  and  C_5 
REMARK    2  A    between atoms: O_1  and  C_14 
REMARK    3  A    between atoms: O_2  and  C_18 
REMARK    4  A    between atoms: C_10  and  C_13 
ROOT
HETATM    1  O   UNL     1      32.161  73.864  20.892  1.00  0.00    -0.343 OA
ENDROOT
BRANCH   1   2
HETATM    2  C   UNL     1      33.467  73.894  21.454  1.00  0.00     0.129 C 
HETATM    3  C   UNL     1      34.472  73.404  20.422  1.00  0.00     0.032 C 
HETATM    4  C   UNL     1      34.356  71.881  20.467  1.00  0.00     0.002 C 
HETATM    5  C   UNL     1      33.760  71.538  21.832  1.00  0.00     0.002 C 
HETATM    6  C   UNL     1      33.588  72.865  22.567  1.00  0.00     0.032 C 
ENDBRANCH   1   2
BRANCH   1   7
HETATM    7  C   UNL     1      31.778  74.959  20.163  1.00  0.00     0.103 A 
HETATM    8  C   UNL     1      31.625  76.182  20.808  1.00  0.00     0.047 A 
HETATM    9  C   UNL     1      31.234  77.304  20.077  1.00  0.00    -0.049 A 
HETATM   10  C   UNL     1      30.997  77.197  18.706  1.00  0.00     0.010 A 
HETATM   11  C   UNL     1      31.151  75.968  18.067  1.00  0.00     0.040 A 
HETATM   12  C   UNL     1      31.543  74.845  18.797  1.00  0.00     0.101 A 
BRANCH   9  13
HETATM   13  C   UNL     1      31.068  78.639  20.771  1.00  0.00     0.045 C 
HETATM   14  C   UNL     1      29.812  78.791  21.631  1.00  0.00     0.132 C 
HETATM   15  N   UNL     1      30.149  79.847  22.544  1.00  0.00    -0.360 N 
HETATM   16  C   UNL     1      31.519  80.027  22.670  1.00  0.00     0.218 C 
HETATM   17  H   UNL     1      29.481  80.384  23.029  1.00  0.00     0.162 HD
HETATM   18  O   UNL     1      32.100  80.812  23.403  1.00  0.00    -0.274 OA
HETATM   19  C   UNL     1      32.184  79.022  21.762  1.00  0.00     0.113 C 
ENDBRANCH   9  13
BRANCH  12  20
HETATM   20  O   UNL     1      31.689  73.649  18.161  1.00  0.00    -0.353 OA
HETATM   21  C   UNL     1      31.417  73.622  16.762  1.00  0.00     0.210 C 
ENDBRANCH  12  20
ENDBRANCH   1   7
TORSDOF 4
ENDMDL
MODEL 7
REMARK VINA RESULT:      -7.0      2.874      5.314
REMARK  4 active torsions:
REMARK  status: ('A' for Active; 'I' for Inactive)
REMARK    1  A    between atoms: O_1  and  C_5 
REMARK    2  A    between atoms: O_1  and  C_14 
REMARK    3  A    between atoms: O_2  and  C_18 
REMARK    4  A    between atoms: C_10  and  C_13 
ROOT
HETATM    1  O   UNL     1      31.742  75.423  17.187  1.00  0.00    -0.343 OA
ENDROOT
BRANCH   1   2
HETATM    2  C   UNL     1      31.138  76.405  16.355  1.00  0.00     0.129 C 
HETATM    3  C   UNL     1      30.046  75.756  15.518  1.00  0.00     0.032 C 
HETATM    4  C   UNL     1      30.795  75.072  14.374  1.00  0.00     0.002 C 
HETATM    5  C   UNL     1      32.143  75.783  14.261  1.00  0.00     0.002 C 
HETATM    6  C   UNL     1      32.128  76.893  15.309  1.00  0.00     0.032 C 
ENDBRANCH   1   2
BRANCH   1   7
HETATM    7  C   UNL     1      31.665  75.628  18.539  1.00  0.00     0.103 A 
HETATM    8  C   UNL     1      31.502  76.925  19.019  1.00  0.00     0.047 A 
HETATM    9  C   UNL     1      31.423  77.147  20.394  1.00  0.00    -0.049 A 
HETATM   10  C   UNL     1      31.509  76.074  21.281  1.00  0.00     0.010 A 
HETATM   11  C   UNL     1      31.673  74.778  20.794  1.00  0.00     0.040 A 
HETATM   12  C   UNL     1      31.752  74.554  19.419  1.00  0.00     0.101 A 
BRANCH   9  13
HETATM   13  C   UNL     1      31.245  78.554  20.923  1.00  0.00     0.045 C 
HETATM   14  C   UNL     1      29.892  78.857  21.569  1.00  0.00     0.132 C 
HETATM   15  N   UNL     1      30.161  79.985  22.415  1.00  0.00    -0.360 N 
HETATM   16  C   UNL     1      31.508  80.110  22.725  1.00  0.00     0.218 C 
HETATM   17  H   UNL     1      29.467  80.602  22.740  1.00  0.00     0.162 HD
HETATM   18  O   UNL     1      32.027  80.938  23.456  1.00  0.00    -0.274 OA
HETATM   19  C   UNL     1      32.231  78.984  22.027  1.00  0.00     0.113 C 
ENDBRANCH   9  13
BRANCH  12  20
HETATM   20  O   UNL     1      31.913  73.284  18.954  1.00  0.00    -0.353 OA
HETATM   21  C   UNL     1      30.742  72.475  18.860  1.00  0.00     0.210 C 
ENDBRANCH  12  20
ENDBRANCH   1   7
TORSDOF 4
ENDMDL
MODEL 8
REMARK VINA RESULT:      -7.0      2.778      6.163
REMARK  4 active torsions:
REMARK  status: ('A' for Active; 'I' for Inactive)
REMARK    1  A    between atoms: O_1  and  C_5 
REMARK    2  A    between atoms: O_1  and  C_14 
REMARK    3  A    between atoms: O_2  and  C_18 
REMARK    4  A    between atoms: C_10  and  C_13 
ROOT
HETATM    1  O   UNL     1      32.153  74.249  20.593  1.00  0.00    -0.343 OA
ENDROOT
BRANCH   1   2
HETATM    2  C   UNL     1      33.560  74.054  20.645  1.00  0.00     0.129 C 
HETATM    3  C   UNL     1      33.949  72.927  19.700  1.00  0.00     0.032 C 
HETATM    4  C   UNL     1      33.622  71.649  20.472  1.00  0.00     0.002 C 
HETATM    5  C   UNL     1      33.606  72.036  21.951  1.00  0.00     0.002 C 
HETATM    6  C   UNL     1      33.971  73.518  22.007  1.00  0.00     0.032 C 
ENDBRANCH   1   2
BRANCH   1   7
HETATM    7  C   UNL     1      31.715  75.520  20.325  1.00  0.00     0.103 A 
HETATM    8  C   UNL     1      31.541  75.910  19.000  1.00  0.00     0.047 A 
HETATM    9  C   UNL     1      31.097  77.201  18.714  1.00  0.00    -0.049 A 
HETATM   10  C   UNL     1      30.832  78.095  19.751  1.00  0.00     0.010 A 
HETATM   11  C   UNL     1      31.010  77.697  21.076  1.00  0.00     0.040 A 
HETATM   12  C   UNL     1      31.453  76.406  21.364  1.00  0.00     0.101 A 
BRANCH   9  13
HETATM   13  C   UNL     1      30.904  77.632  17.276  1.00  0.00     0.045 C 
HETATM   14  C   UNL     1      32.098  78.330  16.623  1.00  0.00     0.132 C 
HETATM   15  N   UNL     1      31.873  78.148  15.216  1.00  0.00    -0.360 N 
HETATM   16  C   UNL     1      31.016  77.091  14.945  1.00  0.00     0.218 C 
HETATM   17  H   UNL     1      32.283  78.711  14.520  1.00  0.00     0.162 HD
HETATM   18  O   UNL     1      30.679  76.671  13.850  1.00  0.00    -0.274 OA
HETATM   19  C   UNL     1      30.605  76.502  16.273  1.00  0.00     0.113 C 
ENDBRANCH   9  13
BRANCH  12  20
HETATM   20  O   UNL     1      31.624  76.029  22.662  1.00  0.00    -0.353 OA
HETATM   21  C   UNL     1      30.557  75.307  23.272  1.00  0.00     0.210 C 
ENDBRANCH  12  20
ENDBRANCH   1   7
TORSDOF 4
ENDMDL
MODEL 9
REMARK VINA RESULT:      -7.0      1.450      4.036
REMARK  4 active torsions:
REMARK  status: ('A' for Active; 'I' for Inactive)
REMARK    1  A    between atoms: O_1  and  C_5 
REMARK    2  A    between atoms: O_1  and  C_14 
REMARK    3  A    between atoms: O_2  and  C_18 
REMARK    4  A    between atoms: C_10  and  C_13 
ROOT
HETATM    1  O   UNL     1      31.088  77.634  20.652  1.00  0.00    -0.343 OA
ENDROOT
BRANCH   1   2
HETATM    2  C   UNL     1      31.336  77.631  22.052  1.00  0.00     0.129 C 
HETATM    3  C   UNL     1      30.073  78.052  22.789  1.00  0.00     0.032 C 
HETATM    4  C   UNL     1      30.052  79.576  22.673  1.00  0.00     0.002 C 
HETATM    5  C   UNL     1      31.494  80.005  22.403  1.00  0.00     0.002 C 
HETATM    6  C   UNL     1      32.327  78.725  22.417  1.00  0.00     0.032 C 
ENDBRANCH   1   2
BRANCH   1   7
HETATM    7  C   UNL     1      31.542  76.553  19.943  1.00  0.00     0.103 A 
HETATM    8  C   UNL     1      32.278  75.572  20.601  1.00  0.00     0.047 A 
HETATM    9  C   UNL     1      32.746  74.467  19.890  1.00  0.00    -0.049 A 
HETATM   10  C   UNL     1      32.477  74.349  18.526  1.00  0.00     0.010 A 
HETATM   11  C   UNL     1      31.739  75.335  17.873  1.00  0.00     0.040 A 
HETATM   12  C   UNL     1      31.270  76.441  18.583  1.00  0.00     0.101 A 
BRANCH   9  13
HETATM   13  C   UNL     1      33.547  73.396  20.599  1.00  0.00     0.045 C 
HETATM   14  C   UNL     1      33.591  73.496  22.124  1.00  0.00     0.132 C 
HETATM   15  N   UNL     1      33.914  72.162  22.545  1.00  0.00    -0.360 N 
HETATM   16  C   UNL     1      33.623  71.211  21.578  1.00  0.00     0.218 C 
HETATM   17  H   UNL     1      34.301  71.945  23.425  1.00  0.00     0.162 HD
HETATM   18  O   UNL     1      33.745  70.000  21.667  1.00  0.00    -0.274 OA
HETATM   19  C   UNL     1      33.063  71.948  20.386  1.00  0.00     0.113 C 
ENDBRANCH   9  13
BRANCH  12  20
HETATM   20  O   UNL     1      30.551  77.399  17.935  1.00  0.00    -0.353 OA
HETATM   21  C   UNL     1      31.192  78.066  16.850  1.00  0.00     0.210 C 
ENDBRANCH  12  20
ENDBRANCH   1   7
TORSDOF 4
ENDMDL
