MODEL 1
REMARK VINA RESULT:      -6.7      0.000      0.000
REMARK  6 active torsions:
REMARK  status: ('A' for Active; 'I' for Inactive)
REMARK    1  A    between atoms: O_1  and  C_11 
REMARK    2  A    between atoms: O_3  and  C_14 
REMARK    3  A    between atoms: N_5  and  CA_7 
REMARK    4  A    between atoms: C_6  and  CA_7 
REMARK    5  A    between atoms: C_6  and  C_8 
REMARK    6  A    between atoms: CA_7  and  C_12 
ROOT
HETATM    1  O   UNL     1      21.352  -2.012  29.556  1.00  0.00    -0.358 OA
HETATM    2  H   UNL     1      21.496  -2.475  28.755  1.00  0.00     0.217 HD
ENDROOT
BRANCH   1   3
HETATM    3  C   UNL     1      21.488  -2.656  30.749  1.00  0.00     0.099 A 
HETATM    4  C   UNL     1      21.509  -4.050  30.778  1.00  0.00     0.046 A 
HETATM    5  C   UNL     1      21.648  -4.700  31.992  1.00  0.00    -0.053 A 
HETATM    6  C   UNL     1      21.763  -3.998  33.179  1.00  0.00     0.010 A 
HETATM    7  C   UNL     1      21.742  -2.603  33.151  1.00  0.00     0.040 A 
HETATM    8  C   UNL     1      21.604  -1.932  31.936  1.00  0.00     0.098 A 
BRANCH   5   9
HETATM    9  C   UNL     1      21.672  -6.212  32.023  1.00  0.00     0.082 C 
BRANCH   9  10
HETATM   10  CA  UNL     1      22.915  -6.774  32.731  1.00  0.00     0.287 C 
BRANCH  10  11
HETATM   11  N   UNL     1      23.587  -7.737  31.860  1.00  0.00    -0.065 N 
HETATM   12  H   UNL     1      23.339  -7.546  30.888  1.00  0.00     0.275 HD
HETATM   13  H   UNL     1      23.292  -8.682  32.106  1.00  0.00     0.275 HD
HETATM   14  H   UNL     1      24.596  -7.654  31.976  1.00  0.00     0.275 HD
ENDBRANCH  10  11
BRANCH  10  15
HETATM   15  C   UNL     1      22.559  -7.518  34.007  1.00  0.00     0.204 C 
HETATM   16  O   UNL     1      23.579  -7.524  34.903  1.00  0.00    -0.646 OA
HETATM   17  OXT UNL     1      21.491  -8.081  34.214  1.00  0.00    -0.646 OA
ENDBRANCH  10  15
ENDBRANCH   9  10
ENDBRANCH   5   9
BRANCH   8  18
HETATM   18  O   UNL     1      21.582  -0.570  31.921  1.00  0.00    -0.358 OA
HETATM   19  H   UNL     1      22.163  -0.098  31.357  1.00  0.00     0.217 HD
ENDBRANCH   8  18
ENDBRANCH   1   3
TORSDOF 6
ENDMDL
MODEL 2
REMARK VINA RESULT:      -6.6      0.737      1.811
REMARK  6 active torsions:
REMARK  status: ('A' for Active; 'I' for Inactive)
REMARK    1  A    between atoms: O_1  and  C_11 
REMARK    2  A    between atoms: O_3  and  C_14 
REMARK    3  A    between atoms: N_5  and  CA_7 
REMARK    4  A    between atoms: C_6  and  CA_7 
REMARK    5  A    between atoms: C_6  and  C_8 
REMARK    6  A    between atoms: CA_7  and  C_12 
ROOT
HETATM    1  O   UNL     1      21.943  -1.840  34.263  1.00  0.00    -0.358 OA
HETATM    2  H   UNL     1      22.598  -1.172  34.312  1.00  0.00     0.217 HD
ENDROOT
BRANCH   1   3
HETATM    3  C   UNL     1      21.772  -2.543  33.109  1.00  0.00     0.099 A 
HETATM    4  C   UNL     1      21.779  -3.937  33.146  1.00  0.00     0.046 A 
HETATM    5  C   UNL     1      21.606  -4.647  31.970  1.00  0.00    -0.053 A 
HETATM    6  C   UNL     1      21.428  -4.004  30.757  1.00  0.00     0.010 A 
HETATM    7  C   UNL     1      21.421  -2.610  30.719  1.00  0.00     0.040 A 
HETATM    8  C   UNL     1      21.593  -1.879  31.895  1.00  0.00     0.098 A 
BRANCH   5   9
HETATM    9  C   UNL     1      21.612  -6.159  32.012  1.00  0.00     0.082 C 
BRANCH   9  10
HETATM   10  CA  UNL     1      22.864  -6.731  32.696  1.00  0.00     0.287 C 
BRANCH  10  11
HETATM   11  N   UNL     1      23.529  -7.675  31.798  1.00  0.00    -0.065 N 
HETATM   12  H   UNL     1      23.243  -7.488  30.836  1.00  0.00     0.275 HD
HETATM   13  H   UNL     1      23.266  -8.628  32.051  1.00  0.00     0.275 HD
HETATM   14  H   UNL     1      24.539  -7.568  31.880  1.00  0.00     0.275 HD
ENDBRANCH  10  11
BRANCH  10  15
HETATM   15  C   UNL     1      22.524  -7.500  33.961  1.00  0.00     0.204 C 
HETATM   16  O   UNL     1      23.554  -7.521  34.845  1.00  0.00    -0.646 OA
HETATM   17  OXT UNL     1      21.460  -8.070  34.168  1.00  0.00    -0.646 OA
ENDBRANCH  10  15
ENDBRANCH   9  10
ENDBRANCH   5   9
BRANCH   8  18
HETATM   18  O   UNL     1      21.587  -0.518  31.844  1.00  0.00    -0.358 OA
HETATM   19  H   UNL     1      22.284  -0.061  31.416  1.00  0.00     0.217 HD
ENDBRANCH   8  18
ENDBRANCH   1   3
TORSDOF 6
ENDMDL
MODEL 3
REMARK VINA RESULT:      -6.5      3.020      5.279
REMARK  6 active torsions:
REMARK  status: ('A' for Active; 'I' for Inactive)
REMARK    1  A    between atoms: O_1  and  C_11 
REMARK    2  A    between atoms: O_3  and  C_14 
REMARK    3  A    between atoms: N_5  and  CA_7 
REMARK    4  A    between atoms: C_6  and  CA_7 
REMARK    5  A    between atoms: C_6  and  C_8 
REMARK    6  A    between atoms: CA_7  and  C_12 
ROOT
HETATM    1  O   UNL     1      21.636  -0.810  33.036  1.00  0.00    -0.358 OA
HETATM    2  H   UNL     1      21.070  -0.478  33.704  1.00  0.00     0.217 HD
ENDROOT
BRANCH   1   3
HETATM    3  C   UNL     1      21.607  -2.134  32.715  1.00  0.00     0.099 A 
HETATM    4  C   UNL     1      21.143  -2.527  31.460  1.00  0.00     0.046 A 
HETATM    5  C   UNL     1      21.115  -3.873  31.140  1.00  0.00    -0.053 A 
HETATM    6  C   UNL     1      21.536  -4.839  32.038  1.00  0.00     0.010 A 
HETATM    7  C   UNL     1      22.000  -4.447  33.293  1.00  0.00     0.040 A 
HETATM    8  C   UNL     1      22.035  -3.094  33.632  1.00  0.00     0.098 A 
BRANCH   5   9
HETATM    9  C   UNL     1      20.614  -4.298  29.778  1.00  0.00     0.082 C 
BRANCH   9  10
HETATM   10  CA  UNL     1      19.402  -3.479  29.307  1.00  0.00     0.287 C 
BRANCH  10  11
HETATM   11  N   UNL     1      18.305  -4.380  28.954  1.00  0.00    -0.065 N 
HETATM   12  H   UNL     1      18.615  -5.026  28.228  1.00  0.00     0.275 HD
HETATM   13  H   UNL     1      17.514  -3.835  28.609  1.00  0.00     0.275 HD
HETATM   14  H   UNL     1      18.019  -4.907  29.779  1.00  0.00     0.275 HD
ENDBRANCH  10  11
BRANCH  10  15
HETATM   15  C   UNL     1      19.710  -2.664  28.063  1.00  0.00     0.204 C 
HETATM   16  O   UNL     1      18.592  -2.353  27.358  1.00  0.00    -0.646 OA
HETATM   17  OXT UNL     1      20.834  -2.338  27.702  1.00  0.00    -0.646 OA
ENDBRANCH  10  15
ENDBRANCH   9  10
ENDBRANCH   5   9
BRANCH   8  18
HETATM   18  O   UNL     1      22.488  -2.723  34.863  1.00  0.00    -0.358 OA
HETATM   19  H   UNL     1      22.306  -3.258  35.610  1.00  0.00     0.217 HD
ENDBRANCH   8  18
ENDBRANCH   1   3
TORSDOF 6
ENDMDL
MODEL 4
REMARK VINA RESULT:      -6.5      1.361      2.223
REMARK  6 active torsions:
REMARK  status: ('A' for Active; 'I' for Inactive)
REMARK    1  A    between atoms: O_1  and  C_11 
REMARK    2  A    between atoms: O_3  and  C_14 
REMARK    3  A    between atoms: N_5  and  CA_7 
REMARK    4  A    between atoms: C_6  and  CA_7 
REMARK    5  A    between atoms: C_6  and  C_8 
REMARK    6  A    between atoms: CA_7  and  C_12 
ROOT
HETATM    1  O   UNL     1      21.385  -0.787  31.573  1.00  0.00    -0.358 OA
HETATM    2  H   UNL     1      20.539  -0.407  31.703  1.00  0.00     0.217 HD
ENDROOT
BRANCH   1   3
HETATM    3  C   UNL     1      21.506  -2.132  31.394  1.00  0.00     0.099 A 
HETATM    4  C   UNL     1      21.678  -2.959  32.504  1.00  0.00     0.046 A 
HETATM    5  C   UNL     1      21.801  -4.326  32.317  1.00  0.00    -0.053 A 
HETATM    6  C   UNL     1      21.760  -4.889  31.053  1.00  0.00     0.010 A 
HETATM    7  C   UNL     1      21.588  -4.063  29.943  1.00  0.00     0.040 A 
HETATM    8  C   UNL     1      21.462  -2.684  30.114  1.00  0.00     0.098 A 
BRANCH   5   9
HETATM    9  C   UNL     1      21.986  -5.222  33.521  1.00  0.00     0.082 C 
BRANCH   9  10
HETATM   10  CA  UNL     1      21.886  -6.716  33.172  1.00  0.00     0.287 C 
BRANCH  10  11
HETATM   11  N   UNL     1      20.943  -7.372  34.077  1.00  0.00    -0.065 N 
HETATM   12  H   UNL     1      20.243  -6.697  34.386  1.00  0.00     0.275 HD
HETATM   13  H   UNL     1      21.445  -7.736  34.887  1.00  0.00     0.275 HD
HETATM   14  H   UNL     1      20.482  -8.140  33.589  1.00  0.00     0.275 HD
ENDBRANCH  10  11
BRANCH  10  15
HETATM   15  C   UNL     1      23.215  -7.432  33.337  1.00  0.00     0.204 C 
HETATM   16  O   UNL     1      23.605  -7.504  34.636  1.00  0.00    -0.646 OA
HETATM   17  OXT UNL     1      23.890  -7.876  32.417  1.00  0.00    -0.646 OA
ENDBRANCH  10  15
ENDBRANCH   9  10
ENDBRANCH   5   9
BRANCH   8  18
HETATM   18  O   UNL     1      21.296  -1.886  29.022  1.00  0.00    -0.358 OA
HETATM   19  H   UNL     1      21.433  -0.961  29.091  1.00  0.00     0.217 HD
ENDBRANCH   8  18
ENDBRANCH   1   3
TORSDOF 6
ENDMDL
MODEL 5
REMARK VINA RESULT:      -6.4      1.788      2.183
REMARK  6 active torsions:
REMARK  status: ('A' for Active; 'I' for Inactive)
REMARK    1  A    between atoms: O_1  and  C_11 
REMARK    2  A    between atoms: O_3  and  C_14 
REMARK    3  A    between atoms: N_5  and  CA_7 
REMARK    4  A    between atoms: C_6  and  CA_7 
REMARK    5  A    between atoms: C_6  and  C_8 
REMARK    6  A    between atoms: CA_7  and  C_12 
ROOT
HETATM    1  O   UNL     1      19.536  -4.555  29.151  1.00  0.00    -0.358 OA
HETATM    2  H   UNL     1      18.661  -4.882  29.213  1.00  0.00     0.217 HD
ENDROOT
BRANCH   1   3
HETATM    3  C   UNL     1      20.119  -3.958  30.228  1.00  0.00     0.099 A 
HETATM    4  C   UNL     1      20.902  -4.720  31.095  1.00  0.00     0.046 A 
HETATM    5  C   UNL     1      21.492  -4.109  32.188  1.00  0.00    -0.053 A 
HETATM    6  C   UNL     1      21.320  -2.759  32.442  1.00  0.00     0.010 A 
HETATM    7  C   UNL     1      20.537  -1.997  31.575  1.00  0.00     0.040 A 
HETATM    8  C   UNL     1      19.936  -2.597  30.468  1.00  0.00     0.098 A 
BRANCH   5   9
HETATM    9  C   UNL     1      22.342  -4.935  33.127  1.00  0.00     0.082 C 
BRANCH   9  10
HETATM   10  CA  UNL     1      22.017  -6.436  33.061  1.00  0.00     0.287 C 
BRANCH  10  11
HETATM   11  N   UNL     1      21.081  -6.785  34.129  1.00  0.00    -0.065 N 
HETATM   12  H   UNL     1      20.288  -6.142  34.110  1.00  0.00     0.275 HD
HETATM   13  H   UNL     1      21.553  -6.717  35.031  1.00  0.00     0.275 HD
HETATM   14  H   UNL     1      20.748  -7.739  33.991  1.00  0.00     0.275 HD
ENDBRANCH  10  11
BRANCH  10  15
HETATM   15  C   UNL     1      23.250  -7.298  33.266  1.00  0.00     0.204 C 
HETATM   16  O   UNL     1      23.619  -7.370  34.570  1.00  0.00    -0.646 OA
HETATM   17  OXT UNL     1      23.874  -7.851  32.369  1.00  0.00    -0.646 OA
ENDBRANCH  10  15
ENDBRANCH   9  10
ENDBRANCH   5   9
BRANCH   8  18
HETATM   18  O   UNL     1      19.171  -1.842  29.630  1.00  0.00    -0.358 OA
HETATM   19  H   UNL     1      18.597  -2.258  29.018  1.00  0.00     0.217 HD
ENDBRANCH   8  18
ENDBRANCH   1   3
TORSDOF 6
ENDMDL
MODEL 6
REMARK VINA RESULT:      -6.4      2.800      5.567
REMARK  6 active torsions:
REMARK  status: ('A' for Active; 'I' for Inactive)
REMARK    1  A    between atoms: O_1  and  C_11 
REMARK    2  A    between atoms: O_3  and  C_14 
REMARK    3  A    between atoms: N_5  and  CA_7 
REMARK    4  A    between atoms: C_6  and  CA_7 
REMARK    5  A    between atoms: C_6  and  C_8 
REMARK    6  A    between atoms: CA_7  and  C_12 
ROOT
HETATM    1  O   UNL     1      22.472  -5.208  33.844  1.00  0.00    -0.358 OA
HETATM    2  H   UNL     1      22.287  -6.073  33.534  1.00  0.00     0.217 HD
ENDROOT
BRANCH   1   3
HETATM    3  C   UNL     1      22.057  -4.126  33.129  1.00  0.00     0.099 A 
HETATM    4  C   UNL     1      21.757  -4.271  31.775  1.00  0.00     0.046 A 
HETATM    5  C   UNL     1      21.336  -3.167  31.053  1.00  0.00    -0.053 A 
HETATM    6  C   UNL     1      21.208  -1.922  31.644  1.00  0.00     0.010 A 
HETATM    7  C   UNL     1      21.508  -1.776  32.999  1.00  0.00     0.040 A 
HETATM    8  C   UNL     1      21.933  -2.878  33.741  1.00  0.00     0.098 A 
BRANCH   5   9
HETATM    9  C   UNL     1      21.010  -3.325  29.585  1.00  0.00     0.082 C 
BRANCH   9  10
HETATM   10  CA  UNL     1      19.598  -2.829  29.231  1.00  0.00     0.287 C 
BRANCH  10  11
HETATM   11  N   UNL     1      18.654  -3.944  29.294  1.00  0.00    -0.065 N 
HETATM   12  H   UNL     1      18.046  -3.922  28.475  1.00  0.00     0.275 HD
HETATM   13  H   UNL     1      18.089  -3.864  30.140  1.00  0.00     0.275 HD
HETATM   14  H   UNL     1      19.169  -4.824  29.312  1.00  0.00     0.275 HD
ENDBRANCH  10  11
BRANCH  10  15
HETATM   15  C   UNL     1      19.523  -2.276  27.819  1.00  0.00     0.204 C 
HETATM   16  O   UNL     1      20.719  -1.799  27.387  1.00  0.00    -0.646 OA
HETATM   17  OXT UNL     1      18.505  -2.227  27.140  1.00  0.00    -0.646 OA
ENDBRANCH  10  15
ENDBRANCH   9  10
ENDBRANCH   5   9
BRANCH   8  18
HETATM   18  O   UNL     1      22.225  -2.723  35.063  1.00  0.00    -0.358 OA
HETATM   19  H   UNL     1      21.667  -3.102  35.714  1.00  0.00     0.217 HD
ENDBRANCH   8  18
ENDBRANCH   1   3
TORSDOF 6
ENDMDL
MODEL 7
REMARK VINA RESULT:      -6.4      3.278      5.829
REMARK  6 active torsions:
REMARK  status: ('A' for Active; 'I' for Inactive)
REMARK    1  A    between atoms: O_1  and  C_11 
REMARK    2  A    between atoms: O_3  and  C_14 
REMARK    3  A    between atoms: N_5  and  CA_7 
REMARK    4  A    between atoms: C_6  and  CA_7 
REMARK    5  A    between atoms: C_6  and  C_8 
REMARK    6  A    between atoms: CA_7  and  C_12 
ROOT
HETATM    1  O   UNL     1      21.469  -1.242  33.856  1.00  0.00    -0.358 OA
HETATM    2  H   UNL     1      21.813  -0.406  33.609  1.00  0.00     0.217 HD
ENDROOT
BRANCH   1   3
HETATM    3  C   UNL     1      21.237  -2.190  32.906  1.00  0.00     0.099 A 
HETATM    4  C   UNL     1      20.470  -1.868  31.787  1.00  0.00     0.046 A 
HETATM    5  C   UNL     1      20.237  -2.835  30.824  1.00  0.00    -0.053 A 
HETATM    6  C   UNL     1      20.746  -4.116  30.949  1.00  0.00     0.010 A 
HETATM    7  C   UNL     1      21.513  -4.439  32.068  1.00  0.00     0.040 A 
HETATM    8  C   UNL     1      21.759  -3.476  33.047  1.00  0.00     0.098 A 
BRANCH   5   9
HETATM    9  C   UNL     1      19.406  -2.485  29.610  1.00  0.00     0.082 C 
BRANCH   9  10
HETATM   10  CA  UNL     1      20.099  -2.852  28.288  1.00  0.00     0.287 C 
BRANCH  10  11
HETATM   11  N   UNL     1      20.966  -1.754  27.864  1.00  0.00    -0.065 N 
HETATM   12  H   UNL     1      20.394  -0.984  27.516  1.00  0.00     0.275 HD
HETATM   13  H   UNL     1      21.587  -2.078  27.122  1.00  0.00     0.275 HD
HETATM   14  H   UNL     1      21.522  -1.434  28.657  1.00  0.00     0.275 HD
ENDBRANCH  10  11
BRANCH  10  15
HETATM   15  C   UNL     1      19.102  -3.078  27.164  1.00  0.00     0.204 C 
HETATM   16  O   UNL     1      18.501  -1.927  26.768  1.00  0.00    -0.646 OA
HETATM   17  OXT UNL     1      18.834  -4.168  26.675  1.00  0.00    -0.646 OA
ENDBRANCH  10  15
ENDBRANCH   9  10
ENDBRANCH   5   9
BRANCH   8  18
HETATM   18  O   UNL     1      22.508  -3.804  34.137  1.00  0.00    -0.358 OA
HETATM   19  H   UNL     1      22.214  -4.474  34.723  1.00  0.00     0.217 HD
ENDBRANCH   8  18
ENDBRANCH   1   3
TORSDOF 6
ENDMDL
MODEL 8
REMARK VINA RESULT:      -6.3      3.077      4.964
REMARK  6 active torsions:
REMARK  status: ('A' for Active; 'I' for Inactive)
REMARK    1  A    between atoms: O_1  and  C_11 
REMARK    2  A    between atoms: O_3  and  C_14 
REMARK    3  A    between atoms: N_5  and  CA_7 
REMARK    4  A    between atoms: C_6  and  CA_7 
REMARK    5  A    between atoms: C_6  and  C_8 
REMARK    6  A    between atoms: CA_7  and  C_12 
ROOT
HETATM    1  O   UNL     1      22.641  -5.169  33.825  1.00  0.00    -0.358 OA
HETATM    2  H   UNL     1      23.501  -5.141  34.194  1.00  0.00     0.217 HD
ENDROOT
BRANCH   1   3
HETATM    3  C   UNL     1      22.094  -4.043  33.289  1.00  0.00     0.099 A 
HETATM    4  C   UNL     1      21.543  -4.089  32.008  1.00  0.00     0.046 A 
HETATM    5  C   UNL     1      20.988  -2.941  31.468  1.00  0.00    -0.053 A 
HETATM    6  C   UNL     1      20.969  -1.748  32.170  1.00  0.00     0.010 A 
HETATM    7  C   UNL     1      21.519  -1.701  33.450  1.00  0.00     0.040 A 
HETATM    8  C   UNL     1      22.082  -2.849  34.010  1.00  0.00     0.098 A 
BRANCH   5   9
HETATM    9  C   UNL     1      20.390  -2.992  30.080  1.00  0.00     0.082 C 
BRANCH   9  10
HETATM   10  CA  UNL     1      21.435  -2.786  28.973  1.00  0.00     0.287 C 
BRANCH  10  11
HETATM   11  N   UNL     1      20.923  -1.842  27.980  1.00  0.00    -0.065 N 
HETATM   12  H   UNL     1      20.107  -2.244  27.518  1.00  0.00     0.275 HD
HETATM   13  H   UNL     1      21.647  -1.651  27.287  1.00  0.00     0.275 HD
HETATM   14  H   UNL     1      20.658  -0.973  28.443  1.00  0.00     0.275 HD
ENDBRANCH  10  11
BRANCH  10  15
HETATM   15  C   UNL     1      21.742  -4.075  28.228  1.00  0.00     0.204 C 
HETATM   16  O   UNL     1      20.630  -4.638  27.691  1.00  0.00    -0.646 OA
HETATM   17  OXT UNL     1      22.853  -4.582  28.137  1.00  0.00    -0.646 OA
ENDBRANCH  10  15
ENDBRANCH   9  10
ENDBRANCH   5   9
BRANCH   8  18
HETATM   18  O   UNL     1      22.619  -2.790  35.261  1.00  0.00    -0.358 OA
HETATM   19  H   UNL     1      23.451  -2.381  35.395  1.00  0.00     0.217 HD
ENDBRANCH   8  18
ENDBRANCH   1   3
TORSDOF 6
ENDMDL
MODEL 9
REMARK VINA RESULT:      -6.3      3.999      5.512
REMARK  6 active torsions:
REMARK  status: ('A' for Active; 'I' for Inactive)
REMARK    1  A    between atoms: O_1  and  C_11 
REMARK    2  A    between atoms: O_3  and  C_14 
REMARK    3  A    between atoms: N_5  and  CA_7 
REMARK    4  A    between atoms: C_6  and  CA_7 
REMARK    5  A    between atoms: C_6  and  C_8 
REMARK    6  A    between atoms: CA_7  and  C_12 
ROOT
HETATM    1  O   UNL     1      20.291  -0.907  25.056  1.00  0.00    -0.358 OA
HETATM    2  H   UNL     1      19.593  -0.710  24.464  1.00  0.00     0.217 HD
ENDROOT
BRANCH   1   3
HETATM    3  C   UNL     1      20.059  -1.688  26.148  1.00  0.00     0.099 A 
HETATM    4  C   UNL     1      20.993  -1.716  27.183  1.00  0.00     0.046 A 
HETATM    5  C   UNL     1      20.752  -2.512  28.291  1.00  0.00    -0.053 A 
HETATM    6  C   UNL     1      19.606  -3.282  28.392  1.00  0.00     0.010 A 
HETATM    7  C   UNL     1      18.672  -3.254  27.357  1.00  0.00     0.040 A 
HETATM    8  C   UNL     1      18.899  -2.457  26.235  1.00  0.00     0.098 A 
BRANCH   5   9
HETATM    9  C   UNL     1      21.764  -2.541  29.414  1.00  0.00     0.082 C 
BRANCH   9  10
HETATM   10  CA  UNL     1      21.128  -2.323  30.796  1.00  0.00     0.287 C 
BRANCH  10  11
HETATM   11  N   UNL     1      21.590  -1.054  31.357  1.00  0.00    -0.065 N 
HETATM   12  H   UNL     1      22.609  -1.012  31.309  1.00  0.00     0.275 HD
HETATM   13  H   UNL     1      21.293  -0.984  32.331  1.00  0.00     0.275 HD
HETATM   14  H   UNL     1      21.192  -0.281  30.824  1.00  0.00     0.275 HD
ENDBRANCH  10  11
BRANCH  10  15
HETATM   15  C   UNL     1      21.523  -3.405  31.785  1.00  0.00     0.204 C 
HETATM   16  O   UNL     1      21.414  -2.992  33.074  1.00  0.00    -0.646 OA
HETATM   17  OXT UNL     1      21.926  -4.520  31.478  1.00  0.00    -0.646 OA
ENDBRANCH  10  15
ENDBRANCH   9  10
ENDBRANCH   5   9
BRANCH   8  18
HETATM   18  O   UNL     1      17.980  -2.440  25.229  1.00  0.00    -0.358 OA
HETATM   19  H   UNL     1      17.121  -2.787  25.373  1.00  0.00     0.217 HD
ENDBRANCH   8  18
ENDBRANCH   1   3
TORSDOF 6
ENDMDL
