MODEL 1
REMARK VINA RESULT:      -6.8      0.000      0.000
REMARK  6 active torsions:
REMARK  status: ('A' for Active; 'I' for Inactive)
REMARK    1  A    between atoms: O_1  and  C_11 
REMARK    2  A    between atoms: O_3  and  C_14 
REMARK    3  A    between atoms: N_5  and  CA_7 
REMARK    4  A    between atoms: C_6  and  CA_7 
REMARK    5  A    between atoms: C_6  and  C_8 
REMARK    6  A    between atoms: CA_7  and  C_12 
ROOT
HETATM    1  O   UNL     1      21.334  -2.000  29.575  1.00  0.00    -0.358 OA
HETATM    2  H   UNL     1      21.066  -2.481  28.817  1.00  0.00     0.217 HD
ENDROOT
BRANCH   1   3
HETATM    3  C   UNL     1      21.473  -2.636  30.771  1.00  0.00     0.099 A 
HETATM    4  C   UNL     1      21.483  -4.030  30.810  1.00  0.00     0.046 A 
HETATM    5  C   UNL     1      21.624  -4.672  32.029  1.00  0.00    -0.053 A 
HETATM    6  C   UNL     1      21.755  -3.961  33.210  1.00  0.00     0.010 A 
HETATM    7  C   UNL     1      21.746  -2.567  33.171  1.00  0.00     0.040 A 
HETATM    8  C   UNL     1      21.604  -1.904  31.951  1.00  0.00     0.098 A 
BRANCH   5   9
HETATM    9  C   UNL     1      21.636  -6.184  32.071  1.00  0.00     0.082 C 
BRANCH   9  10
HETATM   10  CA  UNL     1      22.883  -6.751  32.767  1.00  0.00     0.287 C 
BRANCH  10  11
HETATM   11  N   UNL     1      23.557  -7.696  31.877  1.00  0.00    -0.065 N 
HETATM   12  H   UNL     1      23.343  -8.650  32.168  1.00  0.00     0.275 HD
HETATM   13  H   UNL     1      24.566  -7.545  31.921  1.00  0.00     0.275 HD
HETATM   14  H   UNL     1      23.234  -7.551  30.921  1.00  0.00     0.275 HD
ENDBRANCH  10  11
BRANCH  10  15
HETATM   15  C   UNL     1      22.535  -7.518  34.031  1.00  0.00     0.204 C 
HETATM   16  O   UNL     1      23.562  -7.545  34.918  1.00  0.00    -0.646 OA
HETATM   17  OXT UNL     1      21.466  -8.081  34.235  1.00  0.00    -0.646 OA
ENDBRANCH  10  15
ENDBRANCH   9  10
ENDBRANCH   5   9
BRANCH   8  18
HETATM   18  O   UNL     1      21.595  -0.542  31.926  1.00  0.00    -0.358 OA
HETATM   19  H   UNL     1      21.234  -0.062  32.646  1.00  0.00     0.217 HD
ENDBRANCH   8  18
ENDBRANCH   1   3
TORSDOF 6
ENDMDL
MODEL 2
REMARK VINA RESULT:      -6.6      0.727      1.807
REMARK  6 active torsions:
REMARK  status: ('A' for Active; 'I' for Inactive)
REMARK    1  A    between atoms: O_1  and  C_11 
REMARK    2  A    between atoms: O_3  and  C_14 
REMARK    3  A    between atoms: N_5  and  CA_7 
REMARK    4  A    between atoms: C_6  and  CA_7 
REMARK    5  A    between atoms: C_6  and  C_8 
REMARK    6  A    between atoms: CA_7  and  C_12 
ROOT
HETATM    1  O   UNL     1      22.003  -1.787  34.244  1.00  0.00    -0.358 OA
HETATM    2  H   UNL     1      22.311  -0.905  34.182  1.00  0.00     0.217 HD
ENDROOT
BRANCH   1   3
HETATM    3  C   UNL     1      21.784  -2.513  33.112  1.00  0.00     0.099 A 
HETATM    4  C   UNL     1      21.773  -3.906  33.180  1.00  0.00     0.046 A 
HETATM    5  C   UNL     1      21.551  -4.638  32.026  1.00  0.00    -0.053 A 
HETATM    6  C   UNL     1      21.342  -4.020  30.806  1.00  0.00     0.010 A 
HETATM    7  C   UNL     1      21.353  -2.627  30.737  1.00  0.00     0.040 A 
HETATM    8  C   UNL     1      21.575  -1.873  31.890  1.00  0.00     0.098 A 
BRANCH   5   9
HETATM    9  C   UNL     1      21.537  -6.149  32.101  1.00  0.00     0.082 C 
BRANCH   9  10
HETATM   10  CA  UNL     1      22.821  -6.727  32.718  1.00  0.00     0.287 C 
BRANCH  10  11
HETATM   11  N   UNL     1      23.440  -7.662  31.780  1.00  0.00    -0.065 N 
HETATM   12  H   UNL     1      22.777  -7.891  31.039  1.00  0.00     0.275 HD
HETATM   13  H   UNL     1      23.705  -8.515  32.275  1.00  0.00     0.275 HD
HETATM   14  H   UNL     1      24.271  -7.234  31.373  1.00  0.00     0.275 HD
ENDBRANCH  10  11
BRANCH  10  15
HETATM   15  C   UNL     1      22.543  -7.508  33.991  1.00  0.00     0.204 C 
HETATM   16  O   UNL     1      23.583  -7.462  34.862  1.00  0.00    -0.646 OA
HETATM   17  OXT UNL     1      21.517  -8.139  34.215  1.00  0.00    -0.646 OA
ENDBRANCH  10  15
ENDBRANCH   9  10
ENDBRANCH   5   9
BRANCH   8  18
HETATM   18  O   UNL     1      21.586  -0.513  31.810  1.00  0.00    -0.358 OA
HETATM   19  H   UNL     1      20.781  -0.042  31.717  1.00  0.00     0.217 HD
ENDBRANCH   8  18
ENDBRANCH   1   3
TORSDOF 6
ENDMDL
MODEL 3
REMARK VINA RESULT:      -6.5      3.015      5.272
REMARK  6 active torsions:
REMARK  status: ('A' for Active; 'I' for Inactive)
REMARK    1  A    between atoms: O_1  and  C_11 
REMARK    2  A    between atoms: O_3  and  C_14 
REMARK    3  A    between atoms: N_5  and  CA_7 
REMARK    4  A    between atoms: C_6  and  CA_7 
REMARK    5  A    between atoms: C_6  and  C_8 
REMARK    6  A    between atoms: CA_7  and  C_12 
ROOT
HETATM    1  O   UNL     1      21.675  -0.815  33.065  1.00  0.00    -0.358 OA
HETATM    2  H   UNL     1      20.952  -0.417  33.507  1.00  0.00     0.217 HD
ENDROOT
BRANCH   1   3
HETATM    3  C   UNL     1      21.633  -2.139  32.747  1.00  0.00     0.099 A 
HETATM    4  C   UNL     1      21.165  -2.529  31.493  1.00  0.00     0.046 A 
HETATM    5  C   UNL     1      21.124  -3.876  31.174  1.00  0.00    -0.053 A 
HETATM    6  C   UNL     1      21.534  -4.845  32.074  1.00  0.00     0.010 A 
HETATM    7  C   UNL     1      22.001  -4.455  33.329  1.00  0.00     0.040 A 
HETATM    8  C   UNL     1      22.050  -3.102  33.666  1.00  0.00     0.098 A 
BRANCH   5   9
HETATM    9  C   UNL     1      20.618  -4.299  29.813  1.00  0.00     0.082 C 
BRANCH   9  10
HETATM   10  CA  UNL     1      19.433  -3.448  29.327  1.00  0.00     0.287 C 
BRANCH  10  11
HETATM   11  N   UNL     1      18.314  -4.320  28.973  1.00  0.00    -0.065 N 
HETATM   12  H   UNL     1      18.368  -5.182  29.515  1.00  0.00     0.275 HD
HETATM   13  H   UNL     1      18.357  -4.541  27.977  1.00  0.00     0.275 HD
HETATM   14  H   UNL     1      17.435  -3.844  29.177  1.00  0.00     0.275 HD
ENDBRANCH  10  11
BRANCH  10  15
HETATM   15  C   UNL     1      19.775  -2.651  28.080  1.00  0.00     0.204 C 
HETATM   16  O   UNL     1      18.668  -2.225  27.420  1.00  0.00    -0.646 OA
HETATM   17  OXT UNL     1      20.911  -2.430  27.681  1.00  0.00    -0.646 OA
ENDBRANCH  10  15
ENDBRANCH   9  10
ENDBRANCH   5   9
BRANCH   8  18
HETATM   18  O   UNL     1      22.507  -2.734  34.896  1.00  0.00    -0.358 OA
HETATM   19  H   UNL     1      23.388  -2.932  35.147  1.00  0.00     0.217 HD
ENDBRANCH   8  18
ENDBRANCH   1   3
TORSDOF 6
ENDMDL
MODEL 4
REMARK VINA RESULT:      -6.5      1.354      2.220
REMARK  6 active torsions:
REMARK  status: ('A' for Active; 'I' for Inactive)
REMARK    1  A    between atoms: O_1  and  C_11 
REMARK    2  A    between atoms: O_3  and  C_14 
REMARK    3  A    between atoms: N_5  and  CA_7 
REMARK    4  A    between atoms: C_6  and  CA_7 
REMARK    5  A    between atoms: C_6  and  C_8 
REMARK    6  A    between atoms: CA_7  and  C_12 
ROOT
HETATM    1  O   UNL     1      21.393  -0.794  31.585  1.00  0.00    -0.358 OA
HETATM    2  H   UNL     1      20.559  -0.381  31.480  1.00  0.00     0.217 HD
ENDROOT
BRANCH   1   3
HETATM    3  C   UNL     1      21.514  -2.139  31.407  1.00  0.00     0.099 A 
HETATM    4  C   UNL     1      21.687  -2.966  32.516  1.00  0.00     0.046 A 
HETATM    5  C   UNL     1      21.809  -4.333  32.329  1.00  0.00    -0.053 A 
HETATM    6  C   UNL     1      21.766  -4.896  31.065  1.00  0.00     0.010 A 
HETATM    7  C   UNL     1      21.593  -4.069  29.956  1.00  0.00     0.040 A 
HETATM    8  C   UNL     1      21.468  -2.690  30.126  1.00  0.00     0.098 A 
BRANCH   5   9
HETATM    9  C   UNL     1      21.995  -5.229  33.532  1.00  0.00     0.082 C 
BRANCH   9  10
HETATM   10  CA  UNL     1      21.894  -6.723  33.184  1.00  0.00     0.287 C 
BRANCH  10  11
HETATM   11  N   UNL     1      20.924  -7.371  34.066  1.00  0.00    -0.065 N 
HETATM   12  H   UNL     1      20.929  -6.908  34.975  1.00  0.00     0.275 HD
HETATM   13  H   UNL     1      21.174  -8.353  34.183  1.00  0.00     0.275 HD
HETATM   14  H   UNL     1      19.993  -7.303  33.655  1.00  0.00     0.275 HD
ENDBRANCH  10  11
BRANCH  10  15
HETATM   15  C   UNL     1      23.214  -7.448  33.383  1.00  0.00     0.204 C 
HETATM   16  O   UNL     1      23.573  -7.517  34.691  1.00  0.00    -0.646 OA
HETATM   17  OXT UNL     1      23.907  -7.900  32.480  1.00  0.00    -0.646 OA
ENDBRANCH  10  15
ENDBRANCH   9  10
ENDBRANCH   5   9
BRANCH   8  18
HETATM   18  O   UNL     1      21.302  -1.892  29.034  1.00  0.00    -0.358 OA
HETATM   19  H   UNL     1      21.809  -1.110  28.944  1.00  0.00     0.217 HD
ENDBRANCH   8  18
ENDBRANCH   1   3
TORSDOF 6
ENDMDL
MODEL 5
REMARK VINA RESULT:      -6.5      3.698      4.711
REMARK  6 active torsions:
REMARK  status: ('A' for Active; 'I' for Inactive)
REMARK    1  A    between atoms: O_1  and  C_11 
REMARK    2  A    between atoms: O_3  and  C_14 
REMARK    3  A    between atoms: N_5  and  CA_7 
REMARK    4  A    between atoms: C_6  and  CA_7 
REMARK    5  A    between atoms: C_6  and  C_8 
REMARK    6  A    between atoms: CA_7  and  C_12 
ROOT
HETATM    1  O   UNL     1      19.034  -2.501  29.121  1.00  0.00    -0.358 OA
HETATM    2  H   UNL     1      18.285  -3.012  28.886  1.00  0.00     0.217 HD
ENDROOT
BRANCH   1   3
HETATM    3  C   UNL     1      19.876  -2.937  30.099  1.00  0.00     0.099 A 
HETATM    4  C   UNL     1      20.409  -2.022  31.006  1.00  0.00     0.046 A 
HETATM    5  C   UNL     1      21.265  -2.470  31.997  1.00  0.00    -0.053 A 
HETATM    6  C   UNL     1      21.606  -3.807  32.107  1.00  0.00     0.010 A 
HETATM    7  C   UNL     1      21.074  -4.723  31.201  1.00  0.00     0.040 A 
HETATM    8  C   UNL     1      20.210  -4.288  30.196  1.00  0.00     0.098 A 
BRANCH   5   9
HETATM    9  C   UNL     1      21.840  -1.477  32.982  1.00  0.00     0.082 C 
BRANCH   9  10
HETATM   10  CA  UNL     1      21.561  -1.857  34.445  1.00  0.00     0.287 C 
BRANCH  10  11
HETATM   11  N   UNL     1      20.522  -0.986  34.991  1.00  0.00    -0.065 N 
HETATM   12  H   UNL     1      19.884  -1.536  35.567  1.00  0.00     0.275 HD
HETATM   13  H   UNL     1      20.003  -0.554  34.226  1.00  0.00     0.275 HD
HETATM   14  H   UNL     1      20.954  -0.259  35.562  1.00  0.00     0.275 HD
ENDBRANCH  10  11
BRANCH  10  15
HETATM   15  C   UNL     1      22.785  -1.679  35.326  1.00  0.00     0.204 C 
HETATM   16  O   UNL     1      22.551  -2.035  36.615  1.00  0.00    -0.646 OA
HETATM   17  OXT UNL     1      23.863  -1.239  34.945  1.00  0.00    -0.646 OA
ENDBRANCH  10  15
ENDBRANCH   9  10
ENDBRANCH   5   9
BRANCH   8  18
HETATM   18  O   UNL     1      19.698  -5.193  29.314  1.00  0.00    -0.358 OA
HETATM   19  H   UNL     1      19.080  -5.834  29.606  1.00  0.00     0.217 HD
ENDBRANCH   8  18
ENDBRANCH   1   3
TORSDOF 6
ENDMDL
MODEL 6
REMARK VINA RESULT:      -6.4      2.772      5.509
REMARK  6 active torsions:
REMARK  status: ('A' for Active; 'I' for Inactive)
REMARK    1  A    between atoms: O_1  and  C_11 
REMARK    2  A    between atoms: O_3  and  C_14 
REMARK    3  A    between atoms: N_5  and  CA_7 
REMARK    4  A    between atoms: C_6  and  CA_7 
REMARK    5  A    between atoms: C_6  and  C_8 
REMARK    6  A    between atoms: CA_7  and  C_12 
ROOT
HETATM    1  O   UNL     1      22.674  -5.270  33.901  1.00  0.00    -0.358 OA
HETATM    2  H   UNL     1      22.204  -6.071  34.019  1.00  0.00     0.217 HD
ENDROOT
BRANCH   1   3
HETATM    3  C   UNL     1      22.128  -4.264  33.162  1.00  0.00     0.099 A 
HETATM    4  C   UNL     1      21.760  -4.505  31.839  1.00  0.00     0.046 A 
HETATM    5  C   UNL     1      21.206  -3.479  31.092  1.00  0.00    -0.053 A 
HETATM    6  C   UNL     1      21.010  -2.218  31.629  1.00  0.00     0.010 A 
HETATM    7  C   UNL     1      21.377  -1.976  32.953  1.00  0.00     0.040 A 
HETATM    8  C   UNL     1      21.937  -2.999  33.719  1.00  0.00     0.098 A 
BRANCH   5   9
HETATM    9  C   UNL     1      20.806  -3.741  29.658  1.00  0.00     0.082 C 
BRANCH   9  10
HETATM   10  CA  UNL     1      19.488  -3.051  29.270  1.00  0.00     0.287 C 
BRANCH  10  11
HETATM   11  N   UNL     1      18.447  -4.057  29.063  1.00  0.00    -0.065 N 
HETATM   12  H   UNL     1      18.191  -4.082  28.076  1.00  0.00     0.275 HD
HETATM   13  H   UNL     1      17.628  -3.818  29.621  1.00  0.00     0.275 HD
HETATM   14  H   UNL     1      18.797  -4.972  29.347  1.00  0.00     0.275 HD
ENDBRANCH  10  11
BRANCH  10  15
HETATM   15  C   UNL     1      19.609  -2.276  27.969  1.00  0.00     0.204 C 
HETATM   16  O   UNL     1      20.896  -2.171  27.549  1.00  0.00    -0.646 OA
HETATM   17  OXT UNL     1      18.671  -1.770  27.367  1.00  0.00    -0.646 OA
ENDBRANCH  10  15
ENDBRANCH   9  10
ENDBRANCH   5   9
BRANCH   8  18
HETATM   18  O   UNL     1      22.294  -2.750  35.011  1.00  0.00    -0.358 OA
HETATM   19  H   UNL     1      21.736  -3.023  35.712  1.00  0.00     0.217 HD
ENDBRANCH   8  18
ENDBRANCH   1   3
TORSDOF 6
ENDMDL
MODEL 7
REMARK VINA RESULT:      -6.4      1.786      2.227
REMARK  6 active torsions:
REMARK  status: ('A' for Active; 'I' for Inactive)
REMARK    1  A    between atoms: O_1  and  C_11 
REMARK    2  A    between atoms: O_3  and  C_14 
REMARK    3  A    between atoms: N_5  and  CA_7 
REMARK    4  A    between atoms: C_6  and  CA_7 
REMARK    5  A    between atoms: C_6  and  C_8 
REMARK    6  A    between atoms: CA_7  and  C_12 
ROOT
HETATM    1  O   UNL     1      19.586  -4.561  29.136  1.00  0.00    -0.358 OA
HETATM    2  H   UNL     1      18.656  -4.654  29.077  1.00  0.00     0.217 HD
ENDROOT
BRANCH   1   3
HETATM    3  C   UNL     1      20.143  -3.956  30.222  1.00  0.00     0.099 A 
HETATM    4  C   UNL     1      20.923  -4.706  31.101  1.00  0.00     0.046 A 
HETATM    5  C   UNL     1      21.486  -4.086  32.204  1.00  0.00    -0.053 A 
HETATM    6  C   UNL     1      21.291  -2.739  32.454  1.00  0.00     0.010 A 
HETATM    7  C   UNL     1      20.512  -1.988  31.574  1.00  0.00     0.040 A 
HETATM    8  C   UNL     1      19.937  -2.597  30.458  1.00  0.00     0.098 A 
BRANCH   5   9
HETATM    9  C   UNL     1      22.333  -4.900  33.157  1.00  0.00     0.082 C 
BRANCH   9  10
HETATM   10  CA  UNL     1      22.023  -6.404  33.093  1.00  0.00     0.287 C 
BRANCH  10  11
HETATM   11  N   UNL     1      20.982  -6.735  34.065  1.00  0.00    -0.065 N 
HETATM   12  H   UNL     1      20.271  -7.313  33.618  1.00  0.00     0.275 HD
HETATM   13  H   UNL     1      20.554  -5.876  34.411  1.00  0.00     0.275 HD
HETATM   14  H   UNL     1      21.395  -7.246  34.845  1.00  0.00     0.275 HD
ENDBRANCH  10  11
BRANCH  10  15
HETATM   15  C   UNL     1      23.233  -7.253  33.446  1.00  0.00     0.204 C 
HETATM   16  O   UNL     1      23.818  -7.799  32.350  1.00  0.00    -0.646 OA
HETATM   17  OXT UNL     1      23.634  -7.459  34.585  1.00  0.00    -0.646 OA
ENDBRANCH  10  15
ENDBRANCH   9  10
ENDBRANCH   5   9
BRANCH   8  18
HETATM   18  O   UNL     1      19.175  -1.853  29.607  1.00  0.00    -0.358 OA
HETATM   19  H   UNL     1      19.435  -0.980  29.387  1.00  0.00     0.217 HD
ENDBRANCH   8  18
ENDBRANCH   1   3
TORSDOF 6
ENDMDL
MODEL 8
REMARK VINA RESULT:      -6.3      3.069      4.960
REMARK  6 active torsions:
REMARK  status: ('A' for Active; 'I' for Inactive)
REMARK    1  A    between atoms: O_1  and  C_11 
REMARK    2  A    between atoms: O_3  and  C_14 
REMARK    3  A    between atoms: N_5  and  CA_7 
REMARK    4  A    between atoms: C_6  and  CA_7 
REMARK    5  A    between atoms: C_6  and  C_8 
REMARK    6  A    between atoms: CA_7  and  C_12 
ROOT
HETATM    1  O   UNL     1      22.635  -5.171  33.821  1.00  0.00    -0.358 OA
HETATM    2  H   UNL     1      23.450  -5.497  33.494  1.00  0.00     0.217 HD
ENDROOT
BRANCH   1   3
HETATM    3  C   UNL     1      22.089  -4.044  33.286  1.00  0.00     0.099 A 
HETATM    4  C   UNL     1      21.543  -4.087  32.003  1.00  0.00     0.046 A 
HETATM    5  C   UNL     1      20.989  -2.938  31.464  1.00  0.00    -0.053 A 
HETATM    6  C   UNL     1      20.968  -1.747  32.168  1.00  0.00     0.010 A 
HETATM    7  C   UNL     1      21.514  -1.702  33.451  1.00  0.00     0.040 A 
HETATM    8  C   UNL     1      22.076  -2.851  34.009  1.00  0.00     0.098 A 
BRANCH   5   9
HETATM    9  C   UNL     1      20.395  -2.986  30.074  1.00  0.00     0.082 C 
BRANCH   9  10
HETATM   10  CA  UNL     1      21.445  -2.782  28.970  1.00  0.00     0.287 C 
BRANCH  10  11
HETATM   11  N   UNL     1      20.934  -1.844  27.972  1.00  0.00    -0.065 N 
HETATM   12  H   UNL     1      20.159  -2.274  27.466  1.00  0.00     0.275 HD
HETATM   13  H   UNL     1      21.678  -1.606  27.315  1.00  0.00     0.275 HD
HETATM   14  H   UNL     1      20.608  -0.997  28.436  1.00  0.00     0.275 HD
ENDBRANCH  10  11
BRANCH  10  15
HETATM   15  C   UNL     1      21.758  -4.072  28.233  1.00  0.00     0.204 C 
HETATM   16  O   UNL     1      20.644  -4.665  27.732  1.00  0.00    -0.646 OA
HETATM   17  OXT UNL     1      22.877  -4.558  28.117  1.00  0.00    -0.646 OA
ENDBRANCH  10  15
ENDBRANCH   9  10
ENDBRANCH   5   9
BRANCH   8  18
HETATM   18  O   UNL     1      22.608  -2.795  35.262  1.00  0.00    -0.358 OA
HETATM   19  H   UNL     1      22.082  -2.510  35.983  1.00  0.00     0.217 HD
ENDBRANCH   8  18
ENDBRANCH   1   3
TORSDOF 6
ENDMDL
MODEL 9
REMARK VINA RESULT:      -6.3      3.298      5.790
REMARK  6 active torsions:
REMARK  status: ('A' for Active; 'I' for Inactive)
REMARK    1  A    between atoms: O_1  and  C_11 
REMARK    2  A    between atoms: O_3  and  C_14 
REMARK    3  A    between atoms: N_5  and  CA_7 
REMARK    4  A    between atoms: C_6  and  CA_7 
REMARK    5  A    between atoms: C_6  and  C_8 
REMARK    6  A    between atoms: CA_7  and  C_12 
ROOT
HETATM    1  O   UNL     1      21.525  -1.285  33.767  1.00  0.00    -0.358 OA
HETATM    2  H   UNL     1      20.816  -0.866  34.214  1.00  0.00     0.217 HD
ENDROOT
BRANCH   1   3
HETATM    3  C   UNL     1      21.269  -2.241  32.831  1.00  0.00     0.099 A 
HETATM    4  C   UNL     1      20.528  -1.911  31.697  1.00  0.00     0.046 A 
HETATM    5  C   UNL     1      20.271  -2.887  30.748  1.00  0.00    -0.053 A 
HETATM    6  C   UNL     1      20.731  -4.183  30.902  1.00  0.00     0.010 A 
HETATM    7  C   UNL     1      21.473  -4.514  32.036  1.00  0.00     0.040 A 
HETATM    8  C   UNL     1      21.741  -3.543  33.001  1.00  0.00     0.098 A 
BRANCH   5   9
HETATM    9  C   UNL     1      19.469  -2.528  29.518  1.00  0.00     0.082 C 
BRANCH   9  10
HETATM   10  CA  UNL     1      20.195  -2.879  28.209  1.00  0.00     0.287 C 
BRANCH  10  11
HETATM   11  N   UNL     1      20.906  -1.703  27.709  1.00  0.00    -0.065 N 
HETATM   12  H   UNL     1      20.233  -0.978  27.461  1.00  0.00     0.275 HD
HETATM   13  H   UNL     1      21.450  -1.960  26.884  1.00  0.00     0.275 HD
HETATM   14  H   UNL     1      21.533  -1.352  28.433  1.00  0.00     0.275 HD
ENDBRANCH  10  11
BRANCH  10  15
HETATM   15  C   UNL     1      19.230  -3.301  27.115  1.00  0.00     0.204 C 
HETATM   16  O   UNL     1      18.369  -2.308  26.775  1.00  0.00    -0.646 OA
HETATM   17  OXT UNL     1      19.194  -4.413  26.604  1.00  0.00    -0.646 OA
ENDBRANCH  10  15
ENDBRANCH   9  10
ENDBRANCH   5   9
BRANCH   8  18
HETATM   18  O   UNL     1      22.464  -3.879  34.106  1.00  0.00    -0.358 OA
HETATM   19  H   UNL     1      22.728  -4.768  34.241  1.00  0.00     0.217 HD
ENDBRANCH   8  18
ENDBRANCH   1   3
TORSDOF 6
ENDMDL
