MODEL 1
REMARK VINA RESULT:      -6.8      0.000      0.000
REMARK  6 active torsions:
REMARK  status: ('A' for Active; 'I' for Inactive)
REMARK    1  A    between atoms: O_1  and  C_11 
REMARK    2  A    between atoms: O_3  and  C_14 
REMARK    3  A    between atoms: N_5  and  CA_7 
REMARK    4  A    between atoms: C_6  and  CA_7 
REMARK    5  A    between atoms: C_6  and  C_8 
REMARK    6  A    between atoms: CA_7  and  C_12 
ROOT
HETATM    1  O   UNL     1      21.364  -2.005  29.564  1.00  0.00    -0.358 OA
HETATM    2  H   UNL     1      20.533  -1.656  29.309  1.00  0.00     0.217 HD
ENDROOT
BRANCH   1   3
HETATM    3  C   UNL     1      21.495  -2.649  30.757  1.00  0.00     0.099 A 
HETATM    4  C   UNL     1      21.514  -4.044  30.786  1.00  0.00     0.046 A 
HETATM    5  C   UNL     1      21.647  -4.694  32.001  1.00  0.00    -0.053 A 
HETATM    6  C   UNL     1      21.759  -3.991  33.188  1.00  0.00     0.010 A 
HETATM    7  C   UNL     1      21.740  -2.597  33.160  1.00  0.00     0.040 A 
HETATM    8  C   UNL     1      21.607  -1.926  31.944  1.00  0.00     0.098 A 
BRANCH   5   9
HETATM    9  C   UNL     1      21.669  -6.206  32.031  1.00  0.00     0.082 C 
BRANCH   9  10
HETATM   10  CA  UNL     1      22.910  -6.769  32.742  1.00  0.00     0.287 C 
BRANCH  10  11
HETATM   11  N   UNL     1      23.586  -7.727  31.868  1.00  0.00    -0.065 N 
HETATM   12  H   UNL     1      24.329  -8.196  32.387  1.00  0.00     0.275 HD
HETATM   13  H   UNL     1      23.988  -7.234  31.069  1.00  0.00     0.275 HD
HETATM   14  H   UNL     1      22.914  -8.418  31.536  1.00  0.00     0.275 HD
ENDBRANCH  10  11
BRANCH  10  15
HETATM   15  C   UNL     1      22.551  -7.519  34.013  1.00  0.00     0.204 C 
HETATM   16  O   UNL     1      23.576  -7.549  34.902  1.00  0.00    -0.646 OA
HETATM   17  OXT UNL     1      21.476  -8.068  34.221  1.00  0.00    -0.646 OA
ENDBRANCH  10  15
ENDBRANCH   9  10
ENDBRANCH   5   9
BRANCH   8  18
HETATM   18  O   UNL     1      21.587  -0.564  31.930  1.00  0.00    -0.358 OA
HETATM   19  H   UNL     1      22.300  -0.080  32.299  1.00  0.00     0.217 HD
ENDBRANCH   8  18
ENDBRANCH   1   3
TORSDOF 6
ENDMDL
MODEL 2
REMARK VINA RESULT:      -6.6      0.735      1.808
REMARK  6 active torsions:
REMARK  status: ('A' for Active; 'I' for Inactive)
REMARK    1  A    between atoms: O_1  and  C_11 
REMARK    2  A    between atoms: O_3  and  C_14 
REMARK    3  A    between atoms: N_5  and  CA_7 
REMARK    4  A    between atoms: C_6  and  CA_7 
REMARK    5  A    between atoms: C_6  and  C_8 
REMARK    6  A    between atoms: CA_7  and  C_12 
ROOT
HETATM    1  O   UNL     1      22.035  -1.813  34.240  1.00  0.00    -0.358 OA
HETATM    2  H   UNL     1      21.971  -2.229  35.076  1.00  0.00     0.217 HD
ENDROOT
BRANCH   1   3
HETATM    3  C   UNL     1      21.802  -2.528  33.104  1.00  0.00     0.099 A 
HETATM    4  C   UNL     1      21.794  -3.922  33.159  1.00  0.00     0.046 A 
HETATM    5  C   UNL     1      21.557  -4.644  32.002  1.00  0.00    -0.053 A 
HETATM    6  C   UNL     1      21.331  -4.013  30.790  1.00  0.00     0.010 A 
HETATM    7  C   UNL     1      21.339  -2.620  30.734  1.00  0.00     0.040 A 
HETATM    8  C   UNL     1      21.576  -1.877  31.891  1.00  0.00     0.098 A 
BRANCH   5   9
HETATM    9  C   UNL     1      21.546  -6.154  32.062  1.00  0.00     0.082 C 
BRANCH   9  10
HETATM   10  CA  UNL     1      22.819  -6.734  32.700  1.00  0.00     0.287 C 
BRANCH  10  11
HETATM   11  N   UNL     1      23.452  -7.672  31.773  1.00  0.00    -0.065 N 
HETATM   12  H   UNL     1      24.458  -7.691  31.942  1.00  0.00     0.275 HD
HETATM   13  H   UNL     1      23.274  -7.373  30.813  1.00  0.00     0.275 HD
HETATM   14  H   UNL     1      23.065  -8.604  31.916  1.00  0.00     0.275 HD
ENDBRANCH  10  11
BRANCH  10  15
HETATM   15  C   UNL     1      22.519  -7.514  33.969  1.00  0.00     0.204 C 
HETATM   16  O   UNL     1      23.555  -7.489  34.847  1.00  0.00    -0.646 OA
HETATM   17  OXT UNL     1      21.481  -8.127  34.184  1.00  0.00    -0.646 OA
ENDBRANCH  10  15
ENDBRANCH   9  10
ENDBRANCH   5   9
BRANCH   8  18
HETATM   18  O   UNL     1      21.584  -0.516  31.824  1.00  0.00    -0.358 OA
HETATM   19  H   UNL     1      20.916  -0.067  31.344  1.00  0.00     0.217 HD
ENDBRANCH   8  18
ENDBRANCH   1   3
TORSDOF 6
ENDMDL
MODEL 3
REMARK VINA RESULT:      -6.5      3.024      5.268
REMARK  6 active torsions:
REMARK  status: ('A' for Active; 'I' for Inactive)
REMARK    1  A    between atoms: O_1  and  C_11 
REMARK    2  A    between atoms: O_3  and  C_14 
REMARK    3  A    between atoms: N_5  and  CA_7 
REMARK    4  A    between atoms: C_6  and  CA_7 
REMARK    5  A    between atoms: C_6  and  C_8 
REMARK    6  A    between atoms: CA_7  and  C_12 
ROOT
HETATM    1  O   UNL     1      21.679  -0.808  33.047  1.00  0.00    -0.358 OA
HETATM    2  H   UNL     1      21.575  -0.531  33.936  1.00  0.00     0.217 HD
ENDROOT
BRANCH   1   3
HETATM    3  C   UNL     1      21.634  -2.133  32.736  1.00  0.00     0.099 A 
HETATM    4  C   UNL     1      21.160  -2.530  31.486  1.00  0.00     0.046 A 
HETATM    5  C   UNL     1      21.116  -3.878  31.175  1.00  0.00    -0.053 A 
HETATM    6  C   UNL     1      21.530  -4.842  32.078  1.00  0.00     0.010 A 
HETATM    7  C   UNL     1      22.004  -4.446  33.329  1.00  0.00     0.040 A 
HETATM    8  C   UNL     1      22.056  -3.092  33.658  1.00  0.00     0.098 A 
BRANCH   5   9
HETATM    9  C   UNL     1      20.604  -4.308  29.819  1.00  0.00     0.082 C 
BRANCH   9  10
HETATM   10  CA  UNL     1      19.410  -3.466  29.339  1.00  0.00     0.287 C 
BRANCH  10  11
HETATM   11  N   UNL     1      18.286  -4.344  29.018  1.00  0.00    -0.065 N 
HETATM   12  H   UNL     1      18.173  -4.397  28.005  1.00  0.00     0.275 HD
HETATM   13  H   UNL     1      17.433  -3.970  29.436  1.00  0.00     0.275 HD
HETATM   14  H   UNL     1      18.465  -5.276  29.389  1.00  0.00     0.275 HD
ENDBRANCH  10  11
BRANCH  10  15
HETATM   15  C   UNL     1      19.730  -2.690  28.073  1.00  0.00     0.204 C 
HETATM   16  O   UNL     1      18.617  -2.392  27.355  1.00  0.00    -0.646 OA
HETATM   17  OXT UNL     1      20.858  -2.382  27.707  1.00  0.00    -0.646 OA
ENDBRANCH  10  15
ENDBRANCH   9  10
ENDBRANCH   5   9
BRANCH   8  18
HETATM   18  O   UNL     1      22.519  -2.717  34.884  1.00  0.00    -0.358 OA
HETATM   19  H   UNL     1      21.954  -2.266  35.481  1.00  0.00     0.217 HD
ENDBRANCH   8  18
ENDBRANCH   1   3
TORSDOF 6
ENDMDL
MODEL 4
REMARK VINA RESULT:      -6.5      1.356      2.220
REMARK  6 active torsions:
REMARK  status: ('A' for Active; 'I' for Inactive)
REMARK    1  A    between atoms: O_1  and  C_11 
REMARK    2  A    between atoms: O_3  and  C_14 
REMARK    3  A    between atoms: N_5  and  CA_7 
REMARK    4  A    between atoms: C_6  and  CA_7 
REMARK    5  A    between atoms: C_6  and  C_8 
REMARK    6  A    between atoms: CA_7  and  C_12 
ROOT
HETATM    1  O   UNL     1      21.384  -0.779  31.612  1.00  0.00    -0.358 OA
HETATM    2  H   UNL     1      21.968  -0.326  32.187  1.00  0.00     0.217 HD
ENDROOT
BRANCH   1   3
HETATM    3  C   UNL     1      21.514  -2.122  31.427  1.00  0.00     0.099 A 
HETATM    4  C   UNL     1      21.680  -2.955  32.533  1.00  0.00     0.046 A 
HETATM    5  C   UNL     1      21.812  -4.319  32.340  1.00  0.00    -0.053 A 
HETATM    6  C   UNL     1      21.786  -4.875  31.073  1.00  0.00     0.010 A 
HETATM    7  C   UNL     1      21.620  -4.043  29.966  1.00  0.00     0.040 A 
HETATM    8  C   UNL     1      21.485  -2.666  30.143  1.00  0.00     0.098 A 
BRANCH   5   9
HETATM    9  C   UNL     1      21.990  -5.222  33.540  1.00  0.00     0.082 C 
BRANCH   9  10
HETATM   10  CA  UNL     1      21.887  -6.714  33.184  1.00  0.00     0.287 C 
BRANCH  10  11
HETATM   11  N   UNL     1      20.938  -7.370  34.082  1.00  0.00    -0.065 N 
HETATM   12  H   UNL     1      20.500  -8.155  33.599  1.00  0.00     0.275 HD
HETATM   13  H   UNL     1      20.220  -6.702  34.365  1.00  0.00     0.275 HD
HETATM   14  H   UNL     1      21.430  -7.711  34.907  1.00  0.00     0.275 HD
ENDBRANCH  10  11
BRANCH  10  15
HETATM   15  C   UNL     1      23.213  -7.435  33.353  1.00  0.00     0.204 C 
HETATM   16  O   UNL     1      23.603  -7.503  34.651  1.00  0.00    -0.646 OA
HETATM   17  OXT UNL     1      23.886  -7.885  32.434  1.00  0.00    -0.646 OA
ENDBRANCH  10  15
ENDBRANCH   9  10
ENDBRANCH   5   9
BRANCH   8  18
HETATM   18  O   UNL     1      21.326  -1.863  29.054  1.00  0.00    -0.358 OA
HETATM   19  H   UNL     1      21.784  -1.047  29.002  1.00  0.00     0.217 HD
ENDBRANCH   8  18
ENDBRANCH   1   3
TORSDOF 6
ENDMDL
MODEL 5
REMARK VINA RESULT:      -6.5      3.566      4.409
REMARK  6 active torsions:
REMARK  status: ('A' for Active; 'I' for Inactive)
REMARK    1  A    between atoms: O_1  and  C_11 
REMARK    2  A    between atoms: O_3  and  C_14 
REMARK    3  A    between atoms: N_5  and  CA_7 
REMARK    4  A    between atoms: C_6  and  CA_7 
REMARK    5  A    between atoms: C_6  and  C_8 
REMARK    6  A    between atoms: CA_7  and  C_12 
ROOT
HETATM    1  O   UNL     1      19.058  -1.687  29.669  1.00  0.00    -0.358 OA
HETATM    2  H   UNL     1      18.906  -0.882  30.123  1.00  0.00     0.217 HD
ENDROOT
BRANCH   1   3
HETATM    3  C   UNL     1      19.988  -2.567  30.135  1.00  0.00     0.099 A 
HETATM    4  C   UNL     1      20.395  -2.494  31.467  1.00  0.00     0.046 A 
HETATM    5  C   UNL     1      21.341  -3.390  31.936  1.00  0.00    -0.053 A 
HETATM    6  C   UNL     1      21.893  -4.355  31.112  1.00  0.00     0.010 A 
HETATM    7  C   UNL     1      21.486  -4.429  29.780  1.00  0.00     0.040 A 
HETATM    8  C   UNL     1      20.534  -3.534  29.291  1.00  0.00     0.098 A 
BRANCH   5   9
HETATM    9  C   UNL     1      21.781  -3.312  33.381  1.00  0.00     0.082 C 
BRANCH   9  10
HETATM   10  CA  UNL     1      21.728  -1.882  33.943  1.00  0.00     0.287 C 
BRANCH  10  11
HETATM   11  N   UNL     1      22.355  -0.957  33.001  1.00  0.00    -0.065 N 
HETATM   12  H   UNL     1      21.644  -0.571  32.379  1.00  0.00     0.275 HD
HETATM   13  H   UNL     1      23.054  -1.456  32.449  1.00  0.00     0.275 HD
HETATM   14  H   UNL     1      22.805  -0.201  33.515  1.00  0.00     0.275 HD
ENDBRANCH  10  11
BRANCH  10  15
HETATM   15  C   UNL     1      22.490  -1.753  35.251  1.00  0.00     0.204 C 
HETATM   16  O   UNL     1      23.686  -1.131  35.092  1.00  0.00    -0.646 OA
HETATM   17  OXT UNL     1      22.103  -2.181  36.331  1.00  0.00    -0.646 OA
ENDBRANCH  10  15
ENDBRANCH   9  10
ENDBRANCH   5   9
BRANCH   8  18
HETATM   18  O   UNL     1      20.146  -3.614  27.987  1.00  0.00    -0.358 OA
HETATM   19  H   UNL     1      20.317  -2.901  27.403  1.00  0.00     0.217 HD
ENDBRANCH   8  18
ENDBRANCH   1   3
TORSDOF 6
ENDMDL
MODEL 6
REMARK VINA RESULT:      -6.4      2.810      5.566
REMARK  6 active torsions:
REMARK  status: ('A' for Active; 'I' for Inactive)
REMARK    1  A    between atoms: O_1  and  C_11 
REMARK    2  A    between atoms: O_3  and  C_14 
REMARK    3  A    between atoms: N_5  and  CA_7 
REMARK    4  A    between atoms: C_6  and  CA_7 
REMARK    5  A    between atoms: C_6  and  C_8 
REMARK    6  A    between atoms: CA_7  and  C_12 
ROOT
HETATM    1  O   UNL     1      22.470  -5.210  33.835  1.00  0.00    -0.358 OA
HETATM    2  H   UNL     1      23.362  -5.490  33.780  1.00  0.00     0.217 HD
ENDROOT
BRANCH   1   3
HETATM    3  C   UNL     1      22.050  -4.129  33.120  1.00  0.00     0.099 A 
HETATM    4  C   UNL     1      21.753  -4.275  31.765  1.00  0.00     0.046 A 
HETATM    5  C   UNL     1      21.327  -3.173  31.043  1.00  0.00    -0.053 A 
HETATM    6  C   UNL     1      21.191  -1.930  31.635  1.00  0.00     0.010 A 
HETATM    7  C   UNL     1      21.488  -1.783  32.989  1.00  0.00     0.040 A 
HETATM    8  C   UNL     1      21.918  -2.883  33.732  1.00  0.00     0.098 A 
BRANCH   5   9
HETATM    9  C   UNL     1      21.004  -3.333  29.574  1.00  0.00     0.082 C 
BRANCH   9  10
HETATM   10  CA  UNL     1      19.592  -2.842  29.218  1.00  0.00     0.287 C 
BRANCH  10  11
HETATM   11  N   UNL     1      18.650  -3.958  29.286  1.00  0.00    -0.065 N 
HETATM   12  H   UNL     1      17.800  -3.657  29.764  1.00  0.00     0.275 HD
HETATM   13  H   UNL     1      19.074  -4.730  29.801  1.00  0.00     0.275 HD
HETATM   14  H   UNL     1      18.418  -4.266  28.342  1.00  0.00     0.275 HD
ENDBRANCH  10  11
BRANCH  10  15
HETATM   15  C   UNL     1      19.516  -2.296  27.802  1.00  0.00     0.204 C 
HETATM   16  O   UNL     1      20.710  -1.816  27.369  1.00  0.00    -0.646 OA
HETATM   17  OXT UNL     1      18.498  -2.255  27.122  1.00  0.00    -0.646 OA
ENDBRANCH  10  15
ENDBRANCH   9  10
ENDBRANCH   5   9
BRANCH   8  18
HETATM   18  O   UNL     1      22.207  -2.727  35.055  1.00  0.00    -0.358 OA
HETATM   19  H   UNL     1      23.070  -2.476  35.319  1.00  0.00     0.217 HD
ENDBRANCH   8  18
ENDBRANCH   1   3
TORSDOF 6
ENDMDL
MODEL 7
REMARK VINA RESULT:      -6.4      3.277      5.765
REMARK  6 active torsions:
REMARK  status: ('A' for Active; 'I' for Inactive)
REMARK    1  A    between atoms: O_1  and  C_11 
REMARK    2  A    between atoms: O_3  and  C_14 
REMARK    3  A    between atoms: N_5  and  CA_7 
REMARK    4  A    between atoms: C_6  and  CA_7 
REMARK    5  A    between atoms: C_6  and  C_8 
REMARK    6  A    between atoms: CA_7  and  C_12 
ROOT
HETATM    1  O   UNL     1      21.509  -1.246  33.847  1.00  0.00    -0.358 OA
HETATM    2  H   UNL     1      21.025  -1.245  34.649  1.00  0.00     0.217 HD
ENDROOT
BRANCH   1   3
HETATM    3  C   UNL     1      21.275  -2.209  32.913  1.00  0.00     0.099 A 
HETATM    4  C   UNL     1      20.528  -1.898  31.777  1.00  0.00     0.046 A 
HETATM    5  C   UNL     1      20.293  -2.880  30.830  1.00  0.00    -0.053 A 
HETATM    6  C   UNL     1      20.781  -4.166  30.986  1.00  0.00     0.010 A 
HETATM    7  C   UNL     1      21.529  -4.478  32.121  1.00  0.00     0.040 A 
HETATM    8  C   UNL     1      21.776  -3.500  33.085  1.00  0.00     0.098 A 
BRANCH   5   9
HETATM    9  C   UNL     1      19.483  -2.542  29.599  1.00  0.00     0.082 C 
BRANCH   9  10
HETATM   10  CA  UNL     1      20.238  -2.832  28.291  1.00  0.00     0.287 C 
BRANCH  10  11
HETATM   11  N   UNL     1      20.901  -1.616  27.824  1.00  0.00    -0.065 N 
HETATM   12  H   UNL     1      20.927  -0.930  28.579  1.00  0.00     0.275 HD
HETATM   13  H   UNL     1      20.385  -1.230  27.032  1.00  0.00     0.275 HD
HETATM   14  H   UNL     1      21.852  -1.838  27.533  1.00  0.00     0.275 HD
ENDBRANCH  10  11
BRANCH  10  15
HETATM   15  C   UNL     1      19.303  -3.273  27.178  1.00  0.00     0.204 C 
HETATM   16  O   UNL     1      18.453  -2.286  26.796  1.00  0.00    -0.646 OA
HETATM   17  OXT UNL     1      19.282  -4.395  26.686  1.00  0.00    -0.646 OA
ENDBRANCH  10  15
ENDBRANCH   9  10
ENDBRANCH   5   9
BRANCH   8  18
HETATM   18  O   UNL     1      22.505  -3.817  34.191  1.00  0.00    -0.358 OA
HETATM   19  H   UNL     1      22.865  -3.137  34.726  1.00  0.00     0.217 HD
ENDBRANCH   8  18
ENDBRANCH   1   3
TORSDOF 6
ENDMDL
MODEL 8
REMARK VINA RESULT:      -6.3      3.071      4.945
REMARK  6 active torsions:
REMARK  status: ('A' for Active; 'I' for Inactive)
REMARK    1  A    between atoms: O_1  and  C_11 
REMARK    2  A    between atoms: O_3  and  C_14 
REMARK    3  A    between atoms: N_5  and  CA_7 
REMARK    4  A    between atoms: C_6  and  CA_7 
REMARK    5  A    between atoms: C_6  and  C_8 
REMARK    6  A    between atoms: CA_7  and  C_12 
ROOT
HETATM    1  O   UNL     1      22.620  -5.178  33.841  1.00  0.00    -0.358 OA
HETATM    2  H   UNL     1      22.094  -5.734  34.381  1.00  0.00     0.217 HD
ENDROOT
BRANCH   1   3
HETATM    3  C   UNL     1      22.083  -4.049  33.300  1.00  0.00     0.099 A 
HETATM    4  C   UNL     1      21.535  -4.094  32.019  1.00  0.00     0.046 A 
HETATM    5  C   UNL     1      20.991  -2.943  31.474  1.00  0.00    -0.053 A 
HETATM    6  C   UNL     1      20.981  -1.748  32.172  1.00  0.00     0.010 A 
HETATM    7  C   UNL     1      21.529  -1.702  33.454  1.00  0.00     0.040 A 
HETATM    8  C   UNL     1      22.080  -2.853  34.018  1.00  0.00     0.098 A 
BRANCH   5   9
HETATM    9  C   UNL     1      20.396  -2.993  30.085  1.00  0.00     0.082 C 
BRANCH   9  10
HETATM   10  CA  UNL     1      21.447  -2.810  28.979  1.00  0.00     0.287 C 
BRANCH  10  11
HETATM   11  N   UNL     1      20.946  -1.876  27.972  1.00  0.00    -0.065 N 
HETATM   12  H   UNL     1      21.304  -0.940  28.167  1.00  0.00     0.275 HD
HETATM   13  H   UNL     1      19.926  -1.861  27.999  1.00  0.00     0.275 HD
HETATM   14  H   UNL     1      21.257  -2.173  27.047  1.00  0.00     0.275 HD
ENDBRANCH  10  11
BRANCH  10  15
HETATM   15  C   UNL     1      21.748  -4.110  28.253  1.00  0.00     0.204 C 
HETATM   16  O   UNL     1      20.625  -4.708  27.778  1.00  0.00    -0.646 OA
HETATM   17  OXT UNL     1      22.864  -4.598  28.125  1.00  0.00    -0.646 OA
ENDBRANCH  10  15
ENDBRANCH   9  10
ENDBRANCH   5   9
BRANCH   8  18
HETATM   18  O   UNL     1      22.615  -2.795  35.270  1.00  0.00    -0.358 OA
HETATM   19  H   UNL     1      23.535  -2.920  35.393  1.00  0.00     0.217 HD
ENDBRANCH   8  18
ENDBRANCH   1   3
TORSDOF 6
ENDMDL
MODEL 9
REMARK VINA RESULT:      -6.3      1.396      1.574
REMARK  6 active torsions:
REMARK  status: ('A' for Active; 'I' for Inactive)
REMARK    1  A    between atoms: O_1  and  C_11 
REMARK    2  A    between atoms: O_3  and  C_14 
REMARK    3  A    between atoms: N_5  and  CA_7 
REMARK    4  A    between atoms: C_6  and  CA_7 
REMARK    5  A    between atoms: C_6  and  C_8 
REMARK    6  A    between atoms: CA_7  and  C_12 
ROOT
HETATM    1  O   UNL     1      21.306  -2.000  29.634  1.00  0.00    -0.358 OA
HETATM    2  H   UNL     1      21.537  -2.442  28.841  1.00  0.00     0.217 HD
ENDROOT
BRANCH   1   3
HETATM    3  C   UNL     1      21.470  -2.624  30.834  1.00  0.00     0.099 A 
HETATM    4  C   UNL     1      21.490  -4.017  30.886  1.00  0.00     0.046 A 
HETATM    5  C   UNL     1      21.657  -4.647  32.108  1.00  0.00    -0.053 A 
HETATM    6  C   UNL     1      21.801  -3.924  33.280  1.00  0.00     0.010 A 
HETATM    7  C   UNL     1      21.781  -2.530  33.228  1.00  0.00     0.040 A 
HETATM    8  C   UNL     1      21.614  -1.880  32.005  1.00  0.00     0.098 A 
BRANCH   5   9
HETATM    9  C   UNL     1      21.680  -6.157  32.164  1.00  0.00     0.082 C 
BRANCH   9  10
HETATM   10  CA  UNL     1      22.685  -6.775  31.178  1.00  0.00     0.287 C 
BRANCH  10  11
HETATM   11  N   UNL     1      21.972  -7.579  30.187  1.00  0.00    -0.065 N 
HETATM   12  H   UNL     1      20.966  -7.495  30.340  1.00  0.00     0.275 HD
HETATM   13  H   UNL     1      22.249  -8.557  30.279  1.00  0.00     0.275 HD
HETATM   14  H   UNL     1      22.202  -7.248  29.250  1.00  0.00     0.275 HD
ENDBRANCH  10  11
BRANCH  10  15
HETATM   15  C   UNL     1      23.666  -7.706  31.868  1.00  0.00     0.204 C 
HETATM   16  O   UNL     1      23.524  -7.697  33.218  1.00  0.00    -0.646 OA
HETATM   17  OXT UNL     1      24.517  -8.375  31.295  1.00  0.00    -0.646 OA
ENDBRANCH  10  15
ENDBRANCH   9  10
ENDBRANCH   5   9
BRANCH   8  18
HETATM   18  O   UNL     1      21.594  -0.518  31.968  1.00  0.00    -0.358 OA
HETATM   19  H   UNL     1      21.047  -0.041  32.561  1.00  0.00     0.217 HD
ENDBRANCH   8  18
ENDBRANCH   1   3
TORSDOF 6
ENDMDL
