MODEL 1
REMARK VINA RESULT:      -4.0      0.000      0.000
REMARK  2 active torsions:
REMARK  status: ('A' for Active; 'I' for Inactive)
REMARK    1  A    between atoms: C_3  and  C_4 
REMARK    2  A    between atoms: C_4  and  C_6 
ROOT
ATOM      1  O   UNL A   1      31.865  81.326  22.555  1.00  0.00    -0.648 OA
ATOM      2  O   UNL A   1      32.942  79.391  23.117  1.00  0.00    -0.648 OA
ATOM      3  C   UNL A   1      31.980  80.073  22.657  1.00  0.00     0.172 C 
ENDROOT
BRANCH   3   4
ATOM      4  C   UNL A   1      30.788  79.237  22.179  1.00  0.00     0.113 C 
BRANCH   4   5
ATOM      5  C   UNL A   1      31.111  77.879  21.566  1.00  0.00     0.006 C 
ATOM      6  C   UNL A   1      31.061  77.900  20.045  1.00  0.00     0.005 C 
ENDBRANCH   4   5
ENDBRANCH   3   4
TORSDOF 2
ENDMDL
MODEL 2
REMARK VINA RESULT:      -3.9      1.057      1.558
REMARK  2 active torsions:
REMARK  status: ('A' for Active; 'I' for Inactive)
REMARK    1  A    between atoms: C_3  and  C_4 
REMARK    2  A    between atoms: C_4  and  C_6 
ROOT
ATOM      1  O   UNL A   1      31.898  81.368  22.567  1.00  0.00    -0.648 OA
ATOM      2  O   UNL A   1      33.052  79.562  23.357  1.00  0.00    -0.648 OA
ATOM      3  C   UNL A   1      32.222  80.149  22.603  1.00  0.00     0.172 C 
ENDROOT
BRANCH   3   4
ATOM      4  C   UNL A   1      31.507  79.224  21.613  1.00  0.00     0.113 C 
BRANCH   4   5
ATOM      5  C   UNL A   1      30.317  78.439  22.152  1.00  0.00     0.006 C 
ATOM      6  C   UNL A   1      29.190  79.344  22.630  1.00  0.00     0.005 C 
ENDBRANCH   4   5
ENDBRANCH   3   4
TORSDOF 2
ENDMDL
MODEL 3
REMARK VINA RESULT:      -3.8      2.089      2.806
REMARK  2 active torsions:
REMARK  status: ('A' for Active; 'I' for Inactive)
REMARK    1  A    between atoms: C_3  and  C_4 
REMARK    2  A    between atoms: C_4  and  C_6 
ROOT
ATOM      1  O   UNL A   1      32.240  76.281  23.306  1.00  0.00    -0.648 OA
ATOM      2  O   UNL A   1      32.612  78.392  22.514  1.00  0.00    -0.648 OA
ATOM      3  C   UNL A   1      32.196  77.199  22.440  1.00  0.00     0.172 C 
ENDROOT
BRANCH   3   4
ATOM      4  C   UNL A   1      31.567  76.834  21.091  1.00  0.00     0.113 C 
BRANCH   4   5
ATOM      5  C   UNL A   1      31.166  77.996  20.190  1.00  0.00     0.006 C 
ATOM      6  C   UNL A   1      30.829  77.548  18.776  1.00  0.00     0.005 C 
ENDBRANCH   4   5
ENDBRANCH   3   4
TORSDOF 2
ENDMDL
MODEL 4
REMARK VINA RESULT:      -3.8      2.610      2.773
REMARK  2 active torsions:
REMARK  status: ('A' for Active; 'I' for Inactive)
REMARK    1  A    between atoms: C_3  and  C_4 
REMARK    2  A    between atoms: C_4  and  C_6 
ROOT
ATOM      1  O   UNL A   1      30.389  77.745  22.905  1.00  0.00    -0.648 OA
ATOM      2  O   UNL A   1      32.260  76.468  23.201  1.00  0.00    -0.648 OA
ATOM      3  C   UNL A   1      31.350  77.024  22.520  1.00  0.00     0.172 C 
ENDROOT
BRANCH   3   4
ATOM      4  C   UNL A   1      31.438  76.753  21.014  1.00  0.00     0.113 C 
BRANCH   4   5
ATOM      5  C   UNL A   1      31.060  77.907  20.092  1.00  0.00     0.006 C 
ATOM      6  C   UNL A   1      30.861  77.459  18.651  1.00  0.00     0.005 C 
ENDBRANCH   4   5
ENDBRANCH   3   4
TORSDOF 2
ENDMDL
MODEL 5
REMARK VINA RESULT:      -3.7      1.228      1.963
REMARK  2 active torsions:
REMARK  status: ('A' for Active; 'I' for Inactive)
REMARK    1  A    between atoms: C_3  and  C_4 
REMARK    2  A    between atoms: C_4  and  C_6 
ROOT
ATOM      1  O   UNL A   1      32.827  77.470  22.837  1.00  0.00    -0.648 OA
ATOM      2  O   UNL A   1      32.586  79.739  22.951  1.00  0.00    -0.648 OA
ATOM      3  C   UNL A   1      32.375  78.590  22.467  1.00  0.00     0.172 C 
ENDROOT
BRANCH   3   4
ATOM      4  C   UNL A   1      31.450  78.581  21.246  1.00  0.00     0.113 C 
BRANCH   4   5
ATOM      5  C   UNL A   1      31.351  77.269  20.475  1.00  0.00     0.006 C 
ATOM      6  C   UNL A   1      30.898  77.471  19.037  1.00  0.00     0.005 C 
ENDBRANCH   4   5
ENDBRANCH   3   4
TORSDOF 2
ENDMDL
MODEL 6
REMARK VINA RESULT:      -3.6      1.636      2.058
REMARK  2 active torsions:
REMARK  status: ('A' for Active; 'I' for Inactive)
REMARK    1  A    between atoms: C_3  and  C_4 
REMARK    2  A    between atoms: C_4  and  C_6 
ROOT
ATOM      1  O   UNL A   1      31.720  80.174  22.974  1.00  0.00    -0.648 OA
ATOM      2  O   UNL A   1      29.636  79.302  22.635  1.00  0.00    -0.648 OA
ATOM      3  C   UNL A   1      30.863  79.466  22.375  1.00  0.00     0.172 C 
ENDROOT
BRANCH   3   4
ATOM      4  C   UNL A   1      31.354  78.700  21.142  1.00  0.00     0.113 C 
BRANCH   4   5
ATOM      5  C   UNL A   1      31.497  77.190  21.291  1.00  0.00     0.006 C 
ATOM      6  C   UNL A   1      32.520  76.804  22.350  1.00  0.00     0.005 C 
ENDBRANCH   4   5
ENDBRANCH   3   4
TORSDOF 2
ENDMDL
MODEL 7
REMARK VINA RESULT:      -3.6      2.168      3.242
REMARK  2 active torsions:
REMARK  status: ('A' for Active; 'I' for Inactive)
REMARK    1  A    between atoms: C_3  and  C_4 
REMARK    2  A    between atoms: C_4  and  C_6 
ROOT
ATOM      1  O   UNL A   1      32.859  77.004  22.920  1.00  0.00    -0.648 OA
ATOM      2  O   UNL A   1      30.792  76.074  22.640  1.00  0.00    -0.648 OA
ATOM      3  C   UNL A   1      31.685  76.952  22.460  1.00  0.00     0.172 C 
ENDROOT
BRANCH   3   4
ATOM      4  C   UNL A   1      31.250  78.120  21.569  1.00  0.00     0.113 C 
BRANCH   4   5
ATOM      5  C   UNL A   1      30.774  79.380  22.282  1.00  0.00     0.006 C 
ATOM      6  C   UNL A   1      31.892  80.392  22.485  1.00  0.00     0.005 C 
ENDBRANCH   4   5
ENDBRANCH   3   4
TORSDOF 2
ENDMDL
MODEL 8
REMARK VINA RESULT:      -3.6      2.364      3.275
REMARK  2 active torsions:
REMARK  status: ('A' for Active; 'I' for Inactive)
REMARK    1  A    between atoms: C_3  and  C_4 
REMARK    2  A    between atoms: C_4  and  C_6 
ROOT
ATOM      1  O   UNL A   1      30.849  75.759  22.986  1.00  0.00    -0.648 OA
ATOM      2  O   UNL A   1      32.787  76.968  22.987  1.00  0.00    -0.648 OA
ATOM      3  C   UNL A   1      31.667  76.603  22.526  1.00  0.00     0.172 C 
ENDROOT
BRANCH   3   4
ATOM      4  C   UNL A   1      31.276  77.283  21.210  1.00  0.00     0.113 C 
BRANCH   4   5
ATOM      5  C   UNL A   1      30.968  78.774  21.280  1.00  0.00     0.006 C 
ATOM      6  C   UNL A   1      30.002  79.117  22.405  1.00  0.00     0.005 C 
ENDBRANCH   4   5
ENDBRANCH   3   4
TORSDOF 2
ENDMDL
MODEL 9
REMARK VINA RESULT:      -3.5      2.607      3.676
REMARK  2 active torsions:
REMARK  status: ('A' for Active; 'I' for Inactive)
REMARK    1  A    between atoms: C_3  and  C_4 
REMARK    2  A    between atoms: C_4  and  C_6 
ROOT
ATOM      1  O   UNL A   1      31.316  76.384  19.968  1.00  0.00    -0.648 OA
ATOM      2  O   UNL A   1      30.569  78.506  19.570  1.00  0.00    -0.648 OA
ATOM      3  C   UNL A   1      31.137  77.602  20.249  1.00  0.00     0.172 C 
ENDROOT
BRANCH   3   4
ATOM      4  C   UNL A   1      31.657  78.071  21.612  1.00  0.00     0.113 C 
BRANCH   4   5
ATOM      5  C   UNL A   1      30.965  79.283  22.224  1.00  0.00     0.006 C 
ATOM      6  C   UNL A   1      31.932  80.423  22.510  1.00  0.00     0.005 C 
ENDBRANCH   4   5
ENDBRANCH   3   4
TORSDOF 2
ENDMDL
