MODEL 1
REMARK VINA RESULT:      -4.0      0.000      0.000
REMARK  2 active torsions:
REMARK  status: ('A' for Active; 'I' for Inactive)
REMARK    1  A    between atoms: C_3  and  C_4 
REMARK    2  A    between atoms: C_4  and  C_6 
ROOT
ATOM      1  O   UNL A   1      31.874  81.315  22.506  1.00  0.00    -0.648 OA
ATOM      2  O   UNL A   1      32.945  79.390  23.112  1.00  0.00    -0.648 OA
ATOM      3  C   UNL A   1      31.986  80.064  22.635  1.00  0.00     0.172 C 
ENDROOT
BRANCH   3   4
ATOM      4  C   UNL A   1      30.794  79.222  22.169  1.00  0.00     0.113 C 
BRANCH   4   5
ATOM      5  C   UNL A   1      31.120  77.873  21.536  1.00  0.00     0.006 C 
ATOM      6  C   UNL A   1      31.053  77.912  20.016  1.00  0.00     0.005 C 
ENDBRANCH   4   5
ENDBRANCH   3   4
TORSDOF 2
ENDMDL
MODEL 2
REMARK VINA RESULT:      -4.0      0.321      1.356
REMARK  2 active torsions:
REMARK  status: ('A' for Active; 'I' for Inactive)
REMARK    1  A    between atoms: C_3  and  C_4 
REMARK    2  A    between atoms: C_4  and  C_6 
ROOT
ATOM      1  O   UNL A   1      33.002  79.427  23.207  1.00  0.00    -0.648 OA
ATOM      2  O   UNL A   1      31.870  81.273  22.481  1.00  0.00    -0.648 OA
ATOM      3  C   UNL A   1      32.074  80.031  22.600  1.00  0.00     0.172 C 
ENDROOT
BRANCH   3   4
ATOM      4  C   UNL A   1      31.046  79.151  21.881  1.00  0.00     0.113 C 
BRANCH   4   5
ATOM      5  C   UNL A   1      31.586  77.916  21.169  1.00  0.00     0.006 C 
ATOM      6  C   UNL A   1      31.027  77.764  19.762  1.00  0.00     0.005 C 
ENDBRANCH   4   5
ENDBRANCH   3   4
TORSDOF 2
ENDMDL
MODEL 3
REMARK VINA RESULT:      -3.8      2.053      2.516
REMARK  2 active torsions:
REMARK  status: ('A' for Active; 'I' for Inactive)
REMARK    1  A    between atoms: C_3  and  C_4 
REMARK    2  A    between atoms: C_4  and  C_6 
ROOT
ATOM      1  O   UNL A   1      32.572  78.477  22.522  1.00  0.00    -0.648 OA
ATOM      2  O   UNL A   1      32.349  76.311  23.209  1.00  0.00    -0.648 OA
ATOM      3  C   UNL A   1      32.280  77.259  22.374  1.00  0.00     0.172 C 
ENDROOT
BRANCH   3   4
ATOM      4  C   UNL A   1      31.744  76.848  20.999  1.00  0.00     0.113 C 
BRANCH   4   5
ATOM      5  C   UNL A   1      31.047  77.934  20.188  1.00  0.00     0.006 C 
ATOM      6  C   UNL A   1      30.852  77.539  18.731  1.00  0.00     0.005 C 
ENDBRANCH   4   5
ENDBRANCH   3   4
TORSDOF 2
ENDMDL
MODEL 4
REMARK VINA RESULT:      -3.8      2.564      2.989
REMARK  2 active torsions:
REMARK  status: ('A' for Active; 'I' for Inactive)
REMARK    1  A    between atoms: C_3  and  C_4 
REMARK    2  A    between atoms: C_4  and  C_6 
ROOT
ATOM      1  O   UNL A   1      32.217  76.526  23.302  1.00  0.00    -0.648 OA
ATOM      2  O   UNL A   1      30.377  77.809  22.871  1.00  0.00    -0.648 OA
ATOM      3  C   UNL A   1      31.352  77.066  22.559  1.00  0.00     0.172 C 
ENDROOT
BRANCH   3   4
ATOM      4  C   UNL A   1      31.495  76.815  21.054  1.00  0.00     0.113 C 
BRANCH   4   5
ATOM      5  C   UNL A   1      31.152  77.981  20.133  1.00  0.00     0.006 C 
ATOM      6  C   UNL A   1      30.812  77.527  18.721  1.00  0.00     0.005 C 
ENDBRANCH   4   5
ENDBRANCH   3   4
TORSDOF 2
ENDMDL
MODEL 5
REMARK VINA RESULT:      -3.8      2.076      2.795
REMARK  2 active torsions:
REMARK  status: ('A' for Active; 'I' for Inactive)
REMARK    1  A    between atoms: C_3  and  C_4 
REMARK    2  A    between atoms: C_4  and  C_6 
ROOT
ATOM      1  O   UNL A   1      32.247  76.305  23.287  1.00  0.00    -0.648 OA
ATOM      2  O   UNL A   1      32.557  78.417  22.474  1.00  0.00    -0.648 OA
ATOM      3  C   UNL A   1      32.174  77.213  22.413  1.00  0.00     0.172 C 
ENDROOT
BRANCH   3   4
ATOM      4  C   UNL A   1      31.550  76.818  21.070  1.00  0.00     0.113 C 
BRANCH   4   5
ATOM      5  C   UNL A   1      31.118  77.961  20.159  1.00  0.00     0.006 C 
ATOM      6  C   UNL A   1      30.852  77.500  18.733  1.00  0.00     0.005 C 
ENDBRANCH   4   5
ENDBRANCH   3   4
TORSDOF 2
ENDMDL
MODEL 6
REMARK VINA RESULT:      -3.6      2.169      3.241
REMARK  2 active torsions:
REMARK  status: ('A' for Active; 'I' for Inactive)
REMARK    1  A    between atoms: C_3  and  C_4 
REMARK    2  A    between atoms: C_4  and  C_6 
ROOT
ATOM      1  O   UNL A   1      32.857  77.003  22.919  1.00  0.00    -0.648 OA
ATOM      2  O   UNL A   1      30.783  76.082  22.656  1.00  0.00    -0.648 OA
ATOM      3  C   UNL A   1      31.680  76.954  22.467  1.00  0.00     0.172 C 
ENDROOT
BRANCH   3   4
ATOM      4  C   UNL A   1      31.245  78.119  21.571  1.00  0.00     0.113 C 
BRANCH   4   5
ATOM      5  C   UNL A   1      30.773  79.383  22.280  1.00  0.00     0.006 C 
ATOM      6  C   UNL A   1      31.895  80.391  22.484  1.00  0.00     0.005 C 
ENDBRANCH   4   5
ENDBRANCH   3   4
TORSDOF 2
ENDMDL
MODEL 7
REMARK VINA RESULT:      -3.5      2.709      3.459
REMARK  2 active torsions:
REMARK  status: ('A' for Active; 'I' for Inactive)
REMARK    1  A    between atoms: C_3  and  C_4 
REMARK    2  A    between atoms: C_4  and  C_6 
ROOT
ATOM      1  O   UNL A   1      30.515  78.301  18.849  1.00  0.00    -0.648 OA
ATOM      2  O   UNL A   1      31.630  76.788  20.147  1.00  0.00    -0.648 OA
ATOM      3  C   UNL A   1      30.968  77.845  19.935  1.00  0.00     0.172 C 
ENDROOT
BRANCH   3   4
ATOM      4  C   UNL A   1      30.706  78.686  21.189  1.00  0.00     0.113 C 
BRANCH   4   5
ATOM      5  C   UNL A   1      31.914  78.995  22.066  1.00  0.00     0.006 C 
ATOM      6  C   UNL A   1      31.946  80.446  22.523  1.00  0.00     0.005 C 
ENDBRANCH   4   5
ENDBRANCH   3   4
TORSDOF 2
ENDMDL
MODEL 8
REMARK VINA RESULT:      -3.5      2.354      2.816
REMARK  2 active torsions:
REMARK  status: ('A' for Active; 'I' for Inactive)
REMARK    1  A    between atoms: C_3  and  C_4 
REMARK    2  A    between atoms: C_4  and  C_6 
ROOT
ATOM      1  O   UNL A   1      31.587  79.123  20.660  1.00  0.00    -0.648 OA
ATOM      2  O   UNL A   1      30.618  78.809  22.705  1.00  0.00    -0.648 OA
ATOM      3  C   UNL A   1      31.234  78.442  21.662  1.00  0.00     0.172 C 
ENDROOT
BRANCH   3   4
ATOM      4  C   UNL A   1      31.575  76.948  21.625  1.00  0.00     0.113 C 
BRANCH   4   5
ATOM      5  C   UNL A   1      32.718  76.489  22.523  1.00  0.00     0.006 C 
ATOM      6  C   UNL A   1      33.061  75.019  22.323  1.00  0.00     0.005 C 
ENDBRANCH   4   5
ENDBRANCH   3   4
TORSDOF 2
ENDMDL
MODEL 9
REMARK VINA RESULT:      -3.4      1.444      2.464
REMARK  2 active torsions:
REMARK  status: ('A' for Active; 'I' for Inactive)
REMARK    1  A    between atoms: C_3  and  C_4 
REMARK    2  A    between atoms: C_4  and  C_6 
ROOT
ATOM      1  O   UNL A   1      33.088  77.375  22.814  1.00  0.00    -0.648 OA
ATOM      2  O   UNL A   1      32.930  79.628  23.154  1.00  0.00    -0.648 OA
ATOM      3  C   UNL A   1      32.556  78.512  22.689  1.00  0.00     0.172 C 
ENDROOT
BRANCH   3   4
ATOM      4  C   UNL A   1      31.281  78.579  21.841  1.00  0.00     0.113 C 
BRANCH   4   5
ATOM      5  C   UNL A   1      29.966  78.325  22.568  1.00  0.00     0.006 C 
ATOM      6  C   UNL A   1      29.057  79.546  22.571  1.00  0.00     0.005 C 
ENDBRANCH   4   5
ENDBRANCH   3   4
TORSDOF 2
ENDMDL
