MODEL 1
REMARK VINA RESULT:      -7.7      0.000      0.000
REMARK  4 active torsions:
REMARK  status: ('A' for Active; 'I' for Inactive)
REMARK    1  A    between atoms: O_1  and  C_9 
REMARK    2  A    between atoms: O_2  and  C_10 
REMARK    3  A    between atoms: C_3  and  C_5 
REMARK    4  A    between atoms: C_4  and  C_8 
ROOT
HETATM    1  O   UNL     1     -51.138  45.842   3.184  1.00  0.00    -0.358 OA
HETATM    2  H   UNL     1     -51.738  46.397   2.725  1.00  0.00     0.217 HD
ENDROOT
BRANCH   1   3
HETATM    3  C   UNL     1     -51.368  45.521   4.488  1.00  0.00     0.099 A 
HETATM    4  C   UNL     1     -51.555  46.541   5.421  1.00  0.00     0.050 A 
HETATM    5  C   UNL     1     -51.787  46.211   6.747  1.00  0.00    -0.033 A 
HETATM    6  C   UNL     1     -51.838  44.891   7.164  1.00  0.00     0.014 A 
HETATM    7  C   UNL     1     -51.650  43.872   6.230  1.00  0.00     0.040 A 
HETATM    8  C   UNL     1     -51.415  44.188   4.892  1.00  0.00     0.098 A 
BRANCH   5   9
HETATM    9  C   UNL     1     -51.986  47.288   7.734  1.00  0.00     0.012 C 
HETATM   10  C   UNL     1     -53.001  47.348   8.629  1.00  0.00     0.012 C 
BRANCH  10  11
HETATM   11  C   UNL     1     -53.186  48.400   9.616  1.00  0.00    -0.036 A 
HETATM   12  C   UNL     1     -53.028  48.120  10.972  1.00  0.00     0.011 A 
HETATM   13  C   UNL     1     -53.205  49.129  11.919  1.00  0.00     0.001 A 
HETATM   14  C   UNL     1     -53.541  50.419  11.508  1.00  0.00     0.000 A 
HETATM   15  C   UNL     1     -53.699  50.700  10.151  1.00  0.00     0.001 A 
HETATM   16  C   UNL     1     -53.521  49.690   9.204  1.00  0.00     0.011 A 
ENDBRANCH  10  11
ENDBRANCH   5   9
BRANCH   8  17
HETATM   17  O   UNL     1     -51.232  43.183   3.990  1.00  0.00    -0.358 OA
HETATM   18  H   UNL     1     -50.823  42.383   4.256  1.00  0.00     0.217 HD
ENDBRANCH   8  17
ENDBRANCH   1   3
TORSDOF 4
ENDMDL
MODEL 2
REMARK VINA RESULT:      -7.7      0.026      1.208
REMARK  4 active torsions:
REMARK  status: ('A' for Active; 'I' for Inactive)
REMARK    1  A    between atoms: O_1  and  C_9 
REMARK    2  A    between atoms: O_2  and  C_10 
REMARK    3  A    between atoms: C_3  and  C_5 
REMARK    4  A    between atoms: C_4  and  C_8 
ROOT
HETATM    1  O   UNL     1     -51.172  45.853   3.198  1.00  0.00    -0.358 OA
HETATM    2  H   UNL     1     -50.940  46.731   2.967  1.00  0.00     0.217 HD
ENDROOT
BRANCH   1   3
HETATM    3  C   UNL     1     -51.383  45.526   4.504  1.00  0.00     0.099 A 
HETATM    4  C   UNL     1     -51.565  46.540   5.444  1.00  0.00     0.050 A 
HETATM    5  C   UNL     1     -51.779  46.203   6.771  1.00  0.00    -0.033 A 
HETATM    6  C   UNL     1     -51.816  44.881   7.183  1.00  0.00     0.014 A 
HETATM    7  C   UNL     1     -51.634  43.867   6.243  1.00  0.00     0.040 A 
HETATM    8  C   UNL     1     -51.418  44.190   4.903  1.00  0.00     0.098 A 
BRANCH   5   9
HETATM    9  C   UNL     1     -51.972  47.274   7.765  1.00  0.00     0.012 C 
HETATM   10  C   UNL     1     -53.012  47.359   8.628  1.00  0.00     0.012 C 
BRANCH  10  11
HETATM   11  C   UNL     1     -53.192  48.405   9.623  1.00  0.00    -0.036 A 
HETATM   12  C   UNL     1     -53.508  49.702   9.222  1.00  0.00     0.011 A 
HETATM   13  C   UNL     1     -53.681  50.706  10.176  1.00  0.00     0.001 A 
HETATM   14  C   UNL     1     -53.538  50.410  11.531  1.00  0.00     0.000 A 
HETATM   15  C   UNL     1     -53.223  49.112  11.933  1.00  0.00     0.001 A 
HETATM   16  C   UNL     1     -53.050  48.109  10.979  1.00  0.00     0.011 A 
ENDBRANCH  10  11
ENDBRANCH   5   9
BRANCH   8  17
HETATM   17  O   UNL     1     -51.240  43.191   3.995  1.00  0.00    -0.358 OA
HETATM   18  H   UNL     1     -51.623  43.259   3.142  1.00  0.00     0.217 HD
ENDBRANCH   8  17
ENDBRANCH   1   3
TORSDOF 4
ENDMDL
MODEL 3
REMARK VINA RESULT:      -7.5      1.112      1.930
REMARK  4 active torsions:
REMARK  status: ('A' for Active; 'I' for Inactive)
REMARK    1  A    between atoms: O_1  and  C_9 
REMARK    2  A    between atoms: O_2  and  C_10 
REMARK    3  A    between atoms: C_3  and  C_5 
REMARK    4  A    between atoms: C_4  and  C_8 
ROOT
HETATM    1  O   UNL     1     -51.558  47.729   4.087  1.00  0.00    -0.358 OA
HETATM    2  H   UNL     1     -51.863  47.519   3.226  1.00  0.00     0.217 HD
ENDROOT
BRANCH   1   3
HETATM    3  C   UNL     1     -51.620  46.797   5.078  1.00  0.00     0.099 A 
HETATM    4  C   UNL     1     -51.706  47.213   6.407  1.00  0.00     0.050 A 
HETATM    5  C   UNL     1     -51.768  46.262   7.412  1.00  0.00    -0.033 A 
HETATM    6  C   UNL     1     -51.747  44.907   7.126  1.00  0.00     0.014 A 
HETATM    7  C   UNL     1     -51.662  44.490   5.797  1.00  0.00     0.040 A 
HETATM    8  C   UNL     1     -51.598  45.436   4.774  1.00  0.00     0.098 A 
BRANCH   5   9
HETATM    9  C   UNL     1     -51.860  46.701   8.816  1.00  0.00     0.012 C 
HETATM   10  C   UNL     1     -52.765  47.585   9.300  1.00  0.00     0.012 C 
BRANCH  10  11
HETATM   11  C   UNL     1     -52.868  48.003  10.690  1.00  0.00    -0.036 A 
HETATM   12  C   UNL     1     -53.355  49.271  11.002  1.00  0.00     0.011 A 
HETATM   13  C   UNL     1     -53.454  49.672  12.335  1.00  0.00     0.001 A 
HETATM   14  C   UNL     1     -53.065  48.803  13.354  1.00  0.00     0.000 A 
HETATM   15  C   UNL     1     -52.578  47.534  13.042  1.00  0.00     0.001 A 
HETATM   16  C   UNL     1     -52.480  47.133  11.709  1.00  0.00     0.011 A 
ENDBRANCH  10  11
ENDBRANCH   5   9
BRANCH   8  17
HETATM   17  O   UNL     1     -51.513  45.017   3.480  1.00  0.00    -0.358 OA
HETATM   18  H   UNL     1     -52.282  44.992   2.944  1.00  0.00     0.217 HD
ENDBRANCH   8  17
ENDBRANCH   1   3
TORSDOF 4
ENDMDL
MODEL 4
REMARK VINA RESULT:      -7.4      1.623      2.417
REMARK  4 active torsions:
REMARK  status: ('A' for Active; 'I' for Inactive)
REMARK    1  A    between atoms: O_1  and  C_9 
REMARK    2  A    between atoms: O_2  and  C_10 
REMARK    3  A    between atoms: C_3  and  C_5 
REMARK    4  A    between atoms: C_4  and  C_8 
ROOT
HETATM    1  O   UNL     1     -53.528  45.100   4.846  1.00  0.00    -0.358 OA
HETATM    2  H   UNL     1     -53.757  44.314   5.302  1.00  0.00     0.217 HD
ENDROOT
BRANCH   1   3
HETATM    3  C   UNL     1     -52.728  46.027   5.445  1.00  0.00     0.099 A 
HETATM    4  C   UNL     1     -53.048  46.485   6.723  1.00  0.00     0.050 A 
HETATM    5  C   UNL     1     -52.234  47.428   7.328  1.00  0.00    -0.033 A 
HETATM    6  C   UNL     1     -51.109  47.926   6.691  1.00  0.00     0.014 A 
HETATM    7  C   UNL     1     -50.789  47.468   5.413  1.00  0.00     0.040 A 
HETATM    8  C   UNL     1     -51.599  46.519   4.790  1.00  0.00     0.098 A 
BRANCH   5   9
HETATM    9  C   UNL     1     -52.570  47.911   8.679  1.00  0.00     0.012 C 
HETATM   10  C   UNL     1     -52.325  47.242   9.831  1.00  0.00     0.012 C 
BRANCH  10  11
HETATM   11  C   UNL     1     -52.640  47.728  11.166  1.00  0.00    -0.036 A 
HETATM   12  C   UNL     1     -52.313  46.960  12.283  1.00  0.00     0.011 A 
HETATM   13  C   UNL     1     -52.613  47.426  13.563  1.00  0.00     0.001 A 
HETATM   14  C   UNL     1     -53.242  48.661  13.724  1.00  0.00     0.000 A 
HETATM   15  C   UNL     1     -53.569  49.430  12.607  1.00  0.00     0.001 A 
HETATM   16  C   UNL     1     -53.268  48.963  11.327  1.00  0.00     0.011 A 
ENDBRANCH  10  11
ENDBRANCH   5   9
BRANCH   8  17
HETATM   17  O   UNL     1     -51.278  46.081   3.541  1.00  0.00    -0.358 OA
HETATM   18  H   UNL     1     -50.580  46.489   3.066  1.00  0.00     0.217 HD
ENDBRANCH   8  17
ENDBRANCH   1   3
TORSDOF 4
ENDMDL
MODEL 5
REMARK VINA RESULT:      -7.3      0.680      2.076
REMARK  4 active torsions:
REMARK  status: ('A' for Active; 'I' for Inactive)
REMARK    1  A    between atoms: O_1  and  C_9 
REMARK    2  A    between atoms: O_2  and  C_10 
REMARK    3  A    between atoms: C_3  and  C_5 
REMARK    4  A    between atoms: C_4  and  C_8 
ROOT
HETATM    1  O   UNL     1     -51.763  42.628   6.572  1.00  0.00    -0.358 OA
HETATM    2  H   UNL     1     -52.569  42.157   6.484  1.00  0.00     0.217 HD
ENDROOT
BRANCH   1   3
HETATM    3  C   UNL     1     -51.685  43.926   6.162  1.00  0.00     0.099 A 
HETATM    4  C   UNL     1     -51.887  44.950   7.088  1.00  0.00     0.050 A 
HETATM    5  C   UNL     1     -51.808  46.268   6.668  1.00  0.00    -0.033 A 
HETATM    6  C   UNL     1     -51.532  46.590   5.349  1.00  0.00     0.014 A 
HETATM    7  C   UNL     1     -51.329  45.565   4.424  1.00  0.00     0.040 A 
HETATM    8  C   UNL     1     -51.406  44.234   4.831  1.00  0.00     0.098 A 
BRANCH   5   9
HETATM    9  C   UNL     1     -52.020  47.350   7.645  1.00  0.00     0.012 C 
HETATM   10  C   UNL     1     -52.963  47.350   8.617  1.00  0.00     0.012 C 
BRANCH  10  11
HETATM   11  C   UNL     1     -53.160  48.410   9.595  1.00  0.00    -0.036 A 
HETATM   12  C   UNL     1     -53.482  49.698   9.171  1.00  0.00     0.011 A 
HETATM   13  C   UNL     1     -53.671  50.714  10.108  1.00  0.00     0.001 A 
HETATM   14  C   UNL     1     -53.537  50.440  11.469  1.00  0.00     0.000 A 
HETATM   15  C   UNL     1     -53.215  49.151  11.893  1.00  0.00     0.001 A 
HETATM   16  C   UNL     1     -53.026  48.135  10.956  1.00  0.00     0.011 A 
ENDBRANCH  10  11
ENDBRANCH   5   9
BRANCH   8  17
HETATM   17  O   UNL     1     -51.209  43.242   3.918  1.00  0.00    -0.358 OA
HETATM   18  H   UNL     1     -51.787  42.505   3.894  1.00  0.00     0.217 HD
ENDBRANCH   8  17
ENDBRANCH   1   3
TORSDOF 4
ENDMDL
MODEL 6
REMARK VINA RESULT:      -7.0      4.334      6.872
REMARK  4 active torsions:
REMARK  status: ('A' for Active; 'I' for Inactive)
REMARK    1  A    between atoms: O_1  and  C_9 
REMARK    2  A    between atoms: O_2  and  C_10 
REMARK    3  A    between atoms: C_3  and  C_5 
REMARK    4  A    between atoms: C_4  and  C_8 
ROOT
HETATM    1  O   UNL     1     -53.438  50.376   7.761  1.00  0.00    -0.358 OA
HETATM    2  H   UNL     1     -54.020  50.979   7.340  1.00  0.00     0.217 HD
ENDROOT
BRANCH   1   3
HETATM    3  C   UNL     1     -53.429  50.274   9.119  1.00  0.00     0.099 A 
HETATM    4  C   UNL     1     -53.233  49.026   9.712  1.00  0.00     0.050 A 
HETATM    5  C   UNL     1     -53.225  48.927  11.094  1.00  0.00    -0.033 A 
HETATM    6  C   UNL     1     -53.407  50.039  11.899  1.00  0.00     0.014 A 
HETATM    7  C   UNL     1     -53.603  51.287  11.306  1.00  0.00     0.040 A 
HETATM    8  C   UNL     1     -53.614  51.403   9.916  1.00  0.00     0.098 A 
BRANCH   5   9
HETATM    9  C   UNL     1     -53.017  47.609  11.721  1.00  0.00     0.012 C 
HETATM   10  C   UNL     1     -52.355  46.572  11.155  1.00  0.00     0.012 C 
BRANCH  10  11
HETATM   11  C   UNL     1     -52.132  45.277  11.782  1.00  0.00    -0.036 A 
HETATM   12  C   UNL     1     -52.294  44.107  11.043  1.00  0.00     0.011 A 
HETATM   13  C   UNL     1     -52.080  42.866  11.644  1.00  0.00     0.001 A 
HETATM   14  C   UNL     1     -51.704  42.798  12.985  1.00  0.00     0.000 A 
HETATM   15  C   UNL     1     -51.542  43.969  13.726  1.00  0.00     0.001 A 
HETATM   16  C   UNL     1     -51.756  45.210  13.124  1.00  0.00     0.011 A 
ENDBRANCH  10  11
ENDBRANCH   5   9
BRANCH   8  17
HETATM   17  O   UNL     1     -53.808  52.627   9.349  1.00  0.00    -0.358 OA
HETATM   18  H   UNL     1     -53.957  53.376   9.892  1.00  0.00     0.217 HD
ENDBRANCH   8  17
ENDBRANCH   1   3
TORSDOF 4
ENDMDL
MODEL 7
REMARK VINA RESULT:      -7.0      4.335      6.824
REMARK  4 active torsions:
REMARK  status: ('A' for Active; 'I' for Inactive)
REMARK    1  A    between atoms: O_1  and  C_9 
REMARK    2  A    between atoms: O_2  and  C_10 
REMARK    3  A    between atoms: C_3  and  C_5 
REMARK    4  A    between atoms: C_4  and  C_8 
ROOT
HETATM    1  O   UNL     1     -53.438  50.292   7.757  1.00  0.00    -0.358 OA
HETATM    2  H   UNL     1     -54.026  50.883   7.329  1.00  0.00     0.217 HD
ENDROOT
BRANCH   1   3
HETATM    3  C   UNL     1     -53.422  50.215   9.118  1.00  0.00     0.099 A 
HETATM    4  C   UNL     1     -53.213  48.980   9.731  1.00  0.00     0.050 A 
HETATM    5  C   UNL     1     -53.198  48.904  11.115  1.00  0.00    -0.033 A 
HETATM    6  C   UNL     1     -53.387  50.028  11.901  1.00  0.00     0.014 A 
HETATM    7  C   UNL     1     -53.596  51.264  11.287  1.00  0.00     0.040 A 
HETATM    8  C   UNL     1     -53.614  51.356   9.896  1.00  0.00     0.098 A 
BRANCH   5   9
HETATM    9  C   UNL     1     -52.976  47.599  11.764  1.00  0.00     0.012 C 
HETATM   10  C   UNL     1     -52.428  46.514  11.167  1.00  0.00     0.012 C 
BRANCH  10  11
HETATM   11  C   UNL     1     -52.191  45.232  11.813  1.00  0.00    -0.036 A 
HETATM   12  C   UNL     1     -51.711  45.189  13.121  1.00  0.00     0.011 A 
HETATM   13  C   UNL     1     -51.483  43.961  13.741  1.00  0.00     0.001 A 
HETATM   14  C   UNL     1     -51.736  42.775  13.051  1.00  0.00     0.000 A 
HETATM   15  C   UNL     1     -52.217  42.818  11.742  1.00  0.00     0.001 A 
HETATM   16  C   UNL     1     -52.445  44.047  11.123  1.00  0.00     0.011 A 
ENDBRANCH  10  11
ENDBRANCH   5   9
BRANCH   8  17
HETATM   17  O   UNL     1     -53.821  52.568   9.308  1.00  0.00    -0.358 OA
HETATM   18  H   UNL     1     -53.807  52.644   8.374  1.00  0.00     0.217 HD
ENDBRANCH   8  17
ENDBRANCH   1   3
TORSDOF 4
ENDMDL
MODEL 8
REMARK VINA RESULT:      -6.8      5.007      7.188
REMARK  4 active torsions:
REMARK  status: ('A' for Active; 'I' for Inactive)
REMARK    1  A    between atoms: O_1  and  C_9 
REMARK    2  A    between atoms: O_2  and  C_10 
REMARK    3  A    between atoms: C_3  and  C_5 
REMARK    4  A    between atoms: C_4  and  C_8 
ROOT
HETATM    1  O   UNL     1     -53.515  52.327  11.743  1.00  0.00    -0.358 OA
HETATM    2  H   UNL     1     -54.344  52.651  12.036  1.00  0.00     0.217 HD
ENDROOT
BRANCH   1   3
HETATM    3  C   UNL     1     -53.435  51.107  11.141  1.00  0.00     0.099 A 
HETATM    4  C   UNL     1     -53.206  49.973  11.920  1.00  0.00     0.050 A 
HETATM    5  C   UNL     1     -53.125  48.734  11.304  1.00  0.00    -0.033 A 
HETATM    6  C   UNL     1     -53.265  48.599   9.933  1.00  0.00     0.014 A 
HETATM    7  C   UNL     1     -53.494  49.734   9.154  1.00  0.00     0.040 A 
HETATM    8  C   UNL     1     -53.578  50.987   9.759  1.00  0.00     0.098 A 
BRANCH   5   9
HETATM    9  C   UNL     1     -52.884  47.534  12.126  1.00  0.00     0.012 C 
HETATM   10  C   UNL     1     -52.067  46.508  11.789  1.00  0.00     0.012 C 
BRANCH  10  11
HETATM   11  C   UNL     1     -51.815  45.333  12.609  1.00  0.00    -0.036 A 
HETATM   12  C   UNL     1     -51.011  45.434  13.743  1.00  0.00     0.011 A 
HETATM   13  C   UNL     1     -50.769  44.308  14.530  1.00  0.00     0.001 A 
HETATM   14  C   UNL     1     -51.333  43.081  14.181  1.00  0.00     0.000 A 
HETATM   15  C   UNL     1     -52.138  42.979  13.046  1.00  0.00     0.001 A 
HETATM   16  C   UNL     1     -52.380  44.106  12.261  1.00  0.00     0.011 A 
ENDBRANCH  10  11
ENDBRANCH   5   9
BRANCH   8  17
HETATM   17  O   UNL     1     -53.800  52.089   8.988  1.00  0.00    -0.358 OA
HETATM   18  H   UNL     1     -53.945  51.994   8.067  1.00  0.00     0.217 HD
ENDBRANCH   8  17
ENDBRANCH   1   3
TORSDOF 4
ENDMDL
MODEL 9
REMARK VINA RESULT:      -6.8      4.047      7.097
REMARK  4 active torsions:
REMARK  status: ('A' for Active; 'I' for Inactive)
REMARK    1  A    between atoms: O_1  and  C_9 
REMARK    2  A    between atoms: O_2  and  C_10 
REMARK    3  A    between atoms: C_3  and  C_5 
REMARK    4  A    between atoms: C_4  and  C_8 
ROOT
HETATM    1  O   UNL     1     -53.614  51.969   8.892  1.00  0.00    -0.358 OA
HETATM    2  H   UNL     1     -53.118  51.955   8.097  1.00  0.00     0.217 HD
ENDROOT
BRANCH   1   3
HETATM    3  C   UNL     1     -53.547  50.917   9.756  1.00  0.00     0.099 A 
HETATM    4  C   UNL     1     -53.544  49.617   9.252  1.00  0.00     0.050 A 
HETATM    5  C   UNL     1     -53.476  48.550  10.133  1.00  0.00    -0.033 A 
HETATM    6  C   UNL     1     -53.412  48.747  11.503  1.00  0.00     0.014 A 
HETATM    7  C   UNL     1     -53.415  50.048  12.006  1.00  0.00     0.040 A 
HETATM    8  C   UNL     1     -53.483  51.133  11.132  1.00  0.00     0.098 A 
BRANCH   5   9
HETATM    9  C   UNL     1     -53.471  47.175   9.602  1.00  0.00     0.012 C 
HETATM   10  C   UNL     1     -52.610  46.198   9.973  1.00  0.00     0.012 C 
BRANCH  10  11
HETATM   11  C   UNL     1     -52.618  44.835   9.464  1.00  0.00    -0.036 A 
HETATM   12  C   UNL     1     -51.461  44.292   8.907  1.00  0.00     0.011 A 
HETATM   13  C   UNL     1     -51.469  42.985   8.418  1.00  0.00     0.001 A 
HETATM   14  C   UNL     1     -52.634  42.222   8.488  1.00  0.00     0.000 A 
HETATM   15  C   UNL     1     -53.792  42.766   9.045  1.00  0.00     0.001 A 
HETATM   16  C   UNL     1     -53.784  44.072   9.534  1.00  0.00     0.011 A 
ENDBRANCH  10  11
ENDBRANCH   5   9
BRANCH   8  17
HETATM   17  O   UNL     1     -53.488  52.399  11.636  1.00  0.00    -0.358 OA
HETATM   18  H   UNL     1     -54.206  52.691  12.163  1.00  0.00     0.217 HD
ENDBRANCH   8  17
ENDBRANCH   1   3
TORSDOF 4
ENDMDL
