MODEL 1
REMARK VINA RESULT:      -6.4      0.000      0.000
REMARK  7 active torsions:
REMARK  status: ('A' for Active; 'I' for Inactive)
REMARK    1  A    between atoms: O_1  and  C_12 
REMARK    2  A    between atoms: O_3  and  C_15 
REMARK    3  A    between atoms: C_5  and  C_6 
REMARK    4  A    between atoms: C_5  and  C_7 
REMARK    5  A    between atoms: C_6  and  C_8 
REMARK    6  A    between atoms: C_7  and  C_9 
REMARK    7  A    between atoms: C_9  and  C_14 
ROOT
HETATM    1  O   UNL     1      31.494  76.252  23.572  1.00  0.00    -0.358 OA
HETATM    2  H   UNL     1      30.805  76.384  24.193  1.00  0.00     0.217 HD
ENDROOT
BRANCH   1   3
HETATM    3  C   UNL     1      31.369  76.734  22.303  1.00  0.00     0.099 A 
HETATM    4  C   UNL     1      31.729  75.927  21.225  1.00  0.00     0.046 A 
HETATM    5  C   UNL     1      31.608  76.409  19.921  1.00  0.00    -0.055 A 
HETATM    6  C   UNL     1      31.127  77.700  19.697  1.00  0.00     0.010 A 
HETATM    7  C   UNL     1      30.766  78.506  20.777  1.00  0.00     0.040 A 
HETATM    8  C   UNL     1      30.887  78.023  22.079  1.00  0.00     0.098 A 
BRANCH   5   9
HETATM    9  C   UNL     1      31.999  75.537  18.755  1.00  0.00     0.038 C 
BRANCH   9  10
HETATM   10  C   UNL     1      31.107  75.713  17.521  1.00  0.00     0.005 C 
BRANCH  10  11
HETATM   11  C   UNL     1      31.908  75.946  16.232  1.00  0.00     0.011 C 
BRANCH  11  12
HETATM   12  C   UNL     1      31.440  77.188  15.472  1.00  0.00     0.113 C 
BRANCH  12  13
HETATM   13  C   UNL     1      31.572  78.464  16.272  1.00  0.00     0.172 C 
HETATM   14  O   UNL     1      30.368  79.073  16.438  1.00  0.00    -0.648 OA
HETATM   15  O   UNL     1      32.612  78.906  16.739  1.00  0.00    -0.648 OA
ENDBRANCH  12  13
ENDBRANCH  11  12
ENDBRANCH  10  11
ENDBRANCH   9  10
ENDBRANCH   5   9
BRANCH   8  16
HETATM   16  O   UNL     1      30.532  78.821  23.125  1.00  0.00    -0.358 OA
HETATM   17  H   UNL     1      31.193  79.188  23.680  1.00  0.00     0.217 HD
ENDBRANCH   8  16
ENDBRANCH   1   3
TORSDOF 7
ENDMDL
MODEL 2
REMARK VINA RESULT:      -6.4      3.025      4.869
REMARK  7 active torsions:
REMARK  status: ('A' for Active; 'I' for Inactive)
REMARK    1  A    between atoms: O_1  and  C_12 
REMARK    2  A    between atoms: O_3  and  C_15 
REMARK    3  A    between atoms: C_5  and  C_6 
REMARK    4  A    between atoms: C_5  and  C_7 
REMARK    5  A    between atoms: C_6  and  C_8 
REMARK    6  A    between atoms: C_7  and  C_9 
REMARK    7  A    between atoms: C_9  and  C_14 
ROOT
HETATM    1  O   UNL     1      31.049  72.664  23.456  1.00  0.00    -0.358 OA
HETATM    2  H   UNL     1      30.129  72.837  23.427  1.00  0.00     0.217 HD
ENDROOT
BRANCH   1   3
HETATM    3  C   UNL     1      31.864  73.151  22.478  1.00  0.00     0.099 A 
HETATM    4  C   UNL     1      31.309  73.872  21.420  1.00  0.00     0.046 A 
HETATM    5  C   UNL     1      32.132  74.375  20.412  1.00  0.00    -0.055 A 
HETATM    6  C   UNL     1      33.509  74.155  20.461  1.00  0.00     0.010 A 
HETATM    7  C   UNL     1      34.063  73.435  21.519  1.00  0.00     0.040 A 
HETATM    8  C   UNL     1      33.240  72.932  22.527  1.00  0.00     0.098 A 
BRANCH   5   9
HETATM    9  C   UNL     1      31.533  75.154  19.268  1.00  0.00     0.038 C 
BRANCH   9  10
HETATM   10  C   UNL     1      32.020  76.604  19.181  1.00  0.00     0.005 C 
BRANCH  10  11
HETATM   11  C   UNL     1      31.097  77.591  19.908  1.00  0.00     0.011 C 
BRANCH  11  12
HETATM   12  C   UNL     1      31.794  78.289  21.076  1.00  0.00     0.113 C 
BRANCH  12  13
HETATM   13  C   UNL     1      31.792  77.473  22.349  1.00  0.00     0.172 C 
HETATM   14  O   UNL     1      30.561  77.454  22.924  1.00  0.00    -0.648 OA
HETATM   15  O   UNL     1      32.755  76.880  22.815  1.00  0.00    -0.648 OA
ENDBRANCH  12  13
ENDBRANCH  11  12
ENDBRANCH  10  11
ENDBRANCH   9  10
ENDBRANCH   5   9
BRANCH   8  16
HETATM   16  O   UNL     1      33.793  72.229  23.555  1.00  0.00    -0.358 OA
HETATM   17  H   UNL     1      34.294  72.674  24.210  1.00  0.00     0.217 HD
ENDBRANCH   8  16
ENDBRANCH   1   3
TORSDOF 7
ENDMDL
MODEL 3
REMARK VINA RESULT:      -6.3      1.048      2.118
REMARK  7 active torsions:
REMARK  status: ('A' for Active; 'I' for Inactive)
REMARK    1  A    between atoms: O_1  and  C_12 
REMARK    2  A    between atoms: O_3  and  C_15 
REMARK    3  A    between atoms: C_5  and  C_6 
REMARK    4  A    between atoms: C_5  and  C_7 
REMARK    5  A    between atoms: C_6  and  C_8 
REMARK    6  A    between atoms: C_7  and  C_9 
REMARK    7  A    between atoms: C_9  and  C_14 
ROOT
HETATM    1  O   UNL     1      30.402  78.189  22.938  1.00  0.00    -0.358 OA
HETATM    2  H   UNL     1      30.569  78.250  23.858  1.00  0.00     0.217 HD
ENDROOT
BRANCH   1   3
HETATM    3  C   UNL     1      31.110  77.310  22.173  1.00  0.00     0.099 A 
HETATM    4  C   UNL     1      31.305  77.583  20.820  1.00  0.00     0.046 A 
HETATM    5  C   UNL     1      32.026  76.690  20.026  1.00  0.00    -0.055 A 
HETATM    6  C   UNL     1      32.549  75.524  20.586  1.00  0.00     0.010 A 
HETATM    7  C   UNL     1      32.354  75.252  21.940  1.00  0.00     0.040 A 
HETATM    8  C   UNL     1      31.633  76.145  22.733  1.00  0.00     0.098 A 
BRANCH   5   9
HETATM    9  C   UNL     1      32.237  76.984  18.562  1.00  0.00     0.038 C 
BRANCH   9  10
HETATM   10  C   UNL     1      31.555  75.983  17.622  1.00  0.00     0.005 C 
BRANCH  10  11
HETATM   11  C   UNL     1      31.824  76.274  16.140  1.00  0.00     0.011 C 
BRANCH  11  12
HETATM   12  C   UNL     1      31.559  77.735  15.775  1.00  0.00     0.113 C 
BRANCH  12  13
HETATM   13  C   UNL     1      30.107  78.133  15.913  1.00  0.00     0.172 C 
HETATM   14  O   UNL     1      29.955  79.164  16.785  1.00  0.00    -0.648 OA
HETATM   15  O   UNL     1      29.170  77.624  15.313  1.00  0.00    -0.648 OA
ENDBRANCH  12  13
ENDBRANCH  11  12
ENDBRANCH  10  11
ENDBRANCH   9  10
ENDBRANCH   5   9
BRANCH   8  16
HETATM   16  O   UNL     1      31.448  75.868  24.055  1.00  0.00    -0.358 OA
HETATM   17  H   UNL     1      31.100  75.038  24.315  1.00  0.00     0.217 HD
ENDBRANCH   8  16
ENDBRANCH   1   3
TORSDOF 7
ENDMDL
MODEL 4
REMARK VINA RESULT:      -6.3      1.567      2.653
REMARK  7 active torsions:
REMARK  status: ('A' for Active; 'I' for Inactive)
REMARK    1  A    between atoms: O_1  and  C_12 
REMARK    2  A    between atoms: O_3  and  C_15 
REMARK    3  A    between atoms: C_5  and  C_6 
REMARK    4  A    between atoms: C_5  and  C_7 
REMARK    5  A    between atoms: C_6  and  C_8 
REMARK    6  A    between atoms: C_7  and  C_9 
REMARK    7  A    between atoms: C_9  and  C_14 
ROOT
HETATM    1  O   UNL     1      31.750  76.025  23.935  1.00  0.00    -0.358 OA
HETATM    2  H   UNL     1      31.118  75.476  24.357  1.00  0.00     0.217 HD
ENDROOT
BRANCH   1   3
HETATM    3  C   UNL     1      31.966  75.908  22.594  1.00  0.00     0.099 A 
HETATM    4  C   UNL     1      31.321  76.781  21.718  1.00  0.00     0.046 A 
HETATM    5  C   UNL     1      31.533  76.671  20.343  1.00  0.00    -0.055 A 
HETATM    6  C   UNL     1      32.388  75.687  19.845  1.00  0.00     0.010 A 
HETATM    7  C   UNL     1      33.034  74.816  20.723  1.00  0.00     0.040 A 
HETATM    8  C   UNL     1      32.822  74.926  22.097  1.00  0.00     0.098 A 
BRANCH   5   9
HETATM    9  C   UNL     1      30.835  77.613  19.395  1.00  0.00     0.038 C 
BRANCH   9  10
HETATM   10  C   UNL     1      30.922  77.193  17.924  1.00  0.00     0.005 C 
BRANCH  10  11
HETATM   11  C   UNL     1      30.204  78.166  16.979  1.00  0.00     0.011 C 
BRANCH  11  12
HETATM   12  C   UNL     1      30.587  77.945  15.515  1.00  0.00     0.113 C 
BRANCH  12  13
HETATM   13  C   UNL     1      32.077  78.014  15.269  1.00  0.00     0.172 C 
HETATM   14  O   UNL     1      32.559  76.829  14.809  1.00  0.00    -0.648 OA
HETATM   15  O   UNL     1      32.780  79.001  15.434  1.00  0.00    -0.648 OA
ENDBRANCH  12  13
ENDBRANCH  11  12
ENDBRANCH  10  11
ENDBRANCH   9  10
ENDBRANCH   5   9
BRANCH   8  16
HETATM   16  O   UNL     1      33.457  74.068  22.944  1.00  0.00    -0.358 OA
HETATM   17  H   UNL     1      33.566  73.169  22.704  1.00  0.00     0.217 HD
ENDBRANCH   8  16
ENDBRANCH   1   3
TORSDOF 7
ENDMDL
MODEL 5
REMARK VINA RESULT:      -6.3      1.687      5.646
REMARK  7 active torsions:
REMARK  status: ('A' for Active; 'I' for Inactive)
REMARK    1  A    between atoms: O_1  and  C_12 
REMARK    2  A    between atoms: O_3  and  C_15 
REMARK    3  A    between atoms: C_5  and  C_6 
REMARK    4  A    between atoms: C_5  and  C_7 
REMARK    5  A    between atoms: C_6  and  C_8 
REMARK    6  A    between atoms: C_7  and  C_9 
REMARK    7  A    between atoms: C_9  and  C_14 
ROOT
HETATM    1  O   UNL     1      29.986  79.064  16.572  1.00  0.00    -0.358 OA
HETATM    2  H   UNL     1      29.588  79.161  15.729  1.00  0.00     0.217 HD
ENDROOT
BRANCH   1   3
HETATM    3  C   UNL     1      30.408  77.837  16.989  1.00  0.00     0.099 A 
HETATM    4  C   UNL     1      31.094  77.724  18.198  1.00  0.00     0.046 A 
HETATM    5  C   UNL     1      31.533  76.474  18.636  1.00  0.00    -0.055 A 
HETATM    6  C   UNL     1      31.287  75.338  17.864  1.00  0.00     0.010 A 
HETATM    7  C   UNL     1      30.600  75.453  16.654  1.00  0.00     0.040 A 
HETATM    8  C   UNL     1      30.161  76.703  16.218  1.00  0.00     0.098 A 
BRANCH   5   9
HETATM    9  C   UNL     1      32.276  76.350  19.943  1.00  0.00     0.038 C 
BRANCH   9  10
HETATM   10  C   UNL     1      31.376  76.439  21.180  1.00  0.00     0.005 C 
BRANCH  10  11
HETATM   11  C   UNL     1      31.826  77.519  22.172  1.00  0.00     0.011 C 
BRANCH  11  12
HETATM   12  C   UNL     1      31.455  78.928  21.709  1.00  0.00     0.113 C 
BRANCH  12  13
HETATM   13  C   UNL     1      32.111  80.019  22.525  1.00  0.00     0.172 C 
HETATM   14  O   UNL     1      33.129  79.530  23.280  1.00  0.00    -0.648 OA
HETATM   15  O   UNL     1      31.800  81.202  22.511  1.00  0.00    -0.648 OA
ENDBRANCH  12  13
ENDBRANCH  11  12
ENDBRANCH  10  11
ENDBRANCH   9  10
ENDBRANCH   5   9
BRANCH   8  16
HETATM   16  O   UNL     1      29.492  76.802  15.035  1.00  0.00    -0.358 OA
HETATM   17  H   UNL     1      28.724  76.287  14.887  1.00  0.00     0.217 HD
ENDBRANCH   8  16
ENDBRANCH   1   3
TORSDOF 7
ENDMDL
MODEL 6
REMARK VINA RESULT:      -6.2      2.154      3.095
REMARK  7 active torsions:
REMARK  status: ('A' for Active; 'I' for Inactive)
REMARK    1  A    between atoms: O_1  and  C_12 
REMARK    2  A    between atoms: O_3  and  C_15 
REMARK    3  A    between atoms: C_5  and  C_6 
REMARK    4  A    between atoms: C_5  and  C_7 
REMARK    5  A    between atoms: C_6  and  C_8 
REMARK    6  A    between atoms: C_7  and  C_9 
REMARK    7  A    between atoms: C_9  and  C_14 
ROOT
HETATM    1  O   UNL     1      29.165  79.946  22.141  1.00  0.00    -0.358 OA
HETATM    2  H   UNL     1      28.537  79.927  22.836  1.00  0.00     0.217 HD
ENDROOT
BRANCH   1   3
HETATM    3  C   UNL     1      30.357  79.299  22.281  1.00  0.00     0.099 A 
HETATM    4  C   UNL     1      30.392  77.907  22.214  1.00  0.00     0.046 A 
HETATM    5  C   UNL     1      31.605  77.232  22.358  1.00  0.00    -0.055 A 
HETATM    6  C   UNL     1      32.781  77.951  22.571  1.00  0.00     0.010 A 
HETATM    7  C   UNL     1      32.745  79.344  22.638  1.00  0.00     0.040 A 
HETATM    8  C   UNL     1      31.532  80.018  22.493  1.00  0.00     0.098 A 
BRANCH   5   9
HETATM    9  C   UNL     1      31.643  75.726  22.287  1.00  0.00     0.038 C 
BRANCH   9  10
HETATM   10  C   UNL     1      32.386  75.181  21.062  1.00  0.00     0.005 C 
BRANCH  10  11
HETATM   11  C   UNL     1      31.547  75.240  19.778  1.00  0.00     0.011 C 
BRANCH  11  12
HETATM   12  C   UNL     1      32.201  76.096  18.693  1.00  0.00     0.113 C 
BRANCH  12  13
HETATM   13  C   UNL     1      31.712  77.526  18.683  1.00  0.00     0.172 C 
HETATM   14  O   UNL     1      30.483  77.626  18.111  1.00  0.00    -0.648 OA
HETATM   15  O   UNL     1      32.314  78.487  19.142  1.00  0.00    -0.648 OA
ENDBRANCH  12  13
ENDBRANCH  11  12
ENDBRANCH  10  11
ENDBRANCH   9  10
ENDBRANCH   5   9
BRANCH   8  16
HETATM   16  O   UNL     1      31.509  81.378  22.561  1.00  0.00    -0.358 OA
HETATM   17  H   UNL     1      30.889  81.809  23.116  1.00  0.00     0.217 HD
ENDBRANCH   8  16
ENDBRANCH   1   3
TORSDOF 7
ENDMDL
MODEL 7
REMARK VINA RESULT:      -6.2      3.332      5.383
REMARK  7 active torsions:
REMARK  status: ('A' for Active; 'I' for Inactive)
REMARK    1  A    between atoms: O_1  and  C_12 
REMARK    2  A    between atoms: O_3  and  C_15 
REMARK    3  A    between atoms: C_5  and  C_6 
REMARK    4  A    between atoms: C_5  and  C_7 
REMARK    5  A    between atoms: C_6  and  C_8 
REMARK    6  A    between atoms: C_7  and  C_9 
REMARK    7  A    between atoms: C_9  and  C_14 
ROOT
HETATM    1  O   UNL     1      34.081  73.310  23.360  1.00  0.00    -0.358 OA
HETATM    2  H   UNL     1      34.574  72.568  23.652  1.00  0.00     0.217 HD
ENDROOT
BRANCH   1   3
HETATM    3  C   UNL     1      33.844  73.490  22.030  1.00  0.00     0.099 A 
HETATM    4  C   UNL     1      33.151  74.623  21.605  1.00  0.00     0.046 A 
HETATM    5  C   UNL     1      32.900  74.818  20.246  1.00  0.00    -0.055 A 
HETATM    6  C   UNL     1      33.342  73.879  19.313  1.00  0.00     0.010 A 
HETATM    7  C   UNL     1      34.036  72.746  19.739  1.00  0.00     0.040 A 
HETATM    8  C   UNL     1      34.286  72.552  21.098  1.00  0.00     0.098 A 
BRANCH   5   9
HETATM    9  C   UNL     1      32.149  76.042  19.786  1.00  0.00     0.038 C 
BRANCH   9  10
HETATM   10  C   UNL     1      31.473  76.819  20.921  1.00  0.00     0.005 C 
BRANCH  10  11
HETATM   11  C   UNL     1      31.359  78.322  20.633  1.00  0.00     0.011 C 
BRANCH  11  12
HETATM   12  C   UNL     1      30.903  79.117  21.857  1.00  0.00     0.113 C 
BRANCH  12  13
HETATM   13  C   UNL     1      32.033  79.840  22.556  1.00  0.00     0.172 C 
HETATM   14  O   UNL     1      31.858  81.187  22.520  1.00  0.00    -0.648 OA
HETATM   15  O   UNL     1      32.984  79.306  23.110  1.00  0.00    -0.648 OA
ENDBRANCH  12  13
ENDBRANCH  11  12
ENDBRANCH  10  11
ENDBRANCH   9  10
ENDBRANCH   5   9
BRANCH   8  16
HETATM   16  O   UNL     1      34.964  71.441  21.502  1.00  0.00    -0.358 OA
HETATM   17  H   UNL     1      35.069  71.264  22.416  1.00  0.00     0.217 HD
ENDBRANCH   8  16
ENDBRANCH   1   3
TORSDOF 7
ENDMDL
MODEL 8
REMARK VINA RESULT:      -6.1      2.925      4.748
REMARK  7 active torsions:
REMARK  status: ('A' for Active; 'I' for Inactive)
REMARK    1  A    between atoms: O_1  and  C_12 
REMARK    2  A    between atoms: O_3  and  C_15 
REMARK    3  A    between atoms: C_5  and  C_6 
REMARK    4  A    between atoms: C_5  and  C_7 
REMARK    5  A    between atoms: C_6  and  C_8 
REMARK    6  A    between atoms: C_7  and  C_9 
REMARK    7  A    between atoms: C_9  and  C_14 
ROOT
HETATM    1  O   UNL     1      34.103  72.819  23.244  1.00  0.00    -0.358 OA
HETATM    2  H   UNL     1      34.481  73.443  23.833  1.00  0.00     0.217 HD
ENDROOT
BRANCH   1   3
HETATM    3  C   UNL     1      33.142  73.212  22.361  1.00  0.00     0.099 A 
HETATM    4  C   UNL     1      33.466  74.123  21.356  1.00  0.00     0.046 A 
HETATM    5  C   UNL     1      32.490  74.535  20.447  1.00  0.00    -0.055 A 
HETATM    6  C   UNL     1      31.191  74.036  20.545  1.00  0.00     0.010 A 
HETATM    7  C   UNL     1      30.868  73.124  21.550  1.00  0.00     0.040 A 
HETATM    8  C   UNL     1      31.844  72.713  22.458  1.00  0.00     0.098 A 
BRANCH   5   9
HETATM    9  C   UNL     1      32.840  75.521  19.361  1.00  0.00     0.038 C 
BRANCH   9  10
HETATM   10  C   UNL     1      31.707  76.494  19.017  1.00  0.00     0.005 C 
BRANCH  10  11
HETATM   11  C   UNL     1      31.848  77.851  19.720  1.00  0.00     0.011 C 
BRANCH  11  12
HETATM   12  C   UNL     1      31.171  77.871  21.091  1.00  0.00     0.113 C 
BRANCH  12  13
HETATM   13  C   UNL     1      32.144  78.023  22.237  1.00  0.00     0.172 C 
HETATM   14  O   UNL     1      32.279  79.324  22.605  1.00  0.00    -0.648 OA
HETATM   15  O   UNL     1      32.734  77.108  22.796  1.00  0.00    -0.648 OA
ENDBRANCH  12  13
ENDBRANCH  11  12
ENDBRANCH  10  11
ENDBRANCH   9  10
ENDBRANCH   5   9
BRANCH   8  16
HETATM   16  O   UNL     1      31.516  71.823  23.437  1.00  0.00    -0.358 OA
HETATM   17  H   UNL     1      30.913  71.129  23.255  1.00  0.00     0.217 HD
ENDBRANCH   8  16
ENDBRANCH   1   3
TORSDOF 7
ENDMDL
MODEL 9
REMARK VINA RESULT:      -6.1      2.897      4.473
REMARK  7 active torsions:
REMARK  status: ('A' for Active; 'I' for Inactive)
REMARK    1  A    between atoms: O_1  and  C_12 
REMARK    2  A    between atoms: O_3  and  C_15 
REMARK    3  A    between atoms: C_5  and  C_6 
REMARK    4  A    between atoms: C_5  and  C_7 
REMARK    5  A    between atoms: C_6  and  C_8 
REMARK    6  A    between atoms: C_7  and  C_9 
REMARK    7  A    between atoms: C_9  and  C_14 
ROOT
HETATM    1  O   UNL     1      31.630  76.278  23.634  1.00  0.00    -0.358 OA
HETATM    2  H   UNL     1      32.333  75.712  23.887  1.00  0.00     0.217 HD
ENDROOT
BRANCH   1   3
HETATM    3  C   UNL     1      31.486  76.642  22.328  1.00  0.00     0.099 A 
HETATM    4  C   UNL     1      31.786  75.722  21.324  1.00  0.00     0.046 A 
HETATM    5  C   UNL     1      31.644  76.082  19.983  1.00  0.00    -0.055 A 
HETATM    6  C   UNL     1      31.203  77.363  19.648  1.00  0.00     0.010 A 
HETATM    7  C   UNL     1      30.902  78.282  20.654  1.00  0.00     0.040 A 
HETATM    8  C   UNL     1      31.044  77.921  21.993  1.00  0.00     0.098 A 
BRANCH   5   9
HETATM    9  C   UNL     1      31.970  75.088  18.897  1.00  0.00     0.038 C 
BRANCH   9  10
HETATM   10  C   UNL     1      32.018  73.634  19.379  1.00  0.00     0.005 C 
BRANCH  10  11
HETATM   11  C   UNL     1      33.374  72.962  19.121  1.00  0.00     0.011 C 
BRANCH  11  12
HETATM   12  C   UNL     1      34.444  73.407  20.118  1.00  0.00     0.113 C 
BRANCH  12  13
HETATM   13  C   UNL     1      34.219  72.875  21.515  1.00  0.00     0.172 C 
HETATM   14  O   UNL     1      33.988  71.536  21.505  1.00  0.00    -0.648 OA
HETATM   15  O   UNL     1      34.256  73.538  22.543  1.00  0.00    -0.648 OA
ENDBRANCH  12  13
ENDBRANCH  11  12
ENDBRANCH  10  11
ENDBRANCH   9  10
ENDBRANCH   5   9
BRANCH   8  16
HETATM   16  O   UNL     1      30.748  78.827  22.967  1.00  0.00    -0.358 OA
HETATM   17  H   UNL     1      31.168  79.665  22.970  1.00  0.00     0.217 HD
ENDBRANCH   8  16
ENDBRANCH   1   3
TORSDOF 7
ENDMDL
